FOO
138240
    1MOL0     O    1   7.192   6.091   4.198  0.0271 -0.9408  0.6026
    1MOL0     C    2   7.257   6.073   4.097  0.1167 -1.0001  0.3364
    1MOL0     O    3   7.214   6.028   3.978  0.3108 -0.0741 -0.1110
    1MOL0     C    4   7.082   5.993   3.959  0.0828 -0.2438  1.1075
    1MOL0     C    5   7.004   6.024   3.840 -0.1986 -0.3009 -0.8201
    1MOL0     C    6   6.875   5.980   3.822 -0.0446 -0.0082 -0.6622
    1MOL0     C    7   6.820   5.890   3.912 -0.9713  0.7332  0.6806
    1MOL0     O    8   6.688   5.848   3.891  0.1997 -0.3668 -0.1602
    1MOL0     C    9   6.597   5.935   3.818  1.2343  1.0990  0.5025
    1MOL0     C   10   6.462   5.874   3.860  0.4883  0.1090 -0.1094
    1MOL0     C   11   6.351   5.920   3.781 -0.2583 -0.9061 -0.0118
    1MOL0     C   12   6.212   5.875   3.827 -0.3494  0.2212 -0.6675
    1MOL0     C   13   6.097   5.976   3.806  0.7419 -0.2275  0.7630
    1MOL0     C   14   5.958   5.912   3.798  0.8342 -0.0106 -0.0814
    1MOL0     C   15   5.916   5.810   3.905 -0.3294  0.1474 -0.3710
    1MOL0     C   16   5.916   5.882   4.039  0.5097 -0.1852  0.9036
    1MOL0     N   17   5.846   5.792   4.140 -0.2838 -0.7785  0.2275
    1MOL0     C   18   5.915   5.734   4.244  0.0583  0.5366 -0.4566
    1MOL0     C   19   5.819   5.667   4.312  0.6240  0.2919 -0.6978
    1MOL0     C   20   5.867   5.582   4.426 -0.1491  0.1288 -0.5098
    1MOL0     C   21   5.766   5.472   4.469  0.4805  0.3747 -0.3121
    1MOL0     C   22   5.788   5.344   4.389  1.1256  0.0527  0.2242
    1MOL0     C   23   5.679   5.241   4.431 -1.8139  0.0824 -0.1975
    1MOL0     O   24   5.556   5.259   4.356 -0.5607 -0.0391 -0.1429
    1MOL0     C   25   5.449   5.173   4.371  0.3322 -0.2821 -0.5625
    1MOL0     C   26   5.340   5.182   4.281  0.4761  0.0378  0.5752
    1MOL0     C   27   5.226   5.096   4.294  0.1091 -0.1483 -1.0739
    1MOL0     C   28   5.119   5.122   4.196  0.9785  0.2732  0.2011
    1MOL0     C   29   5.218   4.998   4.396 -0.4408  0.0535 -0.0856
    1MOL0     C   30   5.111   4.894   4.407 -0.1316 -0.0336  0.7188
    1MOL0     O   31   5.107   4.821   4.516  0.2478  0.8674 -0.0224
    1MOL0     C   32   4.989   4.745   4.542  0.4637  1.1615  0.1073
    1MOL0     C   33   4.986   4.609   4.510 -0.3794 -0.5266  0.0417
    1MOL0     C   34   4.875   4.532   4.535  0.0859 -0.3584 -0.0949
    1MOL0     C   35   4.759   4.599   4.582  0.3465  0.8124  0.9123
    1MOL0     O   36   4.637   4.535   4.584 -0.0590  0.1050 -0.6995
    1MOL0     C   37   4.572   4.508   4.715  0.7674 -0.1410 -1.0057
    1MOL0     C   38   4.413   4.510   4.696  0.7546 -0.4547  0.4196
    1MOL0     C   39   4.331   4.517   4.820 -0.5195  0.8084  0.9560
    1MOL0     C   40   4.185   4.488   4.790  0.2803  0.0224  0.6465
    1MOL0     C   41   4.107   4.496   4.925  0.0224  0.2282 -0.4631
    1MOL0     C   42   4.122   4.378   5.025  0.0060 -0.4732 -0.3985
    1MOL0     C   43   4.035   4.408   5.149  0.4521  0.1023  0.6227
    1MOL0     C   44   4.054   4.286   5.237 -0.2241  0.7800 -0.7154
    1MOL0    Cl   45   3.945   4.149   5.172 -0.0937 -0.1372  0.3215
    1MOL0     C   46   4.760   4.742   4.599  1.0919  0.2888 -0.4046
    1MOL0     C   47   4.878   4.807   4.585 -0.4803 -0.6472  0.3121
    1MOL0     O   48   5.018   4.895   4.321 -0.5650  0.1077 -0.4385
    1MOL0     C   49   5.323   5.001   4.488 -0.2149 -0.7775 -0.1866
    1MOL0     C   50   5.441   5.078   4.478  0.0482  0.4812  0.7700
    1MOL0     N   51   5.696   5.704   4.269  0.9559  0.1342  0.3377
    1MOL0     N   52   5.715   5.775   4.164  0.0487 -0.1167  0.3201
    1MOL0     C   53   6.888   5.855   4.030  0.0956 -0.5682 -0.1595
    1MOL0     C   54   7.015   5.907   4.055  0.2444  0.0514 -0.4448
    1MOL0     C   55   7.392   6.130   4.102 -0.2887 -0.2056  0.1637
    1MOL0     C   56   7.474   6.140   3.990 -0.2172  0.4426 -0.2211
    1MOL0     C   57   7.608   6.185   3.996  0.6229  0.0980 -0.2947
    1MOL0     C   58   7.662   6.226   4.120 -0.1616  0.2196 -0.1123
    1MOL0     O   59   7.789   6.273   4.109 -0.2791 -0.2538 -0.5239
    1MOL0     C   60   7.851   6.325   4.229  0.1528 -0.8375  0.2370
    1MOL0     C   61   7.975   6.388   4.189  0.1259  0.4923  0.0795
    1MOL0     C   62   7.944   6.493   4.081  0.0694  0.4653  1.1075
    1MOL0     C   63   8.063   6.576   4.049  0.3524 -1.5887  0.5057
    1MOL0     C   64   8.163   6.495   3.977  0.6731  0.3499 -0.3652
    1MOL0     C   65   8.216   6.421   3.901  0.7866  0.2801  0.5737
    1MOL0     C   66   7.585   6.211   4.234  0.8350 -0.6143  0.7376
    1MOL0     C   67   7.457   6.157   4.229 -1.2703 -0.2951  0.1837
    1MOL0     H   68   7.042   6.079   3.755  0.7151 -2.9646 -2.2717
    1MOL0     H   69   6.824   6.016   3.734  0.2551 -0.3213 -0.9659
    1MOL0     H   70   6.597   6.039   3.854  0.0229  1.6228 -0.8885
    1MOL0     H   71   6.609   5.937   3.709  2.4365 -1.4294  0.5242
    1MOL0     H   72   6.453   5.765   3.864 -5.7333  0.0777 -2.6384
    1MOL0     H   73   6.449   5.918   3.959 -0.7932  1.4379 -0.8375
    1MOL0     H   74   6.340   6.029   3.778 -1.5283 -1.0345 -0.4692
    1MOL0     H   75   6.363   5.904   3.673 -3.2345  5.1254 -1.6941
    1MOL0     H   76   6.199   5.777   3.781  3.2144 -0.4123 -0.6058
    1MOL0     H   77   6.215   5.864   3.936  0.5790  2.0167 -0.4841
    1MOL0     H   78   6.114   6.048   3.887 -0.7617  0.7160  0.2776
    1MOL0     H   79   6.111   6.024   3.709  1.5019 -3.8636 -1.0724
    1MOL0     H   80   5.884   5.993   3.797  1.5723  0.7286 -2.2631
    1MOL0     H   81   5.936   5.863   3.702 -1.1946  3.2307 -1.4397
    1MOL0     H   82   5.811   5.790   3.879 -1.0020  1.1081  1.4349
    1MOL0     H   83   5.986   5.726   3.899  0.2281  0.6433 -0.9946
    1MOL0     H   84   5.856   5.974   4.037  1.0942  0.1819 -0.9369
    1MOL0     H   85   6.018   5.916   4.056 -0.3604  3.3110 -0.0788
    1MOL0     H   86   6.022   5.733   4.265 -0.1435  2.6975  0.9972
    1MOL0     H   87   5.962   5.535   4.398  1.1212  1.4161  1.3501
    1MOL0     H   88   5.890   5.655   4.505  1.2312 -2.4415  1.6190
    1MOL0     H   89   5.664   5.511   4.463  0.7543  1.3123  0.7375
    1MOL0     H   90   5.771   5.454   4.576  1.5857 -0.7686 -0.5352
    1MOL0     H   91   5.886   5.295   4.396  0.8950 -0.9102 -2.3484
    1MOL0     H   92   5.783   5.372   4.283  1.0647 -0.6449  0.0396
    1MOL0     H   93   5.673   5.253   4.540 -0.6728  2.6095 -0.3438
    1MOL0     H   94   5.722   5.143   4.408  1.6375  1.3596  0.1334
    1MOL0     H   95   5.335   5.258   4.204 -2.6080 -1.6566 -1.1165
    1MOL0     H   96   5.140   5.195   4.117  1.3486  0.6098  0.6038
    1MOL0     H   97   5.084   5.035   4.139 -0.2323 -0.1248  1.5023
    1MOL0     H   98   5.034   5.179   4.235 -0.3445 -0.0397 -1.9984
    1MOL0     H   99   5.075   4.566   4.466 -1.3271 -0.0589 -2.5073
    1MOL0     H  100   4.861   4.431   4.497 -0.2319 -0.2945 -0.1532
    1MOL0     H  101   4.593   4.408   4.754 -0.5266 -0.4879 -1.1351
    1MOL0     H  102   4.595   4.577   4.796 -3.4154 -2.3227  2.4540
    1MOL0     H  103   4.391   4.592   4.627 -3.7016 -1.8209 -0.0763
    1MOL0     H  104   4.387   4.420   4.639 -0.7461  0.9800 -1.2708
    1MOL0     H  105   4.342   4.616   4.865 -1.4675  1.7315 -0.7737
    1MOL0     H  106   4.381   4.444   4.885  1.9845 -1.5013 -3.1368
    1MOL0     H  107   4.145   4.564   4.722 -2.2893 -1.2763  0.5593
    1MOL0     H  108   4.173   4.392   4.740  0.0458  0.2130  0.3360
    1MOL0     H  109   4.002   4.490   4.893  0.2660 -1.6994 -1.0479
    1MOL0     H  110   4.120   4.590   4.980 -1.7549  1.1578 -1.5399
    1MOL0     H  111   4.106   4.282   4.977 -0.2839  0.1195 -1.5357
    1MOL0     H  112   4.228   4.378   5.052  0.2331 -1.9563 -1.1677
    1MOL0     H  113   3.930   4.420   5.119  0.2413 -3.2273 -0.4503
    1MOL0     H  114   4.058   4.500   5.202 -0.7255  0.1811  1.0325
    1MOL0     H  115   4.030   4.311   5.341  0.2334 -1.3148 -0.0506
    1MOL0     H  116   4.158   4.252   5.238 -0.6268 -0.6081  1.6490
    1MOL0     H  117   4.679   4.795   4.648  0.2761  0.5574 -1.9622
    1MOL0     H  118   4.892   4.914   4.600  1.3105 -0.7888 -0.1399
    1MOL0     H  119   5.316   4.939   4.577  4.8964 -0.0497  1.0306
    1MOL0     H  120   5.511   5.077   4.561  1.3752 -3.2146 -0.2199
    1MOL0     H  121   6.832   5.785   4.092  1.1001 -1.1383  0.1250
    1MOL0     H  122   7.052   5.870   4.150  0.2624 -1.9622 -1.1935
    1MOL0     H  123   7.433   6.107   3.895  0.8542 -1.2527 -0.1511
    1MOL0     H  124   7.676   6.189   3.911  0.9015 -2.4567 -0.2500
    1MOL0     H  125   7.793   6.396   4.289 -0.5884  1.2426 -2.7016
    1MOL0     H  126   7.886   6.252   4.303 -0.2158 -1.7649 -0.4835
    1MOL0     H  127   8.040   6.314   4.143 -0.0718 -0.0888  0.7229
    1MOL0     H  128   8.020   6.436   4.277 -3.4505 -1.2268  3.1335
    1MOL0     H  129   7.863   6.553   4.124 -0.4470  0.6550 -0.1161
    1MOL0     H  130   7.912   6.435   3.995 -2.2542 -0.7644  2.6869
    1MOL0     H  131   8.094   6.599   4.151 -1.5775  0.3017  0.7186
    1MOL0     H  132   8.032   6.665   3.995 -1.7248 -2.5609  0.0125
    1MOL0     H  133   8.271   6.371   3.823 -1.1200  1.3824 -1.6179
    1MOL0     H  134   7.627   6.243   4.329 -1.3622  2.1572  0.8891
    1MOL0     H  135   7.401   6.136   4.320 -2.2979  2.0442  0.1509
    2MOL0     O  136   4.433   4.931   5.068 -0.0469 -0.1062 -0.3351
    2MOL0     C  137   4.482   5.044   5.060  0.5155 -0.4348 -0.1436
    2MOL0     O  138   4.455   5.129   4.950  0.0066 -0.3281 -0.4990
    2MOL0     C  139   4.405   5.063   4.843 -0.1671 -0.6843  0.1289
    2MOL0     C  140   4.486   4.976   4.761  0.3946  0.1031 -0.5957
    2MOL0     C  141   4.417   4.906   4.655  0.1269  0.3167 -1.5127
    2MOL0     C  142   4.280   4.934   4.621  0.6592 -0.9963  0.0077
    2MOL0     O  143   4.228   4.868   4.513  0.3587 -0.6418  1.5222
    2MOL0     C  144   4.089   4.878   4.480 -0.5200  0.7929  0.9991
    2MOL0     C  145   4.000   4.811   4.590  0.4643  0.1534  0.4994
    2MOL0     C  146   3.860   4.797   4.546 -0.4909  0.1218  0.5924
    2MOL0     C  147   3.791   4.931   4.566  0.7882  0.3795  0.0555
    2MOL0     C  148   3.643   4.936   4.509  0.7865  0.7644 -0.3936
    2MOL0     C  149   3.548   4.840   4.584 -0.0753 -0.0090 -0.3057
    2MOL0     C  150   3.504   4.903   4.716  0.4632 -0.0307  0.2464
    2MOL0     C  151   3.385   4.825   4.782 -0.0254  0.0975  0.8057
    2MOL0     N  152   3.421   4.680   4.798  0.1676  0.0392  0.3032
    2MOL0     C  153   3.531   4.639   4.863  0.5158  0.2393 -0.0651
    2MOL0     C  154   3.517   4.503   4.872 -0.2762 -0.1125 -0.6521
    2MOL0     C  155   3.615   4.406   4.949  0.7603  0.9972 -0.1075
    2MOL0     C  156   3.609   4.427   5.103 -0.2263  0.9854 -0.3011
    2MOL0     C  157   3.467   4.406   5.165 -0.0196  0.8888  0.2910
    2MOL0     C  158   3.443   4.465   5.309  0.0754 -0.5675  0.4390
    2MOL0     O  159   3.306   4.451   5.346 -0.1661 -0.0740 -0.5704
    2MOL0     C  160   3.202   4.497   5.261 -0.3209  0.4966 -0.2559
    2MOL0     C  161   3.086   4.420   5.273  0.0900  0.0450 -0.5463
    2MOL0     C  162   2.980   4.433   5.187  0.7950 -0.6364 -0.3764
    2MOL0     C  163   2.867   4.330   5.203 -1.0016  0.1584 -0.5511
    2MOL0     C  164   2.982   4.540   5.095 -0.6621  0.5157 -0.3363
    2MOL0     C  165   2.869   4.569   5.007  0.2227  0.2318 -0.1151
    2MOL0     O  166   2.896   4.655   4.903 -0.5521 -0.1919 -0.3574
    2MOL0     C  167   2.809   4.695   4.810  0.4158 -0.0398 -0.0413
    2MOL0     C  168   2.673   4.729   4.838 -0.1003 -0.0707 -0.5054
    2MOL0     C  169   2.580   4.776   4.742 -0.1896  0.1056 -0.5318
    2MOL0     C  170   2.630   4.799   4.609 -0.1544 -0.0979 -0.0885
    2MOL0     O  171   2.551   4.839   4.502 -0.0378 -0.0416 -0.2894
    2MOL0     C  172   2.404   4.849   4.520 -0.4705  0.1653 -0.1870
    2MOL0     C  173   2.345   4.864   4.381 -0.0637 -0.2035  0.5625
    2MOL0     C  174   2.227   4.958   4.369 -0.5652 -0.1047 -0.0976
    2MOL0     C  175   2.106   4.884   4.418  0.8382  0.0282 -0.0592
    2MOL0     C  176   1.978   4.964   4.393 -0.9115  0.1902 -0.2716
    2MOL0     C  177   1.857   4.912   4.479 -0.6276  0.4050  0.2796
    2MOL0     C  178   1.875   4.910   4.632  0.0355 -0.0152 -0.1681
    2MOL0     C  179   1.738   4.927   4.702  0.9914 -0.2691  0.0901
    2MOL0    Cl  180   1.689   5.104   4.692 -0.0814  0.3001  0.0370
    2MOL0     C  181   2.765   4.772   4.583  0.7029 -0.1166  0.4198
    2MOL0     C  182   2.855   4.713   4.675  0.2831  0.0244 -0.3012
    2MOL0     O  183   2.755   4.518   5.023 -0.1439  0.1066 -0.2837
    2MOL0     C  184   3.098   4.619   5.076  0.0080  0.1046  0.3081
    2MOL0     C  185   3.208   4.594   5.160 -0.4880 -0.6426 -0.7163
    2MOL0     N  186   3.398   4.465   4.814  1.1188  0.0434  0.1158
    2MOL0     N  187   3.337   4.575   4.784 -0.3932 -0.0095  0.1566
    2MOL0     C  188   4.217   5.034   4.692  0.3702 -0.1932  0.1825
    2MOL0     C  189   4.269   5.089   4.808 -0.3813  0.8790 -0.3160
    2MOL0     C  190   4.568   5.104   5.163  0.0088 -0.8217  0.0140
    2MOL0     C  191   4.596   5.246   5.175  0.7363  0.2396  0.1035
    2MOL0     C  192   4.658   5.300   5.292 -0.3371 -0.1084 -0.1819
    2MOL0     C  193   4.712   5.203   5.384  0.5438 -0.3848 -0.8900
    2MOL0     O  194   4.783   5.240   5.497 -0.2128 -0.4933 -0.4313
    2MOL0     C  195   4.740   5.365   5.557  0.5726  0.6502 -0.4743
    2MOL0     C  196   4.801   5.354   5.694  0.5402 -0.2215 -0.2411
    2MOL0     C  197   4.960   5.361   5.690  0.6005 -0.2442  0.1103
    2MOL0     C  198   5.028   5.346   5.833  0.1769 -0.6672 -0.2767
    2MOL0     C  199   5.009   5.462   5.921  0.4463  0.9253  0.6280
    2MOL0     C  200   5.002   5.544   6.011  0.4650 -0.1407  0.2434
    2MOL0     C  201   4.685   5.070   5.376 -0.3581  0.1071  0.2405
    2MOL0     C  202   4.616   5.024   5.270 -0.4507  0.8107  0.1659
    2MOL0     H  203   4.592   4.967   4.783  1.6189 -0.6371 -5.5799
    2MOL0     H  204   4.472   4.830   4.599  0.2801 -0.0665 -0.8462
    2MOL0     H  205   4.061   4.982   4.460  1.5957  1.4474  1.2568
    2MOL0     H  206   4.082   4.817   4.389  1.5029 -0.4742  1.6293
    2MOL0     H  207   4.042   4.711   4.602  0.2224  0.2177  2.1726
    2MOL0     H  208   4.000   4.858   4.689 -1.1786 -1.2256  1.2081
    2MOL0     H  209   3.850   4.753   4.446 -0.1696  1.5745 -0.0969
    2MOL0     H  210   3.816   4.731   4.622 -1.0581  0.0914  0.2403
    2MOL0     H  211   3.790   4.972   4.667  0.9131  0.3050  0.0868
    2MOL0     H  212   3.846   5.006   4.508  0.0217 -0.4085 -1.7475
    2MOL0     H  213   3.612   5.041   4.516  2.4217  1.2680 -0.4168
    2MOL0     H  214   3.642   4.914   4.402 -0.2278 -1.8267  0.0866
    2MOL0     H  215   3.459   4.820   4.524  0.9352 -1.0670 -1.5223
    2MOL0     H  216   3.599   4.746   4.608  0.2827  0.0963 -0.6430
    2MOL0     H  217   3.587   4.909   4.787 -0.1290  2.2246  0.8357
    2MOL0     H  218   3.473   5.003   4.681  0.6989 -1.4260 -4.7226
    2MOL0     H  219   3.304   4.839   4.710  1.1918  0.4985 -0.5416
    2MOL0     H  220   3.354   4.867   4.879  0.3198  2.0944  0.1048
    2MOL0     H  221   3.612   4.694   4.909  0.9687 -0.4586 -0.0160
    2MOL0     H  222   3.589   4.301   4.936 -0.7156  1.1672  1.1835
    2MOL0     H  223   3.718   4.425   4.917  0.7796 -1.8693 -2.1227
    2MOL0     H  224   3.626   4.533   5.128 -0.1466  0.9483 -0.1976
    2MOL0     H  225   3.686   4.362   5.147 -1.7868 -0.4533  0.3808
    2MOL0     H  226   3.449   4.298   5.170  2.4004  0.4804  2.5523
    2MOL0     H  227   3.390   4.440   5.095 -1.3663 -1.5932  0.4619
    2MOL0     H  228   3.474   4.570   5.307 -1.5702 -0.0556 -0.8707
    2MOL0     H  229   3.518   4.411   5.367 -0.0970  1.1812  2.3984
    2MOL0     H  230   3.078   4.351   5.356  0.7661  0.2069 -0.3433
    2MOL0     H  231   2.839   4.285   5.107 -1.8316 -1.1336  0.2668
    2MOL0     H  232   2.900   4.250   5.270 -0.1571  0.0074 -1.1399
    2MOL0     H  233   2.775   4.382   5.233  0.4840  1.7969  1.3667
    2MOL0     H  234   2.637   4.714   4.939  0.6028 -0.1550 -0.2618
    2MOL0     H  235   2.478   4.781   4.780  0.2915 -1.0442  1.0498
    2MOL0     H  236   2.376   4.755   4.568  0.8467 -1.6071 -2.6294
    2MOL0     H  237   2.375   4.940   4.574 -0.4115 -0.9332  1.7492
    2MOL0     H  238   2.426   4.906   4.321 -0.9564  0.4414 -0.2128
    2MOL0     H  239   2.303   4.770   4.345 -1.2492  0.1720  0.9323
    2MOL0     H  240   2.223   4.983   4.262  2.6968 -2.3303 -0.9001
    2MOL0     H  241   2.241   5.055   4.418  0.2793  0.7515 -1.9037
    2MOL0     H  242   2.091   4.790   4.365 -2.5487  1.2711 -1.5799
    2MOL0     H  243   2.101   4.859   4.524 -0.4662 -3.2736 -0.7769
    2MOL0     H  244   1.953   4.967   4.287 -1.6307  1.4996 -0.0839
    2MOL0     H  245   1.996   5.066   4.428  0.4136 -0.1166 -0.0012
    2MOL0     H  246   1.773   4.978   4.455 -0.1658  1.5407  1.6547
    2MOL0     H  247   1.838   4.809   4.448  1.4883 -0.4256  1.5126
    2MOL0     H  248   1.944   4.992   4.655 -0.1722  1.0293 -2.8977
    2MOL0     H  249   1.925   4.819   4.667  1.9216  1.0852  0.1841
    2MOL0     H  250   1.766   4.898   4.803  3.0115 -2.7718 -1.0622
    2MOL0     H  251   1.669   4.858   4.652  0.1737  1.7948 -1.7797
    2MOL0     H  252   2.803   4.789   4.483  3.1261 -0.3012  1.2548
    2MOL0     H  253   2.961   4.696   4.656  0.3570 -0.7961  0.7466
    2MOL0     H  254   3.108   4.698   5.002 -0.7782  1.1738  1.3116
    2MOL0     H  255   3.292   4.656   5.132  0.0063 -0.7601  0.4606
    2MOL0     H  256   4.116   5.055   4.658  0.1795 -2.0295 -0.4688
    2MOL0     H  257   4.223   5.156   4.880  1.5149 -0.3905  2.2479
    2MOL0     H  258   4.569   5.310   5.092  0.4073 -1.2034 -0.9286
    2MOL0     H  259   4.697   5.401   5.299 -0.8205  0.0172  1.1550
    2MOL0     H  260   4.770   5.452   5.498  0.4712  0.5998 -0.5994
    2MOL0     H  261   4.631   5.364   5.554  0.4301  0.8641  2.2527
    2MOL0     H  262   4.774   5.270   5.759  3.3556 -0.3032  0.9782
    2MOL0     H  263   4.767   5.445   5.745 -0.4758 -0.5306 -0.3397
    2MOL0     H  264   4.987   5.460   5.651 -0.7356  0.5751  1.1436
    2MOL0     H  265   5.002   5.289   5.619 -0.8429 -1.9208  0.8727
    2MOL0     H  266   5.133   5.323   5.815  0.8225 -0.9406  3.0975
    2MOL0     H  267   4.987   5.258   5.884  1.0167 -1.8313 -1.5415
    2MOL0     H  268   5.003   5.615   6.090  2.5490 -0.5630  0.6420
    2MOL0     H  269   4.717   5.004   5.455 -2.4994  0.8629  1.8413
    2MOL0     H  270   4.598   4.917   5.275 -2.2925  1.0390 -0.5809
    3MOL0     O  271   5.215  10.575  10.772  0.4210 -0.5323 -0.0155
    3MOL0     C  272   5.271  10.565  10.880  0.4897  0.2183 -0.2499
    3MOL0     O  273   5.211  10.562  10.997  0.2068 -0.3143  0.1543
    3MOL0     C  274   5.074  10.591  11.012 -0.7540  0.1844 -0.3248
    3MOL0     C  275   4.997  10.512  11.094 -0.1069  0.3850  0.9046
    3MOL0     C  276   4.856  10.523  11.098 -0.2690  0.5411 -0.5617
    3MOL0     C  277   4.788  10.612  11.018  0.1031 -0.2469  0.1700
    3MOL0     O  278   4.650  10.621  11.037 -0.6585 -0.6433  0.9313
    3MOL0     C  279   4.573  10.697  10.940  0.0548  0.0237 -0.0756
    3MOL0     C  280   4.432  10.693  10.992  0.6845 -1.2037  0.9382
    3MOL0     C  281   4.387  10.793  11.094 -0.0258 -0.3115  0.1097
    3MOL0     C  282   4.243  10.786  11.143 -1.0633 -0.7302  0.5460
    3MOL0     C  283   4.215  10.895  11.250 -0.0169  0.5367  0.0796
    3MOL0     C  284   4.072  10.858  11.295  0.6539 -0.0521 -0.0840
    3MOL0     C  285   4.007  10.944  11.405 -0.5447 -0.7166 -0.4062
    3MOL0     C  286   4.056  10.901  11.542 -0.1749  0.8508 -0.8640
    3MOL0     N  287   3.993  10.777  11.588  0.5723  0.0544  0.2652
    3MOL0     C  288   3.884  10.777  11.670 -0.5763 -0.0456  0.5436
    3MOL0     C  289   3.864  10.647  11.700  0.3658 -0.4471 -0.0661
    3MOL0     C  290   3.754  10.585  11.777 -0.1879  0.5568  0.0738
    3MOL0     C  291   3.758  10.641  11.925  0.2816 -0.3184  0.8363
    3MOL0     C  292   3.677  10.559  12.027 -0.3779 -0.6336 -0.2716
    3MOL0     C  293   3.542  10.520  11.977 -0.3242 -0.1770  0.3552
    3MOL0     O  294   3.459  10.470  12.082  0.3296 -0.5774 -0.1560
    3MOL0     C  295   3.323  10.467  12.083  0.0339  0.5022  0.5033
    3MOL0     C  296   3.261  10.417  12.196 -0.4746 -0.3402  0.0238
    3MOL0     C  297   3.117  10.417  12.209  0.7382 -0.6388  0.2283
    3MOL0     C  298   3.061  10.382  12.357 -0.6454 -0.7701 -0.0007
    3MOL0     C  299   3.038  10.450  12.093  0.6393  0.2802  0.2455
    3MOL0     C  300   2.891  10.430  12.092 -0.1341 -1.4750  0.0518
    3MOL0     O  301   2.822  10.457  12.205  0.0466  0.1738 -0.8751
    3MOL0     C  302   2.688  10.433  12.199  0.2099  0.5254  0.0484
    3MOL0     C  303   2.650  10.301  12.225 -0.6210 -0.3611  0.3415
    3MOL0     C  304   2.515  10.273  12.224  0.3791  0.5050 -0.5395
    3MOL0     C  305   2.421  10.367  12.181  0.4350  0.8440 -0.1583
    3MOL0     O  306   2.287  10.324  12.192 -0.5506  0.5676 -0.3671
    3MOL0     C  307   2.188  10.392  12.111  1.0764 -0.2624 -0.4227
    3MOL0     C  308   2.055  10.315  12.109 -0.1241 -1.0604 -0.0205
    3MOL0     C  309   1.989  10.318  12.254  0.0771  0.5533 -0.3116
    3MOL0     C  310   1.850  10.244  12.271  0.0310 -0.2229  0.6066
    3MOL0     C  311   1.796  10.268  12.417 -0.6602 -0.4381  0.2284
    3MOL0     C  312   1.656  10.212  12.434 -0.0970 -0.3563 -0.3305
    3MOL0     C  313   1.658  10.055  12.429  0.3574 -0.5895  0.0238
    3MOL0     C  314   1.519   9.993  12.454  0.5913  0.3182 -0.2228
    3MOL0    Cl  315   1.402  10.042  12.328  0.1173  0.3573 -0.2940
    3MOL0     C  316   2.459  10.490  12.136 -0.7421 -0.7099  0.7425
    3MOL0     C  317   2.596  10.524  12.152 -0.8516  1.0329  0.5497
    3MOL0     O  318   2.839  10.403  11.983  0.2873  0.0932  0.1457
    3MOL0     C  319   3.102  10.483  11.973 -0.3005 -0.0266  0.2879
    3MOL0     C  320   3.247  10.496  11.973  0.2643 -0.0315  0.2261
    3MOL0     N  321   3.965  10.575  11.638  1.1624 -0.5752 -0.5568
    3MOL0     N  322   4.041  10.649  11.566  0.7178 -0.3352 -0.3191
    3MOL0     C  323   4.871  10.700  10.936  0.4865  0.8695 -0.9057
    3MOL0     C  324   5.009  10.693  10.940 -1.2629 -0.1577  0.3128
    3MOL0     C  325   5.417  10.579  10.875  0.7906  0.0426 -0.2369
    3MOL0     C  326   5.485  10.517  10.767 -0.4262  0.4976 -0.1599
    3MOL0     C  327   5.626  10.514  10.757  0.1972  0.0214 -0.1191
    3MOL0     C  328   5.705  10.579  10.851  0.1045 -0.9142 -0.4268
    3MOL0     O  329   5.832  10.582  10.803 -1.0089  0.3751 -0.4097
    3MOL0     C  330   5.935  10.640  10.891  0.2060  0.3672  1.0691
    3MOL0     C  331   6.087  10.605  10.856  0.0955  0.4072  0.3835
    3MOL0     C  332   6.129  10.465  10.918 -0.2843 -0.4404 -0.4778
    3MOL0     C  333   6.278  10.451  10.902 -0.0581  0.3189  0.0022
    3MOL0     C  334   6.300  10.306  10.903  0.2024 -0.5180  0.6496
    3MOL0     C  335   6.325  10.185  10.897 -1.1534  0.0280  0.4871
    3MOL0     C  336   5.639  10.635  10.965 -0.8131 -0.2670 -0.2572
    3MOL0     C  337   5.500  10.628  10.980 -0.3714 -0.3074 -0.0460
    3MOL0     H  338   5.039  10.431  11.152 -0.1395 -0.2321  0.0755
    3MOL0     H  339   4.802  10.449  11.156  3.2755 -2.1554 -0.3329
    3MOL0     H  340   4.607  10.799  10.919  2.0019 -0.9617 -2.2396
    3MOL0     H  341   4.569  10.633  10.851  1.0489 -2.3618  1.4902
    3MOL0     H  342   4.359  10.703  10.910  1.4515  1.3771  0.4654
    3MOL0     H  343   4.409  10.594  11.032 -1.2060 -1.1761  0.0427
    3MOL0     H  344   4.451  10.793  11.183 -0.0819 -0.4983  0.1503
    3MOL0     H  345   4.401  10.892  11.049 -1.9835 -0.9429 -2.1311
    3MOL0     H  346   4.174  10.797  11.059 -0.8112  2.5598  0.6118
    3MOL0     H  347   4.227  10.686  11.183 -2.4776 -0.7451 -0.0226
    3MOL0     H  348   4.290  10.889  11.329 -0.1925  2.0866  0.3763
    3MOL0     H  349   4.207  10.996  11.209  1.7337  2.2352  3.5560
    3MOL0     H  350   4.008  10.863  11.207  1.2728  0.7422 -0.5017
    3MOL0     H  351   4.063  10.752  11.319 -0.2469 -0.2506 -1.2114
    3MOL0     H  352   4.042  11.045  11.383  1.1478 -0.9599  0.9935
    3MOL0     H  353   3.899  10.939  11.386 -0.3517  0.7493 -2.1276
    3MOL0     H  354   4.025  10.987  11.602  0.7428  0.7621 -0.2461
    3MOL0     H  355   4.165  10.907  11.537 -0.1881  2.5223 -0.0637
    3MOL0     H  356   3.812  10.855  11.691  0.2142  1.4165 -1.7253
    3MOL0     H  357   3.652  10.600  11.740 -1.1487 -5.8608 -0.9641
    3MOL0     H  358   3.767  10.477  11.788 -0.5477  0.1601 -2.7316
    3MOL0     H  359   3.734  10.746  11.909  1.4894 -0.3273 -1.5912
    3MOL0     H  360   3.856  10.637  11.972 -0.3110  2.1018  2.4128
    3MOL0     H  361   3.678  10.611  12.123  0.1921 -1.6622  0.2954
    3MOL0     H  362   3.729  10.464  12.039 -0.7491 -0.7193  0.7425
    3MOL0     H  363   3.545  10.452  11.891 -1.3113  1.1083 -0.7385
    3MOL0     H  364   3.499  10.612  11.937  0.7398 -0.1709 -0.8386
    3MOL0     H  365   3.325  10.385  12.277 -1.2531 -1.2585  0.3036
    3MOL0     H  366   3.136  10.361  12.433 -3.5119 -1.7488  2.8005
    3MOL0     H  367   3.004  10.466  12.399  1.0756 -0.8690  2.7592
    3MOL0     H  368   2.988  10.301  12.351 -2.6498  0.9944 -1.1344
    3MOL0     H  369   2.722  10.230  12.265  1.9431  1.8310 -0.1214
    3MOL0     H  370   2.476  10.172  12.235 -2.4385  1.2629 -2.3374
    3MOL0     H  371   2.182  10.496  12.145  0.8024 -0.7828  1.2194
    3MOL0     H  372   2.219  10.400  12.007 -1.6074  2.4568 -1.1347
    3MOL0     H  373   1.995  10.372  12.038  2.2779  2.6878  0.6443
    3MOL0     H  374   2.075  10.219  12.061 -0.8041 -0.3765 -1.7559
    3MOL0     H  375   1.974  10.423  12.280  0.9533  0.7501 -0.5343
    3MOL0     H  376   2.050  10.270  12.331  0.8378  1.4234 -0.3512
    3MOL0     H  377   1.779  10.271  12.193 -0.9335 -1.5706  0.9871
    3MOL0     H  378   1.857  10.135  12.267 -2.0621 -0.4018  0.6519
    3MOL0     H  379   1.805  10.375  12.442  1.1917 -0.6815  0.7349
    3MOL0     H  380   1.859  10.211  12.486  1.5359 -0.2377 -1.4969
    3MOL0     H  381   1.611  10.249  12.527  1.7257 -0.3429  0.5769
    3MOL0     H  382   1.599  10.245  12.346 -1.2795 -1.0929  0.1275
    3MOL0     H  383   1.723  10.016  12.508  0.5211  0.3812  0.3928
    3MOL0     H  384   1.680  10.008  12.333 -1.5561 -0.4504 -0.5237
    3MOL0     H  385   1.474  10.024  12.549  1.0083 -1.4317  0.5852
    3MOL0     H  386   1.529   9.885  12.464 -0.9977 -0.0627 -2.2176
    3MOL0     H  387   2.386  10.555  12.089 -1.5878 -2.8469 -1.0341
    3MOL0     H  388   2.630  10.619  12.114 -1.1311  0.9802  0.1634
    3MOL0     H  389   3.048  10.504  11.882  1.0740 -1.4295 -0.9143
    3MOL0     H  390   3.303  10.507  11.881  0.9976 -1.5965  0.4480
    3MOL0     H  391   4.824  10.769  10.867 -2.8557 -1.0173 -0.7709
    3MOL0     H  392   5.058  10.758  10.868  0.2020 -0.0559  1.3478
    3MOL0     H  393   5.438  10.447  10.699 -1.8305 -0.6239  1.8738
    3MOL0     H  394   5.671  10.453  10.679 -0.2212 -3.1048  1.8726
    3MOL0     H  395   5.949  10.748  10.889  1.0807  0.2826  1.8921
    3MOL0     H  396   5.909  10.617  10.995  0.8197  0.3849  1.2348
    3MOL0     H  397   6.150  10.682  10.901 -0.8530  0.6348  1.3729
    3MOL0     H  398   6.108  10.608  10.749  1.5170  0.1112  0.6331
    3MOL0     H  399   6.084  10.377  10.872  0.3360 -0.6612 -0.6614
    3MOL0     H  400   6.107  10.461  11.025 -2.6413 -1.9698 -0.9417
    3MOL0     H  401   6.340  10.488  10.985  1.8707 -1.5631 -0.5122
    3MOL0     H  402   6.306  10.503  10.810  1.0825 -0.2785 -0.0131
    3MOL0     H  403   6.363  10.085  10.892  1.0749  0.8562 -0.4618
    3MOL0     H  404   5.703  10.698  11.026 -1.8288 -0.1569  0.7392
    3MOL0     H  405   5.446  10.683  11.057  0.0502 -2.6729  2.0350
    4MOL0     O  406   2.253   0.996  11.255  0.1026 -0.0675  0.1205
    4MOL0     C  407   2.327   0.978  11.344 -0.4772  0.5063  0.1940
    4MOL0     O  408   2.327   0.869  11.429  0.0803 -0.5971 -0.0055
    4MOL0     C  409   2.202   0.820  11.457 -0.2656  0.2516 -0.5526
    4MOL0     C  410   2.201   0.679  11.478  0.0805 -0.2817  0.4012
    4MOL0     C  411   2.080   0.605  11.493  0.9066 -0.0572 -0.5336
    4MOL0     C  412   1.962   0.672  11.481  0.8306 -0.0650 -0.4409
    4MOL0     O  413   1.833   0.617  11.483 -0.4423  0.7827  0.5373
    4MOL0     C  414   1.815   0.488  11.539 -0.6332  0.4219  0.0770
    4MOL0     C  415   1.660   0.468  11.564 -1.0149 -0.0652 -0.8561
    4MOL0     C  416   1.631   0.328  11.629  0.2295  0.5179 -0.3382
    4MOL0     C  417   1.496   0.333  11.700  0.1355  0.1796  0.5789
    4MOL0     C  418   1.452   0.182  11.715  0.0766 -0.7165  0.4913
    4MOL0     C  419   1.327   0.152  11.800 -0.6308  0.0440  0.2311
    4MOL0     C  420   1.199   0.194  11.728 -0.2884 -0.3389 -0.2197
    4MOL0     C  421   1.083   0.183  11.825 -0.5907  1.1026 -0.0250
    4MOL0     N  422   0.962   0.211  11.744  0.2277 -0.0980  0.8625
    4MOL0     C  423   0.901   0.331  11.719 -0.2493 -0.1610  1.4461
    4MOL0     C  424   0.778   0.300  11.682  0.3703 -0.4398  0.1474
    4MOL0     C  425   0.665   0.391  11.654 -0.5036  0.5002 -0.1499
    4MOL0     C  426   0.667   0.453  11.514 -0.4742  0.7511 -0.0233
    4MOL0     C  427   0.530   0.494  11.460  0.1402 -0.4733 -0.1723
    4MOL0     C  428   0.483   0.631  11.507  0.1035 -0.1335  0.7809
    4MOL0     O  429   0.353   0.642  11.430 -0.3463 -0.0333 -0.2208
    4MOL0     C  430   0.293   0.761  11.432  0.3118 -0.6293 -0.9019
    4MOL0     C  431   0.167   0.771  11.368  0.0173 -0.1164  0.2803
    4MOL0     C  432   0.088   0.889  11.376  0.7002 -0.2238 -0.4715
    4MOL0     C  433  -0.049   0.876  11.310 -0.2524  0.8248 -0.3554
    4MOL0     C  434   0.122   0.990  11.473  0.2153  0.1878 -0.2592
    4MOL0     C  435   0.046   1.113  11.491  0.1019 -0.2038  0.0346
    4MOL0     O  436   0.071   1.181  11.609  0.3322 -0.1235  0.2633
    4MOL0     C  437  -0.023   1.259  11.658  0.0023  0.3052 -0.1749
    4MOL0     C  438  -0.034   1.388  11.605  0.8716  0.0128 -0.3623
    4MOL0     C  439  -0.137   1.472  11.663 -0.1253  0.1406  0.3995
    4MOL0     C  440  -0.204   1.432  11.785  0.9630  0.6424  0.3835
    4MOL0     O  441  -0.280   1.529  11.839  0.0472  0.1035 -0.6856
    4MOL0     C  442  -0.391   1.481  11.916  0.1132  0.5160 -0.7111
    4MOL0     C  443  -0.485   1.599  11.943  0.8646 -0.7652 -0.2183
    4MOL0     C  444  -0.568   1.560  12.065 -0.1954 -0.5801 -0.1601
    4MOL0     C  445  -0.665   1.670  12.084  0.5163 -0.4549  0.2238
    4MOL0     C  446  -0.754   1.649  12.210  0.4063 -0.0377  0.0490
    4MOL0     C  447  -0.810   1.793  12.245  0.5492 -0.2842  0.2305
    4MOL0     C  448  -0.892   1.801  12.373  0.5943 -0.4555  0.2950
    4MOL0     C  449  -0.931   1.941  12.395 -0.0173 -1.4603  0.4526
    4MOL0    Cl  450  -0.999   1.956  12.563 -0.0653  0.1045  0.3812
    4MOL0     C  451  -0.184   1.309  11.833 -0.2948  1.1847  0.0786
    4MOL0     C  452  -0.100   1.219  11.773 -0.1967  0.4945  0.6446
    4MOL0     O  453  -0.043   1.145  11.408 -0.0650 -0.6964  0.1907
    4MOL0     C  454   0.248   0.980  11.533 -0.1184 -0.2522  0.8531
    4MOL0     C  455   0.334   0.875  11.513  0.5127  0.1165  0.3617
    4MOL0     N  456   0.764   0.163  11.671 -0.1499 -0.4152 -0.4978
    4MOL0     N  457   0.879   0.107  11.712 -0.6753 -0.0373 -0.0115
    4MOL0     C  458   1.957   0.808  11.467  0.1817 -0.0693  0.1990
    4MOL0     C  459   2.075   0.883  11.456 -0.3847  0.0340 -0.6526
    4MOL0     C  460   2.423   1.092  11.366 -0.7094 -0.1726 -1.0874
    4MOL0     C  461   2.435   1.208  11.289  0.7451  0.5344  0.9674
    4MOL0     C  462   2.525   1.310  11.319  0.3405  0.1421  0.5957
    4MOL0     C  463   2.608   1.307  11.430 -0.3890 -0.5291 -0.2252
    4MOL0     O  464   2.690   1.415  11.451 -0.2211 -0.0643  0.0305
    4MOL0     C  465   2.767   1.425  11.571 -0.1322  1.5956 -0.1434
    4MOL0     C  466   2.830   1.560  11.586  1.1478  0.0165  0.4490
    4MOL0     C  467   2.914   1.594  11.467 -0.3368 -0.0961 -0.1194
    4MOL0     C  468   3.030   1.698  11.508 -0.4495  0.0609 -0.1777
    4MOL0     C  469   3.140   1.671  11.419  0.2185  0.1120 -0.3567
    4MOL0     C  470   3.230   1.631  11.344 -0.7580 -0.2709 -0.2700
    4MOL0     C  471   2.601   1.195  11.506 -0.0819  0.8258  0.1189
    4MOL0     C  472   2.515   1.086  11.479 -0.6358  0.0003  0.3003
    4MOL0     H  473   2.296   0.626  11.478  0.1059 -0.3300 -1.9308
    4MOL0     H  474   2.090   0.498  11.507  1.4220 -0.2396 -2.1057
    4MOL0     H  475   1.855   0.409  11.474 -0.5961 -0.4701  1.1450
    4MOL0     H  476   1.869   0.472  11.633  1.4041  1.8805 -0.7773
    4MOL0     H  477   1.621   0.544  11.633 -0.6535 -1.3476  0.8283
    4MOL0     H  478   1.611   0.465  11.466  2.1163 -1.3136 -2.5154
    4MOL0     H  479   1.634   0.244  11.560  2.4894 -1.0862  1.5608
    4MOL0     H  480   1.698   0.287  11.705 -3.4284 -2.4871  1.6069
    4MOL0     H  481   1.502   0.395  11.790 -0.5125  0.8898  0.1460
    4MOL0     H  482   1.428   0.368  11.622  0.2266 -0.5674  0.1484
    4MOL0     H  483   1.446   0.137  11.616  1.4037  0.8080 -0.3308
    4MOL0     H  484   1.539   0.131  11.758 -0.1102 -1.6688 -0.2187
    4MOL0     H  485   1.325   0.046  11.825  0.7578  0.3409  1.7745
    4MOL0     H  486   1.334   0.194  11.901  2.0724 -2.5972  1.2934
    4MOL0     H  487   1.217   0.294  11.686 -3.1762 -0.1369 -1.1879
    4MOL0     H  488   1.173   0.138  11.638 -1.8187 -0.0663  0.0268
    4MOL0     H  489   1.092   0.250  11.912 -0.5483 -1.0413  1.7181
    4MOL0     H  490   1.074   0.081  11.865 -1.6453  0.8435 -0.8779
    4MOL0     H  491   0.948   0.426  11.743  4.4473 -1.7169 -0.4451
    4MOL0     H  492   0.581   0.322  11.670 -0.4372  0.3965 -0.2470
    4MOL0     H  493   0.651   0.463  11.735  0.3474  1.2875 -0.6830
    4MOL0     H  494   0.701   0.378  11.443  1.4160  0.4897  1.0724
    4MOL0     H  495   0.732   0.540  11.502 -1.4956  1.3348 -1.5855
    4MOL0     H  496   0.460   0.411  11.468 -0.6264 -0.7215 -5.6529
    4MOL0     H  497   0.541   0.504  11.352  0.4053  1.1632 -0.0207
    4MOL0     H  498   0.550   0.715  11.486 -0.3575 -0.0933 -0.6245
    4MOL0     H  499   0.463   0.620  11.614  2.3716 -2.8796  1.0189
    4MOL0     H  500   0.150   0.691  11.297  0.2094  2.1095 -2.4585
    4MOL0     H  501  -0.061   0.779  11.260  3.5709 -0.7930  1.4612
    4MOL0     H  502  -0.122   0.887  11.391 -1.2435 -0.1953 -1.0634
    4MOL0     H  503  -0.064   0.953  11.234  0.2409  0.9096 -0.3654
    4MOL0     H  504   0.040   1.417  11.531  2.5181 -0.7639  0.9163
    4MOL0     H  505  -0.151   1.568  11.614 -1.0828 -0.3884 -0.3908
    4MOL0     H  506  -0.453   1.409  11.862 -0.3396 -0.1358  0.6504
    4MOL0     H  507  -0.357   1.437  12.010  1.1612  1.5667 -0.5803
    4MOL0     H  508  -0.414   1.681  11.960 -0.1297  0.1783 -0.4638
    4MOL0     H  509  -0.550   1.624  11.858  1.3172  1.2981 -0.0162
    4MOL0     H  510  -0.495   1.562  12.147  0.5969 -0.4837 -0.8610
    4MOL0     H  511  -0.605   1.460  12.041 -0.5906 -0.7299  1.0000
    4MOL0     H  512  -0.616   1.768  12.091 -2.4171  1.0829  1.4058
    4MOL0     H  513  -0.721   1.678  11.991  2.9888  3.0187 -1.1817
    4MOL0     H  514  -0.706   1.601  12.295  2.1236  0.8094 -0.3909
    4MOL0     H  515  -0.840   1.588  12.180  1.7752 -0.9402 -2.3623
    4MOL0     H  516  -0.721   1.857  12.243 -0.4322  1.1061 -1.4802
    4MOL0     H  517  -0.858   1.834  12.156  3.6923 -0.9819 -1.9500
    4MOL0     H  518  -0.834   1.761  12.456  0.0656 -2.1234 -0.1072
    4MOL0     H  519  -0.985   1.750  12.345 -0.3587  1.3452 -0.0257
    4MOL0     H  520  -1.014   1.962  12.326 -0.5243 -0.6156  1.2933
    4MOL0     H  521  -0.855   2.019  12.383 -2.9707  1.4201 -0.9025
    4MOL0     H  522  -0.228   1.284  11.929 -0.3502  2.8351  0.5199
    4MOL0     H  523  -0.092   1.120  11.817 -0.2743 -0.1356 -0.7163
    4MOL0     H  524   0.271   1.066  11.595 -2.4390  2.5511 -1.8635
    4MOL0     H  525   0.429   0.867  11.565  0.5941  1.8857  0.5443
    4MOL0     H  526   1.866   0.865  11.455 -1.5063 -2.7902 -0.9800
    4MOL0     H  527   2.074   0.991  11.440  2.0813 -0.1931 -3.2318
    4MOL0     H  528   2.365   1.217  11.206 -0.4966 -1.9650  1.6189
    4MOL0     H  529   2.503   1.397  11.257 -4.4458 -1.2786 -0.0902
    4MOL0     H  530   2.695   1.405  11.651 -0.8414  0.7273 -0.9811
    4MOL0     H  531   2.839   1.343  11.559 -2.3498 -0.1143 -3.3146
    4MOL0     H  532   2.888   1.557  11.679 -1.7383 -0.5521  2.3693
    4MOL0     H  533   2.752   1.635  11.607  1.7990  0.6722  0.5588
    4MOL0     H  534   2.845   1.635  11.392  1.0720  0.6582 -1.0371
    4MOL0     H  535   2.956   1.499  11.434  1.9212  1.0407 -0.6684
    4MOL0     H  536   3.054   1.696  11.614 -0.8065  0.0458 -0.0967
    4MOL0     H  537   3.009   1.804  11.490 -1.5742  0.0755  1.0786
    4MOL0     H  538   3.299   1.603  11.268 -0.3121 -1.3356  0.4968
    4MOL0     H  539   2.665   1.189  11.593 -1.3081  1.2425  1.0774
    4MOL0     H  540   2.522   1.005  11.550 -0.7709  1.5908  2.2123
    5MOL0     O  541   9.924   7.136   6.205 -0.0033 -1.0674 -0.2507
    5MOL0     C  542   9.935   7.242   6.279  0.0730  0.4584 -0.0305
    5MOL0     O  543   9.841   7.298   6.367  0.1466  0.6956  0.1935
    5MOL0     C  544   9.723   7.238   6.406 -0.3253  0.0148 -1.0921
    5MOL0     C  545   9.626   7.192   6.314  1.2976  0.3649  0.6375
    5MOL0     C  546   9.505   7.134   6.362 -0.2958  0.6434  0.7118
    5MOL0     C  547   9.480   7.118   6.492 -0.2175 -0.0687 -1.2302
    5MOL0     O  548   9.358   7.081   6.550 -0.5590 -0.8109  0.3859
    5MOL0     C  549   9.252   7.087   6.453 -0.4115  0.1716 -0.2773
    5MOL0     C  550   9.125   7.073   6.529 -0.3558  0.2540 -0.5559
    5MOL0     C  551   9.012   7.070   6.419 -1.1980 -0.3534  0.0270
    5MOL0     C  552   8.872   7.039   6.478  0.1450  0.5868 -0.5031
    5MOL0     C  553   8.765   7.022   6.370  0.0640  0.1759  0.4300
    5MOL0     C  554   8.625   7.016   6.414  0.1559  0.1255 -0.8652
    5MOL0     C  555   8.585   6.901   6.509  0.3154 -0.4203 -0.5392
    5MOL0     C  556   8.425   6.906   6.514  0.2542  0.3011 -0.6852
    5MOL0     N  557   8.369   6.835   6.399 -0.3029 -0.1129 -0.3641
    5MOL0     C  558   8.344   6.701   6.389 -0.8693 -0.3799 -0.0404
    5MOL0     C  559   8.285   6.675   6.275 -0.5354  0.7525 -0.4268
    5MOL0     C  560   8.262   6.546   6.215  0.0133 -0.3059 -0.5014
    5MOL0     C  561   8.224   6.448   6.321 -0.0749  0.2772 -0.5743
    5MOL0     C  562   8.159   6.310   6.283 -0.4411 -0.3877 -0.1241
    5MOL0     C  563   8.230   6.242   6.161  0.1602  0.9553 -0.0209
    5MOL0     O  564   8.144   6.142   6.108  0.5081  0.2047  0.1575
    5MOL0     C  565   8.198   6.040   6.033 -0.3814 -0.1815 -0.0528
    5MOL0     C  566   8.125   5.925   6.015  0.3431 -0.0757  0.1150
    5MOL0     C  567   8.176   5.815   5.938  0.3806 -0.6241  0.0140
    5MOL0     C  568   8.088   5.686   5.933  0.3896 -0.2697  0.4423
    5MOL0     C  569   8.308   5.814   5.883 -0.3401  1.1667  0.0950
    5MOL0     C  570   8.366   5.708   5.796 -0.0668 -0.0625 -0.1331
    5MOL0     O  571   8.507   5.700   5.799 -0.1163 -0.5266  0.3194
    5MOL0     C  572   8.576   5.599   5.739  0.3058  0.8994 -0.6617
    5MOL0     C  573   8.524   5.470   5.710 -0.1398 -0.1447 -1.0761
    5MOL0     C  574   8.593   5.380   5.637  0.3048  0.3513  0.0028
    5MOL0     C  575   8.721   5.414   5.583  0.4892  0.5068  0.2542
    5MOL0     O  576   8.785   5.316   5.521 -0.3975  0.2318 -0.3726
    5MOL0     C  577   8.864   5.233   5.614  0.7445 -0.1656  0.0931
    5MOL0     C  578   8.986   5.165   5.546 -0.0519 -0.6467  0.3365
    5MOL0     C  579   8.941   5.040   5.476  0.3854  0.1777  0.0753
    5MOL0     C  580   8.948   4.914   5.569  0.2895  0.4433  0.3750
    5MOL0     C  581   8.861   4.799   5.509 -0.0745  0.2965  0.0945
    5MOL0     C  582   8.890   4.658   5.559  0.4826  0.6839 -0.0908
    5MOL0     C  583   8.894   4.627   5.707  0.3526 -0.5350  0.0562
    5MOL0     C  584   8.764   4.645   5.783 -0.1315  0.4028  0.5977
    5MOL0    Cl  585   8.641   4.508   5.739 -0.2352  0.6937  0.1388
    5MOL0     C  586   8.762   5.539   5.606 -0.7210  0.4787 -0.0405
    5MOL0     C  587   8.701   5.627   5.684 -0.0614 -0.1396  0.2737
    5MOL0     O  588   8.289   5.651   5.720  0.3580  0.4825 -1.0179
    5MOL0     C  589   8.388   5.929   5.910  0.1276 -0.4704 -0.5445
    5MOL0     C  590   8.332   6.039   5.979  0.1054 -0.6922 -0.0876
    5MOL0     N  591   8.269   6.798   6.225 -0.4567 -0.1709 -0.2680
    5MOL0     N  592   8.314   6.899   6.292 -0.3964  0.7239  0.0466
    5MOL0     C  593   9.585   7.149   6.583 -0.3169  0.0610 -0.9800
    5MOL0     C  594   9.704   7.210   6.541 -0.4362 -0.0194  0.3183
    5MOL0     C  595  10.066   7.310   6.278  0.3133 -0.4443  0.2774
    5MOL0     C  596  10.109   7.381   6.395  0.6873  0.2580  0.2357
    5MOL0     C  597  10.225   7.451   6.400 -0.3715  0.7340 -0.3873
    5MOL0     C  598  10.301   7.459   6.290 -0.1797  0.5254 -0.1412
    5MOL0     O  599  10.413   7.533   6.306  0.1997  0.6298 -0.8666
    5MOL0     C  600  10.466   7.607   6.194  0.3653 -0.6806  0.3043
    5MOL0     C  601  10.384   7.722   6.152  0.9938 -0.4084 -0.0567
    5MOL0     C  602  10.472   7.802   6.065 -0.8266 -0.0645  0.0739
    5MOL0     C  603  10.424   7.944   6.035  0.0235  0.4096 -0.3557
    5MOL0     C  604  10.491   8.013   5.929  0.8200 -0.5136 -0.4079
    5MOL0     C  605  10.547   8.044   5.829  0.3830  0.2973 -0.8825
    5MOL0     C  606  10.264   7.392   6.171 -0.6910 -0.1063  0.1178
    5MOL0     C  607  10.142   7.327   6.164 -0.9689  0.4787  0.5564
    5MOL0     H  608   9.634   7.204   6.207  0.1912  3.7475  0.8018
    5MOL0     H  609   9.429   7.112   6.288  2.1988 -3.8233 -0.9095
    5MOL0     H  610   9.254   7.180   6.394  2.0077  0.4336  0.1079
    5MOL0     H  611   9.250   7.001   6.386  0.6663 -1.1038  1.2578
    5MOL0     H  612   9.136   6.974   6.574  1.1273  1.5590  2.1384
    5MOL0     H  613   9.111   7.142   6.613 -0.8332 -0.7862  0.2462
    5MOL0     H  614   9.015   7.168   6.371 -0.6436 -0.4648 -0.1659
    5MOL0     H  615   9.042   6.999   6.342  1.0134 -0.1364  0.6288
    5MOL0     H  616   8.887   6.941   6.526  0.2337 -1.2569 -3.9259
    5MOL0     H  617   8.849   7.107   6.559  0.9370 -0.5628  0.7288
    5MOL0     H  618   8.771   7.100   6.294 -1.3272  0.0160  0.1226
    5MOL0     H  619   8.788   6.924   6.326  0.1046  0.1188  0.5769
    5MOL0     H  620   8.602   7.113   6.458  3.2361  1.4665 -1.9140
    5MOL0     H  621   8.568   7.002   6.322  0.3537 -1.3630 -0.7890
    5MOL0     H  622   8.628   6.806   6.475 -1.1638 -1.9499  1.6229
    5MOL0     H  623   8.632   6.922   6.605 -0.7928 -1.0006  0.1438
    5MOL0     H  624   8.399   7.009   6.541 -1.4493 -0.2783  0.0342
    5MOL0     H  625   8.393   6.854   6.605  2.1472  1.5140  0.7623
    5MOL0     H  626   8.361   6.629   6.469 -2.2037 -1.6464 -0.8515
    5MOL0     H  627   8.176   6.556   6.148  0.2616  1.9032 -0.5729
    5MOL0     H  628   8.357   6.521   6.165 -0.0604  1.6099 -1.6933
    5MOL0     H  629   8.149   6.496   6.386 -1.0104 -0.1609 -1.2968
    5MOL0     H  630   8.320   6.434   6.371  0.5089 -3.1570 -2.4077
    5MOL0     H  631   8.057   6.345   6.266 -0.0359  0.3929 -1.0888
    5MOL0     H  632   8.158   6.243   6.369 -2.3351 -0.8212 -0.4444
    5MOL0     H  633   8.322   6.196   6.200 -1.3189 -1.0927  1.2338
    5MOL0     H  634   8.255   6.315   6.083  0.2755  1.6221  0.6261
    5MOL0     H  635   8.025   5.917   6.057 -0.6649 -0.0122 -2.1724
    5MOL0     H  636   8.016   5.691   5.851  0.0711  1.7974  0.8045
    5MOL0     H  637   8.151   5.596   5.928 -1.4236 -1.5640  0.2493
    5MOL0     H  638   8.034   5.689   6.028  1.6038 -0.0656  1.1568
    5MOL0     H  639   8.424   5.444   5.743  1.0059 -1.8616  1.2986
    5MOL0     H  640   8.551   5.285   5.606 -2.8375  1.4601  0.5399
    5MOL0     H  641   8.901   5.298   5.694 -0.8684 -2.1804  2.5751
    5MOL0     H  642   8.797   5.157   5.654  1.0334 -0.7915 -0.5779
    5MOL0     H  643   9.019   5.252   5.488  1.1143 -2.0218 -1.1834
    5MOL0     H  644   9.070   5.142   5.612  1.3724  2.4974 -0.1666
    5MOL0     H  645   9.012   5.025   5.394 -0.9561  0.6767 -1.2085
    5MOL0     H  646   8.838   5.049   5.441  0.0827  0.2299  0.9467
    5MOL0     H  647   9.051   4.887   5.597 -0.6713 -1.2062  2.6493
    5MOL0     H  648   8.896   4.941   5.662  0.4851  0.1993  0.5584
    5MOL0     H  649   8.883   4.798   5.402 -1.0714 -1.4871 -0.1472
    5MOL0     H  650   8.755   4.823   5.521 -0.2471  0.7273 -1.9599
    5MOL0     H  651   8.815   4.592   5.514 -1.1583  2.2946  0.1450
    5MOL0     H  652   8.985   4.630   5.513  0.9484 -0.7591  1.6316
    5MOL0     H  653   8.965   4.698   5.750 -1.0054  0.5867  0.5291
    5MOL0     H  654   8.924   4.524   5.727  1.2976 -0.3828 -0.5066
    5MOL0     H  655   8.718   4.740   5.753  1.9756  1.7189  1.3232
    5MOL0     H  656   8.778   4.641   5.891 -0.1469 -1.4854  0.5686
    5MOL0     H  657   8.862   5.568   5.574  0.1539 -1.1967  1.0592
    5MOL0     H  658   8.745   5.723   5.706 -4.5866  2.7826 -1.8593
    5MOL0     H  659   8.479   5.956   5.858 -0.1403 -0.3982 -0.9864
    5MOL0     H  660   8.396   6.127   5.987 -1.4477  0.6833 -1.8296
    5MOL0     H  661   9.582   7.118   6.687 -2.8145  0.1719 -0.9569
    5MOL0     H  662   9.777   7.254   6.609  0.1833 -1.2209  0.4459
    5MOL0     H  663  10.045   7.396   6.482 -1.5846  0.7433 -1.4339
    5MOL0     H  664  10.261   7.483   6.498  3.1505 -1.2293 -0.8765
    5MOL0     H  665  10.562   7.649   6.225 -0.5581  0.7721  1.2955
    5MOL0     H  666  10.487   7.543   6.108  1.1758  0.7581 -0.6167
    5MOL0     H  667  10.365   7.774   6.246  0.6176 -1.5957  0.5387
    5MOL0     H  668  10.292   7.690   6.103  0.7858 -2.4306  1.5125
    5MOL0     H  669  10.492   7.743   5.975  0.6011 -2.1367  1.6424
    5MOL0     H  670  10.571   7.813   6.111 -0.0778  3.1044 -1.9416
    5MOL0     H  671  10.421   7.996   6.131  0.5197 -2.7240  1.4964
    5MOL0     H  672  10.325   7.931   5.988  0.9077 -2.0062 -1.7705
    5MOL0     H  673  10.608   8.066   5.744  2.7558  2.6525  1.2350
    5MOL0     H  674  10.321   7.397   6.078  2.5107  0.7732  1.9728
    5MOL0     H  675  10.117   7.287   6.066  0.8199  2.0183 -0.6072
    6MOL0     O  676   0.372   2.641   3.999  0.3666  0.5894 -0.6436
    6MOL0     C  677   0.299   2.656   4.094 -0.6209  0.3110  0.3217
    6MOL0     O  678   0.320   2.590   4.213  0.3727  0.0806  0.2575
    6MOL0     C  679   0.445   2.554   4.246 -0.2493 -0.7070 -0.0812
    6MOL0     C  680   0.558   2.641   4.222  0.1816  0.0145  0.1665
    6MOL0     C  681   0.691   2.617   4.267 -0.0942 -0.1339 -0.1011
    6MOL0     C  682   0.715   2.506   4.340 -0.4937 -0.2280  0.7227
    6MOL0     O  683   0.835   2.469   4.392  0.5989  0.0711 -0.4242
    6MOL0     C  684   0.950   2.527   4.323  0.3220  0.3308 -0.6393
    6MOL0     C  685   1.084   2.471   4.369  0.4573 -0.1385  0.9373
    6MOL0     C  686   1.195   2.508   4.275 -0.3761  0.3638 -0.6384
    6MOL0     C  687   1.333   2.439   4.298  0.3928 -0.0193 -0.1466
    6MOL0     C  688   1.441   2.477   4.198 -0.9881 -0.6025 -1.0757
    6MOL0     C  689   1.461   2.627   4.200 -0.1884 -0.1865  0.1091
    6MOL0     C  690   1.578   2.681   4.120  0.0618  0.2149 -0.4184
    6MOL0     C  691   1.635   2.811   4.185 -0.5012  0.0233  0.2659
    6MOL0     N  692   1.727   2.866   4.083 -0.8093  0.0278 -0.4239
    6MOL0     C  693   1.691   2.910   3.962  0.4252 -0.2057  0.1887
    6MOL0     C  694   1.798   2.965   3.900  0.4459 -0.4023 -0.6028
    6MOL0     C  695   1.804   3.027   3.758 -0.4651  0.6965  0.2354
    6MOL0     C  696   1.775   2.914   3.658 -0.3978  0.8384 -0.6186
    6MOL0     C  697   1.848   2.917   3.525  0.1890 -0.2363 -0.6664
    6MOL0     C  698   1.854   3.054   3.460  0.2678  0.3639 -0.6900
    6MOL0     O  699   1.728   3.113   3.432  0.5470 -0.0445  0.2216
    6MOL0     C  700   1.672   3.209   3.514 -0.7840  0.6586 -0.8274
    6MOL0     C  701   1.531   3.207   3.524  0.4911  0.0619 -0.8566
    6MOL0     C  702   1.454   3.309   3.577  0.1646 -0.5277 -0.4320
    6MOL0     C  703   1.301   3.286   3.599  0.5422  0.4379  0.4579
    6MOL0     C  704   1.520   3.421   3.625 -0.0227  0.4420 -0.2324
    6MOL0     C  705   1.447   3.542   3.681  0.7587 -0.9319 -0.6366
    6MOL0     O  706   1.499   3.600   3.782 -0.7572 -0.1973 -0.3221
    6MOL0     C  707   1.470   3.724   3.827 -0.7000 -0.2826  0.3238
    6MOL0     C  708   1.359   3.801   3.790  0.0919  1.0188  0.1016
    6MOL0     C  709   1.345   3.927   3.841 -0.1244  0.0876 -0.8322
    6MOL0     C  710   1.438   3.971   3.936  0.7252  0.5242  0.2413
    6MOL0     O  711   1.411   4.097   4.002 -0.2566 -0.4858  0.2730
    6MOL0     C  712   1.476   4.137   4.124 -0.7774 -0.0763  0.0538
    6MOL0     C  713   1.407   4.246   4.197 -0.1082  0.3348 -0.1792
    6MOL0     C  714   1.257   4.221   4.211  0.0612  0.8680 -0.1756
    6MOL0     C  715   1.184   4.338   4.273  0.1902 -0.0167  0.2964
    6MOL0     C  716   1.038   4.297   4.295 -0.6756  0.4012 -1.3595
    6MOL0     C  717   0.948   4.414   4.354  0.0337 -0.1410 -0.2962
    6MOL0     C  718   0.818   4.357   4.430  0.2035  0.8613 -0.3596
    6MOL0     C  719   0.829   4.331   4.578  0.3280 -0.0063 -0.0947
    6MOL0    Cl  720   0.939   4.204   4.615  0.2927  0.2621 -0.0079
    6MOL0     C  721   1.548   3.899   3.968  0.1944  0.1057  0.2489
    6MOL0     C  722   1.567   3.771   3.919  0.6707  0.9932  0.0162
    6MOL0     O  723   1.350   3.580   3.618  0.4589  0.1185 -0.1435
    6MOL0     C  724   1.663   3.423   3.614 -0.2295  0.1923  0.0413
    6MOL0     C  725   1.743   3.319   3.559 -0.1514 -0.2897 -1.1375
    6MOL0     N  726   1.902   2.946   3.985  0.9639 -0.0302 -1.1274
    6MOL0     N  727   1.861   2.898   4.098  0.1943 -0.2690 -0.1285
    6MOL0     C  728   0.610   2.423   4.371  0.2741  0.2180  0.7217
    6MOL0     C  729   0.476   2.452   4.329 -0.6458  0.3827  0.0827
    6MOL0     C  730   0.169   2.722   4.057 -0.7507  0.1768 -0.5162
    6MOL0     C  731   0.044   2.707   4.118  0.5916  0.4507  1.5359
    6MOL0     C  732  -0.074   2.762   4.068  0.1921 -0.3920  0.0668
    6MOL0     C  733  -0.068   2.847   3.960  0.2034 -0.4648  0.0238
    6MOL0     O  734  -0.176   2.926   3.913 -0.4917 -0.3300  0.3349
    6MOL0     C  735  -0.304   2.948   3.989 -0.0159 -0.2738  0.3298
    6MOL0     C  736  -0.440   2.940   3.895 -0.6631  0.6224 -1.0405
    6MOL0     C  737  -0.440   2.801   3.828 -0.1862 -0.0600  1.0505
    6MOL0     C  738  -0.518   2.690   3.909  0.4253 -0.6155  0.5898
    6MOL0     C  739  -0.658   2.716   3.925  0.2508  0.7135 -0.1479
    6MOL0     C  740  -0.771   2.746   3.957 -0.4051 -0.6191  0.2731
    6MOL0     C  741   0.056   2.861   3.888 -0.6853 -0.2173  0.3006
    6MOL0     C  742   0.172   2.802   3.938 -0.3096  0.1141  0.3332
    6MOL0     H  743   0.527   2.733   4.175 -0.7335 -1.8784 -3.3407
    6MOL0     H  744   0.757   2.697   4.238 -2.5762  1.4629 -1.7303
    6MOL0     H  745   0.930   2.513   4.217 -1.9514  0.2082 -0.2602
    6MOL0     H  746   0.962   2.634   4.341  1.7233  0.0015  0.5730
    6MOL0     H  747   1.107   2.509   4.469 -0.0310  1.0741  0.6064
    6MOL0     H  748   1.069   2.363   4.369 -2.4948  0.1468 -1.0933
    6MOL0     H  749   1.169   2.481   4.172  0.8357 -1.3338 -0.5352
    6MOL0     H  750   1.209   2.615   4.291 -0.1055  0.2599 -0.1638
    6MOL0     H  751   1.364   2.455   4.402 -2.1251 -1.5108  0.9214
    6MOL0     H  752   1.301   2.335   4.298 -0.1909 -0.0432  4.4730
    6MOL0     H  753   1.539   2.435   4.223 -1.3403 -0.8529 -0.0546
    6MOL0     H  754   1.419   2.450   4.095  0.3910  0.4258 -1.6790
    6MOL0     H  755   1.371   2.684   4.177 -0.3043 -1.1136 -1.9535
    6MOL0     H  756   1.477   2.645   4.307  0.4510 -3.3318  0.6394
    6MOL0     H  757   1.657   2.606   4.113  0.8537  1.1700 -2.4671
    6MOL0     H  758   1.549   2.699   4.016 -1.4105  1.0225  0.1010
    6MOL0     H  759   1.690   2.784   4.276  1.3392  0.3350 -0.6931
    6MOL0     H  760   1.558   2.886   4.207  0.0575  1.2718 -1.7754
    6MOL0     H  761   1.596   2.888   3.915 -0.7443 -0.0930  2.3737
    6MOL0     H  762   1.725   3.100   3.740 -3.0559 -2.1081 -0.4014
    6MOL0     H  763   1.901   3.077   3.741  0.2549 -0.4036  0.9591
    6MOL0     H  764   1.666   2.908   3.646 -0.7259 -1.0406  2.2545
    6MOL0     H  765   1.805   2.818   3.701  0.5067  1.3554 -0.0702
    6MOL0     H  766   1.805   2.847   3.452  2.1067  0.4170 -2.5412
    6MOL0     H  767   1.946   2.870   3.542 -0.5154 -2.5493 -2.3832
    6MOL0     H  768   1.919   3.070   3.373 -0.3679  1.8716 -0.9147
    6MOL0     H  769   1.910   3.119   3.527  1.8415  0.5657 -2.1452
    6MOL0     H  770   1.484   3.115   3.491  1.7702 -0.1328 -2.2034
    6MOL0     H  771   1.262   3.340   3.686 -1.9114  0.1629 -0.4068
    6MOL0     H  772   1.241   3.318   3.514  2.7823  0.2678 -1.2583
    6MOL0     H  773   1.280   3.181   3.617  1.5499  0.1997  0.3165
    6MOL0     H  774   1.276   3.779   3.724 -0.2186 -1.4411  1.2316
    6MOL0     H  775   1.253   3.984   3.838 -0.7500 -0.9039 -0.8753
    6MOL0     H  776   1.486   4.053   4.194  3.5636  1.4930  1.7003
    6MOL0     H  777   1.578   4.172   4.105 -0.7701 -1.2782 -2.6041
    6MOL0     H  778   1.454   4.249   4.296  1.4031  0.6169 -0.8836
    6MOL0     H  779   1.413   4.346   4.153  1.1019  0.2584 -0.2266
    6MOL0     H  780   1.240   4.138   4.279  0.1357 -0.4061 -1.6678
    6MOL0     H  781   1.203   4.196   4.119 -1.3741  0.5198  0.7307
    6MOL0     H  782   1.231   4.369   4.367 -1.2436  1.8263  0.4640
    6MOL0     H  783   1.193   4.428   4.212 -2.2246 -0.2015 -0.4270
    6MOL0     H  784   1.032   4.214   4.366  3.3703 -1.4907 -2.8979
    6MOL0     H  785   1.001   4.264   4.197  0.3499 -2.2544 -0.9448
    6MOL0     H  786   0.996   4.477   4.430 -3.1188 -0.0937  1.8741
    6MOL0     H  787   0.908   4.479   4.276 -3.8282 -1.4073  0.3666
    6MOL0     H  788   0.797   4.260   4.383 -1.2918 -1.1955  3.9808
    6MOL0     H  789   0.745   4.434   4.407  0.2314  0.5386 -1.5995
    6MOL0     H  790   0.727   4.306   4.608  0.4764  0.6819  1.0247
    6MOL0     H  791   0.855   4.428   4.621 -0.9228  1.0051 -1.4922
    6MOL0     H  792   1.621   3.947   4.033  0.0984  0.6978 -0.0699
    6MOL0     H  793   1.645   3.700   3.946 -0.6240 -0.1589  0.9013
    6MOL0     H  794   1.719   3.499   3.668  1.2540 -1.0764  0.3510
    6MOL0     H  795   1.852   3.321   3.564 -0.1253 -1.4711 -0.8506
    6MOL0     H  796   0.616   2.336   4.435 -1.9304  0.0741  0.8023
    6MOL0     H  797   0.395   2.383   4.354 -0.3927 -0.4115 -1.1621
    6MOL0     H  798   0.040   2.654   4.213  1.6649  1.0458  1.9392
    6MOL0     H  799  -0.159   2.736   4.130 -2.5919 -0.2597 -3.3592
    6MOL0     H  800  -0.327   2.876   4.067 -1.9685 -1.0194 -0.8594
    6MOL0     H  801  -0.303   3.047   4.037  1.6080  0.8235 -1.7692
    6MOL0     H  802  -0.458   3.026   3.830 -1.2733  0.4875 -1.0513
    6MOL0     H  803  -0.523   2.946   3.965 -1.0720  0.6841 -1.5234
    6MOL0     H  804  -0.340   2.762   3.806 -0.9621 -1.5781  0.0514
    6MOL0     H  805  -0.493   2.801   3.732  1.9026  1.2897 -0.2018
    6MOL0     H  806  -0.465   2.673   4.003  1.1793 -0.1600  0.2631
    6MOL0     H  807  -0.499   2.594   3.861  1.3320 -1.0090  1.6997
    6MOL0     H  808  -0.866   2.783   3.991  0.3029 -0.1099  1.8122
    6MOL0     H  809   0.064   2.917   3.795 -1.8609  1.7048  1.2962
    6MOL0     H  810   0.263   2.824   3.882 -2.0624  2.8561 -1.6777
    7MOL0     O  811   7.039  10.080   4.711  0.7140  0.0932 -0.2467
    7MOL0     C  812   7.045   9.963   4.753 -0.1157  0.7450 -0.6092
    7MOL0     O  813   6.943   9.898   4.814  0.5472 -0.0832  0.5456
    7MOL0     C  814   6.823   9.966   4.815 -0.3872 -0.3209 -0.6375
    7MOL0     C  815   6.807  10.073   4.903 -1.2223 -0.0456 -0.1290
    7MOL0     C  816   6.688  10.150   4.896 -0.0878  0.3319  0.6506
    7MOL0     C  817   6.589  10.124   4.800 -0.5812  0.0032 -0.6284
    7MOL0     O  818   6.487  10.221   4.806  0.3109  0.0548  0.5907
    7MOL0     C  819   6.372  10.199   4.723  0.4084 -0.7222 -1.2209
    7MOL0     C  820   6.287  10.083   4.785 -0.1189  0.0166 -0.0700
    7MOL0     C  821   6.160  10.054   4.699 -0.2423  0.2075  0.6149
    7MOL0     C  822   6.188   9.973   4.565 -0.1034 -0.5827 -0.3674
    7MOL0     C  823   6.061   9.951   4.490 -0.4523 -0.5522  0.7884
    7MOL0     C  824   6.071   9.854   4.368  0.0520  0.8283  0.2636
    7MOL0     C  825   5.986   9.884   4.250 -0.6168 -0.2504  0.1727
    7MOL0     C  826   6.021   9.791   4.137  0.2844  0.6268  0.3479
    7MOL0     N  827   5.916   9.806   4.030 -0.3119 -0.7308  0.7300
    7MOL0     C  828   5.864   9.924   3.972 -1.1845 -0.7390 -0.0174
    7MOL0     C  829   5.787   9.877   3.872 -0.0470  0.7712  0.3958
    7MOL0     C  830   5.710   9.969   3.789  0.0311 -0.9579  0.2740
    7MOL0     C  831   5.557   9.947   3.812  0.3517  0.0257 -0.8740
    7MOL0     C  832   5.463  10.043   3.725  0.1091  0.3359 -0.7006
    7MOL0     C  833   5.418   9.981   3.591 -0.3503  0.0929  0.3684
    7MOL0     O  834   5.315  10.049   3.514 -0.0013 -0.4073 -0.3068
    7MOL0     C  835   5.192  10.069   3.575  0.3324  0.2697 -0.2021
    7MOL0     C  836   5.116   9.957   3.617  0.6664  0.8282  0.5827
    7MOL0     C  837   4.984   9.962   3.667 -0.3396 -0.0364 -0.2691
    7MOL0     C  838   4.912   9.828   3.691  0.7524  0.0803 -0.1362
    7MOL0     C  839   4.930  10.092   3.692 -0.8093 -1.0447 -0.5083
    7MOL0     C  840   4.797  10.123   3.742  0.1409  0.5875  0.2598
    7MOL0     O  841   4.737  10.233   3.694 -0.0885  0.3068  0.5408
    7MOL0     C  842   4.620  10.271   3.753  0.0398 -0.4531 -1.1901
    7MOL0     C  843   4.627  10.375   3.838 -0.0565  0.0461 -0.8399
    7MOL0     C  844   4.508  10.414   3.898  0.5655  0.2501 -0.4874
    7MOL0     C  845   4.381  10.359   3.871 -0.5735  0.0523 -0.3144
    7MOL0     O  846   4.258  10.404   3.920 -0.1583  0.0605  1.0785
    7MOL0     C  847   4.153  10.303   3.956 -0.4249 -0.0050 -0.2738
    7MOL0     C  848   4.039  10.389   4.009 -0.0863  0.2854 -0.2540
    7MOL0     C  849   3.941  10.297   4.086  0.5539  0.8027 -0.3523
    7MOL0     C  850   3.790  10.309   4.032 -0.5535  0.3162 -0.9035
    7MOL0     C  851   3.700  10.203   4.108 -0.2761  0.1131 -0.1102
    7MOL0     C  852   3.554  10.215   4.079  0.2017 -0.3696 -0.1907
    7MOL0     C  853   3.494  10.343   4.142 -0.3329  0.3300  0.2003
    7MOL0     C  854   3.349  10.383   4.091  0.0034  0.1943 -0.4771
    7MOL0    Cl  855   3.232  10.252   4.076 -0.2606  0.3526 -0.3293
    7MOL0     C  856   4.385  10.243   3.798 -0.3060 -0.0935  0.6911
    7MOL0     C  857   4.506  10.194   3.741 -0.1342  0.2629 -0.1214
    7MOL0     O  858   4.750  10.042   3.825 -0.1340  0.8075 -0.4997
    7MOL0     C  859   5.009  10.204   3.664  0.8003  1.0082 -0.2751
    7MOL0     C  860   5.131  10.192   3.600  0.0973 -0.1303 -0.8510
    7MOL0     N  861   5.795   9.737   3.861  1.1251 -0.6530  0.3561
    7MOL0     N  862   5.874   9.699   3.954 -0.0033 -0.0141 -0.5120
    7MOL0     C  863   6.604  10.008   4.715 -0.7558 -0.5712 -0.8355
    7MOL0     C  864   6.725   9.939   4.719  0.4661  0.4512 -0.4218
    7MOL0     C  865   7.151   9.866   4.732  1.0965 -0.3457  0.1898
    7MOL0     C  866   7.247   9.902   4.642 -0.1525 -0.3733  0.4042
    7MOL0     C  867   7.344   9.812   4.604 -0.3412  0.5522 -0.9706
    7MOL0     C  868   7.353   9.694   4.676  0.2762 -0.0093 -0.3629
    7MOL0     O  869   7.457   9.605   4.670 -0.1148  0.0497 -0.2388
    7MOL0     C  870   7.569   9.621   4.582  0.5599  0.0057 -0.6438
    7MOL0     C  871   7.685   9.531   4.618 -0.0901 -0.2230 -0.0375
    7MOL0     C  872   7.654   9.379   4.579 -0.1462 -0.5066 -0.5580
    7MOL0     C  873   7.601   9.284   4.696  0.0481  0.4248  0.1527
    7MOL0     C  874   7.608   9.143   4.658  0.1676  0.2291  1.0060
    7MOL0     C  875   7.595   9.028   4.633 -0.0141  0.2178  0.3682
    7MOL0     C  876   7.261   9.659   4.779  0.8244  0.1507  0.5073
    7MOL0     C  877   7.161   9.747   4.810  0.3845  0.3813  0.3188
    7MOL0     H  878   6.880  10.084   4.982 -2.1803 -2.6210  1.2565
    7MOL0     H  879   6.671  10.235   4.961  0.5253  1.8611 -1.0961
    7MOL0     H  880   6.322  10.296   4.732  0.4069 -0.8285  0.0187
    7MOL0     H  881   6.402  10.193   4.618  0.5091  2.3426 -1.4600
    7MOL0     H  882   6.345   9.991   4.791 -0.0126  0.0417 -0.6622
    7MOL0     H  883   6.263  10.123   4.884 -1.8706 -1.5536  0.1944
    7MOL0     H  884   6.089   9.996   4.758  1.5158 -1.1154  1.5039
    7MOL0     H  885   6.110  10.148   4.671  0.7747  0.9386  1.1843
    7MOL0     H  886   6.255  10.031   4.500 -1.8721  1.1781 -0.7256
    7MOL0     H  887   6.227   9.874   4.591 -0.1169 -0.1445  1.4515
    7MOL0     H  888   5.980   9.915   4.554 -0.5003  0.6079  1.4063
    7MOL0     H  889   6.027  10.043   4.441  0.5929 -0.6156 -0.0951
    7MOL0     H  890   6.177   9.862   4.341  0.3446  3.6223  1.9230
    7MOL0     H  891   6.049   9.756   4.411  0.3115 -0.3002 -1.9899
    7MOL0     H  892   5.880   9.875   4.279 -0.9251  0.1491 -0.8020
    7MOL0     H  893   5.996   9.988   4.219  2.9906 -0.6742 -0.4328
    7MOL0     H  894   6.025   9.689   4.176 -0.0943 -0.0768 -1.3468
    7MOL0     H  895   6.123   9.815   4.105  1.1632 -1.4656  1.4137
    7MOL0     H  896   5.885  10.028   3.994 -2.5120 -0.4531 -0.0283
    7MOL0     H  897   5.715  10.075   3.817 -1.9666 -0.1976 -1.9480
    7MOL0     H  898   5.736   9.964   3.683 -1.2895  0.7675 -0.1889
    7MOL0     H  899   5.532   9.955   3.918 -0.1001  1.1597 -1.0515
    7MOL0     H  900   5.529   9.846   3.780 -0.1265 -0.1384  0.0196
    7MOL0     H  901   5.525  10.128   3.695  0.7531 -0.3964 -1.5079
    7MOL0     H  902   5.379  10.094   3.774  0.4714  1.0026 -0.7551
    7MOL0     H  903   5.380   9.882   3.618 -1.8642  0.8142  0.9719
    7MOL0     H  904   5.493   9.965   3.513 -0.3386  0.8354  0.2188
    7MOL0     H  905   5.164   9.861   3.631 -0.1749  0.6464  2.5425
    7MOL0     H  906   4.958   9.746   3.636  1.2243 -0.1036  0.5085
    7MOL0     H  907   4.917   9.805   3.798  0.1482  2.3249  0.4397
    7MOL0     H  908   4.809   9.845   3.660  0.3281 -1.5587  0.3014
    7MOL0     H  909   4.720  10.431   3.851  0.5324 -0.9460 -0.6428
    7MOL0     H  910   4.511  10.502   3.961 -2.5551  0.7538 -0.8678
    7MOL0     H  911   4.116  10.250   3.868  1.2308 -2.1257  0.2332
    7MOL0     H  912   4.190  10.235   4.033  1.0636  0.6440 -0.3773
    7MOL0     H  913   4.083  10.464   4.075 -1.3891 -0.8128  1.9757
    7MOL0     H  914   3.981  10.433   3.927 -2.4294 -0.7160  0.7702
    7MOL0     H  915   3.924  10.326   4.190 -2.5418 -0.4622 -0.3824
    7MOL0     H  916   3.984  10.196   4.087  1.0645  1.0074 -1.1792
    7MOL0     H  917   3.757  10.412   4.048 -0.0903  0.8943 -3.2543
    7MOL0     H  918   3.792  10.301   3.923  2.3557 -0.5532 -0.8762
    7MOL0     H  919   3.714  10.204   4.216 -2.2797  0.8769  0.1688
    7MOL0     H  920   3.739  10.104   4.081  1.8986 -0.0927  3.2786
    7MOL0     H  921   3.531  10.202   3.973  0.5511 -1.2469 -0.1713
    7MOL0     H  922   3.513  10.127   4.130 -1.6900  1.3953  1.5091
    7MOL0     H  923   3.558  10.425   4.108  1.3380 -1.2746 -0.6937
    7MOL0     H  924   3.498  10.325   4.249  1.1109 -2.4382 -0.2348
    7MOL0     H  925   3.359  10.442   3.999  1.1353  1.1785  0.2466
    7MOL0     H  926   3.315  10.450   4.171  1.0242 -0.4232  0.4996
    7MOL0     H  927   4.297  10.181   3.785 -1.2353  0.9846  1.6852
    7MOL0     H  928   4.514  10.104   3.680 -0.6684  0.0255  0.1578
    7MOL0     H  929   4.961  10.298   3.692 -1.2553 -0.7435  2.7309
    7MOL0     H  930   5.174  10.278   3.548 -0.7170  0.2323 -0.9423
    7MOL0     H  931   6.531   9.984   4.639  0.1300  1.4685 -2.4240
    7MOL0     H  932   6.738   9.854   4.653  0.6776  1.7494 -2.1160
    7MOL0     H  933   7.249  10.001   4.595 -1.3942  0.3389  1.7896
    7MOL0     H  934   7.414   9.832   4.524 -0.9285 -2.8420 -2.5067
    7MOL0     H  935   7.537   9.603   4.479 -0.0892  2.0365 -0.8316
    7MOL0     H  936   7.614   9.721   4.585  0.9226 -0.1865  1.1687
    7MOL0     H  937   7.699   9.536   4.726 -0.2049 -1.9019  0.0793
    7MOL0     H  938   7.778   9.564   4.570 -0.0295 -0.8752 -0.3861
    7MOL0     H  939   7.749   9.337   4.544  1.3325 -2.6163  4.9370
    7MOL0     H  940   7.570   9.388   4.510 -2.2618  2.4313  2.1355
    7MOL0     H  941   7.498   9.307   4.725 -0.9007  0.8114 -3.1911
    7MOL0     H  942   7.671   9.304   4.778  1.6415  1.6320 -1.4204
    7MOL0     H  943   7.589   8.923   4.612  0.8583  0.6545 -2.4953
    7MOL0     H  944   7.277   9.576   4.846  0.2719 -1.4543 -1.2488
    7MOL0     H  945   7.084   9.722   4.882 -1.5698  1.6483 -1.2256
    8MOL0     O  946   5.312   0.295   9.649 -0.0240 -0.0642  0.2005
    8MOL0     C  947   5.341   0.405   9.687  0.1291  0.1607  0.2659
    8MOL0     O  948   5.248   0.496   9.729 -0.7237  0.1235  0.5209
    8MOL0     C  949   5.120   0.461   9.711  0.2020 -0.6639 -0.5456
    8MOL0     C  950   5.044   0.543   9.628  0.1389  0.1433 -0.2840
    8MOL0     C  951   4.901   0.521   9.630 -0.3396 -0.2673  0.0314
    8MOL0     C  952   4.839   0.415   9.699 -0.0284 -0.1700  0.0083
    8MOL0     O  953   4.704   0.403   9.674  0.3635 -0.4418 -0.1324
    8MOL0     C  954   4.627   0.301   9.732 -0.3020  0.4202 -0.7230
    8MOL0     C  955   4.505   0.263   9.656  0.1258  0.2863 -0.1174
    8MOL0     C  956   4.402   0.379   9.653  0.0159 -0.2334  0.1576
    8MOL0     C  957   4.252   0.336   9.649  0.2733 -0.7446  0.2895
    8MOL0     C  958   4.204   0.282   9.511  0.7125 -0.8931  0.1175
    8MOL0     C  959   4.070   0.216   9.519  0.4017  0.2343  0.0718
    8MOL0     C  960   3.943   0.305   9.557 -0.1194 -0.7293 -0.0524
    8MOL0     C  961   3.823   0.235   9.611 -0.7980 -0.3133 -0.5288
    8MOL0     N  962   3.752   0.141   9.525 -0.0396  0.5120 -0.1227
    8MOL0     C  963   3.616   0.121   9.522 -0.4776  0.0876 -0.3323
    8MOL0     C  964   3.591   0.041   9.418 -0.9484  0.4377 -0.2828
    8MOL0     C  965   3.455  -0.020   9.382  0.8413 -0.5945 -0.7325
    8MOL0     C  966   3.337   0.079   9.362 -0.5691  0.6611  0.3423
    8MOL0     C  967   3.358   0.168   9.238  0.4537  0.1664 -0.4677
    8MOL0     C  968   3.236   0.251   9.183 -0.9662  0.6873 -0.7463
    8MOL0     O  969   3.126   0.166   9.146  0.0029  0.1889 -0.0358
    8MOL0     C  970   3.035   0.202   9.052 -0.4667  0.2609 -0.0143
    8MOL0     C  971   3.036   0.323   8.979  0.7806 -0.1176  0.1452
    8MOL0     C  972   2.947   0.346   8.878  0.5008 -0.1953  0.9093
    8MOL0     C  973   2.984   0.467   8.789 -0.2584  0.4646  0.9332
    8MOL0     C  974   2.832   0.268   8.860  0.5282  0.4773  0.0307
    8MOL0     C  975   2.729   0.294   8.763  0.3106  0.1160 -0.0199
    8MOL0     O  976   2.590   0.292   8.806 -0.3446  0.1741  0.1207
    8MOL0     C  977   2.496   0.283   8.704  0.1080 -0.4456 -0.3422
    8MOL0     C  978   2.484   0.158   8.640  0.6007  0.1132  0.9406
    8MOL0     C  979   2.381   0.146   8.550  0.4368 -0.3439 -0.2316
    8MOL0     C  980   2.285   0.254   8.517  0.1870  0.5360 -0.0897
    8MOL0     O  981   2.176   0.234   8.441 -0.5832 -0.1458 -0.7015
    8MOL0     C  982   2.175   0.116   8.357  0.4290 -0.7075  0.2316
    8MOL0     C  983   2.059   0.127   8.250 -0.5285  1.0407 -0.0523
    8MOL0     C  984   1.937   0.209   8.300  0.5000 -0.4499  0.2193
    8MOL0     C  985   1.828   0.197   8.196  0.1615  0.0308  0.8633
    8MOL0     C  986   1.709   0.291   8.245 -0.0674  0.2258 -0.2848
    8MOL0     C  987   1.575   0.303   8.159 -0.7152 -0.0359 -0.5181
    8MOL0     C  988   1.466   0.396   8.219  1.1823  0.6938  0.0984
    8MOL0     C  989   1.349   0.410   8.114 -0.4651 -0.4510 -0.1898
    8MOL0    Cl  990   1.279   0.247   8.070  0.2081 -0.3463 -0.0298
    8MOL0     C  991   2.304   0.372   8.587  0.6665 -0.5694 -0.3246
    8MOL0     C  992   2.402   0.386   8.690  0.4556  0.1674 -0.3180
    8MOL0     O  993   2.769   0.302   8.645 -0.3109 -0.6385 -0.2486
    8MOL0     C  994   2.815   0.158   8.946 -0.6729 -0.0121  0.2164
    8MOL0     C  995   2.921   0.119   9.037  0.8478  0.3685 -0.3129
    8MOL0     N  996   3.711   0.006   9.356 -0.7400 -0.1578  0.5336
    8MOL0     N  997   3.808   0.070   9.419  0.3244  0.7897 -0.3418
    8MOL0     C  998   4.916   0.341   9.793  0.6664 -0.2715  0.0512
    8MOL0     C  999   5.052   0.377   9.799  0.1755 -0.0717  0.6585
    8MOL0     C 1000   5.479   0.449   9.705  0.8657 -0.7106  0.2167
    8MOL0     C 1001   5.509   0.568   9.777  0.5717  0.2265 -0.2733
    8MOL0     C 1002   5.642   0.602   9.784 -0.4164  0.3056 -0.7058
    8MOL0     C 1003   5.748   0.526   9.740  0.0464  0.3871  0.1006
    8MOL0     O 1004   5.878   0.567   9.749  0.2203  0.3025 -0.1797
    8MOL0     C 1005   5.971   0.463   9.792 -0.5559 -0.2601 -0.8401
    8MOL0     C 1006   6.086   0.540   9.848  0.4837  0.1281 -1.3509
    8MOL0     C 1007   6.167   0.640   9.752  0.7243  0.6063 -0.3855
    8MOL0     C 1008   6.166   0.591   9.604 -0.1502 -0.7475  0.2684
    8MOL0     C 1009   6.269   0.668   9.530  0.9907 -0.0051  0.6517
    8MOL0     C 1010   6.356   0.734   9.475  0.4203 -0.0107 -0.1099
    8MOL0     C 1011   5.714   0.409   9.674  0.1458  0.3169 -1.3351
    8MOL0     C 1012   5.578   0.366   9.652 -0.4337 -0.4890 -0.0377
    8MOL0     H 1013   5.099   0.627   9.586 -0.7024  1.9063  1.9233
    8MOL0     H 1014   4.828   0.568   9.565 -0.6264 -0.6095  0.1069
    8MOL0     H 1015   4.685   0.210   9.745  2.0763  2.1016  1.3692
    8MOL0     H 1016   4.595   0.332   9.832 -0.0681 -0.2691 -0.4287
    8MOL0     H 1017   4.542   0.244   9.555  1.0164  0.2365  0.2075
    8MOL0     H 1018   4.450   0.189   9.715 -0.0157 -0.1244 -0.7621
    8MOL0     H 1019   4.425   0.430   9.747  2.6487  0.5891 -0.8567
    8MOL0     H 1020   4.421   0.437   9.562  1.3988 -1.2514 -0.2377
    8MOL0     H 1021   4.227   0.271   9.733 -1.3933 -1.9930 -1.0946
    8MOL0     H 1022   4.197   0.430   9.663 -0.2043 -1.2015  1.6850
    8MOL0     H 1023   4.199   0.354   9.428  0.1617 -1.9455 -0.7876
    8MOL0     H 1024   4.286   0.213   9.490  0.0388 -2.2474  1.6685
    8MOL0     H 1025   4.056   0.169   9.421 -0.8008  2.5027 -0.9305
    8MOL0     H 1026   4.076   0.137   9.594  1.0029  0.7174  0.5405
    8MOL0     H 1027   3.982   0.371   9.634 -2.3488 -0.7670  1.2123
    8MOL0     H 1028   3.917   0.354   9.463 -2.4123  1.3175  1.5224
    8MOL0     H 1029   3.759   0.315   9.649  2.3584  1.8882  0.5755
    8MOL0     H 1030   3.852   0.181   9.702 -2.3159 -0.3204 -0.0269
    8MOL0     H 1031   3.544   0.172   9.584 -0.0351  1.8716 -1.2202
    8MOL0     H 1032   3.476  -0.075   9.290  4.7386  0.6177 -0.7394
    8MOL0     H 1033   3.424  -0.081   9.468  0.6075  1.5197  0.7648
    8MOL0     H 1034   3.319   0.130   9.457  0.2702 -1.3677  1.6719
    8MOL0     H 1035   3.254   0.011   9.340 -0.5628  0.7466  0.0503
    8MOL0     H 1036   3.402   0.110   9.156  0.3861 -0.3521 -0.1366
    8MOL0     H 1037   3.435   0.241   9.264 -2.1276  2.0212  2.7394
    8MOL0     H 1038   3.266   0.306   9.093 -1.3711 -0.8243 -1.8689
    8MOL0     H 1039   3.194   0.318   9.258 -1.5634 -0.4701 -0.0240
    8MOL0     H 1040   3.123   0.388   8.988  0.9302  0.1239 -2.3864
    8MOL0     H 1041   3.062   0.531   8.831  0.0396  0.5960  0.1858
    8MOL0     H 1042   3.010   0.426   8.691 -1.2283 -1.1801  1.3196
    8MOL0     H 1043   2.901   0.538   8.786 -0.0350  0.6981 -0.1883
    8MOL0     H 1044   2.564   0.086   8.657  2.2600  1.5331 -0.4653
    8MOL0     H 1045   2.391   0.054   8.494  0.0002 -0.4803 -0.0886
    8MOL0     H 1046   2.263   0.101   8.295 -0.7994 -0.7871 -1.5880
    8MOL0     H 1047   2.156   0.026   8.416  0.0240 -0.0825  1.0776
    8MOL0     H 1048   2.103   0.175   8.163  0.4705  2.9165  1.4230
    8MOL0     H 1049   2.035   0.023   8.226 -1.7399  1.5342 -1.0910
    8MOL0     H 1050   1.957   0.317   8.303  0.3779 -0.3876 -0.8344
    8MOL0     H 1051   1.900   0.167   8.394  2.0047  0.7586  1.4093
    8MOL0     H 1052   1.853   0.224   8.093 -1.9562 -2.0594 -0.2961
    8MOL0     H 1053   1.798   0.093   8.185  2.8173 -0.6123 -1.4657
    8MOL0     H 1054   1.759   0.388   8.236  0.7314 -0.2422 -1.0291
    8MOL0     H 1055   1.682   0.260   8.346 -2.3496 -0.2689 -0.9925
    8MOL0     H 1056   1.592   0.333   8.055 -0.1779 -0.0927 -0.4503
    8MOL0     H 1057   1.536   0.203   8.139  0.8405 -0.4410 -1.7343
    8MOL0     H 1058   1.498   0.494   8.254 -0.6773  2.3542 -2.4794
    8MOL0     H 1059   1.424   0.340   8.303  0.9811 -0.2934 -0.6351
    8MOL0     H 1060   1.382   0.475   8.033  0.1000 -0.3459  0.1209
    8MOL0     H 1061   1.269   0.468   8.161  0.2632 -1.3056  2.2377
    8MOL0     H 1062   2.232   0.451   8.568 -0.1804 -0.2462  3.4516
    8MOL0     H 1063   2.422   0.476   8.748  0.4212  0.5437 -0.8751
    8MOL0     H 1064   2.732   0.089   8.940  0.2950 -1.1881 -0.1290
    8MOL0     H 1065   2.910   0.029   9.097 -2.4237  1.0595  0.3362
    8MOL0     H 1066   4.883   0.255   9.851  1.4084  0.3001  1.3862
    8MOL0     H 1067   5.108   0.319   9.872  0.5950 -1.4135 -0.6878
    8MOL0     H 1068   5.435   0.633   9.822  0.3197 -1.3233  1.6726
    8MOL0     H 1069   5.672   0.694   9.833 -1.2616 -0.1004  0.6394
    8MOL0     H 1070   5.937   0.404   9.878  3.1604 -1.9126 -0.3288
    8MOL0     H 1071   6.003   0.398   9.710 -0.7578 -1.1783 -0.2104
    8MOL0     H 1072   6.155   0.460   9.877  0.1658  0.6869  1.1451
    8MOL0     H 1073   6.058   0.590   9.940 -1.6617 -2.1789 -0.6413
    8MOL0     H 1074   6.268   0.653   9.794  0.4346 -0.1886  0.6038
    8MOL0     H 1075   6.115   0.736   9.747  0.4062  0.3643 -2.0922
    8MOL0     H 1076   6.074   0.626   9.557 -0.0089 -0.6114  0.0892
    8MOL0     H 1077   6.173   0.482   9.598 -0.7277 -0.7545 -0.4035
    8MOL0     H 1078   6.437   0.793   9.438  0.7917  0.6304  1.5990
    8MOL0     H 1079   5.793   0.339   9.649 -0.9020 -0.3408 -2.9686
    8MOL0     H 1080   5.560   0.270   9.605 -2.7980 -0.4642  0.7091
    9MOL0     O 1081   1.666   5.434   6.616  0.0740  0.2647  0.0835
    9MOL0     C 1082   1.747   5.401   6.525  0.2042 -0.1187  0.2234
    9MOL0     O 1083   1.720   5.335   6.410  0.2907 -0.7874 -0.4382
    9MOL0     C 1084   1.591   5.334   6.369 -0.5302  0.5895 -0.0761
    9MOL0     C 1085   1.543   5.209   6.318  0.5601  0.1781 -1.5864
    9MOL0     C 1086   1.410   5.191   6.292  0.2261  0.1249 -0.2326
    9MOL0     C 1087   1.329   5.307   6.298 -0.1263 -0.0237 -0.0246
    9MOL0     O 1088   1.199   5.300   6.254  0.2829 -0.4854  0.3151
    9MOL0     C 1089   1.111   5.195   6.294 -0.5035 -0.5404 -0.3239
    9MOL0     C 1090   1.061   5.238   6.433 -0.0046  0.4968  0.4287
    9MOL0     C 1091   0.986   5.122   6.496 -0.1539  0.5771  0.3020
    9MOL0     C 1092   0.843   5.162   6.536  0.4513 -0.4849 -0.4974
    9MOL0     C 1093   0.749   5.183   6.415  0.4353 -0.7724  0.5052
    9MOL0     C 1094   0.596   5.186   6.464 -0.1420 -0.0802 -0.1515
    9MOL0     C 1095   0.539   5.321   6.524 -0.2157  0.1033  0.1170
    9MOL0     C 1096   0.392   5.319   6.546  0.3834 -0.3634  0.7855
    9MOL0     N 1097   0.359   5.241   6.660  0.3928 -0.6912  0.1606
    9MOL0     C 1098   0.388   5.284   6.791 -0.0534 -0.5754 -0.0527
    9MOL0     C 1099   0.313   5.197   6.860 -0.4123 -0.5072  0.4745
    9MOL0     C 1100   0.286   5.201   7.015 -0.1520  0.7938 -0.1423
    9MOL0     C 1101   0.220   5.326   7.078  0.7526 -0.2079  0.6194
    9MOL0     C 1102   0.069   5.327   7.041  1.0332  0.4960  0.0022
    9MOL0     C 1103  -0.011   5.451   7.090  0.4395  0.3893  0.1582
    9MOL0     O 1104  -0.124   5.483   7.007 -0.0361  0.5527 -0.2179
    9MOL0     C 1105  -0.237   5.418   7.049  0.2199 -0.6795  0.8917
    9MOL0     C 1106  -0.348   5.449   6.978 -0.0323 -0.8276 -0.3360
    9MOL0     C 1107  -0.482   5.414   7.010 -0.2419 -0.4654 -0.1678
    9MOL0     C 1108  -0.592   5.456   6.919 -0.1924  0.4232  0.9290
    9MOL0     C 1109  -0.501   5.337   7.129  0.1996  0.1316 -0.1329
    9MOL0     C 1110  -0.633   5.278   7.184  0.0679 -0.3931 -0.4980
    9MOL0     O 1111  -0.646   5.248   7.316  0.2818 -0.3082  0.0788
    9MOL0     C 1112  -0.766   5.188   7.340  0.3785  0.9475 -1.1973
    9MOL0     C 1113  -0.884   5.263   7.375  0.1353  0.4390  0.1074
    9MOL0     C 1114  -1.002   5.197   7.417 -0.1566  0.6630  0.5936
    9MOL0     C 1115  -0.993   5.060   7.437  0.1722 -0.2167 -0.5727
    9MOL0     O 1116  -1.112   5.009   7.482 -0.2519  0.1120  0.3898
    9MOL0     C 1117  -1.154   4.885   7.423  0.1067 -0.7960  0.6801
    9MOL0     C 1118  -1.296   4.860   7.471 -0.6173 -0.9170  0.3942
    9MOL0     C 1119  -1.380   4.983   7.431  1.3990  0.0558  0.1029
    9MOL0     C 1120  -1.526   4.944   7.465 -0.4768 -0.8098 -0.0690
    9MOL0     C 1121  -1.621   5.075   7.489  0.3622  0.1803  0.9616
    9MOL0     C 1122  -1.743   5.032   7.565 -0.7545 -0.1911 -0.4130
    9MOL0     C 1123  -1.837   5.153   7.573  0.2035  0.5368 -0.3690
    9MOL0     C 1124  -1.953   5.103   7.652  0.0998 -0.1239 -0.3831
    9MOL0    Cl 1125  -1.925   5.081   7.826  0.2041  0.1877  0.4388
    9MOL0     C 1126  -0.882   4.982   7.406 -0.2510 -0.2836 -0.1207
    9MOL0     C 1127  -0.761   5.049   7.366  1.2950 -1.0610 -0.7873
    9MOL0     O 1128  -0.726   5.255   7.100 -0.0753  0.3253  0.0565
    9MOL0     C 1129  -0.386   5.317   7.206  1.0925  0.2130 -1.1742
    9MOL0     C 1130  -0.260   5.359   7.172  0.2724 -0.4468 -0.0066
    9MOL0     N 1131   0.269   5.087   6.777  0.0209 -0.0187  0.4174
    9MOL0     N 1132   0.299   5.120   6.656  0.1204  0.1302 -0.5662
    9MOL0     C 1133   1.378   5.426   6.344  0.2664 -0.1014  0.0237
    9MOL0     C 1134   1.510   5.445   6.376 -0.1607 -0.8269  0.5470
    9MOL0     C 1135   1.893   5.439   6.547  0.1802  0.5589  0.3468
    9MOL0     C 1136   1.991   5.415   6.449 -0.0305 -0.5985 -0.5809
    9MOL0     C 1137   2.123   5.451   6.477 -0.2365  0.2908 -0.1645
    9MOL0     C 1138   2.160   5.523   6.595  0.3163  0.5762  0.0263
    9MOL0     O 1139   2.291   5.558   6.609 -0.1747  0.3025 -0.0621
    9MOL0     C 1140   2.337   5.636   6.723  0.3177 -0.2244  0.0677
    9MOL0     C 1141   2.381   5.775   6.672 -0.2434 -0.2449 -0.3683
    9MOL0     C 1142   2.279   5.837   6.580 -0.5030 -0.1625 -0.7945
    9MOL0     C 1143   2.307   5.985   6.561  0.6785 -0.2706 -0.0318
    9MOL0     C 1144   2.431   6.024   6.488  0.2071 -1.0197 -0.4839
    9MOL0     C 1145   2.543   6.058   6.448 -0.6707  0.4628 -0.1753
    9MOL0     C 1146   2.063   5.521   6.702 -0.9720  0.5829  0.0857
    9MOL0     C 1147   1.936   5.481   6.671  0.0159  0.5507  0.6645
    9MOL0     H 1148   1.610   5.126   6.297  1.5108  0.3983  0.3110
    9MOL0     H 1149   1.361   5.103   6.253 -0.6672  1.0235 -1.1819
    9MOL0     H 1150   1.023   5.187   6.230 -1.2549 -1.1639  0.7633
    9MOL0     H 1151   1.163   5.099   6.292  0.0598 -0.2434 -1.5534
    9MOL0     H 1152   1.148   5.257   6.497 -0.7874  0.1143  1.6356
    9MOL0     H 1153   0.995   5.325   6.424 -1.4693 -0.6621 -0.3180
    9MOL0     H 1154   0.982   5.033   6.434 -0.3817 -0.3601  1.6221
    9MOL0     H 1155   1.033   5.096   6.592 -1.5695 -1.1134  0.5800
    9MOL0     H 1156   0.803   5.095   6.613  0.7625  2.0075  2.0134
    9MOL0     H 1157   0.850   5.260   6.585  1.7141 -0.8656  0.1175
    9MOL0     H 1158   0.753   5.269   6.348 -3.0034 -1.4799 -0.8016
    9MOL0     H 1159   0.758   5.099   6.346 -2.5541 -0.0525 -0.9286
    9MOL0     H 1160   0.532   5.161   6.380  0.0999 -1.3558  0.0292
    9MOL0     H 1161   0.583   5.101   6.531 -0.4560 -1.4068 -1.8280
    9MOL0     H 1162   0.583   5.342   6.622 -0.1795  2.2165 -0.3142
    9MOL0     H 1163   0.573   5.395   6.450  0.4703 -0.1130  0.2042
    9MOL0     H 1164   0.334   5.277   6.463 -1.0625  0.7030  1.2254
    9MOL0     H 1165   0.352   5.417   6.572  0.1802 -0.6454  1.5810
    9MOL0     H 1166   0.438   5.373   6.828 -1.1119 -0.4087  1.0176
    9MOL0     H 1167   0.236   5.108   7.044  1.7970 -0.1697  0.2478
    9MOL0     H 1168   0.383   5.185   7.061  0.0503  2.7061  0.1971
    9MOL0     H 1169   0.269   5.417   7.044  0.7390 -0.5564 -0.3635
    9MOL0     H 1170   0.221   5.325   7.188  3.2352 -2.0062  0.6655
    9MOL0     H 1171   0.014   5.238   7.074 -0.8505  1.9811  1.0597
    9MOL0     H 1172   0.061   5.326   6.932 -0.8439 -0.1316  0.0925
    9MOL0     H 1173   0.062   5.532   7.080  1.5878 -0.7153 -0.7819
    9MOL0     H 1174  -0.032   5.434   7.196 -0.7873 -0.3326 -0.1810
    9MOL0     H 1175  -0.334   5.521   6.898  0.9425  0.1559  0.6759
    9MOL0     H 1176  -0.660   5.531   6.960  2.0067  2.0154  1.8319
    9MOL0     H 1177  -0.556   5.492   6.823  0.4998 -1.1607  0.5595
    9MOL0     H 1178  -0.644   5.361   6.899  1.5025 -0.1752 -0.9925
    9MOL0     H 1179  -0.877   5.371   7.363 -1.6454  0.4041 -1.8630
    9MOL0     H 1180  -1.092   5.256   7.430 -1.0305 -0.1806 -1.1977
    9MOL0     H 1181  -1.145   4.886   7.314  0.2478  0.9818  0.6813
    9MOL0     H 1182  -1.090   4.803   7.457  0.1505 -0.3906  1.5950
    9MOL0     H 1183  -1.342   4.778   7.416 -1.7517  1.2397 -2.1516
    9MOL0     H 1184  -1.285   4.840   7.577  0.2159 -2.1604  0.0935
    9MOL0     H 1185  -1.376   4.988   7.322 -0.8027 -0.6089 -0.0692
    9MOL0     H 1186  -1.352   5.079   7.475  1.9020  0.1160 -0.3462
    9MOL0     H 1187  -1.578   4.895   7.381  2.9778 -1.9793 -1.6903
    9MOL0     H 1188  -1.527   4.889   7.560  2.3411 -1.0556 -0.1170
    9MOL0     H 1189  -1.640   5.112   7.387  1.4836 -0.0252  0.6607
    9MOL0     H 1190  -1.562   5.149   7.543  0.5508 -0.6163  1.8679
    9MOL0     H 1191  -1.799   4.955   7.511 -0.2238 -1.3048  0.5746
    9MOL0     H 1192  -1.705   5.000   7.663  1.1018  1.1175 -0.6573
    9MOL0     H 1193  -1.871   5.180   7.472 -1.4561  0.4590  0.1296
    9MOL0     H 1194  -1.778   5.234   7.616  1.8575 -0.7276 -0.1528
    9MOL0     H 1195  -1.989   5.014   7.600  2.1773 -0.1538 -1.9026
    9MOL0     H 1196  -2.036   5.171   7.636  0.4415 -0.0798 -2.1841
    9MOL0     H 1197  -0.888   4.876   7.430  0.0069 -0.2655  0.0304
    9MOL0     H 1198  -0.665   5.005   7.341  2.2424  0.3491  0.2386
    9MOL0     H 1199  -0.402   5.279   7.306 -1.5917  2.1256 -0.7514
    9MOL0     H 1200  -0.183   5.322   7.238 -2.1942  0.7790  3.8738
    9MOL0     H 1201   1.318   5.514   6.362 -1.0801 -1.1742  0.9480
    9MOL0     H 1202   1.545   5.542   6.409 -0.6514 -0.3961 -0.1734
    9MOL0     H 1203   1.969   5.377   6.350 -0.8115  0.4591 -0.8256
    9MOL0     H 1204   2.194   5.447   6.395 -1.5488  4.1504 -1.7387
    9MOL0     H 1205   2.267   5.643   6.807  2.7616 -0.3931  2.2749
    9MOL0     H 1206   2.428   5.585   6.758  1.2182 -1.4129 -3.6095
    9MOL0     H 1207   2.476   5.774   6.617  0.5289  2.3432  0.7496
    9MOL0     H 1208   2.404   5.840   6.757  0.6647 -0.7873 -0.1832
    9MOL0     H 1209   2.185   5.821   6.634 -0.4096 -2.0127 -1.0937
    9MOL0     H 1210   2.283   5.773   6.492 -1.2452  0.3230 -1.1916
    9MOL0     H 1211   2.303   6.033   6.660  1.0914 -0.8361  0.2610
    9MOL0     H 1212   2.215   6.026   6.518  1.2441 -0.3637 -1.3757
    9MOL0     H 1213   2.639   6.052   6.401 -0.9695 -2.0350 -0.6047
    9MOL0     H 1214   2.080   5.569   6.797  0.5074  1.2430 -0.4888
    9MOL0     H 1215   1.867   5.484   6.755 -0.0300 -2.2537  0.8079
   10MOL0     O 1216   6.223   8.567   1.736  0.2652  0.6044  0.2093
   10MOL0     C 1217   6.179   8.592   1.846  0.2347 -0.3190 -0.0664
   10MOL0     O 1218   6.234   8.688   1.926  0.9615  0.7586 -0.1762
   10MOL0     C 1219   6.329   8.776   1.879  0.4473 -0.5586  0.1587
   10MOL0     C 1220   6.310   8.911   1.911 -0.4375  0.2465  0.6469
   10MOL0     C 1221   6.406   9.007   1.888 -0.1393 -0.0300 -0.7187
   10MOL0     C 1222   6.524   8.973   1.819 -0.9108  0.1232  0.4756
   10MOL0     O 1223   6.619   9.077   1.801  0.3782  0.5093  0.1656
   10MOL0     C 1224   6.748   9.048   1.739 -0.1460 -0.1392 -0.4022
   10MOL0     C 1225   6.747   9.035   1.588  0.2118  0.3963  1.6219
   10MOL0     C 1226   6.678   9.152   1.519  0.7778  0.1088 -0.7835
   10MOL0     C 1227   6.679   9.144   1.366 -0.1244  0.2120 -0.3739
   10MOL0     C 1228   6.587   9.239   1.288  0.3591  0.7516  0.8380
   10MOL0     C 1229   6.622   9.389   1.303 -0.8275 -0.5703  0.3898
   10MOL0     C 1230   6.533   9.481   1.216 -0.1673 -0.3246 -1.0403
   10MOL0     C 1231   6.387   9.458   1.247 -0.8304  0.0151 -0.0287
   10MOL0     N 1232   6.323   9.587   1.196 -0.6254 -0.5430  0.0373
   10MOL0     C 1233   6.217   9.583   1.113  0.2569 -0.1014  0.4847
   10MOL0     C 1234   6.157   9.698   1.121 -0.6100  0.3175 -0.1566
   10MOL0     C 1235   6.041   9.743   1.034 -0.2481  0.1085  0.2098
   10MOL0     C 1236   5.907   9.672   1.072 -0.3795  0.0082 -0.1294
   10MOL0     C 1237   5.847   9.578   0.974 -0.4518  0.0075  0.3549
   10MOL0     C 1238   5.709   9.532   1.008  0.7745 -0.2515  0.0978
   10MOL0     O 1239   5.611   9.622   0.935  0.1913 -0.7597 -0.1411
   10MOL0     C 1240   5.475   9.583   0.931 -0.2332 -1.2175  0.0837
   10MOL0     C 1241   5.390   9.655   0.848 -0.0999  0.5463  1.0943
   10MOL0     C 1242   5.250   9.633   0.835 -0.0561  0.0229 -0.6091
   10MOL0     C 1243   5.167   9.734   0.748 -0.0628  0.4654  0.5722
   10MOL0     C 1244   5.191   9.528   0.915 -0.2917  0.0389  0.3805
   10MOL0     C 1245   5.051   9.487   0.916 -0.7859 -0.4934 -0.3272
   10MOL0     O 1246   5.015   9.392   1.003 -0.0405 -0.2172  0.0741
   10MOL0     C 1247   4.878   9.378   1.040  0.2963  0.0750 -0.6139
   10MOL0     C 1248   4.782   9.481   1.033  0.0698  0.0127  0.4562
   10MOL0     C 1249   4.643   9.459   1.047 -0.4859 -0.7386  0.0327
   10MOL0     C 1250   4.600   9.327   1.085 -0.1222  0.7493 -0.5817
   10MOL0     O 1251   4.471   9.290   1.105  0.3484  0.4733 -0.0846
   10MOL0     C 1252   4.371   9.396   1.101  0.3248  0.5371 -0.2158
   10MOL0     C 1253   4.225   9.362   1.080  0.3710  1.1023  0.2493
   10MOL0     C 1254   4.147   9.494   1.100  0.2710 -0.3048  0.4762
   10MOL0     C 1255   4.007   9.469   1.048  0.1314  0.2558  0.1356
   10MOL0     C 1256   3.921   9.584   1.093  0.0081  0.7672 -0.4130
   10MOL0     C 1257   3.776   9.559   1.070 -0.1512 -0.2248 -0.5894
   10MOL0     C 1258   3.688   9.655   1.155  0.1285 -0.9848 -0.3149
   10MOL0     C 1259   3.662   9.791   1.080 -0.4106  1.2580 -0.3942
   10MOL0    Cl 1260   3.556   9.878   1.208 -0.1452 -0.4745  0.1651
   10MOL0     C 1261   4.699   9.227   1.095  0.7071  0.3428 -0.0701
   10MOL0     C 1262   4.835   9.246   1.070  0.3657 -0.4348 -0.6852
   10MOL0     O 1263   4.981   9.548   0.847  0.0009 -0.0578  0.2838
   10MOL0     C 1264   5.284   9.446   0.985  0.3621  0.5527  0.3522
   10MOL0     C 1265   5.418   9.472   0.992 -1.1711 -0.6623 -0.0531
   10MOL0     N 1266   6.232   9.774   1.210 -0.4111 -0.3265  0.4670
   10MOL0     N 1267   6.329   9.714   1.257 -0.0241  0.1494 -0.2956
   10MOL0     C 1268   6.543   8.834   1.775  1.6444 -1.1871 -0.6512
   10MOL0     C 1269   6.445   8.742   1.810  0.1747 -0.2165  0.4743
   10MOL0     C 1270   6.071   8.500   1.905 -0.0164 -0.0623 -0.0790
   10MOL0     C 1271   6.011   8.536   2.022  0.0853  0.3756  0.7330
   10MOL0     C 1272   5.904   8.460   2.074 -0.6543 -0.3508 -0.5464
   10MOL0     C 1273   5.866   8.338   2.003 -0.1849 -0.7216 -0.1144
   10MOL0     O 1274   5.766   8.251   2.043  0.5392 -0.8977  0.9662
   10MOL0     C 1275   5.715   8.259   2.175  0.6487 -0.1064  0.5118
   10MOL0     C 1276   5.630   8.137   2.218 -0.0365  0.0162 -0.7267
   10MOL0     C 1277   5.530   8.158   2.328  0.0372  0.6242 -0.8244
   10MOL0     C 1278   5.462   8.018   2.378 -0.3559 -0.1527  0.2976
   10MOL0     C 1279   5.375   7.964   2.273  0.2951 -0.3083  0.1752
   10MOL0     C 1280   5.299   7.919   2.192  0.1341  0.2047 -0.2400
   10MOL0     C 1281   5.933   8.308   1.882 -0.2634  0.8511  0.0779
   10MOL0     C 1282   6.036   8.385   1.836 -0.1780 -0.9606  0.3000
   10MOL0     H 1283   6.215   8.932   1.958 -1.6951 -0.4379 -1.4390
   10MOL0     H 1284   6.393   9.110   1.920 -2.1210  0.1897 -2.0237
   10MOL0     H 1285   6.800   9.141   1.759 -0.5066 -0.0577  0.1916
   10MOL0     H 1286   6.791   8.956   1.781  0.0551  0.2854  0.3216
   10MOL0     H 1287   6.849   9.028   1.551  0.3178  1.3303  1.7065
   10MOL0     H 1288   6.685   8.949   1.560  0.3590  1.1476 -1.3741
   10MOL0     H 1289   6.575   9.156   1.554  1.1933 -1.8148  0.8091
   10MOL0     H 1290   6.720   9.247   1.552 -1.5330  1.8703 -2.5220
   10MOL0     H 1291   6.781   9.155   1.328  0.1523 -2.5297 -0.6135
   10MOL0     H 1292   6.649   9.048   1.325  1.5776 -0.1051 -0.9697
   10MOL0     H 1293   6.593   9.205   1.185 -0.9481 -0.8561  1.2553
   10MOL0     H 1294   6.480   9.223   1.304 -0.5423  3.4931 -1.6476
   10MOL0     H 1295   6.619   9.414   1.410  1.6777  1.4092  0.1030
   10MOL0     H 1296   6.726   9.401   1.272 -1.3190  0.2052 -1.0308
   10MOL0     H 1297   6.549   9.582   1.254 -1.5921 -1.1355  2.0094
   10MOL0     H 1298   6.546   9.472   1.108  1.0858  0.1325 -0.9447
   10MOL0     H 1299   6.360   9.448   1.353  0.0110 -4.5625 -0.0585
   10MOL0     H 1300   6.351   9.366   1.199  1.7290 -0.5742 -0.9491
   10MOL0     H 1301   6.174   9.496   1.064 -0.8231  0.4421  0.4334
   10MOL0     H 1302   6.022   9.851   1.034  0.6256  0.2719 -0.0098
   10MOL0     H 1303   6.071   9.711   0.934 -2.6868 -1.7211 -0.0313
   10MOL0     H 1304   5.833   9.749   1.095 -0.1819 -0.2449  1.5159
   10MOL0     H 1305   5.918   9.611   1.162 -4.9599 -0.5902  0.2410
   10MOL0     H 1306   5.920   9.497   0.964  0.2215 -0.1688  4.6681
   10MOL0     H 1307   5.843   9.638   0.883  0.6488  0.1935  0.4136
   10MOL0     H 1308   5.690   9.548   1.114 -1.6552 -1.7691 -0.0125
   10MOL0     H 1309   5.692   9.427   0.983 -2.0379  0.2729 -0.5137
   10MOL0     H 1310   5.431   9.739   0.793  2.3677 -1.8221 -0.9414
   10MOL0     H 1311   5.222   9.817   0.702 -1.7344  0.9123 -0.7617
   10MOL0     H 1312   5.116   9.682   0.666 -3.4631  3.7639  0.3162
   10MOL0     H 1313   5.092   9.768   0.819 -1.2634 -1.1897  0.1679
   10MOL0     H 1314   4.807   9.579   0.994  1.3016 -1.1880 -1.9939
   10MOL0     H 1315   4.576   9.543   1.039 -0.7091 -1.0037 -1.2510
   10MOL0     H 1316   4.375   9.460   1.190 -1.9635  0.7108 -0.1756
   10MOL0     H 1317   4.392   9.460   1.014 -2.3421  1.7536 -0.0815
   10MOL0     H 1318   4.229   9.316   0.981  3.3405 -0.3626  0.9256
   10MOL0     H 1319   4.190   9.294   1.158  0.6178  0.7113  0.0220
   10MOL0     H 1320   4.194   9.568   1.035  0.0548 -0.1854  0.4537
   10MOL0     H 1321   4.161   9.535   1.200 -0.5807  0.9860  0.0960
   10MOL0     H 1322   4.007   9.459   0.939 -0.8959  0.1768  0.1393
   10MOL0     H 1323   3.963   9.376   1.084  0.8642  0.5461  1.8937
   10MOL0     H 1324   3.952   9.673   1.036  2.0224 -0.9394 -2.1403
   10MOL0     H 1325   3.942   9.603   1.199 -0.0063  1.3508 -0.5108
   10MOL0     H 1326   3.755   9.565   0.963 -2.0366  1.2774 -0.1814
   10MOL0     H 1327   3.754   9.457   1.105  2.6699 -0.8602 -0.3817
   10MOL0     H 1328   3.734   9.689   1.248  0.3654  1.3582 -1.2239
   10MOL0     H 1329   3.588   9.611   1.163 -0.8132  0.2410 -3.6301
   10MOL0     H 1330   3.598   9.773   0.993 -1.5076 -0.1552  0.6399
   10MOL0     H 1331   3.749   9.850   1.052 -0.5791  1.1199 -1.2433
   10MOL0     H 1332   4.678   9.121   1.113  2.6118  0.2615  2.1699
   10MOL0     H 1333   4.904   9.163   1.072  2.0212  0.8838 -0.7725
   10MOL0     H 1334   5.255   9.345   1.011  1.7072 -0.8704 -2.9979
   10MOL0     H 1335   5.478   9.405   1.053  3.1552  2.9761  0.2162
   10MOL0     H 1336   6.627   8.802   1.715  0.6148 -2.5201 -1.4533
   10MOL0     H 1337   6.452   8.642   1.770 -1.7098 -0.0379 -0.3772
   10MOL0     H 1338   6.026   8.631   2.071 -0.6134  1.0856 -0.3910
   10MOL0     H 1339   5.842   8.491   2.157 -3.5422 -0.6926 -2.4201
   10MOL0     H 1340   5.798   8.281   2.242 -0.1714  0.9239  1.2149
   10MOL0     H 1341   5.646   8.342   2.191 -2.6951 -2.7038  0.8210
   10MOL0     H 1342   5.693   8.053   2.248  1.6422  1.8084  1.1311
   10MOL0     H 1343   5.570   8.110   2.131  0.2516 -0.5858 -0.7368
   10MOL0     H 1344   5.453   8.224   2.288 -1.9594  0.2968  2.1238
   10MOL0     H 1345   5.582   8.203   2.414  1.9039 -0.9110 -1.0930
   10MOL0     H 1346   5.411   8.042   2.472  1.3743  2.8455  0.5954
   10MOL0     H 1347   5.541   7.946   2.404 -3.0016 -4.4180 -2.2550
   10MOL0     H 1348   5.234   7.879   2.117 -1.1232  1.7130 -0.0023
   10MOL0     H 1349   5.908   8.221   1.822  0.2013 -0.8030  2.1809
   10MOL0     H 1350   6.104   8.359   1.756  1.6992  0.5813  1.3167
   11MOL0     O 1351  11.217   2.778   3.475  1.0016  0.0964  0.2704
   11MOL0     C 1352  11.266   2.889   3.497 -1.1790 -0.0175  0.9012
   11MOL0     O 1353  11.200   3.012   3.476 -0.1170 -0.0156 -0.2393
   11MOL0     C 1354  11.083   3.016   3.417 -0.4888  0.6441 -0.1715
   11MOL0     C 1355  11.054   3.119   3.316 -0.1199  0.8462 -0.4273
   11MOL0     C 1356  10.936   3.147   3.258  0.3149  0.8484  0.0181
   11MOL0     C 1357  10.831   3.066   3.293 -0.2257  0.7730 -0.6904
   11MOL0     O 1358  10.705   3.089   3.249 -0.7103 -0.3120  0.7683
   11MOL0     C 1359  10.675   3.117   3.110 -0.5121  0.5366 -0.3917
   11MOL0     C 1360  10.686   2.998   3.013  0.1359 -0.7689 -0.0441
   11MOL0     C 1361  10.637   3.033   2.870 -0.2058 -0.2853  0.5241
   11MOL0     C 1362  10.478   3.021   2.859  0.1212 -0.2510  0.0861
   11MOL0     C 1363  10.424   3.034   2.718  0.0078  0.4281 -0.0669
   11MOL0     C 1364  10.274   3.025   2.743  0.7001 -0.6214 -0.4815
   11MOL0     C 1365  10.200   3.077   2.620 -0.3172 -0.2889  0.3735
   11MOL0     C 1366  10.188   3.225   2.601  0.1549 -0.0787  0.7365
   11MOL0     N 1367  10.048   3.281   2.620  0.7920  0.3045  0.4782
   11MOL0     C 1368   9.935   3.237   2.545 -0.3871  0.5982 -0.1031
   11MOL0     C 1369   9.830   3.293   2.612 -0.2227  0.0796  0.2156
   11MOL0     C 1370   9.683   3.280   2.594 -0.4561 -0.2035 -1.4411
   11MOL0     C 1371   9.598   3.237   2.716  0.0605  0.7411 -0.2594
   11MOL0     C 1372   9.457   3.203   2.677  0.1992  0.4919 -0.1629
   11MOL0     C 1373   9.376   3.174   2.801  0.6328 -0.1719  0.0529
   11MOL0     O 1374   9.253   3.119   2.748 -0.2376 -0.1052  0.2228
   11MOL0     C 1375   9.131   3.162   2.797 -0.3826  0.4908  0.4152
   11MOL0     C 1376   9.017   3.128   2.717  0.9662 -0.0401 -0.0201
   11MOL0     C 1377   8.896   3.170   2.760  0.2589 -0.4955 -0.0874
   11MOL0     C 1378   8.769   3.165   2.674  0.1077 -0.5294 -0.1544
   11MOL0     C 1379   8.880   3.228   2.884 -0.2995 -0.3044 -0.4600
   11MOL0     C 1380   8.752   3.263   2.940 -0.2019  0.2908  0.8309
   11MOL0     O 1381   8.657   3.173   2.939  1.0536  0.0127  0.2409
   11MOL0     C 1382   8.546   3.192   3.018 -0.1859  0.6856  0.4389
   11MOL0     C 1383   8.423   3.139   2.969  0.3179 -0.0085  0.0073
   11MOL0     C 1384   8.304   3.135   3.038 -0.1790  0.3547  0.1840
   11MOL0     C 1385   8.293   3.198   3.158 -0.0482 -0.2330  0.3271
   11MOL0     O 1386   8.173   3.198   3.219  0.3356  0.3858 -0.1284
   11MOL0     C 1387   8.149   3.258   3.343  0.2646 -0.4833 -0.2918
   11MOL0     C 1388   7.996   3.238   3.372  0.1042 -0.7533  0.7526
   11MOL0     C 1389   7.957   3.098   3.385  0.1144  0.2785  0.8828
   11MOL0     C 1390   7.825   3.077   3.451 -0.7425  0.4223 -0.2729
   11MOL0     C 1391   7.782   2.933   3.460 -0.8253 -0.1596  1.1295
   11MOL0     C 1392   7.632   2.915   3.492  0.8446  0.1401  0.0032
   11MOL0     C 1393   7.601   2.763   3.517 -0.5417  0.2620  0.0915
   11MOL0     C 1394   7.472   2.739   3.594  0.7010 -1.0466 -0.0503
   11MOL0    Cl 1395   7.332   2.820   3.503  0.0536  0.0883 -0.2229
   11MOL0     C 1396   8.412   3.253   3.208 -0.3167 -0.2222  0.1512
   11MOL0     C 1397   8.538   3.255   3.145 -0.2154 -0.0189  0.3042
   11MOL0     O 1398   8.744   3.375   2.981 -0.6300  0.3378  0.3773
   11MOL0     C 1399   8.990   3.241   2.968  0.0308  0.2128 -0.4901
   11MOL0     C 1400   9.119   3.209   2.928 -0.3450 -1.5841 -0.0871
   11MOL0     N 1401   9.885   3.390   2.690  0.9326  0.6743 -0.7138
   11MOL0     N 1402  10.010   3.384   2.696 -0.0380  0.0021 -0.2159
   11MOL0     C 1403  10.851   2.957   3.383  0.1035  1.2036 -0.4500
   11MOL0     C 1404  10.975   2.933   3.449 -0.0447  0.5675 -0.7354
   11MOL0     C 1405  11.412   2.902   3.532  0.6482 -0.2312 -0.9355
   11MOL0     C 1406  11.474   3.026   3.557  0.7435  0.9226  0.4003
   11MOL0     C 1407  11.610   3.030   3.590  0.1086 -0.3320 -0.6535
   11MOL0     C 1408  11.678   2.913   3.618 -1.0242 -0.0709  0.0067
   11MOL0     O 1409  11.814   2.930   3.656  0.0790 -0.4724  0.0302
   11MOL0     C 1410  11.892   2.815   3.695  0.5195 -0.5337 -0.2972
   11MOL0     C 1411  11.975   2.758   3.575 -0.0568  0.2309  0.3074
   11MOL0     C 1412  12.061   2.868   3.512  0.9353 -0.0433 -0.7337
   11MOL0     C 1413  12.184   2.910   3.593  0.8990  0.2938  0.1017
   11MOL0     C 1414  12.255   3.010   3.518  0.4728  0.1849  0.0173
   11MOL0     C 1415  12.306   3.100   3.462 -1.2202  0.1252 -0.2183
   11MOL0     C 1416  11.613   2.789   3.603 -0.5120  0.7197 -0.1458
   11MOL0     C 1417  11.478   2.784   3.564 -0.2383 -0.8143 -0.1154
   11MOL0     H 1418  11.138   3.182   3.288 -0.6743  3.0227  2.3425
   11MOL0     H 1419  10.929   3.229   3.187  0.6433  2.7368  2.0644
   11MOL0     H 1420  10.569   3.144   3.098 -0.4598  0.8640 -0.1411
   11MOL0     H 1421  10.736   3.203   3.078 -1.2066  1.3024  0.2983
   11MOL0     H 1422  10.793   2.976   3.011  0.2827 -0.0434 -0.2871
   11MOL0     H 1423  10.645   2.906   3.056 -0.4843 -1.1680 -1.4465
   11MOL0     H 1424  10.687   3.120   2.827 -1.7580  1.4483  2.0608
   11MOL0     H 1425  10.677   2.955   2.804  2.0664  0.5611  0.8386
   11MOL0     H 1426  10.457   2.922   2.901  1.5278 -0.1462  1.1139
   11MOL0     H 1427  10.425   3.091   2.924 -0.0172 -2.1173  2.1237
   11MOL0     H 1428  10.439   3.127   2.662  0.1760  0.4211 -0.0348
   11MOL0     H 1429  10.451   2.955   2.648  0.3499 -0.1372  0.6952
   11MOL0     H 1430  10.244   2.922   2.764  1.2625 -0.4305  1.4277
   11MOL0     H 1431  10.241   3.089   2.826 -0.0162  0.8524 -1.8491
   11MOL0     H 1432  10.225   3.022   2.529  1.1632 -0.5020  0.8776
   11MOL0     H 1433  10.101   3.033   2.636 -0.0842 -0.9731 -0.0058
   11MOL0     H 1434  10.220   3.251   2.500 -0.1564 -0.2907  0.5806
   11MOL0     H 1435  10.255   3.276   2.671 -0.1840  0.7600  0.4653
   11MOL0     H 1436   9.939   3.158   2.471 -0.0453  2.9630 -2.7366
   11MOL0     H 1437   9.636   3.373   2.559 -0.4510 -0.3962 -1.9558
   11MOL0     H 1438   9.656   3.204   2.521 -0.3570 -3.1028  1.3268
   11MOL0     H 1439   9.596   3.320   2.787  0.5223  1.8288 -1.4709
   11MOL0     H 1440   9.637   3.150   2.769 -2.2109 -0.5974 -0.6649
   11MOL0     H 1441   9.445   3.113   2.617 -0.0204 -0.8410  1.7949
   11MOL0     H 1442   9.402   3.285   2.630 -0.8103  0.4009  0.8210
   11MOL0     H 1443   9.361   3.274   2.843 -2.4838 -0.1612 -0.8897
   11MOL0     H 1444   9.410   3.097   2.870 -0.7548 -0.7170  0.1536
   11MOL0     H 1445   9.025   3.074   2.623 -0.2226  0.7294 -0.5989
   11MOL0     H 1446   8.710   3.257   2.680  0.0345 -0.2504 -3.4321
   11MOL0     H 1447   8.796   3.149   2.569  1.8240  0.2905  0.1198
   11MOL0     H 1448   8.712   3.080   2.712  1.9174 -0.0698  4.1537
   11MOL0     H 1449   8.419   3.085   2.875  0.5539 -1.0112  0.5607
   11MOL0     H 1450   8.218   3.082   2.999  0.7429 -0.5140 -0.7278
   11MOL0     H 1451   8.206   3.204   3.419  2.0173  0.4116 -0.9176
   11MOL0     H 1452   8.183   3.362   3.336  1.5150 -0.9134 -1.0964
   11MOL0     H 1453   7.975   3.283   3.469  1.1951  3.1105 -0.6236
   11MOL0     H 1454   7.943   3.294   3.294  3.5135 -1.1376 -2.0936
   11MOL0     H 1455   8.034   3.040   3.437 -0.9688 -0.3277  1.8648
   11MOL0     H 1456   7.966   3.050   3.287  1.1205 -1.8682  1.9552
   11MOL0     H 1457   7.842   3.119   3.551  0.1008 -0.8896  0.1622
   11MOL0     H 1458   7.750   3.134   3.395  0.0173 -1.1773 -3.1264
   11MOL0     H 1459   7.847   2.880   3.530 -0.1173 -0.9170 -0.0728
   11MOL0     H 1460   7.807   2.889   3.363 -2.3115  0.5266  0.3983
   11MOL0     H 1461   7.626   2.965   3.589  0.1562  0.6545 -0.2999
   11MOL0     H 1462   7.561   2.961   3.423 -0.7800  1.2405  2.2916
   11MOL0     H 1463   7.679   2.708   3.570 -2.0425 -1.9749  0.1155
   11MOL0     H 1464   7.589   2.713   3.421 -0.6549 -2.0541  1.2459
   11MOL0     H 1465   7.473   2.793   3.689  0.0486 -5.4482  2.7306
   11MOL0     H 1466   7.451   2.637   3.627 -0.4264 -0.7612  0.1400
   11MOL0     H 1467   8.412   3.306   3.303  1.8159 -0.3174  0.2579
   11MOL0     H 1468   8.621   3.304   3.194 -0.0363  1.3059 -1.2102
   11MOL0     H 1469   8.969   3.294   3.061  2.3290 -1.4402  1.0972
   11MOL0     H 1470   9.208   3.232   2.985 -1.4018  0.2834  0.8891
   11MOL0     H 1471  10.767   2.896   3.414  1.1818 -0.1857 -0.1568
   11MOL0     H 1472  10.985   2.865   3.533  3.2152  4.0630  2.0480
   11MOL0     H 1473  11.420   3.115   3.525 -1.3351 -0.3709  0.1437
   11MOL0     H 1474  11.661   3.122   3.619 -1.5268  0.4243 -0.0580
   11MOL0     H 1475  11.967   2.844   3.768  1.3230 -3.1410  0.0111
   11MOL0     H 1476  11.828   2.743   3.747  1.9880 -0.1175  2.2593
   11MOL0     H 1477  11.904   2.730   3.496 -0.1268 -0.1951  0.5194
   11MOL0     H 1478  12.036   2.671   3.600 -0.4076  0.8256  3.6660
   11MOL0     H 1479  11.994   2.952   3.490 -0.0295 -0.9539 -1.4110
   11MOL0     H 1480  12.084   2.834   3.410 -1.0458  1.7190 -1.8655
   11MOL0     H 1481  12.252   2.825   3.601 -0.2334 -0.8207 -1.6887
   11MOL0     H 1482  12.152   2.946   3.691 -0.6965  3.3565 -1.3986
   11MOL0     H 1483  12.356   3.180   3.412  0.4290  0.6181  2.0892
   11MOL0     H 1484  11.668   2.700   3.629  0.9692  1.4942 -0.5081
   11MOL0     H 1485  11.432   2.686   3.567  1.3380 -1.5478  1.6824
   12MOL0     O 1486   2.220   9.884  10.833 -0.3124 -0.0357 -0.4388
   12MOL0     C 1487   2.265   9.999  10.840 -0.4353  0.3015 -0.5460
   12MOL0     O 1488   2.201  10.119  10.835  0.4625  0.2572 -0.6752
   12MOL0     C 1489   2.062  10.107  10.823 -0.2350  0.6763  1.0255
   12MOL0     C 1490   1.978  10.069  10.927  0.1892  0.0516 -0.1486
   12MOL0     C 1491   1.838  10.070  10.919 -0.1293  0.3820 -0.2510
   12MOL0     C 1492   1.773  10.108  10.800 -0.0796 -0.0608 -0.5685
   12MOL0     O 1493   1.642  10.097  10.800 -0.3013  0.5214  0.1388
   12MOL0     C 1494   1.578  10.221  10.753  0.1616  0.4728  0.2983
   12MOL0     C 1495   1.432  10.209  10.774 -0.1049  0.3979  0.4209
   12MOL0     C 1496   1.402  10.161  10.916  0.2601  0.1636 -0.1177
   12MOL0     C 1497   1.261  10.182  10.964  0.6840  0.1758 -0.4299
   12MOL0     C 1498   1.231  10.132  11.101  0.7856  0.1084  0.3496
   12MOL0     C 1499   1.089  10.171  11.143  0.4532  0.4880 -0.0324
   12MOL0     C 1500   1.077  10.154  11.296 -0.4465 -0.2964  0.1826
   12MOL0     C 1501   0.938  10.163  11.349 -0.3756 -0.6601 -0.1318
   12MOL0     N 1502   0.856  10.279  11.303  0.3004  0.3885  0.1157
   12MOL0     C 1503   0.879  10.412  11.335 -0.1656  0.0078  0.6651
   12MOL0     C 1504   0.791  10.491  11.265 -0.2408  0.8143 -1.2323
   12MOL0     C 1505   0.778  10.639  11.271  0.2801 -0.1154  0.2788
   12MOL0     C 1506   0.630  10.679  11.285 -0.6213  0.2926 -0.8698
   12MOL0     C 1507   0.596  10.690  11.434  0.9611 -0.3130  0.4056
   12MOL0     C 1508   0.442  10.713  11.450 -0.2280 -0.5220  0.0121
   12MOL0     O 1509   0.410  10.780  11.570 -0.7620  0.0204 -0.1438
   12MOL0     C 1510   0.276  10.796  11.591  0.0765  0.3106  0.1365
   12MOL0     C 1511   0.232  10.854  11.705  0.2306  0.1212  0.2650
   12MOL0     C 1512   0.093  10.889  11.713 -0.2846 -0.4011  0.1285
   12MOL0     C 1513   0.074  10.977  11.840 -0.5057 -0.3020  1.0900
   12MOL0     C 1514  -0.004  10.873  11.607 -0.2279  0.1515  0.1607
   12MOL0     C 1515  -0.148  10.907  11.625 -0.1301  0.2010 -1.3964
   12MOL0     O 1516  -0.229  10.907  11.517  0.1673 -0.6328 -0.3597
   12MOL0     C 1517  -0.364  10.914  11.533  0.5048 -1.0559  0.9054
   12MOL0     C 1518  -0.441  10.820  11.609 -0.1288 -0.6006  0.3653
   12MOL0     C 1519  -0.578  10.813  11.595  0.9306  0.4479 -0.2399
   12MOL0     C 1520  -0.651  10.904  11.506 -0.2482 -0.3619  1.0773
   12MOL0     O 1521  -0.788  10.909  11.491  0.1414 -0.4622 -0.5425
   12MOL0     C 1522  -0.860  10.828  11.587 -0.5855 -0.9896 -0.5114
   12MOL0     C 1523  -1.010  10.859  11.571  1.4875 -0.0624 -0.5248
   12MOL0     C 1524  -1.040  10.987  11.650 -0.6414 -0.6031 -0.2306
   12MOL0     C 1525  -1.186  11.035  11.618 -0.4254  0.5355  0.1856
   12MOL0     C 1526  -1.230  11.172  11.668  0.4161 -0.2318 -0.6119
   12MOL0     C 1527  -1.191  11.195  11.822 -0.3834 -0.2500  0.5020
   12MOL0     C 1528  -1.267  11.317  11.872 -0.2292  0.4131  0.1829
   12MOL0     C 1529  -1.200  11.349  12.015  0.3127  0.3208  0.6818
   12MOL0    Cl 1530  -1.194  11.198  12.122  0.2222  0.0118 -0.0959
   12MOL0     C 1531  -0.573  10.991  11.432  0.2967 -0.3524  0.5708
   12MOL0     C 1532  -0.433  10.993  11.438  0.6023 -0.9661  0.1674
   12MOL0     O 1533  -0.180  10.915  11.743  0.2394  0.0156 -0.0064
   12MOL0     C 1534   0.050  10.805  11.495 -0.0058  0.4833 -0.2772
   12MOL0     C 1535   0.182  10.761  11.488  0.6460  0.2869 -0.1562
   12MOL0     N 1536   0.724  10.404  11.182 -0.6300 -0.1435  0.3313
   12MOL0     N 1537   0.763  10.282  11.208 -0.6617  0.2249 -0.2946
   12MOL0     C 1538   1.859  10.138  10.694  0.2905  0.5887 -0.0957
   12MOL0     C 1539   1.999  10.138  10.705  0.1808  0.2719  0.8285
   12MOL0     C 1540   2.413  10.003  10.868 -0.3277  0.9290  1.2264
   12MOL0     C 1541   2.488   9.888  10.873 -0.2309 -0.1242 -0.4353
   12MOL0     C 1542   2.629   9.892  10.899  0.0476  0.7437 -0.5060
   12MOL0     C 1543   2.696  10.011  10.922 -0.8318 -0.8626  1.0112
   12MOL0     O 1544   2.831  10.023  10.957  0.1909 -0.5535 -0.6128
   12MOL0     C 1545   2.878   9.915  11.041 -0.0449 -0.1455 -0.3976
   12MOL0     C 1546   2.970   9.824  10.958 -0.4669 -0.2050 -0.2173
   12MOL0     C 1547   3.071   9.746  11.043  0.3547  0.4467 -0.6377
   12MOL0     C 1548   3.014   9.639  11.151  0.1583 -0.0489  0.3787
   12MOL0     C 1549   3.122   9.551  11.200 -0.7905  0.8203  0.2706
   12MOL0     C 1550   3.218   9.489  11.243 -1.3508  0.8593 -0.2778
   12MOL0     C 1551   2.616  10.124  10.921 -0.3822  0.4953 -0.7507
   12MOL0     C 1552   2.478  10.126  10.892 -0.5326  0.1546 -0.9693
   12MOL0     H 1553   2.023  10.032  11.018 -2.9830 -2.4593  0.5970
   12MOL0     H 1554   1.791  10.034  11.010  0.7127  0.4747  0.2274
   12MOL0     H 1555   1.608  10.316  10.798 -0.4688  1.0542 -0.4756
   12MOL0     H 1556   1.601  10.238  10.647 -3.4712 -2.0460 -1.0952
   12MOL0     H 1557   1.381  10.302  10.749 -1.5402 -0.1201  1.3191
   12MOL0     H 1558   1.392  10.139  10.700  1.6004 -0.8815  0.6230
   12MOL0     H 1559   1.431  10.056  10.921  1.1618  0.3928 -0.2482
   12MOL0     H 1560   1.466  10.206  10.993  0.5111  0.4993 -0.5159
   12MOL0     H 1561   1.252  10.291  10.961 -1.7790  0.0515 -3.6986
   12MOL0     H 1562   1.194  10.133  10.893 -1.6747  0.8042  1.2319
   12MOL0     H 1563   1.251  10.025  11.111 -1.0572 -0.1137  2.7696
   12MOL0     H 1564   1.305  10.187  11.160 -0.9451  1.2574  1.5498
   12MOL0     H 1565   1.078  10.278  11.121 -0.5092  0.3657 -0.1735
   12MOL0     H 1566   1.016  10.118  11.081 -1.3576  1.9576  0.7556
   12MOL0     H 1567   1.123  10.055  11.306  1.9597  0.7663  0.3412
   12MOL0     H 1568   1.142  10.219  11.354  3.1290 -1.9505 -1.6481
   12MOL0     H 1569   0.947  10.167  11.458  2.3681  3.2182 -0.2894
   12MOL0     H 1570   0.883  10.078  11.308 -2.7420  0.0333  1.3346
   12MOL0     H 1571   0.954  10.447  11.406  0.6468 -0.4697  0.0580
   12MOL0     H 1572   0.848  10.681  11.345  0.8360 -0.2033 -0.1901
   12MOL0     H 1573   0.819  10.680  11.177  0.4933 -0.9546 -0.0007
   12MOL0     H 1574   0.553  10.612  11.247 -0.5501  0.9776 -2.2872
   12MOL0     H 1575   0.621  10.776  11.236 -0.8483  0.4425 -0.5277
   12MOL0     H 1576   0.646  10.779  11.474  1.2926 -0.9555  1.4578
   12MOL0     H 1577   0.625  10.596  11.481  0.3744 -1.3109 -1.1628
   12MOL0     H 1578   0.399  10.613  11.451 -2.0552  0.1394  3.0559
   12MOL0     H 1579   0.395  10.760  11.362 -2.6092  0.1595  1.5355
   12MOL0     H 1580   0.294  10.884  11.789 -2.3027  0.9291  1.9521
   12MOL0     H 1581   0.007  11.062  11.823  1.1451  0.8390 -0.1759
   12MOL0     H 1582   0.039  10.911  11.920  0.0743 -1.2761  0.5597
   12MOL0     H 1583   0.170  11.012  11.880  0.3702 -2.0088  0.5680
   12MOL0     H 1584  -0.386  10.754  11.676  1.5081 -0.6817 -0.9767
   12MOL0     H 1585  -0.631  10.741  11.656  0.3129 -0.9849 -2.3590
   12MOL0     H 1586  -0.836  10.728  11.549  2.7241 -0.6845  0.4270
   12MOL0     H 1587  -0.829  10.853  11.689  2.4698  1.2798 -1.8349
   12MOL0     H 1588  -1.048  10.858  11.469 -0.4182 -2.5108  0.0859
   12MOL0     H 1589  -1.067  10.779  11.622  0.6481  0.6561 -0.3062
   12MOL0     H 1590  -0.966  11.060  11.616 -1.6051 -0.3518 -1.8465
   12MOL0     H 1591  -1.038  10.960  11.756 -1.5426 -2.5961 -0.6782
   12MOL0     H 1592  -1.198  11.027  11.509 -0.7233  0.4034  0.2266
   12MOL0     H 1593  -1.250  10.957  11.661 -0.7821  0.0137 -1.2240
   12MOL0     H 1594  -1.338  11.182  11.653  0.3056 -0.1125  0.2106
   12MOL0     H 1595  -1.177  11.253  11.617 -1.4538  1.1386 -0.4964
   12MOL0     H 1596  -1.233  11.118  11.888 -1.0054  0.0480  0.4652
   12MOL0     H 1597  -1.084  11.196  11.845 -0.4561 -2.9861  1.3577
   12MOL0     H 1598  -1.373  11.293  11.886  0.2071 -2.3954 -0.6015
   12MOL0     H 1599  -1.257  11.400  11.802  0.1959  1.9050  1.9313
   12MOL0     H 1600  -1.261  11.425  12.063 -2.8221  0.0558 -2.4857
   12MOL0     H 1601  -1.100  11.389  12.000 -0.6942  1.6962 -3.5422
   12MOL0     H 1602  -0.641  11.054  11.376 -3.3366 -2.7670  1.9584
   12MOL0     H 1603  -0.382  11.061  11.370 -0.1879 -1.3174 -0.8069
   12MOL0     H 1604  -0.014  10.778  11.411  0.3014 -2.3736  0.2982
   12MOL0     H 1605   0.203  10.701  11.400 -0.2852 -0.3516  0.0435
   12MOL0     H 1606   1.812  10.164  10.599 -1.8632 -0.2571  0.6663
   12MOL0     H 1607   2.053  10.164  10.614 -0.9522 -1.6200 -0.4594
   12MOL0     H 1608   2.437   9.796  10.850 -1.1266  0.0212  0.8335
   12MOL0     H 1609   2.684   9.799  10.902 -0.7544  0.2822  1.2382
   12MOL0     H 1610   2.944   9.953  11.120  0.0918 -0.6490 -0.2644
   12MOL0     H 1611   2.800   9.869  11.102  0.1442  2.0533  1.6622
   12MOL0     H 1612   3.015   9.897  10.890 -2.8780  2.9068  1.2458
   12MOL0     H 1613   2.918   9.746  10.901 -1.4009  0.5038 -0.3504
   12MOL0     H 1614   3.139   9.812  11.097  1.9797 -1.7842  0.1850
   12MOL0     H 1615   3.135   9.685  10.978  0.4419  0.6844 -0.7717
   12MOL0     H 1616   2.932   9.578  11.112  0.1933 -0.7261  1.3368
   12MOL0     H 1617   2.976   9.703  11.231  1.9146  0.1609  1.1035
   12MOL0     H 1618   3.281   9.422  11.298 -1.8351 -0.4644 -1.2894
   12MOL0     H 1619   2.662  10.219  10.949  0.5179 -0.8246  2.8635
   12MOL0     H 1620   2.426  10.221  10.883  2.4634  1.8559 -1.4195
   13MOL0     O 1621   7.854   2.777   4.293  0.1196 -0.5854 -0.4815
   13MOL0     C 1622   7.956   2.780   4.230 -0.0463 -1.1939  0.6740
   13MOL0     O 1623   7.966   2.732   4.096 -0.0103 -0.0452 -0.1763
   13MOL0     C 1624   7.870   2.649   4.059  0.9293  0.0434 -0.9202
   13MOL0     C 1625   7.866   2.514   4.087 -0.2816 -0.6276  0.2915
   13MOL0     C 1626   7.771   2.430   4.026 -1.2342 -0.5900 -0.0106
   13MOL0     C 1627   7.668   2.482   3.944  0.6044 -0.2051 -0.4423
   13MOL0     O 1628   7.567   2.410   3.883  0.1148 -0.3416 -0.0815
   13MOL0     C 1629   7.531   2.282   3.931  0.6347 -0.0670  0.0984
   13MOL0     C 1630   7.424   2.222   3.839 -0.9648  0.3246 -0.2695
   13MOL0     C 1631   7.352   2.117   3.924  1.0539 -1.1944 -0.1252
   13MOL0     C 1632   7.261   2.044   3.821 -0.7668 -0.5979 -1.1727
   13MOL0     C 1633   7.143   1.978   3.884 -0.2632 -0.1183 -0.4679
   13MOL0     C 1634   7.166   1.872   3.989  0.1399  0.8340 -0.3973
   13MOL0     C 1635   7.036   1.806   4.036 -0.1443 -0.5181 -0.3435
   13MOL0     C 1636   6.973   1.872   4.163 -0.6945 -0.7634 -0.1842
   13MOL0     N 1637   6.843   1.930   4.149  0.5490 -0.9456 -0.6058
   13MOL0     C 1638   6.810   2.030   4.065 -0.0804 -0.2974  0.4047
   13MOL0     C 1639   6.682   2.057   4.094  0.8671 -0.3792 -0.0272
   13MOL0     C 1640   6.599   2.168   4.026 -0.3258  0.6154  0.6385
   13MOL0     C 1641   6.581   2.158   3.882  1.1268  0.6131  1.0682
   13MOL0     C 1642   6.512   2.285   3.826 -0.6903  0.2107  0.4038
   13MOL0     C 1643   6.366   2.301   3.848  0.4163 -0.1071 -0.5564
   13MOL0     O 1644   6.287   2.200   3.791  0.3495 -0.1351 -0.0585
   13MOL0     C 1645   6.147   2.196   3.792  0.1491  0.1828  0.3627
   13MOL0     C 1646   6.091   2.099   3.723  0.1081  0.9542 -0.5387
   13MOL0     C 1647   5.949   2.084   3.706  0.3796  0.3018  0.1736
   13MOL0     C 1648   5.899   1.949   3.652 -0.2597 -0.1544  0.0648
   13MOL0     C 1649   5.869   2.194   3.743 -0.8439 -0.0616 -0.8583
   13MOL0     C 1650   5.731   2.206   3.705  0.2584 -0.3246 -0.4984
   13MOL0     O 1651   5.655   2.314   3.742  0.4682  0.3890  0.0916
   13MOL0     C 1652   5.539   2.334   3.675  0.5369 -0.1081 -0.0913
   13MOL0     C 1653   5.537   2.386   3.549  0.9475 -0.5213  0.7069
   13MOL0     C 1654   5.415   2.412   3.481  0.5750  0.1708 -0.2657
   13MOL0     C 1655   5.287   2.371   3.532  0.5208  0.2049 -0.5955
   13MOL0     O 1656   5.162   2.392   3.477  0.3273  0.0654 -0.0114
   13MOL0     C 1657   5.150   2.469   3.355  0.5265  0.2796  0.2654
   13MOL0     C 1658   5.011   2.451   3.302  0.6229 -0.2298  0.2128
   13MOL0     C 1659   4.917   2.517   3.402  0.0751 -0.3259  0.6322
   13MOL0     C 1660   4.889   2.668   3.375  0.5211 -0.3534  0.4151
   13MOL0     C 1661   4.767   2.721   3.453 -0.3175 -0.2447  0.3053
   13MOL0     C 1662   4.753   2.869   3.430  0.3590 -0.9196 -0.6275
   13MOL0     C 1663   4.632   2.928   3.496  0.0800 -0.5217 -0.3214
   13MOL0     C 1664   4.625   3.083   3.475 -0.2799 -0.9191  0.3881
   13MOL0    Cl 1665   4.582   3.109   3.305 -0.3436 -0.2546  0.0055
   13MOL0     C 1666   5.298   2.323   3.661 -0.4712  0.0335  0.2095
   13MOL0     C 1667   5.415   2.308   3.736  0.2771  0.3285  0.5832
   13MOL0     O 1668   5.678   2.123   3.638  0.4304  0.1396  0.2731
   13MOL0     C 1669   5.929   2.309   3.799  0.0023  0.5438 -0.6863
   13MOL0     C 1670   6.067   2.306   3.826 -0.7439 -0.4691  0.3580
   13MOL0     N 1671   6.636   1.976   4.199 -0.4361 -0.1807  0.0795
   13MOL0     N 1672   6.729   1.898   4.223  0.0646 -0.5747  0.2423
   13MOL0     C 1673   7.666   2.623   3.934 -0.5625  0.4857  0.5872
   13MOL0     C 1674   7.765   2.700   3.985  0.8059 -0.1285 -0.1043
   13MOL0     C 1675   8.081   2.831   4.277  0.0364 -0.3918 -0.0279
   13MOL0     C 1676   8.080   2.877   4.409 -0.3022  0.2877 -0.2199
   13MOL0     C 1677   8.195   2.934   4.465  0.3544  0.4578  1.4221
   13MOL0     C 1678   8.321   2.939   4.393  0.1642 -0.4923  0.4744
   13MOL0     O 1679   8.446   2.973   4.435  0.4726 -0.4919  0.0255
   13MOL0     C 1680   8.456   2.998   4.578  0.2672 -0.0950 -0.0291
   13MOL0     C 1681   8.606   3.012   4.625  0.3896 -0.3258 -0.1405
   13MOL0     C 1682   8.679   2.884   4.599 -0.4179  0.5767  0.1221
   13MOL0     C 1683   8.836   2.885   4.638  0.5463  0.0776 -0.4947
   13MOL0     C 1684   8.852   2.900   4.778  0.4165 -0.0061 -0.7367
   13MOL0     C 1685   8.867   2.921   4.896 -0.5973  0.2006 -0.7945
   13MOL0     C 1686   8.311   2.898   4.256 -0.5553 -0.1190 -0.5288
   13MOL0     C 1687   8.193   2.846   4.203 -0.5990 -0.6199  0.1146
   13MOL0     H 1688   7.938   2.464   4.151 -0.6938 -1.4568  0.1215
   13MOL0     H 1689   7.775   2.323   4.044 -1.7023 -1.0188 -2.1329
   13MOL0     H 1690   7.606   2.202   3.940 -1.2058 -1.7758  0.9092
   13MOL0     H 1691   7.493   2.301   4.032  2.1524  0.4269  0.6120
   13MOL0     H 1692   7.347   2.287   3.797 -0.3826  1.7162  0.7446
   13MOL0     H 1693   7.474   2.167   3.757  0.6515 -0.7797  1.3694
   13MOL0     H 1694   7.420   2.055   3.982  2.5678 -0.1109 -0.6947
   13MOL0     H 1695   7.282   2.170   3.990 -1.0942 -1.8869 -1.7085
   13MOL0     H 1696   7.227   2.108   3.740 -2.2869 -1.8378 -1.5713
   13MOL0     H 1697   7.322   1.963   3.782 -0.7340 -0.4275 -1.4820
   13MOL0     H 1698   7.071   2.058   3.905  0.3934  0.0751  1.1956
   13MOL0     H 1699   7.099   1.927   3.797 -0.3675 -0.2964 -0.3101
   13MOL0     H 1700   7.229   1.795   3.944  1.3393  1.7808 -0.4232
   13MOL0     H 1701   7.218   1.920   4.073 -2.1511  1.7316  0.5783
   13MOL0     H 1702   6.959   1.805   3.959  1.5793  0.3987 -2.1887
   13MOL0     H 1703   7.052   1.699   4.051 -0.7937 -0.2807  2.8203
   13MOL0     H 1704   7.046   1.942   4.205  0.7323 -1.3738 -1.5595
   13MOL0     H 1705   6.957   1.788   4.231 -0.6425 -0.0364  0.7551
   13MOL0     H 1706   6.873   2.082   3.994 -2.1304  0.9956 -0.5573
   13MOL0     H 1707   6.501   2.171   4.074 -1.8960  2.3270 -2.4098
   13MOL0     H 1708   6.645   2.264   4.050 -0.0830  0.4125  1.0033
   13MOL0     H 1709   6.519   2.071   3.862  0.8841  0.8278  0.8758
   13MOL0     H 1710   6.675   2.137   3.831 -0.5615 -0.3163 -1.8465
   13MOL0     H 1711   6.523   2.280   3.717 -0.4515 -2.0645  0.4768
   13MOL0     H 1712   6.563   2.375   3.860 -0.8471  1.4696 -2.3989
   13MOL0     H 1713   6.331   2.395   3.804 -0.4582 -0.7591 -1.2936
   13MOL0     H 1714   6.347   2.312   3.956 -0.9039  0.5458 -0.8295
   13MOL0     H 1715   6.156   2.015   3.701  1.4602  1.8131  0.0575
   13MOL0     H 1716   5.969   1.870   3.678  1.1646  1.3597  1.0032
   13MOL0     H 1717   5.809   1.914   3.703  1.3174 -2.1178  1.6945
   13MOL0     H 1718   5.898   1.962   3.543 -0.9116  3.0987  0.3592
   13MOL0     H 1719   5.626   2.410   3.492 -0.1018  0.0891 -0.7195
   13MOL0     H 1720   5.417   2.463   3.385 -0.4282 -1.1751 -1.0456
   13MOL0     H 1721   5.179   2.575   3.360 -0.7606  0.8028 -1.9915
   13MOL0     H 1722   5.212   2.427   3.276 -0.3391  0.8559 -0.7458
   13MOL0     H 1723   5.013   2.508   3.208  1.2985 -1.0689 -0.2901
   13MOL0     H 1724   4.978   2.349   3.282  0.4522  0.2610 -2.3653
   13MOL0     H 1725   4.956   2.495   3.501 -3.0631 -1.1396  1.8311
   13MOL0     H 1726   4.818   2.470   3.401 -0.0799 -0.0023  0.0384
   13MOL0     H 1727   4.981   2.723   3.395  0.7596  1.6942 -4.6999
   13MOL0     H 1728   4.861   2.680   3.269  1.8771 -2.9239 -0.3263
   13MOL0     H 1729   4.781   2.693   3.558 -2.9744  0.1288  0.8250
   13MOL0     H 1730   4.679   2.673   3.409  0.6524  0.1664 -2.2109
   13MOL0     H 1731   4.839   2.925   3.467 -0.7928 -0.0378  0.8869
   13MOL0     H 1732   4.740   2.898   3.326  1.0084 -2.1374 -1.0603
   13MOL0     H 1733   4.629   2.905   3.603  2.1332  2.5965  0.5538
   13MOL0     H 1734   4.540   2.894   3.449 -0.7461  2.5388 -1.1335
   13MOL0     H 1735   4.715   3.135   3.510 -2.0048  2.9277 -0.3234
   13MOL0     H 1736   4.539   3.132   3.521 -0.2622 -0.5153 -0.0013
   13MOL0     H 1737   5.209   2.304   3.720 -0.1783  1.0528  1.0016
   13MOL0     H 1738   5.409   2.268   3.836  1.2699  0.1381  0.5776
   13MOL0     H 1739   5.863   2.394   3.813  0.5221  1.1185 -1.6501
   13MOL0     H 1740   6.098   2.399   3.872 -0.1915 -1.1046  1.3135
   13MOL0     H 1741   7.586   2.669   3.877 -1.0819 -2.5901 -1.4146
   13MOL0     H 1742   7.765   2.807   3.963 -0.1972  0.0689  0.7709
   13MOL0     H 1743   7.994   2.872   4.474  0.2236  0.7841  0.5214
   13MOL0     H 1744   8.197   2.972   4.567  0.1119 -1.7700  2.3048
   13MOL0     H 1745   8.409   3.095   4.596  3.8313  1.2772  3.0485
   13MOL0     H 1746   8.411   2.922   4.642  1.1572  0.4526  1.2827
   13MOL0     H 1747   8.594   3.029   4.733 -1.9799  1.1341 -0.5331
   13MOL0     H 1748   8.657   3.096   4.577 -0.1212 -0.5801 -1.1632
   13MOL0     H 1749   8.678   2.870   4.490  1.0090  1.0288  0.0262
   13MOL0     H 1750   8.629   2.801   4.649  1.4012  2.0688  4.9765
   13MOL0     H 1751   8.894   2.961   4.586  2.0843  0.8235  2.1406
   13MOL0     H 1752   8.877   2.789   4.607  0.2794  0.0540 -0.7821
   13MOL0     H 1753   8.881   2.944   5.000  0.9599  1.0191 -1.1704
   13MOL0     H 1754   8.397   2.917   4.193  0.5283  1.4439  1.3371
   13MOL0     H 1755   8.192   2.813   4.100  2.1718  1.5719 -0.7466
   14MOL0     O 1756   5.420   5.519   5.415  0.1126 -0.1325 -0.2373
   14MOL0     C 1757   5.332   5.563   5.493 -0.8615 -0.7802 -0.0746
   14MOL0     O 1758   5.197   5.576   5.461 -0.3462 -0.0926 -0.0373
   14MOL0     C 1759   5.156   5.577   5.326 -0.5692 -0.8457 -0.8114
   14MOL0     C 1760   5.043   5.488   5.295 -0.7771 -0.1915 -0.7377
   14MOL0     C 1761   4.990   5.489   5.170 -0.5990 -0.0461  0.8737
   14MOL0     C 1762   5.038   5.576   5.067 -0.3477  0.7097 -0.1869
   14MOL0     O 1763   4.989   5.588   4.942 -0.0692  0.5601 -0.1268
   14MOL0     C 1764   4.853   5.543   4.927  0.6216 -0.0056  0.2758
   14MOL0     C 1765   4.799   5.555   4.781 -0.4642  0.2423 -0.1835
   14MOL0     C 1766   4.684   5.457   4.748  0.6506 -0.6967 -0.3984
   14MOL0     C 1767   4.557   5.500   4.816  0.3750  0.6090  0.6427
   14MOL0     C 1768   4.431   5.441   4.761 -0.2706  0.0149 -0.3558
   14MOL0     C 1769   4.310   5.525   4.760  0.1403 -0.1057 -0.3631
   14MOL0     C 1770   4.197   5.467   4.672 -0.4561  0.4638 -0.0953
   14MOL0     C 1771   4.077   5.458   4.765  0.6552  0.5619 -0.1622
   14MOL0     N 1772   3.973   5.381   4.702 -0.0522  0.0145 -0.0989
   14MOL0     C 1773   3.907   5.426   4.591 -0.2162 -0.0470  0.1697
   14MOL0     C 1774   3.823   5.326   4.564 -0.2284  0.1721  0.0864
   14MOL0     C 1775   3.729   5.324   4.445  0.4849 -0.2267  0.1895
   14MOL0     C 1776   3.576   5.367   4.476 -0.0427  0.8354  0.4999
   14MOL0     C 1777   3.567   5.516   4.491  0.2539  0.0994 -0.3112
   14MOL0     C 1778   3.412   5.557   4.494  0.2604 -0.0956 -0.5348
   14MOL0     O 1779   3.335   5.509   4.608 -0.6963 -0.1485  0.9847
   14MOL0     C 1780   3.209   5.564   4.630 -0.5907  0.3999  0.1755
   14MOL0     C 1781   3.143   5.515   4.742 -1.0037  0.4735 -0.1908
   14MOL0     C 1782   3.012   5.549   4.779 -0.1457 -0.3094  0.8834
   14MOL0     C 1783   2.954   5.472   4.897  0.4983 -0.0767 -0.3828
   14MOL0     C 1784   2.940   5.637   4.689  0.1398  0.1655 -0.2708
   14MOL0     C 1785   2.796   5.676   4.712 -0.7151  0.7276 -0.9781
   14MOL0     O 1786   2.737   5.622   4.819  0.3438 -0.2002  1.1322
   14MOL0     C 1787   2.608   5.635   4.854 -0.4762 -0.2489  0.2175
   14MOL0     C 1788   2.494   5.675   4.775 -0.1732  0.6715 -0.5071
   14MOL0     C 1789   2.367   5.704   4.828  0.2574  0.0110 -0.5066
   14MOL0     C 1790   2.353   5.692   4.972  0.3602 -0.0389  0.4372
   14MOL0     O 1791   2.234   5.699   5.032  0.6016 -0.2589  0.0755
   14MOL0     C 1792   2.215   5.811   5.125 -0.2498  0.4167  0.0689
   14MOL0     C 1793   2.065   5.797   5.177  0.1317 -0.1690  0.0533
   14MOL0     C 1794   1.964   5.809   5.062  0.0162  0.3245  0.1389
   14MOL0     C 1795   1.817   5.818   5.112 -0.1953 -0.1117  0.0628
   14MOL0     C 1796   1.737   5.863   4.989  0.3799 -0.3433  0.4566
   14MOL0     C 1797   1.749   6.010   4.944  0.2860  0.4345 -0.0758
   14MOL0     C 1798   1.691   6.016   4.808 -0.3656 -0.1295 -0.2539
   14MOL0     C 1799   1.679   6.157   4.769 -0.0664  0.0062 -0.1655
   14MOL0    Cl 1800   1.845   6.211   4.738 -0.0154  0.3340 -0.2415
   14MOL0     C 1801   2.463   5.655   5.050  0.9193 -0.2918  0.1805
   14MOL0     C 1802   2.588   5.627   4.993  0.0016 -0.0032  1.0832
   14MOL0     O 1803   2.758   5.765   4.639  0.1863  0.2857  0.4833
   14MOL0     C 1804   3.006   5.681   4.573  0.3084 -0.4081  1.1374
   14MOL0     C 1805   3.138   5.650   4.546 -0.8197  0.1366  0.3015
   14MOL0     N 1806   3.838   5.231   4.663 -0.5630 -0.3617  1.0620
   14MOL0     N 1807   3.935   5.259   4.734  0.5865 -0.1827  0.4696
   14MOL0     C 1808   5.151   5.659   5.096  0.0489  0.1756 -0.1989
   14MOL0     C 1809   5.212   5.649   5.222 -0.3961 -0.0452  0.2951
   14MOL0     C 1810   5.365   5.600   5.634  0.1639 -0.6785 -0.6337
   14MOL0     C 1811   5.502   5.615   5.676 -0.1711 -0.4315  0.4426
   14MOL0     C 1812   5.532   5.668   5.810 -0.3417 -0.0156  0.5602
   14MOL0     C 1813   5.425   5.696   5.899 -0.5221 -0.0323  0.0985
   14MOL0     O 1814   5.428   5.754   6.028 -0.7444  0.5551  0.0399
   14MOL0     C 1815   5.561   5.788   6.061  0.3090 -0.0175 -0.9052
   14MOL0     C 1816   5.547   5.861   6.191  0.3270 -0.3309 -0.1180
   14MOL0     C 1817   5.684   5.886   6.240 -0.1392  0.1098 -0.8387
   14MOL0     C 1818   5.684   5.951   6.375  0.1038 -0.0880  0.0179
   14MOL0     C 1819   5.625   6.086   6.365  0.3387  0.7659 -1.1146
   14MOL0     C 1820   5.580   6.202   6.365 -0.8851  1.0089 -0.2830
   14MOL0     C 1821   5.295   5.668   5.862  0.4496 -0.4637 -0.7767
   14MOL0     C 1822   5.259   5.633   5.730  1.0575  0.2711  0.0779
   14MOL0     H 1823   5.009   5.416   5.369  1.7254  0.2578  0.9741
   14MOL0     H 1824   4.903   5.426   5.158  0.4502 -1.4421  0.2136
   14MOL0     H 1825   4.854   5.434   4.941  1.1801  0.0130  0.4034
   14MOL0     H 1826   4.796   5.587   5.009  2.2945 -0.4860  1.7399
   14MOL0     H 1827   4.760   5.657   4.780 -0.2057  0.3411 -0.3152
   14MOL0     H 1828   4.880   5.548   4.707 -1.2013  2.7276 -1.3442
   14MOL0     H 1829   4.669   5.455   4.639  1.5542 -0.3563 -0.5373
   14MOL0     H 1830   4.706   5.353   4.774 -1.8133 -1.4535 -1.1057
   14MOL0     H 1831   4.570   5.479   4.922  0.3088  0.3401  0.5961
   14MOL0     H 1832   4.551   5.606   4.789  2.3743  0.2860 -1.4647
   14MOL0     H 1833   4.459   5.417   4.658  1.1516 -0.4070  0.1057
   14MOL0     H 1834   4.420   5.349   4.820 -1.7474  1.0474  1.0487
   14MOL0     H 1835   4.273   5.535   4.862  0.2775 -0.3254 -0.2908
   14MOL0     H 1836   4.335   5.624   4.721  0.7625  0.3328  1.0692
   14MOL0     H 1837   4.185   5.534   4.587  1.7396 -1.3697 -1.9778
   14MOL0     H 1838   4.221   5.370   4.628 -0.2565  0.8891 -0.9375
   14MOL0     H 1839   4.034   5.555   4.794  2.3364  0.8237  1.6715
   14MOL0     H 1840   4.102   5.404   4.857 -0.9325  1.5100  0.8913
   14MOL0     H 1841   3.926   5.522   4.545 -1.3024 -0.3821 -1.0365
   14MOL0     H 1842   3.774   5.395   4.376 -2.1884  0.1157 -1.3334
   14MOL0     H 1843   3.726   5.222   4.406 -3.1525  0.0073 -0.4848
   14MOL0     H 1844   3.532   5.325   4.566 -0.2675 -2.2754 -0.9313
   14MOL0     H 1845   3.501   5.339   4.402 -0.6150 -1.1566  1.7627
   14MOL0     H 1846   3.627   5.565   4.414  0.9653  2.9481  1.8797
   14MOL0     H 1847   3.621   5.534   4.585  0.3761 -2.0626  0.0670
   14MOL0     H 1848   3.364   5.500   4.415  0.3055  1.0243 -1.3961
   14MOL0     H 1849   3.404   5.663   4.470  0.2427 -0.0789 -0.4560
   14MOL0     H 1850   3.209   5.447   4.796 -1.3237 -1.9274 -2.5538
   14MOL0     H 1851   3.022   5.407   4.952  2.0523 -1.7767 -4.0195
   14MOL0     H 1852   2.923   5.550   4.968  0.0220 -1.1681  0.6375
   14MOL0     H 1853   2.865   5.410   4.878  1.5958 -2.8206  2.6099
   14MOL0     H 1854   2.489   5.672   4.667 -0.2736 -5.3665 -0.6395
   14MOL0     H 1855   2.280   5.744   4.778  1.3004 -0.7947 -3.1730
   14MOL0     H 1856   2.274   5.793   5.216 -1.3557  1.2224  0.9758
   14MOL0     H 1857   2.231   5.909   5.080  1.3125  0.6749  1.0874
   14MOL0     H 1858   2.064   5.702   5.231  2.6800 -0.7800 -0.8456
   14MOL0     H 1859   2.036   5.882   5.240 -0.2303  0.8200 -1.4198
   14MOL0     H 1860   1.976   5.723   4.996 -0.2948 -0.0792  0.5978
   14MOL0     H 1861   1.997   5.897   5.006 -2.3655  1.3083  0.1484
   14MOL0     H 1862   1.772   5.727   5.154 -2.1056  0.8285  0.1862
   14MOL0     H 1863   1.809   5.894   5.190 -1.1326 -0.6655  0.5318
   14MOL0     H 1864   1.633   5.838   5.014 -0.4657  1.0638 -1.3854
   14MOL0     H 1865   1.754   5.788   4.912  0.8181 -0.5954  0.7982
   14MOL0     H 1866   1.682   6.056   5.017 -2.1524 -1.8979 -0.7140
   14MOL0     H 1867   1.850   6.052   4.946  0.6451 -0.1652 -2.6470
   14MOL0     H 1868   1.595   5.965   4.798 -0.1661 -0.3035 -1.4670
   14MOL0     H 1869   1.756   5.957   4.742 -1.6338 -0.9836 -0.7618
   14MOL0     H 1870   1.627   6.212   4.848 -0.8243 -1.8701  0.7167
   14MOL0     H 1871   1.619   6.175   4.679  0.5493  3.7454  0.0131
   14MOL0     H 1872   2.455   5.644   5.158  1.4460 -0.4566  0.2048
   14MOL0     H 1873   2.669   5.587   5.054 -0.2405 -1.4239  0.5184
   14MOL0     H 1874   2.943   5.736   4.504 -3.0448 -1.7655  2.9051
   14MOL0     H 1875   3.179   5.690   4.454 -1.2654 -2.7577 -1.2790
   14MOL0     H 1876   5.187   5.723   5.015  0.0092  0.9092  0.3521
   14MOL0     H 1877   5.305   5.702   5.241 -0.0487 -0.3202 -0.5789
   14MOL0     H 1878   5.587   5.594   5.612 -1.4356 -0.2219 -1.4027
   14MOL0     H 1879   5.628   5.673   5.860 -0.2028  1.2447  0.2110
   14MOL0     H 1880   5.609   5.690   6.071 -2.1362 -1.0682  2.1545
   14MOL0     H 1881   5.612   5.850   5.987  0.9037  0.5193 -0.0603
   14MOL0     H 1882   5.491   5.802   6.264  0.0711  0.5536  0.4126
   14MOL0     H 1883   5.495   5.955   6.173 -2.4308 -1.3096  2.0644
   14MOL0     H 1884   5.725   5.945   6.158 -1.2433  1.2746 -0.5940
   14MOL0     H 1885   5.734   5.791   6.262 -0.5144  0.5243  2.2996
   14MOL0     H 1886   5.788   5.971   6.403  0.2416  0.6357 -0.9711
   14MOL0     H 1887   5.626   5.890   6.445 -1.1192 -1.0257 -1.7268
   14MOL0     H 1888   5.538   6.301   6.364  2.7724  2.7214 -1.3224
   14MOL0     H 1889   5.223   5.690   5.941 -0.4064  0.0833 -1.6815
   14MOL0     H 1890   5.153   5.633   5.707  0.3632 -0.6724  2.8564
   15MOL0     O 1891   7.988   2.913   3.012  0.1451  0.1849 -0.1840
   15MOL0     C 1892   7.964   2.794   3.015  0.6591 -0.5162  0.1043
   15MOL0     O 1893   7.865   2.734   2.948  0.1049 -0.1856  0.1624
   15MOL0     C 1894   7.801   2.800   2.840  0.5470  0.0812 -0.2990
   15MOL0     C 1895   7.831   2.924   2.781  0.2218 -0.2874 -0.4563
   15MOL0     C 1896   7.744   2.987   2.688 -0.0182 -0.7938 -0.1115
   15MOL0     C 1897   7.617   2.932   2.664 -0.1478  0.4623  0.4049
   15MOL0     O 1898   7.533   2.991   2.578  0.1603 -1.1401 -0.1246
   15MOL0     C 1899   7.514   3.131   2.611  0.2536 -0.2794  0.2345
   15MOL0     C 1900   7.428   3.201   2.505 -0.4936 -0.6714 -0.6723
   15MOL0     C 1901   7.295   3.130   2.489  0.0284 -0.0951 -0.5280
   15MOL0     C 1902   7.215   3.189   2.369 -0.5553  0.0254  0.8347
   15MOL0     C 1903   7.088   3.108   2.338  0.2895 -0.0608  0.5365
   15MOL0     C 1904   7.003   3.164   2.222 -0.4223 -0.6248  0.2756
   15MOL0     C 1905   6.896   3.063   2.169 -0.1021 -0.6600  0.9339
   15MOL0     C 1906   6.828   3.122   2.038 -0.2937  0.4034 -0.1745
   15MOL0     N 1907   6.706   3.196   2.067 -0.1026  0.5786 -0.0694
   15MOL0     C 1908   6.687   3.333   2.055  0.3596  0.0040  0.6669
   15MOL0     C 1909   6.557   3.352   2.046  0.9441 -0.1042  0.2397
   15MOL0     C 1910   6.497   3.489   2.029  0.0324  0.9540 -0.1802
   15MOL0     C 1911   6.346   3.487   2.008 -0.2397 -0.0838  0.0480
   15MOL0     C 1912   6.270   3.464   2.132  0.3506 -0.1924  0.1666
   15MOL0     C 1913   6.116   3.479   2.116 -0.4670  0.2308  0.1358
   15MOL0     O 1914   6.083   3.617   2.113 -0.4869  0.1143 -0.0610
   15MOL0     C 1915   5.956   3.665   2.088 -0.5316 -0.4657 -0.5285
   15MOL0     C 1916   5.947   3.788   2.016 -0.1101 -0.5309  1.3153
   15MOL0     C 1917   5.820   3.844   1.976  0.0756 -0.1872  0.3392
   15MOL0     C 1918   5.824   3.983   1.915 -0.2354  0.0955 -0.1509
   15MOL0     C 1919   5.702   3.774   2.008  0.2491  0.4564  0.0861
   15MOL0     C 1920   5.566   3.823   1.972  0.1675  0.2466 -0.4862
   15MOL0     O 1921   5.460   3.773   2.047  0.3979 -0.3307  0.2736
   15MOL0     C 1922   5.330   3.809   2.018 -0.6169 -0.0367 -0.2279
   15MOL0     C 1923   5.276   3.930   2.051  0.2058 -0.3402 -0.9892
   15MOL0     C 1924   5.139   3.957   2.022 -0.1941  0.8350  0.1347
   15MOL0     C 1925   5.059   3.860   1.960  1.0154 -0.4262 -0.5174
   15MOL0     O 1926   4.926   3.906   1.934 -0.1129  0.3289 -0.0581
   15MOL0     C 1927   4.845   3.834   1.846  0.0005  0.1332  0.0751
   15MOL0     C 1928   4.715   3.905   1.808  0.0027 -0.4933  0.7492
   15MOL0     C 1929   4.614   3.918   1.916  0.7320 -0.9871  0.5294
   15MOL0     C 1930   4.499   3.999   1.858  0.8777  0.8548 -0.1666
   15MOL0     C 1931   4.412   4.040   1.985 -0.0384 -0.6871  0.5838
   15MOL0     C 1932   4.276   4.083   1.933 -0.5035  1.0293  0.6161
   15MOL0     C 1933   4.169   4.121   2.040  0.7916  0.2579 -0.9816
   15MOL0     C 1934   4.031   4.118   1.977 -0.0144  0.1053 -0.0611
   15MOL0    Cl 1935   3.909   4.172   2.099  0.3246 -0.1854  0.1775
   15MOL0     C 1936   5.111   3.731   1.940 -0.2312  0.2510  0.6687
   15MOL0     C 1937   5.245   3.713   1.970 -0.0167  0.4225  0.3481
   15MOL0     O 1938   5.552   3.894   1.874 -0.7690 -0.2424  0.0943
   15MOL0     C 1939   5.714   3.647   2.071 -0.0966  0.2528  0.5515
   15MOL0     C 1940   5.837   3.602   2.121  0.3836  0.3260  0.0085
   15MOL0     N 1941   6.496   3.229   2.042  0.3793 -0.3663  0.7211
   15MOL0     N 1942   6.583   3.137   2.062  0.1984  0.1860 -0.3306
   15MOL0     C 1943   7.587   2.808   2.721 -1.2218 -0.2559 -0.4725
   15MOL0     C 1944   7.675   2.744   2.808  0.2384 -1.2134 -0.0608
   15MOL0     C 1945   8.065   2.706   3.084 -0.0631 -0.2511  0.1556
   15MOL0     C 1946   8.162   2.759   3.167  0.1680 -0.5091 -0.7735
   15MOL0     C 1947   8.261   2.675   3.227 -0.0630  0.0501 -0.1589
   15MOL0     C 1948   8.267   2.541   3.193  0.7779  0.0540  0.1346
   15MOL0     O 1949   8.360   2.457   3.253 -0.4446  0.4881 -0.6086
   15MOL0     C 1950   8.338   2.449   3.393  0.6401  0.4842  0.1158
   15MOL0     C 1951   8.429   2.338   3.464 -0.4265 -0.3538  0.8277
   15MOL0     C 1952   8.436   2.205   3.385 -0.1993 -0.8791 -0.0552
   15MOL0     C 1953   8.529   2.112   3.464 -0.0986  0.1377 -0.0529
   15MOL0     C 1954   8.673   2.132   3.451  0.3763  0.6363  0.3528
   15MOL0     C 1955   8.791   2.150   3.452 -0.0308  0.0027  0.8972
   15MOL0     C 1956   8.172   2.489   3.104 -0.9388  0.4827  0.2384
   15MOL0     C 1957   8.063   2.566   3.054  0.1292  0.3188 -1.1772
   15MOL0     H 1958   7.925   2.974   2.802  0.7265 -1.7092  0.9025
   15MOL0     H 1959   7.785   3.076   2.642 -0.4586 -1.2577 -1.4526
   15MOL0     H 1960   7.455   3.125   2.704  1.7595 -0.1589  1.2380
   15MOL0     H 1961   7.604   3.187   2.635  1.0953 -1.3328 -0.3713
   15MOL0     H 1962   7.416   3.304   2.542  1.2816 -0.2017 -1.2959
   15MOL0     H 1963   7.489   3.210   2.415  0.3606 -0.9800 -0.1404
   15MOL0     H 1964   7.301   3.021   2.478  0.2394 -0.2654  1.0974
   15MOL0     H 1965   7.243   3.151   2.583 -0.1988  1.4290 -0.9646
   15MOL0     H 1966   7.199   3.293   2.397  2.5040  0.1893  2.3071
   15MOL0     H 1967   7.276   3.188   2.278 -0.0591  1.2999  1.1453
   15MOL0     H 1968   7.117   3.006   2.310 -0.6675  0.0382 -0.9301
   15MOL0     H 1969   7.038   3.113   2.435  1.8201  3.3841  1.3035
   15MOL0     H 1970   6.951   3.254   2.258  0.8344  0.2956 -0.1354
   15MOL0     H 1971   7.063   3.204   2.139 -0.6517  2.2033  1.3595
   15MOL0     H 1972   6.940   2.964   2.153  0.3134 -0.1920 -1.0584
   15MOL0     H 1973   6.820   3.041   2.244  0.4908 -1.9842  1.1689
   15MOL0     H 1974   6.805   3.041   1.968 -1.1512  0.1367  0.3914
   15MOL0     H 1975   6.890   3.192   1.982  1.3590 -1.4915 -0.8228
   15MOL0     H 1976   6.753   3.419   2.050 -1.4731  1.4693  0.3753
   15MOL0     H 1977   6.510   3.539   2.126  0.5369 -1.1283  0.8743
   15MOL0     H 1978   6.548   3.551   1.955 -0.7185  0.7897 -0.8432
   15MOL0     H 1979   6.316   3.424   1.923  1.0113  2.0700 -2.1024
   15MOL0     H 1980   6.335   3.588   1.969 -1.1393  0.0372  0.5671
   15MOL0     H 1981   6.302   3.527   2.215  1.6136  0.8290 -1.0549
   15MOL0     H 1982   6.290   3.362   2.168  0.0044  0.0573  1.0985
   15MOL0     H 1983   6.071   3.425   2.201  3.0704 -0.6755  1.6012
   15MOL0     H 1984   6.084   3.433   2.022  0.2396  0.3402 -0.1653
   15MOL0     H 1985   6.038   3.841   1.988 -0.4318  0.5455  2.2244
   15MOL0     H 1986   5.833   3.966   1.808 -0.6700 -1.0287 -0.0222
   15MOL0     H 1987   5.739   4.051   1.931  0.1053  0.5777 -0.3879
   15MOL0     H 1988   5.907   4.039   1.959 -1.1445  1.5121 -0.1780
   15MOL0     H 1989   5.339   4.008   2.094 -1.0118  0.4942 -0.6538
   15MOL0     H 1990   5.103   4.056   2.049 -0.9316  0.1637  1.7300
   15MOL0     H 1991   4.907   3.820   1.757  1.0379  0.0898  0.7858
   15MOL0     H 1992   4.830   3.733   1.887 -0.1359  0.5067  0.9761
   15MOL0     H 1993   4.737   4.010   1.785 -0.1247  0.1236  3.1558
   15MOL0     H 1994   4.666   3.851   1.727 -2.2018 -1.1599  2.4445
   15MOL0     H 1995   4.656   3.977   1.999  2.8654 -1.9328  0.1856
   15MOL0     H 1996   4.579   3.819   1.948 -0.2869 -0.6498  0.5091
   15MOL0     H 1997   4.537   4.091   1.812  0.3789  1.1842  0.0671
   15MOL0     H 1998   4.444   3.944   1.781 -0.0835  0.2977  0.8923
   15MOL0     H 1999   4.445   4.127   2.043 -3.0978 -0.7316  2.5982
   15MOL0     H 2000   4.401   3.960   2.059 -0.4978  1.6713  3.2444
   15MOL0     H 2001   4.289   4.157   1.854  1.1218 -0.2536 -0.3632
   15MOL0     H 2002   4.240   3.993   1.882  0.9883 -1.7942  4.1246
   15MOL0     H 2003   4.183   4.222   2.080 -1.1722 -0.6015  2.2914
   15MOL0     H 2004   4.177   4.052   2.125 -0.1202  1.9928  0.5841
   15MOL0     H 2005   4.003   4.018   1.942 -2.6321  0.7596 -0.0942
   15MOL0     H 2006   4.019   4.184   1.891  1.7121  3.2541  1.9419
   15MOL0     H 2007   5.049   3.656   1.891 -1.5483  2.0411 -0.5313
   15MOL0     H 2008   5.296   3.623   1.938  0.5211  0.7584  0.2553
   15MOL0     H 2009   5.617   3.605   2.095  0.2222 -0.8698 -0.0296
   15MOL0     H 2010   5.849   3.511   2.179  0.5501 -0.4073 -1.1348
   15MOL0     H 2011   7.495   2.756   2.697 -1.8738  0.5895  0.1569
   15MOL0     H 2012   7.647   2.652   2.858  1.5011 -0.0087  3.1176
   15MOL0     H 2013   8.165   2.867   3.174 -0.7682 -0.4573 -0.9881
   15MOL0     H 2014   8.331   2.718   3.299 -0.9068  1.6382 -0.2340
   15MOL0     H 2015   8.353   2.548   3.439 -1.4407  0.4246  1.0265
   15MOL0     H 2016   8.235   2.414   3.404  0.1883  1.5560 -0.5282
   15MOL0     H 2017   8.380   2.324   3.561 -3.2343 -0.7278 -0.5597
   15MOL0     H 2018   8.532   2.375   3.476  0.0165 -1.2547 -0.0669
   15MOL0     H 2019   8.466   2.211   3.280  0.9103  0.1031  0.3066
   15MOL0     H 2020   8.334   2.164   3.379 -0.4406 -0.2432 -5.5707
   15MOL0     H 2021   8.507   2.013   3.422 -0.2130  0.4902 -0.8431
   15MOL0     H 2022   8.502   2.109   3.570 -3.6493 -0.1829 -0.8482
   15MOL0     H 2023   8.892   2.181   3.471  0.8848 -1.9257 -0.4394
   15MOL0     H 2024   8.176   2.387   3.068 -1.7683  1.5629 -3.3608
   15MOL0     H 2025   7.983   2.527   2.991 -1.2738  3.2446 -1.3629
   16MOL0     O 2026  11.141   0.990   3.217  0.0302  0.4206  0.1511
   16MOL0     C 2027  11.147   1.047   3.111  0.1200  0.2596 -0.2279
   16MOL0     O 2028  11.037   1.071   3.036 -0.3358  0.4054  0.3377
   16MOL0     C 2029  10.904   1.058   3.068 -0.3947 -0.5318  0.7668
   16MOL0     C 2030  10.816   1.081   2.962 -0.1500  0.6733  0.4592
   16MOL0     C 2031  10.687   1.081   2.983 -0.0890 -0.3114 -0.0170
   16MOL0     C 2032  10.632   1.056   3.111  0.2748  0.3798  0.3523
   16MOL0     O 2033  10.490   1.049   3.116 -0.2190 -0.6968 -0.2143
   16MOL0     C 2034  10.421   1.036   3.248  0.0606  0.6162  1.0207
   16MOL0     C 2035  10.274   1.024   3.201  0.3167  0.1404 -0.3367
   16MOL0     C 2036  10.179   1.027   3.316 -0.4377  0.8880 -0.2036
   16MOL0     C 2037  10.030   1.032   3.270 -0.4809  0.2488  0.3042
   16MOL0     C 2038   9.940   1.036   3.390 -0.2610  0.9242  0.1888
   16MOL0     C 2039   9.789   1.022   3.339 -0.0985 -0.0946  0.0287
   16MOL0     C 2040   9.688   1.015   3.453 -0.9645  0.8117 -0.0726
   16MOL0     C 2041   9.557   0.962   3.396  0.1702  0.1979 -0.0904
   16MOL0     N 2042   9.503   0.868   3.491 -0.6360 -0.4793  0.5836
   16MOL0     C 2043   9.455   0.885   3.619 -0.0514  0.1102 -0.0905
   16MOL0     C 2044   9.387   0.777   3.646  0.1643 -0.1103 -0.5059
   16MOL0     C 2045   9.320   0.748   3.770  0.9515  0.3484 -0.4326
   16MOL0     C 2046   9.160   0.747   3.745 -0.7125  0.4855 -0.5757
   16MOL0     C 2047   9.102   0.889   3.723  0.4385  1.3957  0.6951
   16MOL0     C 2048   9.088   0.968   3.859  0.0370  0.2755  0.2074
   16MOL0     O 2049   8.976   0.932   3.937  0.0052  0.1574  0.1088
   16MOL0     C 2050   8.849   0.970   3.901  0.0209 -0.4958 -0.1040
   16MOL0     C 2051   8.737   0.925   3.973  0.8889  0.1146 -0.2988
   16MOL0     C 2052   8.597   0.949   3.944  0.4863 -0.2549 -0.4116
   16MOL0     C 2053   8.503   0.888   4.053 -0.4201  0.0461  0.2609
   16MOL0     C 2054   8.572   1.036   3.837  0.9359 -0.0498  0.3504
   16MOL0     C 2055   8.437   1.088   3.793 -0.2914 -0.0528  0.1873
   16MOL0     O 2056   8.425   1.162   3.675  0.5230 -0.8748  0.2797
   16MOL0     C 2057   8.306   1.216   3.645  0.5660 -0.0719  0.5436
   16MOL0     C 2058   8.271   1.350   3.671 -0.1001  0.5840 -0.8982
   16MOL0     C 2059   8.139   1.393   3.638 -0.2885  0.0882  0.5225
   16MOL0     C 2060   8.048   1.314   3.561 -0.6627 -1.0500 -0.0399
   16MOL0     O 2061   7.923   1.347   3.522  0.4219 -0.2216 -0.5418
   16MOL0     C 2062   7.834   1.431   3.598 -0.4946  0.2895  0.2422
   16MOL0     C 2063   7.704   1.450   3.514 -0.3416  0.1651  0.1077
   16MOL0     C 2064   7.625   1.548   3.597 -0.2518 -0.4903  0.4781
   16MOL0     C 2065   7.471   1.537   3.561 -0.1605  0.1191 -0.0997
   16MOL0     C 2066   7.399   1.645   3.636 -0.4204 -0.2029 -0.0682
   16MOL0     C 2067   7.251   1.643   3.623  0.1145  0.5207 -0.0995
   16MOL0     C 2068   7.185   1.551   3.734  0.3412  0.8880  0.3098
   16MOL0     C 2069   7.032   1.566   3.726  0.2994  0.4321  0.8132
   16MOL0    Cl 2070   6.963   1.493   3.877 -0.3553 -0.1857  0.0227
   16MOL0     C 2071   8.092   1.183   3.529 -0.2732 -0.1498  0.5516
   16MOL0     C 2072   8.218   1.136   3.567  0.1551 -0.4617  0.0416
   16MOL0     O 2073   8.341   1.043   3.859 -0.6252 -0.4161  0.1547
   16MOL0     C 2074   8.682   1.084   3.756  0.8783 -0.0815 -0.7610
   16MOL0     C 2075   8.812   1.047   3.786 -1.4683  1.0177 -0.0576
   16MOL0     N 2076   9.409   0.688   3.546 -0.1025  0.4350 -0.4013
   16MOL0     N 2077   9.475   0.739   3.459 -0.9459  0.0943  0.0292
   16MOL0     C 2078  10.714   1.034   3.220  0.6407 -0.2073  0.6641
   16MOL0     C 2079  10.857   1.041   3.206 -0.0988  0.3147  0.1789
   16MOL0     C 2080  11.278   1.101   3.065  0.0475 -0.5927 -0.1698
   16MOL0     C 2081  11.398   1.060   3.113 -0.4892 -0.1960 -0.3507
   16MOL0     C 2082  11.516   1.116   3.062 -0.3999 -0.9122 -0.3810
   16MOL0     C 2083  11.513   1.219   2.968 -0.6707 -0.4478  1.2486
   16MOL0     O 2084  11.631   1.276   2.924 -0.8164 -0.5248  0.4482
   16MOL0     C 2085  11.626   1.396   2.845  0.8331  1.1284  0.1257
   16MOL0     C 2086  11.762   1.430   2.802  0.0474 -0.5351 -0.5285
   16MOL0     C 2087  11.842   1.514   2.905 -0.0659  0.0194  0.4015
   16MOL0     C 2088  11.988   1.518   2.875  0.6060 -0.2963 -0.8307
   16MOL0     C 2089  12.010   1.585   2.743  0.0367  0.7430  0.1343
   16MOL0     C 2090  12.042   1.650   2.639  0.1617  0.7297  0.5472
   16MOL0     C 2091  11.385   1.265   2.920 -0.3073 -0.6490 -0.6690
   16MOL0     C 2092  11.268   1.200   2.968 -0.4180 -0.1317 -1.1294
   16MOL0     H 2093  10.860   1.090   2.863 -2.1163  2.7488 -0.3370
   16MOL0     H 2094  10.627   1.110   2.897  1.7767  4.4045 -0.0638
   16MOL0     H 2095  10.455   0.943   3.294  0.0616 -0.1619 -0.4984
   16MOL0     H 2096  10.425   1.128   3.308 -0.3745  1.7807 -0.6590
   16MOL0     H 2097  10.254   1.110   3.136  2.6461 -0.3280 -1.7689
   16MOL0     H 2098  10.258   0.931   3.147 -1.5371 -0.9758  1.9520
   16MOL0     H 2099  10.196   0.947   3.388  0.1219  3.8657  3.2677
   16MOL0     H 2100  10.193   1.123   3.366 -1.3981  0.7737  0.3129
   16MOL0     H 2101  10.010   1.126   3.219 -1.2295  0.8942  1.7589
   16MOL0     H 2102  10.023   0.942   3.207  0.8464 -1.8277  2.9285
   16MOL0     H 2103   9.972   0.958   3.460 -0.1031 -1.0581 -1.9535
   16MOL0     H 2104   9.949   1.134   3.438 -0.8085  0.7468  0.6674
   16MOL0     H 2105   9.765   1.110   3.279 -0.7329 -0.9802 -1.0722
   16MOL0     H 2106   9.784   0.930   3.279 -0.1309 -1.2484  1.7431
   16MOL0     H 2107   9.725   0.948   3.530 -1.9887 -2.2574 -2.0716
   16MOL0     H 2108   9.671   1.117   3.490 -0.7387  1.0225 -0.5300
   16MOL0     H 2109   9.577   0.915   3.300  0.3051  2.2571 -1.1309
   16MOL0     H 2110   9.487   1.044   3.380 -0.1982 -0.3289 -1.2515
   16MOL0     H 2111   9.477   0.956   3.698 -1.7474  0.0709  0.4621
   16MOL0     H 2112   9.350   0.651   3.809  1.7169 -0.0967 -2.0533
   16MOL0     H 2113   9.351   0.823   3.843 -1.2299  0.8708  0.0366
   16MOL0     H 2114   9.115   0.701   3.833  1.6098 -0.7356  0.0358
   16MOL0     H 2115   9.147   0.677   3.661  3.3638 -2.0270  0.5863
   16MOL0     H 2116   9.002   0.880   3.681  0.8082  2.8376 -0.5909
   16MOL0     H 2117   9.166   0.936   3.648  1.4207 -0.5005  0.2724
   16MOL0     H 2118   9.082   1.074   3.830 -0.8400  0.5347  1.2366
   16MOL0     H 2119   9.175   0.952   3.924  0.2809  1.2226  0.1290
   16MOL0     H 2120   8.779   0.854   4.043  2.2455 -0.4689 -1.6536
   16MOL0     H 2121   8.441   0.809   4.008  2.4183 -2.2903  0.1396
   16MOL0     H 2122   8.562   0.846   4.135  0.4573 -1.8744 -1.2707
   16MOL0     H 2123   8.442   0.970   4.091 -0.2873  0.3397 -0.1580
   16MOL0     H 2124   8.336   1.419   3.724  0.5528 -0.6780  0.0025
   16MOL0     H 2125   8.103   1.490   3.669  1.2111 -0.2493  3.7711
   16MOL0     H 2126   7.810   1.372   3.687  0.2554 -0.6842 -0.1702
   16MOL0     H 2127   7.887   1.516   3.641 -1.1544  1.6487 -1.5430
   16MOL0     H 2128   7.716   1.499   3.417 -1.5049 -0.5029 -0.3811
   16MOL0     H 2129   7.650   1.356   3.502  0.2967 -0.0816 -0.8647
   16MOL0     H 2130   7.672   1.643   3.570  0.7805 -1.8507 -3.0250
   16MOL0     H 2131   7.642   1.519   3.702  1.0259 -1.1612  0.1127
   16MOL0     H 2132   7.465   1.567   3.456 -2.3634  1.4031  0.3335
   16MOL0     H 2133   7.425   1.440   3.582 -3.3926  1.9457  2.1429
   16MOL0     H 2134   7.440   1.737   3.593 -2.1786  0.8949  0.4684
   16MOL0     H 2135   7.428   1.646   3.741 -3.0784  0.2807  0.7551
   16MOL0     H 2136   7.211   1.743   3.646  0.9802  0.3427  2.4661
   16MOL0     H 2137   7.222   1.621   3.520  2.0446  0.9031 -0.7684
   16MOL0     H 2138   7.215   1.591   3.831 -3.1690  0.0580  1.9222
   16MOL0     H 2139   7.211   1.447   3.714 -2.9491 -0.7271  3.2575
   16MOL0     H 2140   6.985   1.515   3.641  0.7590 -1.1899  1.5015
   16MOL0     H 2141   7.007   1.672   3.716  0.4207  0.4067  0.1964
   16MOL0     H 2142   8.029   1.112   3.476  1.0670 -1.8461  1.1085
   16MOL0     H 2143   8.238   1.030   3.556  0.7042 -0.4923  1.2304
   16MOL0     H 2144   8.648   1.140   3.670 -3.4701  0.9434  1.3304
   16MOL0     H 2145   8.883   1.095   3.720 -2.3502  2.0451 -0.2941
   16MOL0     H 2146  10.669   1.004   3.314 -2.2979 -0.7382 -0.8156
   16MOL0     H 2147  10.915   1.045   3.297 -0.7319  3.7987  0.5791
   16MOL0     H 2148  11.411   0.984   3.189  1.5121 -0.9526 -1.3834
   16MOL0     H 2149  11.605   1.079   3.110 -0.8396  0.4858  1.6987
   16MOL0     H 2150  11.574   1.389   2.750  1.4024 -1.3967 -0.0662
   16MOL0     H 2151  11.571   1.468   2.906 -2.1943  0.3968 -1.5553
   16MOL0     H 2152  11.753   1.485   2.708  1.2214  1.8069  0.6277
   16MOL0     H 2153  11.823   1.341   2.785  0.8827  0.0959 -0.9543
   16MOL0     H 2154  11.839   1.470   3.005  3.6711 -3.2037 -0.6253
   16MOL0     H 2155  11.800   1.614   2.903  1.7936  0.8718  1.2918
   16MOL0     H 2156  12.019   1.413   2.870  1.2011 -0.2083  0.5157
   16MOL0     H 2157  12.038   1.570   2.958  0.8216 -3.0857  0.9117
   16MOL0     H 2158  12.077   1.706   2.554  3.5168 -0.0035  1.2689
   16MOL0     H 2159  11.374   1.339   2.841 -3.5166  0.5396  0.7343
   16MOL0     H 2160  11.179   1.238   2.919 -1.0445  1.0844  0.8200
   17MOL0     O 2161  10.168   0.475   7.219  0.7231 -1.1238 -0.1688
   17MOL0     C 2162  10.213   0.531   7.324  0.1407  0.0664 -0.0422
   17MOL0     O 2163  10.148   0.626   7.407  0.2363 -0.3858 -0.3472
   17MOL0     C 2164  10.013   0.645   7.391 -0.4423  0.6620 -0.0527
   17MOL0     C 2165   9.918   0.545   7.347  0.4605 -0.2354 -0.2283
   17MOL0     C 2166   9.780   0.580   7.337 -0.5668 -0.0181  0.1421
   17MOL0     C 2167   9.741   0.705   7.374 -0.0248  0.0590  0.6332
   17MOL0     O 2168   9.608   0.743   7.358  0.9862  0.1959  0.5884
   17MOL0     C 2169   9.512   0.660   7.432 -0.5695 -0.1492 -0.5471
   17MOL0     C 2170   9.395   0.751   7.459 -0.6711  0.9261  1.7594
   17MOL0     C 2171   9.293   0.686   7.559 -0.0243 -0.2701  0.3743
   17MOL0     C 2172   9.159   0.765   7.553 -0.6556  0.7681 -0.6781
   17MOL0     C 2173   9.081   0.738   7.681  0.4790 -0.1481  0.3957
   17MOL0     C 2174   8.951   0.822   7.691 -0.0602  0.1457  0.0637
   17MOL0     C 2175   8.849   0.779   7.593  0.8816  0.1217  0.9228
   17MOL0     C 2176   8.701   0.824   7.623 -0.5379 -0.2910  0.2526
   17MOL0     N 2177   8.651   0.770   7.753  0.4724 -1.0395 -0.6743
   17MOL0     C 2178   8.634   0.847   7.864  0.1171  0.3586  0.0887
   17MOL0     C 2179   8.594   0.748   7.953  0.0491  0.5448 -0.5433
   17MOL0     C 2180   8.564   0.783   8.092  0.0562 -0.2567 -0.6881
   17MOL0     C 2181   8.428   0.853   8.106  1.6978  0.1001 -0.3879
   17MOL0     C 2182   8.409   0.891   8.251  0.3367  0.2138  0.5374
   17MOL0     C 2183   8.269   0.927   8.298 -1.0738  0.5934  0.4128
   17MOL0     O 2184   8.224   1.047   8.237 -0.7280 -0.0957 -0.4181
   17MOL0     C 2185   8.094   1.047   8.209  0.3387 -0.1109 -0.2649
   17MOL0     C 2186   8.004   1.003   8.314  0.4084 -0.5070  0.1216
   17MOL0     C 2187   7.862   0.990   8.288  0.7491  0.0881  0.4691
   17MOL0     C 2188   7.781   0.963   8.404 -0.4581 -0.3305  0.4229
   17MOL0     C 2189   7.803   1.014   8.158 -0.1512  0.0105  0.6793
   17MOL0     C 2190   7.656   0.995   8.120  0.2553 -0.2603 -0.0904
   17MOL0     O 2191   7.588   0.904   8.192  0.5041 -0.3428  0.4483
   17MOL0     C 2192   7.457   0.868   8.163 -0.3499 -0.9965 -0.2764
   17MOL0     C 2193   7.390   0.871   8.041  0.6058 -0.4055 -0.8000
   17MOL0     C 2194   7.262   0.822   8.033 -0.2933  0.9697 -0.3997
   17MOL0     C 2195   7.191   0.772   8.144 -0.0959  0.3773  0.0219
   17MOL0     O 2196   7.058   0.757   8.140 -0.0261  0.4879  0.1082
   17MOL0     C 2197   6.962   0.743   8.247 -0.4550 -0.2311  0.1795
   17MOL0     C 2198   6.820   0.718   8.195 -0.5195  0.2192  0.2405
   17MOL0     C 2199   6.790   0.571   8.163 -0.6005  0.2565 -0.4107
   17MOL0     C 2200   6.674   0.558   8.065  0.0122  0.2238 -0.0736
   17MOL0     C 2201   6.537   0.594   8.125  0.9467 -0.2839  0.0525
   17MOL0     C 2202   6.407   0.536   8.056  0.0412 -0.7404 -0.0426
   17MOL0     C 2203   6.417   0.383   8.041  0.2663  0.6368 -0.2361
   17MOL0     C 2204   6.278   0.330   7.989  0.4507  0.6235  0.6871
   17MOL0    Cl 2205   6.231   0.387   7.829 -0.2451 -0.6166  0.1347
   17MOL0     C 2206   7.255   0.767   8.265  0.0647 -0.1391 -0.3830
   17MOL0     C 2207   7.386   0.810   8.277 -0.8320 -0.4115  0.3108
   17MOL0     O 2208   7.609   1.057   8.026  0.7889 -0.7604  0.3364
   17MOL0     C 2209   7.893   1.063   8.068 -0.3259  0.2952 -0.2840
   17MOL0     C 2210   8.026   1.083   8.095 -0.5419 -0.5898  0.9610
   17MOL0     N 2211   8.575   0.626   7.893  0.6598  0.0799  0.2724
   17MOL0     N 2212   8.611   0.645   7.771  0.0967  0.9103 -0.0140
   17MOL0     C 2213   9.837   0.803   7.410  0.4090  1.1032 -0.7880
   17MOL0     C 2214   9.971   0.772   7.422 -0.1213  0.4523 -1.3201
   17MOL0     C 2215  10.356   0.504   7.361 -1.0899  0.0146  0.8817
   17MOL0     C 2216  10.429   0.392   7.315 -0.6203 -0.8797 -0.1022
   17MOL0     C 2217  10.564   0.369   7.351  0.4591 -0.0269  0.3940
   17MOL0     C 2218  10.635   0.465   7.429  0.8518  0.2812  0.4911
   17MOL0     O 2219  10.760   0.442   7.471 -0.6819 -0.4507  0.0090
   17MOL0     C 2220  10.832   0.321   7.437 -0.7644 -0.3493  0.8557
   17MOL0     C 2221  10.980   0.332   7.435 -1.1249  0.0718 -0.8593
   17MOL0     C 2222  11.029   0.361   7.579 -0.0564  0.2827 -0.0664
   17MOL0     C 2223  11.188   0.370   7.583  0.0220 -0.0997 -0.0237
   17MOL0     C 2224  11.243   0.483   7.506  0.8381  0.0921 -0.1694
   17MOL0     C 2225  11.302   0.569   7.448 -0.8771 -0.9057  0.0806
   17MOL0     C 2226  10.560   0.582   7.462  0.0462 -0.1348 -0.8239
   17MOL0     C 2227  10.435   0.604   7.420  0.1574 -0.7528 -0.2525
   17MOL0     H 2228   9.960   0.448   7.322 -0.4611 -1.2602  1.8866
   17MOL0     H 2229   9.703   0.515   7.297 -1.8787  1.7166 -0.3005
   17MOL0     H 2230   9.482   0.575   7.370 -0.4059 -1.0122  0.5442
   17MOL0     H 2231   9.545   0.623   7.529 -1.5737  1.6097  0.5224
   17MOL0     H 2232   9.435   0.842   7.505  0.8274  1.3539 -0.2623
   17MOL0     H 2233   9.347   0.773   7.363  3.3740 -0.3432 -0.7875
   17MOL0     H 2234   9.278   0.579   7.539  0.3624 -0.0672 -1.1048
   17MOL0     H 2235   9.337   0.692   7.659  1.5627 -2.1694 -0.1519
   17MOL0     H 2236   9.177   0.872   7.553  0.2586  0.6286  0.3917
   17MOL0     H 2237   9.099   0.721   7.472 -1.2116 -1.2655  0.7510
   17MOL0     H 2238   9.053   0.632   7.681 -0.0800 -0.0175 -0.8172
   17MOL0     H 2239   9.147   0.761   7.765  0.8175  1.6547 -0.3030
   17MOL0     H 2240   8.920   0.798   7.793  1.1786  0.5214  0.5551
   17MOL0     H 2241   8.979   0.926   7.672  0.3052  0.2921  1.3173
   17MOL0     H 2242   8.878   0.829   7.500 -2.7734  2.8910  1.0699
   17MOL0     H 2243   8.849   0.670   7.580  0.9858  0.1332  0.8248
   17MOL0     H 2244   8.641   0.784   7.541  0.7863  0.2051 -1.0158
   17MOL0     H 2245   8.713   0.933   7.613  0.3167 -0.5033 -1.3990
   17MOL0     H 2246   8.654   0.951   7.888  0.5523  0.5835 -1.1813
   17MOL0     H 2247   8.574   0.689   8.146  1.0501  0.0257 -0.3729
   17MOL0     H 2248   8.647   0.844   8.127  2.2627 -3.0152 -0.7875
   17MOL0     H 2249   8.347   0.790   8.068  2.5937 -1.0088 -0.4970
   17MOL0     H 2250   8.422   0.942   8.041 -0.7198  1.0610  0.9963
   17MOL0     H 2251   8.464   0.986   8.256 -3.2507  2.8515 -3.3855
   17MOL0     H 2252   8.460   0.813   8.308  0.1791  0.5747  1.1781
   17MOL0     H 2253   8.279   0.952   8.405 -0.9824  1.8968  0.1222
   17MOL0     H 2254   8.212   0.838   8.271  1.1554 -0.7638 -0.1234
   17MOL0     H 2255   8.040   0.982   8.414 -2.2497  1.2128  1.5725
   17MOL0     H 2256   7.686   1.017   8.398 -1.6254 -2.1331  1.6075
   17MOL0     H 2257   7.755   0.857   8.411 -1.4101 -0.2848 -1.7962
   17MOL0     H 2258   7.830   0.992   8.498  1.6237 -2.1068 -0.0483
   17MOL0     H 2259   7.446   0.903   7.954  2.2825 -2.1740 -0.4493
   17MOL0     H 2260   7.215   0.840   7.937 -1.0601  2.8573  0.2581
   17MOL0     H 2261   6.990   0.654   8.304  0.2259 -0.0723  0.0995
   17MOL0     H 2262   6.966   0.831   8.311 -1.5519 -0.9467  1.2885
   17MOL0     H 2263   6.758   0.743   8.281 -1.1685  1.2300 -0.5104
   17MOL0     H 2264   6.794   0.786   8.114  1.6638  2.1235  1.0245
   17MOL0     H 2265   6.778   0.512   8.255  2.3106 -0.4666 -0.4243
   17MOL0     H 2266   6.870   0.525   8.106 -0.7274 -0.5336  0.0272
   17MOL0     H 2267   6.684   0.626   7.980  1.2934  1.1405  0.7803
   17MOL0     H 2268   6.670   0.455   8.027 -0.4335 -1.3322  3.7686
   17MOL0     H 2269   6.530   0.703   8.121  0.6125 -0.3279 -1.3559
   17MOL0     H 2270   6.543   0.550   8.225  1.6427  0.0925  0.1744
   17MOL0     H 2271   6.319   0.560   8.116  2.1062  3.8354  1.6097
   17MOL0     H 2272   6.387   0.584   7.959 -2.2213  0.4263  0.9286
   17MOL0     H 2273   6.433   0.338   8.139 -0.5219 -1.8058 -1.1597
   17MOL0     H 2274   6.501   0.351   7.979  1.3919  1.7313  0.6640
   17MOL0     H 2275   6.198   0.359   8.058 -0.5253  2.0977 -0.9691
   17MOL0     H 2276   6.284   0.221   7.980  0.0012  0.4548  2.1713
   17MOL0     H 2277   7.201   0.720   8.347  0.0591 -1.4304 -1.0940
   17MOL0     H 2278   7.443   0.806   8.369 -0.5125 -1.1693  0.0896
   17MOL0     H 2279   7.862   1.090   7.967  2.1573  0.2948 -1.0944
   17MOL0     H 2280   8.087   1.117   8.011 -1.1644  0.9404  1.0999
   17MOL0     H 2281   9.791   0.897   7.439 -1.5231 -0.0416  0.0615
   17MOL0     H 2282  10.041   0.848   7.453 -1.0491  0.4965  0.8385
   17MOL0     H 2283  10.382   0.310   7.263 -2.0225  2.2219 -4.2107
   17MOL0     H 2284  10.615   0.278   7.321  2.5382  0.5128  1.9970
   17MOL0     H 2285  10.793   0.231   7.485 -0.2520 -0.4889  1.0168
   17MOL0     H 2286  10.812   0.308   7.330  0.5755 -1.5341  0.7321
   17MOL0     H 2287  11.015   0.417   7.376  1.3051 -0.2180  0.0855
   17MOL0     H 2288  11.028   0.240   7.400 -1.4158  0.2674 -1.8104
   17MOL0     H 2289  10.989   0.278   7.638  0.1107  0.0792 -0.2374
   17MOL0     H 2290  10.989   0.455   7.616 -4.4454 -2.0259  1.7012
   17MOL0     H 2291  11.223   0.275   7.541 -2.0108 -1.7875  1.8172
   17MOL0     H 2292  11.200   0.397   7.688 -2.6138 -1.2801  0.6694
   17MOL0     H 2293  11.351   0.641   7.384  1.8275 -2.3397  0.3721
   17MOL0     H 2294  10.615   0.652   7.524 -1.1785  1.9320 -1.9719
   17MOL0     H 2295  10.383   0.698   7.438  1.5483  0.6211 -2.9068
   18MOL0     O 2296   0.462  11.096   6.373 -0.0439  0.4310  0.6086
   18MOL0     C 2297   0.502  11.170   6.464 -0.2201  0.0632  0.3275
   18MOL0     O 2298   0.452  11.296   6.487 -0.1168 -0.2000  0.1524
   18MOL0     C 2299   0.338  11.335   6.417 -0.2198  0.9642 -0.0606
   18MOL0     C 2300   0.213  11.276   6.422 -0.4836  0.0707  0.3563
   18MOL0     C 2301   0.104  11.311   6.344 -0.2981 -0.4380 -0.1491
   18MOL0     C 2302   0.117  11.415   6.250 -0.0204 -0.0073 -0.8661
   18MOL0     O 2303   0.013  11.432   6.162  0.4150  0.5028  0.3973
   18MOL0     C 2304  -0.107  11.477   6.218  0.4196  0.2064  0.0934
   18MOL0     C 2305  -0.210  11.528   6.103 -0.5917 -0.0382 -0.2087
   18MOL0     C 2306  -0.233  11.415   6.012 -0.2640  0.0760 -0.5167
   18MOL0     C 2307  -0.338  11.438   5.901 -0.3890 -0.5409  0.0782
   18MOL0     C 2308  -0.483  11.457   5.952  0.9068 -0.1742 -0.0176
   18MOL0     C 2309  -0.585  11.520   5.842  0.1148  0.6839  0.7548
   18MOL0     C 2310  -0.654  11.411   5.766  0.1586 -0.1645  0.3237
   18MOL0     C 2311  -0.730  11.464   5.649 -0.2527 -0.7680  0.1885
   18MOL0     N 2312  -0.860  11.536   5.686 -0.9296  0.2944 -0.1497
   18MOL0     C 2313  -0.916  11.639   5.610 -0.2923  0.1855 -0.1093
   18MOL0     C 2314  -1.027  11.668   5.670  0.5787  0.0090 -0.3189
   18MOL0     C 2315  -1.126  11.771   5.627 -0.6210 -0.3486 -0.3393
   18MOL0     C 2316  -1.271  11.760   5.652  0.6257  0.2283 -0.8014
   18MOL0     C 2317  -1.315  11.837   5.774  0.0863 -0.7448 -0.3953
   18MOL0     C 2318  -1.464  11.800   5.801  0.1631 -0.6564  0.6247
   18MOL0     O 2319  -1.562  11.866   5.711  0.1370  0.7958  0.4732
   18MOL0     C 2320  -1.698  11.833   5.727  0.6089  0.3435 -0.0158
   18MOL0     C 2321  -1.771  11.800   5.618 -0.2830 -0.4961 -0.1827
   18MOL0     C 2322  -1.903  11.763   5.619  0.4378  0.1325  0.1335
   18MOL0     C 2323  -1.960  11.718   5.491 -0.4996  0.1045 -0.2935
   18MOL0     C 2324  -1.970  11.765   5.749  0.4323 -0.4224 -0.1281
   18MOL0     C 2325  -2.113  11.728   5.763 -0.3916  0.4963 -1.1454
   18MOL0     O 2326  -2.146  11.681   5.893  0.0575 -0.0242  0.6036
   18MOL0     C 2327  -2.281  11.699   5.930  0.5874  0.2895  0.4661
   18MOL0     C 2328  -2.310  11.776   6.046  0.8252 -0.3240  0.2859
   18MOL0     C 2329  -2.446  11.779   6.081  0.1198 -0.0483  0.9205
   18MOL0     C 2330  -2.540  11.713   5.999 -0.2862 -0.1704  0.4817
   18MOL0     O 2331  -2.669  11.711   6.042 -0.4535 -0.1893 -0.5369
   18MOL0     C 2332  -2.765  11.761   5.947 -0.0073 -0.1000 -0.1499
   18MOL0     C 2333  -2.900  11.777   6.018 -0.0875 -0.2740  0.9427
   18MOL0     C 2334  -2.989  11.659   5.979 -0.0494 -0.0946 -0.4300
   18MOL0     C 2335  -3.112  11.671   6.062  0.2914 -0.0531 -0.0580
   18MOL0     C 2336  -3.214  11.553   6.033  0.1139 -0.3991 -0.2445
   18MOL0     C 2337  -3.341  11.600   6.104 -0.3672 -0.2467 -0.1934
   18MOL0     C 2338  -3.448  11.489   6.088  0.4443 -0.6926  0.1226
   18MOL0     C 2339  -3.583  11.547   6.134  0.1204  0.7813 -0.3136
   18MOL0    Cl 2340  -3.703  11.397   6.151  0.4576 -0.1543 -0.0551
   18MOL0     C 2341  -2.512  11.641   5.886  0.4959  0.1336  0.1199
   18MOL0     C 2342  -2.379  11.624   5.855  1.0372 -0.1612 -0.6039
   18MOL0     O 2343  -2.193  11.767   5.682 -0.1560  0.4122 -0.2789
   18MOL0     C 2344  -1.893  11.804   5.861 -0.0966  0.2423 -0.6853
   18MOL0     C 2345  -1.762  11.831   5.848 -0.7635 -1.4342 -0.1664
   18MOL0     N 2346  -1.042  11.588   5.784  0.4212 -0.3450 -0.1533
   18MOL0     N 2347  -0.935  11.509   5.798  0.2275  0.1420 -0.3021
   18MOL0     C 2348   0.248  11.477   6.238 -0.2198  0.6808  1.0878
   18MOL0     C 2349   0.354  11.441   6.326 -0.9110  0.2894  0.9176
   18MOL0     C 2350   0.623  11.140   6.544 -0.1448  0.0638  0.6289
   18MOL0     C 2351   0.653  11.006   6.576  1.3529 -0.6190 -0.2142
   18MOL0     C 2352   0.760  10.974   6.659  0.5663 -0.2129  0.1991
   18MOL0     C 2353   0.839  11.072   6.721 -0.5333 -0.1225 -0.2096
   18MOL0     O 2354   0.907  11.033   6.837  0.6708  0.1986  0.3876
   18MOL0     C 2355   1.015  11.113   6.881 -0.2794 -0.6846  0.1019
   18MOL0     C 2356   1.140  11.047   6.832  0.6657 -0.7879 -0.5792
   18MOL0     C 2357   1.255  11.112   6.912  0.1094  0.4576  0.8764
   18MOL0     C 2358   1.391  11.064   6.870  0.1742 -0.3755 -0.7318
   18MOL0     C 2359   1.491  11.142   6.946  0.2227  0.9591  0.8237
   18MOL0     C 2360   1.579  11.213   6.986 -0.4630  0.0387  0.0846
   18MOL0     C 2361   0.805  11.203   6.697  0.7013  0.3624 -0.2567
   18MOL0     C 2362   0.695  11.241   6.617 -0.2865  0.1023 -0.1320
   18MOL0     H 2363   0.203  11.195   6.495  1.2059  0.6721  1.3094
   18MOL0     H 2364   0.012  11.253   6.342 -0.8497  0.4176 -0.8118
   18MOL0     H 2365  -0.153  11.391   6.266 -0.2100 -0.8648 -2.2665
   18MOL0     H 2366  -0.094  11.560   6.288 -0.2843  0.8317 -0.4912
   18MOL0     H 2367  -0.300  11.561   6.157  0.8926  0.5565  2.0567
   18MOL0     H 2368  -0.170  11.607   6.039 -3.0963  0.8186 -0.8286
   18MOL0     H 2369  -0.141  11.389   5.958  0.5532  1.9086 -0.0901
   18MOL0     H 2370  -0.270  11.328   6.068  0.6222 -0.2718 -0.4566
   18MOL0     H 2371  -0.307  11.528   5.847 -3.1079  1.3589  1.4396
   18MOL0     H 2372  -0.341  11.360   5.823 -2.1428 -2.1602  1.6576
   18MOL0     H 2373  -0.532  11.369   5.995 -2.9580  1.1571 -1.2199
   18MOL0     H 2374  -0.487  11.539   6.025 -0.2306 -0.5793  0.3956
   18MOL0     H 2375  -0.665  11.567   5.899 -1.1276  1.0517 -1.2048
   18MOL0     H 2376  -0.543  11.597   5.777 -3.5306  1.2768 -1.1142
   18MOL0     H 2377  -0.578  11.346   5.722 -1.5000 -0.9480 -1.5932
   18MOL0     H 2378  -0.717  11.347   5.829  0.7422 -0.8469  0.2295
   18MOL0     H 2379  -0.770  11.391   5.578 -1.5082  1.0754 -1.0894
   18MOL0     H 2380  -0.663  11.525   5.586 -0.4512 -2.1740 -1.4648
   18MOL0     H 2381  -0.883  11.690   5.520 -1.4825 -0.4411 -0.9319
   18MOL0     H 2382  -1.091  11.872   5.654  1.0136 -0.6069 -1.3506
   18MOL0     H 2383  -1.114  11.769   5.519 -1.1518  1.4697 -0.4770
   18MOL0     H 2384  -1.300  11.656   5.666  0.7620  0.1465 -1.1062
   18MOL0     H 2385  -1.332  11.795   5.568  0.6339  0.1480 -0.8403
   18MOL0     H 2386  -1.291  11.942   5.758  1.4130 -1.1586 -1.2435
   18MOL0     H 2387  -1.249  11.799   5.853 -0.3257  0.3942  0.5240
   18MOL0     H 2388  -1.481  11.840   5.901  1.2830 -1.3341  1.1091
   18MOL0     H 2389  -1.469  11.691   5.807 -0.8862 -0.7251 -0.9456
   18MOL0     H 2390  -1.718  11.805   5.523 -0.4377  1.6066 -0.1869
   18MOL0     H 2391  -1.917  11.618   5.477  0.5857  0.4673  0.3124
   18MOL0     H 2392  -2.069  11.721   5.483 -0.4833  1.6246 -0.1949
   18MOL0     H 2393  -1.917  11.787   5.418  2.7439 -0.6426  0.7432
   18MOL0     H 2394  -2.231  11.832   6.095 -0.5672  0.8046  1.3143
   18MOL0     H 2395  -2.486  11.829   6.168  1.2811 -1.4946  2.3319
   18MOL0     H 2396  -2.733  11.856   5.903 -1.1786 -0.3208 -1.5612
   18MOL0     H 2397  -2.782  11.690   5.865  0.2604 -2.3496  1.6225
   18MOL0     H 2398  -2.900  11.783   6.127 -0.4711 -0.1904  0.9383
   18MOL0     H 2399  -2.941  11.869   5.976  0.8094 -0.2478  0.0799
   18MOL0     H 2400  -2.935  11.568   6.008 -1.8594 -0.6070  1.6442
   18MOL0     H 2401  -3.005  11.651   5.871 -0.2109 -0.8488 -0.3551
   18MOL0     H 2402  -3.078  11.666   6.166 -2.5052  0.1882  0.9408
   18MOL0     H 2403  -3.165  11.766   6.050 -0.1408 -0.0889  1.3992
   18MOL0     H 2404  -3.189  11.451   6.065 -2.1839 -1.2008 -0.8242
   18MOL0     H 2405  -3.233  11.554   5.926 -0.2988 -1.8230 -0.2033
   18MOL0     H 2406  -3.319  11.601   6.211 -0.2329 -1.9915 -0.1781
   18MOL0     H 2407  -3.386  11.696   6.077 -2.0378 -1.5326 -2.2427
   18MOL0     H 2408  -3.429  11.405   6.156 -1.5337 -0.4075  1.0932
   18MOL0     H 2409  -3.445  11.455   5.984  2.1249 -2.2596  0.6162
   18MOL0     H 2410  -3.611  11.626   6.064  0.3760  3.0312  1.9259
   18MOL0     H 2411  -3.576  11.600   6.230 -2.3782  2.1733 -0.8117
   18MOL0     H 2412  -2.596  11.597   5.832 -1.4984  1.3064  2.0689
   18MOL0     H 2413  -2.340  11.553   5.783  1.2210 -0.1270 -0.5384
   18MOL0     H 2414  -1.932  11.811   5.962  1.8789  2.7163  0.0035
   18MOL0     H 2415  -1.714  11.850   5.944 -1.6373 -1.4235  0.2698
   18MOL0     H 2416   0.274  11.556   6.169  1.5025  1.1509  2.2255
   18MOL0     H 2417   0.449  11.492   6.326 -1.5252  1.4978 -0.2605
   18MOL0     H 2418   0.585  10.930   6.540  0.0695  0.3070  0.1792
   18MOL0     H 2419   0.778  10.870   6.687 -2.3919 -0.3676  1.9979
   18MOL0     H 2420   1.016  11.215   6.841  1.4481 -1.7339 -2.8252
   18MOL0     H 2421   1.015  11.109   6.991 -1.6103 -2.4013  0.0892
   18MOL0     H 2422   1.163  11.066   6.727  1.9649 -2.0039 -0.5400
   18MOL0     H 2423   1.136  10.939   6.847  2.3279 -1.1056 -2.1279
   18MOL0     H 2424   1.250  11.080   7.017  2.7778 -2.3038  0.3206
   18MOL0     H 2425   1.245  11.219   6.893  0.1236  0.3142  0.0415
   18MOL0     H 2426   1.399  11.093   6.765  2.1400  2.5438  0.0920
   18MOL0     H 2427   1.401  10.956   6.881 -0.3448 -0.2508  1.4110
   18MOL0     H 2428   1.651  11.281   7.028 -1.1458 -0.0751  1.4985
   18MOL0     H 2429   0.854  11.281   6.756 -0.0098  0.4109  0.2787
   18MOL0     H 2430   0.670  11.345   6.596  2.1239  0.4805 -1.5820
   19MOL0     O 2431   2.515   7.689   0.407  0.0508  0.0634 -0.2894
   19MOL0     C 2432   2.622   7.752   0.415  0.0810  0.5100  0.2436
   19MOL0     O 2433   2.635   7.875   0.466  0.1673 -0.1120  0.1502
   19MOL0     C 2434   2.529   7.931   0.530 -1.3399 -0.3175 -0.0124
   19MOL0     C 2435   2.445   8.028   0.471  0.0242  0.6654 -0.5171
   19MOL0     C 2436   2.324   8.059   0.513  0.1282  0.5778  0.2526
   19MOL0     C 2437   2.288   8.019   0.637  0.2259  0.1519  0.5840
   19MOL0     O 2438   2.165   8.063   0.687  0.2406  0.5313  0.5351
   19MOL0     C 2439   2.091   7.988   0.787  0.5709 -0.1755 -0.0457
   19MOL0     C 2440   1.938   8.021   0.784 -0.0931 -0.3237 -0.1781
   19MOL0     C 2441   1.877   7.936   0.890  0.0927  0.4736  0.6239
   19MOL0     C 2442   1.727   7.964   0.904 -0.2365  0.1648  0.4247
   19MOL0     C 2443   1.662   7.887   1.019  0.5279 -0.3662 -0.6002
   19MOL0     C 2444   1.506   7.886   1.000  0.4279 -0.0894  0.1008
   19MOL0     C 2445   1.431   7.785   1.082  1.4188 -0.3458  0.1165
   19MOL0     C 2446   1.281   7.793   1.053  0.5385 -0.8924 -0.2788
   19MOL0     N 2447   1.198   7.702   1.137 -1.2248 -0.5423 -1.3372
   19MOL0     C 2448   1.094   7.739   1.219 -0.0433  0.0492 -0.5151
   19MOL0     C 2449   1.046   7.623   1.278 -0.2347  0.7433 -1.3426
   19MOL0     C 2450   0.937   7.601   1.379 -0.2433 -0.1259  0.6390
   19MOL0     C 2451   0.946   7.704   1.495  0.1243  0.3450 -0.7265
   19MOL0     C 2452   0.806   7.713   1.555 -0.0814 -0.2311  0.3660
   19MOL0     C 2453   0.785   7.808   1.675  0.8190 -0.0688 -0.6660
   19MOL0     O 2454   0.799   7.742   1.806  0.0913 -0.0721  0.6303
   19MOL0     C 2455   0.684   7.700   1.862  1.3884 -0.1848  0.0426
   19MOL0     C 2456   0.594   7.613   1.800  0.8120  0.7076 -0.8823
   19MOL0     C 2457   0.478   7.564   1.861 -0.1494  0.8110 -0.4689
   19MOL0     C 2458   0.383   7.470   1.783  0.1359  1.0908 -0.4322
   19MOL0     C 2459   0.457   7.595   1.998 -0.1910 -0.6588 -0.6815
   19MOL0     C 2460   0.336   7.558   2.075  0.4957 -0.0196  0.5539
   19MOL0     O 2461   0.213   7.548   2.004 -0.3732 -0.8676  0.0528
   19MOL0     C 2462   0.098   7.538   2.079  0.0780 -0.8526  0.2645
   19MOL0     C 2463  -0.014   7.472   2.015 -0.1464  0.9259 -0.2483
   19MOL0     C 2464  -0.140   7.455   2.081 -0.7396 -0.6203  0.3392
   19MOL0     C 2465  -0.149   7.501   2.214 -0.2911 -0.0782  0.0225
   19MOL0     O 2466  -0.267   7.498   2.282 -0.2260 -0.1040  0.2755
   19MOL0     C 2467  -0.370   7.402   2.246  1.3441  0.8332 -0.3984
   19MOL0     C 2468  -0.510   7.447   2.303 -0.6106 -0.1271 -0.1815
   19MOL0     C 2469  -0.631   7.364   2.262 -0.1018  0.0493 -0.1394
   19MOL0     C 2470  -0.704   7.395   2.136  0.1321 -0.5792 -0.3407
   19MOL0     C 2471  -0.822   7.302   2.105 -0.1090  0.0200 -0.1505
   19MOL0     C 2472  -0.895   7.361   1.977 -0.1725 -0.1883  0.2854
   19MOL0     C 2473  -1.000   7.262   1.922  0.2186 -0.3365  0.4221
   19MOL0     C 2474  -1.109   7.241   2.023  0.0968  0.1276  1.1477
   19MOL0    Cl 2475  -1.202   7.391   2.065 -0.5662 -0.1644 -0.1503
   19MOL0     C 2476  -0.043   7.568   2.279  0.5382  0.2557 -0.1940
   19MOL0     C 2477   0.079   7.583   2.214  0.1994 -0.6119 -0.1920
   19MOL0     O 2478   0.355   7.529   2.198 -0.1474 -0.2625  0.4704
   19MOL0     C 2479   0.548   7.677   2.072 -0.0754  0.1437 -0.1093
   19MOL0     C 2480   0.656   7.738   1.995  0.2120  0.4316 -0.3219
   19MOL0     N 2481   1.118   7.517   1.225 -0.7959 -0.3561 -0.3156
   19MOL0     N 2482   1.217   7.565   1.148 -0.3243  0.5885 -0.2098
   19MOL0     C 2483   2.375   7.945   0.716  0.4002  0.2779 -0.7752
   19MOL0     C 2484   2.494   7.895   0.664 -0.2985 -0.0739 -0.4650
   19MOL0     C 2485   2.751   7.678   0.375  0.3614 -0.1439 -0.1442
   19MOL0     C 2486   2.748   7.540   0.345 -0.1906  0.5602 -0.4149
   19MOL0     C 2487   2.857   7.468   0.299 -0.5504 -0.2363 -0.4227
   19MOL0     C 2488   2.982   7.538   0.292  0.0834 -0.2093 -0.0334
   19MOL0     O 2489   3.107   7.485   0.256  0.0020 -0.7020  0.2160
   19MOL0     C 2490   3.120   7.344   0.232 -0.8498  0.5793 -0.3507
   19MOL0     C 2491   3.263   7.291   0.220  0.9369 -0.4252 -0.3348
   19MOL0     C 2492   3.316   7.326   0.079 -0.6460 -0.4063 -0.6413
   19MOL0     C 2493   3.444   7.258   0.059 -0.1013 -0.2658  0.2316
   19MOL0     C 2494   3.541   7.294   0.155  0.4167 -0.1682  0.4944
   19MOL0     C 2495   3.626   7.335   0.238  0.0038  0.2032  0.3953
   19MOL0     C 2496   2.983   7.676   0.325 -0.5580  0.9729 -0.5163
   19MOL0     C 2497   2.872   7.745   0.362 -0.3259 -0.5269  0.1313
   19MOL0     H 2498   2.475   8.056   0.370  1.2465 -0.3499 -0.4753
   19MOL0     H 2499   2.261   8.121   0.450  1.0222  0.7893 -0.4538
   19MOL0     H 2500   2.112   7.881   0.779  1.3488  0.0585 -1.5733
   19MOL0     H 2501   2.147   8.016   0.877  1.0387  0.3002 -0.4790
   19MOL0     H 2502   1.916   8.128   0.793 -0.2625 -0.3235 -0.5803
   19MOL0     H 2503   1.905   7.993   0.684 -0.3773  0.4203 -0.3000
   19MOL0     H 2504   1.898   7.830   0.874 -4.1827 -0.4436 -0.0790
   19MOL0     H 2505   1.917   7.972   0.985 -2.2088  1.5981  1.2466
   19MOL0     H 2506   1.719   8.073   0.913 -1.1262  0.2300 -0.8419
   19MOL0     H 2507   1.676   7.941   0.809  1.9821 -0.4678 -0.6825
   19MOL0     H 2508   1.707   7.787   1.022 -1.8581 -1.4766  0.9182
   19MOL0     H 2509   1.678   7.936   1.115  2.4357  0.5284 -1.3271
   19MOL0     H 2510   1.462   7.984   1.023 -1.2376 -0.7392 -0.1777
   19MOL0     H 2511   1.495   7.873   0.892 -0.6882  0.3206  0.1416
   19MOL0     H 2512   1.471   7.685   1.061 -1.4199 -1.0038 -3.1536
   19MOL0     H 2513   1.449   7.813   1.186  2.0872 -3.1642  0.8376
   19MOL0     H 2514   1.262   7.765   0.949  0.6670 -0.2758 -0.4730
   19MOL0     H 2515   1.247   7.897   1.063 -1.2729 -1.4419 -0.4779
   19MOL0     H 2516   1.062   7.839   1.249 -0.8554 -0.8611  1.9382
   19MOL0     H 2517   0.841   7.610   1.327 -0.7269 -0.4815  1.4428
   19MOL0     H 2518   0.939   7.496   1.410  1.1443 -0.9971 -2.0771
   19MOL0     H 2519   0.990   7.800   1.465  3.4707 -0.9885 -0.5490
   19MOL0     H 2520   1.017   7.655   1.562  0.5645  0.3348 -1.1888
   19MOL0     H 2521   0.777   7.611   1.583 -0.3036 -0.4955 -0.7865
   19MOL0     H 2522   0.739   7.748   1.476 -1.6972  1.1722  2.2701
   19MOL0     H 2523   0.694   7.867   1.666  0.5652 -0.1513  1.0165
   19MOL0     H 2524   0.862   7.885   1.676 -0.7964  1.6248  1.5346
   19MOL0     H 2525   0.609   7.579   1.697  0.3186 -2.3204 -0.0578
   19MOL0     H 2526   0.415   7.412   1.696 -0.8767  2.5570 -1.8524
   19MOL0     H 2527   0.331   7.402   1.851  4.1518 -0.2491  1.6137
   19MOL0     H 2528   0.299   7.522   1.736  0.1283  0.2209 -1.4146
   19MOL0     H 2529  -0.002   7.421   1.919  1.2042  0.6429  0.0543
   19MOL0     H 2530  -0.207   7.398   2.018  0.5533 -0.4125 -1.3011
   19MOL0     H 2531  -0.389   7.401   2.138 -1.4231  0.5318  0.0227
   19MOL0     H 2532  -0.347   7.301   2.281 -0.9779 -0.6676 -2.8459
   19MOL0     H 2533  -0.493   7.446   2.411  1.1365  1.9192 -0.3643
   19MOL0     H 2534  -0.521   7.549   2.266  0.2228  0.0718  0.1112
   19MOL0     H 2535  -0.699   7.385   2.345 -1.3919  1.0087 -1.3700
   19MOL0     H 2536  -0.601   7.259   2.267  0.1436  0.1156 -0.2052
   19MOL0     H 2537  -0.732   7.500   2.134  1.0287 -0.3351 -0.8467
   19MOL0     H 2538  -0.629   7.399   2.057 -1.3556 -1.2474 -1.8313
   19MOL0     H 2539  -0.889   7.286   2.191  1.2511  1.3517  1.2353
   19MOL0     H 2540  -0.772   7.207   2.087  1.3537 -0.1733  3.8709
   19MOL0     H 2541  -0.933   7.460   2.005 -1.2833 -0.1950 -1.1113
   19MOL0     H 2542  -0.821   7.379   1.898 -0.4571  2.4113  0.5046
   19MOL0     H 2543  -0.948   7.168   1.900 -0.6668 -0.5191 -1.0594
   19MOL0     H 2544  -1.044   7.300   1.829  2.1103  1.2396  0.1010
   19MOL0     H 2545  -1.069   7.191   2.111  2.5491 -1.0491 -0.5286
   19MOL0     H 2546  -1.186   7.180   1.975  0.2802  0.2614  0.6737
   19MOL0     H 2547  -0.066   7.609   2.377 -1.7738 -1.3969  0.0434
   19MOL0     H 2548   0.152   7.642   2.267 -2.4269  1.1530  1.7235
   19MOL0     H 2549   0.523   7.713   2.171  0.6426 -0.8256  0.4320
   19MOL0     H 2550   0.720   7.809   2.047 -0.5589  1.3218 -0.5659
   19MOL0     H 2551   2.345   7.908   0.814 -0.6870 -2.0020 -1.8897
   19MOL0     H 2552   2.551   7.818   0.716 -0.3005 -0.1642 -0.5948
   19MOL0     H 2553   2.655   7.485   0.339 -0.4172  1.0861 -2.7444
   19MOL0     H 2554   2.864   7.361   0.283  2.3210 -0.6227  2.4118
   19MOL0     H 2555   3.071   7.278   0.305  1.3479  1.3184  1.9883
   19MOL0     H 2556   3.058   7.323   0.145  0.7146  0.4470 -1.4921
   19MOL0     H 2557   3.271   7.182   0.224  1.9347 -0.3436  0.3040
   19MOL0     H 2558   3.317   7.327   0.308  0.5707 -0.3295 -0.1431
   19MOL0     H 2559   3.344   7.431   0.090  0.3183 -0.8945  2.4843
   19MOL0     H 2560   3.249   7.295  -0.002  0.2754  0.3792 -1.7395
   19MOL0     H 2561   3.474   7.279  -0.044  1.3213 -1.1559  0.4417
   19MOL0     H 2562   3.439   7.149   0.061  2.6262 -0.4567 -0.7444
   19MOL0     H 2563   3.695   7.374   0.310 -0.0112 -1.0997  1.1385
   19MOL0     H 2564   3.065   7.743   0.300  0.5075 -0.7150 -1.7324
   19MOL0     H 2565   2.867   7.852   0.376 -3.3377 -0.7554  1.6388
   20MOL0     O 2566   0.936   4.709   6.654  0.2562 -0.1086  0.8033
   20MOL0     C 2567   0.962   4.662   6.541  0.5395  0.1700 -0.2645
   20MOL0     O 2568   0.866   4.616   6.454 -0.4852  0.2035 -0.1482
   20MOL0     C 2569   0.749   4.567   6.500 -0.9150 -0.0862 -0.5001
   20MOL0     C 2570   0.746   4.429   6.525 -0.2544 -0.5610 -0.5398
   20MOL0     C 2571   0.632   4.373   6.576 -0.4132 -0.3406  0.2147
   20MOL0     C 2572   0.524   4.455   6.617 -0.6696 -0.1467  1.1020
   20MOL0     O 2573   0.419   4.381   6.668 -0.5774 -0.9866 -0.1465
   20MOL0     C 2574   0.301   4.443   6.704 -0.0208  0.0481 -0.2268
   20MOL0     C 2575   0.178   4.350   6.710  0.3096 -0.0776  0.4962
   20MOL0     C 2576   0.049   4.425   6.710 -1.2906 -1.0477  0.2829
   20MOL0     C 2577  -0.082   4.351   6.729 -0.1313  0.1048 -0.3838
   20MOL0     C 2578  -0.096   4.293   6.868 -0.2526 -0.0335 -0.4791
   20MOL0     C 2579  -0.215   4.196   6.882 -0.1732  0.4503  0.7733
   20MOL0     C 2580  -0.348   4.235   6.802  0.7965 -0.5220  0.5422
   20MOL0     C 2581  -0.456   4.135   6.842  0.0046  0.2070 -0.3961
   20MOL0     N 2582  -0.518   4.175   6.968 -0.7069 -0.2804  0.2968
   20MOL0     C 2583  -0.595   4.280   6.995 -0.7251  0.2149 -0.3461
   20MOL0     C 2584  -0.627   4.273   7.123  1.0056 -0.2127 -0.6776
   20MOL0     C 2585  -0.702   4.372   7.214 -0.5169 -0.3842 -0.3702
   20MOL0     C 2586  -0.761   4.507   7.161  0.3380 -0.6137 -0.0075
   20MOL0     C 2587  -0.867   4.552   7.263  0.5586 -0.6452  0.4711
   20MOL0     C 2588  -1.014   4.499   7.266 -0.9056 -0.3390  0.8911
   20MOL0     O 2589  -1.077   4.556   7.384 -0.0058  0.9405 -0.4761
   20MOL0     C 2590  -1.204   4.519   7.408 -0.0534 -0.3473  0.3072
   20MOL0     C 2591  -1.250   4.543   7.537 -0.2818 -0.1829 -0.1613
   20MOL0     C 2592  -1.373   4.501   7.580 -0.2942  0.2343  0.0445
   20MOL0     C 2593  -1.401   4.548   7.718  0.1068  0.0474 -0.5673
   20MOL0     C 2594  -1.445   4.417   7.502 -0.0820  0.7850  0.6475
   20MOL0     C 2595  -1.568   4.343   7.547 -0.1287  0.1947 -1.5660
   20MOL0     O 2596  -1.655   4.288   7.459 -0.1604  0.1934 -0.0981
   20MOL0     C 2597  -1.766   4.223   7.484 -0.8601  0.2061 -0.1600
   20MOL0     C 2598  -1.809   4.173   7.611  0.4861 -0.1148 -0.5220
   20MOL0     C 2599  -1.932   4.108   7.619 -0.8932  0.5749  0.1383
   20MOL0     C 2600  -2.009   4.082   7.502 -0.3504 -0.1532 -0.4444
   20MOL0     O 2601  -2.133   4.039   7.519 -0.2832  0.6801 -0.0408
   20MOL0     C 2602  -2.145   3.899   7.481 -0.3239 -0.1144 -0.2008
   20MOL0     C 2603  -2.293   3.880   7.486  0.0754  0.1005  0.7477
   20MOL0     C 2604  -2.339   3.739   7.454 -1.2497  0.0212  0.9137
   20MOL0     C 2605  -2.486   3.720   7.443  0.6884  0.7778  0.4038
   20MOL0     C 2606  -2.531   3.574   7.421  0.4087 -0.2743  0.7986
   20MOL0     C 2607  -2.667   3.568   7.362  0.7232 -0.7180  0.0825
   20MOL0     C 2608  -2.711   3.417   7.339 -1.6703 -1.5521  0.6088
   20MOL0     C 2609  -2.853   3.387   7.322  0.9371  0.0565  0.0141
   20MOL0    Cl 2610  -2.909   3.486   7.192 -0.0676  0.0979  0.2508
   20MOL0     C 2611  -1.969   4.142   7.376 -0.0761 -0.1978  0.8916
   20MOL0     C 2612  -1.843   4.195   7.372  0.0534 -0.1147  0.2145
   20MOL0     O 2613  -1.562   4.319   7.671  0.0199 -0.5041  0.7253
   20MOL0     C 2614  -1.411   4.400   7.365  0.5471 -0.7167 -0.2116
   20MOL0     C 2615  -1.288   4.457   7.320  0.0893  0.4717  0.1845
   20MOL0     N 2616  -0.580   4.149   7.176 -0.0362 -0.0680  0.2679
   20MOL0     N 2617  -0.509   4.099   7.085 -0.3167  0.2810 -0.7969
   20MOL0     C 2618   0.538   4.595   6.597  0.4130  0.4495 -0.9317
   20MOL0     C 2619   0.641   4.650   6.533 -1.2786  0.0113 -0.0032
   20MOL0     C 2620   1.099   4.679   6.488 -0.8085  0.5413 -0.3859
   20MOL0     C 2621   1.199   4.752   6.551 -0.8710  0.1238 -0.4128
   20MOL0     C 2622   1.322   4.760   6.481 -0.2593  0.1939 -0.6874
   20MOL0     C 2623   1.359   4.685   6.376 -0.0363 -0.2909  0.4509
   20MOL0     O 2624   1.481   4.690   6.317  0.4974 -0.2628  0.5325
   20MOL0     C 2625   1.601   4.723   6.386  0.5508 -0.4311  0.2797
   20MOL0     C 2626   1.625   4.606   6.488 -0.2017 -0.4797  0.1318
   20MOL0     C 2627   1.772   4.614   6.524  0.2698  0.0307 -0.7063
   20MOL0     C 2628   1.799   4.501   6.622 -0.5296  0.2792  0.2691
   20MOL0     C 2629   1.935   4.483   6.683 -0.9273  0.0251  0.2009
   20MOL0     C 2630   2.049   4.470   6.716 -0.9386 -0.2313  0.0076
   20MOL0     C 2631   1.262   4.599   6.317 -0.8533  0.0322  0.1418
   20MOL0     C 2632   1.131   4.609   6.367 -0.1378  0.0315 -0.0433
   20MOL0     H 2633   0.831   4.363   6.513 -0.7815 -1.6183  1.1362
   20MOL0     H 2634   0.618   4.267   6.596  0.7087 -0.8184 -1.3440
   20MOL0     H 2635   0.311   4.500   6.796  0.4530  0.0855 -0.2982
   20MOL0     H 2636   0.290   4.510   6.618  0.4385 -0.3393 -0.5995
   20MOL0     H 2637   0.190   4.282   6.625  2.4684  1.2950 -0.3728
   20MOL0     H 2638   0.184   4.300   6.807 -1.7106 -0.6298  0.3981
   20MOL0     H 2639   0.056   4.515   6.773  1.0599  0.4609 -1.9244
   20MOL0     H 2640   0.036   4.466   6.610 -1.4871 -1.3275  0.1940
   20MOL0     H 2641  -0.167   4.413   6.699 -1.2562 -0.7154  1.0073
   20MOL0     H 2642  -0.086   4.266   6.659 -1.2437  0.6025 -0.9583
   20MOL0     H 2643  -0.007   4.240   6.903  1.7569  3.2587 -0.0944
   20MOL0     H 2644  -0.112   4.369   6.946  1.8281 -0.1925  0.1897
   20MOL0     H 2645  -0.182   4.094   6.856 -0.5147  1.0675 -2.4691
   20MOL0     H 2646  -0.237   4.198   6.990  0.2175  3.4618  0.8702
   20MOL0     H 2647  -0.380   4.338   6.819 -0.0485 -0.7782  0.5559
   20MOL0     H 2648  -0.330   4.225   6.694  0.0860  0.7080  0.2938
   20MOL0     H 2649  -0.402   4.043   6.866  1.9872  1.9502  2.2761
   20MOL0     H 2650  -0.534   4.120   6.766  1.0016 -0.5421 -1.3095
   20MOL0     H 2651  -0.619   4.360   6.925 -1.8602 -0.3013 -0.5711
   20MOL0     H 2652  -0.771   4.299   7.258  0.6788 -0.7238  1.0507
   20MOL0     H 2653  -0.629   4.396   7.291 -2.2100  0.3324  1.0652
   20MOL0     H 2654  -0.807   4.495   7.063 -0.4899  2.9830 -0.2064
   20MOL0     H 2655  -0.672   4.571   7.153  1.8836 -2.4284  1.5480
   20MOL0     H 2656  -0.874   4.661   7.265 -0.0138 -0.6708  0.1075
   20MOL0     H 2657  -0.818   4.528   7.358  2.7833 -0.7703 -0.6275
   20MOL0     H 2658  -1.016   4.390   7.273  2.9891 -0.7171 -1.0932
   20MOL0     H 2659  -1.066   4.533   7.176 -0.2377  0.3371  0.7486
   20MOL0     H 2660  -1.195   4.597   7.613 -2.4967  1.1613  0.6094
   20MOL0     H 2661  -1.373   4.470   7.790 -2.0405 -0.5564 -0.3320
   20MOL0     H 2662  -1.348   4.638   7.748 -1.8594  1.1542 -0.2776
   20MOL0     H 2663  -1.507   4.571   7.728 -0.7044 -1.9571 -3.2567
   20MOL0     H 2664  -1.744   4.185   7.697 -0.4628  0.0546  0.1949
   20MOL0     H 2665  -1.968   4.076   7.716  3.0633  0.6953  1.8478
   20MOL0     H 2666  -2.106   3.887   7.380  1.2192  0.0771  0.3504
   20MOL0     H 2667  -2.086   3.836   7.548 -2.0217 -2.7286 -1.0002
   20MOL0     H 2668  -2.331   3.904   7.586  0.9921 -0.2825  1.2027
   20MOL0     H 2669  -2.339   3.948   7.414  0.5368  0.8079  1.1178
   20MOL0     H 2670  -2.295   3.670   7.527  2.0250  0.6000 -0.3066
   20MOL0     H 2671  -2.288   3.714   7.360 -3.5438  2.4034 -1.1064
   20MOL0     H 2672  -2.537   3.760   7.531  0.8747 -0.7445  1.2425
   20MOL0     H 2673  -2.518   3.775   7.355  0.1987  0.6792  0.5203
   20MOL0     H 2674  -2.526   3.517   7.515  1.7997 -2.0808 -0.3037
   20MOL0     H 2675  -2.467   3.526   7.346 -2.6533  2.0032 -3.7549
   20MOL0     H 2676  -2.737   3.607   7.437  0.1480 -1.8622  0.1760
   20MOL0     H 2677  -2.687   3.639   7.281 -0.9160  0.6854  1.6251
   20MOL0     H 2678  -2.673   3.354   7.421 -0.4999 -1.1811  0.3670
   20MOL0     H 2679  -2.660   3.385   7.248 -1.8307 -0.5876  0.1691
   20MOL0     H 2680  -2.897   3.403   7.421  1.4111 -0.3339  0.2910
   20MOL0     H 2681  -2.858   3.283   7.288  1.6883 -0.1787  0.5843
   20MOL0     H 2682  -2.035   4.131   7.291 -0.0793  0.9270  0.7334
   20MOL0     H 2683  -1.807   4.229   7.275  1.1284 -0.2249  0.5649
   20MOL0     H 2684  -1.470   4.345   7.292  0.9889  0.5341 -1.5566
   20MOL0     H 2685  -1.246   4.432   7.223  3.0496  1.0502  1.2196
   20MOL0     H 2686   0.451   4.652   6.629  1.1170  1.4253 -0.7223
   20MOL0     H 2687   0.656   4.757   6.521  1.2688 -0.3167 -0.3582
   20MOL0     H 2688   1.188   4.794   6.651  1.9308  0.5132 -0.1900
   20MOL0     H 2689   1.382   4.821   6.547 -0.8264 -1.3722  1.3931
   20MOL0     H 2690   1.684   4.739   6.316  0.3117  3.2684  0.6436
   20MOL0     H 2691   1.593   4.817   6.441  2.6971 -0.3757  0.6023
   20MOL0     H 2692   1.606   4.507   6.445  2.2832 -1.1875  0.5353
   20MOL0     H 2693   1.567   4.620   6.580  1.5154 -1.6496  1.4583
   20MOL0     H 2694   1.797   4.710   6.571  1.3952 -0.4359 -0.2991
   20MOL0     H 2695   1.831   4.607   6.432 -0.9163  0.7501 -1.5312
   20MOL0     H 2696   1.778   4.401   6.581  2.1783 -0.3496  0.2364
   20MOL0     H 2697   1.737   4.519   6.710  0.8993  4.0013  0.6685
   20MOL0     H 2698   2.153   4.455   6.739 -0.9400 -0.4510 -0.1192
   20MOL0     H 2699   1.293   4.535   6.235 -0.4249  0.3431  0.0546
   20MOL0     H 2700   1.060   4.541   6.319  2.6527 -1.4444 -2.4186
   21MOL0     O 2701   1.618   3.105   4.394  0.9398 -0.5257  0.0006
   21MOL0     C 2702   1.671   3.046   4.488 -0.0339  0.6019  0.2645
   21MOL0     O 2703   1.620   2.965   4.582  0.1058  0.1727  0.3337
   21MOL0     C 2704   1.493   2.921   4.576  1.0310  0.2229 -0.1486
   21MOL0     C 2705   1.386   2.961   4.497  0.0668  0.1704  0.6882
   21MOL0     C 2706   1.259   2.903   4.509  0.5875  0.6923  0.1144
   21MOL0     C 2707   1.232   2.807   4.603  0.1389  0.2250 -0.2468
   21MOL0     O 2708   1.125   2.731   4.601  0.4934  0.6288 -0.4497
   21MOL0     C 2709   1.011   2.797   4.655 -0.3313  0.4119 -0.2499
   21MOL0     C 2710   0.883   2.740   4.595 -0.4785  0.3678  0.9917
   21MOL0     C 2711   0.766   2.775   4.682 -0.1067 -0.3414  0.1595
   21MOL0     C 2712   0.628   2.740   4.627 -0.0685  0.3159  0.5536
   21MOL0     C 2713   0.516   2.761   4.731  0.1180  0.0650  0.5197
   21MOL0     C 2714   0.389   2.692   4.680  0.2994 -0.7486 -0.3137
   21MOL0     C 2715   0.335   2.765   4.552 -0.3998  0.3419 -0.2583
   21MOL0     C 2716   0.203   2.695   4.516 -0.9773  0.2199 -0.6721
   21MOL0     N 2717   0.087   2.697   4.614 -0.4820  0.0634 -0.2595
   21MOL0     C 2718   0.024   2.589   4.679 -1.1295  0.5025 -0.8567
   21MOL0     C 2719  -0.081   2.635   4.738 -0.5835  0.2830  0.3920
   21MOL0     C 2720  -0.184   2.558   4.814  0.0408 -0.8286 -0.4765
   21MOL0     C 2721  -0.320   2.574   4.753 -1.0128 -0.5665  0.0658
   21MOL0     C 2722  -0.387   2.707   4.786  0.2619 -0.1176 -0.4478
   21MOL0     C 2723  -0.542   2.717   4.774 -0.4534  0.0718  0.0059
   21MOL0     O 2724  -0.596   2.616   4.855 -0.5962 -0.1368  0.1502
   21MOL0     C 2725  -0.731   2.593   4.840 -0.5727 -0.1685 -0.9018
   21MOL0     C 2726  -0.830   2.671   4.771  0.1086 -0.2317  0.3188
   21MOL0     C 2727  -0.965   2.643   4.779  0.2459 -0.4448  0.2104
   21MOL0     C 2728  -1.061   2.723   4.705  0.7339 -0.4932  0.2820
   21MOL0     C 2729  -1.006   2.526   4.846 -0.0081  0.4898 -0.0176
   21MOL0     C 2730  -1.147   2.478   4.859  0.3185 -0.1348 -0.7381
   21MOL0     O 2731  -1.162   2.340   4.870  0.0977  0.1599 -0.1039
   21MOL0     C 2732  -1.287   2.297   4.871  0.0339 -0.1269 -0.0191
   21MOL0     C 2733  -1.311   2.196   4.965  0.4941  0.0034  0.3627
   21MOL0     C 2734  -1.446   2.154   4.989  0.4065  0.1890  0.2924
   21MOL0     C 2735  -1.552   2.198   4.911 -1.2661  1.1989  0.1741
   21MOL0     O 2736  -1.683   2.156   4.933  0.0370  0.2875  0.5990
   21MOL0     C 2737  -1.696   2.033   4.991  0.2422  0.3521 -0.1800
   21MOL0     C 2738  -1.838   1.983   4.968 -0.1506 -0.2076  0.7364
   21MOL0     C 2739  -1.903   2.008   4.827  0.6815 -0.0102 -0.7674
   21MOL0     C 2740  -2.032   1.929   4.812  0.9422  0.5534  0.3769
   21MOL0     C 2741  -2.097   1.955   4.683  0.3336  0.3790 -0.3736
   21MOL0     C 2742  -2.239   1.891   4.674 -0.1821 -0.1236 -0.3033
   21MOL0     C 2743  -2.305   1.898   4.540 -1.0633  0.8722 -0.1255
   21MOL0     C 2744  -2.435   1.976   4.558  0.2531  0.2596 -0.0060
   21MOL0    Cl 2745  -2.558   1.916   4.673 -0.5676  0.0338 -0.1860
   21MOL0     C 2746  -1.524   2.293   4.815  0.4001 -0.3475 -0.2234
   21MOL0     C 2747  -1.396   2.348   4.801 -0.5628  0.6918 -0.4314
   21MOL0     O 2748  -1.229   2.561   4.881  0.2462  0.0711 -0.2464
   21MOL0     C 2749  -0.904   2.440   4.904 -0.2284 -0.3633 -0.1266
   21MOL0     C 2750  -0.767   2.478   4.908  0.0295 -0.3180  0.0748
   21MOL0     N 2751  -0.075   2.775   4.718  0.5118 -1.2358 -0.3380
   21MOL0     N 2752   0.028   2.818   4.655 -0.3739  0.9025  0.3694
   21MOL0     C 2753   1.339   2.770   4.684  0.1246  0.8898  0.1770
   21MOL0     C 2754   1.465   2.826   4.668 -0.6552 -0.5614  0.1250
   21MOL0     C 2755   1.824   3.062   4.479 -0.7783 -0.3993  0.3993
   21MOL0     C 2756   1.879   3.182   4.407 -1.3641  0.3287 -0.4170
   21MOL0     C 2757   2.025   3.199   4.406  0.6231  0.1148  0.0089
   21MOL0     C 2758   2.103   3.129   4.498 -0.7517 -0.7180 -0.0677
   21MOL0     O 2759   2.239   3.134   4.505 -0.5225 -0.0489  0.2614
   21MOL0     C 2760   2.317   3.232   4.426  0.4456  1.1678 -0.1954
   21MOL0     C 2761   2.465   3.222   4.450 -0.3239 -0.8173  0.2865
   21MOL0     C 2762   2.529   3.343   4.384 -0.5304 -0.3409  0.0594
   21MOL0     C 2763   2.685   3.321   4.361 -0.2314  0.0313  0.1763
   21MOL0     C 2764   2.759   3.316   4.492  0.1958  0.3484 -0.4467
   21MOL0     C 2765   2.839   3.321   4.584 -0.2355  0.0146  0.2740
   21MOL0     C 2766   2.047   3.027   4.574  0.5570 -0.2262  0.4955
   21MOL0     C 2767   1.908   3.000   4.565  0.2580  0.2212  0.7742
   21MOL0     H 2768   1.405   3.024   4.411  0.7246  0.6723  1.1921
   21MOL0     H 2769   1.179   2.938   4.444  1.0909  1.6207 -0.0267
   21MOL0     H 2770   0.996   2.769   4.760 -2.3606  1.9371 -0.0615
   21MOL0     H 2771   1.014   2.907   4.655 -3.2949  0.6697  2.7140
   21MOL0     H 2772   0.864   2.783   4.497  2.1466 -0.2975  0.0931
   21MOL0     H 2773   0.890   2.630   4.598  0.0458  0.3986  0.9521
   21MOL0     H 2774   0.786   2.716   4.772  0.3379  0.6096  0.6921
   21MOL0     H 2775   0.767   2.880   4.711  0.7873  0.3877 -2.2705
   21MOL0     H 2776   0.605   2.794   4.535 -1.0095  0.5390  0.9080
   21MOL0     H 2777   0.624   2.633   4.602 -0.9530  0.7724 -1.4607
   21MOL0     H 2778   0.541   2.705   4.822  0.7455 -2.1132 -0.9084
   21MOL0     H 2779   0.505   2.869   4.745  0.0221  0.0063  0.9195
   21MOL0     H 2780   0.416   2.589   4.655 -0.3242 -0.9789 -0.0778
   21MOL0     H 2781   0.319   2.681   4.764 -0.4498  1.5299 -0.5866
   21MOL0     H 2782   0.327   2.871   4.575 -1.3276 -0.3427  2.9908
   21MOL0     H 2783   0.400   2.749   4.465 -2.4850 -1.3273 -1.6230
   21MOL0     H 2784   0.220   2.592   4.482 -0.3566 -0.0069  0.2905
   21MOL0     H 2785   0.165   2.750   4.429 -0.4167 -0.4959 -1.3891
   21MOL0     H 2786   0.046   2.483   4.677 -1.9912  0.2919  0.2303
   21MOL0     H 2787  -0.148   2.455   4.824  0.0011 -0.7164  1.1577
   21MOL0     H 2788  -0.190   2.593   4.917 -1.1887  1.4014 -1.2326
   21MOL0     H 2789  -0.382   2.491   4.788  1.5639 -1.6717  2.4480
   21MOL0     H 2790  -0.312   2.583   4.645 -1.4729 -0.1527  0.0633
   21MOL0     H 2791  -0.335   2.777   4.721  2.2842 -0.3502  0.8284
   21MOL0     H 2792  -0.364   2.725   4.891  0.0161 -4.5360  0.5841
   21MOL0     H 2793  -0.580   2.700   4.673  0.3882 -0.8947 -0.1622
   21MOL0     H 2794  -0.577   2.814   4.809 -2.4535 -0.1679 -1.1592
   21MOL0     H 2795  -0.804   2.770   4.735 -2.3400  0.4156  0.1890
   21MOL0     H 2796  -1.130   2.759   4.782  0.2350 -0.6674 -0.0834
   21MOL0     H 2797  -1.031   2.811   4.648 -1.4138  1.2304  1.6433
   21MOL0     H 2798  -1.119   2.663   4.635 -0.3310  1.0954 -0.2456
   21MOL0     H 2799  -1.224   2.163   5.020  2.6441  1.4838 -1.9401
   21MOL0     H 2800  -1.457   2.080   5.068  0.9788  2.1453  2.2989
   21MOL0     H 2801  -1.626   1.965   4.940  0.1321  0.9435 -1.1401
   21MOL0     H 2802  -1.668   2.037   5.097  2.7623  0.5962 -0.7784
   21MOL0     H 2803  -1.834   1.873   4.973  1.3972 -0.1221  2.3958
   21MOL0     H 2804  -1.903   2.020   5.047 -0.6129 -2.7135  1.6436
   21MOL0     H 2805  -1.829   1.981   4.752 -0.2276  0.1496 -1.7459
   21MOL0     H 2806  -1.922   2.114   4.806  1.9674  0.2771 -0.5508
   21MOL0     H 2807  -2.011   1.822   4.819 -0.6732  0.3274  5.0322
   21MOL0     H 2808  -2.105   1.958   4.888  0.6100 -0.6017  0.5205
   21MOL0     H 2809  -2.028   1.922   4.605 -1.2545 -1.2446 -1.1815
   21MOL0     H 2810  -2.109   2.063   4.675  1.0571  0.5666  0.9191
   21MOL0     H 2811  -2.224   1.787   4.704  1.4218  0.3400  0.6122
   21MOL0     H 2812  -2.297   1.941   4.752  0.0078 -0.6738  0.2012
   21MOL0     H 2813  -2.310   1.795   4.504 -1.5211 -0.2105  2.7520
   21MOL0     H 2814  -2.238   1.954   4.475 -0.1654 -0.4115 -0.3383
   21MOL0     H 2815  -2.479   1.988   4.459 -4.3020  2.1133  1.9455
   21MOL0     H 2816  -2.404   2.075   4.593 -0.4828 -0.1482  1.9774
   21MOL0     H 2817  -1.616   2.325   4.768  0.2985  2.0371  1.4043
   21MOL0     H 2818  -1.385   2.437   4.739  0.2277 -0.9870 -2.8256
   21MOL0     H 2819  -0.919   2.351   4.965 -1.5902 -0.4492 -0.5382
   21MOL0     H 2820  -0.687   2.420   4.952 -0.2041 -0.3860  0.4114
   21MOL0     H 2821   1.317   2.688   4.752  0.5225  1.6027  1.2043
   21MOL0     H 2822   1.557   2.785   4.710  1.0604  1.6148 -1.3026
   21MOL0     H 2823   1.819   3.239   4.338  0.8087  2.8976 -0.3601
   21MOL0     H 2824   2.083   3.264   4.342  2.0121  1.9871  2.9209
   21MOL0     H 2825   2.303   3.200   4.322 -1.3289  2.0925 -0.2737
   21MOL0     H 2826   2.280   3.334   4.431 -1.7867  0.4635 -1.1061
   21MOL0     H 2827   2.513   3.133   4.409 -1.0531 -1.1351  0.1001
   21MOL0     H 2828   2.481   3.227   4.559  0.4884  3.9641  0.1566
   21MOL0     H 2829   2.508   3.433   4.442  0.7676 -0.8498  1.3939
   21MOL0     H 2830   2.495   3.360   4.282  1.7220  1.9348 -0.4110
   21MOL0     H 2831   2.726   3.397   4.294 -0.4634 -0.5520 -0.6485
   21MOL0     H 2832   2.691   3.230   4.300  0.8719  0.1146  0.1353
   21MOL0     H 2833   2.914   3.313   4.660  1.4814 -2.2850 -1.4999
   21MOL0     H 2834   2.109   2.961   4.634  2.1041 -1.0162 -1.8238
   21MOL0     H 2835   1.863   2.930   4.635  1.4894 -2.5017 -1.0080
   22MOL0     O 2836   9.842   4.801   3.586 -0.7621 -0.1719  0.3268
   22MOL0     C 2837   9.841   4.712   3.673 -0.1123  0.1615 -0.5282
   22MOL0     O 2838   9.729   4.675   3.741  0.1963  0.5372 -0.2580
   22MOL0     C 2839   9.621   4.751   3.760 -0.6293 -0.2078 -0.4107
   22MOL0     C 2840   9.492   4.686   3.776  0.0215 -0.0358  0.9671
   22MOL0     C 2841   9.366   4.753   3.778  0.0502  0.1657 -0.4282
   22MOL0     C 2842   9.376   4.888   3.760 -0.2041 -0.6315 -0.4880
   22MOL0     O 2843   9.253   4.954   3.769  0.3206 -0.1026  1.1820
   22MOL0     C 2844   9.223   5.019   3.893 -0.6482  0.0136 -0.0792
   22MOL0     C 2845   9.074   5.052   3.910  0.2526  0.4016 -0.2092
   22MOL0     C 2846   9.001   4.926   3.945  0.0264  0.5543 -0.7497
   22MOL0     C 2847   8.850   4.955   3.948 -0.3827 -0.1860 -0.0410
   22MOL0     C 2848   8.777   4.833   3.998  0.8981 -0.2091  0.1923
   22MOL0     C 2849   8.635   4.850   4.062  0.6658 -0.0856  0.2626
   22MOL0     C 2850   8.603   4.722   4.142  0.1953  0.6121  0.6416
   22MOL0     C 2851   8.473   4.747   4.219 -0.1270  0.2119 -0.4885
   22MOL0     N 2852   8.349   4.746   4.144 -0.0144  0.0642 -0.0807
   22MOL0     C 2853   8.276   4.857   4.115 -0.3072  0.7894  0.2121
   22MOL0     C 2854   8.161   4.797   4.064 -0.3814  1.2526 -0.5357
   22MOL0     C 2855   8.040   4.874   4.011 -1.0409  0.3155  0.2844
   22MOL0     C 2856   7.918   4.817   4.068  1.1006  0.3582  0.0979
   22MOL0     C 2857   7.870   4.699   3.984 -0.2245  0.6530  0.0226
   22MOL0     C 2858   7.721   4.681   4.033 -0.0383  1.1978  0.4842
   22MOL0     O 2859   7.649   4.585   3.947 -0.8117  0.4676 -0.7162
   22MOL0     C 2860   7.510   4.586   3.978  0.0000 -0.1134 -0.0735
   22MOL0     C 2861   7.441   4.659   4.077  0.4983 -0.1586 -1.1016
   22MOL0     C 2862   7.306   4.646   4.093  0.0717 -0.8128  0.6752
   22MOL0     C 2863   7.253   4.735   4.208 -0.0791  0.0641  0.3232
   22MOL0     C 2864   7.225   4.583   3.999  0.1764 -0.1941  0.8893
   22MOL0     C 2865   7.075   4.570   3.998  0.6582  0.2841 -0.9386
   22MOL0     O 2866   7.016   4.533   3.883  0.0316 -0.6822  0.0083
   22MOL0     C 2867   6.877   4.520   3.867 -0.5623  0.3793 -0.7656
   22MOL0     C 2868   6.802   4.425   3.927  0.6006 -0.0493 -0.3196
   22MOL0     C 2869   6.662   4.434   3.906 -0.6369 -0.0312  1.0417
   22MOL0     C 2870   6.600   4.533   3.824 -0.0193  0.4434  0.2017
   22MOL0     O 2871   6.468   4.535   3.789  0.1660  0.2192  0.1303
   22MOL0     C 2872   6.369   4.463   3.871  0.8260  0.7140  0.2408
   22MOL0     C 2873   6.220   4.475   3.850  0.3949 -0.1622 -0.4209
   22MOL0     C 2874   6.170   4.407   3.723 -0.3511  0.1367  0.2492
   22MOL0     C 2875   6.024   4.445   3.705  0.1424 -0.0564 -0.0422
   22MOL0     C 2876   5.956   4.373   3.578  0.9503  0.5139 -0.5098
   22MOL0     C 2877   5.805   4.394   3.555  0.0838  0.3135  1.0107
   22MOL0     C 2878   5.731   4.301   3.457 -0.1324  0.3810  0.0920
   22MOL0     C 2879   5.593   4.356   3.433  0.1844 -0.4485  0.0034
   22MOL0    Cl 2880   5.490   4.327   3.578  0.0479  0.4312  0.1290
   22MOL0     C 2881   6.678   4.640   3.786  0.0598  0.8431 -0.3477
   22MOL0     C 2882   6.819   4.627   3.802  0.0682 -0.4739 -0.5488
   22MOL0     O 2883   7.015   4.581   4.107 -0.4947 -0.4109  0.3778
   22MOL0     C 2884   7.289   4.518   3.896  0.1259  0.2319  0.5776
   22MOL0     C 2885   7.433   4.512   3.890 -0.2954  0.0127  0.5996
   22MOL0     N 2886   8.167   4.663   4.064  0.5041 -0.0075  0.0045
   22MOL0     N 2887   8.281   4.626   4.120  0.0931  0.2645  0.4860
   22MOL0     C 2888   9.507   4.958   3.755  0.0611 -0.2904  0.3835
   22MOL0     C 2889   9.627   4.890   3.745 -0.3570 -0.0446 -0.4121
   22MOL0     C 2890   9.951   4.602   3.661  0.5990 -0.2827 -0.1074
   22MOL0     C 2891   9.942   4.483   3.732  0.4632 -0.0425 -0.6241
   22MOL0     C 2892  10.044   4.389   3.735 -0.0089  0.0098  0.7901
   22MOL0     C 2893  10.163   4.413   3.658  0.3968 -0.1520  0.1155
   22MOL0     O 2894  10.257   4.317   3.640 -0.3537 -0.1609  0.3145
   22MOL0     C 2895  10.304   4.274   3.768  0.0949  0.4212  0.5539
   22MOL0     C 2896  10.428   4.184   3.746 -0.0646 -0.0084  0.6820
   22MOL0     C 2897  10.542   4.254   3.683  0.0658 -0.1241 -0.6085
   22MOL0     C 2898  10.660   4.301   3.777 -1.1277 -0.3165 -0.0250
   22MOL0     C 2899  10.779   4.311   3.689  0.5608  0.3772 -0.9425
   22MOL0     C 2900  10.870   4.306   3.615  0.0306  0.2652  0.0690
   22MOL0     C 2901  10.162   4.526   3.578 -0.6056  0.1018  0.3452
   22MOL0     C 2902  10.063   4.624   3.581  0.1383  0.4774 -0.1236
   22MOL0     H 2903   9.498   4.578   3.772  0.3891 -0.0008  0.4286
   22MOL0     H 2904   9.272   4.699   3.777 -1.7479  3.0703 -1.9142
   22MOL0     H 2905   9.263   4.968   3.981 -2.1711  0.6600  1.0184
   22MOL0     H 2906   9.269   5.118   3.887 -0.9510  0.1993  0.6048
   22MOL0     H 2907   9.062   5.133   3.983  2.0393 -0.8317  1.5526
   22MOL0     H 2908   9.029   5.085   3.815 -0.5462 -0.3971 -0.1220
   22MOL0     H 2909   9.034   4.854   3.870  0.6503  2.8246 -2.7900
   22MOL0     H 2910   9.033   4.907   4.048  1.3865  2.6296 -0.7134
   22MOL0     H 2911   8.825   5.045   4.005  1.2302 -0.3581  1.0102
   22MOL0     H 2912   8.818   4.983   3.847 -2.3170  0.8339  0.7912
   22MOL0     H 2913   8.768   4.754   3.922 -2.1696 -1.5346  1.7352
   22MOL0     H 2914   8.836   4.783   4.076 -0.0974  0.6298  1.5290
   22MOL0     H 2915   8.636   4.940   4.125  1.0479 -0.4262  0.7536
   22MOL0     H 2916   8.564   4.870   3.982  0.3251 -1.2806  0.2431
   22MOL0     H 2917   8.590   4.646   4.065 -2.9767  1.5658  0.0988
   22MOL0     H 2918   8.687   4.701   4.208  1.6620  3.9497  0.0598
   22MOL0     H 2919   8.482   4.846   4.264  2.1214  0.9812 -2.3764
   22MOL0     H 2920   8.474   4.662   4.288 -1.1739  0.2787 -0.3840
   22MOL0     H 2921   8.312   4.959   4.118  4.1207 -0.4984 -1.3951
   22MOL0     H 2922   8.055   4.981   4.026 -3.6528  0.8032 -0.1915
   22MOL0     H 2923   8.034   4.870   3.902  0.9464  2.8522 -0.0119
   22MOL0     H 2924   7.845   4.898   4.077 -2.3453 -2.5428  0.6541
   22MOL0     H 2925   7.939   4.784   4.170  2.9539 -1.9903 -0.9611
   22MOL0     H 2926   7.932   4.610   3.995  4.4949  3.6886  0.9688
   22MOL0     H 2927   7.862   4.727   3.878 -0.5832 -1.1204 -0.4404
   22MOL0     H 2928   7.667   4.775   4.027 -0.7089  0.7383 -3.0060
   22MOL0     H 2929   7.733   4.640   4.134 -1.3395  0.0718  0.2102
   22MOL0     H 2930   7.498   4.722   4.145  0.2438 -0.0956 -0.9470
   22MOL0     H 2931   7.257   4.671   4.296  2.4149  1.2679  1.1840
   22MOL0     H 2932   7.325   4.816   4.226  0.0533  0.2982 -1.1371
   22MOL0     H 2933   7.155   4.777   4.184  0.0418  2.3469  3.1917
   22MOL0     H 2934   6.843   4.346   3.988 -4.0013 -0.5409  2.6461
   22MOL0     H 2935   6.608   4.349   3.949  0.7180 -1.6112 -0.2308
   22MOL0     H 2936   6.395   4.357   3.872 -1.6980 -0.0229  3.0619
   22MOL0     H 2937   6.361   4.496   3.975  0.7149  0.3641  0.3443
   22MOL0     H 2938   6.159   4.429   3.928 -1.5006  3.8596  0.7292
   22MOL0     H 2939   6.200   4.582   3.845 -4.1334 -0.7828  0.1955
   22MOL0     H 2940   6.174   4.298   3.716 -0.4883  0.2318 -2.1849
   22MOL0     H 2941   6.228   4.451   3.641  0.1385  0.5162  0.7940
   22MOL0     H 2942   5.963   4.427   3.793  0.9577 -1.5464  0.2679
   22MOL0     H 2943   6.021   4.554   3.697  3.1805  0.3801  2.7190
   22MOL0     H 2944   5.979   4.267   3.588 -0.5930  0.2135  0.2229
   22MOL0     H 2945   6.003   4.412   3.487  0.4434 -0.5647 -1.2539
   22MOL0     H 2946   5.756   4.385   3.652 -0.4389 -1.1584  0.6259
   22MOL0     H 2947   5.793   4.499   3.526  1.8551 -0.0722 -1.4725
   22MOL0     H 2948   5.740   4.205   3.507 -2.5007 -0.4525 -0.9343
   22MOL0     H 2949   5.780   4.288   3.360 -0.8954 -0.1415 -0.2388
   22MOL0     H 2950   5.554   4.309   3.342  2.9362 -1.8681 -0.5542
   22MOL0     H 2951   5.595   4.464   3.418  1.0466 -0.0516  2.6046
   22MOL0     H 2952   6.631   4.724   3.737 -2.5882 -1.2139 -1.6341
   22MOL0     H 2953   6.883   4.708   3.770  1.1773 -0.9891  0.2681
   22MOL0     H 2954   7.242   4.472   3.810 -0.8487  2.8605 -0.4075
   22MOL0     H 2955   7.491   4.457   3.817  2.5762  2.7641  0.5745
   22MOL0     H 2956   9.496   5.066   3.751  0.6581 -0.0524  2.9817
   22MOL0     H 2957   9.719   4.945   3.729 -0.8390  0.8302 -0.2544
   22MOL0     H 2958   9.852   4.479   3.792  0.9733 -0.1801  0.1480
   22MOL0     H 2959  10.023   4.302   3.795  2.4532 -1.7330 -0.6775
   22MOL0     H 2960  10.326   4.366   3.823 -1.4059 -0.2744  2.4473
   22MOL0     H 2961  10.233   4.215   3.826 -0.0027 -1.3806 -1.2764
   22MOL0     H 2962  10.404   4.095   3.688 -0.3370  0.2485  0.3933
   22MOL0     H 2963  10.452   4.142   3.844  1.3655  0.4242  0.5352
   22MOL0     H 2964  10.515   4.339   3.620  0.8980 -0.2297 -1.1219
   22MOL0     H 2965  10.583   4.179   3.615 -0.6170 -1.2598  0.2065
   22MOL0     H 2966  10.684   4.224   3.851  1.3176 -1.3914 -1.7958
   22MOL0     H 2967  10.645   4.396   3.830 -2.0917  0.0811 -0.9649
   22MOL0     H 2968  10.940   4.284   3.538  0.9462 -2.2996  1.5233
   22MOL0     H 2969  10.247   4.555   3.516 -1.7183 -0.3657 -1.4866
   22MOL0     H 2970  10.071   4.722   3.534 -1.8209  0.3964 -0.7486
   23MOL0     O 2971   4.148   9.282   7.050 -0.1124  0.1219 -0.0901
   23MOL0     C 2972   4.219   9.380   7.038 -0.1455  0.3152 -0.2027
   23MOL0     O 2973   4.199   9.488   6.959  0.0990  1.1123  0.5101
   23MOL0     C 2974   4.085   9.489   6.884  0.3767  0.2042  0.3553
   23MOL0     C 2975   3.967   9.550   6.936  0.3123 -0.2236 -0.2255
   23MOL0     C 2976   3.849   9.553   6.860  0.3625  0.1400  0.5576
   23MOL0     C 2977   3.841   9.487   6.731  0.0991 -1.2282  0.4298
   23MOL0     O 2978   3.718   9.493   6.671  0.5671 -0.4022 -0.6160
   23MOL0     C 2979   3.695   9.446   6.539  0.5260  0.4930 -0.2633
   23MOL0     C 2980   3.572   9.516   6.496 -0.0291  0.2519  0.0286
   23MOL0     C 2981   3.530   9.467   6.357  0.2034  0.8499 -0.5628
   23MOL0     C 2982   3.401   9.555   6.324  0.3559  0.5543  0.5278
   23MOL0     C 2983   3.370   9.544   6.176  0.4229  0.8690  0.6810
   23MOL0     C 2984   3.247   9.634   6.143  0.3551 -0.9320  0.7162
   23MOL0     C 2985   3.221   9.621   5.989 -0.6048 -0.2812 -0.0316
   23MOL0     C 2986   3.317   9.709   5.911  0.2193 -1.0225 -0.5307
   23MOL0     N 2987   3.293   9.688   5.767  0.1838 -0.0852  0.1284
   23MOL0     C 2988   3.388   9.684   5.666 -0.6923  1.2653 -0.0500
   23MOL0     C 2989   3.318   9.654   5.555  0.5527 -0.4878  0.3885
   23MOL0     C 2990   3.379   9.655   5.417  0.3354 -0.5184 -0.3326
   23MOL0     C 2991   3.419   9.795   5.370  0.3801  0.9098 -0.0050
   23MOL0     C 2992   3.307   9.864   5.295  0.4662  0.7588  0.5957
   23MOL0     C 2993   3.162   9.857   5.355 -0.1503  0.5673  0.3893
   23MOL0     O 2994   3.076   9.914   5.254 -0.3028 -0.3111 -0.0091
   23MOL0     C 2995   2.940   9.926   5.292  0.0473  0.5645  0.4310
   23MOL0     C 2996   2.858   9.986   5.204 -0.4335 -0.3690 -0.1342
   23MOL0     C 2997   2.719  10.014   5.227  0.7959  0.2880  0.3541
   23MOL0     C 2998   2.646  10.094   5.121  0.0416  0.1824  0.2804
   23MOL0     C 2999   2.659   9.964   5.347  0.1480  0.0733  0.2905
   23MOL0     C 3000   2.515   9.968   5.391  0.6719  0.5399 -0.4109
   23MOL0     O 3001   2.428  10.011   5.298  0.5836  1.3547  0.3539
   23MOL0     C 3002   2.293  10.002   5.331  0.1457 -0.3806 -0.2655
   23MOL0     C 3003   2.230  10.111   5.390  0.2149 -0.3404  0.7735
   23MOL0     C 3004   2.097  10.099   5.426  0.3494 -0.5439  0.0565
   23MOL0     C 3005   2.019   9.992   5.382  0.1209 -0.6318 -0.0373
   23MOL0     O 3006   1.881   9.967   5.402 -0.6942  0.5458  0.0426
   23MOL0     C 3007   1.812  10.063   5.487  0.7113  0.6112  0.4560
   23MOL0     C 3008   1.672  10.009   5.528  0.2976 -0.4070  0.7261
   23MOL0     C 3009   1.571   9.997   5.412  0.4789  0.0980  0.4949
   23MOL0     C 3010   1.441   9.933   5.465 -0.9159  0.3907  0.0792
   23MOL0     C 3011   1.315   9.978   5.403  0.5086 -0.5485  1.0066
   23MOL0     C 3012   1.193   9.904   5.445 -0.4140 -0.0389 -0.1936
   23MOL0     C 3013   1.070   9.943   5.365  0.2844  0.4494  0.3214
   23MOL0     C 3014   0.947   9.856   5.374 -0.1396 -0.1194  0.6282
   23MOL0    Cl 3015   0.817   9.935   5.275 -0.1871 -0.0532 -0.1745
   23MOL0     C 3016   2.082   9.887   5.317 -0.8517  0.2475  0.0683
   23MOL0     C 3017   2.219   9.896   5.287 -0.5074  0.1813  0.4510
   23MOL0     O 3018   2.482   9.925   5.501  0.0198 -1.2572  0.3133
   23MOL0     C 3019   2.745   9.910   5.437 -0.2544 -0.1853  0.0857
   23MOL0     C 3020   2.888   9.890   5.418  0.1376  0.0890 -0.0528
   23MOL0     N 3021   3.186   9.632   5.590 -0.7424  0.3065 -0.7113
   23MOL0     N 3022   3.176   9.656   5.715 -0.1916 -0.6639 -0.4803
   23MOL0     C 3023   3.954   9.425   6.679  0.2675  0.5896  0.1916
   23MOL0     C 3024   4.083   9.437   6.752  0.5791 -0.7786 -0.1433
   23MOL0     C 3025   4.343   9.374   7.123  0.0518  0.0247  1.2060
   23MOL0     C 3026   4.401   9.258   7.173  0.6531 -0.4262  0.3810
   23MOL0     C 3027   4.505   9.266   7.260 -0.5566 -0.1675 -0.8888
   23MOL0     C 3028   4.554   9.389   7.310 -0.7678 -0.7856 -0.9776
   23MOL0     O 3029   4.645   9.396   7.408  0.3069 -0.8162 -0.3959
   23MOL0     C 3030   4.750   9.292   7.425  0.3676 -0.1584 -0.1829
   23MOL0     C 3031   4.827   9.280   7.297  0.2264  0.8677  0.5047
   23MOL0     C 3032   4.899   9.410   7.266 -0.3669  0.0088  0.0130
   23MOL0     C 3033   5.010   9.457   7.367  0.6805 -0.9679  0.3760
   23MOL0     C 3034   5.088   9.343   7.413  0.3299  0.1183  0.4239
   23MOL0     C 3035   5.154   9.252   7.460  0.1026  0.4255 -0.3588
   23MOL0     C 3036   4.495   9.508   7.263 -0.2837  0.5629  0.1536
   23MOL0     C 3037   4.399   9.495   7.167 -0.6939  0.5754  0.5781
   23MOL0     H 3038   3.962   9.610   7.027 -2.0662 -1.0046  0.2233
   23MOL0     H 3039   3.763   9.603   6.901  0.6057 -1.2812  2.9892
   23MOL0     H 3040   3.780   9.480   6.479  1.1436  3.9986  2.2657
   23MOL0     H 3041   3.689   9.337   6.537 -1.4150  0.5734 -2.1662
   23MOL0     H 3042   3.490   9.489   6.562  0.2356 -2.9509 -0.8006
   23MOL0     H 3043   3.590   9.624   6.501 -0.2572  0.2640  0.6370
   23MOL0     H 3044   3.611   9.476   6.283  2.9464 -2.0561  1.7855
   23MOL0     H 3045   3.488   9.366   6.361  0.3078  0.8070 -0.5438
   23MOL0     H 3046   3.309   9.516   6.369 -0.4844 -1.3819 -2.5531
   23MOL0     H 3047   3.410   9.660   6.351 -0.0477  0.4801  0.9617
   23MOL0     H 3048   3.452   9.587   6.119  1.7103  0.1650  1.9331
   23MOL0     H 3049   3.333   9.443   6.157 -0.6083  1.2159  0.7712
   23MOL0     H 3050   3.162   9.596   6.199 -0.7108  0.6647  0.2586
   23MOL0     H 3051   3.258   9.740   6.169 -1.7011  0.2385 -2.6094
   23MOL0     H 3052   3.224   9.517   5.956 -0.9376 -0.1129 -0.6197
   23MOL0     H 3053   3.119   9.655   5.970 -0.2346 -0.2709 -2.3354
   23MOL0     H 3054   3.422   9.680   5.922  0.8863  0.9639 -1.2054
   23MOL0     H 3055   3.295   9.814   5.935 -0.4380 -1.3912  0.5490
   23MOL0     H 3056   3.494   9.707   5.659  0.1106 -1.6504  1.0910
   23MOL0     H 3057   3.474   9.601   5.428 -0.5976 -2.1332  0.2694
   23MOL0     H 3058   3.332   9.593   5.340 -1.4068  0.9106 -0.4653
   23MOL0     H 3059   3.496   9.790   5.293  1.7712 -1.1828  1.4010
   23MOL0     H 3060   3.453   9.856   5.454 -0.7958  0.7837  0.5776
   23MOL0     H 3061   3.310   9.812   5.199  1.1489 -0.3003  1.1737
   23MOL0     H 3062   3.336   9.968   5.275 -0.4235  0.9976  0.4830
   23MOL0     H 3063   3.157   9.917   5.446 -1.4977  2.4285 -0.8301
   23MOL0     H 3064   3.126   9.754   5.361  0.7726  0.2454  0.6566
   23MOL0     H 3065   2.893   9.994   5.102 -0.6005 -1.4602 -0.2861
   23MOL0     H 3066   2.584  10.170   5.170 -0.6313 -0.5015  0.4969
   23MOL0     H 3067   2.715  10.136   5.047  0.0305 -1.9298 -1.0091
   23MOL0     H 3068   2.574  10.029   5.072 -0.6031  0.5702  0.7050
   23MOL0     H 3069   2.295  10.196   5.405  0.9736  0.0541 -3.5043
   23MOL0     H 3070   2.057  10.183   5.482  1.4842 -1.0976  1.7722
   23MOL0     H 3071   1.870  10.094   5.574  1.6655 -2.8719  1.2309
   23MOL0     H 3072   1.803  10.149   5.420 -0.7970 -0.6883 -1.1040
   23MOL0     H 3073   1.684   9.913   5.579  0.6651 -0.7006  0.1000
   23MOL0     H 3074   1.631  10.083   5.597  0.1058  1.2200 -1.0338
   23MOL0     H 3075   1.610   9.930   5.335  0.6329  3.1664 -2.3189
   23MOL0     H 3076   1.555  10.097   5.371  4.1202  1.8278  2.7563
   23MOL0     H 3077   1.452   9.824   5.464  1.8224  0.5029 -3.4428
   23MOL0     H 3078   1.439   9.961   5.570  1.5460  2.7503 -0.4041
   23MOL0     H 3079   1.329   9.985   5.294 -0.7761  1.5274  0.9125
   23MOL0     H 3080   1.295  10.083   5.426  3.5461  0.5671 -0.8958
   23MOL0     H 3081   1.212   9.797   5.430 -1.0241  0.1608 -2.8049
   23MOL0     H 3082   1.170   9.924   5.550 -1.6078 -0.7861 -0.2927
   23MOL0     H 3083   1.093   9.956   5.258  1.4967  1.0179  0.6307
   23MOL0     H 3084   1.048  10.043   5.403  0.7335 -0.4531  3.1758
   23MOL0     H 3085   0.906   9.845   5.475 -1.4299  2.1484  0.4009
   23MOL0     H 3086   0.963   9.755   5.334  2.7244 -0.0898  1.4661
   23MOL0     H 3087   2.027   9.799   5.288  0.2672 -0.9513  1.4414
   23MOL0     H 3088   2.261   9.815   5.229 -2.4287  2.2145 -4.3000
   23MOL0     H 3089   2.728   9.874   5.537  3.4143 -0.1241  0.8366
   23MOL0     H 3090   2.950   9.852   5.498  1.8266  0.3943 -1.1566
   23MOL0     H 3091   3.943   9.395   6.576 -1.9711  0.5589  0.3983
   23MOL0     H 3092   4.176   9.407   6.706  0.9405  1.0028 -0.6266
   23MOL0     H 3093   4.377   9.162   7.127  0.3322 -0.4439  0.5792
   23MOL0     H 3094   4.557   9.173   7.284  0.5944  0.7537  0.3168
   23MOL0     H 3095   4.823   9.327   7.499  0.7753  2.2055 -1.5871
   23MOL0     H 3096   4.715   9.196   7.462  1.4410 -1.0919 -1.5063
   23MOL0     H 3097   4.765   9.240   7.216  0.5926  0.9938  0.1605
   23MOL0     H 3098   4.904   9.203   7.307 -0.6608  0.1386  2.0864
   23MOL0     H 3099   4.819   9.483   7.254 -1.6741 -1.5693 -1.3533
   23MOL0     H 3100   4.947   9.394   7.168  0.9969  0.2873  0.6105
   23MOL0     H 3101   4.968   9.510   7.452  0.0983 -2.0474  0.7878
   23MOL0     H 3102   5.075   9.531   7.320 -0.2780 -1.4938 -1.9515
   23MOL0     H 3103   5.205   9.167   7.501 -1.9950 -0.1868  1.1687
   23MOL0     H 3104   4.530   9.607   7.291 -1.0751  0.8607  0.1252
   23MOL0     H 3105   4.351   9.585   7.130  0.1011  0.4258 -0.9413
   24MOL0     O 3106   8.332   2.142  10.821 -0.0021  0.8985  0.4579
   24MOL0     C 3107   8.382   2.033  10.794 -0.5957 -0.0306  0.1743
   24MOL0     O 3108   8.326   1.909  10.815  0.4161 -0.4796 -0.2944
   24MOL0     C 3109   8.190   1.902  10.822 -0.1749  0.6559 -1.0129
   24MOL0     C 3110   8.133   1.817  10.913  0.7836  0.4296 -0.7195
   24MOL0     C 3111   7.997   1.802  10.921  0.0822  1.2543 -0.4809
   24MOL0     C 3112   7.912   1.864  10.826  0.3039 -0.2962 -0.6165
   24MOL0     O 3113   7.773   1.854  10.816  0.0449  0.0879 -0.5392
   24MOL0     C 3114   7.713   1.737  10.872 -0.4629 -0.8014  0.4821
   24MOL0     C 3115   7.560   1.751  10.860 -0.1406 -0.8398  0.3246
   24MOL0     C 3116   7.481   1.618  10.854 -0.2739 -0.9203  0.5174
   24MOL0     C 3117   7.338   1.645  10.809  0.0615 -0.0505 -0.3934
   24MOL0     C 3118   7.246   1.521  10.841 -0.3510 -0.6940 -0.0357
   24MOL0     C 3119   7.104   1.573  10.818  0.3581  0.8004 -0.4026
   24MOL0     C 3120   7.006   1.455  10.847 -0.2887 -1.0458 -0.8288
   24MOL0     C 3121   7.014   1.337  10.756 -0.2533 -0.5156  1.0105
   24MOL0     N 3122   6.880   1.270  10.758  0.2789  0.6940 -0.1487
   24MOL0     C 3123   6.862   1.144  10.820 -0.2216 -0.1698 -0.0791
   24MOL0     C 3124   6.728   1.126  10.812 -0.2366  0.0878 -0.2851
   24MOL0     C 3125   6.649   1.015  10.854 -0.3448  0.1609 -0.0390
   24MOL0     C 3126   6.505   1.039  10.871 -0.0330 -0.3642 -0.1597
   24MOL0     C 3127   6.413   0.915  10.918 -0.5580 -0.5406  0.0263
   24MOL0     C 3128   6.266   0.958  10.912 -0.8941 -0.3140 -0.1728
   24MOL0     O 3129   6.181   0.844  10.943  0.0253 -0.7094  0.3727
   24MOL0     C 3130   6.047   0.868  10.948  0.5786 -0.6209  0.0398
   24MOL0     C 3131   5.994   0.995  10.927 -1.1852 -0.4100 -0.4444
   24MOL0     C 3132   5.862   1.022  10.921 -0.1061 -0.1327  0.7989
   24MOL0     C 3133   5.815   1.158  10.886 -0.4564 -0.3643  0.3588
   24MOL0     C 3134   5.766   0.917  10.944  0.5488  0.8945  1.0414
   24MOL0     C 3135   5.625   0.934  10.972 -0.0220 -0.3757  0.0793
   24MOL0     O 3136   5.549   0.822  11.003  0.0309 -0.5502 -0.3764
   24MOL0     C 3137   5.414   0.831  11.040 -0.1728  0.3620  0.5535
   24MOL0     C 3138   5.383   0.776  11.168  0.2473  0.1768 -0.2870
   24MOL0     C 3139   5.251   0.795  11.222 -1.0043 -0.0427 -0.2326
   24MOL0     C 3140   5.155   0.854  11.145  0.6092 -0.4237  0.6209
   24MOL0     O 3141   5.023   0.868  11.177  0.2796  0.1041  0.2572
   24MOL0     C 3142   4.968   0.805  11.290  0.4228  0.7314  0.0967
   24MOL0     C 3143   4.836   0.869  11.323 -0.0350  0.0209  0.1902
   24MOL0     C 3144   4.718   0.842  11.242 -0.7839  0.7971  0.4440
   24MOL0     C 3145   4.599   0.898  11.323  0.1310  1.5795  0.1346
   24MOL0     C 3146   4.470   0.885  11.248  0.0485 -1.0631 -0.2525
   24MOL0     C 3147   4.356   0.940  11.331  0.2419 -0.5418 -0.3797
   24MOL0     C 3148   4.226   0.894  11.260 -0.5043 -0.7592  0.1625
   24MOL0     C 3149   4.195   0.951  11.113 -0.4993 -0.2399 -1.0256
   24MOL0    Cl 3150   4.041   0.905  11.036 -0.1368  0.3273  0.3462
   24MOL0     C 3151   5.191   0.911  11.021  0.4634  0.3394 -0.4670
   24MOL0     C 3152   5.320   0.900  10.965 -0.1331 -0.0650  0.7342
   24MOL0     O 3153   5.569   1.043  10.952 -0.1156 -0.0014  0.0253
   24MOL0     C 3154   5.819   0.786  10.957  0.7917  0.1577 -0.0751
   24MOL0     C 3155   5.959   0.766  10.947  0.0526 -0.1062 -0.9039
   24MOL0     N 3156   6.668   1.237  10.762  0.2716 -0.2857  0.2664
   24MOL0     N 3157   6.753   1.321  10.724  0.1720 -0.6704  0.8008
   24MOL0     C 3158   7.973   1.953  10.739 -0.1453 -0.0613  0.1579
   24MOL0     C 3159   8.108   1.969  10.733 -0.4704 -0.3849  0.5086
   24MOL0     C 3160   8.526   2.034  10.756  0.0988 -0.0863  0.0369
   24MOL0     C 3161   8.599   2.153  10.741  0.6544 -0.1849 -0.1036
   24MOL0     C 3162   8.732   2.150  10.698 -0.7207  0.1316 -0.4461
   24MOL0     C 3163   8.796   2.032  10.664 -0.6137 -0.7993 -0.6236
   24MOL0     O 3164   8.928   2.043  10.621 -0.1277  0.4000 -0.5320
   24MOL0     C 3165   9.025   1.937  10.629  0.1642 -0.5094 -0.3037
   24MOL0     C 3166   9.063   1.893  10.488  0.4775 -0.0526 -0.9993
   24MOL0     C 3167   9.107   2.014  10.411  0.3282 -0.1445 -0.5715
   24MOL0     C 3168   9.136   1.982  10.261 -0.4481 -0.0034 -0.5707
   24MOL0     C 3169   9.228   2.081  10.192 -0.5584 -1.6248 -0.4333
   24MOL0     C 3170   9.305   2.165  10.144  0.5780  0.6614  0.3601
   24MOL0     C 3171   8.725   1.907  10.683 -0.3521 -0.2539 -0.3494
   24MOL0     C 3172   8.595   1.914  10.731 -0.5542  0.5733 -0.0981
   24MOL0     H 3173   8.191   1.760  10.984 -2.0311  1.7723  2.9880
   24MOL0     H 3174   7.960   1.734  10.997 -0.0968  0.4804 -1.2461
   24MOL0     H 3175   7.752   1.648  10.821 -0.1358 -1.8168  2.4063
   24MOL0     H 3176   7.741   1.733  10.977 -1.1296  3.5296  1.0031
   24MOL0     H 3177   7.511   1.805  10.943 -0.0759  0.1538 -0.2662
   24MOL0     H 3178   7.542   1.810  10.770 -0.1596 -0.9690  0.2449
   24MOL0     H 3179   7.532   1.555  10.780  2.0426  1.0920  0.2781
   24MOL0     H 3180   7.483   1.565  10.950  1.3559  0.3802  1.2554
   24MOL0     H 3181   7.304   1.715  10.885  1.4227 -1.3423  1.5343
   24MOL0     H 3182   7.317   1.682  10.708 -0.2575 -1.4348 -0.8607
   24MOL0     H 3183   7.277   1.438  10.778 -2.3846 -0.1300 -1.8955
   24MOL0     H 3184   7.250   1.494  10.947 -0.4383  1.0569  0.4506
   24MOL0     H 3185   7.076   1.663  10.875 -2.8851 -0.0941 -0.3634
   24MOL0     H 3186   7.078   1.598  10.715 -1.1978 -1.1550 -0.5465
   24MOL0     H 3187   7.013   1.412  10.948 -0.6776 -1.5588 -1.0185
   24MOL0     H 3188   6.909   1.506  10.842 -1.2530 -2.3079  2.2507
   24MOL0     H 3189   7.096   1.270  10.786  2.4146  0.9809 -2.3038
   24MOL0     H 3190   7.031   1.374  10.655 -3.4816 -2.2174 -0.2906
   24MOL0     H 3191   6.943   1.081  10.856 -0.3622 -0.7378 -0.7305
   24MOL0     H 3192   6.657   0.937  10.777 -3.3150  1.4295 -1.8214
   24MOL0     H 3193   6.692   0.981  10.948 -0.6461  0.7013  0.2947
   24MOL0     H 3194   6.459   1.071  10.776 -1.8479  0.8536  1.0674
   24MOL0     H 3195   6.504   1.111  10.953  3.3348  0.3336 -0.6142
   24MOL0     H 3196   6.437   0.886  11.021  1.1458 -0.7629 -0.4023
   24MOL0     H 3197   6.433   0.832  10.851  2.4706 -1.5708  1.9569
   24MOL0     H 3198   6.230   0.994  10.816 -3.2689 -0.9994  0.3948
   24MOL0     H 3199   6.252   1.044  10.979  0.2365  0.5220 -0.9744
   24MOL0     H 3200   6.053   1.085  10.914  0.1802 -1.5258 -2.3943
   24MOL0     H 3201   5.894   1.226  10.853 -1.4951  1.4136  1.3776
   24MOL0     H 3202   5.749   1.149  10.799 -1.7477 -1.3115  1.3983
   24MOL0     H 3203   5.768   1.205  10.973 -0.9851  0.3985 -0.3243
   24MOL0     H 3204   5.461   0.718  11.217  0.6816 -0.5535 -1.7718
   24MOL0     H 3205   5.231   0.751  11.318  0.3685 -1.9453 -0.7571
   24MOL0     H 3206   4.947   0.700  11.267 -0.1902  1.2945 -2.1512
   24MOL0     H 3207   5.037   0.814  11.375  3.5938 -0.9825 -2.0921
   24MOL0     H 3208   4.807   0.847  11.426 -0.9510  0.6064  0.0697
   24MOL0     H 3209   4.848   0.977  11.308 -0.6444  0.1692  0.7362
   24MOL0     H 3210   4.709   0.733  11.231 -3.5040  1.0384 -0.3069
   24MOL0     H 3211   4.729   0.893  11.146  3.6137 -1.3855 -0.4930
   24MOL0     H 3212   4.590   0.847  11.419  0.5053 -0.7954 -1.0216
   24MOL0     H 3213   4.626   1.003  11.339 -0.1548  1.4450  1.6082
   24MOL0     H 3214   4.444   0.781  11.229 -1.9719 -0.5096 -0.7856
   24MOL0     H 3215   4.486   0.933  11.151  1.7289 -2.9526 -0.9894
   24MOL0     H 3216   4.366   0.925  11.439  1.3396  1.3920 -0.1734
   24MOL0     H 3217   4.355   1.047  11.312 -0.9932 -1.1685 -5.3873
   24MOL0     H 3218   4.138   0.924  11.317 -1.8914 -2.0636 -1.2118
   24MOL0     H 3219   4.216   0.785  11.263 -1.8884 -0.7063  4.6339
   24MOL0     H 3220   4.270   0.924  11.038 -2.5872 -0.6275 -3.0753
   24MOL0     H 3221   4.207   1.060  11.121 -1.8489 -0.1652  0.3367
   24MOL0     H 3222   5.108   0.937  10.955  1.7447 -0.3433 -2.4527
   24MOL0     H 3223   5.338   0.935  10.863 -4.6732  0.6182 -0.0384
   24MOL0     H 3224   5.744   0.707  10.962 -2.3702  2.7760 -1.8058
   24MOL0     H 3225   6.010   0.673  10.970  2.4397  1.2091 -0.5584
   24MOL0     H 3226   7.914   2.015  10.672  2.7116  3.3539  0.5283
   24MOL0     H 3227   8.149   2.041  10.663 -1.2399  0.7034  1.1279
   24MOL0     H 3228   8.556   2.251  10.760  2.5700  0.5474  0.7702
   24MOL0     H 3229   8.780   2.245  10.677  0.0693 -0.1055  0.2469
   24MOL0     H 3230   9.106   1.979  10.689 -1.3580 -0.4231  1.7975
   24MOL0     H 3231   8.980   1.857  10.689 -0.2456  1.2516  1.8765
   24MOL0     H 3232   8.980   1.841  10.439 -0.9721  0.3049  0.9480
   24MOL0     H 3233   9.139   1.814  10.492  0.8636  0.2701 -1.6798
   24MOL0     H 3234   9.189   2.065  10.461  0.2102 -0.6388  0.1456
   24MOL0     H 3235   9.035   2.096  10.421  1.8190  0.9684  2.0500
   24MOL0     H 3236   9.044   1.982  10.203  0.5153 -1.1006 -2.1793
   24MOL0     H 3237   9.176   1.881  10.254 -1.9019 -0.8615  2.1614
   24MOL0     H 3238   9.379   2.229  10.100  2.0649 -0.0716  1.6445
   24MOL0     H 3239   8.776   1.813  10.665 -0.4090 -0.4290  0.3996
   24MOL0     H 3240   8.538   1.823  10.748 -1.2898  1.2111  0.9924
   25MOL0     O 3241   0.434   0.931   6.937 -0.1535 -0.5572  0.2361
   25MOL0     C 3242   0.380   0.956   7.048 -0.8530  0.6913  0.0051
   25MOL0     O 3243   0.250   0.954   7.078 -0.5549  0.1623  0.2861
   25MOL0     C 3244   0.150   0.940   6.984  0.5579  0.7518  0.4375
   25MOL0     C 3245   0.142   1.029   6.877  0.3558 -0.4425  0.0630
   25MOL0     C 3246   0.028   1.024   6.787  0.4076  0.8988  0.3982
   25MOL0     C 3247  -0.068   0.921   6.797  0.4035 -0.3689 -0.4787
   25MOL0     O 3248  -0.164   0.911   6.699 -0.8471 -0.0879 -0.0347
   25MOL0     C 3249  -0.243   0.794   6.694  0.3588 -0.6510  0.1946
   25MOL0     C 3250  -0.343   0.808   6.575 -0.0518 -0.2075  0.2893
   25MOL0     C 3251  -0.432   0.683   6.574  0.2792 -0.3321  0.1813
   25MOL0     C 3252  -0.534   0.706   6.454  1.0141 -0.1117 -1.6505
   25MOL0     C 3253  -0.637   0.594   6.449 -0.1323  0.0743  0.2619
   25MOL0     C 3254  -0.765   0.632   6.374 -0.9962 -0.4790 -0.1715
   25MOL0     C 3255  -0.851   0.517   6.345  0.2174  0.1081 -0.2714
   25MOL0     C 3256  -0.789   0.413   6.258 -1.0573 -0.1907 -0.1279
   25MOL0     N 3257  -0.902   0.320   6.221 -0.1726  0.8322  0.1609
   25MOL0     C 3258  -0.984   0.330   6.115 -0.9772 -0.3835 -0.3002
   25MOL0     C 3259  -1.091   0.254   6.142 -0.5353 -0.4674 -0.2430
   25MOL0     C 3260  -1.214   0.253   6.063 -0.7841  0.1958  0.4742
   25MOL0     C 3261  -1.218   0.115   5.985  0.2606 -0.4437  0.4392
   25MOL0     C 3262  -1.335   0.079   5.896 -0.3412 -0.2133  0.7632
   25MOL0     C 3263  -1.467   0.099   5.974  0.5970 -0.3829  0.3807
   25MOL0     O 3264  -1.505   0.234   6.004 -1.1068 -0.1915  0.5160
   25MOL0     C 3265  -1.623   0.243   6.081 -0.0466 -0.7565  0.2512
   25MOL0     C 3266  -1.660   0.362   6.133  0.1561 -0.3111 -0.3120
   25MOL0     C 3267  -1.775   0.381   6.202 -0.0861 -0.1199 -0.6434
   25MOL0     C 3268  -1.811   0.525   6.244  0.2421 -0.2321 -0.3190
   25MOL0     C 3269  -1.872   0.274   6.227  0.1363 -0.2920  1.1534
   25MOL0     C 3270  -2.014   0.281   6.271  0.4457 -1.0993  0.0334
   25MOL0     O 3271  -2.076   0.160   6.280  0.1404 -0.8036  0.0161
   25MOL0     C 3272  -2.213   0.154   6.317  0.1051 -0.3446 -0.2280
   25MOL0     C 3273  -2.251   0.029   6.351  0.1887 -0.0285  0.1760
   25MOL0     C 3274  -2.387  -0.004   6.376  0.5029 -0.5035 -0.0259
   25MOL0     C 3275  -2.482   0.090   6.368  0.8533  0.2978  0.0929
   25MOL0     O 3276  -2.611   0.040   6.392 -0.2683  0.0425 -0.4429
   25MOL0     C 3277  -2.728   0.124   6.413  0.6658 -0.4967  0.4080
   25MOL0     C 3278  -2.791   0.161   6.279 -0.0519 -0.0465 -0.4264
   25MOL0     C 3279  -2.819   0.043   6.192 -0.2607  0.5627  0.8012
   25MOL0     C 3280  -2.959  -0.020   6.231  0.3115  0.4703  0.3450
   25MOL0     C 3281  -3.003  -0.135   6.137  0.3886  0.0732  0.0193
   25MOL0     C 3282  -3.143  -0.174   6.177  1.0377 -0.1823 -0.3919
   25MOL0     C 3283  -3.207  -0.283   6.089  0.3748 -0.2306 -0.0820
   25MOL0     C 3284  -3.219  -0.250   5.941  0.4003 -0.7323  0.4342
   25MOL0    Cl 3285  -3.342  -0.128   5.922  0.2554  0.6761  0.1968
   25MOL0     C 3286  -2.449   0.217   6.324 -0.1494  0.0484 -0.0616
   25MOL0     C 3287  -2.314   0.255   6.311 -0.0652  0.0411  0.4652
   25MOL0     O 3288  -2.063   0.388   6.306  0.3389  0.6872 -0.6156
   25MOL0     C 3289  -1.831   0.153   6.182 -0.2215  1.1945 -0.1032
   25MOL0     C 3290  -1.707   0.133   6.109 -0.3138 -0.7779 -0.1172
   25MOL0     N 3291  -1.069   0.189   6.261  0.4080 -0.4145  0.7968
   25MOL0     N 3292  -0.961   0.239   6.315  0.7356  0.5720  0.0692
   25MOL0     C 3293  -0.050   0.827   6.897  0.1956  0.9039 -0.1780
   25MOL0     C 3294   0.053   0.842   6.994  0.5235  0.1149 -0.2604
   25MOL0     C 3295   0.466   0.976   7.163 -0.4484  0.0844 -0.8738
   25MOL0     C 3296   0.599   0.996   7.139  0.0975 -0.4463 -0.0617
   25MOL0     C 3297   0.693   1.016   7.237 -0.3280 -0.8585 -0.3814
   25MOL0     C 3298   0.653   1.024   7.373 -0.2932  0.2429  0.2730
   25MOL0     O 3299   0.740   1.041   7.471 -0.0422 -0.5752 -0.7412
   25MOL0     C 3300   0.875   1.085   7.440 -0.5243  0.8738 -0.8167
   25MOL0     C 3301   0.932   1.143   7.576 -0.5894  0.1817 -0.6786
   25MOL0     C 3302   0.937   1.024   7.682  0.0559  0.3758 -0.7095
   25MOL0     C 3303   1.015   1.051   7.814 -0.0802 -0.4458 -0.3074
   25MOL0     C 3304   1.155   1.056   7.785 -0.0792  0.1996 -0.3044
   25MOL0     C 3305   1.277   1.057   7.776 -0.6368  0.6321 -0.7082
   25MOL0     C 3306   0.518   0.994   7.397 -0.4245 -0.5308 -0.0548
   25MOL0     C 3307   0.422   0.978   7.301  0.0178  0.0194 -0.2856
   25MOL0     H 3308   0.211   1.112   6.868  0.3682  0.2080  4.1387
   25MOL0     H 3309   0.024   1.090   6.702  1.0091  0.4139 -0.0164
   25MOL0     H 3310  -0.181   0.704   6.686 -3.8022 -3.9017  0.8863
   25MOL0     H 3311  -0.300   0.790   6.787 -0.4457 -0.7621 -0.3008
   25MOL0     H 3312  -0.401   0.898   6.594  0.0727 -0.2333  0.7877
   25MOL0     H 3313  -0.295   0.808   6.476  0.8203 -0.1579  0.7082
   25MOL0     H 3314  -0.374   0.591   6.558 -1.0210 -0.9948 -0.9419
   25MOL0     H 3315  -0.480   0.676   6.672 -1.1354  0.9284 -0.3907
   25MOL0     H 3316  -0.584   0.802   6.472  0.2141 -0.6352 -0.9824
   25MOL0     H 3317  -0.490   0.718   6.355  1.6210 -1.5130 -1.5724
   25MOL0     H 3318  -0.586   0.510   6.401  0.4219 -0.3539  1.5488
   25MOL0     H 3319  -0.673   0.565   6.548 -2.9219 -0.9074 -0.9279
   25MOL0     H 3320  -0.814   0.713   6.430  3.1527  3.7452 -2.0071
   25MOL0     H 3321  -0.737   0.678   6.279 -4.1570 -0.8540 -1.4187
   25MOL0     H 3322  -0.884   0.474   6.440 -3.2983  2.5707 -0.2056
   25MOL0     H 3323  -0.941   0.543   6.288  0.8174 -0.2441 -1.4290
   25MOL0     H 3324  -0.709   0.356   6.307 -1.6194 -3.0348 -2.2911
   25MOL0     H 3325  -0.743   0.462   6.172  0.9303 -0.1448  0.9064
   25MOL0     H 3326  -0.966   0.391   6.026  1.0369 -1.2590 -0.5351
   25MOL0     H 3327  -1.297   0.282   6.128  0.2043  0.4586  1.6438
   25MOL0     H 3328  -1.208   0.333   5.988  0.2146  0.5338  0.9066
   25MOL0     H 3329  -1.213   0.046   6.070  0.3203 -0.6980  0.2304
   25MOL0     H 3330  -1.125   0.099   5.929  1.1514  1.9785  1.1069
   25MOL0     H 3331  -1.329  -0.026   5.864  0.5510  0.2037 -0.5101
   25MOL0     H 3332  -1.343   0.137   5.804 -0.7813  0.2073  1.0631
   25MOL0     H 3333  -1.461   0.047   6.070  1.0362 -0.6953  0.1867
   25MOL0     H 3334  -1.545   0.045   5.920 -0.8850  2.2802 -0.3603
   25MOL0     H 3335  -1.590   0.443   6.114 -1.2871  1.1648  0.4291
   25MOL0     H 3336  -1.724   0.590   6.239 -1.8348  2.8964  1.1231
   25MOL0     H 3337  -1.896   0.561   6.185  1.2364  1.2032 -0.9091
   25MOL0     H 3338  -1.838   0.521   6.350  0.1503  1.0362 -0.2817
   25MOL0     H 3339  -2.177  -0.050   6.355  0.4299  0.2438  1.7908
   25MOL0     H 3340  -2.413  -0.108   6.394  0.3539 -0.2534  1.3311
   25MOL0     H 3341  -2.801   0.073   6.475  1.0996 -2.3059 -0.4980
   25MOL0     H 3342  -2.705   0.212   6.473 -0.3429 -1.2686  1.9724
   25MOL0     H 3343  -2.881   0.220   6.296  0.4682  0.4333  0.7779
   25MOL0     H 3344  -2.726   0.224   6.217  1.0824 -2.8319 -2.2614
   25MOL0     H 3345  -2.748  -0.038   6.208 -0.3362  0.7595  2.2319
   25MOL0     H 3346  -2.817   0.067   6.085 -1.2174 -3.8184 -0.3874
   25MOL0     H 3347  -2.971  -0.045   6.337 -0.8163  4.8808  1.4735
   25MOL0     H 3348  -3.037   0.055   6.216  1.3785  1.1999 -2.0821
   25MOL0     H 3349  -2.938  -0.220   6.161 -0.8962 -0.8052  0.5612
   25MOL0     H 3350  -2.995  -0.104   6.032 -3.5106 -0.7784 -0.6813
   25MOL0     H 3351  -3.135  -0.204   6.281 -0.8243  3.4503  0.9669
   25MOL0     H 3352  -3.210  -0.088   6.172  1.6365  0.5018  2.0645
   25MOL0     H 3353  -3.304  -0.314   6.129 -0.0327  2.0547  0.8691
   25MOL0     H 3354  -3.140  -0.370   6.095 -1.2563 -1.4723  1.2249
   25MOL0     H 3355  -3.255  -0.341   5.892  0.3812  0.1794 -1.3124
   25MOL0     H 3356  -3.119  -0.232   5.902  1.3111 -2.9218  1.5677
   25MOL0     H 3357  -2.527   0.291   6.310 -1.4783 -0.6068  3.0957
   25MOL0     H 3358  -2.287   0.351   6.267  1.3918 -1.0018 -1.0085
   25MOL0     H 3359  -1.885   0.059   6.186 -0.5637  1.3128 -1.3420
   25MOL0     H 3360  -1.672   0.036   6.075 -0.2754 -0.7202 -0.2434
   25MOL0     H 3361  -0.119   0.744   6.911  0.0013  1.1596  0.4039
   25MOL0     H 3362   0.062   0.780   7.083 -2.3820  0.1829  0.1840
   25MOL0     H 3363   0.641   1.001   7.039 -0.0407 -0.1379 -0.1049
   25MOL0     H 3364   0.795   1.014   7.201 -0.5360  1.5820 -1.2639
   25MOL0     H 3365   0.939   1.004   7.404  0.0291  1.5893 -1.4743
   25MOL0     H 3366   0.880   1.160   7.361 -2.3434  0.0794 -1.7335
   25MOL0     H 3367   0.874   1.231   7.607 -0.5327  0.3729 -1.1148
   25MOL0     H 3368   1.028   1.192   7.560 -1.1270  0.9300 -1.6958
   25MOL0     H 3369   0.985   0.940   7.633  0.9850  1.6777 -2.1054
   25MOL0     H 3370   0.835   0.997   7.713  0.4174  0.2172  0.3926
   25MOL0     H 3371   0.995   0.979   7.895  1.2036  0.5748  0.9756
   25MOL0     H 3372   0.979   1.144   7.858 -0.4478 -1.4879  1.7571
   25MOL0     H 3373   1.381   1.031   7.773 -0.4236  0.9490  1.6024
   25MOL0     H 3374   0.501   0.983   7.504  4.5021 -1.5229  0.8593
   25MOL0     H 3375   0.319   0.962   7.330 -0.9248  0.6647 -3.0435
   26MOL0     O 3376   3.139   8.478   9.907  1.2244 -0.1775 -0.3065
   26MOL0     C 3377   3.122   8.565   9.822  0.3911 -0.8003  0.2993
   26MOL0     O 3378   3.213   8.669   9.794 -0.2688  0.4665 -0.0251
   26MOL0     C 3379   3.330   8.681   9.870  0.7261 -0.6758  0.0548
   26MOL0     C 3380   3.451   8.707   9.807 -0.0072 -0.2979 -0.5509
   26MOL0     C 3381   3.568   8.712   9.891 -0.6224 -0.0755  0.7464
   26MOL0     C 3382   3.566   8.708  10.029 -0.1760  1.0248  0.3050
   26MOL0     O 3383   3.680   8.727  10.103  0.1280  0.2575  0.2273
   26MOL0     C 3384   3.702   8.669  10.239  0.0706  0.4756 -0.6064
   26MOL0     C 3385   3.858   8.654  10.232 -0.3923 -0.3391 -0.5513
   26MOL0     C 3386   3.939   8.781  10.248 -0.7915 -1.0538  0.4815
   26MOL0     C 3387   4.079   8.756  10.258 -0.3268 -0.5871 -0.1204
   26MOL0     C 3388   4.164   8.887  10.266  0.3730 -0.0518 -0.9661
   26MOL0     C 3389   4.313   8.859  10.252  0.2984 -0.0977  0.3797
   26MOL0     C 3390   4.381   8.848  10.384  0.7606  0.3586 -0.4039
   26MOL0     C 3391   4.530   8.865  10.370 -1.4417 -0.1390  1.1971
   26MOL0     N 3392   4.602   8.914  10.487  0.3778  0.1820 -0.1648
   26MOL0     C 3393   4.578   9.028  10.554  0.0353 -1.3804  0.3268
   26MOL0     C 3394   4.676   9.051  10.644 -0.0617  0.4355 -0.0476
   26MOL0     C 3395   4.706   9.164  10.748  0.0951 -0.6934  0.0505
   26MOL0     C 3396   4.613   9.294  10.760  0.1001 -0.6030 -0.4517
   26MOL0     C 3397   4.483   9.247  10.825  0.2171 -0.2249  0.4789
   26MOL0     C 3398   4.368   9.338  10.778  0.1408 -0.0886  0.4389
   26MOL0     O 3399   4.384   9.470  10.835  0.1311 -0.5498 -0.2706
   26MOL0     C 3400   4.281   9.562  10.815  0.2119  0.1405 -0.6799
   26MOL0     C 3401   4.208   9.565  10.700  0.8383  0.3167 -0.5542
   26MOL0     C 3402   4.093   9.643  10.693  0.7025 -1.0538  0.0730
   26MOL0     C 3403   4.016   9.632  10.563 -0.2609  0.3468  0.3761
   26MOL0     C 3404   4.053   9.730  10.798 -0.6254  0.5933  0.9684
   26MOL0     C 3405   3.935   9.814  10.792 -0.7290  0.7138 -0.5851
   26MOL0     O 3406   3.828   9.780  10.714 -0.5944  0.0156 -0.5558
   26MOL0     C 3407   3.715   9.861  10.717 -0.1672 -0.2634  0.2644
   26MOL0     C 3408   3.605   9.820  10.785  0.8945  0.3232  0.0406
   26MOL0     C 3409   3.490   9.904  10.793 -0.4010  0.8636  0.5901
   26MOL0     C 3410   3.494  10.024  10.727  0.3683 -0.1653  0.5141
   26MOL0     O 3411   3.385  10.108  10.721  0.5281  0.4375 -0.3516
   26MOL0     C 3412   3.245  10.051  10.727 -0.1582  0.4546  0.7356
   26MOL0     C 3413   3.152  10.112  10.627  0.2483  0.2986 -0.5303
   26MOL0     C 3414   3.024  10.034  10.613 -0.0901 -0.0168 -0.7197
   26MOL0     C 3415   2.924  10.096  10.528  1.1372 -0.3648  0.5729
   26MOL0     C 3416   2.792  10.018  10.540 -0.4349 -0.1695  0.1748
   26MOL0     C 3417   2.687  10.076  10.445  0.5515  0.1941 -0.2093
   26MOL0     C 3418   2.652  10.223  10.456  0.3193 -0.2288 -0.1194
   26MOL0     C 3419   2.574  10.240  10.594 -0.5003  0.5548  0.6293
   26MOL0    Cl 3420   2.484  10.389  10.606  0.0350  0.3682  0.1327
   26MOL0     C 3421   3.613  10.070  10.662 -1.0711  0.6392 -0.1131
   26MOL0     C 3422   3.722   9.990  10.662  0.8107 -0.6836 -0.5599
   26MOL0     O 3423   3.937   9.903  10.869 -0.3646  0.2067  0.0187
   26MOL0     C 3424   4.139   9.731  10.906 -0.1429 -0.9323 -0.1032
   26MOL0     C 3425   4.238   9.644  10.919 -0.1689  0.5426 -0.1630
   26MOL0     N 3426   4.754   8.935  10.637  0.4711 -0.5157  0.2161
   26MOL0     N 3427   4.712   8.861  10.538 -0.0742 -0.6395  0.1363
   26MOL0     C 3428   3.440   8.689  10.085  0.5520 -0.5992  0.4758
   26MOL0     C 3429   3.325   8.678  10.004  0.2708 -0.5130 -0.8985
   26MOL0     C 3430   2.993   8.578   9.745  0.1114  0.1826  0.7013
   26MOL0     C 3431   2.984   8.655   9.626 -0.5440  0.4328  0.3627
   26MOL0     C 3432   2.869   8.677   9.560 -0.3975 -0.0265  0.1829
   26MOL0     C 3433   2.759   8.605   9.604 -0.6369 -0.4448 -0.0901
   26MOL0     O 3434   2.634   8.605   9.540  0.4122  0.1141  0.5238
   26MOL0     C 3435   2.618   8.694   9.437 -0.6068 -0.8503  0.1074
   26MOL0     C 3436   2.476   8.670   9.381 -0.7711 -0.1878  0.6915
   26MOL0     C 3437   2.432   8.771   9.275  0.8572  0.9415 -0.0385
   26MOL0     C 3438   2.282   8.773   9.250 -0.6172  0.4503 -0.8210
   26MOL0     C 3439   2.255   8.858   9.132 -0.5360 -0.2386  0.2312
   26MOL0     C 3440   2.243   8.937   9.034 -0.6496 -0.1964 -0.7703
   26MOL0     C 3441   2.761   8.535   9.720  1.4384  0.4019  0.1869
   26MOL0     C 3442   2.872   8.526   9.797 -0.0108  0.7619 -0.1745
   26MOL0     H 3443   3.460   8.726   9.701  1.9839  0.9120 -0.2226
   26MOL0     H 3444   3.665   8.742   9.853  0.1213 -2.7537  0.3142
   26MOL0     H 3445   3.664   8.734  10.318  1.3204  0.2839  0.1786
   26MOL0     H 3446   3.655   8.571  10.241  0.5828  0.2309 -0.4256
   26MOL0     H 3447   3.886   8.589  10.316 -2.6106 -1.1052 -0.3113
   26MOL0     H 3448   3.880   8.602  10.139  0.2774  0.3655 -0.7894
   26MOL0     H 3449   3.919   8.846  10.162  1.7911 -1.1839 -0.2935
   26MOL0     H 3450   3.904   8.832  10.338  0.9558  1.3142 -0.0676
   26MOL0     H 3451   4.105   8.683  10.335 -1.4175  0.0040  0.8382
   26MOL0     H 3452   4.103   8.707  10.164 -0.3188 -1.7735  0.4831
   26MOL0     H 3453   4.133   8.959  10.189 -2.2353 -1.6749 -1.5630
   26MOL0     H 3454   4.138   8.930  10.363  0.0040 -0.1037 -1.0407
   26MOL0     H 3455   4.325   8.762  10.203 -0.9103  0.3908 -0.9682
   26MOL0     H 3456   4.350   8.945  10.195 -1.3689  0.3730 -0.0606
   26MOL0     H 3457   4.340   8.931  10.441 -0.7792 -0.5366 -0.1478
   26MOL0     H 3458   4.366   8.751  10.434  1.9239  0.4134  0.0781
   26MOL0     H 3459   4.558   8.947  10.303 -1.5988  1.2244  2.7363
   26MOL0     H 3460   4.581   8.781  10.322  0.4414  0.2564  2.3905
   26MOL0     H 3461   4.499   9.101  10.538  2.7550  2.5104  2.6685
   26MOL0     H 3462   4.709   9.127  10.850  2.4465  1.5865  0.9172
   26MOL0     H 3463   4.806   9.200  10.721  0.0584 -1.2859 -0.9516
   26MOL0     H 3464   4.598   9.335  10.659 -1.2549 -1.9563 -0.8346
   26MOL0     H 3465   4.672   9.363  10.821 -1.1087 -0.0476  0.1271
   26MOL0     H 3466   4.484   9.245  10.934 -0.6978 -1.4548  0.4805
   26MOL0     H 3467   4.477   9.142  10.795  0.9077 -0.1973  0.2330
   26MOL0     H 3468   4.274   9.294  10.812  1.1109 -0.1779  3.2574
   26MOL0     H 3469   4.362   9.344  10.669 -0.6592 -0.6224  0.4434
   26MOL0     H 3470   4.236   9.502  10.617 -2.0530 -3.9465  1.3324
   26MOL0     H 3471   4.081   9.602  10.480  0.3022  0.9856  0.5848
   26MOL0     H 3472   3.932   9.561  10.563 -1.5823  1.8376  1.6103
   26MOL0     H 3473   3.985   9.734  10.537  0.2156  0.7654  1.4359
   26MOL0     H 3474   3.602   9.731  10.847 -1.8298  0.5128  0.2752
   26MOL0     H 3475   3.408   9.881  10.861 -1.4535  1.7952 -0.3317
   26MOL0     H 3476   3.250   9.945  10.697  1.6205  0.4710  0.8637
   26MOL0     H 3477   3.202  10.054  10.827  0.1567 -1.6761  0.9974
   26MOL0     H 3478   3.141  10.217  10.658 -0.8923 -0.5628  2.3222
   26MOL0     H 3479   3.200  10.122  10.529  0.1347  2.7596 -0.4140
   26MOL0     H 3480   2.984  10.028  10.715  0.6135  0.3448 -0.4166
   26MOL0     H 3481   3.039   9.933  10.574  1.3080  0.4389 -1.4014
   26MOL0     H 3482   2.902  10.199  10.559 -1.1653 -0.3320 -0.8752
   26MOL0     H 3483   2.952  10.099  10.423  0.4651 -1.7671  0.3363
   26MOL0     H 3484   2.755  10.027  10.642 -0.1946  0.7899  0.1886
   26MOL0     H 3485   2.806   9.913  10.512  0.6383 -0.4627  1.7146
   26MOL0     H 3486   2.737  10.059  10.350 -1.7415 -0.8900 -1.3008
   26MOL0     H 3487   2.595  10.018  10.449  1.0748 -0.7070 -0.9210
   26MOL0     H 3488   2.585  10.260  10.378 -2.2497 -0.1206  1.9588
   26MOL0     H 3489   2.735  10.294  10.452 -1.4707  2.0421  0.3908
   26MOL0     H 3490   2.651  10.238  10.672 -1.3829  2.7404  1.6305
   26MOL0     H 3491   2.509  10.155  10.616  2.5212 -1.5225  2.3842
   26MOL0     H 3492   3.615  10.167  10.614 -1.6101  0.6992 -0.0125
   26MOL0     H 3493   3.817  10.025  10.621  1.2967 -2.9776 -1.5438
   26MOL0     H 3494   4.113   9.786  10.995  1.1288 -1.0283  0.3508
   26MOL0     H 3495   4.302   9.644  11.006  0.6992 -2.6604 -0.6890
   26MOL0     H 3496   3.435   8.703  10.192  2.1676  0.4494  0.4569
   26MOL0     H 3497   3.227   8.672  10.049  0.6182  1.0860  0.1831
   26MOL0     H 3498   3.070   8.709   9.587 -2.0477  0.8856 -2.5946
   26MOL0     H 3499   2.864   8.739   9.471 -1.1297 -1.1871 -0.6098
   26MOL0     H 3500   2.618   8.797   9.475 -2.9285 -1.6948  2.7973
   26MOL0     H 3501   2.688   8.691   9.353 -0.7408  0.2394 -0.0587
   26MOL0     H 3502   2.401   8.667   9.461 -1.7543 -3.2103 -0.2095
   26MOL0     H 3503   2.471   8.569   9.338 -1.3929  0.2371 -0.2711
   26MOL0     H 3504   2.489   8.746   9.185 -0.8758 -0.2562 -0.8604
   26MOL0     H 3505   2.466   8.869   9.308  0.1083  0.3229  2.8215
   26MOL0     H 3506   2.236   8.813   9.341 -1.0023  2.8045 -1.9645
   26MOL0     H 3507   2.251   8.670   9.231  1.6837 -0.2221 -1.1841
   26MOL0     H 3508   2.250   8.998   8.946 -0.2058 -0.2828 -0.7962
   26MOL0     H 3509   2.665   8.491   9.748  1.9394 -1.0580 -0.2672
   26MOL0     H 3510   2.851   8.468   9.886 -2.0490  0.8545 -0.5390
   27MOL0     O 3511   6.352   0.430   8.595 -0.3620  0.0306  0.1784
   27MOL0     C 3512   6.451   0.369   8.543  0.3417 -0.3465 -0.8777
   27MOL0     O 3513   6.439   0.262   8.453 -0.2608 -0.1654  0.5275
   27MOL0     C 3514   6.320   0.209   8.436  0.3003  0.4258 -0.0378
   27MOL0     C 3515   6.318   0.064   8.441  0.6052 -0.1538 -0.7073
   27MOL0     C 3516   6.200  -0.008   8.410 -0.1646  0.1527 -0.3729
   27MOL0     C 3517   6.079   0.059   8.369 -0.6576 -0.1898 -0.4989
   27MOL0     O 3518   5.965  -0.011   8.356 -0.9017  0.1100 -0.2553
   27MOL0     C 3519   5.861   0.047   8.282  0.8751 -0.3772 -0.3393
   27MOL0     C 3520   5.743  -0.061   8.279  0.0510  0.1274 -0.2604
   27MOL0     C 3521   5.631  -0.013   8.180 -0.7037 -0.3138  0.2518
   27MOL0     C 3522   5.513  -0.111   8.182  0.0975  0.6534 -0.1944
   27MOL0     C 3523   5.403  -0.044   8.101  0.0570 -0.0101  0.0088
   27MOL0     C 3524   5.289  -0.143   8.064 -0.0928  0.2922 -0.2485
   27MOL0     C 3525   5.186  -0.071   7.988  0.2449  0.0257  0.2834
   27MOL0     C 3526   5.048  -0.140   7.970  0.5275  0.0053 -0.0374
   27MOL0     N 3527   4.977  -0.104   7.843  0.0647 -0.2585 -0.4732
   27MOL0     C 3528   4.887   0.005   7.829  0.2749  0.1068 -0.7762
   27MOL0     C 3529   4.874   0.037   7.695 -0.0029 -0.3645  0.5150
   27MOL0     C 3530   4.787   0.132   7.605 -0.5518  0.1426  0.3605
   27MOL0     C 3531   4.639   0.104   7.630 -0.1942  0.0234  0.1232
   27MOL0     C 3532   4.605  -0.046   7.618  0.4945  0.0167 -0.1045
   27MOL0     C 3533   4.664  -0.125   7.502 -0.0876 -0.0631 -0.0413
   27MOL0     O 3534   4.627  -0.083   7.369  0.2040 -0.3476  0.0002
   27MOL0     C 3535   4.496  -0.102   7.331 -0.0101 -0.8017 -0.2678
   27MOL0     C 3536   4.464  -0.056   7.205  0.0357 -0.4291 -0.5842
   27MOL0     C 3537   4.338  -0.061   7.145  0.5976  0.3215  0.2760
   27MOL0     C 3538   4.327   0.002   7.010  0.5119 -0.3414 -0.3329
   27MOL0     C 3539   4.236  -0.135   7.210 -0.5231  0.2038 -0.7259
   27MOL0     C 3540   4.093  -0.150   7.169 -0.3750  0.1839  0.4003
   27MOL0     O 3541   4.003  -0.197   7.263 -0.0216  0.8680 -0.0172
   27MOL0     C 3542   3.871  -0.211   7.216  0.2593 -0.6637 -0.5207
   27MOL0     C 3543   3.805  -0.097   7.178 -0.7978  0.7390 -0.3004
   27MOL0     C 3544   3.669  -0.106   7.131  0.6772  0.3728  0.3427
   27MOL0     C 3545   3.594  -0.224   7.147  0.5856  0.4841 -0.3971
   27MOL0     O 3546   3.461  -0.247   7.116 -0.2441 -0.0438  0.2253
   27MOL0     C 3547   3.411  -0.169   7.007  0.0125 -0.1869 -0.8910
   27MOL0     C 3548   3.312  -0.266   6.936  0.5294  0.3401  0.0170
   27MOL0     C 3549   3.177  -0.284   7.013 -1.2491  0.3279 -1.1613
   27MOL0     C 3550   3.091  -0.378   6.938  0.5832  0.0050 -0.3495
   27MOL0     C 3551   2.954  -0.396   7.004 -0.6757 -0.5786  0.0213
   27MOL0     C 3552   2.960  -0.458   7.148 -0.0570 -0.2042  0.0429
   27MOL0     C 3553   2.815  -0.487   7.183 -0.0774 -0.0020  1.1460
   27MOL0     C 3554   2.795  -0.561   7.314  0.6970 -0.3647 -0.7854
   27MOL0    Cl 3555   2.622  -0.600   7.362  0.1587  0.3458 -0.0315
   27MOL0     C 3556   3.664  -0.324   7.208 -0.4183 -0.6441 -0.5931
   27MOL0     C 3557   3.794  -0.327   7.236  0.0103  0.6164 -0.7288
   27MOL0     O 3558   4.072  -0.129   7.048  0.4546  0.2481 -0.1561
   27MOL0     C 3559   4.268  -0.185   7.338 -0.0037 -0.6642  0.2805
   27MOL0     C 3560   4.395  -0.167   7.394 -1.2476 -0.1487  0.2984
   27MOL0     N 3561   4.960  -0.059   7.636 -1.0357  0.7297  0.2132
   27MOL0     N 3562   5.014  -0.140   7.724 -0.9617  1.1371  0.4195
   27MOL0     C 3563   6.084   0.198   8.340 -0.0203 -0.7467 -0.3458
   27MOL0     C 3564   6.200   0.277   8.387  0.3138  0.3445  1.0222
   27MOL0     C 3565   6.586   0.419   8.572 -0.3874 -1.0597 -0.3751
   27MOL0     C 3566   6.599   0.545   8.637 -0.7704 -0.3384  0.0107
   27MOL0     C 3567   6.725   0.603   8.636 -1.0116  0.1606 -0.1188
   27MOL0     C 3568   6.841   0.537   8.591 -0.8343 -0.5362  0.0501
   27MOL0     O 3569   6.969   0.589   8.602 -0.2067 -0.0731  0.6047
   27MOL0     C 3570   7.004   0.624   8.741 -0.1920  0.5258  0.4979
   27MOL0     C 3571   7.156   0.668   8.746  0.9979  0.1261  0.3235
   27MOL0     C 3572   7.250   0.586   8.657  0.1124 -0.4190  0.4799
   27MOL0     C 3573   7.401   0.613   8.661 -0.1300  0.1235 -0.3142
   27MOL0     C 3574   7.436   0.752   8.663 -0.4581 -0.7872  0.3230
   27MOL0     C 3575   7.462   0.869   8.672  0.4935 -0.5343  0.2049
   27MOL0     C 3576   6.825   0.413   8.532  0.1252  0.6733  0.2930
   27MOL0     C 3577   6.702   0.347   8.532 -0.1359 -0.0670  0.4966
   27MOL0     H 3578   6.396   0.006   8.489 -0.1583 -1.0623 -0.5436
   27MOL0     H 3579   6.205  -0.115   8.423  0.0841 -0.0696 -2.0958
   27MOL0     H 3580   5.828   0.137   8.335  1.6788  0.1627 -0.7365
   27MOL0     H 3581   5.887   0.064   8.177 -0.5182 -1.6954 -0.9437
   27MOL0     H 3582   5.787  -0.149   8.231 -1.8701 -0.2158 -1.5039
   27MOL0     H 3583   5.692  -0.081   8.374 -0.3512 -1.1086 -0.7204
   27MOL0     H 3584   5.596   0.086   8.212 -1.5030 -0.1713 -0.9900
   27MOL0     H 3585   5.677  -0.002   8.082  3.9862 -1.3107  2.0847
   27MOL0     H 3586   5.539  -0.209   8.140  2.1756  1.7594 -1.7198
   27MOL0     H 3587   5.481  -0.124   8.285 -0.2952  1.7706 -0.1657
   27MOL0     H 3588   5.368   0.042   8.159  0.4063 -1.0386  1.8142
   27MOL0     H 3589   5.447   0.001   8.012 -1.4864  0.9957 -0.2939
   27MOL0     H 3590   5.327  -0.232   8.013  2.1239  2.0145 -1.8293
   27MOL0     H 3591   5.243  -0.189   8.152 -0.9857 -1.7023 -1.6867
   27MOL0     H 3592   5.164   0.027   8.032  0.5700  0.7724 -1.1610
   27MOL0     H 3593   5.227  -0.051   7.889  2.9519  4.2578  1.9934
   27MOL0     H 3594   4.984  -0.105   8.051  0.2368 -1.4680  0.3960
   27MOL0     H 3595   5.056  -0.249   7.972  0.0130 -0.0281  0.4508
   27MOL0     H 3596   4.851   0.061   7.914  0.3812 -1.9381  0.6754
   27MOL0     H 3597   4.812   0.238   7.613  0.3793 -0.1500  1.7305
   27MOL0     H 3598   4.808   0.106   7.501 -0.2109 -0.0775  0.4848
   27MOL0     H 3599   4.589   0.159   7.550  2.1780  0.2855 -1.2968
   27MOL0     H 3600   4.608   0.131   7.731 -2.5016 -0.4142 -0.4220
   27MOL0     H 3601   4.496  -0.055   7.605  0.5256 -0.5758  0.0241
   27MOL0     H 3602   4.622  -0.093   7.715 -2.5800 -0.3367  0.3924
   27MOL0     H 3603   4.645  -0.232   7.513 -2.2125  0.4036  1.1822
   27MOL0     H 3604   4.773  -0.132   7.512  0.1024 -1.0149 -2.1564
   27MOL0     H 3605   4.547   0.001   7.166 -0.6141  1.9478  1.2837
   27MOL0     H 3606   4.234   0.060   7.014  0.0439 -1.0980 -0.1541
   27MOL0     H 3607   4.401   0.079   6.986  0.3003  0.1788  0.6370
   27MOL0     H 3608   4.331  -0.071   6.929  0.3839  1.5243 -2.1211
   27MOL0     H 3609   3.860  -0.004   7.169 -0.9741  1.0860  1.8626
   27MOL0     H 3610   3.614  -0.015   7.112 -0.7776 -0.1780  1.7192
   27MOL0     H 3611   3.363  -0.078   7.043 -2.0681 -1.5267 -0.0682
   27MOL0     H 3612   3.496  -0.141   6.944  1.6581 -2.1466  0.3301
   27MOL0     H 3613   3.288  -0.216   6.841 -2.2509  1.5572  1.2359
   27MOL0     H 3614   3.359  -0.362   6.909 -0.9716 -0.6537  0.7710
   27MOL0     H 3615   3.136  -0.185   7.036 -0.4623  0.2458  0.8091
   27MOL0     H 3616   3.209  -0.333   7.106  0.7816  1.6683 -1.0668
   27MOL0     H 3617   3.086  -0.341   6.835  1.8458  1.6235  0.1406
   27MOL0     H 3618   3.135  -0.478   6.928 -2.4906 -1.7528  1.8171
   27MOL0     H 3619   2.893  -0.456   6.935 -1.2460  0.1431 -0.1190
   27MOL0     H 3620   2.912  -0.295   7.016  1.0353  0.0570  1.0101
   27MOL0     H 3621   3.018  -0.549   7.164  0.8113  0.4657  0.8634
   27MOL0     H 3622   2.991  -0.376   7.213 -1.1653  1.2232 -1.1633
   27MOL0     H 3623   2.782  -0.551   7.100 -1.1295  3.7664 -1.6098
   27MOL0     H 3624   2.757  -0.395   7.173  3.0886  1.9178 -2.5968
   27MOL0     H 3625   2.850  -0.516   7.398 -1.4101 -0.1689  0.5484
   27MOL0     H 3626   2.842  -0.659   7.299  0.7823 -0.3568 -0.5739
   27MOL0     H 3627   3.608  -0.415   7.228  0.9489 -1.6580 -1.2173
   27MOL0     H 3628   3.844  -0.418   7.269 -2.2018 -0.3061  0.2903
   27MOL0     H 3629   4.200  -0.241   7.401 -1.3211 -0.3898 -0.8264
   27MOL0     H 3630   4.415  -0.210   7.492  0.7043 -0.6394 -0.2669
   27MOL0     H 3631   6.000   0.250   8.294  2.2763  2.1738 -1.5565
   27MOL0     H 3632   6.209   0.382   8.363  1.5797  0.0315  0.0164
   27MOL0     H 3633   6.506   0.596   8.658 -1.3296 -1.5238  0.5449
   27MOL0     H 3634   6.744   0.703   8.674  0.4424  0.1131 -0.6525
   27MOL0     H 3635   6.933   0.699   8.777  0.3476  0.4905  1.6731
   27MOL0     H 3636   6.994   0.542   8.812 -1.7751 -1.0464 -1.4313
   27MOL0     H 3637   7.185   0.647   8.850 -0.1933 -0.5782  0.5347
   27MOL0     H 3638   7.168   0.774   8.725 -1.0053  0.3896  0.2602
   27MOL0     H 3639   7.218   0.609   8.555 -1.8597 -3.1084  0.3523
   27MOL0     H 3640   7.251   0.478   8.678  1.0700 -0.6661 -0.7291
   27MOL0     H 3641   7.454   0.559   8.582  0.4236  0.4354 -0.1632
   27MOL0     H 3642   7.434   0.560   8.751 -3.2912 -0.1502  0.8390
   27MOL0     H 3643   7.495   0.971   8.680  0.1412 -0.3386 -0.6391
   27MOL0     H 3644   6.916   0.364   8.500  0.6801 -0.8476  3.7536
   27MOL0     H 3645   6.708   0.251   8.482  3.7104  0.7885 -0.9953
   28MOL0     O 3646   2.113   0.203   0.037  0.8711  0.2161  0.1623
   28MOL0     C 3647   2.132   0.114   0.122 -0.1660 -0.0092  0.1768
   28MOL0     O 3648   2.033   0.036   0.170  0.4988  0.5802  0.0648
   28MOL0     C 3649   1.906   0.021   0.116 -0.8717 -0.2152  0.1584
   28MOL0     C 3650   1.873   0.040  -0.016 -0.6144 -0.4028  0.1198
   28MOL0     C 3651   1.747   0.017  -0.073  0.1918  0.9942 -0.2588
   28MOL0     C 3652   1.642  -0.020   0.015  0.2348 -0.1648 -0.2415
   28MOL0     O 3653   1.529  -0.047  -0.047  0.2195  0.8518  0.3674
   28MOL0     C 3654   1.414  -0.043   0.032  0.5411  0.1390 -1.8353
   28MOL0     C 3655   1.376  -0.185   0.079  0.5919  0.4576 -0.7493
   28MOL0     C 3656   1.273  -0.195   0.202  0.0302 -0.2884 -0.3414
   28MOL0     C 3657   1.134  -0.145   0.163  0.2327 -0.4763  0.1992
   28MOL0     C 3658   1.056  -0.153   0.299  0.1350 -1.1253  0.1516
   28MOL0     C 3659   1.026  -0.296   0.347  0.4819 -0.1700  0.2236
   28MOL0     C 3660   0.907  -0.310   0.450  0.0856  0.0043 -0.0896
   28MOL0     C 3661   0.771  -0.292   0.388  0.0665  0.4147 -1.0362
   28MOL0     N 3662   0.671  -0.270   0.499  0.4524 -0.1957  0.3359
   28MOL0     C 3663   0.640  -0.149   0.554 -0.8064  0.4300 -0.2630
   28MOL0     C 3664   0.536  -0.174   0.637  0.2378 -0.0422  0.1240
   28MOL0     C 3665   0.477  -0.061   0.716 -0.2915 -0.1248  1.2133
   28MOL0     C 3666   0.329  -0.030   0.685 -0.4323 -0.9269  0.4681
   28MOL0     C 3667   0.296  -0.036   0.534 -0.0330  0.5154  0.1175
   28MOL0     C 3668   0.369   0.066   0.455  0.7310 -0.1848  0.5143
   28MOL0     O 3669   0.355   0.209   0.491  0.1011  0.6312  0.2113
   28MOL0     C 3670   0.240   0.287   0.481 -0.5123 -1.1050  0.5358
   28MOL0     C 3671   0.246   0.410   0.538  0.6117  0.5065  0.4613
   28MOL0     C 3672   0.141   0.501   0.523 -0.6502  0.3555  0.0407
   28MOL0     C 3673   0.164   0.636   0.584  0.3165 -0.6957  0.7399
   28MOL0     C 3674   0.024   0.472   0.450  0.8467  0.3007  0.1380
   28MOL0     C 3675  -0.082   0.566   0.413 -0.4581  0.1355 -0.2726
   28MOL0     O 3676  -0.099   0.667   0.500  0.1555  0.3249  1.3386
   28MOL0     C 3677  -0.209   0.742   0.484 -0.2717  0.7304 -0.1207
   28MOL0     C 3678  -0.330   0.684   0.525 -0.5992 -0.8798 -0.5192
   28MOL0     C 3679  -0.446   0.766   0.516  0.4875  0.1616  0.1771
   28MOL0     C 3680  -0.446   0.882   0.445  0.2729  0.1927  0.0397
   28MOL0     O 3681  -0.559   0.947   0.425  0.6071 -0.3000 -0.1902
   28MOL0     C 3682  -0.558   1.089   0.402  0.4944 -0.6188 -0.3628
   28MOL0     C 3683  -0.699   1.145   0.418  0.2498  0.3192  0.2224
   28MOL0     C 3684  -0.692   1.299   0.397 -0.0623 -0.4055  0.4552
   28MOL0     C 3685  -0.839   1.353   0.396 -0.3969  0.2678  0.8365
   28MOL0     C 3686  -0.832   1.492   0.334  0.6910  0.0263 -0.1958
   28MOL0     C 3687  -0.971   1.554   0.314  0.8270  0.2566  0.1922
   28MOL0     C 3688  -1.023   1.627   0.446  0.9661  0.3076 -0.5111
   28MOL0     C 3689  -0.957   1.755   0.472  0.4658  0.5522 -0.7822
   28MOL0    Cl 3690  -1.057   1.864   0.580  0.1526 -0.3658 -0.4344
   28MOL0     C 3691  -0.327   0.931   0.389  0.2504  0.5678 -0.4972
   28MOL0     C 3692  -0.209   0.859   0.410 -0.4337 -0.0998  0.0913
   28MOL0     O 3693  -0.142   0.543   0.308 -0.2236  0.1533  0.0653
   28MOL0     C 3694   0.018   0.345   0.390 -0.2998  1.2617 -0.0935
   28MOL0     C 3695   0.127   0.255   0.406 -0.4201 -0.0892 -0.0976
   28MOL0     N 3696   0.522  -0.314   0.647 -0.2175 -0.3235 -0.4108
   28MOL0     N 3697   0.610  -0.366   0.568  0.0340  0.7784 -0.2522
   28MOL0     C 3698   1.679  -0.052   0.150  0.6259 -0.5569  0.1358
   28MOL0     C 3699   1.805  -0.031   0.193  0.1766  0.3812 -0.4251
   28MOL0     C 3700   2.271   0.086   0.178 -0.3694  0.4225  0.4063
   28MOL0     C 3701   2.304  -0.039   0.237 -0.3163 -0.3913 -0.1450
   28MOL0     C 3702   2.421  -0.070   0.291  0.5445  0.5601 -0.5044
   28MOL0     C 3703   2.528   0.029   0.287  0.0864  0.3851 -0.4950
   28MOL0     O 3704   2.653   0.015   0.333 -0.2684  0.3785 -1.1779
   28MOL0     C 3705   2.681  -0.101   0.410  0.1787  0.2854  0.7447
   28MOL0     C 3706   2.839  -0.125   0.410  0.2103 -0.1423 -0.1993
   28MOL0     C 3707   2.915   0.004   0.457  0.0095 -0.3614 -0.1053
   28MOL0     C 3708   3.065  -0.014   0.462 -0.2048  0.6504 -0.0313
   28MOL0     C 3709   3.119   0.088   0.556 -0.0306  0.2574  0.0935
   28MOL0     C 3710   3.170   0.164   0.636 -0.3782  0.0944  0.7563
   28MOL0     C 3711   2.505   0.150   0.225 -0.5321 -0.0520  0.2856
   28MOL0     C 3712   2.379   0.176   0.166 -0.0768  0.2580  0.8409
   28MOL0     H 3713   1.955   0.072  -0.080 -0.1855 -0.1134  0.8086
   28MOL0     H 3714   1.735   0.033  -0.180  0.9452 -3.7001 -1.2752
   28MOL0     H 3715   1.425   0.023   0.118 -0.9412  0.2207 -1.6805
   28MOL0     H 3716   1.329   0.007  -0.014  0.9145  3.4337  0.6496
   28MOL0     H 3717   1.340  -0.239  -0.008 -1.4530  1.8167 -0.8044
   28MOL0     H 3718   1.469  -0.236   0.107 -0.8346 -2.4474 -0.9147
   28MOL0     H 3719   1.265  -0.299   0.234 -0.5147  0.6073  2.7748
   28MOL0     H 3720   1.310  -0.148   0.293  2.6861 -2.9348  0.0829
   28MOL0     H 3721   1.146  -0.046   0.119  2.4949 -0.9615 -0.4202
   28MOL0     H 3722   1.088  -0.207   0.085  1.7324 -0.8271 -0.4610
   28MOL0     H 3723   1.103  -0.101   0.383 -0.0696  0.1565 -0.5110
   28MOL0     H 3724   0.967  -0.093   0.280  0.4538 -1.0097 -1.0346
   28MOL0     H 3725   1.006  -0.356   0.257  1.1646  0.5926 -0.4516
   28MOL0     H 3726   1.116  -0.341   0.389 -0.5755 -3.0222 -0.3521
   28MOL0     H 3727   0.904  -0.412   0.489 -2.1112  0.2879  0.6306
   28MOL0     H 3728   0.929  -0.247   0.536  3.6182 -1.7223  0.4857
   28MOL0     H 3729   0.743  -0.382   0.332  2.7715  0.7886 -3.2031
   28MOL0     H 3730   0.783  -0.207   0.320  0.0613  3.1720  2.1241
   28MOL0     H 3731   0.689  -0.056   0.525  0.5296 -0.9099 -2.7033
   28MOL0     H 3732   0.504  -0.083   0.820  2.0294 -2.4013  0.2546
   28MOL0     H 3733   0.546   0.023   0.704  1.2627 -1.1820  2.2413
   28MOL0     H 3734   0.312   0.071   0.724  0.0349  0.2291 -2.1320
   28MOL0     H 3735   0.272  -0.110   0.733  1.5055 -2.0697  0.9618
   28MOL0     H 3736   0.188  -0.023   0.522 -1.1716 -4.6815  2.0104
   28MOL0     H 3737   0.320  -0.138   0.505 -0.3406  0.5738 -0.3585
   28MOL0     H 3738   0.354   0.059   0.347  3.3606  0.1574  0.0530
   28MOL0     H 3739   0.476   0.044   0.463  0.9826  0.6427 -0.3701
   28MOL0     H 3740   0.339   0.431   0.590 -0.3863 -1.2942  3.1907
   28MOL0     H 3741   0.096   0.651   0.667  0.9494  4.2139  0.6736
   28MOL0     H 3742   0.263   0.650   0.628  1.0022  1.5485 -1.2497
   28MOL0     H 3743   0.148   0.720   0.515 -1.1676 -1.0698  0.6126
   28MOL0     H 3744  -0.338   0.584   0.567  0.5034 -0.1217  1.6638
   28MOL0     H 3745  -0.542   0.727   0.549  1.1711 -1.3324  0.4507
   28MOL0     H 3746  -0.490   1.141   0.469 -1.2258 -0.2790  1.1885
   28MOL0     H 3747  -0.524   1.089   0.298 -2.5801 -2.4527 -1.4997
   28MOL0     H 3748  -0.742   1.099   0.329 -0.7448 -1.3129  1.4953
   28MOL0     H 3749  -0.749   1.118   0.511  0.5813 -1.9419 -0.1981
   28MOL0     H 3750  -0.641   1.317   0.302 -1.3078  1.3550  0.0884
   28MOL0     H 3751  -0.632   1.340   0.479  2.5609 -0.1860 -1.4378
   28MOL0     H 3752  -0.902   1.299   0.324 -0.4876  1.3398  0.0864
   28MOL0     H 3753  -0.880   1.350   0.497  1.3944  0.6559  1.6177
   28MOL0     H 3754  -0.789   1.477   0.234 -0.1907  0.2155 -0.6207
   28MOL0     H 3755  -0.766   1.552   0.396 -0.5099  0.2635  0.8894
   28MOL0     H 3756  -0.973   1.622   0.228 -2.1599  0.2175  0.1170
   28MOL0     H 3757  -1.046   1.481   0.284  0.0436  1.6773 -1.4985
   28MOL0     H 3758  -1.014   1.569   0.538  0.8619  1.4658  0.2417
   28MOL0     H 3759  -1.132   1.637   0.435  0.3111 -1.6552  2.8717
   28MOL0     H 3760  -0.952   1.795   0.370 -2.6448 -0.4973 -1.4574
   28MOL0     H 3761  -0.863   1.738   0.525 -1.0539 -0.4586  1.7633
   28MOL0     H 3762  -0.334   1.015   0.321 -1.1334  0.9843  0.1395
   28MOL0     H 3763  -0.121   0.892   0.355 -0.0592  0.4894  1.0192
   28MOL0     H 3764  -0.065   0.320   0.326 -0.8598  1.9059  0.3609
   28MOL0     H 3765   0.130   0.159   0.354  0.4224 -0.1155 -0.0253
   28MOL0     H 3766   1.601  -0.085   0.218 -0.1029  2.7052  1.0242
   28MOL0     H 3767   1.816  -0.060   0.297 -0.5397 -0.8847 -0.6894
   28MOL0     H 3768   2.231  -0.118   0.248 -0.3781 -0.3878 -0.5489
   28MOL0     H 3769   2.427  -0.163   0.348  0.0850  0.2094 -1.0183
   28MOL0     H 3770   2.647  -0.087   0.513  0.7898  1.8564  0.7634
   28MOL0     H 3771   2.638  -0.192   0.368 -1.8768  1.3273  0.4673
   28MOL0     H 3772   2.852  -0.140   0.302 -0.1198 -1.2453 -0.0991
   28MOL0     H 3773   2.869  -0.215   0.465  2.9408 -1.1205 -2.9696
   28MOL0     H 3774   2.875   0.036   0.553 -0.6856  1.4845 -0.9527
   28MOL0     H 3775   2.893   0.084   0.385 -1.0472  0.1952  0.8054
   28MOL0     H 3776   3.103   0.017   0.364 -0.4309  2.3815  0.3949
   28MOL0     H 3777   3.083  -0.116   0.495 -2.5288 -0.2870 -1.3909
   28MOL0     H 3778   3.207   0.234   0.708  3.2840 -0.0366 -0.7438
   28MOL0     H 3779   2.586   0.222   0.220 -2.2234  1.9556 -4.6157
   28MOL0     H 3780   2.356   0.269   0.114  0.5095  0.3824  0.8009
   29MOL0     O 3781   5.038   4.605   7.841 -0.6721  0.7461  0.6770
   29MOL0     C 3782   5.042   4.509   7.761 -0.4830 -0.6575 -0.1449
   29MOL0     O 3783   4.949   4.472   7.673  0.4480 -0.1014  0.3643
   29MOL0     C 3784   4.840   4.554   7.654  0.0885 -0.2946  0.2049
   29MOL0     C 3785   4.752   4.598   7.756 -0.5609 -0.1743  0.1433
   29MOL0     C 3786   4.661   4.691   7.727  0.2974 -0.4890 -0.4789
   29MOL0     C 3787   4.635   4.739   7.597 -0.3310  0.1901  0.3172
   29MOL0     O 3788   4.527   4.815   7.583  0.4327 -0.0860  0.4536
   29MOL0     C 3789   4.469   4.825   7.457 -0.4589  0.6079  0.2566
   29MOL0     C 3790   4.338   4.883   7.477  0.8238  0.0331  0.3535
   29MOL0     C 3791   4.252   4.934   7.361  0.2683  0.2437  0.8354
   29MOL0     C 3792   4.131   5.009   7.422  0.0184 -1.2284  0.1969
   29MOL0     C 3793   4.030   5.059   7.310  0.5555 -0.0740 -0.0483
   29MOL0     C 3794   3.899   5.083   7.381  0.5089 -0.5404 -0.2484
   29MOL0     C 3795   3.883   5.210   7.476 -0.4065  0.6326 -0.1748
   29MOL0     C 3796   3.747   5.222   7.538  0.4521  0.1893  0.2032
   29MOL0     N 3797   3.644   5.250   7.441 -0.2728 -0.8955  0.8728
   29MOL0     C 3798   3.520   5.197   7.438  0.4410 -0.1404 -0.3232
   29MOL0     C 3799   3.456   5.244   7.332  0.2694  0.4631 -0.0452
   29MOL0     C 3800   3.313   5.194   7.304 -0.1455 -0.9798  0.1123
   29MOL0     C 3801   3.219   5.316   7.286 -0.2752 -0.8297  0.4648
   29MOL0     C 3802   3.073   5.278   7.309 -0.8451 -0.1558  0.4731
   29MOL0     C 3803   3.033   5.159   7.226  0.0654  0.1817 -0.0558
   29MOL0     O 3804   3.075   5.176   7.091 -0.4149 -0.8016  0.4601
   29MOL0     C 3805   3.023   5.105   6.989  0.0324 -0.1692  0.1860
   29MOL0     C 3806   2.982   4.971   7.001 -0.3942  0.3990  0.3057
   29MOL0     C 3807   2.934   4.891   6.894  0.5144  0.2853  0.9234
   29MOL0     C 3808   2.876   4.749   6.918  0.6734 -0.1719  0.5770
   29MOL0     C 3809   2.915   4.956   6.773  0.3851 -0.1861  0.0123
   29MOL0     C 3810   2.858   4.887   6.653 -0.5289 -0.3343 -0.7537
   29MOL0     O 3811   2.885   4.750   6.631 -0.8710 -0.2744 -0.0081
   29MOL0     C 3812   2.827   4.680   6.525  0.3797 -0.9194 -0.8621
   29MOL0     C 3813   2.901   4.651   6.413 -0.1636  0.1660 -0.2766
   29MOL0     C 3814   2.838   4.590   6.305 -0.4236  0.3698  0.0819
   29MOL0     C 3815   2.707   4.548   6.305  1.0959  0.0847 -0.0649
   29MOL0     O 3816   2.639   4.484   6.203  0.1134  0.5974 -0.1875
   29MOL0     C 3817   2.718   4.455   6.094  0.5726 -0.9517  0.0137
   29MOL0     C 3818   2.615   4.384   6.003  0.0898  0.3520  0.0131
   29MOL0     C 3819   2.588   4.245   6.061  1.0318  0.5088 -0.2800
   29MOL0     C 3820   2.511   4.163   5.960 -0.2509  0.6330  0.0247
   29MOL0     C 3821   2.465   4.030   6.019 -0.6723  0.5277 -0.4131
   29MOL0     C 3822   2.392   3.934   5.919 -0.3479  0.0333 -0.2847
   29MOL0     C 3823   2.349   3.802   5.986 -0.4625  0.2994 -0.1642
   29MOL0     C 3824   2.246   3.810   6.094  0.1938 -0.8892 -0.3156
   29MOL0    Cl 3825   2.118   3.909   6.022  0.0029  0.0098  0.2169
   29MOL0     C 3826   2.636   4.569   6.427 -0.0875  0.0564 -0.4092
   29MOL0     C 3827   2.697   4.634   6.534 -0.0009 -0.3007  0.6373
   29MOL0     O 3828   2.801   4.960   6.572 -0.2621 -0.5429  0.1853
   29MOL0     C 3829   2.952   5.094   6.765  0.1318  0.4876  0.1512
   29MOL0     C 3830   3.005   5.170   6.869  0.5952  0.2352 -0.5494
   29MOL0     N 3831   3.536   5.335   7.270 -0.0396 -0.2883 -0.6463
   29MOL0     N 3832   3.653   5.334   7.328 -0.6746 -0.0073 -0.5294
   29MOL0     C 3833   4.723   4.701   7.495 -0.3622 -1.2456  0.0181
   29MOL0     C 3834   4.829   4.613   7.523 -0.3832  0.9228  0.3698
   29MOL0     C 3835   5.173   4.435   7.750  0.4037  0.0501  0.0402
   29MOL0     C 3836   5.293   4.464   7.819  0.0441  0.4896  0.3319
   29MOL0     C 3837   5.407   4.393   7.795 -0.1185  0.7022  0.0422
   29MOL0     C 3838   5.411   4.278   7.716 -0.6365 -0.3980  0.4515
   29MOL0     O 3839   5.521   4.197   7.701 -0.2232 -0.7630 -0.3295
   29MOL0     C 3840   5.630   4.200   7.789 -0.9053  0.0599 -0.3196
   29MOL0     C 3841   5.729   4.078   7.769  0.8993  0.0694  0.0891
   29MOL0     C 3842   5.875   4.121   7.805 -0.3634  0.2963  0.1898
   29MOL0     C 3843   5.976   4.020   7.828 -0.0689 -0.2420 -0.4382
   29MOL0     C 3844   6.005   3.930   7.713  0.7070 -0.2761 -0.8570
   29MOL0     C 3845   6.026   3.866   7.611 -0.3838  0.1302  0.1202
   29MOL0     C 3846   5.296   4.246   7.647 -0.1778  0.7452  0.1748
   29MOL0     C 3847   5.182   4.325   7.660 -0.7011 -0.7711 -0.0231
   29MOL0     H 3848   4.763   4.547   7.851 -0.3947 -1.1229 -0.3714
   29MOL0     H 3849   4.604   4.713   7.817  2.3343  0.9631  0.5558
   29MOL0     H 3850   4.518   4.895   7.388  0.3444  1.3646  1.5559
   29MOL0     H 3851   4.467   4.725   7.411  0.6897 -0.4332  2.3475
   29MOL0     H 3852   4.268   4.811   7.520  0.6928 -1.2295 -1.8035
   29MOL0     H 3853   4.342   4.964   7.550  0.3348  1.1202 -0.7774
   29MOL0     H 3854   4.311   5.008   7.306 -0.4769  0.3013  0.1136
   29MOL0     H 3855   4.216   4.860   7.289  0.3407  0.6664  0.3590
   29MOL0     H 3856   4.085   4.936   7.488 -0.0703  0.9605  2.7388
   29MOL0     H 3857   4.170   5.097   7.474 -0.1353 -1.3624  0.5370
   29MOL0     H 3858   4.079   5.145   7.263  1.5643 -1.0696 -0.8889
   29MOL0     H 3859   4.011   4.985   7.231  0.2262  0.6057 -0.6189
   29MOL0     H 3860   3.825   5.100   7.302 -1.0985  0.1294  1.3271
   29MOL0     H 3861   3.856   4.996   7.431 -2.1986  0.8534  0.0714
   29MOL0     H 3862   3.956   5.209   7.558  0.2681  3.6369 -0.6158
   29MOL0     H 3863   3.910   5.295   7.413 -0.9891  1.2718  0.4124
   29MOL0     H 3864   3.747   5.299   7.616 -2.1774  2.1391 -1.5749
   29MOL0     H 3865   3.709   5.127   7.578  1.2062 -1.3541 -2.5062
   29MOL0     H 3866   3.478   5.126   7.509  0.0779 -1.7084 -2.0180
   29MOL0     H 3867   3.308   5.133   7.214 -0.6711 -2.3216  1.0135
   29MOL0     H 3868   3.296   5.134   7.394  2.9867  1.0072  2.2212
   29MOL0     H 3869   3.234   5.353   7.184  0.8516 -2.6318 -0.0780
   29MOL0     H 3870   3.249   5.403   7.344  1.4087  0.0007 -1.5160
   29MOL0     H 3871   3.012   5.366   7.287 -0.3803 -0.3938 -2.1022
   29MOL0     H 3872   3.052   5.273   7.416  2.2717  3.1152  1.4387
   29MOL0     H 3873   2.926   5.141   7.241  0.4226 -2.1485  0.1505
   29MOL0     H 3874   3.084   5.067   7.258  0.7666  0.2967 -0.8176
   29MOL0     H 3875   2.994   4.923   7.098 -0.3073 -1.6129 -0.6688
   29MOL0     H 3876   2.965   4.686   6.908  0.1552 -1.0974  1.5697
   29MOL0     H 3877   2.844   4.742   7.022  0.5151 -0.0554  0.5356
   29MOL0     H 3878   2.797   4.714   6.850  1.2740 -1.2041  0.3864
   29MOL0     H 3879   3.006   4.676   6.423 -0.7150  1.9846  2.2025
   29MOL0     H 3880   2.902   4.589   6.217 -1.5235  0.9278 -0.7445
   29MOL0     H 3881   2.746   4.547   6.042 -0.7893 -0.4770  0.0871
   29MOL0     H 3882   2.809   4.394   6.100  1.4389  0.3573  0.7568
   29MOL0     H 3883   2.528   4.449   5.989 -0.1452  0.0286 -0.0538
   29MOL0     H 3884   2.665   4.371   5.906  0.1457  0.8221 -0.0238
   29MOL0     H 3885   2.518   4.263   6.144 -1.7158  1.8142 -2.7066
   29MOL0     H 3886   2.673   4.183   6.092 -0.8973 -2.2533 -0.1332
   29MOL0     H 3887   2.423   4.223   5.931 -0.2946  0.4928 -0.1334
   29MOL0     H 3888   2.572   4.140   5.873 -0.1341  0.3868  0.1706
   29MOL0     H 3889   2.397   4.042   6.103  0.4402 -0.0644  0.6096
   29MOL0     H 3890   2.554   3.984   6.064 -2.4936 -0.1696  2.7347
   29MOL0     H 3891   2.306   3.985   5.876 -0.2613  0.1344 -0.3379
   29MOL0     H 3892   2.463   3.911   5.839 -3.4904 -2.3290 -2.6335
   29MOL0     H 3893   2.434   3.754   6.037  0.0845  1.9121  0.4924
   29MOL0     H 3894   2.313   3.732   5.909 -1.2006  0.4470  0.0417
   29MOL0     H 3895   2.282   3.865   6.181  0.3390 -2.0265  0.3721
   29MOL0     H 3896   2.203   3.714   6.127 -0.9511 -0.2147  0.2019
   29MOL0     H 3897   2.533   4.538   6.446 -0.5950  1.3646 -0.8694
   29MOL0     H 3898   2.643   4.651   6.627  1.2480  1.0809  1.1330
   29MOL0     H 3899   2.931   5.150   6.675 -2.9839 -0.7314 -0.0062
   29MOL0     H 3900   3.028   5.276   6.862  1.8233  0.3555  3.2783
   29MOL0     H 3901   4.714   4.752   7.400 -4.6392  2.6557  2.1106
   29MOL0     H 3902   4.896   4.582   7.443 -0.9126  2.2619 -0.6218
   29MOL0     H 3903   5.292   4.547   7.889  2.0573  0.4316  0.4771
   29MOL0     H 3904   5.496   4.419   7.850 -0.6378  0.1006  1.2007
   29MOL0     H 3905   5.688   4.290   7.769 -0.8045  0.5594  1.8882
   29MOL0     H 3906   5.602   4.214   7.894  1.3393 -0.5998  0.4382
   29MOL0     H 3907   5.738   4.052   7.664 -1.1338  0.9209 -0.3416
   29MOL0     H 3908   5.707   3.991   7.831 -0.8609  0.3384 -0.1152
   29MOL0     H 3909   5.876   4.173   7.902  0.2580  3.1983 -1.2713
   29MOL0     H 3910   5.915   4.192   7.732 -1.0363  0.5863  0.0970
   29MOL0     H 3911   5.938   3.957   7.909  2.2633  0.3956  1.2528
   29MOL0     H 3912   6.066   4.071   7.864 -1.4130  1.0456  1.3322
   29MOL0     H 3913   6.047   3.798   7.531 -1.7032 -1.3413  0.9793
   29MOL0     H 3914   5.294   4.155   7.588  2.5922  0.3057  0.6416
   29MOL0     H 3915   5.098   4.299   7.596  0.8786 -0.8306 -2.1992
   30MOL0     O 3916  10.121   1.969   8.953  0.2150  0.3445 -0.2771
   30MOL0     C 3917  10.133   1.927   8.840  1.1321 -0.8869  0.5561
   30MOL0     O 3918  10.045   1.851   8.770  0.2910  1.0905  0.4980
   30MOL0     C 3919   9.934   1.809   8.840 -0.0008  0.5440  0.5605
   30MOL0     C 3920   9.922   1.674   8.875  0.1970 -0.1179  0.4597
   30MOL0     C 3921   9.817   1.631   8.952 -0.5207 -0.8038 -0.4071
   30MOL0     C 3922   9.723   1.721   9.003  0.0244 -0.7214  0.3730
   30MOL0     O 3923   9.613   1.680   9.071 -0.1973  0.3563  0.2208
   30MOL0     C 3924   9.593   1.535   9.082 -0.3967 -0.3739 -0.3702
   30MOL0     C 3925   9.475   1.510   9.156  0.0784 -0.4733 -0.5630
   30MOL0     C 3926   9.355   1.569   9.098  0.5704  0.8367  0.0985
   30MOL0     C 3927   9.241   1.569   9.209 -0.7436 -0.0920  0.7196
   30MOL0     C 3928   9.107   1.616   9.148 -0.8020  0.9853 -0.3000
   30MOL0     C 3929   9.021   1.495   9.115  0.8728  0.5323  0.5957
   30MOL0     C 3930   8.885   1.537   9.059  0.3942  0.4064  0.4532
   30MOL0     C 3931   8.790   1.596   9.162  0.4639  0.3312 -0.1181
   30MOL0     N 3932   8.656   1.629   9.116  0.0120 -0.7741 -0.3930
   30MOL0     C 3933   8.537   1.579   9.165 -0.0299 -0.2564 -0.3947
   30MOL0     C 3934   8.443   1.650   9.098 -0.0725 -0.6890  0.5231
   30MOL0     C 3935   8.300   1.647   9.124  0.2949 -0.0465  0.1348
   30MOL0     C 3936   8.272   1.766   9.216 -0.3289  0.1002 -0.2918
   30MOL0     C 3937   8.142   1.769   9.290 -0.1865  0.1682  1.0753
   30MOL0     C 3938   8.114   1.878   9.391  0.1230 -0.1413  0.5973
   30MOL0     O 3939   8.024   1.833   9.496  0.1813  0.2979  0.7762
   30MOL0     C 3940   7.884   1.829   9.477 -0.0560 -0.6355 -0.4714
   30MOL0     C 3941   7.815   1.923   9.412  0.3666 -0.1100 -0.0570
   30MOL0     C 3942   7.675   1.921   9.393  0.2133  0.1088  0.2641
   30MOL0     C 3943   7.608   2.047   9.343 -0.0110  1.0854 -0.2301
   30MOL0     C 3944   7.610   1.811   9.444 -0.0013  0.4270 -0.2630
   30MOL0     C 3945   7.459   1.807   9.444 -1.1635  0.0869  0.0469
   30MOL0     O 3946   7.402   1.706   9.372 -0.1286 -0.8702  0.3556
   30MOL0     C 3947   7.265   1.720   9.354  0.1747 -0.1286 -0.3918
   30MOL0     C 3948   7.189   1.840   9.352 -0.0900 -0.0642  0.0408
   30MOL0     C 3949   7.052   1.839   9.322 -0.1380  0.5310 -0.0949
   30MOL0     C 3950   6.993   1.717   9.306  0.3202 -0.1713 -0.1809
   30MOL0     O 3951   6.858   1.697   9.295  0.5689 -0.1088 -0.2832
   30MOL0     C 3952   6.774   1.809   9.337 -0.3251  0.7595  0.3370
   30MOL0     C 3953   6.629   1.764   9.357  0.5545 -0.2897  0.1119
   30MOL0     C 3954   6.554   1.718   9.222 -0.2314  0.0237  0.0739
   30MOL0     C 3955   6.413   1.675   9.262  0.0827 -0.0529 -0.4126
   30MOL0     C 3956   6.333   1.631   9.138  0.2467 -0.4388  0.2205
   30MOL0     C 3957   6.205   1.566   9.185 -0.0824  0.0588  0.4199
   30MOL0     C 3958   6.116   1.553   9.055  0.6281  0.1465 -0.3877
   30MOL0     C 3959   5.976   1.502   9.063 -0.0427 -0.2606  0.1329
   30MOL0    Cl 3960   5.860   1.596   9.173  0.4817 -0.3523  0.3827
   30MOL0     C 3961   7.065   1.601   9.305  0.2574 -0.0315 -0.3114
   30MOL0     C 3962   7.198   1.602   9.325 -0.9695 -0.4489 -0.5283
   30MOL0     O 3963   7.410   1.885   9.522  0.4222 -0.9526  0.5418
   30MOL0     C 3964   7.685   1.704   9.506 -0.1294  0.3785  0.5914
   30MOL0     C 3965   7.820   1.713   9.520  0.1974  0.0127  0.8376
   30MOL0     N 3966   8.502   1.733   8.997  0.0968  0.1641 -0.2946
   30MOL0     N 3967   8.626   1.717   9.013 -0.4478 -0.4133  0.2002
   30MOL0     C 3968   9.733   1.854   8.969 -0.1931  0.3688  0.8287
   30MOL0     C 3969   9.838   1.898   8.886 -0.0286  0.8466 -0.1773
   30MOL0     C 3970  10.262   1.935   8.778  0.1033 -0.1554  0.0757
   30MOL0     C 3971  10.349   2.049   8.812 -0.5903 -0.1454  0.0414
   30MOL0     C 3972  10.471   2.069   8.744  0.5085 -0.7382  0.1545
   30MOL0     C 3973  10.507   1.976   8.645  0.3010 -0.3447 -0.1422
   30MOL0     O 3974  10.632   1.969   8.587 -0.1818  0.2900  0.1476
   30MOL0     C 3975  10.731   2.071   8.601  0.4549 -1.0951  0.1745
   30MOL0     C 3976  10.834   2.055   8.495 -0.1543  0.2801 -0.3392
   30MOL0     C 3977  10.933   2.163   8.499  1.1597  0.7042  0.1008
   30MOL0     C 3978  11.007   2.177   8.368  0.4077 -0.3756 -0.2835
   30MOL0     C 3979  11.098   2.065   8.347  0.0410  0.0281  0.0332
   30MOL0     C 3980  11.185   1.979   8.336  0.6971  0.2011 -0.1883
   30MOL0     C 3981  10.419   1.865   8.607 -0.9043 -0.4806 -0.6848
   30MOL0     C 3982  10.299   1.845   8.682  0.3511 -1.2027 -0.0458
   30MOL0     H 3983  10.007   1.617   8.839 -0.7100 -0.0376 -2.0265
   30MOL0     H 3984   9.818   1.524   8.972 -1.3898 -0.8249 -0.4294
   30MOL0     H 3985   9.599   1.484   8.986  1.1985  2.7241 -2.0624
   30MOL0     H 3986   9.674   1.497   9.146 -0.8806 -1.2388 -0.2548
   30MOL0     H 3987   9.462   1.401   9.160 -1.1979 -0.3669 -1.0267
   30MOL0     H 3988   9.480   1.546   9.258 -0.5672  1.4771 -1.1810
   30MOL0     H 3989   9.362   1.671   9.061 -1.7388  0.3535 -1.8902
   30MOL0     H 3990   9.316   1.520   9.009  0.8078  1.7518 -0.5139
   30MOL0     H 3991   9.227   1.473   9.262 -0.4120 -0.9314 -0.6650
   30MOL0     H 3992   9.271   1.642   9.285  0.3300 -0.5237  0.7284
   30MOL0     H 3993   9.064   1.679   9.227 -0.8742 -2.8196  3.0551
   30MOL0     H 3994   9.125   1.668   9.054  0.7664  2.2061  0.6365
   30MOL0     H 3995   9.063   1.439   9.031 -0.6107 -2.1180  1.5035
   30MOL0     H 3996   9.007   1.421   9.194  0.6255 -0.8134 -0.6635
   30MOL0     H 3997   8.891   1.594   8.965 -0.8429  0.9914  0.7027
   30MOL0     H 3998   8.846   1.442   9.022  2.7824  0.5742 -2.9739
   30MOL0     H 3999   8.812   1.697   9.196  1.0436  0.4918 -0.9578
   30MOL0     H 4000   8.782   1.521   9.241 -2.4021 -0.2395 -0.8090
   30MOL0     H 4001   8.526   1.502   9.241  1.3269 -0.6548 -0.5837
   30MOL0     H 4002   8.252   1.669   9.029  0.1782  2.3152  0.6746
   30MOL0     H 4003   8.274   1.556   9.179 -1.6070 -1.9928 -3.6054
   30MOL0     H 4004   8.297   1.859   9.165  0.4813 -0.3741 -0.7815
   30MOL0     H 4005   8.353   1.767   9.289 -1.3798 -0.0100  0.9067
   30MOL0     H 4006   8.134   1.672   9.341 -0.1428  0.0259  0.8165
   30MOL0     H 4007   8.070   1.789   9.210 -0.2803  2.9033  1.7519
   30MOL0     H 4008   8.076   1.973   9.353  0.4301 -0.0738  0.4501
   30MOL0     H 4009   8.205   1.907   9.446  0.8871 -0.5969 -0.3886
   30MOL0     H 4010   7.869   2.002   9.361 -0.1225  0.1064 -0.2447
   30MOL0     H 4011   7.682   2.114   9.297 -1.0450 -0.5458 -4.7773
   30MOL0     H 4012   7.529   2.031   9.270  0.7504  0.6700 -0.9825
   30MOL0     H 4013   7.565   2.096   9.431 -2.5633 -1.4643  0.0476
   30MOL0     H 4014   7.240   1.936   9.359 -0.4595  0.3102 -1.8848
   30MOL0     H 4015   6.989   1.927   9.317 -1.4995 -0.3859  0.3556
   30MOL0     H 4016   6.812   1.849   9.431  2.0782  1.3165 -0.8084
   30MOL0     H 4017   6.769   1.894   9.268  3.0425  2.3462  1.8178
   30MOL0     H 4018   6.629   1.681   9.428 -0.9772  1.1535  1.9165
   30MOL0     H 4019   6.570   1.841   9.407  0.5410 -0.6599  0.6750
   30MOL0     H 4020   6.611   1.636   9.176  1.0868  1.5059 -1.0480
   30MOL0     H 4021   6.563   1.802   9.153 -0.9948  2.5886  2.8976
   30MOL0     H 4022   6.415   1.591   9.333 -0.6122  2.1835  2.4573
   30MOL0     H 4023   6.359   1.760   9.303  1.8709  0.5972  0.7198
   30MOL0     H 4024   6.392   1.559   9.081  2.2179  0.1300  1.4273
   30MOL0     H 4025   6.310   1.719   9.077 -0.7085 -0.8666 -0.0549
   30MOL0     H 4026   6.236   1.468   9.223  2.8831  0.7578  0.0800
   30MOL0     H 4027   6.148   1.620   9.260 -0.9816 -1.9755  1.2713
   30MOL0     H 4028   6.166   1.492   8.979 -0.9265 -0.8864 -0.6481
   30MOL0     H 4029   6.104   1.653   9.011 -0.5025 -0.3924 -1.3909
   30MOL0     H 4030   5.980   1.395   9.086  0.7511  0.0660  1.5979
   30MOL0     H 4031   5.926   1.513   8.966  0.3760 -2.4853 -0.3930
   30MOL0     H 4032   7.016   1.505   9.290  0.7676 -0.2487 -0.6319
   30MOL0     H 4033   7.257   1.511   9.327 -0.7352 -0.3553  2.7332
   30MOL0     H 4034   7.630   1.614   9.533  2.4747 -1.4746  0.1082
   30MOL0     H 4035   7.872   1.627   9.560  1.4544  0.0632 -0.5778
   30MOL0     H 4036   9.658   1.925   9.002 -1.0969 -0.4075  0.4794
   30MOL0     H 4037   9.860   2.005   8.892  1.9191  0.5834 -1.7198
   30MOL0     H 4038  10.316   2.123   8.884 -0.0700 -0.6821  0.8472
   30MOL0     H 4039  10.531   2.154   8.776  1.4233 -1.9486  1.8624
   30MOL0     H 4040  10.692   2.173   8.594  0.2407 -1.1685  0.3019
   30MOL0     H 4041  10.785   2.060   8.695  1.1112  1.7767  0.2295
   30MOL0     H 4042  10.794   2.049   8.393 -2.2396 -1.6968  0.5078
   30MOL0     H 4043  10.883   1.958   8.507  2.1189  1.3627 -0.4641
   30MOL0     H 4044  11.008   2.149   8.577  2.5984 -2.1480 -1.6240
   30MOL0     H 4045  10.878   2.257   8.511 -1.5550 -0.7380 -0.2684
   30MOL0     H 4046  11.073   2.261   8.391 -1.6442  0.9084  1.3075
   30MOL0     H 4047  10.949   2.206   8.280 -0.0425  0.1754  0.1890
   30MOL0     H 4048  11.256   1.898   8.331  0.9062  0.3462  0.3414
   30MOL0     H 4049  10.449   1.793   8.532  2.1844 -0.2863  0.2240
   30MOL0     H 4050  10.232   1.764   8.655  0.5212 -1.3899  0.0932
   31MOL0     O 4051   1.168   6.421   0.146 -0.6859 -0.2603  0.1443
   31MOL0     C 4052   1.175   6.302   0.152  0.2154 -0.0640 -0.1099
   31MOL0     O 4053   1.072   6.215   0.147  0.7188  0.2048 -0.0165
   31MOL0     C 4054   0.947   6.243   0.087 -0.1639 -0.1142  0.3366
   31MOL0     C 4055   0.844   6.166   0.137 -0.1274 -0.3059 -0.0898
   31MOL0     C 4056   0.716   6.173   0.082  0.7245  0.4404 -0.6757
   31MOL0     C 4057   0.697   6.273  -0.017 -0.5277  0.3442  0.5179
   31MOL0     O 4058   0.567   6.291  -0.056 -0.6782 -0.2612  0.2665
   31MOL0     C 4059   0.511   6.408  -0.010 -0.0585 -0.2255 -0.4963
   31MOL0     C 4060   0.363   6.407  -0.060  0.2436 -0.6788  0.2950
   31MOL0     C 4061   0.283   6.519   0.001 -0.0212  0.2081 -0.7345
   31MOL0     C 4062   0.135   6.525  -0.024 -1.0742  0.0047  0.0454
   31MOL0     C 4063   0.058   6.604   0.076 -0.5881 -0.1516  0.1423
   31MOL0     C 4064  -0.090   6.578   0.070  0.3076 -0.2423 -0.1740
   31MOL0     C 4065  -0.145   6.617   0.208  0.5274 -0.3145 -0.0304
   31MOL0     C 4066  -0.280   6.696   0.185  0.6930  0.9366  0.6479
   31MOL0     N 4067  -0.330   6.724   0.324 -0.7375 -0.3301  0.1128
   31MOL0     C 4068  -0.262   6.735   0.447 -0.0662 -0.4124  0.0277
   31MOL0     C 4069  -0.354   6.771   0.544  0.1564 -0.2183  0.9437
   31MOL0     C 4070  -0.333   6.779   0.694 -0.0212  0.3500  0.7987
   31MOL0     C 4071  -0.457   6.804   0.771  0.2876 -0.4215 -0.1235
   31MOL0     C 4072  -0.501   6.949   0.788 -0.7657  0.4869  0.2295
   31MOL0     C 4073  -0.624   6.940   0.880 -0.1699 -0.4315  0.9226
   31MOL0     O 4074  -0.629   7.069   0.947  0.1662  0.0668  0.6474
   31MOL0     C 4075  -0.751   7.119   0.976 -0.3864 -0.6279  0.8692
   31MOL0     C 4076  -0.768   7.254   0.946 -0.4085  0.4220 -0.5001
   31MOL0     C 4077  -0.886   7.325   0.961  0.5018 -0.8523 -1.7074
   31MOL0     C 4078  -0.889   7.467   0.939  0.5680 -0.1661 -0.0157
   31MOL0     C 4079  -1.004   7.252   1.018 -1.0581 -0.0696 -0.4284
   31MOL0     C 4080  -1.131   7.315   1.054 -0.5258 -0.9250 -1.0003
   31MOL0     O 4081  -1.227   7.235   1.116  0.0836 -0.2079 -0.7004
   31MOL0     C 4082  -1.331   7.290   1.179 -0.5701  0.0036 -0.4033
   31MOL0     C 4083  -1.329   7.312   1.322  0.4155 -0.0449 -0.5169
   31MOL0     C 4084  -1.428   7.383   1.382  0.8132 -0.2482  0.6387
   31MOL0     C 4085  -1.532   7.437   1.309 -0.7371 -0.4186  0.5344
   31MOL0     O 4086  -1.632   7.513   1.365 -0.0940 -0.1062  0.0577
   31MOL0     C 4087  -1.755   7.445   1.386 -0.2611 -0.0393 -0.9875
   31MOL0     C 4088  -1.860   7.533   1.442 -0.2775 -0.0549  0.1002
   31MOL0     C 4089  -1.889   7.638   1.338  0.4487  0.5550 -0.6392
   31MOL0     C 4090  -2.020   7.697   1.398 -0.8928  0.0598 -0.1716
   31MOL0     C 4091  -2.066   7.815   1.316  0.4808  0.1735  0.2379
   31MOL0     C 4092  -2.176   7.904   1.390  0.4067 -0.0636  0.4393
   31MOL0     C 4093  -2.208   8.032   1.310  1.5422 -0.7620  0.3861
   31MOL0     C 4094  -2.296   8.129   1.385  0.5738 -0.1695 -0.7177
   31MOL0    Cl 4095  -2.372   8.246   1.283 -0.2370  0.4805 -0.0412
   31MOL0     C 4096  -1.539   7.415   1.174  0.3945  0.2068  0.3901
   31MOL0     C 4097  -1.441   7.342   1.104 -0.5168  0.1404 -0.4012
   31MOL0     O 4098  -1.151   7.430   1.016  0.6304 -0.1439 -0.0169
   31MOL0     C 4099  -0.989   7.117   1.046 -0.6313 -0.3485 -0.2477
   31MOL0     C 4100  -0.864   7.049   1.019  0.6793 -0.3738  0.1095
   31MOL0     N 4101  -0.476   6.781   0.476  0.5279  0.2998 -0.8204
   31MOL0     N 4102  -0.464   6.748   0.356  0.5651 -0.1897  0.3225
   31MOL0     C 4103   0.805   6.352  -0.065  0.5807  0.0348 -0.2673
   31MOL0     C 4104   0.928   6.335  -0.014 -0.2581  0.2342  0.0839
   31MOL0     C 4105   1.314   6.251   0.160  0.2824 -0.6198 -0.2407
   31MOL0     C 4106   1.416   6.342   0.134  0.1069  0.4980  0.6542
   31MOL0     C 4107   1.547   6.294   0.137 -0.4919 -1.0838 -0.2506
   31MOL0     C 4108   1.588   6.161   0.167  0.2516  0.0279 -0.1957
   31MOL0     O 4109   1.723   6.122   0.167  0.2285 -0.2290  0.9652
   31MOL0     C 4110   1.772   5.999   0.127 -0.8277 -0.3059 -0.6986
   31MOL0     C 4111   1.784   5.910   0.253 -0.7151  0.7767 -0.6495
   31MOL0     C 4112   1.803   5.758   0.240 -0.3533  0.4942  0.0042
   31MOL0     C 4113   1.925   5.713   0.158  0.9005 -0.1990 -0.1946
   31MOL0     C 4114   1.927   5.568   0.140  0.0841 -0.6146 -0.5136
   31MOL0     C 4115   1.901   5.446   0.127 -0.3845  0.3069 -0.0493
   31MOL0     C 4116   1.479   6.070   0.198 -0.1075  0.3065  0.3974
   31MOL0     C 4117   1.346   6.116   0.191 -0.4619  0.3232  0.3425
   31MOL0     H 4118   0.868   6.107   0.225  0.0133 -0.5491 -0.2909
   31MOL0     H 4119   0.635   6.113   0.120  2.9820 -2.1234  0.4413
   31MOL0     H 4120   0.523   6.404   0.099 -0.4907 -1.0767 -0.4676
   31MOL0     H 4121   0.570   6.492  -0.045  1.3264 -0.5521  0.9040
   31MOL0     H 4122   0.366   6.410  -0.169  3.9179  2.2532  0.2510
   31MOL0     H 4123   0.314   6.316  -0.024 -1.3806  0.3107  0.7124
   31MOL0     H 4124   0.297   6.514   0.110  0.1800  0.2076 -0.7594
   31MOL0     H 4125   0.320   6.617  -0.029 -1.2981  0.1548 -2.5838
   31MOL0     H 4126   0.128   6.565  -0.126  2.7221 -1.8529 -1.1328
   31MOL0     H 4127   0.096   6.423  -0.021  2.3127 -1.5962 -2.7173
   31MOL0     H 4128   0.103   6.563   0.167  3.4113  0.9808 -1.1179
   31MOL0     H 4129   0.087   6.709   0.088 -0.9574 -0.0774  0.4034
   31MOL0     H 4130  -0.141   6.633  -0.009  2.7499 -1.6908 -2.9537
   31MOL0     H 4131  -0.111   6.472   0.054 -1.4357 -0.3581  2.3610
   31MOL0     H 4132  -0.179   6.531   0.267  0.7942 -0.1619  0.3495
   31MOL0     H 4133  -0.077   6.674   0.272 -0.9134  0.5916  0.7484
   31MOL0     H 4134  -0.345   6.630   0.126  0.4065  0.3414  1.6132
   31MOL0     H 4135  -0.272   6.790   0.130  0.5970  2.4810  3.1499
   31MOL0     H 4136  -0.160   6.699   0.458  0.6292  1.1050 -1.0917
   31MOL0     H 4137  -0.283   6.689   0.730 -0.6190 -0.0941  0.5359
   31MOL0     H 4138  -0.266   6.864   0.711 -0.2361  1.0874 -1.5831
   31MOL0     H 4139  -0.433   6.756   0.867  0.3356 -2.9057 -1.3037
   31MOL0     H 4140  -0.532   6.745   0.719  0.3996  0.1343 -0.9410
   31MOL0     H 4141  -0.522   6.985   0.687  1.5809 -0.5434 -0.6980
   31MOL0     H 4142  -0.424   7.007   0.840 -1.3823 -1.0718  3.1389
   31MOL0     H 4143  -0.603   6.854   0.944  1.1557 -1.8023 -1.2320
   31MOL0     H 4144  -0.710   6.932   0.813  0.4761 -1.8729  0.2386
   31MOL0     H 4145  -0.680   7.304   0.906  1.0378 -0.2971  1.6139
   31MOL0     H 4146  -0.792   7.512   0.918  1.3278 -1.4025  0.6725
   31MOL0     H 4147  -0.961   7.476   0.857  0.9621 -3.7686 -0.9509
   31MOL0     H 4148  -0.921   7.527   1.024 -0.4838  3.3180 -2.6504
   31MOL0     H 4149  -1.244   7.271   1.377  0.4557 -0.3398 -0.7961
   31MOL0     H 4150  -1.424   7.389   1.490  0.3417  2.1987  0.5671
   31MOL0     H 4151  -1.790   7.391   1.297 -2.5394 -0.7571  0.2513
   31MOL0     H 4152  -1.742   7.368   1.463 -2.7856  0.4153  0.0063
   31MOL0     H 4153  -1.947   7.475   1.473  0.5922  0.0462  2.9776
   31MOL0     H 4154  -1.824   7.581   1.533 -0.2942 -0.4769  0.3329
   31MOL0     H 4155  -1.894   7.593   1.238  2.8169 -1.0105 -0.1461
   31MOL0     H 4156  -1.812   7.715   1.341 -0.1613  1.2574 -2.0691
   31MOL0     H 4157  -2.099   7.622   1.391  0.6433 -2.3668  4.5086
   31MOL0     H 4158  -2.010   7.727   1.502  2.9641  1.1460 -0.7033
   31MOL0     H 4159  -2.098   7.771   1.220  1.5316 -0.4377  0.1516
   31MOL0     H 4160  -1.976   7.871   1.289  0.5320  0.1603  0.3832
   31MOL0     H 4161  -2.271   7.850   1.401  0.7727 -1.2569 -1.6464
   31MOL0     H 4162  -2.133   7.940   1.484  0.1910 -0.1647  0.5770
   31MOL0     H 4163  -2.260   8.000   1.219  1.9605 -0.6146  0.0934
   31MOL0     H 4164  -2.118   8.089   1.289  0.2757  1.2904  0.2276
   31MOL0     H 4165  -2.240   8.189   1.458 -1.1778  0.6366  0.0334
   31MOL0     H 4166  -2.383   8.080   1.429  0.4095  0.2569 -0.5594
   31MOL0     H 4167  -1.620   7.457   1.114 -0.2753 -0.9432  0.4503
   31MOL0     H 4168  -1.450   7.321   0.998  0.2889  2.0293 -0.8860
   31MOL0     H 4169  -1.069   7.054   1.084 -1.6174 -0.0786 -1.7638
   31MOL0     H 4170  -0.868   6.942   1.035  3.0408 -0.8033 -1.7596
   31MOL0     H 4171   0.799   6.445  -0.122  2.2275  1.9406  2.4159
   31MOL0     H 4172   1.008   6.397  -0.053 -1.7300  0.6366 -2.5195
   31MOL0     H 4173   1.392   6.445   0.113 -1.9689 -0.1592 -0.4030
   31MOL0     H 4174   1.631   6.358   0.113 -1.5041  0.5183  0.3041
   31MOL0     H 4175   1.711   5.953   0.049  0.2118 -0.5753 -1.3586
   31MOL0     H 4176   1.873   6.012   0.089  0.0775  1.0654  1.9292
   31MOL0     H 4177   1.696   5.927   0.316 -0.1674  2.3923 -0.2580
   31MOL0     H 4178   1.866   5.946   0.316  1.1528 -1.7151 -1.5262
   31MOL0     H 4179   1.718   5.735   0.175 -0.5552  2.3769 -0.4444
   31MOL0     H 4180   1.783   5.706   0.334 -2.0198  0.5372 -0.3015
   31MOL0     H 4181   2.021   5.750   0.195 -0.1359  0.4729  1.9854
   31MOL0     H 4182   1.918   5.769   0.064  0.9615 -0.7540 -0.5319
   31MOL0     H 4183   1.868   5.346   0.109  1.0230  0.1819 -2.3762
   31MOL0     H 4184   1.495   5.966   0.226 -3.2835 -0.6524 -0.8426
   31MOL0     H 4185   1.264   6.049   0.214 -0.2749 -0.0063  0.0632
   32MOL0     O 4186   8.729   7.589   8.931  0.3876  0.7827  0.5438
   32MOL0     C 4187   8.835   7.608   8.874 -0.1546  0.2468  0.7539
   32MOL0     O 4188   8.875   7.558   8.756 -0.3957 -0.7085  0.5041
   32MOL0     C 4189   8.794   7.466   8.698 -0.1280  0.3088  0.4258
   32MOL0     C 4190   8.847   7.339   8.646  0.4551  0.1460 -0.3692
   32MOL0     C 4191   8.753   7.255   8.583 -1.0919 -0.4217  0.1311
   32MOL0     C 4192   8.618   7.293   8.562 -0.4699  0.0134  0.1055
   32MOL0     O 4193   8.525   7.207   8.490 -0.6098  0.2492  0.5481
   32MOL0     C 4194   8.575   7.145   8.371  0.2582 -0.4378 -0.9012
   32MOL0     C 4195   8.488   7.080   8.271  0.9409  0.2753  0.8191
   32MOL0     C 4196   8.388   6.977   8.329 -0.3039 -0.0765 -0.6383
   32MOL0     C 4197   8.258   6.962   8.248 -0.0401 -0.1299  0.1760
   32MOL0     C 4198   8.151   6.883   8.316  0.0297 -0.3322  0.5320
   32MOL0     C 4199   8.028   6.885   8.217  0.3464  0.1016 -0.3432
   32MOL0     C 4200   7.931   6.784   8.271  0.2443  0.8054 -0.4256
   32MOL0     C 4201   7.809   6.769   8.179  0.6375 -1.0033 -1.0918
   32MOL0     N 4202   7.729   6.649   8.217  0.1173  0.7044  0.5447
   32MOL0     C 4203   7.641   6.648   8.320 -0.4200 -0.0048 -0.8722
   32MOL0     C 4204   7.583   6.533   8.302  0.3622  0.2713 -0.0222
   32MOL0     C 4205   7.473   6.495   8.406  0.0294  0.7209 -0.1677
   32MOL0     C 4206   7.527   6.494   8.555 -0.7699  0.1092  0.1527
   32MOL0     C 4207   7.426   6.429   8.656 -0.3236  0.5927  0.2845
   32MOL0     C 4208   7.389   6.280   8.636  0.6119  0.2127 -0.7369
   32MOL0     O 4209   7.336   6.215   8.748 -0.4622  0.1932 -0.0919
   32MOL0     C 4210   7.210   6.246   8.784  0.5111  0.1974  0.2251
   32MOL0     C 4211   7.188   6.256   8.924 -0.3763 -0.1301  0.9661
   32MOL0     C 4212   7.066   6.286   8.980  0.0796 -0.4125  0.1779
   32MOL0     C 4213   7.065   6.279   9.126 -0.2377  0.0101  0.0905
   32MOL0     C 4214   6.963   6.329   8.897 -0.9372  0.7241  0.4146
   32MOL0     C 4215   6.822   6.366   8.946 -0.0831  0.6413  0.9441
   32MOL0     O 4216   6.751   6.456   8.866  0.5756 -0.4123 -0.2493
   32MOL0     C 4217   6.619   6.490   8.896 -0.5035 -0.2919 -0.2299
   32MOL0     C 4218   6.581   6.623   8.902  0.4079 -1.1904 -0.7477
   32MOL0     C 4219   6.450   6.671   8.931  0.3757 -0.5190  0.4031
   32MOL0     C 4220   6.347   6.576   8.925 -0.7507 -0.8838  0.3727
   32MOL0     O 4221   6.221   6.629   8.927 -0.0847  0.4269  0.4996
   32MOL0     C 4222   6.110   6.544   8.890 -0.1208  0.2146 -0.3503
   32MOL0     C 4223   5.982   6.622   8.852 -1.4384 -0.4571 -0.0166
   32MOL0     C 4224   5.927   6.696   8.977 -0.2341 -0.6026 -0.1142
   32MOL0     C 4225   5.807   6.783   8.934  0.3683 -0.3393 -0.2050
   32MOL0     C 4226   5.756   6.887   9.033  0.1947  0.8933  0.3356
   32MOL0     C 4227   5.656   6.982   8.969  0.1182 -0.8756 -0.5638
   32MOL0     C 4228   5.587   7.069   9.075  0.8331 -0.1984 -0.2897
   32MOL0     C 4229   5.470   7.161   9.009 -0.6343  0.9008 -0.7208
   32MOL0    Cl 4230   5.559   7.308   8.950 -0.3671  0.1612 -0.0589
   32MOL0     C 4231   6.383   6.442   8.934  0.2579 -0.1637 -0.0490
   32MOL0     C 4232   6.515   6.399   8.924 -0.2724  0.1598  0.9103
   32MOL0     O 4233   6.767   6.304   9.031  0.0032  0.4175  0.2243
   32MOL0     C 4234   6.984   6.337   8.760 -0.0102  0.0263 -0.1145
   32MOL0     C 4235   7.111   6.300   8.703  1.0353 -0.8061  0.0788
   32MOL0     N 4236   7.645   6.449   8.210 -0.2171 -0.3817 -0.6724
   32MOL0     N 4237   7.742   6.521   8.165 -0.0867 -0.0411  0.4359
   32MOL0     C 4238   8.574   7.409   8.622  0.4501 -0.1869 -0.0036
   32MOL0     C 4239   8.663   7.501   8.679  1.0560  0.2617 -0.3005
   32MOL0     C 4240   8.930   7.688   8.944 -0.6700 -0.4579 -0.4825
   32MOL0     C 4241   8.905   7.754   9.067 -0.0900 -0.2008 -0.8596
   32MOL0     C 4242   8.999   7.810   9.147 -0.1157 -0.3680 -0.4284
   32MOL0     C 4243   9.133   7.809   9.113 -0.0241  0.4918  0.1343
   32MOL0     O 4244   9.230   7.865   9.179  0.0206  0.8761 -0.5129
   32MOL0     C 4245   9.218   7.873   9.319 -0.6626  0.4270  0.7964
   32MOL0     C 4246   9.352   7.861   9.393 -0.3202 -0.0816 -0.2753
   32MOL0     C 4247   9.387   7.732   9.457  0.1265  0.2650  0.3395
   32MOL0     C 4248   9.503   7.755   9.554  0.5612 -0.1640 -0.4860
   32MOL0     C 4249   9.632   7.741   9.483  0.4912 -0.8473 -0.3092
   32MOL0     C 4250   9.742   7.733   9.432 -0.2760  0.8355  0.1125
   32MOL0     C 4251   9.165   7.737   8.993 -0.6847  0.4947  0.1416
   32MOL0     C 4252   9.067   7.680   8.909 -0.2913 -0.0669  0.0539
   32MOL0     H 4253   8.950   7.306   8.653 -0.1948 -1.7501  0.8366
   32MOL0     H 4254   8.786   7.166   8.531 -1.8664 -0.2454 -0.7105
   32MOL0     H 4255   8.624   7.226   8.315  1.3467 -0.3149  0.1863
   32MOL0     H 4256   8.650   7.070   8.399  0.1377 -0.3049 -0.2149
   32MOL0     H 4257   8.435   7.154   8.210  1.3979  2.4032  2.8447
   32MOL0     H 4258   8.564   7.040   8.204 -0.9688 -0.2552 -1.1300
   32MOL0     H 4259   8.431   6.878   8.347 -1.7870 -0.6920 -0.3057
   32MOL0     H 4260   8.351   7.011   8.426  0.7677 -0.2530 -0.1424
   32MOL0     H 4261   8.222   7.061   8.217 -2.7968 -1.7808 -2.4430
   32MOL0     H 4262   8.293   6.913   8.157  0.8976  0.8977 -0.0453
   32MOL0     H 4263   8.180   6.785   8.355 -0.2492 -0.4050  0.5574
   32MOL0     H 4264   8.121   6.945   8.401  0.0085  0.5109 -0.0754
   32MOL0     H 4265   7.992   6.988   8.217 -0.7852 -0.1862  2.3785
   32MOL0     H 4266   8.066   6.853   8.120  2.6294 -1.5168  0.9990
   32MOL0     H 4267   7.980   6.686   8.273  2.6468  1.9108 -1.4361
   32MOL0     H 4268   7.894   6.822   8.367  0.9772  1.6233 -0.4582
   32MOL0     H 4269   7.845   6.764   8.075  1.2508 -0.9216 -0.8884
   32MOL0     H 4270   7.755   6.864   8.186  1.0400 -0.7850 -0.9003
   32MOL0     H 4271   7.600   6.713   8.397 -2.8504 -2.1962 -0.1727
   32MOL0     H 4272   7.393   6.570   8.407  0.3224  1.1942  3.9029
   32MOL0     H 4273   7.441   6.393   8.381  1.8415  0.3006 -0.9449
   32MOL0     H 4274   7.542   6.597   8.589  0.2295  0.2835 -0.7598
   32MOL0     H 4275   7.623   6.442   8.557 -0.7912 -0.1463 -2.1833
   32MOL0     H 4276   7.331   6.482   8.640  0.4059  1.8318 -0.0613
   32MOL0     H 4277   7.460   6.449   8.758  3.2600  0.3665 -0.7151
   32MOL0     H 4278   7.471   6.209   8.620 -0.4096 -1.4902  1.0590
   32MOL0     H 4279   7.329   6.278   8.544 -1.5839  0.9113  0.6116
   32MOL0     H 4280   7.271   6.223   8.986  0.9842 -3.4109 -2.2141
   32MOL0     H 4281   7.140   6.217   9.176  0.0460  0.9455  0.8603
   32MOL0     H 4282   7.087   6.381   9.158  3.4781  0.1300 -2.2980
   32MOL0     H 4283   6.964   6.253   9.161 -1.8514  1.6691 -2.9548
   32MOL0     H 4284   6.659   6.697   8.892 -0.4033 -0.2795 -0.5523
   32MOL0     H 4285   6.440   6.777   8.951  0.5988 -0.5924  0.8976
   32MOL0     H 4286   6.145   6.476   8.812 -0.3991 -1.3069  0.8145
   32MOL0     H 4287   6.085   6.482   8.976  2.4666 -0.1854  0.2160
   32MOL0     H 4288   6.004   6.695   8.773 -2.0839 -2.5799 -2.2812
   32MOL0     H 4289   5.912   6.549   8.810 -0.5265 -1.4175  0.0759
   32MOL0     H 4290   5.998   6.764   9.024  2.3437 -0.7451 -3.4747
   32MOL0     H 4291   5.889   6.630   9.056 -0.8273  1.7370  1.6577
   32MOL0     H 4292   5.835   6.826   8.837  0.0596 -1.0714 -0.6299
   32MOL0     H 4293   5.719   6.728   8.899 -0.5826  0.6436  0.5878
   32MOL0     H 4294   5.839   6.939   9.082  1.9460 -3.3448  2.4189
   32MOL0     H 4295   5.700   6.829   9.107  0.5170  0.0311 -0.0751
   32MOL0     H 4296   5.707   7.054   8.904  1.2119  1.4375  2.6122
   32MOL0     H 4297   5.574   6.926   8.923 -0.3021  1.1921 -2.5291
   32MOL0     H 4298   5.648   7.140   9.131 -1.3772  1.4402  0.1654
   32MOL0     H 4299   5.538   6.996   9.140 -0.5279  1.8491  1.0647
   32MOL0     H 4300   5.394   7.175   9.086  0.7532 -1.5377  1.2409
   32MOL0     H 4301   5.429   7.108   8.922  1.4925  1.4071 -2.1417
   32MOL0     H 4302   6.304   6.367   8.932  0.0994  0.0095 -1.8383
   32MOL0     H 4303   6.547   6.295   8.927 -1.3153 -0.3031 -1.3579
   32MOL0     H 4304   6.903   6.370   8.697 -1.6683 -0.8342  1.4551
   32MOL0     H 4305   7.118   6.302   8.595 -2.3044  0.1165 -0.2432
   32MOL0     H 4306   8.472   7.446   8.613 -0.3680 -1.8119  1.8225
   32MOL0     H 4307   8.617   7.592   8.717 -0.2537 -0.6923  0.5000
   32MOL0     H 4308   8.803   7.745   9.104 -0.9475  2.8349 -2.1837
   32MOL0     H 4309   8.982   7.855   9.244  3.2419 -2.6318  1.4204
   32MOL0     H 4310   9.177   7.972   9.339  3.1020  2.5888 -1.2243
   32MOL0     H 4311   9.149   7.808   9.376 -2.1129  2.2940  1.2832
   32MOL0     H 4312   9.349   7.935   9.474 -0.5468 -2.6261  2.1709
   32MOL0     H 4313   9.434   7.892   9.327 -0.8713 -0.6336 -1.2397
   32MOL0     H 4314   9.406   7.661   9.377 -1.1371  0.4285 -0.1315
   32MOL0     H 4315   9.296   7.705   9.511 -0.5719  2.2444  0.2458
   32MOL0     H 4316   9.498   7.676   9.630  1.8119 -0.3996 -0.6236
   32MOL0     H 4317   9.501   7.851   9.606  3.1268 -1.3693  2.1471
   32MOL0     H 4318   9.837   7.710   9.389 -0.8075 -0.2269 -0.5438
   32MOL0     H 4319   9.265   7.724   8.952 -2.3716 -1.0576 -3.9498
   32MOL0     H 4320   9.096   7.623   8.821  2.8115  1.8264 -0.3095
   33MOL0     O 4321   8.491   9.570  10.054  0.3186  0.7902  0.0444
   33MOL0     C 4322   8.482   9.657   9.964  0.5111 -0.5713 -1.1471
   33MOL0     O 4323   8.367   9.698   9.914  0.0911 -0.6074 -0.4520
   33MOL0     C 4324   8.253   9.619   9.922 -0.9579 -0.1718 -0.2200
   33MOL0     C 4325   8.235   9.509   9.836  0.8548 -1.1591 -0.3265
   33MOL0     C 4326   8.119   9.428   9.845  0.0992  0.1011 -0.6218
   33MOL0     C 4327   8.018   9.467   9.941  0.4717 -0.8571 -0.0758
   33MOL0     O 4328   7.899   9.400   9.975  0.0994  0.8334 -0.0274
   33MOL0     C 4329   7.870   9.288   9.891  0.1909 -0.2889 -0.2650
   33MOL0     C 4330   7.738   9.234   9.930  1.3408  0.0893 -0.1416
   33MOL0     C 4331   7.620   9.313   9.876  0.5826 -0.3799 -0.8519
   33MOL0     C 4332   7.492   9.271   9.956 -0.5301  0.8226  0.2467
   33MOL0     C 4333   7.368   9.329   9.894 -0.0577 -0.0718  0.1699
   33MOL0     C 4334   7.336   9.266   9.756 -0.1758 -0.7281  0.5740
   33MOL0     C 4335   7.200   9.317   9.713  0.2330  0.5663  0.3051
   33MOL0     C 4336   7.162   9.272   9.574 -0.0321  0.2181  0.3257
   33MOL0     N 4337   7.038   9.335   9.527 -0.4901 -0.1439 -0.2785
   33MOL0     C 4338   7.034   9.421   9.424 -0.0877 -0.4830  0.4170
   33MOL0     C 4339   6.901   9.433   9.399  0.0608  0.2067  0.5624
   33MOL0     C 4340   6.861   9.522   9.286  0.0964 -1.0990 -0.6244
   33MOL0     C 4341   6.910   9.491   9.150 -0.5973 -0.4846  0.2404
   33MOL0     C 4342   6.861   9.612   9.060  0.2341  0.0556 -0.6666
   33MOL0     C 4343   6.791   9.554   8.933  0.8215  0.0256  0.2241
   33MOL0     O 4344   6.682   9.458   8.958 -1.0103 -0.0736  0.6776
   33MOL0     C 4345   6.559   9.506   8.961  1.0367 -0.6047  0.1514
   33MOL0     C 4346   6.494   9.552   8.845 -0.4440  0.9446  0.7141
   33MOL0     C 4347   6.378   9.622   8.836 -0.1670 -0.2922 -0.4983
   33MOL0     C 4348   6.327   9.636   8.693  0.4148  0.4231  0.6578
   33MOL0     C 4349   6.310   9.652   8.960 -0.0406  0.3645 -0.1291
   33MOL0     C 4350   6.179   9.715   8.977  0.1392 -0.2703 -0.2743
   33MOL0     O 4351   6.113   9.685   9.099  0.1323 -0.3684 -0.8602
   33MOL0     C 4352   6.005   9.763   9.119  0.1724  0.1965 -0.5032
   33MOL0     C 4353   6.004   9.898   9.157 -0.5460 -0.3477 -0.7176
   33MOL0     C 4354   5.888   9.971   9.177  0.0932  0.6341  0.0640
   33MOL0     C 4355   5.769   9.900   9.173 -0.2005  0.2849 -0.8273
   33MOL0     O 4356   5.661   9.970   9.201 -0.3695  0.5685  0.2696
   33MOL0     C 4357   5.542   9.913   9.265 -0.8243  0.4332 -0.0368
   33MOL0     C 4358   5.447  10.028   9.325  0.0024  0.2719  0.4762
   33MOL0     C 4359   5.386   9.983   9.458 -0.3627  0.2114 -0.3270
   33MOL0     C 4360   5.286  10.088   9.496 -0.0426 -0.0198 -0.1071
   33MOL0     C 4361   5.225  10.097   9.644  0.1919  0.2840  0.3422
   33MOL0     C 4362   5.330  10.061   9.754 -0.4262  0.7248 -0.1601
   33MOL0     C 4363   5.261  10.080   9.893 -1.0731  0.2775 -0.3147
   33MOL0     C 4364   5.373  10.087  10.002  0.0366  0.1194 -0.2609
   33MOL0    Cl 4365   5.456   9.927  10.015 -0.1966  0.1954  0.0950
   33MOL0     C 4366   5.772   9.765   9.142  0.5443 -0.6906  0.4718
   33MOL0     C 4367   5.886   9.702   9.110 -0.1285  0.7454 -0.3380
   33MOL0     O 4368   6.156   9.813   8.905  0.1590  0.6822 -0.0135
   33MOL0     C 4369   6.373   9.594   9.078 -0.4358 -0.2911  0.8360
   33MOL0     C 4370   6.490   9.520   9.080  0.2494 -0.3014  0.7583
   33MOL0     N 4371   6.832   9.370   9.494 -0.5132  0.1980 -0.0908
   33MOL0     N 4372   6.912   9.311   9.571  0.6002 -0.2179  0.0170
   33MOL0     C 4373   8.040   9.583  10.023 -0.3972  0.8185 -0.9061
   33MOL0     C 4374   8.159   9.651  10.024  0.2560  0.4848  0.2756
   33MOL0     C 4375   8.606   9.718   9.920 -0.6582  0.6495  0.7031
   33MOL0     C 4376   8.733   9.660   9.944 -0.1862 -0.5876  0.5708
   33MOL0     C 4377   8.852   9.730   9.901 -0.1431 -0.4130  0.2260
   33MOL0     C 4378   8.843   9.850   9.819 -0.8860  0.6451  0.4363
   33MOL0     O 4379   8.960   9.919   9.785  0.1420  0.3581 -0.1791
   33MOL0     C 4380   8.961   9.957   9.646 -0.3048 -0.0023 -0.2832
   33MOL0     C 4381   9.083   9.891   9.581  0.0486  0.3402  0.4640
   33MOL0     C 4382   9.076   9.734   9.574  0.0629 -0.5720 -0.5290
   33MOL0     C 4383   9.179   9.662   9.667 -0.0392 -0.5044 -0.3404
   33MOL0     C 4384   9.313   9.669   9.598 -0.3812  0.3853  0.0046
   33MOL0     C 4385   9.422   9.664   9.541  0.1430  0.0249 -0.9213
   33MOL0     C 4386   8.716   9.906   9.806  0.1832 -0.8448  0.1195
   33MOL0     C 4387   8.593   9.845   9.850  0.0111 -0.0199 -0.0496
   33MOL0     H 4388   8.319   9.480   9.773  0.0035  0.7545 -2.4649
   33MOL0     H 4389   8.105   9.344   9.778 -0.6995 -1.1438  1.0417
   33MOL0     H 4390   7.874   9.316   9.786 -2.9259  1.5092 -0.0519
   33MOL0     H 4391   7.937   9.204   9.912  1.3698  1.0860  2.0096
   33MOL0     H 4392   7.741   9.130   9.897  5.2466 -0.3597  1.0304
   33MOL0     H 4393   7.732   9.241  10.039 -2.4003  3.7137 -0.3408
   33MOL0     H 4394   7.638   9.419   9.892 -0.7448 -0.4047  1.1550
   33MOL0     H 4395   7.615   9.290   9.769 -0.6193  1.5696 -1.2593
   33MOL0     H 4396   7.491   9.161   9.955  2.6564  0.6634  1.9906
   33MOL0     H 4397   7.505   9.309  10.057  0.6669  0.1176  0.3787
   33MOL0     H 4398   7.278   9.316   9.954 -0.1473  1.6630  0.4730
   33MOL0     H 4399   7.372   9.437   9.873 -3.5082 -0.2284 -1.9732
   33MOL0     H 4400   7.414   9.300   9.687  0.2069  0.5039  1.5893
   33MOL0     H 4401   7.346   9.157   9.765  1.8112 -0.7530 -1.0591
   33MOL0     H 4402   7.123   9.288   9.785 -0.2884  1.4798  0.1364
   33MOL0     H 4403   7.209   9.426   9.703  0.8862  0.3766 -1.7183
   33MOL0     H 4404   7.142   9.165   9.569 -0.4102  0.3038 -0.0241
   33MOL0     H 4405   7.246   9.293   9.506 -0.0272 -0.0186  0.2572
   33MOL0     H 4406   7.115   9.462   9.365  0.2495  0.4469  1.4753
   33MOL0     H 4407   6.752   9.534   9.280  0.0406 -1.4576 -0.3745
   33MOL0     H 4408   6.907   9.617   9.313  0.1828 -0.7409 -1.9828
   33MOL0     H 4409   6.874   9.395   9.111 -2.5686  0.5772 -0.7019
   33MOL0     H 4410   7.019   9.495   9.154 -0.5831  2.5382 -0.5221
   33MOL0     H 4411   6.945   9.671   9.022  0.1602  0.8942  0.4269
   33MOL0     H 4412   6.795   9.681   9.114  2.7661  1.5364  0.7188
   33MOL0     H 4413   6.858   9.509   8.860 -0.9078  0.0595 -1.4620
   33MOL0     H 4414   6.756   9.637   8.870  0.5825  0.9499  1.5210
   33MOL0     H 4415   6.546   9.538   8.752 -1.6827  0.3239  0.0959
   33MOL0     H 4416   6.340   9.535   8.654  0.7714  0.0991  1.5813
   33MOL0     H 4417   6.224   9.673   8.694  0.4347  0.4822  0.5923
   33MOL0     H 4418   6.381   9.706   8.627  4.1520 -2.6932  0.0279
   33MOL0     H 4419   6.103   9.941   9.168  0.7220 -3.1890 -0.1419
   33MOL0     H 4420   5.876  10.076   9.204 -1.4967  0.7923 -1.1387
   33MOL0     H 4421   5.486   9.851   9.195  1.0746 -1.8874  0.3636
   33MOL0     H 4422   5.568   9.848   9.349 -0.9220 -1.0766 -1.1557
   33MOL0     H 4423   5.508  10.119   9.335  1.3787 -0.6251  0.5449
   33MOL0     H 4424   5.371  10.052   9.251 -1.2375 -1.2279  1.2029
   33MOL0     H 4425   5.464   9.984   9.535  0.4622  0.0532 -1.1423
   33MOL0     H 4426   5.345   9.883   9.445  1.2006 -0.4626 -0.2952
   33MOL0     H 4427   5.324  10.190   9.480 -2.5522  1.1446  0.8305
   33MOL0     H 4428   5.201  10.087   9.427  0.9938 -3.7374 -1.5792
   33MOL0     H 4429   5.138  10.031   9.650 -0.0453  0.4229 -1.1538
   33MOL0     H 4430   5.191  10.200   9.659 -0.1889  0.3151 -0.6416
   33MOL0     H 4431   5.359   9.955   9.751 -2.6047  0.0296  1.3082
   33MOL0     H 4432   5.416  10.128   9.744 -1.4839  2.2757  0.7734
   33MOL0     H 4433   5.193   9.998   9.918 -0.7083 -0.2965 -1.1298
   33MOL0     H 4434   5.208  10.175   9.892 -1.1014  0.3183  1.8952
   33MOL0     H 4435   5.336  10.128  10.096  1.0941 -0.7108  0.5442
   33MOL0     H 4436   5.457  10.148   9.966  3.0701 -3.4482  0.1050
   33MOL0     H 4437   5.679   9.708   9.145  1.4939 -2.2532  2.1271
   33MOL0     H 4438   5.876   9.595   9.094  0.1066  0.2049  2.5832
   33MOL0     H 4439   6.333   9.611   9.177  1.4613  0.1780  1.5743
   33MOL0     H 4440   6.539   9.485   9.170  0.7160 -1.2090  0.1609
   33MOL0     H 4441   7.971   9.603  10.104  1.6706 -1.7787  1.7072
   33MOL0     H 4442   8.162   9.727  10.101 -0.3365  0.2766  0.5153
   33MOL0     H 4443   8.737   9.573  10.009 -0.9568 -1.6578 -0.7558
   33MOL0     H 4444   8.948   9.693   9.933 -0.5236  0.7274  2.9561
   33MOL0     H 4445   8.867   9.936   9.595 -1.2797  0.1993  1.3748
   33MOL0     H 4446   8.970  10.066   9.654 -0.1303 -0.0909  0.9507
   33MOL0     H 4447   9.171   9.911   9.643  0.6636  0.8179 -0.5356
   33MOL0     H 4448   9.102   9.933   9.482 -0.5188  0.4058  0.3821
   33MOL0     H 4449   9.090   9.707   9.469 -1.2042 -2.6848 -0.2010
   33MOL0     H 4450   8.978   9.700   9.610  0.7319 -1.8009  0.1954
   33MOL0     H 4451   9.139   9.562   9.688 -1.4166  0.0930  0.0203
   33MOL0     H 4452   9.187   9.719   9.760 -1.4802  3.1890 -2.2805
   33MOL0     H 4453   9.517   9.679   9.494  0.4902  0.7971  0.0021
   33MOL0     H 4454   8.705  10.006   9.765  0.3937 -1.3983 -1.3659
   33MOL0     H 4455   8.495   9.891   9.839  0.0240 -0.1165 -0.6002
   34MOL0     O 4456   5.701   4.210  10.634 -0.8141  0.5995  0.2602
   34MOL0     C 4457   5.766   4.129  10.572 -0.3383  1.0944  0.2410
   34MOL0     O 4458   5.722   4.009  10.521 -0.9339 -0.6660  0.4046
   34MOL0     C 4459   5.587   3.976  10.528  0.3557 -0.6452 -0.3371
   34MOL0     C 4460   5.477   4.058  10.499  0.2866  0.0197  0.3450
   34MOL0     C 4461   5.347   4.005  10.519 -0.4817 -0.1608  0.4071
   34MOL0     C 4462   5.326   3.868  10.530  0.3813  0.4369 -0.4335
   34MOL0     O 4463   5.192   3.839  10.521 -0.7179  0.3986 -0.3118
   34MOL0     C 4464   5.158   3.702  10.489  1.0098  0.5860  0.1118
   34MOL0     C 4465   5.004   3.673  10.472  0.6607  1.0441  0.0529
   34MOL0     C 4466   4.920   3.773  10.560  0.1936  0.3293  0.3278
   34MOL0     C 4467   4.767   3.739  10.556 -0.4243 -0.5884  0.1185
   34MOL0     C 4468   4.719   3.751  10.418  0.3168 -0.3746  0.0413
   34MOL0     C 4469   4.572   3.786  10.408  0.3210  0.0074  0.3265
   34MOL0     C 4470   4.487   3.699  10.489  0.2842 -0.1979 -0.3062
   34MOL0     C 4471   4.336   3.719  10.464 -0.3595 -0.3540 -0.5677
   34MOL0     N 4472   4.293   3.662  10.337  0.4343  0.6874  0.5801
   34MOL0     C 4473   4.248   3.531  10.311  0.2256 -0.1138 -0.1417
   34MOL0     C 4474   4.178   3.543  10.193  0.3832 -0.0688 -0.2851
   34MOL0     C 4475   4.090   3.434  10.136  0.0293 -0.2393  0.2513
   34MOL0     C 4476   3.962   3.424  10.218  1.1827 -0.1455  0.1751
   34MOL0     C 4477   3.879   3.550  10.179 -0.2704 -0.0509 -0.4485
   34MOL0     C 4478   3.732   3.528  10.214 -0.3041 -0.9036  0.2813
   34MOL0     O 4479   3.692   3.516  10.350 -0.1239 -0.2795  0.2155
   34MOL0     C 4480   3.556   3.518  10.392  0.2206  0.3820 -0.1490
   34MOL0     C 4481   3.535   3.506  10.529  0.1069 -0.3416 -0.0756
   34MOL0     C 4482   3.407   3.489  10.579  0.4510  0.4505 -1.0352
   34MOL0     C 4483   3.387   3.468  10.730  0.6360  0.9596  0.3247
   34MOL0     C 4484   3.296   3.491  10.484  0.0063 -0.1587 -1.3155
   34MOL0     C 4485   3.154   3.472  10.521 -0.0765 -0.2315 -0.2143
   34MOL0     O 4486   3.068   3.469  10.416 -0.3967  0.3873  0.2336
   34MOL0     C 4487   2.940   3.449  10.459  0.1031 -0.6240  0.4397
   34MOL0     C 4488   2.893   3.327  10.501 -0.1354  0.5007  0.1548
   34MOL0     C 4489   2.765   3.308  10.547 -0.0879  0.1511 -0.3001
   34MOL0     C 4490   2.674   3.406  10.546 -0.7771 -0.7446  0.2918
   34MOL0     O 4491   2.541   3.393  10.580  0.1689 -0.0858  0.0436
   34MOL0     C 4492   2.498   3.269  10.629  0.3693  0.2413  0.4305
   34MOL0     C 4493   2.342   3.288  10.631 -0.2030 -0.3759 -0.4090
   34MOL0     C 4494   2.289   3.150  10.671  0.0120 -0.0109 -0.9218
   34MOL0     C 4495   2.145   3.153  10.718  0.8246 -0.0406 -0.5427
   34MOL0     C 4496   2.097   3.012  10.771  0.3626 -0.4249 -0.3087
   34MOL0     C 4497   1.953   3.018  10.816  0.0849 -0.1929  0.1982
   34MOL0     C 4498   1.904   2.884  10.865  0.4675  0.0367 -0.1346
   34MOL0     C 4499   1.749   2.886  10.868  0.1320  0.2476 -0.4454
   34MOL0    Cl 4500   1.690   2.978  11.012 -0.2705  0.1635 -0.1765
   34MOL0     C 4501   2.721   3.531  10.494  0.2183  1.0418  0.8155
   34MOL0     C 4502   2.853   3.555  10.448 -0.1188 -0.2151 -0.7218
   34MOL0     O 4503   3.124   3.474  10.638 -0.3332 -0.1067 -0.0495
   34MOL0     C 4504   3.325   3.514  10.352  0.5159  0.3080  0.2926
   34MOL0     C 4505   3.454   3.510  10.301  0.0571  0.3617 -0.2142
   34MOL0     N 4506   4.190   3.674  10.153 -0.3858 -0.1650 -0.0852
   34MOL0     N 4507   4.264   3.743  10.238  0.2595 -0.1555  0.0609
   34MOL0     C 4508   5.434   3.788  10.557 -0.1423  0.3045 -0.2135
   34MOL0     C 4509   5.563   3.846  10.548  0.1977  0.5311  0.1854
   34MOL0     C 4510   5.914   4.154  10.548 -0.0898 -0.2305 -0.7644
   34MOL0     C 4511   5.977   4.264  10.610  0.6170 -0.2324  0.9710
   34MOL0     C 4512   6.110   4.283  10.612 -0.1313 -0.0925 -1.3287
   34MOL0     C 4513   6.193   4.206  10.534 -0.5366  1.0516  1.2445
   34MOL0     O 4514   6.329   4.220  10.512  0.7408 -0.1434 -0.2984
   34MOL0     C 4515   6.396   4.276  10.623  0.9820 -0.1024 -0.2381
   34MOL0     C 4516   6.414   4.431  10.613  0.0037  0.5956  0.4827
   34MOL0     C 4517   6.506   4.484  10.724 -0.1576 -0.1887  0.1649
   34MOL0     C 4518   6.657   4.494  10.696  0.0764  0.0380  0.2089
   34MOL0     C 4519   6.718   4.373  10.649  0.3981 -0.0980  0.2674
   34MOL0     C 4520   6.767   4.281  10.584  0.1247 -0.5358 -0.4895
   34MOL0     C 4521   6.143   4.098  10.456  0.5649 -0.2127  0.2779
   34MOL0     C 4522   6.003   4.069  10.477 -0.4887 -0.1768 -1.1906
   34MOL0     H 4523   5.490   4.163  10.473  0.1298 -0.2527 -0.9040
   34MOL0     H 4524   5.260   4.069  10.507  0.3404  0.7340 -1.0765
   34MOL0     H 4525   5.205   3.676  10.393 -0.8979  0.4054 -0.8140
   34MOL0     H 4526   5.198   3.627  10.557  2.6138 -0.3668 -1.7809
   34MOL0     H 4527   4.970   3.694  10.370 -1.8384 -1.2511  0.2891
   34MOL0     H 4528   4.980   3.571  10.501  0.5464  0.8019 -0.8576
   34MOL0     H 4529   4.966   3.777  10.659  1.6379 -0.6062 -0.2693
   34MOL0     H 4530   4.936   3.873  10.518  2.0903  0.4213  1.1518
   34MOL0     H 4531   4.745   3.642  10.603  1.8745  0.6898  4.3305
   34MOL0     H 4532   4.717   3.808  10.625  1.6150  0.0419  1.0379
   34MOL0     H 4533   4.773   3.828  10.362  1.8381 -2.7681 -2.0110
   34MOL0     H 4534   4.744   3.656  10.370  1.7426  0.6066 -1.3015
   34MOL0     H 4535   4.554   3.892  10.430 -0.3962 -0.0562  0.0630
   34MOL0     H 4536   4.540   3.772  10.304 -2.7757 -1.1638  1.3339
   34MOL0     H 4537   4.517   3.595  10.483 -1.5102 -1.0893  3.3159
   34MOL0     H 4538   4.502   3.729  10.593 -0.0464 -0.5390 -0.1571
   34MOL0     H 4539   4.313   3.825  10.482 -3.3220 -1.3711  2.6557
   34MOL0     H 4540   4.276   3.670  10.541  0.8924  2.1328  2.1977
   34MOL0     H 4541   4.240   3.442  10.372 -2.2690  0.1737  0.0527
   34MOL0     H 4542   4.072   3.449  10.029 -1.6041  2.0625  0.7805
   34MOL0     H 4543   4.134   3.334  10.142  2.7472  0.9106  0.9923
   34MOL0     H 4544   3.966   3.426  10.327  1.5556  0.8645  0.1571
   34MOL0     H 4545   3.915   3.332  10.182 -1.2288  1.3223 -0.6923
   34MOL0     H 4546   3.890   3.572  10.072  0.2872  0.5780 -0.2674
   34MOL0     H 4547   3.906   3.636  10.241  1.9249 -0.4450 -0.7822
   34MOL0     H 4548   3.701   3.437  10.160  0.0923  0.8854 -3.2654
   34MOL0     H 4549   3.677   3.608  10.165  3.4265  0.7513 -1.6549
   34MOL0     H 4550   3.626   3.496  10.587 -0.5807  2.7498  1.7531
   34MOL0     H 4551   3.301   3.527  10.762  0.6338  1.8010 -1.1694
   34MOL0     H 4552   3.389   3.361  10.752  1.2670  0.8455 -0.2372
   34MOL0     H 4553   3.471   3.513  10.784  0.8905  0.3624  0.4406
   34MOL0     H 4554   2.970   3.250  10.500  1.4454  2.0323 -0.4537
   34MOL0     H 4555   2.741   3.215  10.596  1.0729  0.6803  1.3390
   34MOL0     H 4556   2.517   3.182  10.564 -0.9650 -0.4125  0.8733
   34MOL0     H 4557   2.541   3.247  10.727  0.9445  2.6061  0.7649
   34MOL0     H 4558   2.315   3.373  10.694 -2.7334  0.9895 -3.0598
   34MOL0     H 4559   2.309   3.321  10.532  1.5074  2.1937 -0.2173
   34MOL0     H 4560   2.345   3.130  10.763  0.4050  1.2611 -0.8567
   34MOL0     H 4561   2.308   3.077  10.593  0.0862  0.0448 -0.9556
   34MOL0     H 4562   2.149   3.226  10.799 -1.8139 -0.5023  0.0945
   34MOL0     H 4563   2.076   3.193  10.642 -0.1024  0.5780  0.5810
   34MOL0     H 4564   2.169   2.981  10.847 -0.6500 -1.4575  0.2647
   34MOL0     H 4565   2.111   2.947  10.683  2.0807 -0.4690 -0.0362
   34MOL0     H 4566   1.945   3.085  10.902  1.5555  1.1663 -0.6483
   34MOL0     H 4567   1.895   3.057  10.731  1.5217  0.2064 -0.6544
   34MOL0     H 4568   1.940   2.844  10.960  1.1002 -2.2480 -1.2404
   34MOL0     H 4569   1.937   2.805  10.796  1.8031 -1.1057  1.7283
   34MOL0     H 4570   1.702   2.787  10.870 -2.7093  1.4749 -1.0068
   34MOL0     H 4571   1.723   2.944  10.779  1.2728  2.3893  0.5434
   34MOL0     H 4572   2.645   3.607  10.503  0.6402  1.6010 -0.1816
   34MOL0     H 4573   2.888   3.655  10.425 -0.9980  0.0486 -0.9718
   34MOL0     H 4574   3.244   3.528  10.281  1.1371  1.5645 -0.1964
   34MOL0     H 4575   3.476   3.511  10.195 -0.8117 -1.5444 -0.4513
   34MOL0     H 4576   5.404   3.686  10.580 -0.4872 -0.3499 -3.2192
   34MOL0     H 4577   5.643   3.787  10.593  1.2209  2.3087  0.8113
   34MOL0     H 4578   5.916   4.330  10.670  1.5886 -0.7927  2.6542
   34MOL0     H 4579   6.149   4.368  10.668  0.1557 -1.1612  0.1480
   34MOL0     H 4580   6.341   4.260  10.716 -0.5701 -0.7834 -1.2402
   34MOL0     H 4581   6.494   4.230  10.637  0.2787 -1.7764 -0.6758
   34MOL0     H 4582   6.319   4.485  10.618 -0.1427  0.4259 -0.2819
   34MOL0     H 4583   6.460   4.447  10.515 -0.9833 -4.9612 -1.2554
   34MOL0     H 4584   6.494   4.418  10.811  2.0422 -1.6901 -0.5848
   34MOL0     H 4585   6.470   4.583  10.752 -1.0622 -0.5709  0.4312
   34MOL0     H 4586   6.711   4.523  10.787  0.0586 -0.3037  0.3329
   34MOL0     H 4587   6.675   4.576  10.627 -1.6212  0.3591  0.1170
   34MOL0     H 4588   6.800   4.202  10.520 -1.5429 -0.2621 -1.7558
   34MOL0     H 4589   6.215   4.043  10.397 -0.8243  0.1926 -1.9073
   34MOL0     H 4590   5.961   3.976  10.440 -0.3813 -0.6719 -0.1153
   35MOL0     O 4591   1.832   9.886   5.795  0.6322 -0.1370 -0.3845
   35MOL0     C 4592   1.865   9.785   5.851 -0.5986 -0.7603  0.0271
   35MOL0     O 4593   1.785   9.686   5.895  0.2655 -0.0145 -0.4345
   35MOL0     C 4594   1.648   9.693   5.875 -0.2276  0.2634 -0.3818
   35MOL0     C 4595   1.590   9.685   5.751 -0.2901 -0.0036  0.0899
   35MOL0     C 4596   1.452   9.693   5.737 -0.1460  0.3555 -0.4100
   35MOL0     C 4597   1.364   9.707   5.850 -0.2908 -0.1000 -0.0225
   35MOL0     O 4598   1.226   9.715   5.839  0.0426  0.2525  0.2368
   35MOL0     C 4599   1.140   9.728   5.950  0.0459 -0.3354  0.3337
   35MOL0     C 4600   1.107   9.874   5.984 -0.3812  0.5478 -0.1053
   35MOL0     C 4601   1.039   9.867   6.121  0.0263 -0.3889 -0.4764
   35MOL0     C 4602   0.983  10.007   6.157  0.1899 -0.2292  0.0986
   35MOL0     C 4603   0.871  10.010   6.261 -0.7397  0.4532 -0.4107
   35MOL0     C 4604   0.737   9.990   6.197 -0.5474  0.0796 -0.0530
   35MOL0     C 4605   0.626  10.012   6.292  0.3663 -0.7209 -0.4075
   35MOL0     C 4606   0.501   9.935   6.234  0.0781 -0.1622 -0.0535
   35MOL0     N 4607   0.385   9.983   6.301 -0.3950  0.2049  0.4408
   35MOL0     C 4608   0.279  10.052   6.247 -0.4016 -0.0305  0.0118
   35MOL0     C 4609   0.209  10.099   6.354 -0.7444 -0.7748  0.4127
   35MOL0     C 4610   0.075  10.165   6.339  0.2872 -0.5630 -0.2328
   35MOL0     C 4611   0.048  10.274   6.438 -0.2467  0.0801 -0.0503
   35MOL0     C 4612   0.017  10.226   6.580  0.8235  0.1798 -0.5410
   35MOL0     C 4613  -0.123  10.177   6.600 -0.2297  0.5392  0.1645
   35MOL0     O 4614  -0.221  10.272   6.565  0.0695 -0.1783 -0.3229
   35MOL0     C 4615  -0.342  10.246   6.609 -0.6032  0.2710  0.1219
   35MOL0     C 4616  -0.400  10.125   6.650  0.3129 -0.8246 -0.3831
   35MOL0     C 4617  -0.535  10.111   6.666  0.5963 -1.1477  0.0828
   35MOL0     C 4618  -0.578   9.970   6.706  0.8826  0.4745  1.0442
   35MOL0     C 4619  -0.629  10.212   6.638 -0.2970  0.2940 -0.2694
   35MOL0     C 4620  -0.773  10.190   6.652 -0.0872 -0.7215 -0.3711
   35MOL0     O 4621  -0.855  10.271   6.574  0.1616  0.8296  0.1155
   35MOL0     C 4622  -0.981  10.304   6.612 -0.1753  0.6030  0.6708
   35MOL0     C 4623  -1.068  10.219   6.683 -1.0387  0.0487  0.2957
   35MOL0     C 4624  -1.197  10.246   6.713 -0.6555  0.0441  1.2105
   35MOL0     C 4625  -1.259  10.361   6.654 -0.4384  1.1792 -0.1420
   35MOL0     O 4626  -1.391  10.374   6.677 -0.0165 -0.4735  0.3192
   35MOL0     C 4627  -1.461  10.493   6.640 -0.1419 -0.2731  0.1582
   35MOL0     C 4628  -1.604  10.492   6.711 -0.5651 -0.9220  0.1143
   35MOL0     C 4629  -1.690  10.392   6.641  0.3982 -0.0550  0.0527
   35MOL0     C 4630  -1.842  10.396   6.690 -0.4377 -0.0245 -0.5942
   35MOL0     C 4631  -1.913  10.296   6.617  0.2580 -0.1361  0.7394
   35MOL0     C 4632  -2.057  10.289   6.676 -0.4806  0.4632 -0.2268
   35MOL0     C 4633  -2.144  10.197   6.586 -0.5693 -0.6496 -0.7358
   35MOL0     C 4634  -2.289  10.227   6.613 -0.2868  0.6522 -0.0577
   35MOL0    Cl 4635  -2.384  10.096   6.543  0.2371  0.4524 -0.2313
   35MOL0     C 4636  -1.181  10.456   6.587  0.1750  0.4534 -0.0268
   35MOL0     C 4637  -1.042  10.432   6.570  0.4297  0.2046 -0.0017
   35MOL0     O 4638  -0.816  10.118   6.742 -0.5405  0.0715 -0.0261
   35MOL0     C 4639  -0.573  10.330   6.585 -0.9861 -0.2333  0.1485
   35MOL0     C 4640  -0.432  10.342   6.577  0.4390 -0.3105 -0.1233
   35MOL0     N 4641   0.273  10.049   6.465 -0.1764 -0.2218 -0.7551
   35MOL0     N 4642   0.374   9.971   6.441 -0.1390 -0.0544  0.1358
   35MOL0     C 4643   1.428   9.727   5.968 -0.6715 -0.5138 -0.8319
   35MOL0     C 4644   1.566   9.721   5.985  0.2023  0.7634 -0.7872
   35MOL0     C 4645   2.016   9.765   5.847 -0.6770  0.0254  0.0129
   35MOL0     C 4646   2.097   9.836   5.754  0.0910 -0.1307  1.0583
   35MOL0     C 4647   2.232   9.850   5.777 -0.4502  0.1560 -0.2816
   35MOL0     C 4648   2.285   9.798   5.899  0.0278 -0.1824  0.6064
   35MOL0     O 4649   2.417   9.812   5.943 -0.7129  0.0018 -0.3170
   35MOL0     C 4650   2.520   9.812   5.840  0.6546 -0.1943  0.0204
   35MOL0     C 4651   2.649   9.828   5.919  0.1078 -0.6734  1.0615
   35MOL0     C 4652   2.763   9.821   5.806  1.0150 -0.9039 -1.1780
   35MOL0     C 4653   2.902   9.773   5.869 -0.0255 -0.6947 -0.8487
   35MOL0     C 4654   2.967   9.877   5.944  0.2837 -0.4486  0.2420
   35MOL0     C 4655   3.019   9.960   6.021  0.6780 -0.6080  0.2216
   35MOL0     C 4656   2.204   9.716   5.989  0.5570 -0.2041  0.5857
   35MOL0     C 4657   2.069   9.691   5.954  0.3903 -0.8286 -0.7310
   35MOL0     H 4658   1.647   9.684   5.658 -0.9328  1.9078 -0.3799
   35MOL0     H 4659   1.400   9.685   5.642 -0.8928  1.7792 -0.1622
   35MOL0     H 4660   1.046   9.676   5.926 -1.5393  2.3093  0.3679
   35MOL0     H 4661   1.179   9.677   6.038 -2.2261 -2.9162 -0.0052
   35MOL0     H 4662   1.199   9.933   5.978 -1.7166  2.7909  0.0458
   35MOL0     H 4663   1.039   9.917   5.909 -0.3492 -0.7472 -0.9063
   35MOL0     H 4664   0.956   9.796   6.135 -0.2643  0.3261  1.9919
   35MOL0     H 4665   1.104   9.837   6.203 -1.3645  0.1855  0.9074
   35MOL0     H 4666   1.069  10.061   6.195  0.9664  0.3461 -2.2718
   35MOL0     H 4667   0.956  10.066   6.069 -0.3125  0.5282  0.7513
   35MOL0     H 4668   0.886   9.934   6.338 -3.0876 -0.1068 -0.4227
   35MOL0     H 4669   0.882  10.104   6.318  1.4074 -0.4512  0.7898
   35MOL0     H 4670   0.714  10.055   6.112 -1.5480 -2.8976 -2.2751
   35MOL0     H 4671   0.730   9.889   6.153 -2.1983  1.3717 -3.0755
   35MOL0     H 4672   0.650   9.958   6.384 -1.2157 -0.5237  0.1680
   35MOL0     H 4673   0.609  10.120   6.304  0.5249 -0.7648  0.2998
   35MOL0     H 4674   0.514   9.830   6.258 -2.7368 -0.3891  0.7703
   35MOL0     H 4675   0.492   9.956   6.127 -0.4198  4.0150  0.6377
   35MOL0     H 4676   0.258  10.057   6.141  3.0207  0.1788 -0.7986
   35MOL0     H 4677   0.063  10.206   6.238 -4.2650 -0.4073  0.1907
   35MOL0     H 4678   0.007  10.079   6.333  2.4913 -2.5807  1.3043
   35MOL0     H 4679  -0.030  10.338   6.395  1.4953  0.6745 -2.5700
   35MOL0     H 4680   0.139  10.333   6.448  0.6118 -1.5139  2.3491
   35MOL0     H 4681   0.027  10.319   6.637 -3.2919  1.5466 -1.6957
   35MOL0     H 4682   0.092  10.149   6.601  1.2309  0.9685  1.0394
   35MOL0     H 4683  -0.138  10.158   6.706 -3.7772  1.2471 -0.1050
   35MOL0     H 4684  -0.138  10.084   6.545  0.8749 -0.0055  0.7548
   35MOL0     H 4685  -0.335  10.040   6.666  1.3241 -0.1904 -1.0033
   35MOL0     H 4686  -0.499   9.894   6.701 -2.6507 -3.5008 -0.5445
   35MOL0     H 4687  -0.625   9.963   6.805  1.6341  0.2588  1.3939
   35MOL0     H 4688  -0.647   9.935   6.629 -0.9902  1.6365  2.1203
   35MOL0     H 4689  -1.039  10.121   6.720 -1.4316 -0.4409 -0.6646
   35MOL0     H 4690  -1.260  10.175   6.766 -1.5208  0.9992  1.4934
   35MOL0     H 4691  -1.414  10.583   6.680 -2.5349  2.2671 -2.3119
   35MOL0     H 4692  -1.464  10.514   6.533 -2.3017 -0.3225  0.1781
   35MOL0     H 4693  -1.608  10.471   6.819 -3.2341 -0.2716  0.1917
   35MOL0     H 4694  -1.644  10.594   6.708  0.0759 -0.6836 -0.8472
   35MOL0     H 4695  -1.647  10.292   6.656  0.7293 -0.1150 -1.2312
   35MOL0     H 4696  -1.676  10.412   6.535 -1.4971  3.1373  0.2752
   35MOL0     H 4697  -1.850  10.403   6.799  2.8623  2.5137 -0.3807
   35MOL0     H 4698  -1.883  10.491   6.653  0.7392 -0.5964 -3.5882
   35MOL0     H 4699  -1.862  10.201   6.634  1.7648  1.1084  4.0647
   35MOL0     H 4700  -1.906  10.328   6.512 -2.7867  1.7571  1.0000
   35MOL0     H 4701  -2.061  10.253   6.779 -2.1582 -1.1615 -0.8029
   35MOL0     H 4702  -2.103  10.387   6.666  2.2522  1.6311 -3.6087
   35MOL0     H 4703  -2.113  10.095   6.611  1.6962  0.2741  0.5787
   35MOL0     H 4704  -2.120  10.211   6.480 -0.3199 -2.2664 -0.9255
   35MOL0     H 4705  -2.322  10.322   6.568 -3.4774 -0.7397 -0.9200
   35MOL0     H 4706  -2.286  10.239   6.722 -1.0781  1.5387 -0.1155
   35MOL0     H 4707  -1.237  10.538   6.542 -0.6768  0.6017  1.2768
   35MOL0     H 4708  -0.976  10.495   6.511  1.6281 -1.3513 -0.4005
   35MOL0     H 4709  -0.629  10.414   6.546  2.4959  2.5607  0.6621
   35MOL0     H 4710  -0.385  10.433   6.540 -0.4401  0.0916 -0.2700
   35MOL0     H 4711   1.376   9.751   6.060 -0.0878 -2.1828 -0.0176
   35MOL0     H 4712   1.605   9.729   6.086  0.3939 -2.3658 -0.5291
   35MOL0     H 4713   2.057   9.886   5.666  2.4029 -3.4063 -2.1744
   35MOL0     H 4714   2.289   9.920   5.716  1.8622 -0.9330  0.5033
   35MOL0     H 4715   2.524   9.714   5.791  1.7812 -0.6549  1.0023
   35MOL0     H 4716   2.512   9.887   5.760 -0.9111 -0.1048  0.2320
   35MOL0     H 4717   2.654   9.761   6.005  0.0107  0.2983  1.8500
   35MOL0     H 4718   2.646   9.929   5.961 -0.5891 -0.8926  1.5655
   35MOL0     H 4719   2.780   9.920   5.765 -2.2487 -0.5238 -1.9344
   35MOL0     H 4720   2.728   9.749   5.732  1.1217 -0.5761 -1.5483
   35MOL0     H 4721   2.964   9.763   5.780 -2.6844 -1.8368 -2.7143
   35MOL0     H 4722   2.889   9.680   5.926  0.1227  1.2995  2.7576
   35MOL0     H 4723   3.063  10.033   6.085  2.0915  0.1103 -1.4629
   35MOL0     H 4724   2.251   9.677   6.079  0.6813 -1.5847 -0.0441
   35MOL0     H 4725   2.003   9.638   6.023  0.3839 -0.3943 -0.4013
   36MOL0     O 4726   2.065   7.676   9.758 -0.0316  0.6297  0.0957
   36MOL0     C 4727   2.138   7.772   9.735 -0.3097  0.1685  0.2515
   36MOL0     O 4728   2.108   7.891   9.674 -0.0119 -0.6438 -0.3479
   36MOL0     C 4729   1.976   7.932   9.683  0.3690  0.0615 -0.2245
   36MOL0     C 4730   1.882   7.894   9.781 -0.0701  0.0966  0.1136
   36MOL0     C 4731   1.753   7.943   9.787 -0.3048 -0.4313 -0.8810
   36MOL0     C 4732   1.708   8.022   9.688  1.2255 -0.4712  0.7876
   36MOL0     O 4733   1.577   8.059   9.696 -0.0169 -0.2556 -0.0370
   36MOL0     C 4734   1.509   8.054   9.568  1.2111 -0.5665  1.1936
   36MOL0     C 4735   1.354   8.037   9.597 -0.2242 -0.0900  0.0932
   36MOL0     C 4736   1.277   8.170   9.621 -0.5699  0.2672 -0.6752
   36MOL0     C 4737   1.140   8.142   9.685 -0.0595 -0.6447 -0.0988
   36MOL0     C 4738   1.043   8.258   9.660  0.2028 -0.6709 -0.1674
   36MOL0     C 4739   1.088   8.387   9.733 -0.2843 -0.7453 -0.8398
   36MOL0     C 4740   0.972   8.491   9.735 -0.5818  0.4289  0.3484
   36MOL0     C 4741   1.001   8.632   9.786 -0.0133 -0.8777 -0.2951
   36MOL0     N 4742   0.880   8.717   9.782 -0.7227  0.0060 -0.1227
   36MOL0     C 4743   0.773   8.711   9.857  1.1100  0.4028 -0.6665
   36MOL0     C 4744   0.701   8.820   9.823  0.0580  0.0707 -0.1302
   36MOL0     C 4745   0.558   8.841   9.860 -0.1398  0.5406  0.2742
   36MOL0     C 4746   0.503   8.977   9.810 -0.3202 -0.1509  0.5142
   36MOL0     C 4747   0.463   8.989   9.668  0.1456  0.6557  0.2775
   36MOL0     C 4748   0.415   9.127   9.626 -0.3424  0.0145  0.7138
   36MOL0     O 4749   0.306   9.180   9.710  0.4307  0.2364 -0.5742
   36MOL0     C 4750   0.179   9.116   9.697  0.5490  0.8062  0.6813
   36MOL0     C 4751   0.124   9.052   9.589 -0.5805 -0.2167 -0.5606
   36MOL0     C 4752   0.004   8.988   9.592  0.3562 -0.4148 -0.0681
   36MOL0     C 4753  -0.049   8.953   9.456  0.4257  0.3243 -0.5339
   36MOL0     C 4754  -0.078   8.987   9.705 -0.3242 -0.0403  0.0635
   36MOL0     C 4755  -0.213   8.918   9.708  0.6100 -0.0041 -0.4199
   36MOL0     O 4756  -0.304   8.964   9.807 -0.0052  0.0904 -0.1912
   36MOL0     C 4757  -0.413   8.889   9.819  0.0412 -0.1064  0.4194
   36MOL0     C 4758  -0.527   8.908   9.737 -0.2700  0.3788  0.1360
   36MOL0     C 4759  -0.648   8.839   9.758 -0.3834  0.0889 -0.3617
   36MOL0     C 4760  -0.652   8.729   9.849 -0.0390 -0.3093 -0.5404
   36MOL0     O 4761  -0.750   8.652   9.885  0.1239  0.3756  0.3319
   36MOL0     C 4762  -0.882   8.670   9.831  0.6408 -0.8773 -0.0133
   36MOL0     C 4763  -0.983   8.581   9.896 -0.1156  0.7788  0.1292
   36MOL0     C 4764  -1.132   8.606   9.861  0.3624  0.0523 -0.5819
   36MOL0     C 4765  -1.152   8.568   9.716 -0.4834  0.3336  0.5571
   36MOL0     C 4766  -1.298   8.525   9.696 -0.1575  0.2442  0.3452
   36MOL0     C 4767  -1.330   8.527   9.546 -0.4067 -0.5467  0.5852
   36MOL0     C 4768  -1.445   8.447   9.486 -0.4274  0.1635  0.1272
   36MOL0     C 4769  -1.582   8.497   9.525  0.2487 -0.1238  0.0395
   36MOL0    Cl 4770  -1.699   8.376   9.464  0.4155 -0.2536 -0.0678
   36MOL0     C 4771  -0.540   8.706   9.928 -0.9177 -0.4241 -1.0969
   36MOL0     C 4772  -0.423   8.786   9.915  0.2601 -0.3109 -0.4184
   36MOL0     O 4773  -0.235   8.837   9.621 -0.6846  0.5332 -0.3859
   36MOL0     C 4774  -0.029   9.063   9.816 -0.8176  0.1988 -0.0948
   36MOL0     C 4775   0.100   9.125   9.812  0.5893  0.2551  0.1849
   36MOL0     N 4776   0.767   8.881   9.715 -0.6260  0.1332 -0.4863
   36MOL0     N 4777   0.880   8.814   9.694 -0.2946 -0.3913  0.2314
   36MOL0     C 4778   1.793   8.068   9.585  0.0409 -0.2050 -0.6321
   36MOL0     C 4779   1.926   8.020   9.582 -0.3089 -0.0189  0.1255
   36MOL0     C 4780   2.283   7.751   9.751 -0.2552 -0.4156  0.8183
   36MOL0     C 4781   2.326   7.643   9.827  0.9193  0.1072  0.1419
   36MOL0     C 4782   2.453   7.620   9.846 -0.5253  0.7164  0.4837
   36MOL0     C 4783   2.559   7.689   9.783  0.5993  0.2902 -0.0470
   36MOL0     O 4784   2.686   7.658   9.796 -0.9360 -0.5482 -0.1450
   36MOL0     C 4785   2.718   7.525   9.840  0.1471  0.0470 -0.3985
   36MOL0     C 4786   2.852   7.477   9.792  0.3086  0.1955 -0.6121
   36MOL0     C 4787   2.980   7.541   9.847  0.6309 -0.6133  0.2734
   36MOL0     C 4788   3.107   7.459   9.801 -0.0670 -0.2531 -0.3728
   36MOL0     C 4789   3.123   7.451   9.659 -0.2517  0.2002 -0.2225
   36MOL0     C 4790   3.171   7.448   9.547 -0.8240 -1.2590  0.5529
   36MOL0     C 4791   2.522   7.796   9.708  0.0662 -0.9285 -0.3521
   36MOL0     C 4792   2.382   7.833   9.695 -0.1445 -0.1068 -0.1745
   36MOL0     H 4793   1.910   7.824   9.860 -0.2955 -0.5542 -0.3825
   36MOL0     H 4794   1.682   7.912   9.863  0.6040 -1.1980 -0.3074
   36MOL0     H 4795   1.533   8.136   9.500 -0.8154 -1.7822 -1.1289
   36MOL0     H 4796   1.550   7.970   9.513  0.1612  0.3569 -1.1293
   36MOL0     H 4797   1.298   7.991   9.516  0.9056 -0.2557 -0.6117
   36MOL0     H 4798   1.361   7.968   9.682  4.2029 -2.5907 -1.9579
   36MOL0     H 4799   1.330   8.237   9.687 -0.2520 -0.2305 -0.4193
   36MOL0     H 4800   1.259   8.217   9.524 -1.5493 -0.2668 -0.7684
   36MOL0     H 4801   1.100   8.046   9.652 -1.6241 -0.8898  2.3100
   36MOL0     H 4802   1.151   8.136   9.793 -2.8385  2.3467  0.5110
   36MOL0     H 4803   1.029   8.285   9.555 -2.7482 -0.1799  0.2534
   36MOL0     H 4804   0.948   8.222   9.700 -0.3354  0.7960 -0.0734
   36MOL0     H 4805   1.127   8.356   9.830  2.3879  1.7283 -0.9781
   36MOL0     H 4806   1.175   8.438   9.691  0.1755  2.2003  3.1336
   36MOL0     H 4807   0.939   8.481   9.630  0.5944 -3.3470  0.2026
   36MOL0     H 4808   0.890   8.449   9.795 -1.8881  2.2708 -0.0573
   36MOL0     H 4809   1.077   8.675   9.721  0.6361  2.8908  2.6344
   36MOL0     H 4810   1.025   8.629   9.893  0.7876  0.9362 -0.3933
   36MOL0     H 4811   0.732   8.629   9.916 -0.4038  0.2736 -1.8046
   36MOL0     H 4812   0.499   8.755   9.828  3.9212 -2.6960  0.6848
   36MOL0     H 4813   0.558   8.842   9.970  2.9074  0.7785  0.3509
   36MOL0     H 4814   0.576   9.057   9.829  0.1154 -0.2969 -0.4797
   36MOL0     H 4815   0.413   8.996   9.869 -0.9920 -1.7305  0.0548
   36MOL0     H 4816   0.379   8.920   9.658  0.8272 -0.4562  1.8250
   36MOL0     H 4817   0.546   8.956   9.606  0.4844 -1.3791  1.7164
   36MOL0     H 4818   0.383   9.131   9.521 -0.3080 -1.8233  0.5995
   36MOL0     H 4819   0.494   9.203   9.624 -1.9294  1.8163 -2.3152
   36MOL0     H 4820   0.189   9.061   9.503  2.6832  0.2667  1.7771
   36MOL0     H 4821   0.020   8.980   9.376  2.5407 -1.2442  0.6497
   36MOL0     H 4822  -0.068   8.846   9.441  0.4981  0.3367 -0.7056
   36MOL0     H 4823  -0.140   9.010   9.438  1.6749  2.9699  0.9359
   36MOL0     H 4824  -0.544   8.979   9.656 -1.8142  0.8865  0.8517
   36MOL0     H 4825  -0.732   8.872   9.697 -1.0518 -0.9705 -0.0321
   36MOL0     H 4826  -0.919   8.772   9.843 -1.0026 -1.4966  0.3203
   36MOL0     H 4827  -0.880   8.668   9.721  3.8040  1.7099 -0.1568
   36MOL0     H 4828  -0.952   8.478   9.875  1.6813  1.0804  1.1652
   36MOL0     H 4829  -0.974   8.603  10.003  1.8959  1.8160 -0.2130
   36MOL0     H 4830  -1.165   8.710   9.867 -1.6985 -0.5980  0.2512
   36MOL0     H 4831  -1.201   8.540   9.915 -0.0893  0.4254 -0.6942
   36MOL0     H 4832  -1.132   8.648   9.644  0.2129 -0.9669 -0.7608
   36MOL0     H 4833  -1.091   8.487   9.676 -0.6961  1.0415 -1.2813
   36MOL0     H 4834  -1.373   8.588   9.747 -0.6113  0.1889 -0.2404
   36MOL0     H 4835  -1.317   8.423   9.731 -0.7079  0.4713  0.7316
   36MOL0     H 4836  -1.344   8.632   9.519 -0.1547 -0.8295 -0.7348
   36MOL0     H 4837  -1.236   8.494   9.501 -0.6231 -0.5320  0.1121
   36MOL0     H 4838  -1.421   8.352   9.533 -0.2636 -0.4009 -1.0616
   36MOL0     H 4839  -1.426   8.443   9.378  1.0130 -2.8014  0.3874
   36MOL0     H 4840  -1.606   8.593   9.479 -3.1293  0.0869  1.9173
   36MOL0     H 4841  -1.589   8.504   9.634  0.5998  1.8786 -0.0318
   36MOL0     H 4842  -0.551   8.632  10.006  3.2688  1.5351  1.7719
   36MOL0     H 4843  -0.334   8.770   9.975  0.6321 -1.2119 -1.1850
   36MOL0     H 4844  -0.083   9.065   9.910  0.6996 -1.9332  0.8815
   36MOL0     H 4845   0.138   9.169   9.904  1.9067  1.1385 -0.7465
   36MOL0     H 4846   1.755   8.133   9.507  2.2320 -0.8185 -2.2986
   36MOL0     H 4847   1.989   8.048   9.498 -0.5623 -1.8122 -0.7319
   36MOL0     H 4848   2.262   7.564   9.867  1.3401 -0.0182  0.5720
   36MOL0     H 4849   2.477   7.543   9.918 -3.2855 -0.6553  0.0491
   36MOL0     H 4850   2.717   7.520   9.950  0.2285 -2.9515 -0.4584
   36MOL0     H 4851   2.649   7.455   9.793 -2.6133  1.7496  0.9050
   36MOL0     H 4852   2.858   7.495   9.684 -1.9500  0.1689 -0.7835
   36MOL0     H 4853   2.845   7.369   9.807  1.5914  0.1479 -0.1918
   36MOL0     H 4854   2.973   7.536   9.957 -1.9170  0.1647  0.2056
   36MOL0     H 4855   2.986   7.642   9.805  0.3451  0.1921  2.0592
   36MOL0     H 4856   3.097   7.355   9.834 -1.3112 -0.7917 -2.3240
   36MOL0     H 4857   3.197   7.495   9.853  1.2353 -1.0819 -1.9740
   36MOL0     H 4858   3.218   7.431   9.452 -0.5863  0.0538  0.4170
   36MOL0     H 4859   2.611   7.843   9.666  2.1023 -0.6944  3.7400
   36MOL0     H 4860   2.349   7.912   9.628  1.7822 -1.9362 -3.5915
   37MOL0     O 4861   6.375   7.676   9.604  0.3180 -0.1080  0.3285
   37MOL0     C 4862   6.396   7.565   9.551 -1.0277 -0.3998 -0.9947
   37MOL0     O 4863   6.531   7.519   9.519 -0.0505 -0.1492 -0.5207
   37MOL0     C 4864   6.650   7.581   9.536  0.4862 -0.1952 -0.4904
   37MOL0     C 4865   6.755   7.507   9.509 -0.1464  0.1773  0.0857
   37MOL0     C 4866   6.880   7.565   9.546 -0.5552 -0.1014 -0.6102
   37MOL0     C 4867   6.893   7.702   9.581  1.4111  0.1851 -0.5495
   37MOL0     O 4868   7.019   7.760   9.617  0.4142  0.3837  0.2745
   37MOL0     C 4869   7.141   7.704   9.565  0.5177  0.9146 -0.1062
   37MOL0     C 4870   7.257   7.776   9.626 -0.0810  0.0279 -0.0798
   37MOL0     C 4871   7.255   7.761   9.776 -0.4621  0.3070  1.1291
   37MOL0     C 4872   7.330   7.876   9.847  0.6919 -0.0152  0.6994
   37MOL0     C 4873   7.319   7.869   9.987 -0.5589  0.2161 -0.5611
   37MOL0     C 4874   7.183   7.887  10.062 -0.5035  0.2253  0.4492
   37MOL0     C 4875   7.078   7.981   9.991 -0.5050  0.2921 -0.4361
   37MOL0     C 4876   6.953   7.990  10.067 -0.1936  0.3270  0.0856
   37MOL0     N 4877   6.882   7.860  10.070  0.9107 -0.4396 -0.2430
   37MOL0     C 4878   6.830   7.780   9.966 -0.0081  0.0142 -0.3691
   37MOL0     C 4879   6.725   7.711  10.016  0.4261  0.0695  0.0301
   37MOL0     C 4880   6.643   7.614   9.945  1.0476  0.9990  1.1595
   37MOL0     C 4881   6.502   7.668   9.924  0.3351 -0.4010  0.3240
   37MOL0     C 4882   6.392   7.566   9.895  0.1711 -0.0967 -0.4671
   37MOL0     C 4883   6.329   7.510  10.021 -0.2301 -0.7118 -0.2264
   37MOL0     O 4884   6.268   7.371   9.994  0.4948  0.2918  0.2442
   37MOL0     C 4885   6.145   7.375   9.932  0.0124  0.1141 -0.8128
   37MOL0     C 4886   6.092   7.258   9.874  0.5665  0.4836 -0.0588
   37MOL0     C 4887   5.960   7.253   9.822 -0.2002 -0.2453  0.2577
   37MOL0     C 4888   5.913   7.114   9.783 -0.4941  0.1559  0.5866
   37MOL0     C 4889   5.879   7.370   9.827 -0.5326  0.0088  0.4708
   37MOL0     C 4890   5.744   7.384   9.768 -0.1889 -0.1755  0.1272
   37MOL0     O 4891   5.685   7.511   9.780  0.5899  0.4584 -0.5053
   37MOL0     C 4892   5.563   7.531   9.725  0.0321  0.5041  0.4033
   37MOL0     C 4893   5.560   7.551   9.585 -0.1337  0.2453 -0.3025
   37MOL0     C 4894   5.439   7.573   9.518  0.3475 -0.5906 -0.2669
   37MOL0     C 4895   5.316   7.572   9.592 -0.0493 -0.5202 -0.2412
   37MOL0     O 4896   5.200   7.598   9.522  0.1847 -0.6140  0.2227
   37MOL0     C 4897   5.073   7.580   9.583  0.3934 -0.6989 -0.3566
   37MOL0     C 4898   4.960   7.636   9.486 -0.3564 -0.2348  0.3907
   37MOL0     C 4899   4.908   7.775   9.514  0.3541 -0.0346 -0.4783
   37MOL0     C 4900   4.780   7.800   9.433 -0.2051 -0.2421 -0.7823
   37MOL0     C 4901   4.691   7.896   9.501 -0.3082 -0.5648  0.6095
   37MOL0     C 4902   4.560   7.918   9.424 -0.8008 -0.0391 -0.5898
   37MOL0     C 4903   4.507   8.053   9.493  0.2359 -0.8569  0.9146
   37MOL0     C 4904   4.370   8.092   9.429  0.1979  0.0142 -0.9955
   37MOL0    Cl 4905   4.307   8.246   9.495  0.2312  0.3999  0.2496
   37MOL0     C 4906   5.319   7.542   9.731  0.5043  0.2932  0.2627
   37MOL0     C 4907   5.438   7.523   9.795  0.7397  0.3239 -0.4912
   37MOL0     O 4908   5.688   7.291   9.713  0.2996 -0.0089 -0.0508
   37MOL0     C 4909   5.933   7.488   9.886  0.4679 -0.2045  0.3208
   37MOL0     C 4910   6.060   7.487   9.937 -0.2683  0.1739 -0.1324
   37MOL0     N 4911   6.712   7.743  10.152  0.2341 -1.0012  0.0290
   37MOL0     N 4912   6.805   7.827  10.178 -0.5620  0.2391  0.3797
   37MOL0     C 4913   6.781   7.783   9.590 -0.3322 -0.4604  0.0408
   37MOL0     C 4914   6.660   7.722   9.562 -0.1229  0.0480  0.1800
   37MOL0     C 4915   6.277   7.490   9.504 -0.2243 -0.2748  0.2448
   37MOL0     C 4916   6.145   7.540   9.526 -0.0169 -0.4415 -0.8095
   37MOL0     C 4917   6.034   7.454   9.501 -0.0127  0.1539 -0.2322
   37MOL0     C 4918   6.055   7.322   9.460 -0.2318  0.1906  0.9504
   37MOL0     O 4919   5.959   7.227   9.441 -1.0072  0.5136  0.1502
   37MOL0     C 4920   5.842   7.279   9.368 -0.2250 -0.2270  0.1902
   37MOL0     C 4921   5.881   7.333   9.222 -0.7221 -0.3068  0.1233
   37MOL0     C 4922   5.962   7.226   9.152 -0.2097 -0.2591 -0.1550
   37MOL0     C 4923   5.993   7.258   9.005  0.5274 -0.5512  0.3458
   37MOL0     C 4924   6.068   7.383   8.989 -0.1867 -0.4607  0.6325
   37MOL0     C 4925   6.134   7.489   8.973  0.0871 -0.1625 -0.4621
   37MOL0     C 4926   6.189   7.275   9.449 -0.1450 -0.2506  0.0400
   37MOL0     C 4927   6.300   7.360   9.469  0.3946  0.3150  0.3614
   37MOL0     H 4928   6.747   7.402   9.482  2.5875 -0.4614  1.3772
   37MOL0     H 4929   6.974   7.512   9.547  0.4674  1.6539 -0.9513
   37MOL0     H 4930   7.151   7.595   9.576  0.3779  0.6660 -1.9966
   37MOL0     H 4931   7.152   7.717   9.457  1.6114  0.8633 -0.0132
   37MOL0     H 4932   7.352   7.747   9.581 -0.0340 -1.1848  0.7626
   37MOL0     H 4933   7.250   7.881   9.597 -0.0138 -0.5003 -2.1976
   37MOL0     H 4934   7.151   7.758   9.811 -1.2880  0.3104 -1.2018
   37MOL0     H 4935   7.307   7.666   9.793 -1.5481 -0.4153  0.5457
   37MOL0     H 4936   7.436   7.857   9.826  0.5400  0.5429 -0.7034
   37MOL0     H 4937   7.301   7.981   9.830 -1.8388 -0.9244 -1.1150
   37MOL0     H 4938   7.368   7.776  10.018 -0.2691  0.4114 -0.4327
   37MOL0     H 4939   7.383   7.951  10.021 -0.5460 -0.7715  2.0398
   37MOL0     H 4940   7.147   7.783  10.064  4.0834 -1.6875 -1.4589
   37MOL0     H 4941   7.209   7.922  10.163 -0.5056 -3.6898  1.9959
   37MOL0     H 4942   7.131   8.074   9.969  1.1060 -0.6829 -0.8985
   37MOL0     H 4943   7.041   7.932   9.900  2.2367 -0.3025 -1.3220
   37MOL0     H 4944   6.892   8.058  10.007  0.8238  3.0410  1.9296
   37MOL0     H 4945   6.966   8.031  10.168 -0.0927 -1.4065  0.8167
   37MOL0     H 4946   6.865   7.765   9.865 -1.6792 -0.5386 -0.8977
   37MOL0     H 4947   6.687   7.588   9.848  0.4273  2.1544  0.5458
   37MOL0     H 4948   6.641   7.527  10.011 -2.9333 -0.2805 -0.3592
   37MOL0     H 4949   6.508   7.738   9.840 -1.6649 -3.0058 -2.1875
   37MOL0     H 4950   6.480   7.727  10.013 -2.1222  0.3503 -0.7070
   37MOL0     H 4951   6.429   7.484   9.832  0.7454  0.2631 -0.6017
   37MOL0     H 4952   6.308   7.611   9.840  1.5483  1.2599 -1.5601
   37MOL0     H 4953   6.266   7.567  10.090  1.0164 -0.2319  0.5397
   37MOL0     H 4954   6.399   7.489  10.102 -3.0934 -0.2264  2.6032
   37MOL0     H 4955   6.155   7.172   9.856  1.0995  0.7086  0.6671
   37MOL0     H 4956   5.862   7.118   9.686  1.4463  0.0895 -0.4952
   37MOL0     H 4957   5.990   7.038   9.772 -0.3149  0.3010  0.8174
   37MOL0     H 4958   5.845   7.084   9.863 -1.4326  1.0433  0.1549
   37MOL0     H 4959   5.656   7.551   9.535  1.3628 -1.2128  2.3449
   37MOL0     H 4960   5.445   7.576   9.410 -2.1775 -2.0236 -0.5387
   37MOL0     H 4961   5.045   7.475   9.591 -0.6261 -0.6263 -2.3414
   37MOL0     H 4962   5.068   7.642   9.673  2.8156  1.0773 -1.3186
   37MOL0     H 4963   5.001   7.623   9.386  0.0659 -1.2728  0.6958
   37MOL0     H 4964   4.874   7.569   9.497 -0.5325  0.3258  3.3381
   37MOL0     H 4965   4.982   7.854   9.502 -1.2873  1.6803  0.1243
   37MOL0     H 4966   4.885   7.765   9.621  3.6383  0.3420  0.3676
   37MOL0     H 4967   4.808   7.846   9.337 -1.3852  1.4610 -0.3491
   37MOL0     H 4968   4.731   7.703   9.420  0.1450 -0.4088 -0.8733
   37MOL0     H 4969   4.745   7.991   9.503 -0.3401 -0.4600 -1.6623
   37MOL0     H 4970   4.676   7.866   9.605  0.7802 -1.5258  0.5115
   37MOL0     H 4971   4.587   7.934   9.320  1.3710 -2.7406 -0.5477
   37MOL0     H 4972   4.488   7.837   9.440 -0.3434 -0.0394  1.8359
   37MOL0     H 4973   4.579   8.133   9.473  0.7622 -1.5778 -0.1457
   37MOL0     H 4974   4.500   8.050   9.602  2.1931  4.0299  1.4501
   37MOL0     H 4975   4.300   8.011   9.448 -0.5617  0.1935 -2.8533
   37MOL0     H 4976   4.382   8.106   9.322 -0.3826  1.9670 -0.8438
   37MOL0     H 4977   5.232   7.528   9.794 -0.1309 -2.2616 -1.0514
   37MOL0     H 4978   5.428   7.489   9.898 -2.7939 -0.1078 -0.8595
   37MOL0     H 4979   5.873   7.575   9.909  1.4109  0.0179  2.1468
   37MOL0     H 4980   6.092   7.566  10.004 -0.2840 -0.3233  0.4759
   37MOL0     H 4981   6.776   7.881   9.637  0.6450 -1.2012  1.7575
   37MOL0     H 4982   6.580   7.793   9.578 -0.5334 -1.3153  6.5197
   37MOL0     H 4983   6.126   7.632   9.580 -1.1016 -1.1607  0.0884
   37MOL0     H 4984   5.936   7.499   9.514 -1.6980 -3.5592  1.4743
   37MOL0     H 4985   5.767   7.200   9.354  2.4969 -2.5747 -2.9853
   37MOL0     H 4986   5.803   7.354   9.437  2.1072  1.6921 -0.4263
   37MOL0     H 4987   5.945   7.421   9.233 -1.4682  0.2645 -0.0092
   37MOL0     H 4988   5.801   7.360   9.152 -0.2709  1.1532  0.1304
   37MOL0     H 4989   5.894   7.141   9.150  0.5249 -0.9633 -4.5557
   37MOL0     H 4990   6.049   7.195   9.210 -0.3300  0.8692  0.6587
   37MOL0     H 4991   5.908   7.266   8.936  2.4907 -1.3772 -2.3615
   37MOL0     H 4992   6.062   7.183   8.965  0.6911 -0.4466  0.4348
   37MOL0     H 4993   6.173   7.583   8.941  1.0187 -0.7110 -0.9789
   37MOL0     H 4994   6.194   7.169   9.426  4.0770 -0.5571  1.4956
   37MOL0     H 4995   6.398   7.313   9.469 -0.4528 -1.5390 -0.3529
   38MOL0     O 4996   2.706   6.408  11.000  0.0826  0.1588  0.6286
   38MOL0     C 4997   2.754   6.494  10.926  0.4791 -0.7605 -0.4072
   38MOL0     O 4998   2.713   6.624  10.917 -0.3500  0.0636  0.4511
   38MOL0     C 4999   2.597   6.664  10.972 -0.1053 -0.6256  0.3069
   38MOL0     C 5000   2.578   6.672  11.109  0.1770  0.8794  0.2792
   38MOL0     C 5001   2.451   6.722  11.159 -0.2551  0.0137  0.3018
   38MOL0     C 5002   2.343   6.746  11.076 -0.1749  0.1376  0.2693
   38MOL0     O 5003   2.230   6.809  11.122 -0.4690 -0.8123 -0.3072
   38MOL0     C 5004   2.104   6.734  11.106 -0.2385  0.4075  0.1225
   38MOL0     C 5005   1.988   6.833  11.093 -0.5467  0.6441 -0.7324
   38MOL0     C 5006   1.969   6.911  11.223  0.1207 -0.9233  0.2732
   38MOL0     C 5007   1.824   6.955  11.231 -0.2823 -0.3679  0.7128
   38MOL0     C 5008   1.787   7.022  11.362 -0.7795 -1.0152  0.5086
   38MOL0     C 5009   1.642   7.056  11.358  0.3116 -0.1032 -0.3611
   38MOL0     C 5010   1.590   7.098  11.496  0.1043  0.4190  0.0435
   38MOL0     C 5011   1.448   7.149  11.503  0.6950 -0.4359  0.5284
   38MOL0     N 5012   1.418   7.199  11.640 -0.4456 -1.3571  0.6327
   38MOL0     C 5013   1.301   7.184  11.707 -0.3307 -0.7430 -0.2967
   38MOL0     C 5014   1.328   7.237  11.826  0.2157 -0.2214  0.5601
   38MOL0     C 5015   1.242   7.265  11.945 -0.1620 -0.0737  0.5792
   38MOL0     C 5016   1.263   7.156  12.052 -0.3655 -0.6016  0.6206
   38MOL0     C 5017   1.191   7.033  12.000  0.6276  0.5332 -1.6718
   38MOL0     C 5018   1.199   6.909  12.095 -0.2314 -0.3992  0.0384
   38MOL0     O 5019   1.099   6.812  12.058 -0.2711 -0.2212 -0.3763
   38MOL0     C 5020   0.966   6.843  12.063  0.1759 -0.2642 -0.3173
   38MOL0     C 5021   0.908   6.917  12.176 -0.1769  0.1781  0.1399
   38MOL0     C 5022   0.773   6.948  12.172  0.1708 -0.0940  0.5304
   38MOL0     C 5023   0.721   7.008  12.301 -0.1063 -0.5655  0.8982
   38MOL0     C 5024   0.692   6.908  12.061  0.0653  0.7258  0.1804
   38MOL0     C 5025   0.542   6.920  12.066  0.1986 -0.9086 -1.0462
   38MOL0     O 5026   0.480   6.876  11.948 -0.0115  0.2210 -0.5428
   38MOL0     C 5027   0.342   6.905  11.939 -0.6196 -0.4163 -0.1100
   38MOL0     C 5028   0.304   7.026  11.872  0.3713  0.3498  0.0504
   38MOL0     C 5029   0.169   7.077  11.877 -0.8491  0.8145  0.5751
   38MOL0     C 5030   0.074   7.002  11.941  0.0538 -0.5336 -0.0092
   38MOL0     O 5031  -0.063   7.035  11.959 -0.0567  0.6562 -0.2540
   38MOL0     C 5032  -0.112   7.154  11.900  1.0223 -1.3421  0.6969
   38MOL0     C 5033  -0.259   7.143  11.918  0.4570 -0.3025  0.2660
   38MOL0     C 5034  -0.330   7.267  11.860 -0.1008 -0.0105 -0.2966
   38MOL0     C 5035  -0.478   7.240  11.850 -0.1822 -0.6656  0.0718
   38MOL0     C 5036  -0.546   7.359  11.782 -0.6613  0.0844  0.1003
   38MOL0     C 5037  -0.696   7.369  11.752 -0.0080 -0.2346  0.3292
   38MOL0     C 5038  -0.783   7.344  11.876 -0.2467 -0.0106 -0.4212
   38MOL0     C 5039  -0.929   7.380  11.849  0.1621 -0.7512  0.5322
   38MOL0    Cl 5040  -0.954   7.555  11.867 -0.4356  0.0331 -0.1374
   38MOL0     C 5041   0.110   6.879  11.993 -0.2964  0.3509 -0.3470
   38MOL0     C 5042   0.241   6.832  11.998 -0.2310  0.3363 -0.5401
   38MOL0     O 5043   0.486   6.958  12.169  0.4740  0.5568  0.7872
   38MOL0     C 5044   0.750   6.846  11.952  0.2655  0.9060 -0.1950
   38MOL0     C 5045   0.886   6.811  11.952 -0.0016 -0.4649  0.2629
   38MOL0     N 5046   1.453   7.290  11.834 -0.0811 -0.3138 -0.4524
   38MOL0     N 5047   1.518   7.260  11.724  0.1127 -0.2127 -0.6149
   38MOL0     C 5048   2.360   6.724  10.934 -0.9349 -0.0450  0.3740
   38MOL0     C 5049   2.489   6.684  10.884  0.2645 -0.0522  0.0211
   38MOL0     C 5050   2.874   6.469  10.851 -0.8860  0.8713  1.0033
   38MOL0     C 5051   2.959   6.363  10.889 -0.2023  0.4783  0.0830
   38MOL0     C 5052   3.068   6.339  10.813 -0.2993 -0.1279  0.0970
   38MOL0     C 5053   3.110   6.428  10.712 -0.4547  0.0314 -0.7216
   38MOL0     O 5054   3.231   6.421  10.638  0.7915 -0.2064 -0.6037
   38MOL0     C 5055   3.314   6.312  10.675 -0.4763 -0.8373  0.5260
   38MOL0     C 5056   3.435   6.296  10.577 -0.5932  0.5274 -0.5501
   38MOL0     C 5057   3.486   6.433  10.553 -0.2247  0.0377  0.1313
   38MOL0     C 5058   3.530   6.503  10.683  0.5548 -0.2023  0.3527
   38MOL0     C 5059   3.443   6.610  10.714  0.6882 -0.0630  0.9265
   38MOL0     C 5060   3.367   6.709  10.724  0.4394  0.7971 -0.1159
   38MOL0     C 5061   3.031   6.538  10.684 -0.4299 -0.0188 -0.2242
   38MOL0     C 5062   2.914   6.555  10.749 -0.1800 -0.5675 -0.0548
   38MOL0     H 5063   2.659   6.658  11.180 -0.5351  0.9716  1.1326
   38MOL0     H 5064   2.425   6.743  11.262 -3.2022  2.6849 -0.8066
   38MOL0     H 5065   2.102   6.683  11.008  2.0846  2.9139 -1.3713
   38MOL0     H 5066   2.094   6.660  11.186  2.4966  0.5648  0.7095
   38MOL0     H 5067   2.017   6.909  11.020  0.8410  0.0175 -0.8683
   38MOL0     H 5068   1.900   6.775  11.062 -0.2541  0.7843 -1.8617
   38MOL0     H 5069   2.000   6.857  11.313  1.2620 -1.4332 -0.4059
   38MOL0     H 5070   2.033   7.000  11.219  0.0244 -0.7684  1.6910
   38MOL0     H 5071   1.803   7.036  11.161 -2.9540 -0.9081  0.7873
   38MOL0     H 5072   1.761   6.871  11.202  1.9488 -1.9856  0.2200
   38MOL0     H 5073   1.816   6.957  11.445 -0.0681 -1.6910 -0.2479
   38MOL0     H 5074   1.840   7.116  11.379 -0.7645 -1.0998  0.9289
   38MOL0     H 5075   1.621   7.135  11.284 -1.5071  0.8481  1.0883
   38MOL0     H 5076   1.586   6.970  11.321 -1.5168  0.4847  0.8679
   38MOL0     H 5077   1.611   7.010  11.559 -0.1416  1.3948  1.5518
   38MOL0     H 5078   1.657   7.178  11.528  0.4115  0.2373 -0.1338
   38MOL0     H 5079   1.383   7.065  11.477  0.6591  0.6960 -3.6594
   38MOL0     H 5080   1.448   7.227  11.427  2.7151 -0.4038  0.5331
   38MOL0     H 5081   1.202   7.152  11.677 -0.6160 -0.0905 -0.0574
   38MOL0     H 5082   1.274   7.359  11.992  1.2247 -1.6308  2.9912
   38MOL0     H 5083   1.137   7.277  11.917  0.8952 -0.7185 -4.6192
   38MOL0     H 5084   1.215   7.184  12.146  0.0844 -4.7952  2.2914
   38MOL0     H 5085   1.370   7.141  12.070 -0.3619 -2.5724 -0.7941
   38MOL0     H 5086   1.226   7.000  11.901  1.6874  0.3671 -1.2529
   38MOL0     H 5087   1.084   7.056  11.996  0.2407 -0.2765  1.3734
   38MOL0     H 5088   1.186   6.932  12.201 -0.0069 -3.4299  0.8275
   38MOL0     H 5089   1.298   6.867  12.079  0.4011  1.4580 -1.2284
   38MOL0     H 5090   0.977   6.956  12.250  1.6285  0.3818 -1.5435
   38MOL0     H 5091   0.656   7.096  12.291 -0.3396 -0.6468  1.6249
   38MOL0     H 5092   0.676   6.927  12.359  2.8050 -2.3094  0.8855
   38MOL0     H 5093   0.808   7.047  12.355  0.9521 -1.4096 -0.1646
   38MOL0     H 5094   0.384   7.078  11.820  2.1380 -1.1731  1.1236
   38MOL0     H 5095   0.141   7.169  11.829 -0.2405 -0.6664 -2.9105
   38MOL0     H 5096  -0.075   7.237  11.961 -0.8911 -1.6931  2.4251
   38MOL0     H 5097  -0.085   7.170  11.795 -0.6321 -0.4277  0.3792
   38MOL0     H 5098  -0.305   7.055  11.872 -2.3091  0.7831  0.7633
   38MOL0     H 5099  -0.278   7.136  12.026  0.4844  0.6883  0.3431
   38MOL0     H 5100  -0.287   7.292  11.762  0.0727 -0.0869 -0.2398
   38MOL0     H 5101  -0.309   7.347  11.931  2.5431 -1.3804  0.6376
   38MOL0     H 5102  -0.493   7.149  11.791  1.5299 -0.4009 -0.8311
   38MOL0     H 5103  -0.524   7.226  11.948 -0.7855  0.5884 -0.0186
   38MOL0     H 5104  -0.495   7.370  11.686 -1.5185  2.2849 -0.1657
   38MOL0     H 5105  -0.524   7.439  11.853  0.8987 -0.8044  0.6554
   38MOL0     H 5106  -0.719   7.467  11.710 -0.1677 -1.2748 -2.2032
   38MOL0     H 5107  -0.721   7.291  11.679 -3.2785 -0.0356  1.0910
   38MOL0     H 5108  -0.753   7.396  11.968 -1.7345 -0.5478  0.3967
   38MOL0     H 5109  -0.778   7.236  11.894 -1.2375  0.1735  1.1649
   38MOL0     H 5110  -0.984   7.326  11.927 -2.6510 -1.6182 -1.8513
   38MOL0     H 5111  -0.970   7.350  11.752 -0.3021  0.0348  0.4845
   38MOL0     H 5112   0.032   6.839  12.058  0.9744  0.4976  1.3126
   38MOL0     H 5113   0.244   6.734  12.045  0.2806  0.2154 -0.8204
   38MOL0     H 5114   0.699   6.812  11.862 -0.2700 -1.5098  0.9296
   38MOL0     H 5115   0.915   6.749  11.868  0.1319 -0.5633  0.3815
   38MOL0     H 5116   2.274   6.725  10.867 -2.1740 -1.8208  1.8092
   38MOL0     H 5117   2.492   6.672  10.776 -0.5650 -2.4790  0.2101
   38MOL0     H 5118   2.937   6.307  10.980  1.4435  0.1761  0.3176
   38MOL0     H 5119   3.129   6.254  10.845 -0.6472  0.1086  1.4420
   38MOL0     H 5120   3.350   6.314  10.778  1.7154 -1.2383 -0.1665
   38MOL0     H 5121   3.261   6.217  10.664 -1.0455 -0.3031 -1.9963
   38MOL0     H 5122   3.411   6.245  10.483  0.5379  0.8787 -1.0512
   38MOL0     H 5123   3.502   6.226  10.628 -0.0048 -0.4433 -2.5527
   38MOL0     H 5124   3.421   6.490  10.486  1.0171  0.2450 -0.9315
   38MOL0     H 5125   3.579   6.425  10.496 -1.0236  0.8658 -1.3361
   38MOL0     H 5126   3.623   6.549  10.649 -0.5581  0.6420 -1.6986
   38MOL0     H 5127   3.538   6.427  10.762 -3.4032 -0.5058  0.6719
   38MOL0     H 5128   3.297   6.785  10.752 -2.5022 -0.7723 -2.5855
   38MOL0     H 5129   3.057   6.619  10.617  4.2072  1.3516  2.7688
   38MOL0     H 5130   2.839   6.625  10.716  0.0967 -1.0008 -1.6953
   39MOL0     O 5131   1.997  10.231   9.848 -0.1345  0.4636  0.2898
   39MOL0     C 5132   1.980  10.112   9.871 -0.1966  0.4726  0.3758
   39MOL0     O 5133   1.866  10.042   9.836 -0.9453  0.6473  0.6519
   39MOL0     C 5134   1.764  10.086   9.752 -0.7133  0.2230 -1.0920
   39MOL0     C 5135   1.641  10.008   9.766  0.5238 -0.3239 -0.1785
   39MOL0     C 5136   1.527  10.056   9.705  0.1101  0.0137 -0.1751
   39MOL0     C 5137   1.531  10.171   9.617  0.3752  0.6000  0.0213
   39MOL0     O 5138   1.437  10.218   9.528  0.8233  0.5739 -0.4474
   39MOL0     C 5139   1.312  10.146   9.532 -0.1978 -0.0416 -0.2776
   39MOL0     C 5140   1.203  10.222   9.447  0.1622  0.9150 -0.5811
   39MOL0     C 5141   1.160  10.350   9.533  0.1129 -0.2644  0.0407
   39MOL0     C 5142   1.049  10.328   9.632  0.1647  0.2931 -0.0691
   39MOL0     C 5143   0.985  10.452   9.710 -0.7768 -0.2210 -0.1652
   39MOL0     C 5144   0.855  10.401   9.781 -0.3239  1.4684  0.3359
   39MOL0     C 5145   0.804  10.503   9.883  0.2687 -0.6618 -0.2528
   39MOL0     C 5146   0.690  10.455   9.965  0.4952 -0.4863  0.6655
   39MOL0     N 5147   0.722  10.341  10.048  0.4967 -0.2137  0.4173
   39MOL0     C 5148   0.707  10.332  10.185 -0.1965  0.6838 -0.4157
   39MOL0     C 5149   0.722  10.210  10.227  0.5557  0.2941  0.4558
   39MOL0     C 5150   0.705  10.157  10.359  0.8819  0.5780 -0.6327
   39MOL0     C 5151   0.566  10.194  10.415 -0.1631  0.2468 -0.2805
   39MOL0     C 5152   0.578  10.271  10.548 -0.5611 -0.4325  0.5606
   39MOL0     C 5153   0.444  10.299  10.602  0.0136  0.4529  0.0159
   39MOL0     O 5154   0.476  10.345  10.731 -0.5492  0.2340 -1.4593
   39MOL0     C 5155   0.383  10.359  10.829 -0.1893  0.1158 -0.1925
   39MOL0     C 5156   0.248  10.372  10.796  1.4646  0.0181 -0.0507
   39MOL0     C 5157   0.151  10.375  10.901 -0.1985 -0.8566  1.2678
   39MOL0     C 5158   0.003  10.382  10.858  0.2175  0.0304 -0.0755
   39MOL0     C 5159   0.192  10.380  11.035 -0.3098  0.4541 -0.7801
   39MOL0     C 5160   0.097  10.364  11.154  0.6891  0.3734 -0.2308
   39MOL0     O 5161   0.146  10.413  11.277 -0.0025  0.0394  0.1209
   39MOL0     C 5162   0.067  10.406  11.390 -0.3938 -0.4862  0.0962
   39MOL0     C 5163   0.141  10.404  11.503  0.8191  1.0104 -0.9928
   39MOL0     C 5164   0.085  10.408  11.627  1.4700  0.2912  1.0561
   39MOL0     C 5165  -0.054  10.407  11.640 -0.0389 -0.9353 -0.1946
   39MOL0     O 5166  -0.101  10.427  11.768  0.7361  0.2503  0.1973
   39MOL0     C 5167  -0.142  10.566  11.782 -0.1697 -0.2985 -1.1360
   39MOL0     C 5168  -0.133  10.596  11.928  0.7369  0.4254 -0.4745
   39MOL0     C 5169  -0.242  10.522  12.007 -0.1944 -1.4426 -0.3813
   39MOL0     C 5170  -0.227  10.541  12.157 -0.2019 -0.4103  1.0819
   39MOL0     C 5171  -0.325  10.454  12.225 -0.5900  0.1910  0.1426
   39MOL0     C 5172  -0.291  10.451  12.374  0.7042  0.0481  0.5631
   39MOL0     C 5173  -0.383  10.352  12.451 -0.0965 -0.1586 -0.6265
   39MOL0     C 5174  -0.392  10.400  12.598 -0.2109  0.6466  0.4799
   39MOL0    Cl 5175  -0.516  10.519  12.607 -0.3146  0.0262 -0.0356
   39MOL0     C 5176  -0.132  10.399  11.528  0.0320 -0.0709 -0.6683
   39MOL0     C 5177  -0.077  10.408  11.403 -0.4472 -0.4064 -0.0877
   39MOL0     O 5178  -0.012  10.313  11.141  0.0059  0.3960  0.0772
   39MOL0     C 5179   0.325  10.377  11.062 -0.6743 -0.0490  0.1744
   39MOL0     C 5180   0.420  10.375  10.963 -0.2549 -0.7246  0.3132
   39MOL0     N 5181   0.758  10.135  10.113  0.4484  0.0073 -0.7990
   39MOL0     N 5182   0.745  10.213  10.012 -0.1880 -0.2037  0.7175
   39MOL0     C 5183   1.653  10.239   9.602  0.4981  0.6958  0.1692
   39MOL0     C 5184   1.765  10.203   9.669 -0.9876 -0.7020 -0.1363
   39MOL0     C 5185   2.097  10.050   9.932 -0.4387  0.8859 -0.0833
   39MOL0     C 5186   2.113   9.902   9.937  0.4786  1.0825 -0.3542
   39MOL0     C 5187   2.226   9.845   9.990 -0.2872 -0.1851  0.2330
   39MOL0     C 5188   2.333   9.917  10.044 -0.3068 -0.3492  0.5252
   39MOL0     O 5189   2.439   9.844  10.100 -0.0632 -0.3781 -0.3625
   39MOL0     C 5190   2.561   9.912  10.135 -0.0901 -0.0755 -0.3933
   39MOL0     C 5191   2.680   9.815  10.150 -0.1829  0.4437  0.4066
   39MOL0     C 5192   2.653   9.698  10.248  0.5529  0.2097  0.0726
   39MOL0     C 5193   2.728   9.569  10.212  0.1802  0.6384 -0.3017
   39MOL0     C 5194   2.880   9.571  10.230 -0.4012  0.0852  0.2769
   39MOL0     C 5195   2.998   9.561  10.250  0.6735  0.2135 -0.6011
   39MOL0     C 5196   2.324  10.059  10.032  0.1361 -0.0089  0.3244
   39MOL0     C 5197   2.201  10.126   9.992  0.7039  0.4172 -0.1225
   39MOL0     H 5198   1.628   9.933   9.844 -0.7167  0.2590  0.2005
   39MOL0     H 5199   1.440   9.991   9.702  0.0578  0.1136 -1.0535
   39MOL0     H 5200   1.329  10.044   9.497 -0.6112  0.8352 -3.2863
   39MOL0     H 5201   1.265  10.132   9.630 -0.6372  2.1227 -0.1452
   39MOL0     H 5202   1.245  10.249   9.349 -1.3419 -0.3399 -1.6159
   39MOL0     H 5203   1.114  10.161   9.431 -0.0332  1.1921 -0.5515
   39MOL0     H 5204   1.243  10.394   9.589  1.9821 -0.6854 -2.2418
   39MOL0     H 5205   1.119  10.422   9.460 -1.1128 -2.2865 -1.3809
   39MOL0     H 5206   0.962  10.286   9.581  0.6698  1.0245 -1.6148
   39MOL0     H 5207   1.073  10.259   9.712 -2.7743  0.0083  0.6987
   39MOL0     H 5208   1.048  10.493   9.789 -1.3708 -0.3550  0.3843
   39MOL0     H 5209   0.963  10.531   9.638  3.7358  1.1989 -0.2735
   39MOL0     H 5210   0.775  10.390   9.707  0.2267  1.5842 -0.2904
   39MOL0     H 5211   0.884  10.309   9.832 -2.2536  0.6112 -0.0151
   39MOL0     H 5212   0.890  10.541   9.940 -0.2493  2.7374 -1.5716
   39MOL0     H 5213   0.779  10.596   9.832  0.7220 -0.7062 -0.5615
   39MOL0     H 5214   0.603  10.427   9.904 -0.3133  3.3624 -0.2179
   39MOL0     H 5215   0.676  10.544  10.027  0.3737  1.6766 -2.2901
   39MOL0     H 5216   0.674  10.410  10.254  0.4286  0.1556  0.5053
   39MOL0     H 5217   0.709  10.048  10.348 -1.3157  0.4721 -0.8491
   39MOL0     H 5218   0.782  10.167  10.435  1.2254 -0.3852 -0.8435
   39MOL0     H 5219   0.504  10.106  10.439 -1.7131  1.5719  0.8208
   39MOL0     H 5220   0.517  10.253  10.337 -2.2087 -0.3204  0.5078
   39MOL0     H 5221   0.633  10.365  10.542 -0.0694 -0.5791  2.3851
   39MOL0     H 5222   0.644  10.214  10.613  0.6951 -1.4591 -1.4922
   39MOL0     H 5223   0.394  10.202  10.611  0.1306  0.5844  3.4797
   39MOL0     H 5224   0.392  10.370  10.536  0.7244 -0.4735 -1.6006
   39MOL0     H 5225   0.209  10.360  10.695  1.9846  0.7122 -0.3443
   39MOL0     H 5226  -0.067  10.420  10.933 -0.4329 -0.9920 -0.1595
   39MOL0     H 5227  -0.004  10.450  10.773 -2.6837  0.9423  0.7963
   39MOL0     H 5228  -0.030  10.281  10.835 -1.9372  0.4462  0.9731
   39MOL0     H 5229   0.249  10.406  11.498  1.0959 -2.1282  0.9119
   39MOL0     H 5230   0.151  10.411  11.713  1.1210  2.9158  1.3203
   39MOL0     H 5231  -0.069  10.630  11.733  0.4487 -0.0331  0.0992
   39MOL0     H 5232  -0.242  10.583  11.740 -1.0158 -2.7298 -0.3120
   39MOL0     H 5233  -0.042  10.547  11.963  0.9766 -0.8719 -2.6917
   39MOL0     H 5234  -0.138  10.705  11.943 -0.5060  0.2068  1.0257
   39MOL0     H 5235  -0.235  10.414  11.994 -0.7649 -1.8075  1.8170
   39MOL0     H 5236  -0.339  10.564  11.978 -0.2223 -0.0773  1.4898
   39MOL0     H 5237  -0.127  10.510  12.188  1.1535  2.6392  0.1695
   39MOL0     H 5238  -0.249  10.643  12.189  2.0639 -0.2435  2.3387
   39MOL0     H 5239  -0.331  10.350  12.191  1.1739  0.7899 -2.3158
   39MOL0     H 5240  -0.424  10.497  12.206  0.7779  1.9541 -4.0233
   39MOL0     H 5241  -0.188  10.423  12.398  1.0079  0.0430 -0.6735
   39MOL0     H 5242  -0.302  10.553  12.411  0.3277 -0.4740  1.9685
   39MOL0     H 5243  -0.331  10.255  12.453  1.9796  0.9063  0.7671
   39MOL0     H 5244  -0.482  10.349  12.405 -0.2862 -1.3061 -0.1936
   39MOL0     H 5245  -0.298  10.439  12.639 -0.2153 -1.0876  2.3440
   39MOL0     H 5246  -0.406  10.320  12.672  1.2789  0.4660  0.6064
   39MOL0     H 5247  -0.238  10.395  11.552 -0.3908 -1.9595 -2.5304
   39MOL0     H 5248  -0.130  10.418  11.309  2.8675  0.0147 -2.0731
   39MOL0     H 5249   0.357  10.384  11.165  2.4062 -1.8465 -0.5149
   39MOL0     H 5250   0.527  10.372  10.982  0.2199  2.5568 -1.1300
   39MOL0     H 5251   1.654  10.322   9.532 -1.3926 -1.9088 -3.2467
   39MOL0     H 5252   1.854  10.262   9.655  0.2015 -2.5309 -0.6320
   39MOL0     H 5253   2.035   9.838   9.898 -0.2469  1.4009  0.5209
   39MOL0     H 5254   2.222   9.738  10.006 -0.9025 -0.2222 -0.1317
   39MOL0     H 5255   2.593   9.975  10.051  0.1683  0.7665  0.3125
   39MOL0     H 5256   2.554   9.980  10.221 -0.0511  0.2901 -0.6735
   39MOL0     H 5257   2.762   9.881  10.179  0.8025 -1.1867  1.5070
   39MOL0     H 5258   2.713   9.770  10.056  1.8887 -0.3260  1.4527
   39MOL0     H 5259   2.549   9.663  10.241  1.6821 -3.7306  0.4220
   39MOL0     H 5260   2.664   9.739  10.348  2.3808 -0.3549  0.1332
   39MOL0     H 5261   2.711   9.552  10.105 -3.2004 -1.2300  0.3794
   39MOL0     H 5262   2.685   9.486  10.269 -0.1164  0.4732 -0.7617
   39MOL0     H 5263   3.101   9.557  10.280 -0.0796 -0.0749  2.2278
   39MOL0     H 5264   2.390  10.131  10.080  0.4808  0.9255 -1.4501
   39MOL0     H 5265   2.191  10.233  10.005 -1.5264  0.1038  1.3169
   40MOL0     O 5266   4.714   6.194   4.920 -0.1856  0.2129  0.1468
   40MOL0     C 5267   4.795   6.165   5.007  0.5017 -0.1538  0.6254
   40MOL0     O 5268   4.780   6.211   5.137  0.1852 -0.5254  0.5262
   40MOL0     C 5269   4.664   6.273   5.168  0.7082  0.9531 -0.4755
   40MOL0     C 5270   4.673   6.397   5.227  0.5950  0.3070 -0.0970
   40MOL0     C 5271   4.559   6.465   5.283 -0.1856  0.2052  0.3578
   40MOL0     C 5272   4.431   6.410   5.262 -0.6133 -0.1745  0.5229
   40MOL0     O 5273   4.319   6.471   5.304 -0.2687  0.0921 -0.4476
   40MOL0     C 5274   4.320   6.617   5.296  0.7792  0.0672 -0.8764
   40MOL0     C 5275   4.174   6.658   5.321  0.7786 -0.5444  0.6906
   40MOL0     C 5276   4.138   6.651   5.468 -0.2969 -0.7087  0.1218
   40MOL0     C 5277   3.995   6.688   5.494  0.4814 -0.3211  0.1554
   40MOL0     C 5278   3.931   6.624   5.616 -0.1600 -0.8310 -0.5205
   40MOL0     C 5279   3.946   6.720   5.739  0.1675  0.0617  0.1012
   40MOL0     C 5280   3.836   6.690   5.845  0.5349 -0.3254  0.5549
   40MOL0     C 5281   3.696   6.729   5.798  0.3263 -0.1155  1.0005
   40MOL0     N 5282   3.672   6.871   5.792  0.5548  1.1844 -0.2093
   40MOL0     C 5283   3.646   6.945   5.899  0.0422 -0.0268 -0.3276
   40MOL0     C 5284   3.650   7.070   5.856 -0.7755 -0.7989 -1.3158
   40MOL0     C 5285   3.607   7.182   5.939 -0.1988  0.2824 -0.4127
   40MOL0     C 5286   3.471   7.225   5.892 -0.1910  0.5768  0.1634
   40MOL0     C 5287   3.415   7.348   5.969 -0.2389  0.2241  0.1812
   40MOL0     C 5288   3.283   7.399   5.916 -0.0479 -0.0620  0.7560
   40MOL0     O 5289   3.174   7.303   5.927 -0.2787 -0.0380  0.3999
   40MOL0     C 5290   3.051   7.349   5.889  0.0743 -0.4872 -0.0537
   40MOL0     C 5291   2.943   7.258   5.906 -0.5654 -0.0099  0.5861
   40MOL0     C 5292   2.806   7.293   5.880  0.6199  0.0374  0.4712
   40MOL0     C 5293   2.701   7.191   5.911  0.2779  0.4385  0.2686
   40MOL0     C 5294   2.773   7.425   5.840  0.6561  0.9031  0.2782
   40MOL0     C 5295   2.630   7.481   5.834  0.5308  0.2188 -0.9537
   40MOL0     O 5296   2.533   7.408   5.908  0.3312 -0.6684  0.0902
   40MOL0     C 5297   2.399   7.438   5.895  0.1521  0.4614 -0.1052
   40MOL0     C 5298   2.311   7.443   6.006 -0.3520  1.1005  0.1378
   40MOL0     C 5299   2.173   7.444   5.986 -0.6207 -0.5062 -0.0949
   40MOL0     C 5300   2.117   7.453   5.854 -0.1078  0.0125  0.6088
   40MOL0     O 5301   1.986   7.473   5.828  0.6837  0.0498 -1.1161
   40MOL0     C 5302   1.886   7.447   5.931 -0.6292 -0.5262 -0.1879
   40MOL0     C 5303   1.747   7.464   5.868 -0.4324 -0.3035 -0.0395
   40MOL0     C 5304   1.725   7.601   5.813 -0.5194 -0.1746 -0.3284
   40MOL0     C 5305   1.586   7.626   5.766  0.0927 -0.7373  0.2344
   40MOL0     C 5306   1.543   7.774   5.745 -0.2597 -0.2726  0.5316
   40MOL0     C 5307   1.662   7.854   5.674  0.1087 -0.0615  0.7806
   40MOL0     C 5308   1.601   7.976   5.603  0.2688 -0.3152  0.4526
   40MOL0     C 5309   1.705   8.076   5.565 -0.2228 -0.5083  0.2148
   40MOL0    Cl 5310   1.816   8.031   5.433  0.5030 -0.0303  0.2137
   40MOL0     C 5311   2.208   7.444   5.745 -0.0403  0.5001 -0.5497
   40MOL0     C 5312   2.343   7.427   5.769 -0.7453  0.5970  0.8087
   40MOL0     O 5313   2.609   7.574   5.764 -0.0777  0.1784  0.3265
   40MOL0     C 5314   2.880   7.511   5.806  0.5222 -0.3371 -0.2985
   40MOL0     C 5315   3.018   7.480   5.840 -0.0369 -0.7541 -0.1428
   40MOL0     N 5316   3.685   7.066   5.719  0.5389 -0.4203  0.4657
   40MOL0     N 5317   3.698   6.947   5.689  0.3206 -0.7434 -0.0318
   40MOL0     C 5318   4.424   6.291   5.198  0.5228  0.5744 -0.3954
   40MOL0     C 5319   4.536   6.218   5.154 -0.6212  0.4755  0.6958
   40MOL0     C 5320   4.932   6.117   4.964  0.3573 -0.4613 -0.3429
   40MOL0     C 5321   5.029   6.063   5.049  0.2509  0.3692 -0.5785
   40MOL0     C 5322   5.150   6.006   4.998  0.2172  0.0647 -0.0451
   40MOL0     C 5323   5.179   6.012   4.861 -0.4597  0.0701 -0.1063
   40MOL0     O 5324   5.303   5.963   4.823  0.4690 -0.1658 -0.4968
   40MOL0     C 5325   5.380   6.035   4.727 -0.1454 -0.1297  0.2047
   40MOL0     C 5326   5.530   6.005   4.734 -0.2095 -0.2126 -0.3525
   40MOL0     C 5327   5.569   5.858   4.727  0.4937  0.4615  0.5651
   40MOL0     C 5328   5.721   5.832   4.718 -0.3960  0.2463 -0.7015
   40MOL0     C 5329   5.793   5.903   4.830  0.3162  0.3477  0.2404
   40MOL0     C 5330   5.834   5.963   4.920  0.0637  0.4571 -0.1725
   40MOL0     C 5331   5.076   6.062   4.770 -0.5610 -0.1036 -0.8754
   40MOL0     C 5332   4.961   6.117   4.821 -0.4002 -0.4703  0.6449
   40MOL0     H 5333   4.773   6.439   5.219  1.5924 -2.1501 -1.5709
   40MOL0     H 5334   4.568   6.562   5.331 -2.9352  0.2896  0.8918
   40MOL0     H 5335   4.391   6.659   5.367  0.3680  1.8527 -1.4716
   40MOL0     H 5336   4.356   6.641   5.195 -1.3877 -1.3600 -2.0850
   40MOL0     H 5337   4.171   6.758   5.278  1.8489 -0.3257  1.0915
   40MOL0     H 5338   4.102   6.604   5.259 -0.1217  1.4797 -0.1005
   40MOL0     H 5339   4.154   6.552   5.511 -0.5744 -0.8387 -0.0706
   40MOL0     H 5340   4.201   6.713   5.533  0.9079 -1.1941 -0.5499
   40MOL0     H 5341   3.976   6.794   5.506 -0.8702 -0.7286  2.1729
   40MOL0     H 5342   3.941   6.661   5.403  2.3426 -0.2029 -1.0567
   40MOL0     H 5343   3.826   6.617   5.587  0.3976  1.0696 -3.3414
   40MOL0     H 5344   3.951   6.518   5.636 -3.3565 -1.2178  1.3993
   40MOL0     H 5345   4.041   6.695   5.789  0.3445  1.9201  0.7706
   40MOL0     H 5346   3.946   6.824   5.706 -1.2768 -0.3123 -1.1697
   40MOL0     H 5347   3.845   6.585   5.871 -0.9410 -0.5559  0.2192
   40MOL0     H 5348   3.847   6.744   5.940 -3.2595 -0.0730  1.0327
   40MOL0     H 5349   3.633   6.679   5.872  1.7017  0.0637  2.3415
   40MOL0     H 5350   3.666   6.701   5.697  0.4108  0.4275  0.8247
   40MOL0     H 5351   3.601   6.922   5.995 -0.8601  2.4310 -0.1076
   40MOL0     H 5352   3.595   7.144   6.041 -0.4283 -0.5023 -0.7316
   40MOL0     H 5353   3.686   7.258   5.945  1.3901 -1.2502 -0.9784
   40MOL0     H 5354   3.408   7.138   5.913  0.7192  0.0031  0.5680
   40MOL0     H 5355   3.473   7.246   5.784  0.0843  1.9852  0.4162
   40MOL0     H 5356   3.479   7.435   5.954  1.3073 -1.0098 -0.6796
   40MOL0     H 5357   3.394   7.329   6.074 -0.8937  0.2860  0.0668
   40MOL0     H 5358   3.287   7.429   5.811  2.4814 -2.7278 -0.0390
   40MOL0     H 5359   3.269   7.488   5.978  1.1929  0.2519  0.6090
   40MOL0     H 5360   2.967   7.153   5.924  0.4256 -0.2157 -1.6913
   40MOL0     H 5361   2.627   7.179   5.832  0.2922  3.0684 -0.2328
   40MOL0     H 5362   2.747   7.094   5.932  0.4031  0.7824  1.7587
   40MOL0     H 5363   2.653   7.217   6.006 -1.1429 -3.5860  0.8202
   40MOL0     H 5364   2.358   7.437   6.104  0.7951  1.3143 -0.3845
   40MOL0     H 5365   2.116   7.446   6.078  1.5777 -0.7565  1.3392
   40MOL0     H 5366   1.896   7.349   5.978 -0.6220  0.4502  1.9529
   40MOL0     H 5367   1.895   7.523   6.009  2.3916  1.5628 -2.2972
   40MOL0     H 5368   1.733   7.397   5.782  1.1362 -1.9852  0.9303
   40MOL0     H 5369   1.671   7.429   5.938 -1.7156  1.6959 -0.3623
   40MOL0     H 5370   1.795   7.625   5.731 -2.1598  0.3237 -1.6408
   40MOL0     H 5371   1.743   7.673   5.893 -0.2928  0.0884 -0.6082
   40MOL0     H 5372   1.586   7.566   5.674  1.2457 -0.9337  0.3463
   40MOL0     H 5373   1.519   7.576   5.836  0.2705  1.0240  1.7244
   40MOL0     H 5374   1.528   7.817   5.845 -1.1936 -0.5895  0.5349
   40MOL0     H 5375   1.452   7.788   5.686 -0.6768  0.3617  1.3032
   40MOL0     H 5376   1.729   7.890   5.752  2.0405  1.2536 -1.3566
   40MOL0     H 5377   1.711   7.783   5.606 -1.3626 -0.5812  0.2250
   40MOL0     H 5378   1.525   8.020   5.669 -1.9437 -1.0793 -1.4325
   40MOL0     H 5379   1.560   7.954   5.504 -3.1051  2.7222  0.9682
   40MOL0     H 5380   1.762   8.092   5.657 -1.0973 -3.1411  1.3499
   40MOL0     H 5381   1.658   8.169   5.533  2.8646  1.7869  1.8364
   40MOL0     H 5382   2.171   7.447   5.643  0.0903 -3.3814 -0.8611
   40MOL0     H 5383   2.403   7.410   5.681 -1.2936  0.7848  0.3922
   40MOL0     H 5384   2.863   7.616   5.783 -0.4489 -0.1079  1.3154
   40MOL0     H 5385   3.089   7.562   5.842  0.0785 -0.8102  2.6163
   40MOL0     H 5386   4.326   6.250   5.176  0.8953 -0.4137 -0.2981
   40MOL0     H 5387   4.530   6.122   5.104  0.4147 -0.4321  2.2510
   40MOL0     H 5388   5.012   6.050   5.155 -0.2954 -0.5064 -0.7581
   40MOL0     H 5389   5.213   5.952   5.067 -2.5362 -2.8469  0.4515
   40MOL0     H 5390   5.342   6.002   4.630 -2.4936 -1.4654  1.4723
   40MOL0     H 5391   5.371   6.144   4.725  0.1053 -0.1102 -1.9442
   40MOL0     H 5392   5.578   6.050   4.821 -0.0345  0.7246 -0.9231
   40MOL0     H 5393   5.573   6.043   4.641  0.6516  1.1278  0.5600
   40MOL0     H 5394   5.529   5.810   4.638 -0.4665 -0.3137  1.3897
   40MOL0     H 5395   5.533   5.793   4.808 -0.8586 -4.3297 -3.4000
   40MOL0     H 5396   5.764   5.878   4.628  1.9835  1.1154  0.7917
   40MOL0     H 5397   5.742   5.725   4.722 -0.6157  0.1372 -2.0588
   40MOL0     H 5398   5.877   6.015   5.003  0.0184 -1.0169  0.8140
   40MOL0     H 5399   5.081   6.064   4.662  3.3245  0.9124 -0.8048
   40MOL0     H 5400   4.887   6.147   4.747  0.2064 -2.7307 -0.9960
   41MOL0     O 5401   1.737   6.757   9.932  0.2100  0.1407 -0.1436
   41MOL0     C 5402   1.754   6.717  10.052 -0.9108  0.9071  0.0325
   41MOL0     O 5403   1.691   6.754  10.170  0.5346 -0.0775  0.4318
   41MOL0     C 5404   1.592   6.846  10.157 -0.2158 -0.8189  0.1393
   41MOL0     C 5405   1.578   6.945  10.061 -0.1120  0.4726 -0.1103
   41MOL0     C 5406   1.460   7.027  10.053 -0.7654 -0.1467 -0.3521
   41MOL0     C 5407   1.365   7.013  10.152  0.4918 -0.6202 -0.1971
   41MOL0     O 5408   1.247   7.089  10.147 -0.4983 -0.0653 -0.1530
   41MOL0     C 5409   1.213   7.202  10.049  0.3807 -0.3145 -0.0473
   41MOL0     C 5410   1.073   7.249  10.098  0.1618  0.6841 -0.2045
   41MOL0     C 5411   1.035   7.381  10.033 -0.3800 -0.4706 -0.5343
   41MOL0     C 5412   0.886   7.408  10.055  0.3015  0.2063 -0.3551
   41MOL0     C 5413   0.814   7.517   9.968 -0.7758 -0.5377 -0.1126
   41MOL0     C 5414   0.665   7.507   9.989  0.5703 -0.1372  0.9351
   41MOL0     C 5415   0.587   7.586   9.885  1.4327  0.4221  0.0543
   41MOL0     C 5416   0.433   7.584   9.922 -1.3143  0.6698  0.0298
   41MOL0     N 5417   0.358   7.693   9.855 -0.3207  0.9697  0.6842
   41MOL0     C 5418   0.325   7.679   9.724 -0.2154  0.4904 -0.6755
   41MOL0     C 5419   0.269   7.793   9.688 -1.1156 -0.3730  0.2172
   41MOL0     C 5420   0.224   7.846   9.556 -0.1752  0.1180  0.3911
   41MOL0     C 5421   0.073   7.827   9.538  0.5855 -0.2920  0.3001
   41MOL0     C 5422   0.046   7.700   9.450  0.6595 -0.3017  0.2430
   41MOL0     C 5423   0.059   7.562   9.519 -0.4588  0.5115 -0.3354
   41MOL0     O 5424   0.188   7.514   9.502 -0.7106 -0.2108 -0.1222
   41MOL0     C 5425   0.218   7.398   9.576  0.2540  0.1416 -0.7527
   41MOL0     C 5426   0.343   7.350   9.565  0.3480 -0.5003 -0.2729
   41MOL0     C 5427   0.400   7.245   9.640 -0.0767  0.4770  0.5333
   41MOL0     C 5428   0.551   7.227   9.635  0.1696 -0.2926 -0.6218
   41MOL0     C 5429   0.316   7.154   9.713 -0.3746  0.6662  0.0215
   41MOL0     C 5430   0.361   7.034   9.794  0.9936  0.1366 -0.2739
   41MOL0     O 5431   0.256   6.945   9.833 -0.4417  0.2315  0.3379
   41MOL0     C 5432   0.271   6.819   9.896 -0.0726  0.6319  0.4196
   41MOL0     C 5433   0.395   6.747   9.905  0.4542  0.0888  0.7076
   41MOL0     C 5434   0.404   6.619   9.963  0.2548 -0.7561 -0.5337
   41MOL0     C 5435   0.290   6.555  10.011  0.5939 -0.0431  0.2223
   41MOL0     O 5436   0.285   6.428  10.065  0.0517  0.0089 -0.0183
   41MOL0     C 5437   0.411   6.363  10.087  0.5514 -0.8082 -0.2566
   41MOL0     C 5438   0.405   6.231  10.164 -0.2184  0.6001  0.1754
   41MOL0     C 5439   0.406   6.107  10.071  0.2830 -0.5482  0.2504
   41MOL0     C 5440   0.274   6.091   9.996  0.2357 -0.1208 -0.3699
   41MOL0     C 5441   0.285   5.968   9.902  0.5316  0.1513  0.0244
   41MOL0     C 5442   0.145   5.927   9.861 -1.1601 -0.2361 -0.5786
   41MOL0     C 5443   0.171   5.822   9.751  0.4827  0.5268 -0.3931
   41MOL0     C 5444   0.047   5.762   9.691 -0.1687 -0.0121  0.0273
   41MOL0    Cl 5445  -0.046   5.661   9.811  0.2126 -0.2120 -0.6302
   41MOL0     C 5446   0.163   6.622  10.006 -0.0027 -1.1203  0.5335
   41MOL0     C 5447   0.157   6.755   9.949 -0.0497  0.0727 -0.3193
   41MOL0     O 5448   0.476   7.029   9.833 -0.1893  0.5015  0.0543
   41MOL0     C 5449   0.177   7.193   9.710 -0.2940 -0.3883 -0.5550
   41MOL0     C 5450   0.132   7.317   9.651 -0.6933 -0.2303 -0.0857
   41MOL0     N 5451   0.259   7.876   9.800  0.1570 -0.3313  0.1639
   41MOL0     N 5452   0.309   7.816   9.907 -0.6384 -0.3669  0.0323
   41MOL0     C 5453   1.375   6.917  10.253  0.5339  0.3660  0.3172
   41MOL0     C 5454   1.490   6.837  10.259  0.5493  0.1074  0.1492
   41MOL0     C 5455   1.848   6.603  10.074  0.0080  0.8456  0.1013
   41MOL0     C 5456   1.898   6.533   9.961 -0.8221 -0.5973 -0.0324
   41MOL0     C 5457   1.984   6.426   9.972  0.0362  0.4782  0.2303
   41MOL0     C 5458   2.026   6.383  10.104  0.3795 -0.2558  0.1680
   41MOL0     O 5459   2.110   6.274  10.099  0.1076 -0.1263 -0.4634
   41MOL0     C 5460   2.165   6.219  10.216 -0.1654 -1.4125  0.9943
   41MOL0     C 5461   2.308   6.270  10.235 -0.2502  0.2528  0.5904
   41MOL0     C 5462   2.383   6.199  10.358  0.1407  0.2203 -0.0126
   41MOL0     C 5463   2.395   6.049  10.346  0.6520 -0.4649 -0.1996
   41MOL0     C 5464   2.410   5.992  10.216 -0.6724 -0.7211 -0.2530
   41MOL0     C 5465   2.397   5.950  10.101 -0.1883  0.6094  0.3995
   41MOL0     C 5466   1.973   6.455  10.210 -0.0892  0.2659  0.3557
   41MOL0     C 5467   1.886   6.557  10.200  0.1439  0.3334  0.4609
   41MOL0     H 5468   1.659   6.979   9.997 -1.6239  2.7788 -0.9562
   41MOL0     H 5469   1.455   7.100   9.972 -0.5205  0.6894  0.3680
   41MOL0     H 5470   1.288   7.281  10.061  1.8857 -1.9463  1.6988
   41MOL0     H 5471   1.205   7.172   9.944 -1.5364  2.4266 -0.7995
   41MOL0     H 5472   1.000   7.175  10.060  1.6864  0.3959 -2.8697
   41MOL0     H 5473   1.074   7.267  10.205  2.0002  0.0348 -0.0777
   41MOL0     H 5474   1.096   7.464  10.070 -0.7429 -0.7761  0.7859
   41MOL0     H 5475   1.061   7.382   9.927 -0.0283  1.0099 -0.4507
   41MOL0     H 5476   0.829   7.315  10.050 -0.7575  0.6561  2.0136
   41MOL0     H 5477   0.889   7.439  10.160 -0.6926 -4.0399  1.1270
   41MOL0     H 5478   0.847   7.620   9.987  1.4023 -1.2966  0.4550
   41MOL0     H 5479   0.822   7.499   9.861 -0.9749 -0.3570 -0.1603
   41MOL0     H 5480   0.643   7.400   9.988  1.2621 -0.3298  2.5142
   41MOL0     H 5481   0.645   7.549  10.088  1.0612  2.5190 -0.0043
   41MOL0     H 5482   0.616   7.691   9.877  0.2629  1.1107  3.2201
   41MOL0     H 5483   0.602   7.543   9.786  0.5868 -0.0693  0.1252
   41MOL0     H 5484   0.423   7.577  10.031  3.5869 -2.4068  0.5782
   41MOL0     H 5485   0.388   7.491   9.886 -1.6438  2.0690 -3.6918
   41MOL0     H 5486   0.356   7.596   9.662 -0.5344 -0.8622  0.9119
   41MOL0     H 5487   0.236   7.955   9.561 -1.5365  0.2573  3.0712
   41MOL0     H 5488   0.271   7.797   9.471 -4.7479 -0.0245 -2.4150
   41MOL0     H 5489   0.033   7.920   9.498  2.0078 -0.4991 -1.8044
   41MOL0     H 5490   0.031   7.798   9.634  0.3885 -0.6703  0.1022
   41MOL0     H 5491   0.111   7.706   9.361  0.7576 -1.8730  0.1885
   41MOL0     H 5492  -0.055   7.709   9.409 -0.2880  2.7634  2.8632
   41MOL0     H 5493  -0.019   7.506   9.466 -2.4368  0.0655  2.7854
   41MOL0     H 5494   0.029   7.559   9.624 -1.3219 -2.5002 -0.5734
   41MOL0     H 5495   0.423   7.399   9.510  0.9721 -2.4732 -1.2378
   41MOL0     H 5496   0.589   7.244   9.736  2.1489  0.5429 -1.4656
   41MOL0     H 5497   0.574   7.123   9.608  0.6133 -0.4196  0.2044
   41MOL0     H 5498   0.603   7.303   9.577  0.8510  1.6106  2.2641
   41MOL0     H 5499   0.491   6.781   9.867  2.2945 -3.7012  1.4117
   41MOL0     H 5500   0.497   6.562   9.963 -0.1677 -1.4661 -1.9184
   41MOL0     H 5501   0.469   6.339   9.997 -0.4722  1.6177 -1.6446
   41MOL0     H 5502   0.475   6.425  10.150  1.0122 -1.5902  0.0675
   41MOL0     H 5503   0.494   6.235  10.227  0.0991  1.1524 -0.2993
   41MOL0     H 5504   0.320   6.230  10.233 -0.3031 -1.6996  0.1195
   41MOL0     H 5505   0.422   6.015  10.128 -3.2053 -0.3715  1.7764
   41MOL0     H 5506   0.482   6.109   9.992 -1.7570  1.0155 -1.7915
   41MOL0     H 5507   0.209   6.059  10.079  1.5734  1.8258  1.5394
   41MOL0     H 5508   0.250   6.183   9.942  0.2828 -0.9554 -1.8759
   41MOL0     H 5509   0.337   5.884   9.948  1.0802  1.0457  1.0826
   41MOL0     H 5510   0.338   6.010   9.816 -0.9608  2.1956  0.0287
   41MOL0     H 5511   0.081   5.891   9.942 -0.1416  2.1869  1.4374
   41MOL0     H 5512   0.088   6.006   9.810  0.1575  0.5845 -0.8081
   41MOL0     H 5513   0.233   5.738   9.783 -1.4720 -0.2424  1.6637
   41MOL0     H 5514   0.216   5.881   9.671 -0.3101  1.7451  0.0220
   41MOL0     H 5515   0.070   5.703   9.602 -2.4078  1.3764 -1.5756
   41MOL0     H 5516  -0.019   5.842   9.656 -1.2086  0.5023  2.9166
   41MOL0     H 5517   0.075   6.576  10.050 -2.2746  1.1593 -1.3141
   41MOL0     H 5518   0.058   6.799   9.947 -0.3789 -0.6524 -2.5081
   41MOL0     H 5519   0.107   7.122   9.752  0.5192 -0.7385  0.2452
   41MOL0     H 5520   0.026   7.339   9.661 -0.2513  1.0871  2.8864
   41MOL0     H 5521   1.300   6.913  10.331  0.4205  2.9561  0.3994
   41MOL0     H 5522   1.489   6.755  10.330  0.0638 -2.6653 -2.8881
   41MOL0     H 5523   1.862   6.573   9.866  1.9220  1.8766 -0.1806
   41MOL0     H 5524   2.016   6.371   9.884 -0.3881 -1.2488  1.1010
   41MOL0     H 5525   2.107   6.246  10.304  1.4940  1.0385  1.4419
   41MOL0     H 5526   2.161   6.110  10.209 -2.7438 -1.2942 -0.5606
   41MOL0     H 5527   2.292   6.376  10.260  0.6860  0.2918  1.0563
   41MOL0     H 5528   2.369   6.272  10.144 -0.9176 -3.2916 -0.0640
   41MOL0     H 5529   2.333   6.225  10.451  0.3640  1.3320 -0.1817
   41MOL0     H 5530   2.486   6.235  10.368 -0.3026  1.0632  2.0345
   41MOL0     H 5531   2.313   5.997  10.396 -0.3838 -0.5399 -1.8936
   41MOL0     H 5532   2.489   6.027  10.397  0.3007 -1.8620 -0.1128
   41MOL0     H 5533   2.402   5.895  10.009  3.0870 -1.2198  1.5072
   41MOL0     H 5534   1.996   6.425  10.312 -0.9996  2.1225  1.1484
   41MOL0     H 5535   1.859   6.594  10.298  2.2527 -0.1322  1.2692
   42MOL0     O 5536   3.043   3.359   3.805  0.6751  0.2010  0.1872
   42MOL0     C 5537   3.083   3.337   3.917 -0.7643 -0.1211 -0.4185
   42MOL0     O 5538   3.009   3.303   4.026  0.6113 -0.2145  0.7274
   42MOL0     C 5539   2.875   3.273   4.020 -0.4204 -0.0536 -1.2289
   42MOL0     C 5540   2.853   3.142   4.020  0.0609  0.8243 -0.2722
   42MOL0     C 5541   2.718   3.097   4.017  0.6429 -0.7300  0.1774
   42MOL0     C 5542   2.604   3.180   4.030  0.0461 -0.0036  0.4572
   42MOL0     O 5543   2.469   3.143   4.038 -0.7703 -0.2678  0.0686
   42MOL0     C 5544   2.425   3.008   4.054 -1.0862 -0.0665 -0.1283
   42MOL0     C 5545   2.470   2.941   4.183  0.2517 -1.0947  0.6171
   42MOL0     C 5546   2.421   2.793   4.169  0.0149 -1.1592  0.2184
   42MOL0     C 5547   2.263   2.780   4.169  0.4497 -0.2171  0.0071
   42MOL0     C 5548   2.227   2.632   4.186 -0.1797  0.6838  0.3756
   42MOL0     C 5549   2.073   2.618   4.207  0.9241  0.4610  0.0722
   42MOL0     C 5550   2.037   2.476   4.194 -0.9290 -0.2044  0.5496
   42MOL0     C 5551   1.886   2.443   4.215  0.0184  0.2397  0.3243
   42MOL0     N 5552   1.853   2.297   4.228 -0.5419 -0.5759 -0.4232
   42MOL0     C 5553   1.908   2.187   4.168 -0.4948  0.1639  0.2104
   42MOL0     C 5554   1.816   2.093   4.187  0.0829 -0.4241  0.2510
   42MOL0     C 5555   1.825   1.957   4.132  0.1785 -0.1689  0.0177
   42MOL0     C 5556   1.878   1.847   4.235  1.4530  0.0548  0.2914
   42MOL0     C 5557   2.010   1.884   4.292 -0.8391 -1.3845 -0.9239
   42MOL0     C 5558   2.061   1.778   4.391  0.1896  0.1829  0.6091
   42MOL0     O 5559   2.166   1.705   4.319  0.1223 -0.7606 -0.3408
   42MOL0     C 5560   2.286   1.771   4.319  0.0800  0.0182 -0.1584
   42MOL0     C 5561   2.379   1.723   4.231  0.7637  0.1241  0.3510
   42MOL0     C 5562   2.512   1.768   4.221  0.0987 -0.9045  1.1691
   42MOL0     C 5563   2.604   1.694   4.122  0.1025  0.0416  0.3236
   42MOL0     C 5564   2.553   1.883   4.296 -0.1050  0.2309 -0.1319
   42MOL0     C 5565   2.688   1.929   4.308  0.6220  0.3193  0.8287
   42MOL0     O 5566   2.709   2.053   4.365  0.0113  0.0731  0.3973
   42MOL0     C 5567   2.835   2.096   4.400  0.7020  0.1850 -0.0617
   42MOL0     C 5568   2.923   2.132   4.305 -0.5447  0.1739 -0.1866
   42MOL0     C 5569   3.045   2.197   4.331  0.4218  0.3674 -0.4105
   42MOL0     C 5570   3.076   2.216   4.462 -0.5901  0.2201  0.7501
   42MOL0     O 5571   3.198   2.260   4.505  0.3869  0.0520 -0.2056
   42MOL0     C 5572   3.314   2.283   4.422  0.2414 -0.3016 -0.0465
   42MOL0     C 5573   3.444   2.291   4.498  0.0210 -0.1138 -0.3863
   42MOL0     C 5574   3.561   2.333   4.402  0.0966  0.5596 -0.8551
   42MOL0     C 5575   3.690   2.354   4.468 -0.0188 -1.0073 -0.8436
   42MOL0     C 5576   3.809   2.313   4.372  0.2460 -0.5166  0.4031
   42MOL0     C 5577   3.939   2.341   4.443 -0.7007  0.3785 -0.2514
   42MOL0     C 5578   4.049   2.344   4.333  0.4821 -0.2023  0.3564
   42MOL0     C 5579   4.074   2.202   4.272  0.5106 -0.0495  0.2705
   42MOL0    Cl 5580   4.104   2.074   4.387 -0.7526 -0.5230  0.2574
   42MOL0     C 5581   2.983   2.186   4.566  0.3995  0.0477  0.7493
   42MOL0     C 5582   2.860   2.121   4.531  0.4002 -0.0484 -0.7039
   42MOL0     O 5583   2.782   1.857   4.269 -0.0808 -0.0099  0.0627
   42MOL0     C 5584   2.449   1.930   4.390 -0.3050 -0.4639 -0.7031
   42MOL0     C 5585   2.326   1.873   4.409 -0.5247  0.0384  0.0069
   42MOL0     N 5586   1.716   2.140   4.272  0.1232  0.5708 -0.2733
   42MOL0     N 5587   1.732   2.270   4.287  0.0157  0.7782 -0.5725
   42MOL0     C 5588   2.633   3.318   4.036 -0.5435  0.0914 -0.0090
   42MOL0     C 5589   2.767   3.363   4.036 -0.5303 -0.3194  0.0156
   42MOL0     C 5590   3.224   3.335   3.948  1.3484  0.1206  0.4916
   42MOL0     C 5591   3.312   3.335   3.841 -0.2554  0.4208  0.2045
   42MOL0     C 5592   3.450   3.338   3.868  0.1075  0.0867 -0.2369
   42MOL0     C 5593   3.494   3.342   3.998  0.3149 -0.1579 -0.4441
   42MOL0     O 5594   3.631   3.327   3.999 -0.3136 -0.0951  0.5164
   42MOL0     C 5595   3.715   3.302   4.115  0.1007  0.9068 -0.4519
   42MOL0     C 5596   3.868   3.293   4.090 -0.3962  0.3308  0.6317
   42MOL0     C 5597   3.909   3.440   4.038 -0.0717  0.4140 -1.2587
   42MOL0     C 5598   4.063   3.458   4.016  0.2021 -0.4430  0.0616
   42MOL0     C 5599   4.145   3.457   4.137  0.0085 -0.2550 -0.1864
   42MOL0     C 5600   4.233   3.446   4.220  0.2765 -0.4529  0.2681
   42MOL0     C 5601   3.408   3.346   4.106  0.0070  1.0852 -0.0890
   42MOL0     C 5602   3.269   3.333   4.076 -0.2815  0.3579  0.1507
   42MOL0     H 5603   2.936   3.073   4.006  2.0350  3.0226  0.1364
   42MOL0     H 5604   2.710   2.989   4.013 -2.4470 -0.5539 -1.1462
   42MOL0     H 5605   2.316   3.018   4.052 -1.2615 -1.7145 -1.8445
   42MOL0     H 5606   2.450   2.943   3.970  1.6145  1.1851 -0.4131
   42MOL0     H 5607   2.578   2.947   4.195  0.1050  0.4285  1.3625
   42MOL0     H 5608   2.423   2.983   4.272 -0.2292 -1.2827  0.4583
   42MOL0     H 5609   2.468   2.751   4.080  0.6793 -0.2510  0.1196
   42MOL0     H 5610   2.456   2.745   4.260 -1.8393 -1.3759  0.8574
   42MOL0     H 5611   2.229   2.812   4.268  1.4048 -1.2476  0.6960
   42MOL0     H 5612   2.216   2.826   4.081  0.1189 -0.1883  0.1987
   42MOL0     H 5613   2.259   2.570   4.102 -0.1385  0.5291  0.5056
   42MOL0     H 5614   2.289   2.588   4.264  2.3890 -2.2199 -2.9669
   42MOL0     H 5615   2.050   2.651   4.309 -3.1955  0.1395 -0.5820
   42MOL0     H 5616   2.015   2.680   4.137  1.4892 -0.1545 -0.9668
   42MOL0     H 5617   2.071   2.441   4.096  1.7331 -0.9653  1.6590
   42MOL0     H 5618   2.099   2.423   4.267  2.5169  0.0180 -1.9732
   42MOL0     H 5619   1.825   2.464   4.127  0.3430  2.0273  0.4922
   42MOL0     H 5620   1.844   2.481   4.308 -0.5678  0.3690  0.0102
   42MOL0     H 5621   1.999   2.184   4.109 -1.5626 -2.5739 -1.4941
   42MOL0     H 5622   1.722   1.926   4.114 -0.7867  1.7560  1.8006
   42MOL0     H 5623   1.875   1.950   4.035 -1.6899 -0.2195 -0.9931
   42MOL0     H 5624   1.873   1.746   4.194  1.9308  1.5034 -3.8778
   42MOL0     H 5625   1.806   1.852   4.317 -0.1644  0.1357 -1.0577
   42MOL0     H 5626   2.004   1.985   4.333 -0.4665 -0.9084 -1.9984
   42MOL0     H 5627   2.080   1.891   4.208  0.5477 -1.8687  0.1517
   42MOL0     H 5628   1.982   1.703   4.392 -2.5615  2.7283 -2.4632
   42MOL0     H 5629   2.077   1.809   4.494 -0.0579  1.7019  0.2059
   42MOL0     H 5630   2.343   1.645   4.165 -2.3725  0.0819  1.9090
   42MOL0     H 5631   2.530   1.660   4.049 -0.6207  1.3129  0.4285
   42MOL0     H 5632   2.668   1.764   4.067 -1.3882  0.0622 -1.5043
   42MOL0     H 5633   2.662   1.616   4.171  0.3065  1.1407  1.8999
   42MOL0     H 5634   2.889   2.127   4.203  2.7471 -1.8828 -1.3489
   42MOL0     H 5635   3.113   2.232   4.254  1.6668 -0.9847  0.0270
   42MOL0     H 5636   3.325   2.201   4.350 -0.3733 -3.3058  3.0494
   42MOL0     H 5637   3.302   2.382   4.377  2.6805  1.0654  2.0547
   42MOL0     H 5638   3.421   2.372   4.567 -3.0096 -0.3219 -1.0361
   42MOL0     H 5639   3.461   2.202   4.560  0.7098  0.8521  0.8489
   42MOL0     H 5640   3.535   2.424   4.348 -3.6081 -0.5995 -1.2791
   42MOL0     H 5641   3.565   2.253   4.327  0.2592  0.5779 -0.8656
   42MOL0     H 5642   3.705   2.456   4.504  1.0944 -0.8439 -1.7120
   42MOL0     H 5643   3.701   2.293   4.558  0.9490  1.0594  0.5284
   42MOL0     H 5644   3.799   2.367   4.278 -0.1211  0.3862  0.9507
   42MOL0     H 5645   3.797   2.206   4.353 -5.0692 -0.5611  2.4729
   42MOL0     H 5646   3.924   2.444   4.479 -1.2958  0.4441 -0.6655
   42MOL0     H 5647   3.954   2.273   4.528 -3.1249  0.6178  0.4457
   42MOL0     H 5648   4.145   2.385   4.366 -0.0387  0.2509  1.3279
   42MOL0     H 5649   4.020   2.408   4.248  1.5249  0.2978  0.3647
   42MOL0     H 5650   4.156   2.199   4.199 -1.1862  2.1582 -1.9118
   42MOL0     H 5651   3.984   2.168   4.219  1.1749  1.3414 -1.8917
   42MOL0     H 5652   3.024   2.207   4.664  0.7007 -0.7051  0.7898
   42MOL0     H 5653   2.801   2.094   4.618  0.5044  0.1859 -0.5609
   42MOL0     H 5654   2.478   2.010   4.456  0.9272 -1.6289  0.2268
   42MOL0     H 5655   2.257   1.913   4.482  1.5344 -1.6852  3.0984
   42MOL0     H 5656   2.549   3.385   4.048  0.7475  2.1543 -1.7833
   42MOL0     H 5657   2.800   3.466   4.032 -0.0907 -0.4333  0.6283
   42MOL0     H 5658   3.270   3.340   3.741 -1.8264  4.0935  0.8847
   42MOL0     H 5659   3.525   3.330   3.790  2.1346 -2.7450  1.8175
   42MOL0     H 5660   3.701   3.378   4.191  4.4139 -0.0243  1.5660
   42MOL0     H 5661   3.680   3.209   4.160 -0.0219  0.5556 -1.2398
   42MOL0     H 5662   3.886   3.219   4.011  1.2060  0.7728  0.5512
   42MOL0     H 5663   3.930   3.259   4.173 -0.3523  0.1474  0.5254
   42MOL0     H 5664   3.865   3.515   4.105  2.0067  1.5667 -1.1254
   42MOL0     H 5665   3.858   3.445   3.941 -0.9205 -3.9371 -1.2450
   42MOL0     H 5666   4.080   3.558   3.974  0.6785 -0.7525 -0.4921
   42MOL0     H 5667   4.095   3.384   3.941  1.2436 -1.1233  1.1464
   42MOL0     H 5668   4.313   3.432   4.291 -1.3416  0.9896  2.5176
   42MOL0     H 5669   3.460   3.346   4.201  0.6360  0.1153 -0.4194
   42MOL0     H 5670   3.206   3.340   4.164 -0.0661  1.5408  0.2238
   43MOL0     O 5671   0.474   1.519  10.124  0.0119 -0.4088  0.1269
   43MOL0     C 5672   0.530   1.635  10.122 -0.1420  0.3812  0.2746
   43MOL0     O 5673   0.482   1.758  10.156 -0.0175  0.0370  0.4156
   43MOL0     C 5674   0.346   1.773  10.162  0.1515 -0.1934 -0.2011
   43MOL0     C 5675   0.242   1.708  10.092  0.3743  0.0591 -1.0463
   43MOL0     C 5676   0.107   1.710  10.136 -0.3759 -0.0603  0.3172
   43MOL0     C 5677   0.077   1.808  10.235  0.3534 -0.2008  0.3405
   43MOL0     O 5678  -0.042   1.830  10.303 -0.3344  0.0569  0.3033
   43MOL0     C 5679  -0.153   1.781  10.235  0.1804 -0.2141 -0.1244
   43MOL0     C 5680  -0.263   1.826  10.320 -0.3920  0.6641  0.0467
   43MOL0     C 5681  -0.274   1.753  10.454  0.4105  0.0407 -0.1929
   43MOL0     C 5682  -0.243   1.857  10.560  0.6007 -0.1201 -0.2797
   43MOL0     C 5683  -0.213   1.775  10.680  0.3192 -0.3195 -0.9984
   43MOL0     C 5684  -0.086   1.689  10.693 -0.3638 -1.2683 -0.2909
   43MOL0     C 5685   0.048   1.769  10.686  0.0178  0.8893 -0.5614
   43MOL0     C 5686   0.098   1.809  10.832  0.4884  1.7084  0.4138
   43MOL0     N 5687   0.212   1.892  10.820 -0.1070  0.5483 -0.8360
   43MOL0     C 5688   0.209   2.030  10.791  0.5258  0.5602 -0.4091
   43MOL0     C 5689   0.341   2.071  10.786  0.3200  0.0722 -0.0790
   43MOL0     C 5690   0.390   2.204  10.760 -0.2100  0.2408 -0.9063
   43MOL0     C 5691   0.439   2.279  10.886  0.4479  0.4111  0.1524
   43MOL0     C 5692   0.469   2.434  10.853 -0.4060  0.4898  0.2865
   43MOL0     C 5693   0.594   2.443  10.774 -0.2551 -0.2581  0.1297
   43MOL0     O 5694   0.697   2.384  10.840 -0.1457 -0.0400 -0.2506
   43MOL0     C 5695   0.810   2.347  10.758  0.3103 -0.9719 -0.7976
   43MOL0     C 5696   0.847   2.429  10.646  0.0606 -0.1428 -0.5879
   43MOL0     C 5697   0.968   2.415  10.581 -0.5727 -0.0744  1.0884
   43MOL0     C 5698   0.986   2.512  10.472  0.1377 -0.1828 -0.3188
   43MOL0     C 5699   1.055   2.306  10.610  0.7069  0.3374 -0.1461
   43MOL0     C 5700   1.182   2.265  10.548  0.2624 -0.9049 -0.9154
   43MOL0     O 5701   1.225   2.332  10.439 -0.2313 -0.0998  0.4751
   43MOL0     C 5702   1.352   2.326  10.387  0.7894  0.0609  0.2094
   43MOL0     C 5703   1.380   2.434  10.306 -0.0378  0.1653 -0.7349
   43MOL0     C 5704   1.510   2.451  10.255 -0.0189 -0.1343  0.2785
   43MOL0     C 5705   1.619   2.370  10.292 -0.0914 -0.4481  0.1477
   43MOL0     O 5706   1.756   2.383  10.267 -0.6488  0.2735  0.0388
   43MOL0     C 5707   1.796   2.464  10.152  0.8422 -0.1706  0.2169
   43MOL0     C 5708   1.946   2.447  10.125  0.5703  0.0653  0.0482
   43MOL0     C 5709   2.006   2.542  10.019  0.9269 -0.0285 -0.0290
   43MOL0     C 5710   2.159   2.531  10.026 -0.3923  0.0662  0.3878
   43MOL0     C 5711   2.216   2.624   9.916  0.1183  0.3491  0.2280
   43MOL0     C 5712   2.365   2.634   9.901 -0.1916 -0.7828 -0.3207
   43MOL0     C 5713   2.441   2.503   9.864  0.6799  0.0645 -0.3507
   43MOL0     C 5714   2.591   2.504   9.901  0.5299 -0.9821  1.0389
   43MOL0    Cl 5715   2.641   2.497  10.074 -0.3514  0.2752 -0.7876
   43MOL0     C 5716   1.582   2.257  10.364  0.1428  1.0263 -0.0178
   43MOL0     C 5717   1.450   2.232  10.403  0.3644  0.4001 -0.4342
   43MOL0     O 5718   1.251   2.193  10.615  0.7114  0.5393  0.8070
   43MOL0     C 5719   1.015   2.221  10.718  0.3671 -0.4630 -0.3995
   43MOL0     C 5720   0.899   2.243  10.788  0.1007  0.0304  0.2068
   43MOL0     N 5721   0.417   1.959  10.809 -0.1843  0.6948 -0.0103
   43MOL0     N 5722   0.342   1.854  10.819  0.9332 -0.5459 -0.3727
   43MOL0     C 5723   0.176   1.893  10.290 -0.1210  0.9068 -0.0604
   43MOL0     C 5724   0.309   1.873  10.258  0.3761  0.2201 -0.2946
   43MOL0     C 5725   0.680   1.629  10.075  0.7851 -0.0330 -0.4676
   43MOL0     C 5726   0.742   1.743  10.029 -0.1310 -0.6049  0.6551
   43MOL0     C 5727   0.881   1.733   9.986  0.8234  0.0777  0.6696
   43MOL0     C 5728   0.948   1.610   9.976  0.1485  0.5315 -0.6580
   43MOL0     O 5729   1.077   1.598   9.922  0.2299  0.3086  0.2019
   43MOL0     C 5730   1.141   1.463   9.937  0.1546 -0.1746  0.5271
   43MOL0     C 5731   1.275   1.481   9.868 -0.4546 -0.2282 -0.4700
   43MOL0     C 5732   1.360   1.600   9.919  0.6466 -0.5764  0.3640
   43MOL0     C 5733   1.502   1.610   9.866  0.2025 -0.2370  0.7099
   43MOL0     C 5734   1.591   1.507   9.918 -0.5248  0.4082  0.1287
   43MOL0     C 5735   1.656   1.415   9.955  1.1198 -0.0432  0.2367
   43MOL0     C 5736   0.879   1.495  10.028  0.0343 -0.0691 -0.0356
   43MOL0     C 5737   0.746   1.504  10.068  0.4490  0.1716 -1.2422
   43MOL0     H 5738   0.276   1.645  10.011  2.0350  0.1124 -0.4222
   43MOL0     H 5739   0.028   1.650  10.091  1.5345 -2.5825  0.0830
   43MOL0     H 5740  -0.170   1.823  10.135 -1.7629 -0.6796 -0.0272
   43MOL0     H 5741  -0.150   1.672  10.240 -0.9520 -0.1984  3.1033
   43MOL0     H 5742  -0.266   1.935  10.329  1.9505  1.1691 -3.3677
   43MOL0     H 5743  -0.351   1.796  10.262  0.5609 -2.4839  0.0838
   43MOL0     H 5744  -0.380   1.730  10.471  0.4406 -0.8439 -1.0977
   43MOL0     H 5745  -0.215   1.662  10.453 -0.6652 -0.6750 -0.9356
   43MOL0     H 5746  -0.150   1.908  10.535 -0.2675  1.0033 -1.3783
   43MOL0     H 5747  -0.329   1.921  10.582  0.8213  1.4177 -3.3255
   43MOL0     H 5748  -0.224   1.835  10.771  1.1833 -0.8341 -0.5437
   43MOL0     H 5749  -0.290   1.697  10.687 -1.6573  1.3009 -3.0329
   43MOL0     H 5750  -0.088   1.641  10.791  1.6362  1.9167  1.5266
   43MOL0     H 5751  -0.092   1.607  10.621  1.6997 -0.1195 -1.9114
   43MOL0     H 5752   0.132   1.710  10.647 -0.1789  1.0737 -1.2888
   43MOL0     H 5753   0.030   1.860  10.628 -0.4989  0.6484 -0.7813
   43MOL0     H 5754   0.115   1.712  10.879  0.7803  1.8016  0.4977
   43MOL0     H 5755   0.008   1.850  10.880 -2.1604 -3.2111  0.3004
   43MOL0     H 5756   0.120   2.084  10.760  1.5545  1.5377 -1.8221
   43MOL0     H 5757   0.468   2.201  10.684 -3.5216 -3.0163 -4.6938
   43MOL0     H 5758   0.313   2.271  10.721  1.3835  1.9757 -1.2014
   43MOL0     H 5759   0.526   2.225  10.925  0.5087  0.6637  0.3710
   43MOL0     H 5760   0.373   2.280  10.974  3.0742 -0.6739  2.2905
   43MOL0     H 5761   0.488   2.478  10.952 -1.1929  0.5953  0.3961
   43MOL0     H 5762   0.388   2.475  10.792 -0.1193 -0.5886 -0.8523
   43MOL0     H 5763   0.611   2.550  10.757 -1.4865 -0.2170 -1.0467
   43MOL0     H 5764   0.581   2.402  10.673  0.8620  1.3161 -0.6946
   43MOL0     H 5765   0.792   2.516  10.613  1.8283  1.2422 -0.0191
   43MOL0     H 5766   1.021   2.447  10.392  1.5784 -2.0756  1.7198
   43MOL0     H 5767   0.894   2.563  10.443 -1.4033 -2.7509 -0.2869
   43MOL0     H 5768   1.050   2.599  10.491 -0.8835  0.6363 -0.5206
   43MOL0     H 5769   1.300   2.502  10.279 -0.5177 -0.3196 -0.5685
   43MOL0     H 5770   1.518   2.541  10.195  2.2749 -0.5702 -0.1298
   43MOL0     H 5771   1.739   2.429  10.066 -2.1838  0.1870  1.9505
   43MOL0     H 5772   1.772   2.567  10.178  1.4640  0.3566 -1.2236
   43MOL0     H 5773   1.990   2.466  10.223 -1.2605 -3.8692  1.8494
   43MOL0     H 5774   1.976   2.349  10.088  1.8460  1.1244 -1.9736
   43MOL0     H 5775   1.972   2.645  10.031 -1.9945 -0.7944 -0.7613
   43MOL0     H 5776   1.967   2.509   9.923 -1.3726 -1.4578  1.2855
   43MOL0     H 5777   2.192   2.570  10.123 -0.4004 -0.6383  0.6786
   43MOL0     H 5778   2.198   2.429  10.027  0.4319  0.3810  0.5395
   43MOL0     H 5779   2.176   2.725   9.925 -0.3489  0.1548  0.3623
   43MOL0     H 5780   2.182   2.580   9.821 -0.4935  0.5842  0.3351
   43MOL0     H 5781   2.385   2.714   9.830 -0.6645 -1.4176 -1.1793
   43MOL0     H 5782   2.402   2.677   9.995  4.7514  0.2422 -2.4546
   43MOL0     H 5783   2.430   2.479   9.757  2.5885  0.2310 -0.6112
   43MOL0     H 5784   2.402   2.423   9.926  1.4870 -0.4041 -0.4471
   43MOL0     H 5785   2.644   2.587   9.852 -1.2248 -0.3746  0.0735
   43MOL0     H 5786   2.636   2.413   9.862  1.0365 -0.2342 -0.1848
   43MOL0     H 5787   1.661   2.186  10.387  0.3660  0.8882 -1.1785
   43MOL0     H 5788   1.427   2.142  10.459 -0.1914  0.5404 -0.4265
   43MOL0     H 5789   1.084   2.151  10.764  1.8842  0.4105 -1.2346
   43MOL0     H 5790   0.877   2.174  10.868 -1.7051 -1.1295 -1.2016
   43MOL0     H 5791   0.150   1.971  10.361  0.0414  2.1657 -1.3410
   43MOL0     H 5792   0.386   1.929  10.310  0.7128 -0.0036 -0.5476
   43MOL0     H 5793   0.689   1.837  10.034 -1.7406 -1.4516  0.4855
   43MOL0     H 5794   0.939   1.820   9.956 -1.1909  2.0885  2.2682
   43MOL0     H 5795   1.148   1.433  10.042 -0.3798 -0.6915  0.4266
   43MOL0     H 5796   1.086   1.389   9.877 -1.7722  1.4555  0.1951
   43MOL0     H 5797   1.264   1.498   9.761  0.9223 -0.1749 -0.6225
   43MOL0     H 5798   1.335   1.390   9.882  3.0015  1.9366  0.1528
   43MOL0     H 5799   1.349   1.597  10.028  0.5258 -1.3641  0.3350
   43MOL0     H 5800   1.297   1.682   9.885 -1.3809 -1.3437  2.0535
   43MOL0     H 5801   1.539   1.705   9.905 -2.6011  0.9267  0.7544
   43MOL0     H 5802   1.509   1.618   9.757 -0.2838  0.9161  0.7551
   43MOL0     H 5803   1.712   1.328   9.984  1.1264 -0.1845 -0.1953
   43MOL0     H 5804   0.925   1.398  10.013  0.1780 -0.1268  0.7434
   43MOL0     H 5805   0.698   1.408  10.080  2.2653 -0.4993  1.5151
   44MOL0     O 5806   4.225  10.141  11.140 -0.4726  0.8051  0.2925
   44MOL0     C 5807   4.316  10.223  11.116  0.3812 -0.0003  0.8404
   44MOL0     O 5808   4.301  10.352  11.076  0.4021  0.2999 -0.2431
   44MOL0     C 5809   4.179  10.410  11.113 -1.0608 -0.5384  0.5684
   44MOL0     C 5810   4.100  10.456  11.006 -0.2018 -0.2083  0.8073
   44MOL0     C 5811   3.978  10.518  11.040 -0.1890  0.2224  0.2511
   44MOL0     C 5812   3.938  10.539  11.180 -0.5654  0.7976 -0.0321
   44MOL0     O 5813   3.810  10.582  11.197 -0.3944  0.0592 -0.4002
   44MOL0     C 5814   3.762  10.613  11.335 -0.2725 -0.2986  0.2205
   44MOL0     C 5815   3.633  10.696  11.337  0.1365  0.1891  1.6664
   44MOL0     C 5816   3.517  10.619  11.266 -0.9897 -0.2029 -0.9245
   44MOL0     C 5817   3.450  10.523  11.368  0.0433  0.2374 -0.0137
   44MOL0     C 5818   3.318  10.457  11.328 -0.5509  0.1164 -0.0870
   44MOL0     C 5819   3.210  10.535  11.256  0.9176 -0.7737  0.4194
   44MOL0     C 5820   3.072  10.462  11.261 -0.4146 -0.0951  0.2454
   44MOL0     C 5821   3.082  10.313  11.221 -0.2112  0.4600 -0.5146
   44MOL0     N 5822   2.959  10.235  11.257  0.0184 -0.0449  0.1441
   44MOL0     C 5823   2.839  10.250  11.202 -0.1211  0.1870  0.5887
   44MOL0     C 5824   2.759  10.182  11.290  1.1324 -0.2924 -0.2670
   44MOL0     C 5825   2.605  10.161  11.266 -0.5075  0.2635  0.0333
   44MOL0     C 5826   2.548  10.302  11.246  0.1197 -0.6620 -0.1838
   44MOL0     C 5827   2.405  10.333  11.294 -0.5749  0.2727  0.4151
   44MOL0     C 5828   2.325  10.414  11.183 -0.1249  0.8941 -0.0805
   44MOL0     O 5829   2.193  10.425  11.248  1.0330  0.0411  0.3484
   44MOL0     C 5830   2.082  10.426  11.169 -0.1277  0.0831  0.8918
   44MOL0     C 5831   2.083  10.449  11.033  0.4732  0.6562 -0.4267
   44MOL0     C 5832   1.963  10.463  10.971  0.7945  0.0027  0.2879
   44MOL0     C 5833   1.966  10.455  10.819  0.5869 -0.6694 -0.2801
   44MOL0     C 5834   1.842  10.469  11.031  0.7256  0.7359 -0.9794
   44MOL0     C 5835   1.715  10.511  10.978  0.9589 -0.1255  0.4562
   44MOL0     O 5836   1.600  10.501  11.053  0.7027  0.0066 -0.2197
   44MOL0     C 5837   1.471  10.514  11.017  0.2598 -0.4006  0.1383
   44MOL0     C 5838   1.422  10.556  10.892  0.1972 -1.0624 -0.1666
   44MOL0     C 5839   1.284  10.567  10.868  0.1496 -0.8335 -0.2942
   44MOL0     C 5840   1.191  10.548  10.971 -1.4879  0.2000 -0.4877
   44MOL0     O 5841   1.060  10.571  10.967 -0.4437 -0.7647  0.2519
   44MOL0     C 5842   1.002  10.604  10.841 -0.7326 -0.1366  0.1696
   44MOL0     C 5843   0.849  10.589  10.855  0.4222  0.2915  0.2977
   44MOL0     C 5844   0.774  10.719  10.894  0.1774  0.4779 -0.4562
   44MOL0     C 5845   0.624  10.685  10.916  0.2239  0.4831  0.4878
   44MOL0     C 5846   0.526  10.804  10.938  0.6057  0.6358  0.0055
   44MOL0     C 5847   0.382  10.746  10.972 -1.3710 -0.3992  0.9674
   44MOL0     C 5848   0.272  10.849  10.943 -0.4651 -0.6572 -0.5182
   44MOL0     C 5849   0.144  10.772  10.933  0.7163 -0.2656  0.1221
   44MOL0    Cl 5850   0.092  10.760  11.107  0.2772  0.2089 -0.0651
   44MOL0     C 5851   1.236  10.510  11.096 -0.1732  0.0776 -0.2801
   44MOL0     C 5852   1.374  10.494  11.118  0.7904 -0.0670 -0.1109
   44MOL0     O 5853   1.719  10.560  10.863  0.0273 -0.5837  0.0570
   44MOL0     C 5854   1.843  10.471  11.171 -0.0906 -0.0167 -0.0003
   44MOL0     C 5855   1.964  10.444  11.235 -0.4332 -0.8496  0.1364
   44MOL0     N 5856   2.831  10.125  11.394 -0.7590 -1.3999 -0.4060
   44MOL0     N 5857   2.954  10.154  11.364 -0.3817 -0.0731 -0.5825
   44MOL0     C 5858   4.030  10.497  11.283  0.9073  0.8126 -0.0858
   44MOL0     C 5859   4.147  10.431  11.249  0.1923 -0.2040  0.3799
   44MOL0     C 5860   4.449  10.161  11.119  0.4069  0.8807 -0.1376
   44MOL0     C 5861   4.564  10.227  11.076  0.0114 -0.4776  0.0907
   44MOL0     C 5862   4.692  10.174  11.090 -0.4578  0.3495 -0.2178
   44MOL0     C 5863   4.720  10.048  11.141  0.3207  0.4740 -0.1174
   44MOL0     O 5864   4.843   9.997  11.159  0.0896  0.2969 -0.9188
   44MOL0     C 5865   4.954  10.082  11.119 -0.5032 -0.3531  0.0530
   44MOL0     C 5866   5.074  10.025  11.192  0.5343  0.1498  0.7807
   44MOL0     C 5867   5.207  10.088  11.136  0.2668  0.4676  0.3015
   44MOL0     C 5868   5.329  10.011  11.192  0.1069  0.7012 -0.7847
   44MOL0     C 5869   5.446  10.077  11.135  0.5068  0.9742 -0.3576
   44MOL0     C 5870   5.539  10.143  11.089 -0.0813  0.2982  0.0602
   44MOL0     C 5871   4.602   9.974  11.168  0.5922 -0.2986 -0.3890
   44MOL0     C 5872   4.475  10.029  11.169  0.2712 -0.5439  0.5829
   44MOL0     H 5873   4.136  10.447  10.904 -1.6804 -1.8024  0.3763
   44MOL0     H 5874   3.910  10.545  10.960 -2.0263  0.7183  1.8906
   44MOL0     H 5875   3.754  10.521  11.393 -2.3290 -0.6486 -0.5360
   44MOL0     H 5876   3.842  10.665  11.387 -1.3443  0.2533  1.3615
   44MOL0     H 5877   3.618  10.711  11.445  0.4264 -0.4722  1.8060
   44MOL0     H 5878   3.645  10.793  11.288 -1.1118 -1.7165 -2.9847
   44MOL0     H 5879   3.446  10.685  11.215 -3.0913  0.8355  2.9747
   44MOL0     H 5880   3.561  10.565  11.182 -1.9408 -1.7020 -0.4983
   44MOL0     H 5881   3.532  10.457  11.396  0.4694 -0.5548 -2.8197
   44MOL0     H 5882   3.424  10.580  11.458 -0.6235 -1.4547  0.9089
   44MOL0     H 5883   3.348  10.375  11.261  1.0897  2.2870 -2.1959
   44MOL0     H 5884   3.281  10.419  11.423  0.4090 -0.7341 -0.0330
   44MOL0     H 5885   3.193  10.638  11.287 -3.2804 -1.5803  1.5498
   44MOL0     H 5886   3.244  10.539  11.152  2.1545 -0.1514  0.8357
   44MOL0     H 5887   3.030  10.459  11.362 -1.7598 -1.8657 -0.3173
   44MOL0     H 5888   3.007  10.520  11.196  1.1047 -0.5923 -1.8398
   44MOL0     H 5889   3.164  10.259  11.267 -2.0785 -1.8200  0.3691
   44MOL0     H 5890   3.107  10.315  11.114  1.0815 -0.4896 -0.2461
   44MOL0     H 5891   2.819  10.312  11.115  0.8627  1.1930  1.0445
   44MOL0     H 5892   2.579  10.091  11.186 -1.7250  2.8450 -1.9948
   44MOL0     H 5893   2.555  10.113  11.351 -0.8431  0.1803 -0.2116
   44MOL0     H 5894   2.554  10.322  11.138  0.4080  0.7797  0.0816
   44MOL0     H 5895   2.616  10.375  11.290 -0.4417  0.7494 -1.5632
   44MOL0     H 5896   2.410  10.381  11.392 -1.3781 -0.2645  0.7263
   44MOL0     H 5897   2.353  10.240  11.318 -1.4215  0.5750 -0.1991
   44MOL0     H 5898   2.326  10.365  11.085 -0.9166  2.8737 -1.1178
   44MOL0     H 5899   2.373  10.512  11.178 -0.1863  1.0373  1.6320
   44MOL0     H 5900   2.175  10.454  10.975  0.9982  1.8823  0.4677
   44MOL0     H 5901   1.962  10.551  10.767 -3.9211 -0.3988  0.2001
   44MOL0     H 5902   2.051  10.390  10.795 -0.5821 -4.1115  3.5926
   44MOL0     H 5903   1.874  10.404  10.791  1.3732 -0.9676 -2.5761
   44MOL0     H 5904   1.490  10.579  10.810  0.8619  2.7001  1.2139
   44MOL0     H 5905   1.248  10.586  10.768 -2.3209 -0.4139  0.6139
   44MOL0     H 5906   1.033  10.707  10.821 -0.2318 -0.8486 -3.1976
   44MOL0     H 5907   1.047  10.541  10.764 -0.1956 -1.4964  1.5428
   44MOL0     H 5908   0.811  10.547  10.761  2.9674  0.1678 -0.7395
   44MOL0     H 5909   0.829  10.516  10.934  0.6582  1.2079  1.2281
   44MOL0     H 5910   0.792  10.801  10.823  0.1200  0.0556 -0.9619
   44MOL0     H 5911   0.813  10.758  10.989  2.6699  1.1918 -1.6878
   44MOL0     H 5912   0.586  10.635  10.827  0.4216 -0.0374  0.6901
   44MOL0     H 5913   0.613  10.617  11.001  1.7466  0.7840  0.9481
   44MOL0     H 5914   0.525  10.864  10.847 -0.8467  1.2388  0.3970
   44MOL0     H 5915   0.570  10.864  11.019  2.4231  0.3282 -0.7008
   44MOL0     H 5916   0.364  10.663  10.905 -0.4523  0.3261 -0.2193
   44MOL0     H 5917   0.370  10.699  11.070 -0.3227  0.1160  1.3654
   44MOL0     H 5918   0.289  10.891  10.843 -2.0675  0.8194 -0.2197
   44MOL0     H 5919   0.267  10.936  11.010  3.5925 -1.4021  1.0558
   44MOL0     H 5920   0.156  10.671  10.894 -0.2886 -0.1916 -0.3889
   44MOL0     H 5921   0.062  10.829  10.890 -0.6247 -3.3008 -1.6515
   44MOL0     H 5922   1.165  10.472  11.168  1.6793  0.4591  1.8552
   44MOL0     H 5923   1.406  10.461  11.217 -0.5303 -1.7006 -0.1988
   44MOL0     H 5924   1.755  10.498  11.229  0.1055 -0.9916  0.7765
   44MOL0     H 5925   1.965  10.450  11.343  0.3345  2.6679  0.0684
   44MOL0     H 5926   4.002  10.502  11.388  0.5880 -0.2469 -0.1070
   44MOL0     H 5927   4.211  10.387  11.325  3.9304  1.5560 -1.4558
   44MOL0     H 5928   4.555  10.329  11.039  1.5634 -0.6470 -0.8306
   44MOL0     H 5929   4.776  10.235  11.057  1.2824 -0.9171  1.6025
   44MOL0     H 5930   4.963  10.073  11.010 -1.5945 -1.2089  0.0125
   44MOL0     H 5931   4.950  10.186  11.151 -0.9953 -0.9888  2.2051
   44MOL0     H 5932   5.083   9.919  11.169  1.8912 -0.4486  3.6038
   44MOL0     H 5933   5.067  10.035  11.301  0.3869  2.4720  0.6169
   44MOL0     H 5934   5.219  10.195  11.152  2.0128  0.4979 -0.9096
   44MOL0     H 5935   5.211  10.078  11.027  1.9126  0.6601  0.3212
   44MOL0     H 5936   5.325   9.907  11.158  1.7203  0.4959 -0.3986
   44MOL0     H 5937   5.330  10.026  11.300  1.2206 -1.0223 -0.5258
   44MOL0     H 5938   5.606  10.220  11.057 -1.2398  1.4548  0.3267
   44MOL0     H 5939   4.621   9.878  11.216  1.7250 -0.0872 -0.3668
   44MOL0     H 5940   4.398   9.964  11.209  0.6014 -0.3034  1.6351
   45MOL0     O 5941   6.821   2.653   7.633 -0.1870 -0.4961  0.5143
   45MOL0     C 5942   6.828   2.541   7.678  0.2780 -0.2472 -0.3949
   45MOL0     O 5943   6.721   2.455   7.682 -0.3529  0.6442  0.3057
   45MOL0     C 5944   6.601   2.502   7.628 -1.0074  0.1523 -0.2497
   45MOL0     C 5945   6.532   2.608   7.695 -0.8863  0.2416  0.5434
   45MOL0     C 5946   6.413   2.652   7.640 -0.1254 -0.7191 -0.3099
   45MOL0     C 5947   6.354   2.596   7.530  0.4965  0.1210 -0.2743
   45MOL0     O 5948   6.229   2.646   7.488  0.4935  0.2865  0.7990
   45MOL0     C 5949   6.180   2.587   7.364 -0.8694 -0.5258  0.1221
   45MOL0     C 5950   6.048   2.661   7.312  0.4287 -0.2197  0.2753
   45MOL0     C 5951   5.983   2.580   7.197  0.3644 -0.3859  0.2068
   45MOL0     C 5952   5.852   2.634   7.156 -0.1140  0.0183  0.0443
   45MOL0     C 5953   5.768   2.526   7.081  0.1543 -0.9214  0.1625
   45MOL0     C 5954   5.620   2.580   7.060  0.1734  0.0601 -0.4266
   45MOL0     C 5955   5.534   2.490   6.973  0.5450 -0.1206  0.4370
   45MOL0     C 5956   5.385   2.518   6.978 -0.2697 -0.4701  0.4165
   45MOL0     N 5957   5.328   2.449   6.865  0.2715  0.2094 -0.0813
   45MOL0     C 5958   5.260   2.334   6.883 -0.2133 -0.9705 -0.8008
   45MOL0     C 5959   5.256   2.278   6.759  0.1877 -0.5114  0.0166
   45MOL0     C 5960   5.205   2.147   6.715  0.5369  0.7286  1.4773
   45MOL0     C 5961   5.061   2.141   6.742 -0.1620 -0.3397  0.7828
   45MOL0     C 5962   4.982   2.037   6.661 -0.2396  0.7165 -0.3264
   45MOL0     C 5963   4.825   2.023   6.683  0.3222 -0.8375 -0.6828
   45MOL0     O 5964   4.772   2.152   6.665  0.4572  0.3075 -0.2706
   45MOL0     C 5965   4.637   2.161   6.705 -0.7985 -0.5361 -0.1212
   45MOL0     C 5966   4.586   2.131   6.834  0.1222  0.6263  0.4500
   45MOL0     C 5967   4.451   2.150   6.867 -0.2334  0.2885  0.2618
   45MOL0     C 5968   4.413   2.138   7.010  0.6833  0.1639 -0.9377
   45MOL0     C 5969   4.362   2.192   6.755 -1.1141 -1.1179 -0.5424
   45MOL0     C 5970   4.217   2.221   6.781  0.4348  0.6305 -0.0924
   45MOL0     O 5971   4.166   2.295   6.687  0.2620  0.0770 -0.0876
   45MOL0     C 5972   4.036   2.323   6.696 -0.1637 -0.2861  0.5310
   45MOL0     C 5973   3.948   2.251   6.617 -0.9202  0.1505  0.0951
   45MOL0     C 5974   3.808   2.269   6.630  0.3903 -0.5476  0.4437
   45MOL0     C 5975   3.755   2.362   6.720  0.1754 -0.3134 -0.6384
   45MOL0     O 5976   3.623   2.392   6.721  0.1560  0.0221 -0.1495
   45MOL0     C 5977   3.544   2.278   6.725  0.9377 -1.1519 -0.8633
   45MOL0     C 5978   3.424   2.312   6.821 -0.8129  0.3820  0.0432
   45MOL0     C 5979   3.326   2.196   6.825 -0.1495  0.1910  0.3472
   45MOL0     C 5980   3.189   2.242   6.863  0.8184  0.1668  0.1151
   45MOL0     C 5981   3.095   2.127   6.907  0.3870 -0.4894 -0.5918
   45MOL0     C 5982   2.958   2.179   6.962 -0.5458  0.1855 -0.0375
   45MOL0     C 5983   2.858   2.215   6.846  0.4716  0.2865  0.7192
   45MOL0     C 5984   2.796   2.087   6.790 -0.0438 -0.6549 -0.2203
   45MOL0    Cl 5985   2.678   2.018   6.902  0.0403 -0.2662 -0.1647
   45MOL0     C 5986   3.840   2.448   6.791 -0.4330  0.0415 -0.4639
   45MOL0     C 5987   3.978   2.418   6.786 -0.1851  0.5158 -0.0311
   45MOL0     O 5988   4.161   2.182   6.879 -0.3075 -0.1519 -0.1687
   45MOL0     C 5989   4.415   2.218   6.627  0.2457  0.2678  0.2384
   45MOL0     C 5990   4.553   2.202   6.605 -0.2623 -0.6231 -0.8029
   45MOL0     N 5991   5.318   2.361   6.664  0.2524 -0.1670 -0.2529
   45MOL0     N 5992   5.357   2.468   6.727 -0.2095  0.0801 -0.4503
   45MOL0     C 5993   6.426   2.493   7.465  0.9323 -0.1799 -0.8684
   45MOL0     C 5994   6.547   2.448   7.519  0.7076 -0.6227 -0.1970
   45MOL0     C 5995   6.958   2.498   7.737  0.0248  0.4729  0.8387
   45MOL0     C 5996   7.064   2.583   7.733 -0.0731 -0.0412 -0.0892
   45MOL0     C 5997   7.184   2.537   7.793  0.3513  0.0966 -0.1994
   45MOL0     C 5998   7.202   2.409   7.843  0.2442 -0.9330  0.4739
   45MOL0     O 5999   7.334   2.381   7.873 -0.3093  0.4985 -0.1901
   45MOL0     C 6000   7.350   2.272   7.963  0.2527 -0.2031  0.4408
   45MOL0     C 6001   7.497   2.263   7.990 -0.7611 -0.2272 -0.5755
   45MOL0     C 6002   7.557   2.387   8.059  0.7030 -0.1039 -0.0611
   45MOL0     C 6003   7.710   2.353   8.088  0.0808  0.0164  0.1870
   45MOL0     C 6004   7.761   2.483   8.125  0.0258 -0.2132  0.2720
   45MOL0     C 6005   7.818   2.588   8.153  0.3543  0.1649  0.1909
   45MOL0     C 6006   7.091   2.324   7.848  0.4672  0.6871  0.6436
   45MOL0     C 6007   6.974   2.367   7.796 -0.1700 -0.3232 -0.0810
   45MOL0     H 6008   6.571   2.638   7.792  0.1324 -1.5458  0.7342
   45MOL0     H 6009   6.343   2.720   7.688 -0.8339 -1.2042 -0.6239
   45MOL0     H 6010   6.255   2.602   7.286 -1.2158  0.1345 -0.0958
   45MOL0     H 6011   6.161   2.481   7.380 -1.3884 -0.3581  0.6698
   45MOL0     H 6012   5.973   2.682   7.388 -0.9171  1.2772 -1.3509
   45MOL0     H 6013   6.076   2.755   7.264 -2.3443  0.5394 -0.0308
   45MOL0     H 6014   6.043   2.606   7.110  0.5832  1.2240  0.7951
   45MOL0     H 6015   5.979   2.473   7.218  1.4190 -0.4338  0.2072
   45MOL0     H 6016   5.796   2.677   7.240  2.8408  3.8844  0.3114
   45MOL0     H 6017   5.870   2.723   7.095  0.4868 -0.4708 -0.5034
   45MOL0     H 6018   5.816   2.497   6.987  2.2619 -0.9846  1.2147
   45MOL0     H 6019   5.756   2.442   7.150 -2.0352  0.8892  2.1610
   45MOL0     H 6020   5.567   2.588   7.155  2.8867  1.2082  1.0782
   45MOL0     H 6021   5.627   2.675   7.006  1.5643  0.5528  0.5823
   45MOL0     H 6022   5.566   2.512   6.871  2.0292  2.1811  1.3171
   45MOL0     H 6023   5.542   2.382   6.988  0.7759 -0.5049 -2.0876
   45MOL0     H 6024   5.363   2.624   6.960 -1.6548 -0.4013  2.2445
   45MOL0     H 6025   5.342   2.487   7.073 -2.5310  1.3477  0.0906
   45MOL0     H 6026   5.207   2.292   6.968 -1.2283 -2.3203 -2.0433
   45MOL0     H 6027   5.235   2.131   6.611  1.3577  0.6157  1.7213
   45MOL0     H 6028   5.250   2.061   6.764 -2.4006 -0.9938  1.3566
   45MOL0     H 6029   5.010   2.237   6.729 -2.6608 -1.5412  1.0826
   45MOL0     H 6030   5.056   2.128   6.851  0.3353  2.7666  1.2715
   45MOL0     H 6031   5.031   1.941   6.683 -0.0913  0.2765 -2.3166
   45MOL0     H 6032   5.007   2.046   6.554  2.5896  0.5231  0.2446
   45MOL0     H 6033   4.803   1.973   6.778 -0.4244 -1.9052 -1.3861
   45MOL0     H 6034   4.787   1.951   6.610 -1.9870 -2.3019  1.7932
   45MOL0     H 6035   4.651   2.100   6.916 -1.3045 -0.3403  1.2631
   45MOL0     H 6036   4.500   2.125   7.075 -0.5250 -1.3476  0.4670
   45MOL0     H 6037   4.356   2.224   7.046 -0.1345  0.6786 -3.2487
   45MOL0     H 6038   4.355   2.047   7.023 -0.1910  0.8859  0.4038
   45MOL0     H 6039   3.997   2.189   6.543  2.5162 -0.7207  2.8546
   45MOL0     H 6040   3.751   2.215   6.555  1.0988  0.3727 -0.7844
   45MOL0     H 6041   3.507   2.252   6.626  0.9151 -0.2751 -1.0910
   45MOL0     H 6042   3.593   2.193   6.773  1.2977 -0.5895 -0.2070
   45MOL0     H 6043   3.456   2.324   6.925 -1.7171 -0.5067  0.4428
   45MOL0     H 6044   3.365   2.400   6.793 -0.3920  0.2131 -1.4587
   45MOL0     H 6045   3.359   2.121   6.897  0.0130 -0.5233 -0.4490
   45MOL0     H 6046   3.312   2.156   6.724  1.9628 -1.2151  0.5458
   45MOL0     H 6047   3.194   2.310   6.949  3.0118  0.4697 -0.1950
   45MOL0     H 6048   3.150   2.289   6.773  0.6210 -1.3284 -0.6146
   45MOL0     H 6049   3.148   2.085   6.993 -1.5023 -0.2111  0.7586
   45MOL0     H 6050   3.091   2.056   6.824 -0.3468 -0.3559 -0.6783
   45MOL0     H 6051   2.924   2.093   7.020  0.5350 -0.7874 -0.8072
   45MOL0     H 6052   2.965   2.265   7.030 -0.4605 -1.7981  2.6306
   45MOL0     H 6053   2.905   2.276   6.768  0.5871  0.5050  0.9568
   45MOL0     H 6054   2.779   2.270   6.898  2.8372  1.8298  2.9273
   45MOL0     H 6055   2.873   2.019   6.752  3.9366  3.9433 -1.3956
   45MOL0     H 6056   2.748   2.119   6.697  0.4459 -0.7710 -0.5176
   45MOL0     H 6057   3.787   2.521   6.851  0.9919 -0.1890  1.1325
   45MOL0     H 6058   4.042   2.487   6.841 -2.9819  1.7424  1.9074
   45MOL0     H 6059   4.356   2.262   6.548  1.7822  1.4060 -0.3305
   45MOL0     H 6060   4.601   2.242   6.517  1.4726 -2.4081 -0.7324
   45MOL0     H 6061   6.388   2.440   7.378  0.3778  1.6704 -1.8130
   45MOL0     H 6062   6.589   2.355   7.482  1.6518 -0.8167  1.2640
   45MOL0     H 6063   7.060   2.687   7.701 -1.7783 -0.0400  0.0611
   45MOL0     H 6064   7.267   2.606   7.798  0.6479 -0.3423  1.6538
   45MOL0     H 6065   7.290   2.281   8.055 -1.8405 -1.1899 -0.7488
   45MOL0     H 6066   7.315   2.182   7.910 -2.1050  1.0799 -0.3177
   45MOL0     H 6067   7.548   2.252   7.894  0.2323  0.0215 -0.0897
   45MOL0     H 6068   7.515   2.178   8.057 -2.8325  1.6724  2.6660
   45MOL0     H 6069   7.509   2.412   8.154 -1.1491 -1.3089 -0.6330
   45MOL0     H 6070   7.540   2.468   7.987 -1.6724 -0.8056 -0.3732
   45MOL0     H 6071   7.755   2.328   7.992 -1.8533  2.3567 -1.4681
   45MOL0     H 6072   7.728   2.269   8.156  1.6758 -0.6326 -0.9913
   45MOL0     H 6073   7.859   2.677   8.196 -0.4297  1.0371 -0.8367
   45MOL0     H 6074   7.101   2.231   7.902 -0.7493  1.0786  1.6143
   45MOL0     H 6075   6.891   2.297   7.799  0.2878 -0.9047 -0.6626
   46MOL0     O 6076  10.868   7.049   2.179  0.2157  0.8686  0.4291
   46MOL0     C 6077  10.891   6.938   2.130  0.8358 -0.0539 -0.8522
   46MOL0     O 6078  10.812   6.826   2.130 -0.0855  0.0925  0.3276
   46MOL0     C 6079  10.680   6.828   2.175  1.2862 -0.6667  0.8101
   46MOL0     C 6080  10.626   6.722   2.249 -1.4249  0.0953  0.5002
   46MOL0     C 6081  10.495   6.716   2.292  0.3201 -0.4058 -0.2344
   46MOL0     C 6082  10.419   6.827   2.268  0.6089  0.0613  0.3262
   46MOL0     O 6083  10.283   6.834   2.305 -0.0658 -0.4317  0.0045
   46MOL0     C 6084  10.219   6.723   2.377  0.7530  0.2639  0.1991
   46MOL0     C 6085  10.077   6.744   2.399  0.7096  0.2577  0.0136
   46MOL0     C 6086  10.017   6.802   2.277  0.2059 -0.5060  0.2689
   46MOL0     C 6087   9.856   6.795   2.259 -0.2177  0.6171 -0.6183
   46MOL0     C 6088   9.816   6.841   2.120  0.2319 -0.6606  0.1039
   46MOL0     C 6089   9.663   6.865   2.098  0.3515 -0.4954  0.5665
   46MOL0     C 6090   9.622   6.897   1.959  0.9966  0.3359  0.3100
   46MOL0     C 6091   9.468   6.914   1.948 -0.3205  0.4043  0.6088
   46MOL0     N 6092   9.418   7.025   2.032  0.0971 -0.4967  0.0185
   46MOL0     C 6093   9.354   7.023   2.158  0.1972  0.4658  1.8851
   46MOL0     C 6094   9.324   7.156   2.184 -0.7823 -0.1674 -0.7674
   46MOL0     C 6095   9.276   7.202   2.320 -0.2771  0.3703  0.5633
   46MOL0     C 6096   9.123   7.235   2.319  0.1966  0.3014 -0.9733
   46MOL0     C 6097   9.039   7.119   2.328 -0.5991  0.2359  0.1022
   46MOL0     C 6098   8.898   7.161   2.340  0.4729  0.1706  0.0116
   46MOL0     O 6099   8.822   7.038   2.319 -0.8258  0.3364  0.0469
   46MOL0     C 6100   8.692   7.044   2.280 -0.3983  0.1142  0.0029
   46MOL0     C 6101   8.600   7.141   2.333  0.5206 -0.6097  0.2547
   46MOL0     C 6102   8.472   7.157   2.286 -0.0152  0.3849 -0.0352
   46MOL0     C 6103   8.404   7.275   2.347  0.3902  1.4986  0.2652
   46MOL0     C 6104   8.420   7.056   2.200 -0.3574 -0.0764 -0.3363
   46MOL0     C 6105   8.288   7.067   2.140 -0.3924  0.0843 -0.7215
   46MOL0     O 6106   8.255   6.957   2.064  0.9534 -0.1379 -0.4684
   46MOL0     C 6107   8.126   6.913   2.058  0.2133 -0.2888  0.3550
   46MOL0     C 6108   8.018   6.989   2.016 -0.0314 -0.1863 -0.3239
   46MOL0     C 6109   7.894   6.943   1.989  0.4183  0.3650 -0.9449
   46MOL0     C 6110   7.864   6.806   2.017 -0.1393  1.3080  0.9819
   46MOL0     O 6111   7.732   6.772   1.999 -0.2171 -0.1271 -0.3105
   46MOL0     C 6112   7.710   6.636   1.963 -0.7930  0.2746  0.3834
   46MOL0     C 6113   7.562   6.617   1.982  0.8366 -0.5211  0.7782
   46MOL0     C 6114   7.485   6.670   1.860  0.0486 -0.4410  0.0098
   46MOL0     C 6115   7.377   6.584   1.801 -0.8625  0.1825  0.2258
   46MOL0     C 6116   7.410   6.432   1.800  0.7490  0.2218  0.3863
   46MOL0     C 6117   7.320   6.345   1.708  0.4492  0.0410  0.4866
   46MOL0     C 6118   7.362   6.202   1.732  0.1105  0.1377  0.1858
   46MOL0     C 6119   7.250   6.110   1.676 -0.7407 -0.8907  0.2997
   46MOL0    Cl 6120   7.119   6.096   1.801  0.1182  0.1577 -0.1532
   46MOL0     C 6121   7.970   6.723   2.060  0.4771 -0.1740  0.1589
   46MOL0     C 6122   8.097   6.776   2.081 -0.4323 -0.4668  0.0110
   46MOL0     O 6123   8.223   7.174   2.147  0.6382 -0.0239  0.0292
   46MOL0     C 6124   8.508   6.949   2.163 -0.7670  0.4666 -0.0038
   46MOL0     C 6125   8.643   6.945   2.200  1.0928  0.6878 -0.5679
   46MOL0     N 6126   9.354   7.233   2.077 -0.1269 -0.5706 -0.4685
   46MOL0     N 6127   9.418   7.160   1.987 -0.6921 -0.3124 -0.1553
   46MOL0     C 6128  10.468   6.936   2.206 -0.2985 -0.3255  0.6410
   46MOL0     C 6129  10.593   6.934   2.149 -0.1337  0.5816  0.8145
   46MOL0     C 6130  11.013   6.925   2.054 -0.2667  0.3256 -0.1639
   46MOL0     C 6131  11.091   7.034   2.018  0.3990  0.4084 -0.6145
   46MOL0     C 6132  11.201   7.022   1.934  0.3566  0.2792 -0.1377
   46MOL0     C 6133  11.242   6.896   1.889  0.1008  0.2653  0.0244
   46MOL0     O 6134  11.345   6.886   1.796  0.1180  0.3436  0.1884
   46MOL0     C 6135  11.452   6.790   1.828  0.2911  0.1403  0.2304
   46MOL0     C 6136  11.543   6.825   1.948  1.0351 -0.1172  0.1716
   46MOL0     C 6137  11.675   6.764   1.945  0.6682 -0.6783  0.7926
   46MOL0     C 6138  11.688   6.614   1.989  1.1606  0.2081 -0.1895
   46MOL0     C 6139  11.667   6.604   2.129 -0.5005 -0.7049 -0.4779
   46MOL0     C 6140  11.661   6.609   2.250 -0.3356 -0.1301  0.1004
   46MOL0     C 6141  11.173   6.781   1.935  0.8029  0.0981  0.2417
   46MOL0     C 6142  11.058   6.797   2.012 -0.2727 -0.2742 -0.1077
   46MOL0     H 6143  10.692   6.637   2.263  0.5573  1.5991  0.6817
   46MOL0     H 6144  10.471   6.620   2.336  0.1636 -0.3167 -0.1265
   46MOL0     H 6145  10.235   6.625   2.331 -3.5540 -1.1685  1.3211
   46MOL0     H 6146  10.274   6.724   2.471  0.2110  1.7372  0.5163
   46MOL0     H 6147  10.028   6.656   2.441  1.1123  0.5079  1.0330
   46MOL0     H 6148  10.072   6.813   2.484 -2.1945  1.0564 -0.7025
   46MOL0     H 6149  10.045   6.908   2.270  0.6637 -0.7321 -3.0972
   46MOL0     H 6150  10.061   6.751   2.191  0.8644  1.0545 -0.3532
   46MOL0     H 6151   9.822   6.693   2.282 -1.5997  0.6876 -2.1817
   46MOL0     H 6152   9.805   6.850   2.338 -0.5465 -0.9416  0.3062
   46MOL0     H 6153   9.871   6.935   2.103 -1.0619  0.3964  1.4832
   46MOL0     H 6154   9.856   6.784   2.036  1.4716  1.9377 -1.2183
   46MOL0     H 6155   9.617   6.771   2.131  0.4923 -0.1098  1.8901
   46MOL0     H 6156   9.636   6.940   2.173 -0.2405 -0.7418  0.6117
   46MOL0     H 6157   9.666   6.984   1.908 -3.2222  1.1088 -2.5879
   46MOL0     H 6158   9.646   6.809   1.899  0.0544  0.1950  0.1146
   46MOL0     H 6159   9.417   6.824   1.984 -2.2450  1.1456 -0.1479
   46MOL0     H 6160   9.438   6.918   1.843  0.3284  2.4775  0.4541
   46MOL0     H 6161   9.336   6.935   2.220  0.1096 -0.6761  0.2797
   46MOL0     H 6162   9.310   7.139   2.402  1.2865  0.9073  0.3634
   46MOL0     H 6163   9.323   7.300   2.336  0.8839  0.2616 -1.7476
   46MOL0     H 6164   9.094   7.296   2.232 -0.9760  1.3656  0.1288
   46MOL0     H 6165   9.092   7.282   2.413  1.8129 -3.9139  1.9535
   46MOL0     H 6166   9.086   7.049   2.398  3.6086 -0.6406 -3.1944
   46MOL0     H 6167   9.051   7.054   2.241 -3.1338  0.0814 -0.2149
   46MOL0     H 6168   8.879   7.245   2.274 -2.8915 -0.2265  0.2648
   46MOL0     H 6169   8.867   7.191   2.441  0.2924 -0.8924  0.2883
   46MOL0     H 6170   8.630   7.211   2.411  0.0624  3.3922 -2.8173
   46MOL0     H 6171   8.296   7.258   2.353  0.5029  0.2601 -0.8173
   46MOL0     H 6172   8.442   7.303   2.446  1.0883 -0.4192  0.5772
   46MOL0     H 6173   8.428   7.359   2.282  1.7401 -0.0031 -1.2673
   46MOL0     H 6174   8.023   7.096   2.001 -0.0854  0.1448  1.7953
   46MOL0     H 6175   7.812   7.005   1.954  1.8428  3.1400  0.3249
   46MOL0     H 6176   7.746   6.607   1.864 -0.2731 -4.0221  1.6218
   46MOL0     H 6177   7.766   6.569   2.029 -1.2595 -0.6459 -0.1412
   46MOL0     H 6178   7.543   6.511   2.001  2.5369 -1.2520 -1.1782
   46MOL0     H 6179   7.517   6.664   2.070  0.7550 -0.4248  0.6856
   46MOL0     H 6180   7.552   6.690   1.775  1.7219 -0.4033  1.2825
   46MOL0     H 6181   7.449   6.770   1.887  1.0453 -0.1568  0.3461
   46MOL0     H 6182   7.286   6.604   1.858 -1.6066  1.7292 -1.4002
   46MOL0     H 6183   7.350   6.612   1.699  2.0855 -0.9812 -0.9984
   46MOL0     H 6184   7.406   6.395   1.903 -1.1465  2.3559  1.1624
   46MOL0     H 6185   7.513   6.410   1.771  0.1995 -1.4682 -0.4204
   46MOL0     H 6186   7.213   6.366   1.725 -0.3024 -1.9236 -1.3499
   46MOL0     H 6187   7.336   6.366   1.602 -2.1017 -1.9501 -0.3853
   46MOL0     H 6188   7.370   6.201   1.841  2.4122  0.9733  0.0769
   46MOL0     H 6189   7.454   6.183   1.675 -0.4325  3.6440 -2.1883
   46MOL0     H 6190   7.286   6.011   1.648  3.4065  0.3334  0.6089
   46MOL0     H 6191   7.209   6.151   1.583  2.0520 -0.1896 -0.6981
   46MOL0     H 6192   7.956   6.620   2.092 -1.3992  0.0558  0.1772
   46MOL0     H 6193   8.173   6.724   2.137 -1.2888 -2.7848 -0.8790
   46MOL0     H 6194   8.476   6.865   2.103  2.7193 -1.9485  1.1978
   46MOL0     H 6195   8.715   6.871   2.167  1.4895  0.4308  0.8171
   46MOL0     H 6196  10.408   7.023   2.182 -3.6319 -2.7998 -0.7694
   46MOL0     H 6197  10.632   7.016   2.089 -1.5385 -0.7883 -2.2248
   46MOL0     H 6198  11.062   7.127   2.065 -1.5638 -1.6245  2.5744
   46MOL0     H 6199  11.263   7.102   1.894  1.4487  0.0951  1.1128
   46MOL0     H 6200  11.416   6.688   1.848 -1.8609  0.4810 -1.4803
   46MOL0     H 6201  11.512   6.792   1.736 -0.0770 -0.6228 -0.0378
   46MOL0     H 6202  11.481   6.807   2.037  1.1029 -2.1786 -0.1563
   46MOL0     H 6203  11.553   6.934   1.955 -0.4498 -0.0720  3.1359
   46MOL0     H 6204  11.741   6.831   2.001 -1.4773  1.1026  1.3518
   46MOL0     H 6205  11.708   6.785   1.843 -1.8194  2.2902  0.4569
   46MOL0     H 6206  11.785   6.565   1.975  0.7496 -0.6697 -0.0183
   46MOL0     H 6207  11.615   6.547   1.944 -0.5349  0.8727  1.4781
   46MOL0     H 6208  11.666   6.618   2.357 -2.0790  0.5761  0.1710
   46MOL0     H 6209  11.208   6.686   1.895  2.2322  0.4462  0.5914
   46MOL0     H 6210  11.004   6.709   2.047 -0.5524  0.5932  1.7684
   47MOL0     O 6211   7.392   1.858   2.589  0.4910  0.0791 -1.1620
   47MOL0     C 6212   7.404   1.910   2.703 -0.1955 -0.9707 -0.3931
   47MOL0     O 6213   7.306   1.973   2.765  0.7278 -0.2342 -0.2768
   47MOL0     C 6214   7.194   2.001   2.687  0.0448  0.8458  0.2379
   47MOL0     C 6215   7.068   1.954   2.724  0.5756 -0.2298 -0.1730
   47MOL0     C 6216   6.949   1.993   2.655 -0.2217  0.0037 -0.0925
   47MOL0     C 6217   6.957   2.074   2.537 -0.7971  0.3179 -0.6395
   47MOL0     O 6218   6.848   2.129   2.472 -0.4815 -0.0660  0.3570
   47MOL0     C 6219   6.715   2.102   2.515 -0.3538 -0.0322 -0.4025
   47MOL0     C 6220   6.614   2.166   2.426 -0.1485 -0.4303  0.1420
   47MOL0     C 6221   6.464   2.134   2.468 -0.2256 -0.2201  0.5435
   47MOL0     C 6222   6.355   2.201   2.378  0.0127 -0.1101  0.5283
   47MOL0     C 6223   6.215   2.158   2.414  0.5357 -0.1132 -0.0943
   47MOL0     C 6224   6.120   2.247   2.332  0.2153  0.0268  0.4321
   47MOL0     C 6225   5.982   2.245   2.391 -0.3666  0.4156 -0.3737
   47MOL0     C 6226   5.884   2.343   2.329 -0.9185 -0.1499  0.8227
   47MOL0     N 6227   5.751   2.286   2.317 -0.1352  0.0005  0.6432
   47MOL0     C 6228   5.661   2.300   2.418  0.5763  0.0494 -0.5174
   47MOL0     C 6229   5.541   2.268   2.354 -0.4826  0.7136 -0.5583
   47MOL0     C 6230   5.412   2.262   2.433  1.3040 -0.1813  0.2192
   47MOL0     C 6231   5.382   2.126   2.492 -0.5678 -0.5548 -0.2724
   47MOL0     C 6232   5.355   2.018   2.384 -0.1051  0.6266 -0.2566
   47MOL0     C 6233   5.202   2.016   2.342 -0.1707 -0.6404  0.3528
   47MOL0     O 6234   5.168   1.924   2.239 -0.1396 -0.1194 -0.8170
   47MOL0     C 6235   5.031   1.891   2.219 -0.1549  1.1713 -0.6492
   47MOL0     C 6236   5.004   1.793   2.124 -0.9209  0.2797 -0.2574
   47MOL0     C 6237   4.874   1.750   2.098 -0.3112  0.5417 -0.5885
   47MOL0     C 6238   4.854   1.646   1.993  0.3273  0.0332 -0.2387
   47MOL0     C 6239   4.768   1.809   2.161  0.8713 -0.2669  0.3010
   47MOL0     C 6240   4.621   1.780   2.137  0.3153  0.1526 -0.5783
   47MOL0     O 6241   4.533   1.826   2.232 -0.1102  0.7069 -0.1487
   47MOL0     C 6242   4.396   1.796   2.224 -0.4538  0.9847 -0.4563
   47MOL0     C 6243   4.334   1.683   2.289  0.2657  1.1890  0.8989
   47MOL0     C 6244   4.196   1.673   2.291  0.2968  1.1395  0.4386
   47MOL0     C 6245   4.112   1.762   2.223  0.1229  1.0847 -0.3897
   47MOL0     O 6246   3.974   1.754   2.219 -0.3118 -0.3773 -0.3074
   47MOL0     C 6247   3.918   1.678   2.331  0.2044 -0.4206 -0.4623
   47MOL0     C 6248   3.766   1.713   2.329 -0.8603  0.1963  0.5989
   47MOL0     C 6249   3.678   1.614   2.411  1.2136 -0.5514 -0.6383
   47MOL0     C 6250   3.547   1.671   2.446  0.4338  0.3929  0.3906
   47MOL0     C 6251   3.471   1.571   2.541  0.2454  0.1206 -0.6080
   47MOL0     C 6252   3.329   1.560   2.498  0.6563 -0.4003 -0.1374
   47MOL0     C 6253   3.276   1.448   2.592 -0.3777 -0.2609 -0.1983
   47MOL0     C 6254   3.130   1.416   2.572 -0.4513 -0.8164  0.3839
   47MOL0    Cl 6255   3.034   1.566   2.606 -0.3391  0.1557  0.5401
   47MOL0     C 6256   4.171   1.868   2.172 -0.0424  0.5296 -0.3391
   47MOL0     C 6257   4.310   1.885   2.171 -0.2179 -0.9526 -0.2917
   47MOL0     O 6258   4.584   1.717   2.039 -0.8433 -0.2644  0.0075
   47MOL0     C 6259   4.797   1.912   2.249 -0.2076  0.4209 -0.6722
   47MOL0     C 6260   4.929   1.942   2.285  1.1541  0.4842 -0.5756
   47MOL0     N 6261   5.558   2.238   2.223 -0.4421  0.5053  0.2608
   47MOL0     N 6262   5.684   2.252   2.199  0.6076  0.1065 -0.4160
   47MOL0     C 6263   7.090   2.095   2.491  0.6438 -0.3318  0.1621
   47MOL0     C 6264   7.211   2.069   2.558  1.0541 -0.0394  0.8539
   47MOL0     C 6265   7.530   1.890   2.776  0.1735  0.1732  0.2584
   47MOL0     C 6266   7.653   1.860   2.718  0.3741  0.1775  0.2131
   47MOL0     C 6267   7.768   1.856   2.792 -0.8299 -0.7128 -1.0027
   47MOL0     C 6268   7.765   1.892   2.924  0.3471 -0.1560  0.4309
   47MOL0     O 6269   7.882   1.887   2.989  0.0579  0.0289  0.3077
   47MOL0     C 6270   7.880   1.837   3.127 -0.0733  0.0200 -0.5956
   47MOL0     C 6271   8.017   1.792   3.173 -0.4496  0.4876  0.3036
   47MOL0     C 6272   8.008   1.692   3.294  0.2094 -0.1202 -0.0430
   47MOL0     C 6273   8.135   1.661   3.363 -0.5762  0.1681  1.0574
   47MOL0     C 6274   8.194   1.784   3.409 -0.5419  0.1423 -0.5614
   47MOL0     C 6275   8.253   1.888   3.448  0.0947  0.2281 -0.5094
   47MOL0     C 6276   7.648   1.933   2.985  1.2630 -0.1839  0.0480
   47MOL0     C 6277   7.529   1.939   2.902  0.3732  0.4428  0.2885
   47MOL0     H 6278   7.060   1.909   2.823  0.3740  0.1983  0.0113
   47MOL0     H 6279   6.854   1.980   2.704  0.4191 -0.6902  1.0101
   47MOL0     H 6280   6.703   1.993   2.516  0.5881 -0.1505 -1.1231
   47MOL0     H 6281   6.705   2.132   2.620 -0.2402 -1.9011  0.1807
   47MOL0     H 6282   6.634   2.272   2.438  2.5853 -0.7569 -0.8050
   47MOL0     H 6283   6.631   2.143   2.321 -0.7662  0.7075 -0.2171
   47MOL0     H 6284   6.454   2.025   2.463  0.6286 -0.2348 -1.5039
   47MOL0     H 6285   6.445   2.166   2.571 -1.0431 -1.9323  0.9795
   47MOL0     H 6286   6.362   2.309   2.392 -0.9976  0.5488 -3.0222
   47MOL0     H 6287   6.366   2.178   2.272  0.8585 -0.6486  0.7195
   47MOL0     H 6288   6.205   2.053   2.387  1.0646 -0.6115  1.5445
   47MOL0     H 6289   6.199   2.165   2.522  5.1948 -1.1271  0.8582
   47MOL0     H 6290   6.152   2.351   2.322 -1.8152  0.6629  0.1042
   47MOL0     H 6291   6.128   2.208   2.230  1.8531 -1.9859  1.2484
   47MOL0     H 6292   5.953   2.140   2.400  1.1394  0.1679  3.1059
   47MOL0     H 6293   5.986   2.272   2.497 -1.0422 -1.7046  0.2300
   47MOL0     H 6294   5.932   2.367   2.234 -0.1413 -0.9915  1.0030
   47MOL0     H 6295   5.885   2.436   2.388  2.2373  0.6594 -0.3417
   47MOL0     H 6296   5.676   2.311   2.525  0.0122 -4.3270  0.2321
   47MOL0     H 6297   5.401   2.345   2.503 -1.3171  0.9086 -1.3188
   47MOL0     H 6298   5.333   2.277   2.358  1.0756 -3.7874 -0.4631
   47MOL0     H 6299   5.288   2.147   2.543 -1.0105 -2.5115 -0.2063
   47MOL0     H 6300   5.456   2.095   2.566  2.2024  3.8980 -0.8007
   47MOL0     H 6301   5.370   1.916   2.419 -4.0108 -0.1186 -0.2635
   47MOL0     H 6302   5.424   2.046   2.303  0.7853 -1.2827 -0.2156
   47MOL0     H 6303   5.182   2.119   2.311 -1.4271 -1.1607 -0.6702
   47MOL0     H 6304   5.143   1.994   2.432  0.7498  1.5453  1.5793
   47MOL0     H 6305   5.093   1.743   2.086 -0.2557  0.9950  0.3103
   47MOL0     H 6306   4.800   1.686   1.907 -1.0260  0.5864  0.8324
   47MOL0     H 6307   4.950   1.612   1.954  0.4801  1.7989 -1.5215
   47MOL0     H 6308   4.798   1.565   2.041 -0.4153  0.5798 -0.1799
   47MOL0     H 6309   4.396   1.621   2.354 -0.9774 -2.2240 -0.9293
   47MOL0     H 6310   4.165   1.587   2.350  2.8283 -1.6596 -2.0090
   47MOL0     H 6311   3.932   1.570   2.318  0.2066 -0.4445 -0.2673
   47MOL0     H 6312   3.957   1.715   2.427  1.1248  1.6539 -1.5744
   47MOL0     H 6313   3.758   1.819   2.355 -0.4586  0.4976 -0.4476
   47MOL0     H 6314   3.741   1.708   2.223 -1.4263  1.1593  0.6781
   47MOL0     H 6315   3.727   1.587   2.505  2.6788  0.2029 -1.1569
   47MOL0     H 6316   3.666   1.518   2.359  1.0654 -1.4683  1.0141
   47MOL0     H 6317   3.556   1.769   2.495  2.4484  0.3827  0.1011
   47MOL0     H 6318   3.493   1.687   2.352 -1.4533 -0.4400  1.2799
   47MOL0     H 6319   3.482   1.598   2.646 -1.1592 -1.1988 -0.0878
   47MOL0     H 6320   3.526   1.479   2.518 -0.6967 -0.7378  0.4417
   47MOL0     H 6321   3.286   1.660   2.501 -0.9087 -1.0384 -0.6206
   47MOL0     H 6322   3.328   1.533   2.391  0.0164  2.4181 -0.9121
   47MOL0     H 6323   3.286   1.477   2.698 -1.3187  0.5195 -0.3039
   47MOL0     H 6324   3.329   1.356   2.569  0.0322 -0.2466  0.6405
   47MOL0     H 6325   3.103   1.339   2.645 -0.4018  0.4664  1.7890
   47MOL0     H 6326   3.115   1.379   2.470  1.7644 -0.4610 -0.1205
   47MOL0     H 6327   4.109   1.941   2.121 -0.8405 -0.5992 -1.0302
   47MOL0     H 6328   4.357   1.965   2.116 -0.5799 -2.2831 -2.6850
   47MOL0     H 6329   4.715   1.966   2.296  0.1684 -0.8620  1.5800
   47MOL0     H 6330   4.930   2.018   2.363  0.6500 -1.9716  1.9800
   47MOL0     H 6331   7.107   2.150   2.399  0.3678 -0.9946 -0.2904
   47MOL0     H 6332   7.308   2.088   2.512  0.0930  0.8692 -0.9009
   47MOL0     H 6333   7.668   1.824   2.617  0.7656 -0.2926  0.4359
   47MOL0     H 6334   7.861   1.823   2.746  0.7647  2.1355 -0.0466
   47MOL0     H 6335   7.845   1.908   3.203 -0.9727 -0.5780 -0.4351
   47MOL0     H 6336   7.806   1.756   3.126 -2.0813  1.7758 -0.4477
   47MOL0     H 6337   8.079   1.882   3.187  2.9157 -1.8094  1.5376
   47MOL0     H 6338   8.070   1.732   3.098 -0.5705  1.6191 -0.7198
   47MOL0     H 6339   7.960   1.601   3.259 -2.2776 -0.0897  2.8358
   47MOL0     H 6340   7.941   1.728   3.373  0.8650  1.7195 -0.2754
   47MOL0     H 6341   8.208   1.625   3.289 -0.0953  1.6414  0.7859
   47MOL0     H 6342   8.127   1.594   3.449  4.4747 -1.3162  0.7118
   47MOL0     H 6343   8.302   1.974   3.489  1.6302 -0.5400 -0.6640
   47MOL0     H 6344   7.647   1.972   3.086  0.2663 -1.5626  0.6013
   47MOL0     H 6345   7.435   1.964   2.951  0.8300  0.4046  1.2131
   48MOL0     O 6346   7.609   4.978   9.202 -0.0189 -0.0991  0.0872
   48MOL0     C 6347   7.628   4.920   9.308 -0.6461  0.8334 -0.4260
   48MOL0     O 6348   7.532   4.872   9.390 -0.3805  0.0601  0.2936
   48MOL0     C 6349   7.416   4.839   9.338  0.7845 -0.7985 -0.6332
   48MOL0     C 6350   7.370   4.704   9.346  0.4269 -0.2269  0.2043
   48MOL0     C 6351   7.237   4.676   9.301 -0.3505 -0.1490 -0.5464
   48MOL0     C 6352   7.156   4.782   9.257 -0.0278  0.7124 -0.0213
   48MOL0     O 6353   7.026   4.760   9.206  0.2587 -0.2671  0.0648
   48MOL0     C 6354   6.953   4.642   9.246  0.2072  0.1871  0.1515
   48MOL0     C 6355   6.814   4.630   9.178  0.3160  0.0372  1.0728
   48MOL0     C 6356   6.737   4.509   9.229  0.4765  0.6281  0.3865
   48MOL0     C 6357   6.606   4.473   9.146 -1.2012  0.2146 -0.5338
   48MOL0     C 6358   6.653   4.433   9.006 -0.3520  0.5567 -0.4118
   48MOL0     C 6359   6.545   4.349   8.940 -0.1689  0.3554  0.1011
   48MOL0     C 6360   6.596   4.302   8.801 -0.3056 -0.5481  0.1883
   48MOL0     C 6361   6.591   4.413   8.703 -0.3389 -0.5093  0.2275
   48MOL0     N 6362   6.454   4.460   8.663  0.9073  0.2615 -0.1434
   48MOL0     C 6363   6.337   4.407   8.712  0.0118 -0.6589  0.5011
   48MOL0     C 6364   6.250   4.507   8.681  0.9300 -0.5308 -0.0965
   48MOL0     C 6365   6.103   4.516   8.720 -1.6155 -0.7127  0.1055
   48MOL0     C 6366   6.011   4.585   8.623  0.1880 -0.0515 -0.8206
   48MOL0     C 6367   6.011   4.740   8.662  0.6445  0.0382 -0.6615
   48MOL0     C 6368   5.952   4.824   8.542 -0.3038  1.0850 -0.4814
   48MOL0     O 6369   5.859   4.751   8.466  0.2140  0.6092  0.4153
   48MOL0     C 6370   5.725   4.795   8.477 -0.0439  0.3816 -0.5092
   48MOL0     C 6371   5.665   4.816   8.608 -0.4003  0.4306 -0.0468
   48MOL0     C 6372   5.538   4.871   8.606  0.3402  1.0559  0.9912
   48MOL0     C 6373   5.481   4.908   8.747  0.5781  0.0207  0.5925
   48MOL0     C 6374   5.469   4.886   8.481 -0.0822 -0.7848 -0.5285
   48MOL0     C 6375   5.332   4.939   8.481  0.2734 -0.5888 -0.0588
   48MOL0     O 6376   5.300   5.030   8.582  0.0198  0.1485  0.5571
   48MOL0     C 6377   5.169   5.073   8.586 -0.9668 -0.0433 -0.0307
   48MOL0     C 6378   5.136   5.204   8.564  0.1709  0.3044  0.1121
   48MOL0     C 6379   5.010   5.246   8.594  0.4295  0.5173  0.3192
   48MOL0     C 6380   4.914   5.158   8.651  0.3443  0.1125 -0.3632
   48MOL0     O 6381   4.778   5.193   8.651 -0.0034 -0.8842 -0.1649
   48MOL0     C 6382   4.698   5.170   8.769  0.5905 -0.3111  0.5494
   48MOL0     C 6383   4.553   5.207   8.743  0.5336 -0.0230  0.9315
   48MOL0     C 6384   4.475   5.214   8.880 -1.0235 -0.2577  0.5909
   48MOL0     C 6385   4.315   5.217   8.872  0.4708  0.3693 -0.7460
   48MOL0     C 6386   4.257   5.314   8.771 -0.5803 -0.1287 -0.8910
   48MOL0     C 6387   4.112   5.302   8.754  1.2043  0.0027 -0.3797
   48MOL0     C 6388   4.067   5.172   8.683 -0.4500  0.0794  0.0491
   48MOL0     C 6389   3.924   5.164   8.653 -0.6773 -0.1720  0.1120
   48MOL0    Cl 6390   3.873   4.995   8.614  0.1868  0.0424  0.0918
   48MOL0     C 6391   4.953   5.027   8.671  1.1250  0.1997  0.5107
   48MOL0     C 6392   5.077   4.984   8.636  0.9042 -0.1658 -0.2986
   48MOL0     O 6393   5.254   4.914   8.389 -0.6472  0.4703 -0.2532
   48MOL0     C 6394   5.528   4.843   8.362  0.2958 -0.4854 -0.5515
   48MOL0     C 6395   5.651   4.794   8.367 -0.2700  0.6070 -0.3209
   48MOL0     N 6396   6.310   4.621   8.637  0.2738  0.4548  0.0224
   48MOL0     N 6397   6.428   4.587   8.612 -0.4777  0.6837 -0.4626
   48MOL0     C 6398   7.201   4.912   9.244  0.3597  0.3278 -0.1028
   48MOL0     C 6399   7.331   4.942   9.286  0.1189  0.7896  0.3473
   48MOL0     C 6400   7.760   4.908   9.360  0.1926 -0.5862 -0.3434
   48MOL0     C 6401   7.796   4.817   9.460  0.0077  0.3359  0.0667
   48MOL0     C 6402   7.926   4.810   9.510 -0.2853  0.4373 -0.3787
   48MOL0     C 6403   8.020   4.920   9.484  0.9755  0.7070 -0.0092
   48MOL0     O 6404   8.150   4.920   9.548  0.0740  0.1009 -0.0715
   48MOL0     C 6405   8.251   5.007   9.499 -0.0702  0.3064  0.0610
   48MOL0     C 6406   8.317   4.988   9.355 -0.0385 -0.6405 -0.1574
   48MOL0     C 6407   8.375   4.849   9.328 -1.2691  0.6540  0.4147
   48MOL0     C 6408   8.458   4.862   9.200 -0.6018 -0.0393  1.0345
   48MOL0     C 6409   8.515   4.733   9.165 -0.3965  0.6234  0.4505
   48MOL0     C 6410   8.558   4.624   9.120 -0.5950  0.0082  0.0428
   48MOL0     C 6411   7.974   5.019   9.391 -0.5120 -0.6093  0.1584
   48MOL0     C 6412   7.848   5.017   9.334  0.0659 -0.4714 -0.3974
   48MOL0     H 6413   7.446   4.634   9.378  0.9486 -0.7971 -2.1476
   48MOL0     H 6414   7.195   4.577   9.308 -0.1743 -0.1505  0.8401
   48MOL0     H 6415   7.002   4.546   9.226  0.9366  0.4295  0.7396
   48MOL0     H 6416   6.939   4.642   9.355  1.0890 -1.3158  0.2961
   48MOL0     H 6417   6.751   4.719   9.189  0.3047 -0.1595  2.8872
   48MOL0     H 6418   6.825   4.617   9.070 -1.2455  3.5016  0.3602
   48MOL0     H 6419   6.803   4.422   9.231 -1.1356 -0.6338  0.9994
   48MOL0     H 6420   6.714   4.524   9.335  3.4289 -2.0156  1.5352
   48MOL0     H 6421   6.566   4.388   9.202 -1.7046  0.5402 -0.3906
   48MOL0     H 6422   6.533   4.554   9.145 -0.6301  0.7958  0.8103
   48MOL0     H 6423   6.679   4.515   8.938 -1.9120  1.2930 -0.1565
   48MOL0     H 6424   6.747   4.378   9.018  0.3456  1.9452  0.8056
   48MOL0     H 6425   6.522   4.264   9.005  2.7379 -1.3722 -0.9136
   48MOL0     H 6426   6.457   4.410   8.922  0.5873  0.6409 -3.2833
   48MOL0     H 6427   6.703   4.283   8.813 -0.2458  0.4574  1.6071
   48MOL0     H 6428   6.547   4.215   8.757 -2.6394  0.5293  0.4946
   48MOL0     H 6429   6.642   4.385   8.611  1.7829 -1.3022  1.5736
   48MOL0     H 6430   6.650   4.499   8.737 -1.3714 -0.3718  1.7934
   48MOL0     H 6431   6.312   4.316   8.765  1.4246 -1.1729  0.3309
   48MOL0     H 6432   6.064   4.414   8.729  0.3122 -1.3169  3.6578
   48MOL0     H 6433   6.097   4.562   8.819  3.0513 -1.5421  1.0094
   48MOL0     H 6434   5.914   4.541   8.649  0.6876  0.0934  1.5125
   48MOL0     H 6435   6.045   4.568   8.521 -0.5416 -0.4920 -0.9949
   48MOL0     H 6436   6.112   4.770   8.691  0.7100  1.1846 -1.9664
   48MOL0     H 6437   5.956   4.763   8.754 -2.0727  1.2971 -2.4723
   48MOL0     H 6438   6.042   4.842   8.482  0.1991  0.4131  0.0397
   48MOL0     H 6439   5.916   4.921   8.576 -1.4118  0.0713  1.3921
   48MOL0     H 6440   5.715   4.796   8.702 -1.0110  1.2417  0.4636
   48MOL0     H 6441   5.376   4.877   8.745  0.4342  0.3164 -3.0618
   48MOL0     H 6442   5.536   4.852   8.824 -0.6492 -1.7128  0.2774
   48MOL0     H 6443   5.493   5.015   8.765  0.3152 -0.2118  2.3335
   48MOL0     H 6444   5.204   5.270   8.510 -0.5723 -0.3467 -1.7116
   48MOL0     H 6445   4.983   5.347   8.565 -1.5095 -0.0487  0.0048
   48MOL0     H 6446   4.702   5.068   8.808  0.4878 -0.1825  0.9041
   48MOL0     H 6447   4.731   5.239   8.847  0.0671 -0.8494  1.2616
   48MOL0     H 6448   4.545   5.304   8.693 -0.6768 -1.6110 -2.1493
   48MOL0     H 6449   4.506   5.139   8.672  0.0930  2.9989 -1.9124
   48MOL0     H 6450   4.515   5.300   8.935 -1.5465  1.7331 -1.9989
   48MOL0     H 6451   4.490   5.126   8.944 -0.9639 -1.7935 -1.4588
   48MOL0     H 6452   4.281   5.120   8.833 -0.1629 -0.4090  1.5805
   48MOL0     H 6453   4.275   5.239   8.971  0.4363  2.8297 -1.2362
   48MOL0     H 6454   4.301   5.294   8.672  0.4154  0.9083 -0.6721
   48MOL0     H 6455   4.297   5.410   8.803 -1.2611 -0.2122  0.2401
   48MOL0     H 6456   4.056   5.302   8.848  1.5221 -0.4104 -0.1879
   48MOL0     H 6457   4.079   5.390   8.699 -1.1644 -0.1626  0.6563
   48MOL0     H 6458   4.080   5.081   8.743 -3.1549  0.7777  1.8952
   48MOL0     H 6459   4.123   5.172   8.589  3.3388  0.7167  2.0795
   48MOL0     H 6460   3.912   5.232   8.567  2.0999  2.2531  1.4458
   48MOL0     H 6461   3.883   5.213   8.742 -0.0094 -0.7937  0.7810
   48MOL0     H 6462   4.885   4.951   8.708 -1.1694  1.3700 -1.0652
   48MOL0     H 6463   5.096   4.883   8.671 -0.0925 -0.9293 -1.8438
   48MOL0     H 6464   5.472   4.857   8.270 -0.2989  2.8667  0.1694
   48MOL0     H 6465   5.702   4.771   8.274  0.6194  2.5240 -0.3668
   48MOL0     H 6466   7.135   4.977   9.188  1.3489 -2.6004 -5.2903
   48MOL0     H 6467   7.365   5.045   9.283 -3.4951  2.1307  0.7568
   48MOL0     H 6468   7.723   4.748   9.501  0.0735 -0.5984 -1.3327
   48MOL0     H 6469   7.940   4.737   9.589 -7.5837 -0.3024  0.9219
   48MOL0     H 6470   8.217   5.111   9.501 -0.0858  0.3615 -1.6522
   48MOL0     H 6471   8.330   4.993   9.573 -1.3471 -1.9295  1.1041
   48MOL0     H 6472   8.401   5.055   9.370  0.5108 -1.4591  0.4827
   48MOL0     H 6473   8.243   5.006   9.275  0.8603  0.7793 -0.7113
   48MOL0     H 6474   8.299   4.777   9.297 -0.1696 -0.7297  0.8122
   48MOL0     H 6475   8.445   4.803   9.399  2.2228 -1.0638 -3.6932
   48MOL0     H 6476   8.527   4.947   9.201  1.1182 -1.3880  2.2831
   48MOL0     H 6477   8.386   4.873   9.118 -1.6729 -1.8820  1.6697
   48MOL0     H 6478   8.594   4.526   9.096  1.1820  0.2952  1.2620
   48MOL0     H 6479   8.039   5.102   9.371  0.1978 -1.8266 -3.1164
   48MOL0     H 6480   7.819   5.106   9.280  3.2388 -0.7337 -2.8315
   49MOL0     O 6481   9.246   2.676   0.586  0.1360  0.0490 -0.0820
   49MOL0     C 6482   9.185   2.716   0.481  0.2679  0.1437  0.3630
   49MOL0     O 6483   9.054   2.699   0.444 -0.1431  0.3286  0.5694
   49MOL0     C 6484   8.966   2.671   0.546 -0.0215 -0.4776 -0.0710
   49MOL0     C 6485   8.895   2.777   0.607  0.2881 -0.5635 -0.6105
   49MOL0     C 6486   8.821   2.749   0.721 -0.5022 -0.3091 -0.3805
   49MOL0     C 6487   8.788   2.609   0.752 -0.5419 -0.9969  0.6994
   49MOL0     O 6488   8.700   2.586   0.848 -0.4744  0.0786  0.5619
   49MOL0     C 6489   8.627   2.464   0.841  0.4734  0.2124  0.1103
   49MOL0     C 6490   8.490   2.486   0.908  0.4082  0.1642 -0.3437
   49MOL0     C 6491   8.383   2.378   0.870 -0.0774 -0.6663  0.2680
   49MOL0     C 6492   8.261   2.389   0.957 -0.2219 -0.2796  0.1497
   49MOL0     C 6493   8.228   2.278   1.049 -1.0374  0.6412 -0.0772
   49MOL0     C 6494   8.123   2.176   0.995 -0.3484 -0.4465 -0.0278
   49MOL0     C 6495   8.054   2.113   1.112 -0.0750 -0.8331 -0.7060
   49MOL0     C 6496   7.938   2.017   1.076 -0.1570  0.1022 -0.5825
   49MOL0     N 6497   7.824   2.084   1.023  0.4054  0.4269 -0.4352
   49MOL0     C 6498   7.749   2.181   1.075  0.4548 -0.0046 -0.3875
   49MOL0     C 6499   7.663   2.216   0.976 -0.5836  0.9074  0.0162
   49MOL0     C 6500   7.541   2.301   0.983 -0.6059  0.6853  0.3914
   49MOL0     C 6501   7.426   2.228   1.056  0.0271  0.3303 -0.8067
   49MOL0     C 6502   7.382   2.098   0.988 -0.3654 -0.3133  0.1448
   49MOL0     C 6503   7.347   2.124   0.843  0.5919 -0.4167 -0.0354
   49MOL0     O 6504   7.228   2.207   0.829 -0.1506  0.0950 -0.6437
   49MOL0     C 6505   7.106   2.170   0.878  0.5372  0.6899  0.0034
   49MOL0     C 6506   7.018   2.275   0.920 -0.6170 -0.1134 -0.2774
   49MOL0     C 6507   6.887   2.255   0.969  0.0151 -0.3434  0.7630
   49MOL0     C 6508   6.817   2.375   1.030  0.6003  0.2628  0.3243
   49MOL0     C 6509   6.840   2.122   0.970 -0.9939 -0.8680 -0.6080
   49MOL0     C 6510   6.715   2.088   1.039  0.2743  0.2119 -0.1305
   49MOL0     O 6511   6.725   1.973   1.118 -0.4749  0.3186 -0.0800
   49MOL0     C 6512   6.610   1.926   1.161  0.2367 -0.0277 -0.5445
   49MOL0     C 6513   6.543   1.995   1.261 -0.3459 -0.1928 -0.1421
   49MOL0     C 6514   6.419   1.945   1.299  0.9649 -0.0802  0.7622
   49MOL0     C 6515   6.371   1.821   1.263 -0.1914  0.8060  0.2584
   49MOL0     O 6516   6.248   1.767   1.297 -0.0679 -0.1356  0.5939
   49MOL0     C 6517   6.168   1.846   1.382 -0.7310 -0.1015 -0.0127
   49MOL0     C 6518   6.054   1.750   1.426 -0.1414 -0.8915  0.1561
   49MOL0     C 6519   5.983   1.816   1.550 -0.0939  0.7294  0.0350
   49MOL0     C 6520   5.865   1.733   1.594  0.2481 -0.0476 -1.2799
   49MOL0     C 6521   5.789   1.818   1.697  0.0186  0.2593 -0.2177
   49MOL0     C 6522   5.832   1.809   1.847 -0.3650 -0.0917 -0.5722
   49MOL0     C 6523   5.753   1.926   1.931  0.3122  0.2593  0.1730
   49MOL0     C 6524   5.775   1.934   2.081  0.0785 -0.9085  0.0389
   49MOL0    Cl 6525   5.951   1.954   2.133 -0.1497  0.1979  0.1431
   49MOL0     C 6526   6.454   1.746   1.180 -0.0207  0.4309  0.3999
   49MOL0     C 6527   6.569   1.800   1.127 -0.5537 -0.3811 -0.0417
   49MOL0     O 6528   6.614   2.146   1.006  0.3377 -0.0516  0.4280
   49MOL0     C 6529   6.928   2.019   0.933 -0.4965  0.4718 -0.2166
   49MOL0     C 6530   7.059   2.037   0.889 -0.0953 -0.6029  0.2739
   49MOL0     N 6531   7.691   2.145   0.856  0.1179  0.6020  0.0756
   49MOL0     N 6532   7.793   2.072   0.888 -0.1703 -0.0449 -0.2063
   49MOL0     C 6533   8.838   2.503   0.672  1.3182  0.2043  1.0306
   49MOL0     C 6534   8.930   2.535   0.572 -0.9452 -0.1279 -0.3876
   49MOL0     C 6535   9.265   2.791   0.381 -0.4253  0.4188  0.1805
   49MOL0     C 6536   9.388   2.836   0.415 -0.6963 -0.2465  0.2756
   49MOL0     C 6537   9.462   2.912   0.328  0.0350  0.2228 -0.6186
   49MOL0     C 6538   9.417   2.952   0.213  0.6385 -0.6904 -0.5170
   49MOL0     O 6539   9.496   3.040   0.142  0.2117 -0.0590  0.3774
   49MOL0     C 6540   9.447   3.088   0.018  0.8115 -0.5974  0.0457
   49MOL0     C 6541   9.553   3.143  -0.076  0.0127 -0.1996 -0.3776
   49MOL0     C 6542   9.616   3.045  -0.175  0.3191 -0.0853 -0.6087
   49MOL0     C 6543   9.629   3.098  -0.317 -0.7153 -1.1715  0.9224
   49MOL0     C 6544   9.511   3.147  -0.386 -0.6983  0.3635 -0.4817
   49MOL0     C 6545   9.420   3.205  -0.434  0.4180 -0.4887  0.8970
   49MOL0     C 6546   9.287   2.917   0.181  0.2833  0.7028  0.5008
   49MOL0     C 6547   9.213   2.824   0.260  0.3474 -0.1508  0.0400
   49MOL0     H 6548   8.925   2.877   0.578  1.1046 -0.3281  0.9651
   49MOL0     H 6549   8.774   2.830   0.775 -1.7078 -0.5131 -1.0622
   49MOL0     H 6550   8.594   2.433   0.741  1.6248  0.5746 -0.3881
   49MOL0     H 6551   8.673   2.380   0.895 -0.8333 -1.6400 -1.4891
   49MOL0     H 6552   8.499   2.471   1.016  0.8097  0.5490 -0.3213
   49MOL0     H 6553   8.460   2.589   0.888  0.5614  0.4841  0.9902
   49MOL0     H 6554   8.357   2.395   0.765 -1.3060  0.0365  0.6666
   49MOL0     H 6555   8.418   2.274   0.875  0.0387 -0.8570 -2.5975
   49MOL0     H 6556   8.266   2.477   1.022 -1.9799 -0.0008 -0.0357
   49MOL0     H 6557   8.175   2.422   0.898  0.1290  1.9985  0.8012
   49MOL0     H 6558   8.318   2.221   1.072  0.4953  2.1574 -1.9651
   49MOL0     H 6559   8.202   2.318   1.147  0.1341  0.1840  0.4434
   49MOL0     H 6560   8.039   2.229   0.949 -0.8757 -0.4991  0.8548
   49MOL0     H 6561   8.166   2.102   0.927 -0.1513 -1.7832  1.5009
   49MOL0     H 6562   8.125   2.060   1.176  1.9771 -0.4511 -2.5776
   49MOL0     H 6563   8.016   2.188   1.183  1.2491 -0.5410 -0.2783
   49MOL0     H 6564   7.913   1.950   1.159 -1.5710 -0.4304 -1.3998
   49MOL0     H 6565   7.980   1.958   0.993  0.8722 -0.9408  0.6287
   49MOL0     H 6566   7.754   2.220   1.176 -1.1894 -0.9319  0.0827
   49MOL0     H 6567   7.569   2.395   1.031 -1.2618  0.8065  0.5508
   49MOL0     H 6568   7.517   2.330   0.880 -0.6430  1.1974  0.5427
   49MOL0     H 6569   7.337   2.291   1.059  0.9847  1.7189  0.2330
   49MOL0     H 6570   7.448   2.208   1.162 -1.9322 -0.0178 -0.4258
   49MOL0     H 6571   7.295   2.069   1.048 -1.4155 -2.2982 -2.1712
   49MOL0     H 6572   7.460   2.025   1.008 -1.0793 -0.3004  3.5598
   49MOL0     H 6573   7.338   2.026   0.795 -0.7952 -0.6544  0.6727
   49MOL0     H 6574   7.424   2.168   0.779  0.4106  0.8585  0.5831
   49MOL0     H 6575   7.064   2.373   0.927  2.2714 -1.3876 -0.3519
   49MOL0     H 6576   6.844   2.463   0.972  0.0738 -0.5121 -1.1678
   49MOL0     H 6577   6.708   2.361   1.023  1.0071 -2.7235 -1.8407
   49MOL0     H 6578   6.848   2.384   1.135 -0.1499  1.0440  0.4932
   49MOL0     H 6579   6.564   2.085   1.317 -3.0182 -0.9726  2.4216
   49MOL0     H 6580   6.365   2.009   1.368  0.3590 -1.8113  1.9613
   49MOL0     H 6581   6.219   1.886   1.470  0.3481  3.1770 -1.9568
   49MOL0     H 6582   6.142   1.933   1.321  3.5025  0.6202 -1.0881
   49MOL0     H 6583   5.992   1.743   1.336  1.1793  0.6153 -0.9183
   49MOL0     H 6584   6.100   1.654   1.454 -1.2783 -1.6205 -0.3887
   49MOL0     H 6585   5.959   1.921   1.530 -0.6942  0.5202 -0.3574
   49MOL0     H 6586   6.046   1.820   1.639 -2.2449 -1.2691  1.7426
   49MOL0     H 6587   5.788   1.719   1.519 -0.6250 -1.9292 -0.1038
   49MOL0     H 6588   5.887   1.630   1.623  1.6892  0.3478 -0.8766
   49MOL0     H 6589   5.682   1.799   1.704 -0.7322  3.6650 -0.3618
   49MOL0     H 6590   5.795   1.922   1.663  1.3807 -0.2554 -1.6525
   49MOL0     H 6591   5.809   1.710   1.889  0.8911 -0.0905  0.1647
   49MOL0     H 6592   5.939   1.822   1.862 -0.1043 -2.5097  0.1201
   49MOL0     H 6593   5.648   1.896   1.925  0.2692  0.7059 -1.8591
   49MOL0     H 6594   5.789   2.020   1.889  1.2064  0.9335  2.3165
   49MOL0     H 6595   5.731   1.846   2.129 -0.2051 -1.0577 -0.4892
   49MOL0     H 6596   5.715   2.017   2.121  0.0512 -0.4173 -1.0067
   49MOL0     H 6597   6.424   1.642   1.167  3.1747 -0.6291  0.6268
   49MOL0     H 6598   6.631   1.739   1.062  3.5247  1.5010  1.7255
   49MOL0     H 6599   6.898   1.915   0.935 -1.2018  0.6516  2.5763
   49MOL0     H 6600   7.125   1.955   0.862 -1.6578 -0.9269 -3.0769
   49MOL0     H 6601   8.811   2.399   0.682 -1.0304  0.6530  0.1280
   49MOL0     H 6602   8.981   2.461   0.511 -0.4809 -0.4934  0.4231
   49MOL0     H 6603   9.425   2.808   0.513  0.3514 -1.4943 -0.4484
   49MOL0     H 6604   9.553   2.949   0.374 -1.0772  2.9342 -0.4426
   49MOL0     H 6605   9.396   3.008  -0.035 -0.1060  0.5737 -0.9025
   49MOL0     H 6606   9.369   3.163   0.038  0.8444 -0.8215  1.1107
   49MOL0     H 6607   9.636   3.187  -0.020 -0.2501 -1.2686  0.8806
   49MOL0     H 6608   9.500   3.219  -0.134 -1.8493 -1.0806  0.0880
   49MOL0     H 6609   9.551   2.957  -0.180 -0.1475  0.2939 -1.5292
   49MOL0     H 6610   9.716   3.015  -0.145  0.1537 -1.1030 -1.0190
   49MOL0     H 6611   9.674   3.027  -0.386 -1.7187 -0.7901 -0.1439
   49MOL0     H 6612   9.703   3.178  -0.313  0.7557 -2.3177 -1.3644
   49MOL0     H 6613   9.333   3.252  -0.476  0.9450  2.8492  3.1128
   49MOL0     H 6614   9.236   2.952   0.092  0.2961  0.0832  0.2426
   49MOL0     H 6615   9.120   2.785   0.221  0.1015 -2.1683  2.4444
   50MOL0     O 6616   8.830   9.246   4.194  0.2330 -0.1960  0.3341
   50MOL0     C 6617   8.813   9.287   4.078  0.3336  0.2726 -0.1347
   50MOL0     O 6618   8.692   9.295   4.021 -0.5136 -0.5795 -0.2535
   50MOL0     C 6619   8.577   9.326   4.090 -0.3990  0.0552  0.2582
   50MOL0     C 6620   8.458   9.314   4.017 -0.7358 -0.6766  0.8981
   50MOL0     C 6621   8.337   9.333   4.076 -0.1391  0.1507  0.0078
   50MOL0     C 6622   8.337   9.374   4.209  0.5415  0.0091 -0.2212
   50MOL0     O 6623   8.216   9.391   4.264 -0.2834  0.1051  0.0216
   50MOL0     C 6624   8.193   9.478   4.370 -1.0307 -0.1240 -0.7278
   50MOL0     C 6625   8.042   9.524   4.369 -0.8831 -0.2540 -0.4403
   50MOL0     C 6626   8.028   9.637   4.265 -0.0768  0.6428  0.5072
   50MOL0     C 6627   7.893   9.638   4.182 -0.5869 -0.1744 -0.2505
   50MOL0     C 6628   7.786   9.717   4.252 -0.1343 -0.4972 -0.5018
   50MOL0     C 6629   7.634   9.698   4.227  0.3809  0.0425  0.4403
   50MOL0     C 6630   7.551   9.827   4.249 -0.5824 -1.8677  0.0348
   50MOL0     C 6631   7.397   9.804   4.225  0.3676  0.8720  0.9241
   50MOL0     N 6632   7.333   9.940   4.234  0.4006  0.1697 -0.9665
   50MOL0     C 6633   7.275  10.012   4.128  1.0232 -0.5120  0.4042
   50MOL0     C 6634   7.224  10.122   4.177  0.3961  0.0722  0.2529
   50MOL0     C 6635   7.179  10.227   4.083  0.1338  0.7067  0.5575
   50MOL0     C 6636   7.033  10.269   4.117  0.4050 -0.0783 -0.3892
   50MOL0     C 6637   6.990  10.392   4.037 -0.7229  0.5076  0.5976
   50MOL0     C 6638   6.839  10.415   4.049 -0.3898 -0.2963 -0.8432
   50MOL0     O 6639   6.812  10.423   4.193 -0.3751 -0.5385 -0.5843
   50MOL0     C 6640   6.691  10.473   4.239 -0.1795  0.0739 -1.1278
   50MOL0     C 6641   6.666  10.461   4.379 -0.1366 -0.0318  1.0371
   50MOL0     C 6642   6.555  10.512   4.443  0.1376  0.3732  0.3530
   50MOL0     C 6643   6.545  10.480   4.596 -0.5281 -1.1306  0.1382
   50MOL0     C 6644   6.441  10.559   4.369 -1.0294 -0.4656  0.4481
   50MOL0     C 6645   6.311  10.596   4.427  0.0305 -0.4805 -0.4622
   50MOL0     O 6646   6.238  10.682   4.353 -0.7262 -0.2288  0.0858
   50MOL0     C 6647   6.115  10.717   4.391  0.0047  0.1909  0.1727
   50MOL0     C 6648   6.088  10.770   4.517  0.5526  0.3787  0.7538
   50MOL0     C 6649   5.957  10.831   4.530 -0.2219 -0.1312 -0.9930
   50MOL0     C 6650   5.865  10.845   4.427 -0.6379  0.0818  0.1671
   50MOL0     O 6651   5.738  10.905   4.442  0.0467 -0.3271  0.0870
   50MOL0     C 6652   5.712  10.993   4.556 -0.5214 -0.0813  0.3908
   50MOL0     C 6653   5.598  11.094   4.538  0.5261 -0.9278 -1.0107
   50MOL0     C 6654   5.549  11.191   4.645  0.5196 -0.0420  0.0222
   50MOL0     C 6655   5.446  11.282   4.578  0.5713 -0.0615  0.5627
   50MOL0     C 6656   5.296  11.232   4.573 -0.7405  0.2273  0.6618
   50MOL0     C 6657   5.209  11.334   4.508  0.4164  0.5599 -0.0562
   50MOL0     C 6658   5.062  11.289   4.523 -0.2824 -0.7155 -0.3319
   50MOL0     C 6659   4.974  11.369   4.433  0.4281  0.4812 -0.5825
   50MOL0    Cl 6660   4.808  11.327   4.491  0.2075 -0.3803  0.2075
   50MOL0     C 6661   5.898  10.791   4.299  0.0195  1.0838 -0.1451
   50MOL0     C 6662   6.022  10.715   4.286  0.1806 -0.7930  0.0555
   50MOL0     O 6663   6.268  10.534   4.527  0.2087 -0.9193  0.4139
   50MOL0     C 6664   6.459  10.566   4.225 -0.2422  0.1374  0.5705
   50MOL0     C 6665   6.581  10.520   4.164 -0.0817  0.5483 -0.8654
   50MOL0     N 6666   7.243  10.121   4.312 -0.4235 -0.3437 -0.2791
   50MOL0     N 6667   7.311  10.014   4.345 -0.4704  0.7138 -0.2281
   50MOL0     C 6668   8.454   9.405   4.282  0.1951 -0.2103 -0.4157
   50MOL0     C 6669   8.573   9.375   4.223 -0.1932 -0.6568 -0.0126
   50MOL0     C 6670   8.927   9.305   3.997  0.6688  0.2792  1.2601
   50MOL0     C 6671   8.917   9.283   3.861  0.7930  0.1690  0.3459
   50MOL0     C 6672   9.020   9.291   3.772 -0.1876 -0.0960  0.2684
   50MOL0     C 6673   9.144   9.335   3.810 -0.1743  0.4222  0.5127
   50MOL0     O 6674   9.256   9.338   3.725  0.5598 -0.0766 -0.2512
   50MOL0     C 6675   9.242   9.396   3.590  0.0648  0.1971  0.3748
   50MOL0     C 6676   9.314   9.306   3.483  0.4426 -0.1623  0.0041
   50MOL0     C 6677   9.459   9.273   3.510  0.2890  0.8989  0.2279
   50MOL0     C 6678   9.501   9.131   3.461  0.5875 -0.0784 -0.3803
   50MOL0     C 6679   9.643   9.130   3.439  0.4475  0.1108 -0.5497
   50MOL0     C 6680   9.763   9.142   3.428 -0.7148 -0.8842  0.4005
   50MOL0     C 6681   9.162   9.365   3.949 -0.2780 -0.1596 -0.1072
   50MOL0     C 6682   9.052   9.348   4.041 -0.2105  0.1805  0.1463
   50MOL0     H 6683   8.477   9.282   3.915 -1.0801  0.7748  0.3428
   50MOL0     H 6684   8.241   9.329   4.025  0.4344 -1.8019 -1.0364
   50MOL0     H 6685   8.198   9.427   4.467 -0.3643  0.2520 -0.5569
   50MOL0     H 6686   8.263   9.562   4.378 -0.9049 -0.3873  3.6224
   50MOL0     H 6687   7.978   9.437   4.352  0.1171 -0.9610 -0.6456
   50MOL0     H 6688   8.030   9.575   4.465  0.3129 -1.2500  0.2624
   50MOL0     H 6689   8.052   9.735   4.307  1.0810  0.1046  1.1277
   50MOL0     H 6690   8.103   9.620   4.188 -2.0023  0.1767 -1.3825
   50MOL0     H 6691   7.910   9.679   4.083 -0.9395  2.8652  0.8403
   50MOL0     H 6692   7.871   9.531   4.186  2.5502 -0.9185  2.3449
   50MOL0     H 6693   7.794   9.696   4.359 -0.3439  1.3982 -0.0807
   50MOL0     H 6694   7.808   9.824   4.244  1.4176 -0.6944  0.7748
   50MOL0     H 6695   7.624   9.677   4.120 -0.4130  0.7966  0.3534
   50MOL0     H 6696   7.583   9.613   4.273  1.0358  0.3913  1.8459
   50MOL0     H 6697   7.569   9.867   4.349  1.2300  0.5281 -1.1587
   50MOL0     H 6698   7.578   9.896   4.169 -0.5649 -2.7168 -0.7079
   50MOL0     H 6699   7.353   9.741   4.303  1.2288 -1.7988 -0.6111
   50MOL0     H 6700   7.374   9.758   4.128 -0.7812 -0.8683  1.9592
   50MOL0     H 6701   7.266   9.978   4.025 -0.1893  0.3701  0.1985
   50MOL0     H 6702   7.232  10.323   4.090 -0.1824  0.7855  2.0491
   50MOL0     H 6703   7.189  10.197   3.978 -0.1273  1.1830  0.3896
   50MOL0     H 6704   7.035  10.300   4.222  0.8157  1.2850 -0.7719
   50MOL0     H 6705   6.967  10.184   4.102 -0.4526  0.7728 -1.6301
   50MOL0     H 6706   7.020  10.373   3.934 -3.0723 -2.4059  0.3275
   50MOL0     H 6707   7.036  10.487   4.068 -0.2307 -0.1021  1.7791
   50MOL0     H 6708   6.787  10.331   4.004  0.7793 -0.6190 -1.6538
   50MOL0     H 6709   6.806  10.509   4.003 -0.3497  0.6635  0.9789
   50MOL0     H 6710   6.752  10.431   4.438  0.9855  0.8578 -0.0884
   50MOL0     H 6711   6.546  10.571   4.656 -3.1573 -0.0344 -1.3037
   50MOL0     H 6712   6.453  10.422   4.613 -1.4983 -0.1126 -1.4552
   50MOL0     H 6713   6.631  10.422   4.631  0.6349  0.4005 -0.0937
   50MOL0     H 6714   6.160  10.775   4.597  0.1097 -1.4542  1.3123
   50MOL0     H 6715   5.923  10.861   4.628 -0.9095  1.0380 -1.5757
   50MOL0     H 6716   5.682  10.936   4.644 -3.7411  1.3948  0.3823
   50MOL0     H 6717   5.796  11.057   4.584  0.1432 -1.3580  1.3853
   50MOL0     H 6718   5.635  11.152   4.453  1.5411 -1.2822 -0.8343
   50MOL0     H 6719   5.510  11.033   4.518  1.1413 -2.8224  1.4584
   50MOL0     H 6720   5.631  11.253   4.684 -0.1174 -0.0415  1.4423
   50MOL0     H 6721   5.493  11.141   4.725 -0.2526 -0.4863 -0.7870
   50MOL0     H 6722   5.443  11.377   4.632  0.1369 -0.1697  0.7368
   50MOL0     H 6723   5.468  11.302   4.473  3.3541  0.2356  1.1421
   50MOL0     H 6724   5.262  11.212   4.675 -1.7867  2.1400  0.7508
   50MOL0     H 6725   5.296  11.141   4.514 -2.2924  1.5726 -1.5776
   50MOL0     H 6726   5.225  11.422   4.571 -1.9910  0.0946  1.3182
   50MOL0     H 6727   5.242  11.344   4.405  0.2510  2.0058  0.0141
   50MOL0     H 6728   5.033  11.293   4.628 -0.8468 -2.2736 -0.4063
   50MOL0     H 6729   5.050  11.183   4.500 -1.5087 -0.9887  1.4074
   50MOL0     H 6730   4.985  11.344   4.327  0.6127  1.8798 -0.9216
   50MOL0     H 6731   4.998  11.476   4.432 -0.8627  0.7877 -0.4731
   50MOL0     H 6732   5.829  10.815   4.219 -0.3712  0.9663  0.1556
   50MOL0     H 6733   6.046  10.670   4.190 -0.7526 -1.7879  0.2710
   50MOL0     H 6734   6.372  10.601   4.171 -0.5589  1.3485  1.8022
   50MOL0     H 6735   6.603  10.534   4.058  0.5824 -0.8732 -0.9295
   50MOL0     H 6736   8.441   9.432   4.386 -2.3350 -0.9755 -0.4885
   50MOL0     H 6737   8.664   9.393   4.280 -0.4282 -0.6026  0.3529
   50MOL0     H 6738   8.823   9.250   3.818  0.8364  2.7937 -2.0479
   50MOL0     H 6739   9.012   9.254   3.670  1.6540  0.7302 -0.2206
   50MOL0     H 6740   9.135   9.411   3.576  0.1018  3.8328  2.7309
   50MOL0     H 6741   9.284   9.496   3.586 -2.6054  1.4042  0.5050
   50MOL0     H 6742   9.308   9.357   3.387  1.5821 -0.8457 -0.4460
   50MOL0     H 6743   9.258   9.212   3.490  0.1174  0.1076  4.4987
   50MOL0     H 6744   9.481   9.273   3.617  1.4335  4.2044  0.1000
   50MOL0     H 6745   9.526   9.348   3.467 -0.1939  1.8249  1.0663
   50MOL0     H 6746   9.450   9.112   3.367  1.3757 -1.1851 -0.6090
   50MOL0     H 6747   9.470   9.053   3.531 -2.2263  1.7626  0.5992
   50MOL0     H 6748   9.863   9.174   3.406 -1.7849  2.1594 -0.4877
   50MOL0     H 6749   9.261   9.397   3.980  0.7821 -0.4608 -2.8864
   50MOL0     H 6750   9.061   9.376   4.145  2.2956  2.0624 -0.4818
   51MOL0     O 6751   1.140   4.301   6.549  0.2641 -0.0249  0.3742
   51MOL0     C 6752   1.219   4.268   6.634  0.1375 -0.1339  0.2616
   51MOL0     O 6753   1.186   4.231   6.759  0.0558 -0.2140 -0.2376
   51MOL0     C 6754   1.064   4.272   6.812 -0.1552  0.5408 -0.0081
   51MOL0     C 6755   1.001   4.400   6.796 -1.1127 -0.1045 -0.2184
   51MOL0     C 6756   0.879   4.421   6.855  0.3548  0.2068  0.0238
   51MOL0     C 6757   0.819   4.324   6.931  0.5132 -0.5066  0.3116
   51MOL0     O 6758   0.688   4.331   6.985 -0.2135 -0.6909  0.2982
   51MOL0     C 6759   0.621   4.452   6.989  1.0668  0.4635 -0.5186
   51MOL0     C 6760   0.523   4.478   7.101 -0.1321 -0.6350  0.7232
   51MOL0     C 6761   0.586   4.547   7.225 -0.3454 -0.3159  0.2047
   51MOL0     C 6762   0.490   4.590   7.328 -0.1445 -0.2103 -0.2998
   51MOL0     C 6763   0.545   4.704   7.423 -0.2803  0.4975  0.2182
   51MOL0     C 6764   0.481   4.700   7.562  0.1003  0.2396  0.8855
   51MOL0     C 6765   0.528   4.595   7.664 -0.4175  0.3463 -0.8440
   51MOL0     C 6766   0.460   4.615   7.802 -0.8861  0.2964  0.6573
   51MOL0     N 6767   0.511   4.510   7.884 -0.9161 -1.6434  0.0111
   51MOL0     C 6768   0.621   4.514   7.960  0.5572 -0.0908  0.1279
   51MOL0     C 6769   0.643   4.393   8.012  0.1079 -0.8405  0.5242
   51MOL0     C 6770   0.761   4.343   8.086  0.1799  0.2614 -0.0119
   51MOL0     C 6771   0.727   4.342   8.232  0.0278  0.0417  0.2450
   51MOL0     C 6772   0.651   4.200   8.267 -0.4616  0.0746 -0.1728
   51MOL0     C 6773   0.617   4.196   8.414  0.2797  0.3303  0.4446
   51MOL0     O 6774   0.543   4.310   8.465 -0.3975 -0.2289 -0.3451
   51MOL0     C 6775   0.409   4.323   8.424  0.0498  0.9712 -1.0223
   51MOL0     C 6776   0.330   4.434   8.471 -1.0518  0.1693 -0.2531
   51MOL0     C 6777   0.189   4.449   8.435  0.1329 -0.0587  0.2513
   51MOL0     C 6778   0.120   4.588   8.456 -0.0253 -0.0186 -0.1432
   51MOL0     C 6779   0.126   4.346   8.362  0.6782  0.9215  0.1610
   51MOL0     C 6780  -0.023   4.338   8.345  0.1454  0.2700 -0.0080
   51MOL0     O 6781  -0.115   4.400   8.427  0.3638  0.6589 -0.1591
   51MOL0     C 6782  -0.251   4.399   8.398 -0.5562  0.1114 -0.4432
   51MOL0     C 6783  -0.299   4.467   8.283  0.0408 -0.5827 -0.8056
   51MOL0     C 6784  -0.438   4.477   8.259  0.0302 -0.3807 -0.2906
   51MOL0     C 6785  -0.531   4.422   8.336 -0.3030  0.4298  0.1439
   51MOL0     O 6786  -0.650   4.452   8.289  0.7179 -0.6942 -0.5101
   51MOL0     C 6787  -0.763   4.423   8.373  0.4006 -0.3417 -0.2583
   51MOL0     C 6788  -0.895   4.479   8.301  0.2994  0.2419  0.2126
   51MOL0     C 6789  -1.025   4.406   8.342 -0.2901 -1.2816 -0.1680
   51MOL0     C 6790  -1.100   4.477   8.452  0.2179 -0.3045  0.2176
   51MOL0     C 6791  -1.242   4.420   8.474 -0.3654  0.0126 -0.1042
   51MOL0     C 6792  -1.314   4.522   8.577  0.1392 -0.1355  1.2234
   51MOL0     C 6793  -1.463   4.481   8.600 -0.0485  0.2993  0.2434
   51MOL0     C 6794  -1.556   4.492   8.477  0.1955  0.2287  0.3863
   51MOL0    Cl 6795  -1.726   4.445   8.517 -0.3808 -0.2957  0.3870
   51MOL0     C 6796  -0.496   4.350   8.448 -0.1624 -1.0673  0.0775
   51MOL0     C 6797  -0.353   4.342   8.480 -0.1931  0.0773  0.3872
   51MOL0     O 6798  -0.052   4.288   8.230  0.4967  0.5421 -0.8570
   51MOL0     C 6799   0.209   4.246   8.313 -0.2622 -0.6143  0.0420
   51MOL0     C 6800   0.342   4.223   8.349 -0.2356 -0.3687  0.5248
   51MOL0     N 6801   0.545   4.313   7.965 -0.3229 -0.6895  0.3608
   51MOL0     N 6802   0.465   4.379   7.887 -0.2193  0.6955 -0.0905
   51MOL0     C 6803   0.885   4.202   6.947 -0.1315 -0.3470  0.1045
   51MOL0     C 6804   1.002   4.175   6.896 -1.0632 -0.6069  0.0114
   51MOL0     C 6805   1.357   4.235   6.588 -0.6751 -0.1347  0.5216
   51MOL0     C 6806   1.453   4.193   6.681 -0.0709  1.1592 -0.3842
   51MOL0     C 6807   1.591   4.180   6.650 -0.4192 -0.1496  0.5282
   51MOL0     C 6808   1.631   4.205   6.516  0.4920  0.3642  0.1678
   51MOL0     O 6809   1.749   4.161   6.459  0.1349 -0.4939  0.5672
   51MOL0     C 6810   1.864   4.123   6.548  0.1966  0.1522 -0.3050
   51MOL0     C 6811   1.989   4.082   6.475 -0.2407 -0.2574 -0.2290
   51MOL0     C 6812   2.050   4.200   6.395 -0.6929  0.0267  0.9928
   51MOL0     C 6813   2.199   4.188   6.363  0.5224  0.1281 -0.5767
   51MOL0     C 6814   2.278   4.253   6.469 -0.1751  0.5254 -0.0406
   51MOL0     C 6815   2.354   4.302   6.547  0.2799 -0.5553  0.9740
   51MOL0     C 6816   1.538   4.243   6.421  0.0628 -0.2450  0.1297
   51MOL0     C 6817   1.409   4.271   6.455 -0.1287  0.2920  0.0432
   51MOL0     H 6818   1.042   4.482   6.738 -0.9339  0.5737  0.8494
   51MOL0     H 6819   0.844   4.523   6.850 -0.8816 -0.2602 -2.1070
   51MOL0     H 6820   0.689   4.537   6.983  1.2125  0.4909  0.9967
   51MOL0     H 6821   0.563   4.452   6.896  2.5662  1.1252 -1.4944
   51MOL0     H 6822   0.441   4.542   7.066 -0.5460 -2.1174 -1.1853
   51MOL0     H 6823   0.490   4.377   7.127  0.7581 -1.2886 -0.5987
   51MOL0     H 6824   0.655   4.473   7.266  1.1296  0.8940 -0.0015
   51MOL0     H 6825   0.646   4.631   7.191  0.7042 -0.9365  0.4972
   51MOL0     H 6826   0.396   4.629   7.289  0.2809  0.3619 -0.7889
   51MOL0     H 6827   0.470   4.499   7.385 -0.0806  1.3023  2.3040
   51MOL0     H 6828   0.653   4.699   7.438  0.0671 -1.2844 -2.2432
   51MOL0     H 6829   0.510   4.796   7.377 -1.3789 -0.5497 -1.1436
   51MOL0     H 6830   0.508   4.792   7.615  0.2856  0.0787  1.0717
   51MOL0     H 6831   0.375   4.678   7.541  0.5885  0.5982 -2.6650
   51MOL0     H 6832   0.515   4.489   7.636 -0.6820  0.5398 -1.4794
   51MOL0     H 6833   0.637   4.607   7.676 -0.9055  3.4124  1.6924
   51MOL0     H 6834   0.351   4.616   7.797 -0.8782 -0.8431 -0.0040
   51MOL0     H 6835   0.485   4.713   7.843  0.1584  1.3738 -2.3088
   51MOL0     H 6836   0.690   4.598   7.962 -0.1070  0.5691 -2.0313
   51MOL0     H 6837   0.806   4.255   8.040  2.2799  1.6311 -0.7106
   51MOL0     H 6838   0.841   4.416   8.072  1.0873 -0.4637  1.2098
   51MOL0     H 6839   0.659   4.424   8.254 -0.1024  0.1694 -0.5993
   51MOL0     H 6840   0.818   4.339   8.293  0.7137 -0.3239 -0.7656
   51MOL0     H 6841   0.730   4.127   8.251  0.4701  1.1105 -0.4171
   51MOL0     H 6842   0.567   4.173   8.203  1.2531 -1.8033 -1.7464
   51MOL0     H 6843   0.718   4.193   8.456  0.1785 -0.6618  0.6325
   51MOL0     H 6844   0.564   4.101   8.428 -1.3791  1.1325 -0.1831
   51MOL0     H 6845   0.388   4.513   8.518 -0.5210 -1.0553  1.2450
   51MOL0     H 6846   0.093   4.634   8.360  0.1356  1.3233  0.4324
   51MOL0     H 6847   0.039   4.573   8.528 -0.0848 -0.2663 -0.2632
   51MOL0     H 6848   0.193   4.648   8.511  0.2775 -1.3082  0.8945
   51MOL0     H 6849  -0.229   4.506   8.210 -0.8331 -0.7158 -1.7291
   51MOL0     H 6850  -0.473   4.535   8.174 -1.4667  1.5290  1.5273
   51MOL0     H 6851  -0.763   4.314   8.381  1.4619 -0.3078  0.5106
   51MOL0     H 6852  -0.749   4.470   8.471  1.0612  1.3983 -1.1424
   51MOL0     H 6853  -0.910   4.585   8.324 -2.1319  0.3572 -1.5435
   51MOL0     H 6854  -0.874   4.458   8.196  0.0477 -1.5298  0.4924
   51MOL0     H 6855  -1.003   4.305   8.378  1.2788 -1.3433 -1.2003
   51MOL0     H 6856  -1.080   4.405   8.247 -1.6263  1.6640  0.4798
   51MOL0     H 6857  -1.045   4.459   8.544  1.5411 -0.7756 -0.6377
   51MOL0     H 6858  -1.100   4.586   8.442  1.5703 -0.0271  2.5369
   51MOL0     H 6859  -1.235   4.318   8.513  1.0511  0.0023 -0.3492
   51MOL0     H 6860  -1.303   4.420   8.383 -1.6215  1.0506  0.6960
   51MOL0     H 6861  -1.270   4.513   8.677 -1.8517  0.0610  2.1523
   51MOL0     H 6862  -1.307   4.622   8.535  0.6297 -0.0648  1.4651
   51MOL0     H 6863  -1.504   4.553   8.671 -2.0490  1.9055 -2.3539
   51MOL0     H 6864  -1.466   4.382   8.646  0.8607 -0.0194 -0.3651
   51MOL0     H 6865  -1.518   4.429   8.395 -0.5586 -0.2133  0.3591
   51MOL0     H 6866  -1.558   4.593   8.436 -0.4120  0.5907  1.2941
   51MOL0     H 6867  -0.560   4.298   8.519 -2.1321  1.3516  0.1823
   51MOL0     H 6868  -0.316   4.289   8.568 -1.2657 -0.9412  0.2459
   51MOL0     H 6869   0.161   4.173   8.249 -1.4272 -1.8917  2.2597
   51MOL0     H 6870   0.397   4.135   8.317  1.6958  0.4811  1.3500
   51MOL0     H 6871   0.830   4.128   7.005  0.8881 -0.4925  0.9204
   51MOL0     H 6872   1.061   4.087   6.920  1.3019  0.8807  0.0632
   51MOL0     H 6873   1.430   4.171   6.785  1.4758  1.4529  0.0518
   51MOL0     H 6874   1.660   4.142   6.723  0.4584  1.1280  0.4043
   51MOL0     H 6875   1.895   4.197   6.622  0.6952  0.5290 -0.8824
   51MOL0     H 6876   1.828   4.035   6.602 -0.7834  1.8472  2.0274
   51MOL0     H 6877   1.963   3.993   6.415  0.3106 -3.2708  3.5859
   51MOL0     H 6878   2.066   4.036   6.537  2.1065 -3.7311 -5.0788
   51MOL0     H 6879   2.026   4.297   6.439 -0.0298  1.9861 -2.5990
   51MOL0     H 6880   2.002   4.204   6.297  1.2945  0.8355 -0.0001
   51MOL0     H 6881   2.208   4.223   6.260  0.4350 -5.1488 -2.6442
   51MOL0     H 6882   2.229   4.083   6.367  1.3178  0.3563  2.0707
   51MOL0     H 6883   2.426   4.358   6.603 -0.2632  3.1968 -1.6968
   51MOL0     H 6884   1.567   4.253   6.316 -0.6016  2.0506  0.1079
   51MOL0     H 6885   1.342   4.317   6.383 -0.8499 -0.6344  0.1182
   52MOL0     O 6886   8.063   1.840   1.460  0.3694  0.4580 -0.3850
   52MOL0     C 6887   8.087   1.962   1.453  0.8214  0.5738 -0.8831
   52MOL0     O 6888   7.993   2.063   1.468  0.3141 -0.0846  0.6151
   52MOL0     C 6889   7.857   2.050   1.451 -0.2627  0.3095  0.1944
   52MOL0     C 6890   7.780   2.167   1.469  0.5980  0.1329  0.2433
   52MOL0     C 6891   7.640   2.169   1.445 -0.2891  0.5953 -1.3509
   52MOL0     C 6892   7.582   2.048   1.400 -0.0899 -0.3251 -0.0473
   52MOL0     O 6893   7.448   2.034   1.382 -0.4592 -0.0213 -0.7414
   52MOL0     C 6894   7.360   2.126   1.454  0.5903  0.1555 -0.2103
   52MOL0     C 6895   7.223   2.086   1.396  0.0699  0.0496  0.1401
   52MOL0     C 6896   7.111   2.172   1.454 -0.0866  0.2796 -0.6001
   52MOL0     C 6897   6.975   2.097   1.451 -0.0865 -0.7653  0.0372
   52MOL0     C 6898   6.859   2.174   1.519  0.4559  0.1141 -0.5872
   52MOL0     C 6899   6.751   2.067   1.543  0.4072 -0.0762  0.4074
   52MOL0     C 6900   6.634   2.143   1.608 -0.1732 -0.0802  0.1044
   52MOL0     C 6901   6.525   2.039   1.652  0.3215 -0.3178 -0.0866
   52MOL0     N 6902   6.411   2.096   1.719  0.3172 -0.0453  0.7646
   52MOL0     C 6903   6.290   2.133   1.669 -0.0318 -1.4840 -0.1666
   52MOL0     C 6904   6.235   2.221   1.758  0.0851 -0.5154  0.7187
   52MOL0     C 6905   6.096   2.284   1.752 -0.1264 -0.4454  0.3427
   52MOL0     C 6906   6.008   2.267   1.881  0.0095 -0.5310  0.4089
   52MOL0     C 6907   5.879   2.347   1.869  0.3046 -0.2331 -0.5355
   52MOL0     C 6908   5.900   2.488   1.945 -0.3234 -1.2331 -0.5346
   52MOL0     O 6909   5.783   2.568   1.920  0.5294  0.2704 -0.3347
   52MOL0     C 6910   5.680   2.569   2.011 -0.0155 -0.3616  0.4723
   52MOL0     C 6911   5.695   2.586   2.149 -0.2079  0.4392 -0.8796
   52MOL0     C 6912   5.596   2.608   2.240  0.2281  0.7659 -1.0355
   52MOL0     C 6913   5.629   2.650   2.379  0.0102  0.6808 -0.4095
   52MOL0     C 6914   5.464   2.593   2.191  0.4137  0.5833  1.2032
   52MOL0     C 6915   5.338   2.616   2.272  0.1296  0.7112  0.1348
   52MOL0     O 6916   5.239   2.677   2.206 -0.0391  0.0909  1.2210
   52MOL0     C 6917   5.110   2.671   2.256  0.1062  0.2203 -0.0912
   52MOL0     C 6918   5.010   2.646   2.164  0.2559 -0.2733  0.3125
   52MOL0     C 6919   4.872   2.652   2.206 -0.2260  0.6254  0.2469
   52MOL0     C 6920   4.842   2.664   2.346  0.1555 -0.6352 -0.3391
   52MOL0     O 6921   4.718   2.649   2.398  0.4167  0.7240  0.4667
   52MOL0     C 6922   4.602   2.697   2.324 -0.3163  1.0452  0.0571
   52MOL0     C 6923   4.473   2.645   2.393 -0.6718 -0.5407  0.6208
   52MOL0     C 6924   4.360   2.635   2.303  0.4089 -0.0952  0.1463
   52MOL0     C 6925   4.285   2.770   2.292  0.0500  0.2739 -0.1916
   52MOL0     C 6926   4.152   2.747   2.211 -0.2669 -0.1369 -0.0241
   52MOL0     C 6927   4.051   2.862   2.217 -0.2500  0.2678 -0.1118
   52MOL0     C 6928   4.001   2.878   2.358  0.1640 -0.2756 -0.7363
   52MOL0     C 6929   3.861   2.943   2.356  0.2722  0.1042 -0.4570
   52MOL0    Cl 6930   3.804   2.933   2.523  0.0421  0.1703  0.0205
   52MOL0     C 6931   4.947   2.693   2.432 -0.9470 -0.1806 -0.1269
   52MOL0     C 6932   5.077   2.699   2.383 -0.2757  0.2324 -0.5023
   52MOL0     O 6933   5.339   2.578   2.389 -0.0413  0.4274  0.2681
   52MOL0     C 6934   5.449   2.561   2.051  0.0848  0.2176  0.1849
   52MOL0     C 6935   5.549   2.552   1.966  0.4692 -0.0119 -0.1886
   52MOL0     N 6936   6.326   2.236   1.859  0.1875  0.2478 -0.5699
   52MOL0     N 6937   6.427   2.170   1.828  0.3915  0.7611  0.2677
   52MOL0     C 6938   7.662   1.935   1.390 -0.3550 -0.3520  0.9577
   52MOL0     C 6939   7.794   1.936   1.408 -0.8654  0.9739  0.5599
   52MOL0     C 6940   8.229   2.002   1.425  0.6678 -0.1495 -0.3977
   52MOL0     C 6941   8.267   2.138   1.414 -0.5800  0.4597 -0.3100
   52MOL0     C 6942   8.395   2.176   1.382  0.0179 -0.0032 -0.2320
   52MOL0     C 6943   8.498   2.074   1.368 -0.2157 -0.4814  0.3349
   52MOL0     O 6944   8.632   2.106   1.339  0.2796 -0.1957  0.2303
   52MOL0     C 6945   8.681   2.243   1.322  0.9978  0.4427 -0.1794
   52MOL0     C 6946   8.828   2.229   1.266  0.2950  0.5708  0.0230
   52MOL0     C 6947   8.803   2.173   1.130 -0.0691 -0.6506  0.5790
   52MOL0     C 6948   8.924   2.188   1.036 -0.1653 -0.3129 -0.7113
   52MOL0     C 6949   8.967   2.316   0.984 -0.1639 -0.0061  0.3922
   52MOL0     C 6950   9.021   2.411   0.928 -0.5079  0.0712 -0.8425
   52MOL0     C 6951   8.457   1.944   1.380  0.0079 -0.0960  0.7435
   52MOL0     C 6952   8.330   1.906   1.413 -1.6491 -0.5640 -0.4827
   52MOL0     H 6953   7.828   2.262   1.491  1.3405  0.9590 -3.9749
   52MOL0     H 6954   7.584   2.261   1.451 -3.1833 -1.1189  0.4591
   52MOL0     H 6955   7.363   2.109   1.562 -0.2030  2.4300  0.2170
   52MOL0     H 6956   7.376   2.232   1.436 -0.5010  0.3877  0.1117
   52MOL0     H 6957   7.211   2.105   1.289  2.2703 -3.5827 -0.9468
   52MOL0     H 6958   7.190   1.983   1.415 -0.1983 -0.0772 -0.9751
   52MOL0     H 6959   7.130   2.181   1.561 -0.4164  1.6210 -0.6270
   52MOL0     H 6960   7.104   2.275   1.416 -1.9900  0.4070 -0.0402
   52MOL0     H 6961   6.958   2.090   1.343  1.0795  1.3640 -0.3499
   52MOL0     H 6962   6.985   1.991   1.478  2.0759 -0.6186 -0.0102
   52MOL0     H 6963   6.902   2.205   1.615  0.3807 -0.8595 -0.2274
   52MOL0     H 6964   6.823   2.261   1.463  0.2754  1.7361  1.8971
   52MOL0     H 6965   6.720   2.028   1.446  2.1339 -3.7379  1.1718
   52MOL0     H 6966   6.779   1.985   1.610 -3.1242 -3.0689 -1.4453
   52MOL0     H 6967   6.665   2.200   1.696  1.5664 -1.6464  0.5582
   52MOL0     H 6968   6.597   2.210   1.530  1.2026  1.6960  0.8922
   52MOL0     H 6969   6.571   1.969   1.723 -1.2497  0.7777  2.1297
   52MOL0     H 6970   6.481   1.983   1.569  2.4517 -1.6488 -0.4069
   52MOL0     H 6971   6.255   2.100   1.571  0.5499  1.5056 -1.5008
   52MOL0     H 6972   6.108   2.390   1.727  0.7546 -1.0831 -2.2314
   52MOL0     H 6973   6.051   2.243   1.661  1.1681  2.4388 -1.7547
   52MOL0     H 6974   6.058   2.291   1.976 -0.0267 -0.3472  0.3816
   52MOL0     H 6975   5.980   2.161   1.888 -2.9398  0.0203 -1.4174
   52MOL0     H 6976   5.804   2.294   1.927 -0.6753  2.8131  1.2042
   52MOL0     H 6977   5.851   2.359   1.764  3.3188  0.3112 -1.3748
   52MOL0     H 6978   5.990   2.533   1.901 -1.9967  2.7639 -0.3241
   52MOL0     H 6979   5.929   2.479   2.050 -2.8897 -0.5023  0.3257
   52MOL0     H 6980   5.797   2.614   2.174 -0.6756  3.1250 -1.7145
   52MOL0     H 6981   5.558   2.724   2.418 -1.3622  0.0823 -1.6477
   52MOL0     H 6982   5.617   2.565   2.446  1.2897 -0.5552 -1.6694
   52MOL0     H 6983   5.729   2.692   2.392  0.3432 -0.3903  0.6251
   52MOL0     H 6984   5.040   2.622   2.063  1.6978  0.6557  0.4961
   52MOL0     H 6985   4.800   2.617   2.133  0.1246  1.2879 -0.4351
   52MOL0     H 6986   4.603   2.806   2.338 -0.4181  0.8315  1.9204
   52MOL0     H 6987   4.609   2.669   2.218 -1.4444  0.3951  0.1452
   52MOL0     H 6988   4.498   2.546   2.431 -0.9632 -0.9555 -0.2436
   52MOL0     H 6989   4.447   2.707   2.479 -2.6852  2.7122 -2.0521
   52MOL0     H 6990   4.284   2.563   2.334 -2.3406  2.3059 -0.6561
   52MOL0     H 6991   4.378   2.603   2.200  1.4164 -2.2016  0.9027
   52MOL0     H 6992   4.255   2.808   2.390 -0.7584 -1.1900  0.1684
   52MOL0     H 6993   4.347   2.847   2.246  1.0002 -0.6247 -0.4380
   52MOL0     H 6994   4.109   2.655   2.250 -2.1427  1.6249  2.4170
   52MOL0     H 6995   4.175   2.725   2.107 -1.3260 -4.2375  0.4634
   52MOL0     H 6996   4.094   2.956   2.180 -2.7180  0.5023 -2.7540
   52MOL0     H 6997   3.964   2.838   2.156 -0.8300  2.0356 -0.0578
   52MOL0     H 6998   4.071   2.945   2.409  0.3440 -0.7880 -0.3067
   52MOL0     H 6999   3.991   2.781   2.407 -1.8418  0.5991  0.6896
   52MOL0     H 7000   3.790   2.902   2.283 -1.9622  2.3597  0.2942
   52MOL0     H 7001   3.855   3.049   2.331 -4.9794 -0.0494 -1.0414
   52MOL0     H 7002   4.930   2.714   2.537 -0.4143 -1.8311  0.3236
   52MOL0     H 7003   5.152   2.744   2.448 -0.8104 -0.7221  0.8286
   52MOL0     H 7004   5.347   2.554   2.015  0.0863 -0.7022  0.3378
   52MOL0     H 7005   5.534   2.527   1.862  1.6273 -2.2890  0.1154
   52MOL0     H 7006   7.617   1.841   1.359  0.2410 -0.8133  1.4735
   52MOL0     H 7007   7.846   1.841   1.405 -0.6741  1.1005 -1.8019
   52MOL0     H 7008   8.197   2.219   1.433 -0.6306  0.0963  1.1541
   52MOL0     H 7009   8.424   2.280   1.386  3.6273 -0.8205 -0.8688
   52MOL0     H 7010   8.620   2.306   1.257 -0.4377 -0.0273  0.6595
   52MOL0     H 7011   8.680   2.293   1.419 -2.1116  0.6071 -0.2123
   52MOL0     H 7012   8.878   2.154   1.328 -1.0631 -1.6726 -1.4604
   52MOL0     H 7013   8.870   2.330   1.258 -1.0603  1.0124 -3.0675
   52MOL0     H 7014   8.725   2.234   1.083  1.6102  1.1889  0.0637
   52MOL0     H 7015   8.774   2.067   1.135 -2.3007 -0.0264  3.7058
   52MOL0     H 7016   8.903   2.130   0.946  1.4145 -0.7679 -0.8267
   52MOL0     H 7017   9.008   2.147   1.093  0.2530 -1.3029 -1.9973
   52MOL0     H 7018   9.063   2.500   0.886 -1.3436 -1.1953 -4.8901
   52MOL0     H 7019   8.526   1.861   1.363 -1.5558 -0.8842 -2.7399
   52MOL0     H 7020   8.312   1.799   1.420 -0.8112 -0.6613  0.4461
   53MOL0     O 7021   6.665   1.343   2.930  0.5110  0.1075 -0.1572
   53MOL0     C 7022   6.646   1.236   2.987  0.0045 -0.2757 -0.0753
   53MOL0     O 7023   6.533   1.189   3.034 -0.0035  0.1605  0.2760
   53MOL0     C 7024   6.426   1.268   3.028  0.6667 -0.5601  0.3880
   53MOL0     C 7025   6.325   1.224   2.942  0.0550  0.3687 -0.0710
   53MOL0     C 7026   6.204   1.288   2.935  0.5799  0.6751 -0.8021
   53MOL0     C 7027   6.168   1.388   3.026 -0.4725  0.0495  0.1301
   53MOL0     O 7028   6.067   1.468   3.013  0.0491 -0.8810  0.0638
   53MOL0     C 7029   5.956   1.436   2.926  0.3790 -1.1763  0.1165
   53MOL0     C 7030   5.822   1.479   2.990 -0.1148  0.5778  0.0611
   53MOL0     C 7031   5.773   1.389   3.102  0.5136  0.5831  0.1844
   53MOL0     C 7032   5.634   1.426   3.141  0.3684 -0.3764 -0.5661
   53MOL0     C 7033   5.594   1.342   3.258  0.4989 -0.7694  0.9047
   53MOL0     C 7034   5.454   1.390   3.314 -0.1065  0.3690  0.2593
   53MOL0     C 7035   5.331   1.363   3.223 -0.6435  0.3280 -0.7004
   53MOL0     C 7036   5.219   1.452   3.266 -0.9924  0.1752 -0.3577
   53MOL0     N 7037   5.086   1.420   3.203 -0.5267  0.3554 -0.5742
   53MOL0     C 7038   5.008   1.501   3.124 -0.2091  0.2591  0.1260
   53MOL0     C 7039   4.895   1.433   3.100  0.4545  0.7159 -0.5609
   53MOL0     C 7040   4.774   1.480   3.012 -0.2868 -0.4936 -1.1083
   53MOL0     C 7041   4.671   1.569   3.095 -0.0716  0.0096  0.6408
   53MOL0     C 7042   4.599   1.499   3.204 -0.1110  0.3034 -0.1136
   53MOL0     C 7043   4.494   1.584   3.274  0.4940 -0.2184  0.2777
   53MOL0     O 7044   4.388   1.616   3.180  0.1133 -0.1036 -0.5198
   53MOL0     C 7045   4.272   1.550   3.205  0.3422  0.1376 -0.2517
   53MOL0     C 7046   4.256   1.417   3.241  0.0375 -0.2777 -0.5148
   53MOL0     C 7047   4.132   1.366   3.278 -0.1537  0.0029  0.4321
   53MOL0     C 7048   4.127   1.217   3.312  0.6257  0.0200  0.2077
   53MOL0     C 7049   4.018   1.445   3.267 -0.0026 -0.7358  0.5367
   53MOL0     C 7050   3.884   1.409   3.284 -0.6555  0.1209  0.6832
   53MOL0     O 7051   3.783   1.504   3.313  0.3613  0.5433 -0.1228
   53MOL0     C 7052   3.645   1.482   3.299 -0.6834 -0.5067 -0.2247
   53MOL0     C 7053   3.582   1.369   3.350  0.3419 -0.0438  0.6200
   53MOL0     C 7054   3.446   1.335   3.326 -0.4861  0.6904 -0.1722
   53MOL0     C 7055   3.361   1.438   3.283  0.5491  0.1545 -0.8538
   53MOL0     O 7056   3.228   1.424   3.257  0.1125 -0.3090 -0.3194
   53MOL0     C 7057   3.161   1.323   3.330 -0.9431 -0.1521  0.7975
   53MOL0     C 7058   3.013   1.362   3.327 -0.5974  0.1928  0.7385
   53MOL0     C 7059   2.930   1.254   3.398  0.1655 -0.0898  0.3045
   53MOL0     C 7060   2.775   1.285   3.392 -0.6652  0.1962 -0.1544
   53MOL0     C 7061   2.705   1.174   3.466  0.7267 -0.1467 -0.2256
   53MOL0     C 7062   2.562   1.213   3.510 -0.6168 -0.1840 -0.2084
   53MOL0     C 7063   2.470   1.091   3.544 -0.3541  1.2679  0.0013
   53MOL0     C 7064   2.343   1.155   3.611 -0.2280 -0.1075 -0.6618
   53MOL0    Cl 7065   2.224   1.025   3.646 -0.5911  0.5632 -0.0974
   53MOL0     C 7066   3.411   1.559   3.252  0.0616 -1.0874  0.3114
   53MOL0     C 7067   3.550   1.578   3.252  0.0081 -0.3520  0.1236
   53MOL0     O 7068   3.853   1.295   3.252 -0.9127 -0.2306  0.2180
   53MOL0     C 7069   4.033   1.586   3.244  0.6555 -0.0254 -0.5234
   53MOL0     C 7070   4.160   1.635   3.211  1.1567 -0.0863  0.2971
   53MOL0     N 7071   4.912   1.316   3.180 -0.2332  0.4567 -0.1711
   53MOL0     N 7072   5.023   1.307   3.244  0.2680 -0.3542  0.2370
   53MOL0     C 7073   6.265   1.435   3.117 -0.1273  0.5093  0.1602
   53MOL0     C 7074   6.395   1.382   3.104  0.2458  0.8837  0.4557
   53MOL0     C 7075   6.772   1.152   2.992  1.0795  0.1992  0.7464
   53MOL0     C 7076   6.862   1.164   2.888  0.2496  0.7185 -0.9940
   53MOL0     C 7077   6.974   1.086   2.891 -0.2008 -0.6294  0.7537
   53MOL0     C 7078   6.998   0.988   2.983 -0.0931 -0.1884 -0.1729
   53MOL0     O 7079   7.108   0.907   3.002 -0.2346  0.3226  0.1152
   53MOL0     C 7080   7.200   0.907   2.891  0.6418 -0.4512  0.8419
   53MOL0     C 7081   7.330   0.834   2.930  0.6249  0.2365 -0.4720
   53MOL0     C 7082   7.437   0.838   2.830  0.2217 -0.9483 -0.0808
   53MOL0     C 7083   7.429   0.968   2.745  0.2617  0.8750  0.1358
   53MOL0     C 7084   7.451   1.089   2.821  0.1152  0.3740 -0.7547
   53MOL0     C 7085   7.483   1.185   2.893  0.2848  0.8080 -0.9662
   53MOL0     C 7086   6.896   0.967   3.075  0.3446 -0.7884  0.1719
   53MOL0     C 7087   6.783   1.044   3.082 -0.4149 -0.3077  0.2325
   53MOL0     H 7088   6.350   1.138   2.881 -1.0514  0.3701 -0.5381
   53MOL0     H 7089   6.140   1.245   2.858 -0.8355  1.9298 -0.3901
   53MOL0     H 7090   5.968   1.492   2.833 -2.4432  1.4070  1.1738
   53MOL0     H 7091   5.939   1.329   2.907  1.0793 -1.4995  1.1998
   53MOL0     H 7092   5.826   1.581   3.030  1.2535  0.5222  0.1216
   53MOL0     H 7093   5.751   1.472   2.907 -0.2829  0.4890  0.2125
   53MOL0     H 7094   5.789   1.286   3.070 -1.3076 -0.4017  2.2265
   53MOL0     H 7095   5.841   1.410   3.186 -1.6075  0.6636  1.9637
   53MOL0     H 7096   5.629   1.531   3.168  0.5724 -0.3559 -0.6070
   53MOL0     H 7097   5.568   1.398   3.058  1.8159 -1.1782 -1.4959
   53MOL0     H 7098   5.574   1.242   3.220 -6.2607  1.3739 -2.8011
   53MOL0     H 7099   5.668   1.352   3.338  1.2907  0.4241  0.0464
   53MOL0     H 7100   5.453   1.329   3.405  0.0488  0.7713  0.5356
   53MOL0     H 7101   5.459   1.496   3.339  1.3082  1.1312 -2.8192
   53MOL0     H 7102   5.347   1.388   3.118 -0.5963 -1.1902 -1.0694
   53MOL0     H 7103   5.299   1.259   3.220  1.2222 -0.2660 -2.5221
   53MOL0     H 7104   5.242   1.554   3.236  0.6965  0.5075  1.8249
   53MOL0     H 7105   5.209   1.453   3.375 -0.3225  1.7026 -0.2878
   53MOL0     H 7106   5.033   1.594   3.074 -0.0468 -0.5292 -1.3112
   53MOL0     H 7107   4.807   1.529   2.920 -1.8833  0.4604 -1.2148
   53MOL0     H 7108   4.716   1.391   2.987 -0.1974 -0.6745 -0.6882
   53MOL0     H 7109   4.606   1.622   3.024  0.9387  0.1445 -0.2016
   53MOL0     H 7110   4.726   1.647   3.147 -2.3763  1.2339  1.3698
   53MOL0     H 7111   4.669   1.464   3.280  1.6107  1.0267 -1.2944
   53MOL0     H 7112   4.553   1.406   3.170 -0.5758  0.2193  0.7242
   53MOL0     H 7113   4.531   1.684   3.297  0.1275  0.0676 -0.3401
   53MOL0     H 7114   4.466   1.537   3.369  1.1571  1.1196  1.1603
   53MOL0     H 7115   4.345   1.358   3.258  1.1655  1.7499  1.1079
   53MOL0     H 7116   4.225   1.186   3.350  0.5949 -1.9326 -1.1483
   53MOL0     H 7117   4.046   1.205   3.385  0.5896 -1.6369 -0.0577
   53MOL0     H 7118   4.104   1.151   3.228 -1.9386 -1.6239  2.0470
   53MOL0     H 7119   3.649   1.298   3.398 -0.7888 -1.4828  0.1457
   53MOL0     H 7120   3.407   1.235   3.342  2.8095 -0.7711 -0.5728
   53MOL0     H 7121   3.166   1.231   3.272 -0.2360  0.0544  0.5211
   53MOL0     H 7122   3.194   1.314   3.434  0.2240  1.4917  0.6007
   53MOL0     H 7123   3.001   1.460   3.373 -2.8998  0.6152 -0.6405
   53MOL0     H 7124   2.968   1.378   3.228 -3.4520  1.0823  2.0804
   53MOL0     H 7125   2.957   1.236   3.503  0.2547 -0.2514  0.2533
   53MOL0     H 7126   2.951   1.159   3.349 -1.1830 -1.4501  2.1993
   53MOL0     H 7127   2.767   1.379   3.449 -1.9563 -0.0879  0.1498
   53MOL0     H 7128   2.743   1.294   3.288 -0.3392  1.6646 -0.1550
   53MOL0     H 7129   2.758   1.137   3.555  0.3829  1.3308  0.6267
   53MOL0     H 7130   2.681   1.087   3.404  1.4859 -0.3744 -0.2080
   53MOL0     H 7131   2.562   1.281   3.596 -1.2211 -0.5048  0.0494
   53MOL0     H 7132   2.513   1.261   3.425  0.9929  1.8176 -0.0889
   53MOL0     H 7133   2.518   1.027   3.618 -2.1086 -1.4359 -1.0331
   53MOL0     H 7134   2.432   1.029   3.462  0.5319  2.6470 -1.5010
   53MOL0     H 7135   2.289   1.217   3.539 -0.3075 -2.5397 -2.8440
   53MOL0     H 7136   2.386   1.203   3.699  1.6910 -1.5486 -0.7590
   53MOL0     H 7137   3.353   1.640   3.208  0.4488 -0.9630  0.0223
   53MOL0     H 7138   3.594   1.674   3.228 -0.5781 -0.2360 -0.5212
   53MOL0     H 7139   3.948   1.652   3.236  1.0967  0.3374 -3.4548
   53MOL0     H 7140   4.182   1.736   3.178  0.4033 -0.3657 -1.1659
   53MOL0     H 7141   6.252   1.523   3.180  3.3971  1.1118  0.2409
   53MOL0     H 7142   6.471   1.419   3.173 -0.1626  1.9858  0.3395
   53MOL0     H 7143   6.851   1.233   2.804  1.0638  0.4805 -1.3104
   53MOL0     H 7144   7.035   1.102   2.802 -0.1482 -1.3636  0.6546
   53MOL0     H 7145   7.161   0.861   2.800  2.6251  3.1078 -2.0878
   53MOL0     H 7146   7.222   1.014   2.878  2.6322 -0.9277 -0.0874
   53MOL0     H 7147   7.314   0.734   2.971  0.6304 -0.1463 -1.3817
   53MOL0     H 7148   7.383   0.881   3.014 -0.7984 -1.6743  1.6297
   53MOL0     H 7149   7.417   0.751   2.766 -0.4248 -0.7150 -0.2080
   53MOL0     H 7150   7.536   0.837   2.877 -0.8611  1.8835  2.5957
   53MOL0     H 7151   7.329   0.984   2.705 -0.5949  1.2158  2.2693
   53MOL0     H 7152   7.500   0.948   2.664 -0.3668 -0.7393 -0.0452
   53MOL0     H 7153   7.483   1.261   2.969 -3.1624 -3.7969  4.4613
   53MOL0     H 7154   6.914   0.892   3.151  1.5691  0.1706  0.8707
   53MOL0     H 7155   6.706   1.028   3.157 -0.2650 -1.1704  0.2140
   54MOL0     O 7156   7.628   2.639   4.942  0.1480  0.2284  0.7786
   54MOL0     C 7157   7.660   2.696   5.045 -0.8942 -0.0211 -0.8757
   54MOL0     O 7158   7.592   2.809   5.095  0.3218  0.0858  0.0377
   54MOL0     C 7159   7.499   2.866   5.021 -0.4336 -0.2996 -0.6665
   54MOL0     C 7160   7.529   2.930   4.897 -0.0152 -0.1306  1.1351
   54MOL0     C 7161   7.432   2.994   4.818  0.8547  0.5620  0.1689
   54MOL0     C 7162   7.295   2.991   4.861 -0.4410 -0.2575 -0.4043
   54MOL0     O 7163   7.187   3.033   4.790 -0.4342  0.8812 -0.2658
   54MOL0     C 7164   7.205   3.166   4.741  0.3428  0.5559 -0.1821
   54MOL0     C 7165   7.079   3.216   4.662  0.2649  0.4905 -0.1044
   54MOL0     C 7166   7.073   3.134   4.536  0.6675 -0.2562  0.4941
   54MOL0     C 7167   6.925   3.160   4.485 -0.4425 -0.4212 -0.1915
   54MOL0     C 7168   6.896   3.082   4.364  0.5696  0.0161 -0.4576
   54MOL0     C 7169   6.792   3.145   4.275 -0.5715 -0.2077 -0.5597
   54MOL0     C 7170   6.783   3.079   4.145  0.4915  0.4484 -0.5189
   54MOL0     C 7171   6.680   3.147   4.062 -0.0607 -0.0698  0.4916
   54MOL0     N 7172   6.542   3.099   4.079  0.1121 -1.0672  0.0373
   54MOL0     C 7173   6.436   3.188   4.112 -0.1023 -1.1189  0.3105
   54MOL0     C 7174   6.322   3.135   4.072  0.0925 -0.4408 -0.4523
   54MOL0     C 7175   6.181   3.176   4.083  0.0167  0.3694  0.2415
   54MOL0     C 7176   6.155   3.311   4.033 -0.6289 -0.4118 -0.2322
   54MOL0     C 7177   6.007   3.336   4.038 -0.3142  0.9214  0.3665
   54MOL0     C 7178   5.959   3.384   4.174  0.0474  0.0478 -0.6099
   54MOL0     O 7179   5.819   3.370   4.191 -0.3742  0.0542  0.1985
   54MOL0     C 7180   5.736   3.447   4.113  0.4133  0.2058 -0.2420
   54MOL0     C 7181   5.778   3.562   4.048  0.3171 -0.9407  0.2178
   54MOL0     C 7182   5.698   3.639   3.958 -0.1654  1.1202  0.0491
   54MOL0     C 7183   5.753   3.757   3.894  0.0666 -0.4325 -0.1512
   54MOL0     C 7184   5.562   3.595   3.936 -0.0430 -0.7790  0.2282
   54MOL0     C 7185   5.458   3.671   3.862 -0.1223 -0.6277  1.1640
   54MOL0     O 7186   5.334   3.614   3.848 -0.1742  0.3825 -0.0020
   54MOL0     C 7187   5.231   3.674   3.788  0.2817  0.7868 -0.0195
   54MOL0     C 7188   5.204   3.666   3.654 -0.0487 -0.5998  0.2440
   54MOL0     C 7189   5.089   3.729   3.601 -0.0301  0.8540 -0.8764
   54MOL0     C 7190   5.006   3.818   3.675 -0.7103 -0.5933 -0.7245
   54MOL0     O 7191   4.891   3.876   3.634  0.6860  0.0877  0.2445
   54MOL0     C 7192   4.879   3.925   3.500 -0.4233  0.6717 -0.2236
   54MOL0     C 7193   4.774   4.022   3.488 -0.7806 -0.6786 -0.0418
   54MOL0     C 7194   4.638   3.992   3.540  0.1785  0.0594 -0.1752
   54MOL0     C 7195   4.519   4.084   3.501 -0.0725 -0.0585 -0.2144
   54MOL0     C 7196   4.381   4.039   3.547  0.4617 -0.6444 -0.0682
   54MOL0     C 7197   4.274   4.102   3.459  0.2771 -0.8848  0.3054
   54MOL0     C 7198   4.268   4.260   3.453  0.1200 -0.1453  0.0117
   54MOL0     C 7199   4.132   4.309   3.404  0.4310  0.3269 -0.3684
   54MOL0    Cl 7200   4.119   4.490   3.385  0.2155  0.2586 -0.3142
   54MOL0     C 7201   5.040   3.838   3.808  0.0662  0.5728 -0.2786
   54MOL0     C 7202   5.142   3.756   3.861 -0.0074 -0.2502  0.1073
   54MOL0     O 7203   5.477   3.789   3.827 -0.6473 -0.2853  0.2914
   54MOL0     C 7204   5.516   3.483   4.008  0.2190  0.5309 -0.9887
   54MOL0     C 7205   5.604   3.406   4.084 -0.1978 -0.7263  0.1139
   54MOL0     N 7206   6.354   3.007   4.038 -0.0531 -0.0204  0.8035
   54MOL0     N 7207   6.477   2.983   4.039 -0.4789  0.1153  0.1581
   54MOL0     C 7208   7.258   2.925   4.977  0.0742  0.2589 -0.6506
   54MOL0     C 7209   7.364   2.871   5.061  0.1799 -0.2671 -0.1742
   54MOL0     C 7210   7.788   2.654   5.113  0.2661  0.6967  0.2495
   54MOL0     C 7211   7.832   2.736   5.218 -0.2557 -0.9296  0.0438
   54MOL0     C 7212   7.959   2.713   5.274  0.0166  0.2662 -0.2475
   54MOL0     C 7213   8.032   2.601   5.234 -0.0395 -0.2805 -0.2698
   54MOL0     O 7214   8.143   2.567   5.311  0.2372 -0.8833  0.5298
   54MOL0     C 7215   8.231   2.475   5.259  0.0446 -1.1216  0.0691
   54MOL0     C 7216   8.357   2.449   5.339  0.1853 -0.4679 -0.2551
   54MOL0     C 7217   8.324   2.377   5.475 -0.0596 -0.1042 -0.8181
   54MOL0     C 7218   8.447   2.315   5.540 -0.0719  0.6742 -0.2727
   54MOL0     C 7219   8.460   2.178   5.484 -0.0963  0.4115 -0.0487
   54MOL0     C 7220   8.461   2.056   5.467 -0.7319  0.5420 -0.0362
   54MOL0     C 7221   7.981   2.518   5.133  0.4330  0.7954 -0.1297
   54MOL0     C 7222   7.871   2.553   5.059  0.5265 -0.3143 -0.0821
   54MOL0     H 7223   7.634   2.941   4.868 -0.0212  2.5986  1.8512
   54MOL0     H 7224   7.448   3.038   4.720 -1.1878  0.2887 -0.3459
   54MOL0     H 7225   7.225   3.233   4.825  0.0311 -1.2308  1.3693
   54MOL0     H 7226   7.292   3.173   4.675 -0.4421  1.2237 -1.1858
   54MOL0     H 7227   6.992   3.213   4.729  0.8486  1.9390  0.7561
   54MOL0     H 7228   7.103   3.319   4.637  0.7576  0.6015  0.7645
   54MOL0     H 7229   7.138   3.190   4.468  0.0364  1.1782  1.0268
   54MOL0     H 7230   7.088   3.027   4.551 -0.2210 -0.3739  0.5831
   54MOL0     H 7231   6.845   3.133   4.555  1.5081 -1.5863  1.6824
   54MOL0     H 7232   6.910   3.267   4.468 -1.8327 -0.3161  1.4264
   54MOL0     H 7233   6.991   3.071   4.311  0.2431 -2.1202 -0.6945
   54MOL0     H 7234   6.869   2.983   4.402  3.2727 -0.9774 -0.8499
   54MOL0     H 7235   6.695   3.139   4.326 -0.4967 -1.0472 -0.4996
   54MOL0     H 7236   6.825   3.248   4.257  0.4514 -0.2293  0.9629
   54MOL0     H 7237   6.884   3.098   4.108  0.3666 -0.6895 -1.5197
   54MOL0     H 7238   6.762   2.972   4.157 -0.6943  0.6073 -0.9795
   54MOL0     H 7239   6.707   3.149   3.956  3.9287  2.9405  1.3309
   54MOL0     H 7240   6.672   3.254   4.084 -1.4716  0.5658 -2.5389
   54MOL0     H 7241   6.441   3.280   4.170 -1.3420 -1.8921  1.7003
   54MOL0     H 7242   6.125   3.105   4.020 -0.1465  1.5052 -0.9241
   54MOL0     H 7243   6.141   3.174   4.185 -1.5899 -0.5692 -0.3667
   54MOL0     H 7244   6.193   3.323   3.931 -2.8870 -1.8482 -1.3346
   54MOL0     H 7245   6.208   3.390   4.087 -2.6831  1.7833 -1.2381
   54MOL0     H 7246   5.945   3.250   4.014 -2.2821  2.0217  1.3139
   54MOL0     H 7247   5.987   3.420   3.971 -2.9092 -1.8245 -2.6301
   54MOL0     H 7248   6.000   3.482   4.198  1.4850 -0.6072 -0.2871
   54MOL0     H 7249   6.000   3.316   4.249 -2.2170 -0.5045  0.2362
   54MOL0     H 7250   5.879   3.594   4.072 -0.9487  2.5918  1.6076
   54MOL0     H 7251   5.715   3.847   3.941  2.0671 -0.5155  1.7946
   54MOL0     H 7252   5.859   3.765   3.922  0.0362 -1.4908  0.3177
   54MOL0     H 7253   5.746   3.750   3.785  0.0264 -2.4093 -0.0601
   54MOL0     H 7254   5.272   3.610   3.589 -0.8045 -1.5789  0.2702
   54MOL0     H 7255   5.075   3.703   3.497  2.9016 -1.0209 -0.9009
   54MOL0     H 7256   4.972   3.968   3.460  0.2049 -0.9167 -0.5357
   54MOL0     H 7257   4.849   3.842   3.435 -1.0450 -0.5375  1.5575
   54MOL0     H 7258   4.810   4.119   3.524  1.0766 -0.7450 -1.5219
   54MOL0     H 7259   4.753   4.043   3.383  3.9702  0.1053 -1.0990
   54MOL0     H 7260   4.631   4.002   3.649 -0.5443 -2.3317  0.0445
   54MOL0     H 7261   4.609   3.889   3.516 -0.8159  0.1329  0.6427
   54MOL0     H 7262   4.532   4.182   3.549 -1.9510 -0.6751  1.7126
   54MOL0     H 7263   4.521   4.107   3.394 -2.7790  2.8505  0.1902
   54MOL0     H 7264   4.361   4.074   3.649 -0.5455 -1.9386  0.2113
   54MOL0     H 7265   4.381   3.930   3.541  1.8533 -0.5816 -1.9394
   54MOL0     H 7266   4.302   4.065   3.360 -1.0347 -0.3591 -0.2816
   54MOL0     H 7267   4.176   4.062   3.483 -1.0228  1.4522 -0.7829
   54MOL0     H 7268   4.346   4.295   3.386  1.3292 -1.9232  0.4192
   54MOL0     H 7269   4.287   4.297   3.554 -1.0413 -0.1152  0.2341
   54MOL0     H 7270   4.047   4.289   3.469  1.4818  0.4645  1.0857
   54MOL0     H 7271   4.111   4.258   3.309 -3.6252  1.4248 -0.2344
   54MOL0     H 7272   4.984   3.909   3.868  1.1080  0.1501  1.2706
   54MOL0     H 7273   5.176   3.779   3.961  0.2469 -1.5167  0.3235
   54MOL0     H 7274   5.412   3.455   3.993 -0.4354  2.1995  0.1513
   54MOL0     H 7275   5.560   3.321   4.135  0.7962 -1.7298 -0.6438
   54MOL0     H 7276   7.154   2.913   5.007 -0.0571  1.0530 -0.7681
   54MOL0     H 7277   7.341   2.816   5.152  0.0425  2.5937  1.6645
   54MOL0     H 7278   7.778   2.822   5.257  1.6606 -0.0655  0.8911
   54MOL0     H 7279   8.000   2.778   5.350 -1.5795  0.0853  0.8136
   54MOL0     H 7280   8.179   2.379   5.254 -0.8131 -0.6888  0.5945
   54MOL0     H 7281   8.263   2.508   5.160  0.2770  1.1579  0.8472
   54MOL0     H 7282   8.424   2.535   5.346 -0.0880 -0.2746 -0.0421
   54MOL0     H 7283   8.413   2.374   5.282  0.7185  1.5197 -2.4823
   54MOL0     H 7284   8.245   2.303   5.459 -0.5308 -0.5423  2.8399
   54MOL0     H 7285   8.281   2.444   5.549  2.9913  1.8027 -0.5931
   54MOL0     H 7286   8.436   2.307   5.649 -0.9874  0.5817 -0.3665
   54MOL0     H 7287   8.540   2.370   5.526  3.0749 -4.0696 -0.2764
   54MOL0     H 7288   8.453   1.950   5.449  1.6127  0.1114  1.0349
   54MOL0     H 7289   8.030   2.433   5.087 -3.2649 -0.8859 -1.3111
   54MOL0     H 7290   7.842   2.490   4.976  1.8181 -0.4760 -0.4363
   55MOL0     O 7291   0.901   4.144   6.374 -0.0443 -1.1372  0.1094
   55MOL0     C 7292   0.903   4.086   6.263  0.0084  0.0933 -0.9341
   55MOL0     O 7293   0.793   4.046   6.195 -0.6146  0.0072  0.3265
   55MOL0     C 7294   0.674   4.039   6.266 -1.2461 -0.1973 -0.2399
   55MOL0     C 7295   0.657   3.996   6.398  0.7057  0.6767  0.9845
   55MOL0     C 7296   0.529   4.006   6.452  0.2194 -0.7994 -0.4422
   55MOL0     C 7297   0.414   4.031   6.380 -1.4080 -0.4253 -0.2407
   55MOL0     O 7298   0.293   4.015   6.432  0.7183  0.2218  1.0202
   55MOL0     C 7299   0.269   3.947   6.555  0.4641  0.0560 -0.0532
   55MOL0     C 7300   0.119   3.914   6.578 -0.0482  0.3528 -0.0942
   55MOL0     C 7301   0.108   3.814   6.694  0.0178 -0.1196  0.7316
   55MOL0     C 7302  -0.039   3.771   6.714  0.3731 -0.9973  0.2542
   55MOL0     C 7303  -0.063   3.734   6.858  0.5719 -0.1631 -0.0991
   55MOL0     C 7304  -0.199   3.667   6.852 -0.2200  0.0064  0.0981
   55MOL0     C 7305  -0.316   3.768   6.874  0.9794 -0.2664 -0.2995
   55MOL0     C 7306  -0.447   3.695   6.832 -0.0344  0.3710  0.2684
   55MOL0     N 7307  -0.546   3.797   6.810  0.4453  0.4069 -0.0705
   55MOL0     C 7308  -0.653   3.829   6.899 -0.1881 -0.0621  0.2344
   55MOL0     C 7309  -0.729   3.915   6.841  0.3794 -0.3634 -0.6047
   55MOL0     C 7310  -0.856   3.970   6.902 -0.1775 -0.2844 -0.1255
   55MOL0     C 7311  -0.961   3.855   6.907  0.7422 -0.5996  0.2966
   55MOL0     C 7312  -1.063   3.874   6.793 -0.0812 -0.2917  0.0016
   55MOL0     C 7313  -1.194   3.809   6.828  0.3728  0.8102 -0.8078
   55MOL0     O 7314  -1.275   3.849   6.718  0.5261 -0.9566 -0.4979
   55MOL0     C 7315  -1.405   3.793   6.708  0.1605 -0.0077  0.5878
   55MOL0     C 7316  -1.488   3.839   6.607 -0.2207 -0.0694  0.3093
   55MOL0     C 7317  -1.612   3.784   6.573  0.9067 -0.6407  0.0421
   55MOL0     C 7318  -1.694   3.855   6.457  0.0012 -0.1025 -0.4949
   55MOL0     C 7319  -1.659   3.680   6.659 -0.6454  1.0999 -0.7129
   55MOL0     C 7320  -1.798   3.630   6.652 -0.2089 -0.5442 -0.4223
   55MOL0     O 7321  -1.826   3.526   6.736 -0.7525  0.0557 -0.2100
   55MOL0     C 7322  -1.954   3.477   6.728  0.2469  0.0047 -0.2706
   55MOL0     C 7323  -2.052   3.527   6.815 -0.6263  0.5275  0.0692
   55MOL0     C 7324  -2.179   3.484   6.817  1.0217 -0.3631 -0.4041
   55MOL0     C 7325  -2.213   3.370   6.747  0.4049  0.0249 -0.4840
   55MOL0     O 7326  -2.344   3.321   6.762 -0.8780  0.2201  0.0746
   55MOL0     C 7327  -2.390   3.226   6.671 -0.1221  0.8890 -0.0214
   55MOL0     C 7328  -2.541   3.239   6.662 -0.9493  0.4341 -0.0443
   55MOL0     C 7329  -2.612   3.139   6.563  0.0459  0.1247 -0.0791
   55MOL0     C 7330  -2.763   3.175   6.565  0.7088 -0.6406  1.5836
   55MOL0     C 7331  -2.845   3.057   6.504  0.6328  0.2837 -0.1228
   55MOL0     C 7332  -2.993   3.091   6.500 -0.0032 -0.9798  0.5997
   55MOL0     C 7333  -3.060   2.968   6.445 -1.5803  0.8917 -0.0689
   55MOL0     C 7334  -3.213   2.971   6.452  0.3678  0.1223 -0.2006
   55MOL0    Cl 7335  -3.299   2.815   6.419 -0.2753 -0.4131  0.0596
   55MOL0     C 7336  -2.112   3.317   6.658  0.0829 -0.6521  0.6225
   55MOL0     C 7337  -1.987   3.373   6.646  0.2257 -0.3676  0.0784
   55MOL0     O 7338  -1.885   3.709   6.602 -0.3550  0.2961 -1.0007
   55MOL0     C 7339  -1.574   3.630   6.762 -0.1587  0.5468 -0.5087
   55MOL0     C 7340  -1.450   3.684   6.780 -0.1326 -0.2963  0.2405
   55MOL0     N 7341  -0.677   3.932   6.718 -0.2226  0.1369 -0.3174
   55MOL0     N 7342  -0.572   3.854   6.693  0.3793 -0.5160  0.5453
   55MOL0     C 7343   0.431   4.084   6.254  0.2782 -0.3834  0.6696
   55MOL0     C 7344   0.562   4.088   6.194  0.5453 -0.3667  0.4648
   55MOL0     C 7345   1.037   4.067   6.200  0.4377 -0.1341 -0.3350
   55MOL0     C 7346   1.157   4.082   6.268 -0.1478  0.5510  0.4185
   55MOL0     C 7347   1.278   4.060   6.201  0.0465 -0.5347 -0.9364
   55MOL0     C 7348   1.288   4.019   6.070 -0.2370 -0.3353  0.4407
   55MOL0     O 7349   1.408   3.982   6.014 -0.4542 -0.7100 -0.6893
   55MOL0     C 7350   1.503   3.925   6.106  1.5092  0.8157  0.2255
   55MOL0     C 7351   1.617   3.878   6.008 -0.6167  0.1200 -0.2574
   55MOL0     C 7352   1.704   3.989   5.944  0.1088 -0.3645  0.1832
   55MOL0     C 7353   1.786   3.929   5.838 -0.4720  0.2222  0.5344
   55MOL0     C 7354   1.866   4.032   5.773 -1.3228 -0.1219  0.4864
   55MOL0     C 7355   1.935   4.119   5.710 -0.0812 -0.8698 -0.4091
   55MOL0     C 7356   1.171   4.020   6.003 -0.7608 -0.3352 -0.9672
   55MOL0     C 7357   1.047   4.043   6.062 -0.6855 -1.2015  0.0637
   55MOL0     H 7358   0.750   3.974   6.450  0.9681  0.7667  0.5579
   55MOL0     H 7359   0.536   3.976   6.556 -0.9556 -2.7583 -0.8628
   55MOL0     H 7360   0.321   3.851   6.556 -0.0576 -0.3092 -2.4417
   55MOL0     H 7361   0.309   4.006   6.639  0.6796  0.3208 -0.3402
   55MOL0     H 7362   0.067   4.006   6.604  0.0629  0.6622 -0.9403
   55MOL0     H 7363   0.071   3.863   6.493 -0.0832 -2.1983  1.3470
   55MOL0     H 7364   0.155   3.722   6.659  0.8412 -0.0152  1.5065
   55MOL0     H 7365   0.157   3.852   6.784 -0.3169 -0.0363  0.8775
   55MOL0     H 7366  -0.093   3.860   6.681  1.6922  0.0015  0.6839
   55MOL0     H 7367  -0.059   3.685   6.650 -0.6353 -1.3929  1.0585
   55MOL0     H 7368   0.013   3.659   6.879 -0.6121 -1.6176 -0.8434
   55MOL0     H 7369  -0.053   3.823   6.920  0.7306 -0.3118  0.0887
   55MOL0     H 7370  -0.223   3.606   6.764 -5.6755  2.3649 -0.4465
   55MOL0     H 7371  -0.196   3.597   6.936  2.0259 -0.1111 -0.0223
   55MOL0     H 7372  -0.309   3.785   6.982  2.6715 -0.1118 -0.3925
   55MOL0     H 7373  -0.304   3.863   6.820  0.2738 -0.7803 -1.3783
   55MOL0     H 7374  -0.495   3.639   6.913 -1.7324 -0.9641 -1.5524
   55MOL0     H 7375  -0.447   3.645   6.735  1.8531  1.5881 -0.4084
   55MOL0     H 7376  -0.672   3.795   7.000  0.2690 -1.4113 -0.1145
   55MOL0     H 7377  -0.845   3.999   7.007 -1.6596 -1.3280  0.3556
   55MOL0     H 7378  -0.894   4.054   6.843  1.0248 -0.1852 -0.7973
   55MOL0     H 7379  -1.019   3.870   6.999 -1.0574 -0.8563 -0.7515
   55MOL0     H 7380  -0.922   3.753   6.913  0.4229 -0.8842 -1.7781
   55MOL0     H 7381  -1.024   3.835   6.699  0.2664  1.1442 -0.4805
   55MOL0     H 7382  -1.088   3.981   6.786  0.1433 -0.2622 -0.3681
   55MOL0     H 7383  -1.227   3.841   6.928 -0.2243  0.7431 -0.9800
   55MOL0     H 7384  -1.172   3.701   6.833  0.7097  0.8942  3.0447
   55MOL0     H 7385  -1.439   3.909   6.540  2.1148 -1.7593  0.1342
   55MOL0     H 7386  -1.777   3.910   6.502  0.1465 -0.4852  0.2592
   55MOL0     H 7387  -1.630   3.932   6.413 -1.2164  1.4569  0.3791
   55MOL0     H 7388  -1.741   3.789   6.384 -0.9215  1.8107 -1.7041
   55MOL0     H 7389  -2.016   3.597   6.889  0.3783  0.9084 -0.7448
   55MOL0     H 7390  -2.247   3.532   6.887  0.2486 -0.9742 -0.7212
   55MOL0     H 7391  -2.355   3.239   6.568 -0.2330 -1.6698 -0.4628
   55MOL0     H 7392  -2.361   3.123   6.695  0.1776  0.6630 -1.2459
   55MOL0     H 7393  -2.584   3.222   6.761  0.1014  0.5020  0.4392
   55MOL0     H 7394  -2.562   3.339   6.625 -1.7647 -1.4965 -5.9398
   55MOL0     H 7395  -2.588   3.039   6.601  2.7462  0.0202 -1.7565
   55MOL0     H 7396  -2.571   3.152   6.462  0.8232 -0.1504  0.1922
   55MOL0     H 7397  -2.792   3.183   6.670  0.7733 -3.0120  1.8579
   55MOL0     H 7398  -2.791   3.271   6.522 -0.6964 -1.6382  0.1502
   55MOL0     H 7399  -2.830   2.973   6.573 -1.7319  1.3476  1.8329
   55MOL0     H 7400  -2.808   3.043   6.402  0.8610  2.4285 -0.3925
   55MOL0     H 7401  -3.034   3.112   6.599  0.0591 -0.4684  0.5200
   55MOL0     H 7402  -3.006   3.170   6.425  1.9238 -1.2929 -0.1209
   55MOL0     H 7403  -3.026   2.880   6.501 -0.7746  0.7123 -0.8249
   55MOL0     H 7404  -3.029   2.954   6.341 -1.1001  4.0119 -0.4232
   55MOL0     H 7405  -3.250   3.043   6.378  2.5248  2.3526  0.7288
   55MOL0     H 7406  -3.250   3.005   6.549  0.9802  0.8312 -0.2029
   55MOL0     H 7407  -2.118   3.232   6.592  3.3892 -0.1060 -0.5499
   55MOL0     H 7408  -1.918   3.325   6.577  1.4483  0.4612  0.6991
   55MOL0     H 7409  -1.599   3.546   6.825  1.5121 -0.4153 -1.0693
   55MOL0     H 7410  -1.382   3.632   6.847  0.8098  2.6942  1.7871
   55MOL0     H 7411   0.346   4.111   6.193  0.2259 -0.6608  0.6186
   55MOL0     H 7412   0.592   4.125   6.096  2.8119  1.9904  1.9287
   55MOL0     H 7413   1.156   4.117   6.370  0.3251 -0.2060  0.6936
   55MOL0     H 7414   1.362   4.081   6.266 -1.7318 -0.1506  1.3884
   55MOL0     H 7415   1.539   3.989   6.187 -0.1548  0.0052  1.6875
   55MOL0     H 7416   1.447   3.842   6.150  3.3283 -1.2211 -1.0946
   55MOL0     H 7417   1.565   3.820   5.931  0.0918 -0.5366 -0.2485
   55MOL0     H 7418   1.675   3.812   6.074 -1.6069 -0.3770  0.1393
   55MOL0     H 7419   1.767   4.025   6.026  1.2077 -0.6860 -0.5015
   55MOL0     H 7420   1.639   4.068   5.905 -2.8010 -2.6538  0.0269
   55MOL0     H 7421   1.727   3.874   5.764  1.0367 -0.8579  0.0888
   55MOL0     H 7422   1.857   3.851   5.869 -1.1321 -1.0035 -0.9146
   55MOL0     H 7423   1.985   4.195   5.655  1.9681 -1.7995  0.0630
   55MOL0     H 7424   1.196   4.002   5.899  1.3711  0.6181 -0.6630
   55MOL0     H 7425   0.957   4.037   6.001 -4.0022  1.3226  4.0667
   56MOL0     O 7426   4.532   4.319   9.633  0.6495  0.3898  0.0466
   56MOL0     C 7427   4.641   4.378   9.620 -0.3459  0.2213 -0.3016
   56MOL0     O 7428   4.654   4.515   9.600  0.3836 -1.0470 -0.1592
   56MOL0     C 7429   4.539   4.600   9.608  0.1107  1.3728  0.1738
   56MOL0     C 7430   4.445   4.597   9.709  0.0761 -0.1105 -0.7099
   56MOL0     C 7431   4.332   4.678   9.717  0.8724 -0.1454  0.0629
   56MOL0     C 7432   4.311   4.768   9.612 -0.1257  0.0723 -0.3061
   56MOL0     O 7433   4.205   4.847   9.598 -0.4335  0.2042 -0.0905
   56MOL0     C 7434   4.087   4.808   9.670  0.3265  0.2013  0.3417
   56MOL0     C 7435   3.974   4.908   9.637 -0.0341  0.2119 -0.2733
   56MOL0     C 7436   3.838   4.861   9.672  0.2644  0.1006  0.2706
   56MOL0     C 7437   3.727   4.959   9.635  0.4231  0.8582 -0.2999
   56MOL0     C 7438   3.586   4.934   9.685 -0.8307 -0.7589 -0.0792
   56MOL0     C 7439   3.540   4.789   9.684  0.6550  1.1156  0.9189
   56MOL0     C 7440   3.396   4.790   9.734 -0.0728 -0.0565  0.0732
   56MOL0     C 7441   3.359   4.642   9.761 -0.5326  0.0009 -0.0034
   56MOL0     N 7442   3.225   4.620   9.819 -0.6217  0.0900 -0.4542
   56MOL0     C 7443   3.152   4.508   9.797 -0.8023  0.1585  0.0807
   56MOL0     C 7444   3.025   4.526   9.843 -0.2469 -0.5886  0.3336
   56MOL0     C 7445   2.911   4.434   9.846  0.4661  0.8737 -0.2557
   56MOL0     C 7446   2.796   4.501   9.776  0.3852  0.8896  0.3244
   56MOL0     C 7447   2.654   4.433   9.792 -0.5335 -0.0618  0.0404
   56MOL0     C 7448   2.551   4.469   9.687  0.2833 -0.0433 -0.6971
   56MOL0     O 7449   2.510   4.604   9.711 -0.1037  0.1374 -0.3128
   56MOL0     C 7450   2.394   4.647   9.649  1.2230 -0.0967 -0.3883
   56MOL0     C 7451   2.362   4.608   9.521 -0.1464  0.4423  0.2287
   56MOL0     C 7452   2.244   4.662   9.454 -0.5234  0.0093  0.8679
   56MOL0     C 7453   2.230   4.626   9.310 -0.0484  0.2312  0.2706
   56MOL0     C 7454   2.152   4.744   9.529 -0.3076 -0.4183 -0.0080
   56MOL0     C 7455   2.024   4.785   9.466  0.0929 -0.0143  0.5209
   56MOL0     O 7456   1.953   4.691   9.401 -0.1286 -0.3346 -0.4183
   56MOL0     C 7457   1.827   4.730   9.353  0.7877 -0.3314 -0.1900
   56MOL0     C 7458   1.715   4.673   9.410  0.3087  0.2899  0.5188
   56MOL0     C 7459   1.589   4.723   9.398 -0.7000 -1.0142  0.3184
   56MOL0     C 7460   1.567   4.831   9.307 -0.0330 -0.2295 -0.9747
   56MOL0     O 7461   1.437   4.870   9.294  0.5079  0.3572  0.5546
   56MOL0     C 7462   1.379   4.922   9.412  0.4457  0.5927  0.6972
   56MOL0     C 7463   1.229   4.909   9.390 -0.1080  0.0664  0.0940
   56MOL0     C 7464   1.178   4.769   9.408  0.0402  0.1379  0.3081
   56MOL0     C 7465   1.026   4.757   9.420  0.0230  0.3339 -0.1773
   56MOL0     C 7466   0.944   4.836   9.313  0.1486 -0.0961 -0.1640
   56MOL0     C 7467   0.831   4.750   9.249  0.4843  0.1744  0.4719
   56MOL0     C 7468   0.698   4.757   9.330 -0.1705  0.7293  0.3198
   56MOL0     C 7469   0.694   4.706   9.473 -0.0567 -0.0013 -0.3825
   56MOL0    Cl 7470   0.757   4.542   9.494 -0.0947  0.0258  0.0626
   56MOL0     C 7471   1.672   4.870   9.234 -0.2156  0.2317  0.3507
   56MOL0     C 7472   1.799   4.830   9.257 -0.2964  0.1673  0.9440
   56MOL0     O 7473   2.000   4.904   9.474 -0.5388 -0.7122 -0.9510
   56MOL0     C 7474   2.176   4.768   9.668 -0.4163 -0.7337  0.0329
   56MOL0     C 7475   2.304   4.730   9.720 -0.4345  0.1761  0.6289
   56MOL0     N 7476   3.028   4.650   9.910  0.0263  0.1232 -0.3618
   56MOL0     N 7477   3.143   4.700   9.896 -0.4706 -0.6025 -0.2929
   56MOL0     C 7478   4.414   4.779   9.505  1.3264  0.4628  0.4694
   56MOL0     C 7479   4.520   4.690   9.503 -0.0502  0.9961 -0.3904
   56MOL0     C 7480   4.759   4.293   9.613  0.8226 -0.0161  1.0794
   56MOL0     C 7481   4.878   4.356   9.644 -0.3789  0.2484  0.4642
   56MOL0     C 7482   5.000   4.289   9.652  0.2677 -1.0568  0.7087
   56MOL0     C 7483   5.002   4.151   9.633 -0.4308 -0.0401  0.2562
   56MOL0     O 7484   5.111   4.071   9.655 -0.4210  0.3776  0.2387
   56MOL0     C 7485   5.235   4.135   9.666  0.0740  0.0289  0.4730
   56MOL0     C 7486   5.334   4.016   9.654 -0.0690 -0.6233  0.3144
   56MOL0     C 7487   5.472   4.079   9.641 -0.3953 -0.3502 -0.9851
   56MOL0     C 7488   5.592   3.979   9.637  0.1025  0.2053  0.2070
   56MOL0     C 7489   5.586   3.886   9.523  1.2553  0.2875  0.0510
   56MOL0     C 7490   5.578   3.803   9.432 -0.0693  0.7589 -0.2678
   56MOL0     C 7491   4.876   4.088   9.599 -0.3327 -0.3186 -0.1470
   56MOL0     C 7492   4.757   4.161   9.589 -0.4483  0.8013 -0.9066
   56MOL0     H 7493   4.469   4.536   9.796 -1.9530  1.7927  1.3308
   56MOL0     H 7494   4.276   4.684   9.809 -0.9817 -1.8427 -0.8593
   56MOL0     H 7495   4.056   4.712   9.627  0.6000  0.2698 -0.0150
   56MOL0     H 7496   4.110   4.798   9.776 -4.0394 -0.3985  1.4029
   56MOL0     H 7497   4.005   4.996   9.694  1.7123 -1.0885  0.8949
   56MOL0     H 7498   3.973   4.933   9.530 -0.7706  0.2836 -0.2518
   56MOL0     H 7499   3.820   4.760   9.634  0.6127 -0.3869  1.3493
   56MOL0     H 7500   3.830   4.847   9.780 -0.6535  2.6265  0.5938
   56MOL0     H 7501   3.748   5.059   9.675 -2.4652  1.5569 -0.3373
   56MOL0     H 7502   3.726   4.977   9.527  1.8639 -2.2991 -0.9673
   56MOL0     H 7503   3.578   4.977   9.785  4.7646 -0.0058  0.4045
   56MOL0     H 7504   3.525   4.990   9.613  0.7969  2.1684  0.6136
   56MOL0     H 7505   3.554   4.742   9.586 -1.0458 -0.8719  1.5594
   56MOL0     H 7506   3.594   4.741   9.766  2.5110 -0.3676 -1.0542
   56MOL0     H 7507   3.379   4.852   9.822 -1.4904  4.0185 -2.7460
   56MOL0     H 7508   3.332   4.818   9.650 -0.3791 -2.0844 -0.4401
   56MOL0     H 7509   3.428   4.587   9.824 -1.2874  0.3867  1.1914
   56MOL0     H 7510   3.375   4.586   9.668  2.5150  3.5786 -1.9645
   56MOL0     H 7511   3.167   4.419   9.737 -0.9668 -1.3092  2.1043
   56MOL0     H 7512   2.934   4.342   9.791  0.5574  1.2028 -0.7777
   56MOL0     H 7513   2.888   4.411   9.950 -0.8893  4.3541  0.3455
   56MOL0     H 7514   2.805   4.501   9.667 -1.4344  2.2852  0.1118
   56MOL0     H 7515   2.784   4.606   9.805 -2.2697  1.0244 -1.0029
   56MOL0     H 7516   2.618   4.463   9.891 -0.8998 -2.4490  0.6749
   56MOL0     H 7517   2.685   4.329   9.777  4.4878  0.9450  1.4869
   56MOL0     H 7518   2.463   4.404   9.694  0.0585  0.0197 -2.4806
   56MOL0     H 7519   2.603   4.473   9.590 -0.6677  0.1754 -1.2147
   56MOL0     H 7520   2.430   4.540   9.471 -0.9257 -1.2480  1.3653
   56MOL0     H 7521   2.309   4.560   9.274  1.7530  2.5701 -0.3412
   56MOL0     H 7522   2.143   4.565   9.286  1.1676 -1.6223  0.3581
   56MOL0     H 7523   2.221   4.717   9.249 -1.0212  0.5904  0.9195
   56MOL0     H 7524   1.740   4.596   9.483  2.2186 -0.7541 -1.1398
   56MOL0     H 7525   1.511   4.673   9.455  1.2801 -2.1398  2.1837
   56MOL0     H 7526   1.409   4.872   9.504 -0.4165 -0.6156  0.3468
   56MOL0     H 7527   1.415   5.025   9.421  0.8189  0.2775  4.0753
   56MOL0     H 7528   1.184   4.963   9.474 -3.3013  2.1085 -2.6810
   56MOL0     H 7529   1.198   4.947   9.292 -3.2484  0.4263  1.1314
   56MOL0     H 7530   1.218   4.725   9.500 -0.4193  0.4289  0.6516
   56MOL0     H 7531   1.211   4.713   9.320  1.1617  0.6420  0.3875
   56MOL0     H 7532   0.993   4.653   9.418 -0.0993  0.3827 -0.6218
   56MOL0     H 7533   0.997   4.798   9.518  1.7681  0.3116  0.3698
   56MOL0     H 7534   1.010   4.855   9.228 -0.9288  0.6047 -0.8777
   56MOL0     H 7535   0.910   4.934   9.348 -3.4325 -0.6589 -1.6380
   56MOL0     H 7536   0.817   4.787   9.147 -1.2723  1.2517  1.0758
   56MOL0     H 7537   0.867   4.649   9.225  1.8498  0.8806 -0.6421
   56MOL0     H 7538   0.619   4.709   9.271  0.1364  3.7593 -2.8506
   56MOL0     H 7539   0.667   4.861   9.333 -1.7601  0.2659  1.8873
   56MOL0     H 7540   0.600   4.721   9.526 -0.0998  3.0281 -1.1132
   56MOL0     H 7541   0.749   4.773   9.540 -1.6494 -0.2418  1.2455
   56MOL0     H 7542   1.637   4.951   9.170 -1.6701 -1.0220 -0.4985
   56MOL0     H 7543   1.876   4.879   9.199 -2.2024  0.6121 -1.3846
   56MOL0     H 7544   2.115   4.837   9.726  1.4269 -0.5904  1.9355
   56MOL0     H 7545   2.341   4.753   9.819  0.3427 -1.7670  0.8320
   56MOL0     H 7546   4.390   4.846   9.423  4.8767 -0.2396 -1.3224
   56MOL0     H 7547   4.586   4.692   9.417  0.5085 -1.4200 -0.0697
   56MOL0     H 7548   4.865   4.458   9.679 -2.6641  1.0029 -2.1896
   56MOL0     H 7549   5.080   4.357   9.681  0.3211  0.5989 -2.7733
   56MOL0     H 7550   5.252   4.210   9.589 -0.9720 -0.6664 -0.4644
   56MOL0     H 7551   5.250   4.179   9.765 -1.5783  1.9588 -0.0699
   56MOL0     H 7552   5.308   3.973   9.557 -1.9141  1.0155  0.0143
   56MOL0     H 7553   5.326   3.944   9.736 -0.8282  1.4970  2.2207
   56MOL0     H 7554   5.488   4.151   9.722  1.4223 -0.8488 -0.8606
   56MOL0     H 7555   5.470   4.141   9.551  1.8985  1.5159  0.1369
   56MOL0     H 7556   5.604   3.926   9.732 -0.7003 -0.2328  0.0693
   56MOL0     H 7557   5.685   4.035   9.623  0.4377 -0.6460 -1.1481
   56MOL0     H 7558   5.569   3.728   9.356  0.2984  2.0891 -1.6940
   56MOL0     H 7559   4.878   3.980   9.588 -1.2649 -0.4119  0.5023
   56MOL0     H 7560   4.676   4.089   9.573  2.9877 -3.4502 -1.0952
   57MOL0     O 7561   0.467   3.950   4.628 -0.4154 -0.9713  0.1707
   57MOL0     C 7562   0.495   3.945   4.506  0.0959 -0.1953  0.3117
   57MOL0     O 7563   0.408   3.937   4.395 -0.2773  0.3342 -0.0820
   57MOL0     C 7564   0.276   3.922   4.419  0.9302 -0.1835  0.0150
   57MOL0     C 7565   0.214   3.837   4.511  0.1130 -0.0294 -0.2721
   57MOL0     C 7566   0.078   3.836   4.536 -0.9900  0.3026  0.2860
   57MOL0     C 7567  -0.009   3.922   4.468 -0.4474  1.0644 -0.2512
   57MOL0     O 7568  -0.138   3.910   4.507 -0.3710 -0.7166 -0.8455
   57MOL0     C 7569  -0.208   4.026   4.498 -0.0973  0.0820 -0.6759
   57MOL0     C 7570  -0.344   3.985   4.539 -0.4948 -0.4756 -0.0181
   57MOL0     C 7571  -0.406   3.911   4.422  0.0787 -0.5239  0.6855
   57MOL0     C 7572  -0.508   3.812   4.467 -0.1586 -0.1871 -0.0199
   57MOL0     C 7573  -0.617   3.882   4.546 -0.3916 -0.3788 -0.3909
   57MOL0     C 7574  -0.725   3.957   4.459  0.0894 -0.3680 -0.3351
   57MOL0     C 7575  -0.839   4.009   4.548  0.3546 -0.4656  0.1817
   57MOL0     C 7576  -0.943   4.056   4.445 -0.1164  0.1792  0.4170
   57MOL0     N 7577  -1.070   4.096   4.512  0.2081 -0.5515  0.4364
   57MOL0     C 7578  -1.075   4.147   4.635  0.7150 -0.0177  0.1411
   57MOL0     C 7579  -1.200   4.130   4.682 -0.0413 -0.0319 -0.4530
   57MOL0     C 7580  -1.257   4.197   4.795  0.2403 -0.5868 -0.6224
   57MOL0     C 7581  -1.269   4.095   4.911  0.0507 -0.2756  0.0911
   57MOL0     C 7582  -1.369   4.155   5.021  0.7944  0.3584  0.5969
   57MOL0     C 7583  -1.365   4.063   5.146 -0.7890  0.1165  0.1145
   57MOL0     O 7584  -1.431   3.934   5.118  0.1800 -0.2134  0.1357
   57MOL0     C 7585  -1.570   3.916   5.128  0.0100 -0.3268  0.6846
   57MOL0     C 7586  -1.664   4.006   5.178  0.4995 -0.2930  1.1345
   57MOL0     C 7587  -1.807   3.979   5.174 -0.6498 -0.2743  0.5175
   57MOL0     C 7588  -1.895   4.085   5.216  0.1215 -0.2842 -0.1375
   57MOL0     C 7589  -1.854   3.848   5.136 -0.7456 -0.6341  0.5270
   57MOL0     C 7590  -2.005   3.808   5.143 -0.4807 -0.0519  0.0106
   57MOL0     O 7591  -2.100   3.880   5.221  0.1271 -0.1046  0.5043
   57MOL0     C 7592  -2.217   3.813   5.240  0.4373  0.2601  0.0608
   57MOL0     C 7593  -2.217   3.698   5.319 -0.7911 -0.5173  0.2893
   57MOL0     C 7594  -2.334   3.629   5.347  1.0090  0.5481 -0.0623
   57MOL0     C 7595  -2.459   3.685   5.302 -0.8156 -0.9343  1.0615
   57MOL0     O 7596  -2.575   3.637   5.350  0.3390 -0.2256 -0.7965
   57MOL0     C 7597  -2.662   3.730   5.416 -0.4324  0.2616  0.2913
   57MOL0     C 7598  -2.742   3.639   5.525 -0.4948 -0.2987 -0.3780
   57MOL0     C 7599  -2.875   3.695   5.571  1.1752  0.3503 -0.3237
   57MOL0     C 7600  -2.926   3.621   5.700 -0.0036 -0.6789 -0.1010
   57MOL0     C 7601  -3.071   3.637   5.730  0.7680  0.0815  0.4405
   57MOL0     C 7602  -3.116   3.783   5.740 -0.3896 -0.0381 -0.1939
   57MOL0     C 7603  -3.247   3.801   5.828 -1.2684  0.8273  0.0398
   57MOL0     C 7604  -3.360   3.720   5.759  0.5624  1.3257 -0.1755
   57MOL0    Cl 7605  -3.508   3.793   5.833  0.2078 -0.1629  0.0017
   57MOL0     C 7606  -2.459   3.803   5.229 -0.7757  0.1273  0.3569
   57MOL0     C 7607  -2.343   3.861   5.194 -1.1302 -0.0049  0.4125
   57MOL0     O 7608  -2.029   3.704   5.081 -0.6513 -0.1095  0.5537
   57MOL0     C 7609  -1.758   3.758   5.085  0.6354 -0.6385 -0.8002
   57MOL0     C 7610  -1.618   3.791   5.081 -0.5067 -0.2300  0.3501
   57MOL0     N 7611  -1.269   4.064   4.581 -0.2692  0.0521  0.0329
   57MOL0     N 7612  -1.189   4.039   4.481  0.5574 -0.1195  0.2933
   57MOL0     C 7613   0.048   4.009   4.370  0.3099 -0.0016  0.5529
   57MOL0     C 7614   0.185   4.004   4.340  0.0639 -0.1837 -1.1170
   57MOL0     C 7615   0.640   3.951   4.465 -0.3681 -0.6340 -0.5246
   57MOL0     C 7616   0.673   3.962   4.328 -0.2213 -0.7847  0.5135
   57MOL0     C 7617   0.810   3.940   4.286 -0.4110 -0.6160  0.5430
   57MOL0     C 7618   0.910   3.908   4.378  0.6407  0.5890 -0.5308
   57MOL0     O 7619   1.041   3.886   4.349  0.4133  0.1592  0.2821
   57MOL0     C 7620   1.081   3.870   4.218  0.4532  0.4471 -0.2118
   57MOL0     C 7621   1.225   3.833   4.207 -0.2310  0.4435  0.1103
   57MOL0     C 7622   1.264   3.698   4.262 -0.4923  0.1514 -0.4873
   57MOL0     C 7623   1.412   3.676   4.230 -0.2912  0.9220 -0.5198
   57MOL0     C 7624   1.471   3.566   4.311 -0.2676 -0.2478 -0.3807
   57MOL0     C 7625   1.524   3.480   4.371 -0.9264 -0.6417  0.3535
   57MOL0     C 7626   0.875   3.911   4.512  0.5891  0.2803  0.1226
   57MOL0     C 7627   0.747   3.926   4.560 -0.5396  0.3977  1.2420
   57MOL0     H 7628   0.274   3.765   4.566  0.3933  0.9720  0.7885
   57MOL0     H 7629   0.029   3.754   4.589  0.1073 -1.7353 -1.6979
   57MOL0     H 7630  -0.165   4.097   4.569  0.6677 -0.9467 -0.0850
   57MOL0     H 7631  -0.205   4.070   4.398 -1.3676  0.6707 -0.4828
   57MOL0     H 7632  -0.342   3.931   4.634 -2.4962 -0.4298  0.0862
   57MOL0     H 7633  -0.396   4.079   4.560 -1.8161 -1.5905  2.0137
   57MOL0     H 7634  -0.446   3.986   4.354 -2.0586 -1.3908  0.9260
   57MOL0     H 7635  -0.337   3.856   4.357 -0.2907  0.6098 -0.7091
   57MOL0     H 7636  -0.558   3.751   4.391 -2.5106  1.1107  0.4102
   57MOL0     H 7637  -0.462   3.737   4.532  0.4436  0.7602  0.6704
   57MOL0     H 7638  -0.677   3.812   4.606 -1.0190  1.0297  0.6903
   57MOL0     H 7639  -0.566   3.944   4.620  0.8244 -0.2379 -1.3150
   57MOL0     H 7640  -0.675   4.034   4.400 -1.4401 -0.6478 -2.1043
   57MOL0     H 7641  -0.777   3.894   4.386  1.0422 -0.5896 -0.8493
   57MOL0     H 7642  -0.868   3.917   4.600 -2.0645 -0.8850 -1.7255
   57MOL0     H 7643  -0.806   4.090   4.613  0.4261  0.5057 -1.0277
   57MOL0     H 7644  -0.966   3.978   4.372 -2.2946 -0.0405  1.2813
   57MOL0     H 7645  -0.904   4.140   4.387  1.1655 -1.3973 -1.1344
   57MOL0     H 7646  -0.997   4.210   4.677 -1.3984  2.9832 -0.0779
   57MOL0     H 7647  -1.185   4.275   4.822  2.4913 -2.5641 -0.6477
   57MOL0     H 7648  -1.353   4.241   4.766  0.5056 -0.0985 -0.7710
   57MOL0     H 7649  -1.173   4.084   4.963  1.0877  3.0397 -0.8464
   57MOL0     H 7650  -1.308   4.003   4.868  1.6644  0.7800 -4.0667
   57MOL0     H 7651  -1.467   4.138   4.976  0.9117 -1.6004  1.0056
   57MOL0     H 7652  -1.347   4.261   5.042  1.0540  1.3870 -3.7918
   57MOL0     H 7653  -1.413   4.108   5.234 -0.7752 -0.4796  0.4280
   57MOL0     H 7654  -1.258   4.053   5.164 -0.2244  2.0691 -1.7425
   57MOL0     H 7655  -1.626   4.105   5.202  0.1684  0.4579 -1.1995
   57MOL0     H 7656  -1.843   4.181   5.230  0.2360 -0.2837 -0.5588
   57MOL0     H 7657  -1.974   4.096   5.141  3.5301  0.2015 -4.0548
   57MOL0     H 7658  -1.941   4.068   5.314  0.4127  3.7637  0.8986
   57MOL0     H 7659  -2.118   3.664   5.346  0.3869  2.2190 -0.2351
   57MOL0     H 7660  -2.339   3.537   5.404 -1.8807 -0.3670 -1.5752
   57MOL0     H 7661  -2.607   3.804   5.476  2.5644 -0.7005 -1.0533
   57MOL0     H 7662  -2.731   3.770   5.341  2.2976 -0.8028 -3.0670
   57MOL0     H 7663  -2.748   3.542   5.476  0.8593  0.3634 -1.9481
   57MOL0     H 7664  -2.689   3.623   5.620 -0.8382  0.8929  0.0316
   57MOL0     H 7665  -2.944   3.664   5.491  0.6719  0.5899  0.0094
   57MOL0     H 7666  -2.877   3.804   5.578  0.8884  0.3802 -0.7891
   57MOL0     H 7667  -2.900   3.515   5.694 -1.2969 -1.1345  1.5254
   57MOL0     H 7668  -2.879   3.649   5.794 -2.9737 -2.4355  2.1034
   57MOL0     H 7669  -3.090   3.584   5.824  0.6425 -0.0466  0.3431
   57MOL0     H 7670  -3.124   3.588   5.648  1.6242 -3.1726  1.6972
   57MOL0     H 7671  -3.034   3.840   5.783 -3.4024  4.1402  0.6569
   57MOL0     H 7672  -3.143   3.820   5.640 -3.6852 -0.1231  0.5282
   57MOL0     H 7673  -3.262   3.910   5.823  1.7731  1.3839  1.2577
   57MOL0     H 7674  -3.248   3.775   5.934 -2.8449  1.7197  0.2806
   57MOL0     H 7675  -3.355   3.612   5.779 -0.6020  1.3436  0.2801
   57MOL0     H 7676  -3.363   3.742   5.652  1.7145  2.7770  0.0532
   57MOL0     H 7677  -2.552   3.850   5.197  0.1483  1.0744 -1.0606
   57MOL0     H 7678  -2.341   3.952   5.136  1.3179 -1.8149 -2.6425
   57MOL0     H 7679  -1.781   3.657   5.052  0.8446 -0.8315 -0.3649
   57MOL0     H 7680  -1.549   3.722   5.035  0.8317 -0.0778  2.0249
   57MOL0     H 7681  -0.015   4.076   4.313 -0.5772 -0.9780  0.3395
   57MOL0     H 7682   0.233   4.069   4.268  1.7383 -1.4146 -1.1842
   57MOL0     H 7683   0.604   3.975   4.246 -0.2262  4.5725  1.0420
   57MOL0     H 7684   0.839   3.954   4.182  2.4607  1.6175  1.5013
   57MOL0     H 7685   1.031   3.788   4.166 -1.7026  0.7932  1.2177
   57MOL0     H 7686   1.068   3.967   4.168 -0.9427  0.9409  1.0363
   57MOL0     H 7687   1.290   3.910   4.250 -1.0953  1.2520 -0.0017
   57MOL0     H 7688   1.241   3.838   4.099  1.8254  1.9737  0.4301
   57MOL0     H 7689   1.218   3.613   4.211  3.0790 -4.0011  2.4020
   57MOL0     H 7690   1.235   3.680   4.366  0.8955 -1.3226 -0.3093
   57MOL0     H 7691   1.478   3.762   4.245 -0.8019  0.8981  2.5489
   57MOL0     H 7692   1.422   3.646   4.125  0.4623 -2.7136  0.4571
   57MOL0     H 7693   1.568   3.400   4.427 -0.0260 -0.0881  0.4568
   57MOL0     H 7694   0.960   3.899   4.579  1.8248  1.2153 -1.2096
   57MOL0     H 7695   0.722   3.922   4.665 -2.4581  3.0138  0.9703
   58MOL0     O 7696   1.391  10.397   4.415 -0.5174 -0.5441 -0.5183
   58MOL0     C 7697   1.409  10.428   4.535 -0.4188 -0.9111 -1.3420
   58MOL0     O 7698   1.322  10.500   4.616 -0.6018  0.0898  0.3977
   58MOL0     C 7699   1.193  10.524   4.578 -0.0372  0.7349  0.6005
   58MOL0     C 7700   1.119  10.425   4.517 -0.0775 -0.5673 -0.6065
   58MOL0     C 7701   0.983  10.443   4.479 -0.6782 -0.4003 -0.1996
   58MOL0     C 7702   0.925  10.570   4.494 -0.4914  0.2244  0.4413
   58MOL0     O 7703   0.795  10.596   4.469  0.0877  0.6531 -0.1651
   58MOL0     C 7704   0.716  10.492   4.395  0.2134 -0.9379  0.1669
   58MOL0     C 7705   0.607  10.582   4.325 -0.5112 -0.1629 -0.2158
   58MOL0     C 7706   0.508  10.493   4.240  0.4766  0.2298  0.5264
   58MOL0     C 7707   0.367  10.562   4.242  0.1460  0.5998 -0.2561
   58MOL0     C 7708   0.268  10.475   4.175  0.2659  0.3438  0.4138
   58MOL0     C 7709   0.129  10.528   4.165 -0.1328  0.4432  0.2429
   58MOL0     C 7710   0.024  10.435   4.112  0.4543 -0.4900 -0.3013
   58MOL0     C 7711   0.016  10.403   3.961 -0.3347  0.4141 -0.4371
   58MOL0     N 7712   0.000  10.514   3.871 -0.0455  0.6850  0.0641
   58MOL0     C 7713  -0.116  10.579   3.842  0.2461  0.3685  0.3559
   58MOL0     C 7714  -0.077  10.673   3.750  0.5194  0.6168 -0.1980
   58MOL0     C 7715  -0.176  10.771   3.697 -0.0319 -0.3036  0.0342
   58MOL0     C 7716  -0.227  10.865   3.806  0.9273  0.2714 -0.1073
   58MOL0     C 7717  -0.318  10.977   3.761  0.5075 -0.2993  0.4017
   58MOL0     C 7718  -0.415  10.953   3.652 -0.6038 -0.0075  0.1049
   58MOL0     O 7719  -0.516  10.869   3.707  0.9780  0.0084 -0.5453
   58MOL0     C 7720  -0.639  10.854   3.644  0.4619 -0.7629  0.2236
   58MOL0     C 7721  -0.668  10.901   3.518  0.3648  0.4574  0.6888
   58MOL0     C 7722  -0.794  10.884   3.467  0.0925  0.4148 -0.1918
   58MOL0     C 7723  -0.819  10.944   3.329 -0.4885 -0.3618  0.3156
   58MOL0     C 7724  -0.895  10.819   3.539  0.0795 -0.2257 -0.6379
   58MOL0     C 7725  -1.039  10.802   3.495 -0.0543 -0.0139  0.4536
   58MOL0     O 7726  -1.141  10.815   3.586  0.1237  0.7807  0.5824
   58MOL0     C 7727  -1.274  10.810   3.542 -0.3841  0.4495  0.5591
   58MOL0     C 7728  -1.367  10.715   3.604  0.3118 -0.6116  0.7500
   58MOL0     C 7729  -1.505  10.710   3.565 -0.2306 -0.1865 -0.2755
   58MOL0     C 7730  -1.557  10.808   3.481  0.3732 -0.2923  0.2246
   58MOL0     O 7731  -1.681  10.806   3.435 -0.8129  0.0741  0.3019
   58MOL0     C 7732  -1.781  10.881   3.510  0.4666  0.9215 -0.1919
   58MOL0     C 7733  -1.926  10.854   3.467 -0.2685 -0.2219  0.1462
   58MOL0     C 7734  -2.022  10.953   3.528  0.0630 -0.2660  0.1671
   58MOL0     C 7735  -2.123  11.006   3.434 -0.1600  0.3587  0.9118
   58MOL0     C 7736  -2.232  11.089   3.494 -0.0499  1.0981  0.2282
   58MOL0     C 7737  -2.347  11.014   3.577  0.7051 -1.2137 -0.3966
   58MOL0     C 7738  -2.445  10.947   3.491  0.3901 -0.0575  0.2654
   58MOL0     C 7739  -2.517  10.844   3.575 -0.1317  0.8150 -0.9299
   58MOL0    Cl 7740  -2.657  10.782   3.466 -0.2565 -0.0836  0.2056
   58MOL0     C 7741  -1.463  10.896   3.426  0.3363  0.3960 -0.2022
   58MOL0     C 7742  -1.325  10.898   3.450  0.0475  0.5124  0.0212
   58MOL0     O 7743  -1.054  10.774   3.375 -0.4660 -0.3319  0.4094
   58MOL0     C 7744  -0.875  10.781   3.674  0.2948  0.2843 -0.4047
   58MOL0     C 7745  -0.744  10.795   3.717  0.4708 -0.8936 -0.0951
   58MOL0     N 7746   0.053  10.670   3.736  0.1407  0.0498 -0.8303
   58MOL0     N 7747   0.104  10.571   3.802  1.0732  0.0358  0.6048
   58MOL0     C 7748   1.002  10.672   4.556  0.6702 -0.2083 -0.2721
   58MOL0     C 7749   1.131  10.643   4.605 -0.3288 -0.2763  0.1479
   58MOL0     C 7750   1.538  10.406   4.607 -0.8077  1.1517 -0.6641
   58MOL0     C 7751   1.645  10.433   4.523 -0.0764 -0.1204  0.7386
   58MOL0     C 7752   1.777  10.438   4.576 -0.3299 -0.4339  0.3856
   58MOL0     C 7753   1.801  10.426   4.715  0.4056  0.7046 -0.3456
   58MOL0     O 7754   1.934  10.434   4.759 -0.1429 -0.1580 -0.3643
   58MOL0     C 7755   1.996  10.558   4.768 -0.2573  0.1739  1.4611
   58MOL0     C 7756   2.084  10.558   4.892  0.1945 -0.7196 -0.1982
   58MOL0     C 7757   2.004  10.558   5.022  0.1815 -0.0987  0.2816
   58MOL0     C 7758   2.093  10.596   5.151 -0.8603 -0.5873  0.0834
   58MOL0     C 7759   2.197  10.496   5.185  0.5878 -0.0655 -0.2611
   58MOL0     C 7760   2.290  10.424   5.193 -0.4456  0.0293  0.2890
   58MOL0     C 7761   1.694  10.394   4.804  0.2851  0.9626 -0.4282
   58MOL0     C 7762   1.557  10.393   4.746  0.1650 -0.8426 -0.3799
   58MOL0     H 7763   1.157  10.326   4.494 -0.1500 -0.3987 -1.4943
   58MOL0     H 7764   0.934  10.356   4.437 -2.2473  0.2437  0.2339
   58MOL0     H 7765   0.764  10.439   4.312  2.2645 -0.0932  0.7439
   58MOL0     H 7766   0.677  10.419   4.466  0.5325 -1.6345 -0.3637
   58MOL0     H 7767   0.564  10.642   4.406  0.3426  0.8386 -0.4800
   58MOL0     H 7768   0.653  10.648   4.251 -0.3648  1.6353  1.3972
   58MOL0     H 7769   0.527  10.478   4.134 -1.8429 -1.4893  0.2789
   58MOL0     H 7770   0.499  10.391   4.280 -1.0326 -0.1003 -0.5847
   58MOL0     H 7771   0.328  10.581   4.342 -0.5540  0.5810 -0.5230
   58MOL0     H 7772   0.371  10.658   4.190 -0.6969  0.3910 -0.7327
   58MOL0     H 7773   0.311  10.454   4.077  1.5122  3.0176  0.2934
   58MOL0     H 7774   0.264  10.383   4.234 -0.0793  1.2055  1.7953
   58MOL0     H 7775   0.110  10.556   4.268 -0.9387  2.4519 -0.4036
   58MOL0     H 7776   0.143  10.618   4.104 -1.3369  0.0634 -0.6249
   58MOL0     H 7777   0.036  10.340   4.165  1.4622 -1.1804 -1.6922
   58MOL0     H 7778  -0.070  10.486   4.133 -0.1110  0.1376 -3.7954
   58MOL0     H 7779  -0.075  10.343   3.952  0.8473 -1.5606  0.2779
   58MOL0     H 7780   0.103  10.342   3.937 -1.5245 -1.0925 -1.1040
   58MOL0     H 7781  -0.217  10.573   3.881 -0.2632  1.3897 -0.7463
   58MOL0     H 7782  -0.128  10.817   3.610 -3.6457  1.8176 -1.0251
   58MOL0     H 7783  -0.267  10.717   3.670  0.0262 -0.3439 -0.0866
   58MOL0     H 7784  -0.143  10.912   3.858 -0.7449  0.5282  2.5465
   58MOL0     H 7785  -0.270  10.809   3.890 -0.8549  0.0418 -1.1174
   58MOL0     H 7786  -0.247  11.048   3.717  0.6118 -1.5297 -1.5449
   58MOL0     H 7787  -0.368  11.023   3.847  0.5240  1.7049 -0.5932
   58MOL0     H 7788  -0.362  10.901   3.572  0.0096 -0.0730  0.5419
   58MOL0     H 7789  -0.454  11.047   3.613  1.7196  0.3864 -1.5145
   58MOL0     H 7790  -0.587  10.953   3.469  1.3601  0.6995  2.5256
   58MOL0     H 7791  -0.908  11.008   3.338 -0.2568  0.0613 -0.3373
   58MOL0     H 7792  -0.745  11.019   3.300 -1.0350 -0.4323 -1.3683
   58MOL0     H 7793  -0.828  10.875   3.244  2.9177 -0.4405 -0.1161
   58MOL0     H 7794  -1.318  10.646   3.672  1.1310  0.0744  0.8729
   58MOL0     H 7795  -1.571  10.631   3.601 -1.7067  0.0705 -2.2402
   58MOL0     H 7796  -1.767  10.858   3.616  1.1371 -3.9453 -1.0900
   58MOL0     H 7797  -1.757  10.986   3.492 -1.7381  1.5804  0.4165
   58MOL0     H 7798  -1.932  10.873   3.359 -1.4626  3.0024  0.6436
   58MOL0     H 7799  -1.948  10.750   3.492  0.0161 -0.1174  0.8367
   58MOL0     H 7800  -1.968  11.040   3.567 -0.6288 -0.1459  0.8687
   58MOL0     H 7801  -2.070  10.901   3.612  1.8715  0.2914  1.6088
   58MOL0     H 7802  -2.079  11.069   3.357 -0.0988  0.1702  0.7922
   58MOL0     H 7803  -2.159  10.915   3.383  0.1300  0.0985  1.1637
   58MOL0     H 7804  -2.280  11.143   3.412  1.2977  0.6462 -0.9041
   58MOL0     H 7805  -2.190  11.155   3.571  0.9990  1.2891 -0.4783
   58MOL0     H 7806  -2.321  10.941   3.654 -3.9808 -1.3356  1.4237
   58MOL0     H 7807  -2.401  11.095   3.627 -1.5085 -3.4267  1.0372
   58MOL0     H 7808  -2.394  10.890   3.413 -0.2549  2.8934 -2.5712
   58MOL0     H 7809  -2.515  11.015   3.442 -0.3208  0.3091  1.7375
   58MOL0     H 7810  -2.555  10.888   3.668  2.6830 -0.9383  1.2301
   58MOL0     H 7811  -2.467  10.760   3.624  0.1329  1.0464 -0.7982
   58MOL0     H 7812  -1.501  10.968   3.353 -0.4310 -1.8801 -2.1796
   58MOL0     H 7813  -1.258  10.968   3.401 -1.5264  1.0562 -1.4888
   58MOL0     H 7814  -0.955  10.739   3.733  0.1977 -1.1803 -1.5390
   58MOL0     H 7815  -0.716  10.758   3.815  1.6131  0.5202  0.1485
   58MOL0     H 7816   0.969  10.774   4.571 -2.0504 -1.1624  0.8320
   58MOL0     H 7817   1.185  10.714   4.667  2.5667 -1.3619 -0.9266
   58MOL0     H 7818   1.636  10.457   4.418  2.4500 -1.2399  0.1834
   58MOL0     H 7819   1.863  10.447   4.511  0.2091 -3.0680  0.6086
   58MOL0     H 7820   2.053  10.575   4.677 -1.5225  1.6315  0.8987
   58MOL0     H 7821   1.922  10.638   4.777 -0.0558  0.4206  0.9554
   58MOL0     H 7822   2.137  10.653   4.885 -2.6247  0.8990 -1.4963
   58MOL0     H 7823   2.151  10.472   4.894  1.0822 -0.0525  2.1624
   58MOL0     H 7824   1.969  10.455   5.035  1.6962 -0.6330  0.3478
   58MOL0     H 7825   1.913  10.617   5.007 -0.6402 -1.4406 -0.1373
   58MOL0     H 7826   2.020  10.601   5.232 -0.2538 -2.7637  0.8189
   58MOL0     H 7827   2.149  10.690   5.143  1.4272 -1.4374  3.6642
   58MOL0     H 7828   2.366  10.353   5.217 -0.8295  0.0366  1.6004
   58MOL0     H 7829   1.700  10.387   4.912  0.8883  2.2410 -0.3512
   58MOL0     H 7830   1.475  10.387   4.816 -0.2571  0.0714 -0.7822
   59MOL0     O 7831  10.991   0.329   0.584 -0.4348  0.0582 -0.2319
   59MOL0     C 7832  11.050   0.221   0.558  0.3300  0.0615 -0.6290
   59MOL0     O 7833  11.022   0.127   0.463 -0.1577 -0.3798  0.3812
   59MOL0     C 7834  10.956   0.146   0.343 -0.0389 -0.0837  0.2156
   59MOL0     C 7835  10.910   0.028   0.270  0.5563 -0.4362 -0.2839
   59MOL0     C 7836  10.836   0.044   0.152  0.3991  0.7361  0.5824
   59MOL0     C 7837  10.813   0.166   0.097  0.3229 -0.0180  0.0116
   59MOL0     O 7838  10.745   0.168  -0.016  0.0002  0.0428  0.0109
   59MOL0     C 7839  10.684   0.290  -0.054 -0.3524  0.4127 -0.2594
   59MOL0     C 7840  10.573   0.257  -0.155 -0.8361 -0.2476  0.7530
   59MOL0     C 7841  10.485   0.379  -0.176  0.5288 -0.0211 -0.0531
   59MOL0     C 7842  10.392   0.357  -0.303  0.3201  0.2760  0.2713
   59MOL0     C 7843  10.262   0.290  -0.264 -0.7095 -0.4116  0.1070
   59MOL0     C 7844  10.182   0.228  -0.380 -0.3256 -0.4833  0.4431
   59MOL0     C 7845  10.229   0.098  -0.446 -0.8408 -0.6355 -1.2872
   59MOL0     C 7846  10.119   0.021  -0.521  0.4678  0.2562  0.4570
   59MOL0     N 7847  10.164  -0.092  -0.597  0.3885  0.5891  0.6007
   59MOL0     C 7848  10.207  -0.207  -0.536  0.3522  0.8840 -0.3179
   59MOL0     C 7849  10.276  -0.270  -0.633 -0.5084  0.0811 -1.1640
   59MOL0     C 7850  10.353  -0.401  -0.630 -0.2695  1.0131 -1.3623
   59MOL0     C 7851  10.496  -0.378  -0.582  0.5025 -0.4819 -0.3134
   59MOL0     C 7852  10.578  -0.508  -0.611 -0.9246 -0.0259 -0.4690
   59MOL0     C 7853  10.717  -0.471  -0.548 -0.0604  0.0733 -0.2237
   59MOL0     O 7854  10.804  -0.563  -0.613 -0.0160  0.2532  0.7399
   59MOL0     C 7855  10.936  -0.534  -0.637  0.4923  0.0773  0.4316
   59MOL0     C 7856  11.001  -0.409  -0.609  0.5552  0.0379  0.5422
   59MOL0     C 7857  11.135  -0.381  -0.642 -0.2875 -0.3479 -1.1299
   59MOL0     C 7858  11.176  -0.243  -0.606 -0.2612 -0.3405  0.4492
   59MOL0     C 7859  11.216  -0.483  -0.704  0.6065 -0.6270 -0.1702
   59MOL0     C 7860  11.364  -0.473  -0.724 -0.0521 -0.0017 -0.7701
   59MOL0     O 7861  11.419  -0.589  -0.778 -0.0738  0.3458  0.0171
   59MOL0     C 7862  11.552  -0.580  -0.815  0.0170  0.4406 -0.6610
   59MOL0     C 7863  11.587  -0.637  -0.941 -0.7632 -0.1157  0.3618
   59MOL0     C 7864  11.729  -0.624  -0.976  0.7680  0.5084 -0.3315
   59MOL0     C 7865  11.827  -0.576  -0.891 -0.2985 -0.3245  0.3243
   59MOL0     O 7866  11.958  -0.589  -0.932 -0.3027  0.5105 -0.6082
   59MOL0     C 7867  12.060  -0.522  -0.848  0.1053 -0.4328  0.0298
   59MOL0     C 7868  12.191  -0.529  -0.930  0.4293  0.7311 -0.1041
   59MOL0     C 7869  12.253  -0.676  -0.942 -0.3604  0.5850  0.3165
   59MOL0     C 7870  12.342  -0.686  -1.073  0.6299  0.8811  0.1547
   59MOL0     C 7871  12.351  -0.824  -1.135 -0.7184  0.1279  0.3445
   59MOL0     C 7872  12.432  -0.913  -1.041 -0.0991 -0.7058 -0.7015
   59MOL0     C 7873  12.410  -1.061  -1.071 -1.1660 -0.0128  0.5861
   59MOL0     C 7874  12.456  -1.158  -0.970  0.7073 -0.1346 -0.3198
   59MOL0    Cl 7875  12.408  -1.328  -0.973  0.3272 -0.3434 -0.0034
   59MOL0     C 7876  11.782  -0.540  -0.766 -0.1919  0.3830  0.4116
   59MOL0     C 7877  11.654  -0.537  -0.734 -0.0127  0.1310 -0.5850
   59MOL0     O 7878  11.422  -0.365  -0.716  0.2290 -0.1411  0.3862
   59MOL0     C 7879  11.149  -0.609  -0.741  0.3499  0.3124 -0.7371
   59MOL0     C 7880  11.013  -0.629  -0.705 -0.4642  0.6536 -0.3862
   59MOL0     N 7881  10.275  -0.189  -0.743 -0.0791  0.1216  0.0994
   59MOL0     N 7882  10.203  -0.082  -0.726  0.5151  0.5347 -0.1411
   59MOL0     C 7883  10.854   0.281   0.160 -0.6331  0.1950  0.1157
   59MOL0     C 7884  10.930   0.272   0.284  0.0129 -0.1409 -0.2622
   59MOL0     C 7885  11.155   0.187   0.659  0.6444  0.3797  0.0720
   59MOL0     C 7886  11.214   0.056   0.651  1.0856  0.3672 -0.1592
   59MOL0     C 7887  11.304   0.005   0.746  0.1079  0.0642 -0.6403
   59MOL0     C 7888  11.345   0.089   0.850  0.3052  0.9097  0.0274
   59MOL0     O 7889  11.440   0.034   0.935  0.0679 -0.1033 -0.3472
   59MOL0     C 7890  11.474   0.118   1.048  0.3713  0.1480  0.1503
   59MOL0     C 7891  11.557   0.031   1.142  0.3314 -0.4191 -0.4942
   59MOL0     C 7892  11.701   0.033   1.090 -0.0380  0.0854  0.0705
   59MOL0     C 7893  11.799  -0.037   1.187  0.2239  0.2742 -0.3323
   59MOL0     C 7894  11.924  -0.054   1.110  0.1364 -0.0017 -0.1824
   59MOL0     C 7895  12.021  -0.069   1.039 -0.5668 -0.5364  0.8865
   59MOL0     C 7896  11.302   0.226   0.855 -0.3529  0.1651 -0.0325
   59MOL0     C 7897  11.198   0.269   0.768  0.1725  0.1052 -0.6488
   59MOL0     H 7898  10.932  -0.069   0.314 -1.1927 -0.0142  1.6390
   59MOL0     H 7899  10.808  -0.044   0.095 -0.1710  0.8546  0.6727
   59MOL0     H 7900  10.637   0.335   0.034  1.3234  0.5112  0.6140
   59MOL0     H 7901  10.753   0.364  -0.095  1.1709 -2.0238 -2.4667
   59MOL0     H 7902  10.619   0.231  -0.251 -0.7677 -0.3236  0.8060
   59MOL0     H 7903  10.510   0.175  -0.120 -0.3581  0.2761  2.9787
   59MOL0     H 7904  10.423   0.408  -0.091 -2.1872  1.2487 -2.3041
   59MOL0     H 7905  10.543   0.469  -0.198 -1.0104  1.8549  2.8582
   59MOL0     H 7906  10.358   0.459  -0.326 -2.4801 -0.5219  0.4171
   59MOL0     H 7907  10.451   0.306  -0.379  0.4147 -2.0560  1.7963
   59MOL0     H 7908  10.284   0.212  -0.191 -2.8062 -1.9229 -0.7885
   59MOL0     H 7909  10.205   0.358  -0.200  3.2950 -1.3554  5.3219
   59MOL0     H 7910  10.084   0.205  -0.337 -0.6442  2.7364  1.7054
   59MOL0     H 7911  10.164   0.305  -0.455  3.0464  0.4933  0.4702
   59MOL0     H 7912  10.316   0.115  -0.510  0.7454  1.0312  1.1350
   59MOL0     H 7913  10.273   0.025  -0.378 -2.0730 -1.2376 -1.1081
   59MOL0     H 7914  10.087   0.099  -0.591 -0.4873 -0.9080 -0.4504
   59MOL0     H 7915  10.037  -0.007  -0.454 -0.1521 -1.0698 -0.8131
   59MOL0     H 7916  10.191  -0.243  -0.434  1.0269 -1.8436 -1.0841
   59MOL0     H 7917  10.300  -0.466  -0.560  0.3808  1.7653 -0.1103
   59MOL0     H 7918  10.348  -0.453  -0.725  0.6452 -4.4336  1.2178
   59MOL0     H 7919  10.511  -0.347  -0.478  3.8582  0.4512 -0.9539
   59MOL0     H 7920  10.538  -0.297  -0.642 -1.0647 -1.0112 -2.2287
   59MOL0     H 7921  10.594  -0.526  -0.717 -0.4092  0.6499 -0.5145
   59MOL0     H 7922  10.544  -0.591  -0.549  3.4038 -0.4514  1.7344
   59MOL0     H 7923  10.737  -0.489  -0.441  0.5185  0.3806 -0.2732
   59MOL0     H 7924  10.739  -0.365  -0.566 -2.1728  1.3416  3.5331
   59MOL0     H 7925  10.947  -0.331  -0.556  0.0244  0.8442 -1.1321
   59MOL0     H 7926  11.208  -0.251  -0.501 -0.4910 -1.2612  0.4598
   59MOL0     H 7927  11.258  -0.208  -0.669 -0.5032  0.6486  0.6594
   59MOL0     H 7928  11.096  -0.169  -0.615  1.0277  0.8594 -1.9971
   59MOL0     H 7929  11.511  -0.677  -1.008 -0.6745 -1.9582  1.3005
   59MOL0     H 7930  11.763  -0.666  -1.070  2.2610  1.3956 -0.2198
   59MOL0     H 7931  12.031  -0.420  -0.824 -0.9713 -1.3555  3.1581
   59MOL0     H 7932  12.067  -0.580  -0.755  1.7938 -0.6780 -0.2139
   59MOL0     H 7933  12.179  -0.493  -1.033 -0.6094 -0.4729 -0.4282
   59MOL0     H 7934  12.262  -0.458  -0.887  1.1284  0.5747 -0.9601
   59MOL0     H 7935  12.176  -0.754  -0.939 -0.0994  0.3531  2.2376
   59MOL0     H 7936  12.309  -0.706  -0.853 -1.8077  1.4229  1.5466
   59MOL0     H 7937  12.303  -0.615  -1.147  2.4121  1.2196 -0.4850
   59MOL0     H 7938  12.440  -0.643  -1.050 -0.2929  2.3465  1.6068
   59MOL0     H 7939  12.411  -0.825  -1.227 -1.7100  2.7060 -0.4406
   59MOL0     H 7940  12.249  -0.859  -1.154 -0.3472  0.0685 -1.7848
   59MOL0     H 7941  12.539  -0.895  -1.042 -0.2881  0.7878  1.0662
   59MOL0     H 7942  12.399  -0.895  -0.938  2.0721 -0.4282 -0.0173
   59MOL0     H 7943  12.459  -1.080  -1.167 -0.0338 -1.3540  1.3962
   59MOL0     H 7944  12.302  -1.077  -1.082 -0.7642 -1.0737 -3.1768
   59MOL0     H 7945  12.408  -1.124  -0.877  2.0494 -1.6743  0.9901
   59MOL0     H 7946  12.564  -1.156  -0.955  0.7223 -1.9566 -0.0433
   59MOL0     H 7947  11.849  -0.512  -0.685 -0.8171  0.0943  1.0462
   59MOL0     H 7948  11.619  -0.507  -0.636  0.3766  0.4735 -0.5451
   59MOL0     H 7949  11.198  -0.691  -0.793 -1.7400 -0.5647 -1.4365
   59MOL0     H 7950  10.971  -0.722  -0.742 -3.0088  2.4175 -2.2634
   59MOL0     H 7951  10.840   0.378   0.115  3.6051  1.4879  1.1004
   59MOL0     H 7952  10.972   0.362   0.327  0.3876 -0.5560  0.2588
   59MOL0     H 7953  11.196  -0.009   0.566  1.6952 -2.3573  1.6647
   59MOL0     H 7954  11.348  -0.094   0.735 -1.7407 -0.6767 -2.0519
   59MOL0     H 7955  11.530   0.207   1.020 -0.1894  0.4689  0.0270
   59MOL0     H 7956  11.389   0.132   1.116  0.0518 -1.4227  0.1355
   59MOL0     H 7957  11.528  -0.074   1.147  2.2961 -1.2435 -3.4965
   59MOL0     H 7958  11.556   0.079   1.240 -1.6368 -1.5720  0.1056
   59MOL0     H 7959  11.737   0.135   1.074  0.9576 -0.5130 -1.8355
   59MOL0     H 7960  11.703  -0.022   0.995 -1.0127 -0.0337  0.1012
   59MOL0     H 7961  11.745  -0.125   1.224 -0.2612  1.0107  0.7779
   59MOL0     H 7962  11.823   0.016   1.280  1.3306  0.2236 -0.5766
   59MOL0     H 7963  12.108  -0.097   0.984  0.2358 -1.0605  2.3632
   59MOL0     H 7964  11.341   0.292   0.931 -0.1213  1.1436 -0.9795
   59MOL0     H 7965  11.163   0.371   0.779  0.0877 -0.0823  1.1107
   60MOL0     O 7966   7.588   6.824   3.813 -0.2544  0.1654  0.1141
   60MOL0     C 7967   7.675   6.802   3.899 -0.2241  0.7059 -0.4562
   60MOL0     O 7968   7.650   6.725   4.017  0.5515 -0.4444 -0.0544
   60MOL0     C 7969   7.517   6.692   4.044 -0.6219 -0.3237  0.0542
   60MOL0     C 7970   7.420   6.791   4.050 -0.4699  0.1716  0.1168
   60MOL0     C 7971   7.287   6.753   4.088 -0.7218 -0.5229  0.0583
   60MOL0     C 7972   7.255   6.623   4.122 -0.3735 -1.2343 -0.2757
   60MOL0     O 7973   7.121   6.597   4.155 -0.4771  0.3940  0.7873
   60MOL0     C 7974   7.094   6.452   4.176  0.6043  0.9152  0.3753
   60MOL0     C 7975   6.946   6.415   4.200  0.3389 -0.7055 -0.3261
   60MOL0     C 7976   6.866   6.391   4.067  0.7331 -0.1446 -0.1225
   60MOL0     C 7977   6.731   6.318   4.115  0.4164  0.5022  0.3620
   60MOL0     C 7978   6.617   6.320   4.007 -0.3236 -0.1889 -0.4570
   60MOL0     C 7979   6.496   6.243   4.041  0.0856 -0.0107 -1.0980
   60MOL0     C 7980   6.393   6.269   3.937  0.3571 -0.3288 -0.2688
   60MOL0     C 7981   6.320   6.403   3.930  0.2295 -0.5767  0.2390
   60MOL0     N 7982   6.174   6.380   3.939 -0.3462 -0.0671 -0.6065
   60MOL0     C 7983   6.099   6.354   3.827  0.6586  0.5847 -0.7572
   60MOL0     C 7984   5.980   6.308   3.886 -0.1834 -0.3008 -0.3419
   60MOL0     C 7985   5.855   6.293   3.809  0.0457 -0.2709 -0.3288
   60MOL0     C 7986   5.875   6.268   3.668  0.7730  0.4672 -0.4654
   60MOL0     C 7987   5.751   6.208   3.597  0.3848 -0.3664  0.5147
   60MOL0     C 7988   5.640   6.312   3.583  0.5993 -0.4646 -0.0837
   60MOL0     O 7989   5.528   6.231   3.546  0.4141  0.0406  0.1295
   60MOL0     C 7990   5.406   6.305   3.518  0.6026  0.1064 -0.4324
   60MOL0     C 7991   5.296   6.233   3.459 -0.4167 -0.3709 -0.2743
   60MOL0     C 7992   5.171   6.284   3.410 -0.3989 -1.0208 -0.9003
   60MOL0     C 7993   5.078   6.187   3.359  0.8761  0.2301  0.5381
   60MOL0     C 7994   5.150   6.425   3.427 -0.9670  0.2255 -0.0875
   60MOL0     C 7995   5.018   6.493   3.404 -0.2186  0.7906 -0.1105
   60MOL0     O 7996   4.920   6.431   3.329  0.0121  0.1968  0.0183
   60MOL0     C 7997   4.805   6.508   3.311  0.4216 -0.2174  0.0428
   60MOL0     C 7998   4.727   6.554   3.417 -0.6074 -0.2792  0.5794
   60MOL0     C 7999   4.604   6.613   3.392  0.0354 -0.5315  0.4259
   60MOL0     C 8000   4.557   6.629   3.261  0.3401  1.5118 -0.5244
   60MOL0     O 8001   4.438   6.691   3.233 -0.0938  0.5626  0.1852
   60MOL0     C 8002   4.387   6.778   3.327  0.3533 -0.1137  0.4665
   60MOL0     C 8003   4.317   6.900   3.269  0.1460 -0.1035  0.1734
   60MOL0     C 8004   4.265   6.984   3.389 -0.0014  0.8171 -0.8091
   60MOL0     C 8005   4.194   7.105   3.338  0.3109  0.2513 -0.4925
   60MOL0     C 8006   4.163   7.192   3.460  0.7748 -0.0270  0.0039
   60MOL0     C 8007   4.122   7.337   3.447  0.0943  0.1175  0.0530
   60MOL0     C 8008   4.217   7.420   3.360 -0.3315 -0.4897 -0.1687
   60MOL0     C 8009   4.339   7.465   3.435  0.1145  0.6765 -0.4887
   60MOL0    Cl 8010   4.449   7.561   3.329 -0.1213  0.3446 -0.3817
   60MOL0     C 8011   4.632   6.585   3.155 -0.6198  0.2677  0.2352
   60MOL0     C 8012   4.760   6.525   3.175 -0.7924  0.4781 -0.1761
   60MOL0     O 8013   5.016   6.604   3.457 -0.1901  0.3174 -0.0838
   60MOL0     C 8014   5.260   6.498   3.468 -0.1567 -0.0979 -0.0107
   60MOL0     C 8015   5.382   6.443   3.515 -0.3014 -0.0483  0.0584
   60MOL0     N 8016   5.996   6.309   4.021  0.1151  0.1875 -0.4407
   60MOL0     N 8017   6.115   6.354   4.056  0.2836  0.0008  0.0619
   60MOL0     C 8018   7.357   6.528   4.124 -0.3840  0.6832 -0.7371
   60MOL0     C 8019   7.487   6.564   4.087  0.8617 -0.6691 -0.6315
   60MOL0     C 8020   7.808   6.873   3.895  0.5573  0.6669  0.1989
   60MOL0     C 8021   7.873   6.904   4.015  0.1811  0.7292  0.5649
   60MOL0     C 8022   7.995   6.961   4.015 -0.0645  0.1363  1.2597
   60MOL0     C 8023   8.056   6.984   3.887 -0.2677 -0.2017 -0.2463
   60MOL0     O 8024   8.169   7.056   3.891 -0.3612  0.1970  0.0557
   60MOL0     C 8025   8.285   6.996   3.832 -0.2848 -0.1953  1.1058
   60MOL0     C 8026   8.411   7.066   3.883 -0.1978 -0.1882  0.0489
   60MOL0     C 8027   8.442   7.053   4.035 -0.1168 -0.1847 -0.2070
   60MOL0     C 8028   8.439   6.912   4.090 -0.7332 -0.7334  0.0363
   60MOL0     C 8029   8.320   6.884   4.158 -0.1544  0.3520 -0.3129
   60MOL0     C 8030   8.221   6.850   4.228  0.0226  0.0591 -0.0568
   60MOL0     C 8031   7.990   6.943   3.772  0.0276 -0.1550 -0.1450
   60MOL0     C 8032   7.867   6.888   3.773  0.5147  0.1483  0.8498
   60MOL0     H 8033   7.444   6.897   4.043  0.6948 -0.1354 -0.9201
   60MOL0     H 8034   7.215   6.834   4.086 -0.0342  0.0938 -0.4606
   60MOL0     H 8035   7.126   6.399   4.086 -2.5589  0.0062 -0.3296
   60MOL0     H 8036   7.160   6.424   4.259  0.6965 -2.0058 -0.5723
   60MOL0     H 8037   6.943   6.319   4.252  0.5413 -0.6197 -0.1528
   60MOL0     H 8038   6.896   6.491   4.261 -1.1964 -0.8476 -1.3703
   60MOL0     H 8039   6.841   6.494   4.039  0.1237  0.0763  1.1775
   60MOL0     H 8040   6.924   6.334   3.993  1.8595 -0.2072  0.7834
   60MOL0     H 8041   6.770   6.220   4.144  1.1166  0.3255 -1.0880
   60MOL0     H 8042   6.698   6.367   4.207  5.8086  0.9085  2.5011
   60MOL0     H 8043   6.590   6.425   3.994 -2.6203 -0.8945 -1.9223
   60MOL0     H 8044   6.661   6.278   3.916 -1.9433 -1.3326 -0.7541
   60MOL0     H 8045   6.515   6.135   4.031  0.5071 -0.0695  0.2293
   60MOL0     H 8046   6.448   6.266   4.136 -2.6327  1.3932 -2.6906
   60MOL0     H 8047   6.438   6.257   3.838 -2.8484  0.7816 -2.0183
   60MOL0     H 8048   6.329   6.180   3.942  3.1577 -2.4936 -0.2940
   60MOL0     H 8049   6.345   6.463   3.842 -0.6636 -2.0051 -1.0347
   60MOL0     H 8050   6.345   6.467   4.015  0.2615  1.2340 -1.0720
   60MOL0     H 8051   6.129   6.383   3.726  3.4194  2.1515  0.4002
   60MOL0     H 8052   5.795   6.209   3.847 -1.3965  0.8194 -0.0904
   60MOL0     H 8053   5.795   6.384   3.816 -1.3768 -1.1669 -0.2768
   60MOL0     H 8054   5.953   6.191   3.657 -0.3334 -1.2286  2.2927
   60MOL0     H 8055   5.900   6.352   3.603 -0.6733  0.9826 -0.3899
   60MOL0     H 8056   5.724   6.117   3.652  0.4598 -0.7752 -0.1191
   60MOL0     H 8057   5.777   6.160   3.503 -0.8015  0.8110 -0.4522
   60MOL0     H 8058   5.671   6.379   3.502  0.4960  0.8283  0.9065
   60MOL0     H 8059   5.621   6.374   3.671 -1.4195 -1.1518  0.0261
   60MOL0     H 8060   5.323   6.129   3.450 -0.6323 -0.5058  0.5223
   60MOL0     H 8061   5.025   6.226   3.272  1.0329 -0.2079  0.2392
   60MOL0     H 8062   5.131   6.101   3.317  1.3694  0.2087  1.1870
   60MOL0     H 8063   5.006   6.155   3.435 -1.8663 -0.8709 -2.3107
   60MOL0     H 8064   4.772   6.532   3.514  2.1495 -0.6104 -0.6918
   60MOL0     H 8065   4.532   6.643   3.467 -0.6599 -0.6496 -0.1765
   60MOL0     H 8066   4.315   6.721   3.386 -0.0036 -1.7163 -1.4196
   60MOL0     H 8067   4.468   6.818   3.389  0.2772  1.5209 -0.4217
   60MOL0     H 8068   4.377   6.969   3.209 -0.1177  0.4909  0.5785
   60MOL0     H 8069   4.236   6.869   3.202  1.5051 -0.5425 -1.3244
   60MOL0     H 8070   4.344   7.005   3.462 -1.3400 -0.4927  1.1283
   60MOL0     H 8071   4.196   6.917   3.442 -0.5110  1.1892 -0.9923
   60MOL0     H 8072   4.268   7.161   3.279 -1.3884  1.7279 -1.3152
   60MOL0     H 8073   4.104   7.075   3.285 -0.1422 -0.5947  0.7004
   60MOL0     H 8074   4.259   7.205   3.511  0.6087 -0.7823  0.5261
   60MOL0     H 8075   4.087   7.150   3.526 -0.9506  1.8764 -0.6583
   60MOL0     H 8076   4.028   7.324   3.393  0.8644 -2.2336 -0.8668
   60MOL0     H 8077   4.097   7.381   3.544  1.0965  2.1947 -0.5798
   60MOL0     H 8078   4.164   7.508   3.322  1.3048  0.0647 -1.2611
   60MOL0     H 8079   4.261   7.365   3.276  0.5203 -1.2718  0.7522
   60MOL0     H 8080   4.388   7.378   3.480  0.1311  0.4181 -1.0106
   60MOL0     H 8081   4.300   7.535   3.510  1.9125  0.2362  0.9396
   60MOL0     H 8082   4.602   6.605   3.053  1.3537 -1.5873 -0.7989
   60MOL0     H 8083   4.827   6.504   3.092  0.5036  1.0967  0.6694
   60MOL0     H 8084   5.252   6.605   3.452 -3.1003 -0.3910 -0.9062
   60MOL0     H 8085   5.465   6.509   3.542  0.4176 -1.2121  0.7867
   60MOL0     H 8086   7.341   6.424   4.150  0.1128  0.9056  0.5507
   60MOL0     H 8087   7.571   6.500   4.112 -0.1464 -2.6468 -2.0396
   60MOL0     H 8088   7.829   6.889   4.113  0.2630  4.5767  1.3489
   60MOL0     H 8089   8.038   6.994   4.108 -1.5361  0.8067  1.7319
   60MOL0     H 8090   8.294   6.891   3.862  0.2590 -0.5403 -0.1816
   60MOL0     H 8091   8.278   7.007   3.723 -2.7897  2.9866  1.4158
   60MOL0     H 8092   8.395   7.173   3.865 -1.3341 -0.2744  0.4548
   60MOL0     H 8093   8.496   7.047   3.817 -1.7537 -0.4019 -2.0007
   60MOL0     H 8094   8.379   7.111   4.103  3.0763 -0.0962  3.0077
   60MOL0     H 8095   8.546   7.082   4.055 -1.1437  2.8106  1.3847
   60MOL0     H 8096   8.523   6.897   4.159  0.0053  3.4269  0.3220
   60MOL0     H 8097   8.463   6.839   4.011 -0.1911 -1.1317  0.5582
   60MOL0     H 8098   8.152   6.807   4.298 -0.5252 -1.0292 -1.2175
   60MOL0     H 8099   8.039   6.951   3.675  0.7422  0.8639  0.2938
   60MOL0     H 8100   7.829   6.856   3.677  0.5508  2.6416 -0.0563
   61MOL0     O 8101   4.907   8.113  11.056 -0.2140 -0.2115  0.5504
   61MOL0     C 8102   5.017   8.162  11.086 -0.2528 -0.1671 -0.9034
   61MOL0     O 8103   5.110   8.105  11.160 -0.0382  0.0413  0.0683
   61MOL0     C 8104   5.078   7.976  11.198 -0.5643 -0.1520  0.9497
   61MOL0     C 8105   5.079   7.864  11.109 -0.3750 -0.9204 -0.0616
   61MOL0     C 8106   5.024   7.749  11.155 -0.2333  0.6208 -0.4955
   61MOL0     C 8107   4.985   7.730  11.291  0.4645  0.3752  0.1677
   61MOL0     O 8108   4.933   7.610  11.326 -0.3272 -0.3982  0.3793
   61MOL0     C 8109   4.832   7.606  11.421  0.2509  0.3181  0.0226
   61MOL0     C 8110   4.693   7.642  11.371  0.5074  0.1250  0.3502
   61MOL0     C 8111   4.588   7.595  11.470 -0.6101  0.7565  0.1313
   61MOL0     C 8112   4.596   7.648  11.617  0.1706  1.3142 -0.4312
   61MOL0     C 8113   4.448   7.657  11.666  0.4169 -0.3088  0.7576
   61MOL0     C 8114   4.424   7.696  11.803 -0.5522 -0.3437  0.2025
   61MOL0     C 8115   4.273   7.701  11.836 -0.0246 -0.5790  0.2374
   61MOL0     C 8116   4.256   7.800  11.953 -0.0869 -0.6868  0.0586
   61MOL0     N 8117   4.122   7.854  11.977 -0.2128 -0.1935 -0.2295
   61MOL0     C 8118   4.043   7.825  12.076  0.3866 -0.1976  0.3783
   61MOL0     C 8119   3.926   7.896  12.065 -0.9355  0.2267 -0.2675
   61MOL0     C 8120   3.802   7.884  12.145  0.7859  0.0077 -0.4121
   61MOL0     C 8121   3.827   7.944  12.291 -1.0796  0.3787  0.1170
   61MOL0     C 8122   3.698   7.964  12.377 -1.2064  0.4367  0.2680
   61MOL0     C 8123   3.604   8.057  12.315  0.1210 -0.6439 -0.0895
   61MOL0     O 8124   3.525   7.987  12.221  0.3625  0.0177  0.0721
   61MOL0     C 8125   3.414   8.044  12.162  0.6819  0.1418 -0.4477
   61MOL0     C 8126   3.316   7.963  12.119  0.7001 -0.5748 -0.1104
   61MOL0     C 8127   3.195   8.012  12.057 -0.5931 -0.3474  0.2921
   61MOL0     C 8128   3.097   7.909  12.007  0.0028  0.6533 -0.2323
   61MOL0     C 8129   3.174   8.157  12.058  0.1698  0.2767  0.4975
   61MOL0     C 8130   3.059   8.216  11.985 -0.4197  0.6870 -0.6508
   61MOL0     O 8131   3.041   8.169  11.865 -0.6361 -0.0226 -0.2308
   61MOL0     C 8132   2.938   8.190  11.782  0.2271  1.1875  0.5703
   61MOL0     C 8133   2.808   8.228  11.833 -0.4004  0.7933  0.2869
   61MOL0     C 8134   2.700   8.240  11.744  0.4243  0.5443  0.0540
   61MOL0     C 8135   2.714   8.222  11.609  0.0416  0.5479  0.1825
   61MOL0     O 8136   2.613   8.247  11.521  0.0580 -0.1138  0.9211
   61MOL0     C 8137   2.553   8.380  11.521  0.2620 -0.7197 -0.1054
   61MOL0     C 8138   2.446   8.376  11.410 -0.2930 -0.1856  0.1094
   61MOL0     C 8139   2.370   8.506  11.400 -0.1917  0.0465  0.4671
   61MOL0     C 8140   2.232   8.480  11.351  0.4921  0.0626  0.4216
   61MOL0     C 8141   2.163   8.593  11.282 -0.6860 -0.8626 -0.1418
   61MOL0     C 8142   2.022   8.570  11.231 -0.6142  0.8944 -0.5478
   61MOL0     C 8143   1.948   8.694  11.190 -0.1284 -0.4414  0.2559
   61MOL0     C 8144   1.819   8.651  11.110  0.2802 -0.0701 -0.3144
   61MOL0    Cl 8145   1.700   8.580  11.225  0.1580  0.2132 -0.4703
   61MOL0     C 8146   2.836   8.179  11.564 -0.3146  0.4302  0.0702
   61MOL0     C 8147   2.945   8.153  11.644  0.9712  0.9624  0.2517
   61MOL0     O 8148   3.005   8.316  12.025 -0.0614  0.1441  0.4526
   61MOL0     C 8149   3.273   8.237  12.116  0.1049 -0.0723  0.5833
   61MOL0     C 8150   3.386   8.184  12.164  0.6903  0.1565  0.1549
   61MOL0     N 8151   3.955   7.978  11.957  0.2998 -0.0046  0.2156
   61MOL0     N 8152   4.072   7.957  11.911 -0.0123  0.1132 -1.0530
   61MOL0     C 8153   4.991   7.835  11.375 -0.3204  0.0846 -0.4216
   61MOL0     C 8154   5.038   7.956  11.325  0.7720 -0.9330 -0.1624
   61MOL0     C 8155   5.040   8.299  11.040 -0.4075 -0.3869  0.0535
   61MOL0     C 8156   5.171   8.346  11.010  0.2160  0.0690  0.2077
   61MOL0     C 8157   5.193   8.474  10.967  0.4384 -0.0410 -0.3030
   61MOL0     C 8158   5.088   8.562  10.952  0.0316  0.0749  1.4729
   61MOL0     O 8159   5.124   8.683  10.900  0.6907 -0.3638 -0.0335
   61MOL0     C 8160   5.017   8.759  10.848  0.0341  0.3499  0.1827
   61MOL0     C 8161   5.070   8.895  10.804  0.2027  0.8378 -0.2235
   61MOL0     C 8162   5.176   8.963  10.892 -0.9720 -0.2979 -0.4459
   61MOL0     C 8163   5.322   8.927  10.855  0.1740  0.1324 -0.3961
   61MOL0     C 8164   5.413   9.033  10.895 -0.1425 -0.4422  0.5175
   61MOL0     C 8165   5.488   9.122  10.922  0.2087 -0.5539 -0.1590
   61MOL0     C 8166   4.957   8.527  10.985  0.0206  0.5346  0.6391
   61MOL0     C 8167   4.932   8.395  11.033 -0.9875 -0.5467 -1.0415
   61MOL0     H 8168   5.090   7.883  11.003 -2.5658  0.5038 -0.0978
   61MOL0     H 8169   5.007   7.683  11.070  0.9791 -0.0119 -0.2668
   61MOL0     H 8170   4.832   7.500  11.447 -0.8582 -0.6181 -3.2510
   61MOL0     H 8171   4.862   7.655  11.513  0.1830 -1.6645  1.1642
   61MOL0     H 8172   4.676   7.749  11.357  0.6090  0.0481 -0.3849
   61MOL0     H 8173   4.663   7.595  11.276  0.1560 -1.1607  1.0714
   61MOL0     H 8174   4.496   7.627  11.420  1.0693  0.6880 -3.2247
   61MOL0     H 8175   4.583   7.486  11.460  1.0606  0.8072 -1.7619
   61MOL0     H 8176   4.662   7.596  11.687  1.1157  2.3734 -0.5113
   61MOL0     H 8177   4.627   7.753  11.616 -0.9847  1.6699  0.1529
   61MOL0     H 8178   4.399   7.733  11.605  0.4659 -0.3531  0.6623
   61MOL0     H 8179   4.396   7.563  11.646  2.1204 -1.9207  3.3209
   61MOL0     H 8180   4.466   7.632  11.881 -1.1858  1.5841  2.2373
   61MOL0     H 8181   4.473   7.794  11.813 -2.2222  0.3631  2.0380
   61MOL0     H 8182   4.226   7.744  11.747  1.7489 -1.1607 -1.0470
   61MOL0     H 8183   4.226   7.605  11.860 -1.6472  0.0682 -0.2097
   61MOL0     H 8184   4.321   7.886  11.935 -0.5977 -0.0412  1.1532
   61MOL0     H 8185   4.305   7.763  12.044  3.1886  0.4351 -1.0919
   61MOL0     H 8186   4.069   7.749  12.150  1.7774  0.0752  0.1840
   61MOL0     H 8187   3.724   7.936  12.090 -0.8671  1.4725  3.0511
   61MOL0     H 8188   3.776   7.778  12.149 -0.3950  0.3057  0.8936
   61MOL0     H 8189   3.874   8.042  12.286  0.3888 -0.2804  0.3660
   61MOL0     H 8190   3.886   7.867  12.343 -1.9526 -0.4345 -0.0683
   61MOL0     H 8191   3.725   8.009  12.473 -0.6426 -1.0546  0.8359
   61MOL0     H 8192   3.644   7.870  12.390 -1.2315  0.5352  0.8981
   61MOL0     H 8193   3.661   8.133  12.260 -0.4749  1.2430  1.7803
   61MOL0     H 8194   3.529   8.096  12.384 -1.4973 -0.7757 -1.7084
   61MOL0     H 8195   3.329   7.857  12.138  0.7365 -0.6866 -0.7432
   61MOL0     H 8196   2.991   7.935  12.013 -0.6365 -1.4387 -1.2610
   61MOL0     H 8197   3.113   7.881  11.902  1.3525 -0.3242  0.1944
   61MOL0     H 8198   3.102   7.816  12.064  1.4867  0.3877 -0.7540
   61MOL0     H 8199   2.781   8.250  11.935  1.3374 -1.2881  1.2777
   61MOL0     H 8200   2.600   8.262  11.780  0.0307 -2.3408  1.0555
   61MOL0     H 8201   2.509   8.398  11.619 -0.3691 -3.1672  0.1105
   61MOL0     H 8202   2.621   8.464  11.501  0.4476 -0.9869 -0.6192
   61MOL0     H 8203   2.502   8.350  11.320 -0.0751  3.3928 -0.9598
   61MOL0     H 8204   2.381   8.291  11.430 -0.9162  0.9466  3.6631
   61MOL0     H 8205   2.428   8.575  11.339 -0.8523 -1.0912 -1.5553
   61MOL0     H 8206   2.375   8.539  11.504  3.0111 -3.0642  1.4775
   61MOL0     H 8207   2.230   8.398  11.279 -0.6635 -1.9981  2.6464
   61MOL0     H 8208   2.161   8.442  11.426 -1.7299 -1.4885 -2.2740
   61MOL0     H 8209   2.215   8.613  11.188 -2.0151  0.0974 -0.6932
   61MOL0     H 8210   2.175   8.689  11.334  0.5984 -0.4018 -1.2189
   61MOL0     H 8211   2.019   8.490  11.157 -0.1073  0.0423  0.3277
   61MOL0     H 8212   1.966   8.525  11.314  0.4953 -0.5217 -0.5315
   61MOL0     H 8213   2.010   8.756  11.124 -1.0400  1.7810  1.3704
   61MOL0     H 8214   1.927   8.754  11.279  0.8119  0.6387 -0.2169
   61MOL0     H 8215   1.844   8.576  11.034  1.3976 -1.1109  1.0255
   61MOL0     H 8216   1.774   8.738  11.061  1.3618  0.3876 -0.5249
   61MOL0     H 8217   2.851   8.167  11.457 -0.8501  0.1721  0.0216
   61MOL0     H 8218   3.030   8.101  11.600  0.3307  0.3749 -0.3154
   61MOL0     H 8219   3.250   8.343  12.119  1.4506  0.3246  5.4204
   61MOL0     H 8220   3.466   8.248  12.201 -0.6583  1.8762  0.1972
   61MOL0     H 8221   4.949   7.848  11.474  0.4350  1.3895 -0.2555
   61MOL0     H 8222   5.024   8.039  11.393 -2.7717 -2.2075  0.8711
   61MOL0     H 8223   5.254   8.276  11.016  0.1985  0.1346  1.4889
   61MOL0     H 8224   5.295   8.503  10.942  1.1327 -2.2698 -0.3526
   61MOL0     H 8225   4.980   8.711  10.757 -3.1049 -0.1969  1.6097
   61MOL0     H 8226   4.932   8.774  10.916 -0.0939  2.9474 -0.4548
   61MOL0     H 8227   4.984   8.956  10.778 -1.0650 -1.0891 -0.7201
   61MOL0     H 8228   5.121   8.885  10.708  2.6821  0.1670  1.0630
   61MOL0     H 8229   5.160   8.954  11.000 -3.3893  1.8492 -0.5229
   61MOL0     H 8230   5.162   9.071  10.882  0.4255 -0.1715 -1.3400
   61MOL0     H 8231   5.318   8.912  10.747  1.2734 -1.5103 -0.2467
   61MOL0     H 8232   5.340   8.837  10.916  1.5099  0.0674 -0.8513
   61MOL0     H 8233   5.542   9.211  10.946  1.6809 -1.1339 -1.1978
   61MOL0     H 8234   4.871   8.592  10.986 -1.1508 -0.9632 -0.0063
   61MOL0     H 8235   4.831   8.369  11.061 -0.6793  0.1935  1.0041
   62MOL0     O 8236   4.168   4.105   8.190  0.1492 -0.0686 -0.1928
   62MOL0     C 8237   4.219   4.006   8.139  0.0457  0.4073  0.2779
   62MOL0     O 8238   4.152   3.922   8.048  0.4871 -0.1730 -0.6510
   62MOL0     C 8239   4.040   3.960   7.975  0.1296 -0.5133 -0.4423
   62MOL0     C 8240   3.918   3.884   7.994 -0.2454  0.0022  0.0685
   62MOL0     C 8241   3.799   3.931   7.930  0.3320  0.5678 -0.3778
   62MOL0     C 8242   3.804   4.048   7.840 -0.0557  0.3199 -0.1060
   62MOL0     O 8243   3.704   4.105   7.762 -0.5674  0.2104 -0.5701
   62MOL0     C 8244   3.569   4.065   7.798  0.0295 -0.0891 -0.5043
   62MOL0     C 8245   3.470   4.158   7.727 -0.5645 -0.3635 -0.4827
   62MOL0     C 8246   3.467   4.115   7.578  1.2543  0.4027 -0.5941
   62MOL0     C 8247   3.393   4.228   7.498 -0.7398 -0.1635 -0.1266
   62MOL0     C 8248   3.364   4.186   7.353 -0.0251 -0.6237  0.1708
   62MOL0     C 8249   3.321   4.040   7.336  0.0490  0.0699 -0.2267
   62MOL0     C 8250   3.270   4.023   7.193  0.3695  0.1830 -1.1625
   62MOL0     C 8251   3.223   3.879   7.148 -0.2254 -0.6226 -0.1371
   62MOL0     N 8252   3.095   3.866   7.215  0.4330  0.3485  1.0257
   62MOL0     C 8253   2.973   3.912   7.169  0.0679  0.3181  0.2673
   62MOL0     C 8254   2.892   3.899   7.275 -0.2396  0.5745 -0.0882
   62MOL0     C 8255   2.741   3.928   7.276 -0.2268 -0.1810  0.1137
   62MOL0     C 8256   2.672   3.812   7.196  0.1884 -0.4054 -0.2958
   62MOL0     C 8257   2.529   3.785   7.246  0.4795  0.1180 -0.3491
   62MOL0     C 8258   2.441   3.903   7.223  0.2904  0.4561  0.5167
   62MOL0     O 8259   2.457   4.001   7.322 -0.5575 -0.3441  0.3579
   62MOL0     C 8260   2.355   4.092   7.332  0.5667  0.1428 -0.3439
   62MOL0     C 8261   2.354   4.155   7.453  0.4517 -0.6203 -0.4552
   62MOL0     C 8262   2.256   4.253   7.486 -0.5404  1.3310  0.3484
   62MOL0     C 8263   2.278   4.321   7.617  0.0449 -0.6014  0.3084
   62MOL0     C 8264   2.153   4.282   7.395  0.8468 -0.8913  0.5876
   62MOL0     C 8265   2.046   4.379   7.425 -0.4137 -0.0311 -0.4798
   62MOL0     O 8266   1.928   4.357   7.354 -0.3758 -0.3136 -1.0593
   62MOL0     C 8267   1.817   4.439   7.366 -0.3540 -0.1950 -0.0999
   62MOL0     C 8268   1.692   4.384   7.345  0.6390  0.3261 -0.3155
   62MOL0     C 8269   1.574   4.459   7.354  0.4343 -0.0256  0.5872
   62MOL0     C 8270   1.586   4.601   7.367 -0.7666 -0.2535 -0.1040
   62MOL0     O 8271   1.472   4.680   7.354 -0.2658  0.0220  0.4111
   62MOL0     C 8272   1.446   4.758   7.467  0.6090 -0.0271  0.2070
   62MOL0     C 8273   1.409   4.903   7.420 -0.5882 -0.8541 -0.1552
   62MOL0     C 8274   1.529   4.977   7.338 -0.2817  0.9720  0.2556
   62MOL0     C 8275   1.475   5.105   7.271 -0.6070 -0.7845 -0.4404
   62MOL0     C 8276   1.573   5.181   7.195  0.0447 -0.3341 -0.5969
   62MOL0     C 8277   1.625   5.102   7.068  0.0870 -0.0802 -0.2956
   62MOL0     C 8278   1.734   5.180   6.980  0.4404 -0.6217 -0.1045
   62MOL0     C 8279   1.817   5.261   7.072 -0.0375  0.8225  0.3251
   62MOL0    Cl 8280   1.956   5.337   7.004  0.0522  0.1545  0.1568
   62MOL0     C 8281   1.714   4.658   7.373  0.5239 -0.1009 -0.3531
   62MOL0     C 8282   1.826   4.579   7.372 -0.4610 -0.4408 -0.3710
   62MOL0     O 8283   2.076   4.485   7.474  0.6369  0.4732  0.0849
   62MOL0     C 8284   2.157   4.211   7.269  0.3444 -0.2858  0.6864
   62MOL0     C 8285   2.255   4.117   7.238 -0.2522  1.0884  0.6367
   62MOL0     N 8286   2.964   3.842   7.381 -0.1638  0.3427  0.7617
   62MOL0     N 8287   3.087   3.817   7.343 -0.0400  0.5606  0.2913
   62MOL0     C 8288   3.930   4.112   7.825  0.4065  0.7693 -0.3191
   62MOL0     C 8289   4.038   4.076   7.906 -0.4114 -0.8254 -0.0427
   62MOL0     C 8290   4.355   3.974   8.192  0.2799  0.0506  1.1862
   62MOL0     C 8291   4.404   4.032   8.314  0.4687  1.3634  0.2477
   62MOL0     C 8292   4.524   3.989   8.369  0.4453  0.4721 -0.0954
   62MOL0     C 8293   4.606   3.889   8.302 -0.0825  0.4174 -0.0529
   62MOL0     O 8294   4.719   3.838   8.353  0.6143 -0.0884 -0.3815
   62MOL0     C 8295   4.782   3.909   8.462  0.3045  0.0691 -0.1849
   62MOL0     C 8296   4.910   3.846   8.519  0.1683 -0.3806  0.3836
   62MOL0     C 8297   4.878   3.710   8.580 -0.6558 -0.2974 -0.0133
   62MOL0     C 8298   4.998   3.637   8.627 -0.0694 -0.4137  0.0175
   62MOL0     C 8299   5.043   3.705   8.753  0.3539  0.1702 -1.2023
   62MOL0     C 8300   5.057   3.765   8.859  0.0209  0.0372 -0.5068
   62MOL0     C 8301   4.562   3.840   8.177  0.0775 -0.0932 -0.6877
   62MOL0     C 8302   4.441   3.885   8.118  0.0693  0.8006  0.2951
   62MOL0     H 8303   3.909   3.805   8.068  0.2062  0.5999  0.7780
   62MOL0     H 8304   3.704   3.884   7.957  1.0073 -0.2511  0.6427
   62MOL0     H 8305   3.551   3.960   7.772  0.8653 -0.4990  0.4842
   62MOL0     H 8306   3.567   4.068   7.907  0.6924  0.8618 -0.5031
   62MOL0     H 8307   3.368   4.144   7.765 -1.3045  0.9425 -1.8636
   62MOL0     H 8308   3.496   4.263   7.746 -1.9274 -0.0619 -0.1542
   62MOL0     H 8309   3.568   4.089   7.543  1.8619  0.5964  0.9545
   62MOL0     H 8310   3.415   4.019   7.570 -1.4938  1.7472 -0.2557
   62MOL0     H 8311   3.301   4.236   7.558 -0.1661 -1.6860  1.0122
   62MOL0     H 8312   3.449   4.322   7.495 -0.9018 -0.0345 -3.7259
   62MOL0     H 8313   3.283   4.253   7.323 -0.7015 -1.6755 -0.4031
   62MOL0     H 8314   3.447   4.212   7.286  0.1208 -0.5035  0.3984
   62MOL0     H 8315   3.408   3.978   7.359 -0.0155  0.5934  1.6038
   62MOL0     H 8316   3.244   4.023   7.411  1.9081  0.8021  1.9678
   62MOL0     H 8317   3.190   4.092   7.164  1.3413  0.4266 -3.5235
   62MOL0     H 8318   3.356   4.056   7.134  1.8282 -2.1735 -0.4968
   62MOL0     H 8319   3.292   3.799   7.176  1.1566  0.3727 -0.5879
   62MOL0     H 8320   3.205   3.865   7.041  1.2720 -0.8031 -0.3989
   62MOL0     H 8321   2.953   3.948   7.068 -0.2958 -1.9690 -0.5281
   62MOL0     H 8322   2.708   3.926   7.380 -1.0812 -0.7288 -0.1579
   62MOL0     H 8323   2.731   4.024   7.226  1.0697  0.0767  0.3028
   62MOL0     H 8324   2.730   3.720   7.207  2.5235  0.9428 -0.5350
   62MOL0     H 8325   2.676   3.837   7.089  1.0313 -1.0407 -0.4205
   62MOL0     H 8326   2.518   3.760   7.352 -0.9059 -0.5411 -0.6271
   62MOL0     H 8327   2.498   3.693   7.196 -0.6355 -0.3477  1.1222
   62MOL0     H 8328   2.336   3.872   7.219  1.0102 -2.2144  0.6033
   62MOL0     H 8329   2.461   3.947   7.125 -1.2324 -0.5151 -0.2755
   62MOL0     H 8330   2.425   4.123   7.529 -2.0086 -1.1488  1.7961
   62MOL0     H 8331   2.292   4.241   7.691 -1.1536  0.0396  1.2610
   62MOL0     H 8332   2.362   4.391   7.610  0.7368 -1.2291  1.7254
   62MOL0     H 8333   2.191   4.379   7.648 -0.4301 -0.6419 -0.8987
   62MOL0     H 8334   1.685   4.279   7.318  0.5854 -0.2972  1.9707
   62MOL0     H 8335   1.476   4.419   7.330  0.2543  2.2543 -3.5186
   62MOL0     H 8336   1.366   4.715   7.528  0.4940 -0.4589 -0.2425
   62MOL0     H 8337   1.530   4.765   7.537  1.4972 -0.6613 -0.7688
   62MOL0     H 8338   1.320   4.899   7.358 -1.4631  1.8334  0.8000
   62MOL0     H 8339   1.377   4.964   7.505 -1.5289 -1.9481  0.3034
   62MOL0     H 8340   1.568   4.911   7.260 -1.4078  0.2328  0.2896
   62MOL0     H 8341   1.613   5.000   7.405 -0.0703 -0.8031  0.6787
   62MOL0     H 8342   1.384   5.087   7.214  0.0860 -1.3600 -1.3841
   62MOL0     H 8343   1.440   5.166   7.355  0.2625 -0.5825 -0.2206
   62MOL0     H 8344   1.644   5.226   7.265 -3.6468  2.4187  1.7438
   62MOL0     H 8345   1.518   5.266   7.153  0.3861  0.7760  1.0939
   62MOL0     H 8346   1.663   5.005   7.103 -0.1942  0.9124  3.0729
   62MOL0     H 8347   1.538   5.101   7.001 -0.3276  2.2613  0.1344
   62MOL0     H 8348   1.684   5.256   6.918  4.0031  2.8784  0.9580
   62MOL0     H 8349   1.788   5.106   6.921  0.0629  0.3927 -1.8245
   62MOL0     H 8350   1.846   5.194   7.154 -3.6042 -0.7925  0.4646
   62MOL0     H 8351   1.759   5.335   7.127  0.6805 -0.0455  2.3384
   62MOL0     H 8352   1.720   4.766   7.370  0.1635 -0.0991 -1.6030
   62MOL0     H 8353   1.921   4.626   7.395 -0.4904 -0.2197 -0.6953
   62MOL0     H 8354   2.083   4.237   7.194 -0.6045  0.6290  1.9024
   62MOL0     H 8355   2.254   4.067   7.142  1.1481  1.9764  0.1190
   62MOL0     H 8356   3.925   4.201   7.764 -1.5413  1.7082  1.1024
   62MOL0     H 8357   4.122   4.145   7.912 -1.1803  0.0573  1.2109
   62MOL0     H 8358   4.344   4.105   8.367 -3.1713 -1.2356  0.0722
   62MOL0     H 8359   4.555   4.031   8.465  2.9007 -0.9168 -0.2029
   62MOL0     H 8360   4.805   4.009   8.424 -0.0161  1.3660  2.7444
   62MOL0     H 8361   4.711   3.917   8.546  0.2339 -0.6760 -0.1663
   62MOL0     H 8362   4.944   3.921   8.592  0.9820 -0.3657  0.0058
   62MOL0     H 8363   4.979   3.827   8.436  0.4240  1.7416  0.0550
   62MOL0     H 8364   4.820   3.642   8.515  0.2795 -0.0062 -1.1984
   62MOL0     H 8365   4.803   3.737   8.654  0.5880  2.2897  0.4024
   62MOL0     H 8366   5.082   3.634   8.558 -1.4821  1.2655 -1.8833
   62MOL0     H 8367   4.957   3.539   8.652  1.0831 -0.5700  1.4278
   62MOL0     H 8368   5.063   3.826   8.946 -1.7513  0.7529 -0.8299
   62MOL0     H 8369   4.613   3.757   8.129  0.2201 -1.3892  1.5689
   62MOL0     H 8370   4.407   3.856   8.019  0.9007  0.1378  0.1991
   63MOL0     O 8371  10.071   4.239   8.801  0.5595  0.2714  0.0962
   63MOL0     C 8372  10.152   4.181   8.734  1.0078 -0.3571 -0.3127
   63MOL0     O 8373  10.117   4.077   8.652  0.3677  0.8031 -0.3592
   63MOL0     C 8374   9.991   4.027   8.631  0.1684 -0.9872  0.5969
   63MOL0     C 8375   9.984   3.932   8.530 -0.2430  0.8022 -0.4256
   63MOL0     C 8376   9.860   3.873   8.491  0.7265  0.2873 -0.1345
   63MOL0     C 8377   9.740   3.921   8.538 -0.0125  0.2891  0.3551
   63MOL0     O 8378   9.620   3.870   8.485 -0.4185  0.2095 -0.0248
   63MOL0     C 8379   9.536   3.979   8.451  0.3188 -0.7394  0.1759
   63MOL0     C 8380   9.408   3.915   8.394 -0.4093  0.6013  0.4051
   63MOL0     C 8381   9.323   4.027   8.343 -0.1028  0.8437 -0.0560
   63MOL0     C 8382   9.220   3.968   8.246 -0.4156  0.3353 -0.1868
   63MOL0     C 8383   9.116   3.876   8.320 -0.0757  1.4916  0.2302
   63MOL0     C 8384   9.037   3.804   8.206 -0.1361  0.3279 -0.1282
   63MOL0     C 8385   8.967   3.686   8.268  0.2280 -0.5728  0.0201
   63MOL0     C 8386   8.862   3.739   8.369  0.4104  0.2121 -0.2382
   63MOL0     N 8387   8.728   3.687   8.323 -0.0676 -0.3300 -0.1625
   63MOL0     C 8388   8.657   3.594   8.398  0.0845  0.0784 -0.1080
   63MOL0     C 8389   8.541   3.590   8.339 -0.1009  0.5365 -0.1771
   63MOL0     C 8390   8.427   3.516   8.404  0.6136  0.1830  0.1075
   63MOL0     C 8391   8.391   3.401   8.315  0.1039 -0.6124  0.5570
   63MOL0     C 8392   8.483   3.278   8.316  0.0302 -0.7073  0.5938
   63MOL0     C 8393   8.496   3.213   8.454  0.2491 -0.3171  0.8740
   63MOL0     O 8394   8.511   3.069   8.450  0.2127 -0.1772 -0.1243
   63MOL0     C 8395   8.390   3.000   8.435  0.4494  1.0367  0.3816
   63MOL0     C 8396   8.383   2.878   8.496  0.3846  0.3319  0.0856
   63MOL0     C 8397   8.260   2.805   8.513 -0.5687  0.6204 -0.0207
   63MOL0     C 8398   8.260   2.695   8.612 -0.2269 -0.6320  0.7484
   63MOL0     C 8399   8.141   2.846   8.450  0.9624 -0.5887 -0.5664
   63MOL0     C 8400   8.008   2.778   8.469  0.2534  0.2550  0.3069
   63MOL0     O 8401   7.902   2.863   8.454  0.2486 -0.0022  0.0069
   63MOL0     C 8402   7.774   2.816   8.432  0.2376  0.4483  0.4308
   63MOL0     C 8403   7.712   2.857   8.313 -0.0389 -0.4858 -0.5939
   63MOL0     C 8404   7.585   2.815   8.276  0.7522  0.1899 -0.3405
   63MOL0     C 8405   7.510   2.729   8.367 -0.7182 -0.1962  0.0080
   63MOL0     O 8406   7.383   2.686   8.333  0.2716  0.3345 -0.0138
   63MOL0     C 8407   7.277   2.698   8.422 -0.5179  0.7309 -0.0405
   63MOL0     C 8408   7.232   2.846   8.405  0.2011 -0.1816  0.1239
   63MOL0     C 8409   7.089   2.881   8.453  0.1249 -0.3067  0.0340
   63MOL0     C 8410   6.976   2.830   8.356 -0.8986  0.1179 -0.4059
   63MOL0     C 8411   6.840   2.848   8.415 -0.6118 -0.9282  0.3904
   63MOL0     C 8412   6.802   2.739   8.520  0.0284 -0.3744  0.0335
   63MOL0     C 8413   6.659   2.756   8.559  0.2002  0.4278  0.2407
   63MOL0     C 8414   6.621   2.659   8.674 -0.2954 -0.2918  0.2763
   63MOL0    Cl 8415   6.450   2.681   8.712  0.0911 -0.1697 -0.4097
   63MOL0     C 8416   7.573   2.684   8.490 -0.0830  0.3589  0.7842
   63MOL0     C 8417   7.704   2.727   8.521  0.3175 -0.6880 -0.2626
   63MOL0     O 8418   8.006   2.657   8.501 -0.0289  0.0042  0.1827
   63MOL0     C 8419   8.155   2.970   8.380  0.0008 -0.8827  0.1911
   63MOL0     C 8420   8.276   3.033   8.366 -0.1289  0.0449 -0.3541
   63MOL0     N 8421   8.546   3.656   8.213  0.4154 -0.1264 -0.7102
   63MOL0     N 8422   8.664   3.723   8.209 -0.6395  0.0946  0.3598
   63MOL0     C 8423   9.743   4.022   8.638  1.0331 -0.3517  0.2947
   63MOL0     C 8424   9.871   4.062   8.684  0.4011  0.1104 -0.1096
   63MOL0     C 8425  10.292   4.222   8.740  0.9464  0.7718 -0.0331
   63MOL0     C 8426  10.393   4.142   8.674  0.3057  0.2227  0.3064
   63MOL0     C 8427  10.527   4.179   8.686 -0.1502  0.5958 -0.5510
   63MOL0     C 8428  10.564   4.284   8.769  0.2022 -0.2148 -1.1909
   63MOL0     O 8429  10.699   4.307   8.778  0.9192 -0.8548 -0.2506
   63MOL0     C 8430  10.741   4.433   8.842 -0.2496  0.2929  0.1523
   63MOL0     C 8431  10.895   4.470   8.814  0.1488  0.5608  0.6205
   63MOL0     C 8432  10.978   4.369   8.893 -0.5635 -0.5933  0.2267
   63MOL0     C 8433  11.127   4.396   8.901  0.3835 -0.2703 -1.3094
   63MOL0     C 8434  11.181   4.291   8.994  0.7285  0.1439  0.4292
   63MOL0     C 8435  11.221   4.207   9.074 -0.7251 -0.0737 -0.0643
   63MOL0     C 8436  10.465   4.356   8.836 -0.1718  0.0147  0.6021
   63MOL0     C 8437  10.331   4.329   8.816  0.3807  0.6204  0.4844
   63MOL0     H 8438  10.073   3.921   8.468 -0.1022  0.3099 -0.1430
   63MOL0     H 8439   9.855   3.809   8.403  1.6526  0.2213 -0.1424
   63MOL0     H 8440   9.502   4.042   8.533 -0.2080 -3.1446  1.9075
   63MOL0     H 8441   9.578   4.047   8.376 -1.0450  1.2613  1.1480
   63MOL0     H 8442   9.431   3.846   8.312 -1.4289  1.3076 -0.5044
   63MOL0     H 8443   9.359   3.862   8.477 -0.6468  1.1868  0.6488
   63MOL0     H 8444   9.267   4.071   8.426 -0.2558 -1.8738  1.3653
   63MOL0     H 8445   9.383   4.098   8.285  2.8571 -1.3585  0.1435
   63MOL0     H 8446   9.161   4.051   8.206 -0.7744  1.1646  1.9248
   63MOL0     H 8447   9.262   3.922   8.156 -1.5981  0.9967 -1.1017
   63MOL0     H 8448   9.173   3.799   8.372  0.4033  0.8597 -1.1975
   63MOL0     H 8449   9.057   3.937   8.390  0.0116  1.2374  0.5274
   63MOL0     H 8450   8.969   3.875   8.157 -1.0378  0.3669  1.1492
   63MOL0     H 8451   9.118   3.764   8.145  1.4427  0.7927  1.5900
   63MOL0     H 8452   8.925   3.633   8.182  2.1932  1.0300 -2.0264
   63MOL0     H 8453   9.038   3.616   8.313  2.1682  1.2867  0.0195
   63MOL0     H 8454   8.851   3.848   8.371 -0.0872  0.1513  0.4542
   63MOL0     H 8455   8.897   3.706   8.467  2.0990  3.7793  0.5360
   63MOL0     H 8456   8.699   3.543   8.485 -0.3924  1.1235  0.7598
   63MOL0     H 8457   8.452   3.490   8.507 -3.9670 -1.6360  1.0177
   63MOL0     H 8458   8.348   3.591   8.399  1.5898  1.2393  0.1276
   63MOL0     H 8459   8.381   3.435   8.212  0.0592  0.1032  0.7942
   63MOL0     H 8460   8.290   3.372   8.347  0.8367  0.0566  3.8170
   63MOL0     H 8461   8.584   3.306   8.285 -0.6663 -1.6640 -3.0039
   63MOL0     H 8462   8.442   3.208   8.242 -0.4952  0.5204 -0.3262
   63MOL0     H 8463   8.411   3.242   8.517  0.5678 -0.5626  1.4254
   63MOL0     H 8464   8.568   3.261   8.521  2.2325 -1.5200 -0.3102
   63MOL0     H 8465   8.464   2.821   8.541  1.2430  1.6330  0.2324
   63MOL0     H 8466   8.192   2.722   8.693  0.1002  1.4437  0.3874
   63MOL0     H 8467   8.232   2.601   8.563 -0.0248 -1.3248  1.9279
   63MOL0     H 8468   8.357   2.667   8.654 -0.2265 -2.2017 -0.2270
   63MOL0     H 8469   7.757   2.921   8.238 -0.1735  0.6521  0.2721
   63MOL0     H 8470   7.526   2.862   8.198 -1.0332 -0.2370  0.6798
   63MOL0     H 8471   7.199   2.633   8.382 -1.5493  1.2904  0.9772
   63MOL0     H 8472   7.306   2.688   8.527  0.1196 -0.6435 -0.3228
   63MOL0     H 8473   7.309   2.903   8.457  0.3055 -0.8109  0.6787
   63MOL0     H 8474   7.237   2.880   8.301 -0.0430  0.8628  0.4408
   63MOL0     H 8475   7.073   2.989   8.462  1.4943 -0.1531  0.9715
   63MOL0     H 8476   7.070   2.833   8.549  2.1530 -1.1583  0.0656
   63MOL0     H 8477   6.977   2.889   8.264  0.2141  1.3948  0.3793
   63MOL0     H 8478   7.000   2.726   8.330  1.7228  0.9633 -1.7515
   63MOL0     H 8479   6.773   2.862   8.330  0.3675  4.4589  0.1437
   63MOL0     H 8480   6.824   2.947   8.458  1.6380 -0.5643  0.5385
   63MOL0     H 8481   6.814   2.640   8.477  0.7848  0.7134 -2.4692
   63MOL0     H 8482   6.866   2.746   8.608  0.6227  3.6658 -0.5237
   63MOL0     H 8483   6.593   2.739   8.473  2.3706  1.2422 -1.6649
   63MOL0     H 8484   6.643   2.860   8.588 -0.6883  0.0390  1.1991
   63MOL0     H 8485   6.677   2.685   8.764  2.0203  0.8407 -1.4186
   63MOL0     H 8486   6.633   2.551   8.665  3.1389  0.1011 -1.0352
   63MOL0     H 8487   7.530   2.604   8.549 -0.9827 -0.0667 -0.3984
   63MOL0     H 8488   7.762   2.698   8.608  1.4954 -1.6730 -1.3263
   63MOL0     H 8489   8.068   3.009   8.327 -0.6347 -1.5290  0.7228
   63MOL0     H 8490   8.264   3.127   8.314 -3.7076  0.2900  0.6479
   63MOL0     H 8491   9.658   4.067   8.689  2.0996 -0.7504  2.5314
   63MOL0     H 8492   9.867   4.140   8.759  0.8124 -1.3595  1.5009
   63MOL0     H 8493  10.367   4.050   8.623  0.7181  1.1606 -1.6966
   63MOL0     H 8494  10.606   4.128   8.632  2.4243  0.1477  3.2986
   63MOL0     H 8495  10.683   4.521   8.815  0.6199  0.4316 -1.3747
   63MOL0     H 8496  10.721   4.439   8.949  0.1012  0.1381  0.2288
   63MOL0     H 8497  10.912   4.571   8.854  0.2220 -0.2171  2.6867
   63MOL0     H 8498  10.921   4.476   8.708  0.7584  3.8723  0.8518
   63MOL0     H 8499  10.975   4.271   8.845  1.8287 -0.2664 -0.7367
   63MOL0     H 8500  10.926   4.372   8.989 -1.2278 -0.7821 -0.1231
   63MOL0     H 8501  11.139   4.499   8.935 -2.1902 -0.3641  0.1520
   63MOL0     H 8502  11.167   4.394   8.799  2.0873  1.0181 -0.7264
   63MOL0     H 8503  11.258   4.151   9.157 -0.8612  3.1576  2.3377
   63MOL0     H 8504  10.486   4.439   8.902  0.4635 -1.3795  2.2415
   63MOL0     H 8505  10.261   4.386   8.877  0.4945  0.8488  0.4046
   64MOL0     O 8506   0.143   6.250   6.756  0.1037  0.2784  0.4232
   64MOL0     C 8507   0.196   6.271   6.647 -0.2748  0.2135 -0.4083
   64MOL0     O 8508   0.159   6.359   6.555  0.1998 -0.4541 -0.3541
   64MOL0     C 8509   0.030   6.411   6.544 -0.3919  0.6089 -0.5346
   64MOL0     C 8510  -0.081   6.395   6.637 -0.1420  0.2243  0.8287
   64MOL0     C 8511  -0.206   6.452   6.614 -0.0520  0.4146 -0.2242
   64MOL0     C 8512  -0.226   6.521   6.491  0.0140 -0.0818 -0.8760
   64MOL0     O 8513  -0.342   6.578   6.461 -0.4388  0.2261 -0.6981
   64MOL0     C 8514  -0.447   6.573   6.556 -0.4863 -0.0816 -0.2133
   64MOL0     C 8515  -0.559   6.656   6.500  0.1739  0.0324 -0.8690
   64MOL0     C 8516  -0.678   6.692   6.598  0.1164  0.5596 -0.0578
   64MOL0     C 8517  -0.770   6.575   6.634  0.1625 -0.0295 -0.2243
   64MOL0     C 8518  -0.893   6.611   6.715 -0.1422 -0.5705  0.7637
   64MOL0     C 8519  -0.983   6.485   6.725  0.1790 -0.6034  0.4490
   64MOL0     C 8520  -1.077   6.488   6.850 -0.2541  0.2426 -0.5588
   64MOL0     C 8521  -1.196   6.588   6.835  0.5546  0.2634  0.6698
   64MOL0     N 8522  -1.255   6.618   6.963 -0.4046 -0.6978 -0.5596
   64MOL0     C 8523  -1.396   6.608   6.997 -0.5668  0.6841 -0.7151
   64MOL0     C 8524  -1.396   6.627   7.129  0.8413 -0.0761 -0.0228
   64MOL0     C 8525  -1.524   6.630   7.214 -0.0849  0.2180  0.3814
   64MOL0     C 8526  -1.605   6.498   7.203 -0.2240 -0.5450 -0.2565
   64MOL0     C 8527  -1.721   6.482   7.111  0.3394 -0.3192 -0.6782
   64MOL0     C 8528  -1.844   6.576   7.140 -0.4268 -0.3446 -0.5629
   64MOL0     O 8529  -1.932   6.556   7.031  0.0055 -0.0262  0.2258
   64MOL0     C 8530  -2.065   6.537   7.065  0.2218  0.0108  0.3020
   64MOL0     C 8531  -2.121   6.558   7.190 -0.3112 -0.5843  0.1771
   64MOL0     C 8532  -2.263   6.555   7.213  0.7250  0.2595  0.6847
   64MOL0     C 8533  -2.309   6.598   7.353  0.2561 -0.2232  0.3392
   64MOL0     C 8534  -2.348   6.505   7.112  1.1144  0.2303  0.2051
   64MOL0     C 8535  -2.499   6.485   7.127 -1.4886  0.4490 -0.1418
   64MOL0     O 8536  -2.527   6.447   7.256  0.0782 -1.2264  0.3301
   64MOL0     C 8537  -2.657   6.416   7.280  0.4044 -0.8838 -0.1697
   64MOL0     C 8538  -2.763   6.513   7.287 -0.7702  0.0646 -0.3033
   64MOL0     C 8539  -2.896   6.486   7.300 -0.7315  0.1783 -0.6242
   64MOL0     C 8540  -2.937   6.361   7.321  0.0166  0.5427  0.2808
   64MOL0     O 8541  -3.065   6.343   7.323  0.2270 -0.4059  0.3923
   64MOL0     C 8542  -3.113   6.210   7.354 -0.0166  0.5164 -0.0062
   64MOL0     C 8543  -3.268   6.197   7.335 -0.1041 -0.7060  0.3597
   64MOL0     C 8544  -3.309   6.066   7.395 -0.0243  0.6290  0.0675
   64MOL0     C 8545  -3.458   6.057   7.387  1.3043 -0.2525  1.2288
   64MOL0     C 8546  -3.514   5.932   7.451 -1.1664  0.1454  0.1539
   64MOL0     C 8547  -3.652   5.909   7.383  0.2488  0.7454  0.5885
   64MOL0     C 8548  -3.712   5.781   7.432  0.4961 -0.1496  0.1339
   64MOL0     C 8549  -3.846   5.765   7.356  1.2166  0.0721  0.2143
   64MOL0    Cl 8550  -3.908   5.597   7.369  0.1092  0.1551 -0.0186
   64MOL0     C 8551  -2.840   6.258   7.318  0.5298  0.1207  0.3801
   64MOL0     C 8552  -2.702   6.282   7.297 -1.0649  0.0298 -0.1742
   64MOL0     O 8553  -2.570   6.475   7.031  0.6994 -0.1092  0.0734
   64MOL0     C 8554  -2.289   6.478   6.986  0.2949 -0.6423 -0.3057
   64MOL0     C 8555  -2.153   6.499   6.967  0.1451  0.6665 -0.2061
   64MOL0     N 8556  -1.275   6.658   7.177 -0.0219 -0.7573 -0.2513
   64MOL0     N 8557  -1.193   6.658   7.077 -0.6403 -0.1785  0.1222
   64MOL0     C 8558  -0.115   6.529   6.401  0.1561  0.7709  0.3126
   64MOL0     C 8559   0.005   6.468   6.423  0.5786  0.9895  0.3635
   64MOL0     C 8560   0.336   6.210   6.639 -0.4212 -0.3145 -0.3745
   64MOL0     C 8561   0.407   6.172   6.746  0.9443 -0.3415  0.5072
   64MOL0     C 8562   0.523   6.102   6.743  0.2963 -0.0072  0.2500
   64MOL0     C 8563   0.585   6.068   6.624 -0.1591 -0.3790  0.3090
   64MOL0     O 8564   0.705   5.997   6.636  0.5258 -0.4081 -0.0465
   64MOL0     C 8565   0.786   5.955   6.523  0.2092  0.3937  0.0911
   64MOL0     C 8566   0.893   6.068   6.495 -0.1025 -0.2848 -0.5744
   64MOL0     C 8567   0.995   6.091   6.615 -0.3264 -0.7275 -0.0631
   64MOL0     C 8568   1.081   6.219   6.587  0.7843 -0.1934  0.4210
   64MOL0     C 8569   1.158   6.263   6.703 -0.6198  0.0346  0.2219
   64MOL0     C 8570   1.238   6.306   6.782  0.0467 -0.2125  0.0117
   64MOL0     C 8571   0.523   6.116   6.507 -0.3873  0.2614  0.4062
   64MOL0     C 8572   0.407   6.183   6.519  1.3669  0.8013  0.2322
   64MOL0     H 8573  -0.066   6.359   6.738 -2.2152 -3.4145  0.0145
   64MOL0     H 8574  -0.283   6.431   6.687 -0.1888 -0.9490 -0.7404
   64MOL0     H 8575  -0.491   6.473   6.558 -2.3187  0.6094 -2.1373
   64MOL0     H 8576  -0.424   6.606   6.657 -2.7513 -2.8300  1.3633
   64MOL0     H 8577  -0.511   6.747   6.464  0.1153  1.0817  1.5645
   64MOL0     H 8578  -0.596   6.592   6.418 -0.7433 -2.3021  1.2241
   64MOL0     H 8579  -0.629   6.723   6.692  3.1085 -2.9588 -0.2419
   64MOL0     H 8580  -0.731   6.776   6.552  3.3998  1.9299 -1.6678
   64MOL0     H 8581  -0.801   6.526   6.541 -0.0485  1.5756 -1.0379
   64MOL0     H 8582  -0.719   6.498   6.692  0.9816  0.8514  0.2464
   64MOL0     H 8583  -0.860   6.633   6.817  1.4369 -0.4464  0.2487
   64MOL0     H 8584  -0.947   6.695   6.669  2.3520  1.5301  1.3912
   64MOL0     H 8585  -1.035   6.480   6.629  0.9451 -1.4096  0.0634
   64MOL0     H 8586  -0.915   6.400   6.735  1.5149  0.4230  0.5341
   64MOL0     H 8587  -1.106   6.386   6.878  1.7466 -0.1774  0.1332
   64MOL0     H 8588  -1.017   6.520   6.935 -1.4643 -0.0915  0.4645
   64MOL0     H 8589  -1.270   6.539   6.771  0.3507  1.9636 -0.4529
   64MOL0     H 8590  -1.152   6.675   6.785  0.0814  1.3933  2.1439
   64MOL0     H 8591  -1.482   6.583   6.936 -0.8709  0.2650 -0.1252
   64MOL0     H 8592  -1.489   6.638   7.317 -1.9709 -2.8618  1.3817
   64MOL0     H 8593  -1.585   6.714   7.182 -1.1777 -1.2348 -1.5936
   64MOL0     H 8594  -1.639   6.481   7.305  1.3312 -0.7295  0.2677
   64MOL0     H 8595  -1.534   6.415   7.191 -0.0291 -0.3167 -0.7319
   64MOL0     H 8596  -1.756   6.380   7.129  1.0371 -0.2235  1.4567
   64MOL0     H 8597  -1.683   6.479   7.008 -0.1363  0.5887 -0.8966
   64MOL0     H 8598  -1.806   6.678   7.129  1.1117 -0.9720 -1.4337
   64MOL0     H 8599  -1.886   6.544   7.236  0.9194 -1.2831 -0.2662
   64MOL0     H 8600  -2.066   6.594   7.276  2.4085  0.2512 -1.7853
   64MOL0     H 8601  -2.335   6.513   7.417  0.6995 -0.2134  0.5408
   64MOL0     H 8602  -2.232   6.666   7.390  2.8724 -1.1714 -2.8125
   64MOL0     H 8603  -2.395   6.664   7.340  0.1122 -0.6809 -1.3023
   64MOL0     H 8604  -2.724   6.614   7.279  3.6123 -1.3399  0.3406
   64MOL0     H 8605  -2.960   6.572   7.307  0.7033  1.1187  2.9581
   64MOL0     H 8606  -3.065   6.144   7.282  0.5636  0.7851  0.1297
   64MOL0     H 8607  -3.078   6.172   7.450  1.6655  1.0067 -0.4032
   64MOL0     H 8608  -3.323   6.277   7.385 -2.3391  0.2331 -3.2706
   64MOL0     H 8609  -3.291   6.206   7.229  2.7774  1.4805 -0.2002
   64MOL0     H 8610  -3.273   6.048   7.496 -0.2668  0.8471  0.1926
   64MOL0     H 8611  -3.261   5.983   7.341 -0.5116  1.0998 -1.1452
   64MOL0     H 8612  -3.519   6.135   7.435 -2.7002 -1.9750 -0.5627
   64MOL0     H 8613  -3.481   6.055   7.281  4.1807  0.3284  0.5206
   64MOL0     H 8614  -3.524   5.936   7.560  0.7514 -0.5976  0.4016
   64MOL0     H 8615  -3.446   5.853   7.418  1.3984  2.2617  0.0439
   64MOL0     H 8616  -3.708   6.000   7.407 -2.0094 -0.3955 -0.0559
   64MOL0     H 8617  -3.636   5.893   7.276  1.6791 -2.4593  1.1566
   64MOL0     H 8618  -3.720   5.768   7.540  1.9139  0.0954  0.2887
   64MOL0     H 8619  -3.647   5.703   7.391 -0.6251 -1.5967  0.9943
   64MOL0     H 8620  -3.828   5.781   7.250 -0.1252 -2.8696 -0.5472
   64MOL0     H 8621  -3.915   5.834   7.406  2.2148  1.8073 -0.7240
   64MOL0     H 8622  -2.866   6.152   7.322  0.0643 -0.1977 -4.5011
   64MOL0     H 8623  -2.625   6.207   7.285  2.2264  3.0974  0.0750
   64MOL0     H 8624  -2.347   6.435   6.905 -0.8156  2.7167 -1.4715
   64MOL0     H 8625  -2.106   6.491   6.869  0.5737  2.3573 -0.1672
   64MOL0     H 8626  -0.131   6.589   6.312  1.7276  0.7483 -0.0057
   64MOL0     H 8627   0.079   6.476   6.343 -1.1465  0.8009 -1.3292
   64MOL0     H 8628   0.367   6.185   6.846 -1.5775  1.4935 -0.6525
   64MOL0     H 8629   0.564   6.068   6.837  1.8231  0.3676 -0.2411
   64MOL0     H 8630   0.835   5.860   6.546  1.6860  0.4936 -2.2904
   64MOL0     H 8631   0.721   5.946   6.436  0.8296  3.9085 -0.9177
   64MOL0     H 8632   0.849   6.164   6.466 -0.1767 -0.6968 -1.9229
   64MOL0     H 8633   0.955   6.037   6.410  1.6746  0.6411  0.3390
   64MOL0     H 8634   1.048   5.999   6.642 -0.5442 -0.4768  1.3207
   64MOL0     H 8635   0.923   6.127   6.690  0.6573  2.0618 -0.3646
   64MOL0     H 8636   1.012   6.298   6.557 -1.8000 -1.8130  1.7878
   64MOL0     H 8637   1.148   6.193   6.504  0.2221 -0.4722  0.0453
   64MOL0     H 8638   1.308   6.350   6.852  0.4187  1.7289 -1.4840
   64MOL0     H 8639   0.566   6.090   6.411 -0.0611 -0.3950  0.7250
   64MOL0     H 8640   0.357   6.231   6.435 -0.5108 -1.5102 -0.0662
   65MOL0     O 8641   6.370   6.254   3.572 -0.2184 -0.3406 -0.1370
   65MOL0     C 8642   6.440   6.237   3.473 -0.8347  0.0494  0.0057
   65MOL0     O 8643   6.394   6.228   3.344  0.1581 -0.1263 -0.0546
   65MOL0     C 8644   6.260   6.215   3.333 -0.4383 -0.3520  0.6094
   65MOL0     C 8645   6.177   6.316   3.293  0.3315 -0.1759  0.2832
   65MOL0     C 8646   6.041   6.288   3.275  0.2979  0.2007  0.6317
   65MOL0     C 8647   5.987   6.154   3.293  0.2825  0.6002 -0.4711
   65MOL0     O 8648   5.857   6.115   3.287  0.1756 -0.2020  0.4859
   65MOL0     C 8649   5.775   6.201   3.205 -0.3808 -0.3034 -0.0613
   65MOL0     C 8650   5.639   6.132   3.195 -0.1848 -0.9173  0.4966
   65MOL0     C 8651   5.538   6.227   3.122 -0.0638 -1.0822 -0.0147
   65MOL0     C 8652   5.401   6.153   3.101  0.6174 -0.6552 -0.4279
   65MOL0     C 8653   5.304   6.211   2.994 -0.0367  0.1945 -0.3342
   65MOL0     C 8654   5.241   6.353   3.024  0.9872 -0.1413  0.9736
   65MOL0     C 8655   5.148   6.386   2.900 -0.3699 -0.1212 -0.3990
   65MOL0     C 8656   5.083   6.519   2.928  0.9444 -0.0320 -1.1882
   65MOL0     N 8657   4.989   6.565   2.821  0.9285  0.6620 -0.7717
   65MOL0     C 8658   4.889   6.661   2.859 -0.6625  0.0495 -0.5360
   65MOL0     C 8659   4.796   6.655   2.757 -0.0681 -0.4799 -0.5185
   65MOL0     C 8660   4.673   6.745   2.746 -0.2972 -0.6487  0.2251
   65MOL0     C 8661   4.700   6.892   2.799 -0.3692 -0.0972  0.5703
   65MOL0     C 8662   4.573   6.972   2.795  0.2949 -0.1927  0.3052
   65MOL0     C 8663   4.597   7.105   2.880 -0.0120 -0.5787 -0.1696
   65MOL0     O 8664   4.498   7.209   2.845 -0.0237 -0.0095  0.3113
   65MOL0     C 8665   4.482   7.262   2.713  0.4017 -0.0168 -0.2788
   65MOL0     C 8666   4.363   7.329   2.695  0.1038  0.4989 -0.3852
   65MOL0     C 8667   4.331   7.382   2.577 -0.2020 -0.1140 -0.3447
   65MOL0     C 8668   4.184   7.425   2.570 -0.8018 -0.0894 -0.3810
   65MOL0     C 8669   4.413   7.367   2.465  0.1186 -0.7745 -0.1470
   65MOL0     C 8670   4.383   7.425   2.337 -0.3811  0.1161  0.1087
   65MOL0     O 8671   4.407   7.337   2.232  0.6041 -0.1139 -0.2362
   65MOL0     C 8672   4.353   7.359   2.109  0.2713  0.1808  0.0348
   65MOL0     C 8673   4.223   7.300   2.077 -0.3278  0.8818  1.4197
   65MOL0     C 8674   4.174   7.341   1.953 -0.6086  0.2244  0.2693
   65MOL0     C 8675   4.249   7.418   1.856 -0.6191  0.6612  0.0321
   65MOL0     O 8676   4.185   7.445   1.739 -0.1166 -0.7358 -0.1763
   65MOL0     C 8677   4.245   7.548   1.655  0.2656 -0.0436 -0.4544
   65MOL0     C 8678   4.144   7.605   1.552 -0.1867 -0.1544  0.4499
   65MOL0     C 8679   4.039   7.701   1.625 -1.3573  0.7679 -0.0500
   65MOL0     C 8680   3.926   7.731   1.516 -0.1046 -0.0682  0.4784
   65MOL0     C 8681   3.798   7.748   1.588 -0.2172  0.3223 -0.6836
   65MOL0     C 8682   3.680   7.805   1.493 -0.2899  0.3736 -0.2561
   65MOL0     C 8683   3.540   7.799   1.563  0.7130  0.2824 -0.4627
   65MOL0     C 8684   3.437   7.843   1.459 -0.3199 -0.8677 -0.5750
   65MOL0    Cl 8685   3.272   7.869   1.516  0.0026  0.0955  0.2545
   65MOL0     C 8686   4.373   7.459   1.891 -0.0940  0.1129 -0.0778
   65MOL0     C 8687   4.428   7.441   2.026 -0.1747  0.3053  0.3101
   65MOL0     O 8688   4.332   7.540   2.328  0.4387 -1.1954  0.1399
   65MOL0     C 8689   4.535   7.315   2.484  0.1462 -0.4489 -0.2533
   65MOL0     C 8690   4.574   7.259   2.614  0.4796  0.1156 -0.3997
   65MOL0     N 8691   4.847   6.569   2.662  0.8038  0.8019  1.0302
   65MOL0     N 8692   4.950   6.510   2.701 -0.4036  0.0084 -0.3647
   65MOL0     C 8693   6.076   6.060   3.340 -0.7672 -0.7357 -0.6654
   65MOL0     C 8694   6.216   6.090   3.360  0.0744 -0.5907  0.1567
   65MOL0     C 8695   6.587   6.223   3.491 -0.5632 -0.4865 -0.4177
   65MOL0     C 8696   6.659   6.241   3.610 -0.3513 -0.2516 -0.8705
   65MOL0     C 8697   6.798   6.236   3.607 -0.8941 -0.8317  0.6650
   65MOL0     C 8698   6.876   6.203   3.500 -0.4231  0.7862 -0.4944
   65MOL0     O 8699   7.016   6.190   3.522 -0.3302 -0.3682  0.1370
   65MOL0     C 8700   7.101   6.167   3.406 -0.4115  0.1670  0.8259
   65MOL0     C 8701   7.247   6.198   3.447 -0.7408  0.7682  0.7125
   65MOL0     C 8702   7.352   6.123   3.354 -0.4234 -0.0111  1.0953
   65MOL0     C 8703   7.349   6.187   3.216 -0.3414  0.3457  0.3113
   65MOL0     C 8704   7.441   6.304   3.216  0.1267  0.3310  0.2322
   65MOL0     C 8705   7.513   6.405   3.218 -0.2331  0.3795 -1.0597
   65MOL0     C 8706   6.806   6.171   3.379 -0.1836 -0.4655  0.2281
   65MOL0     C 8707   6.666   6.187   3.378 -0.3435 -0.3589  0.5619
   65MOL0     H 8708   6.220   6.416   3.286  0.7709 -0.3281  0.7589
   65MOL0     H 8709   5.989   6.373   3.232  1.3703  0.1020 -0.9600
   65MOL0     H 8710   5.776   6.306   3.236  0.3064 -0.2005 -0.4061
   65MOL0     H 8711   5.831   6.210   3.111  1.5756 -1.0242  0.9688
   65MOL0     H 8712   5.644   6.039   3.138  1.4563 -0.6107  0.0733
   65MOL0     H 8713   5.599   6.119   3.296  1.2714  1.3132  1.4546
   65MOL0     H 8714   5.525   6.318   3.181  0.1147 -1.0824  0.0259
   65MOL0     H 8715   5.574   6.270   3.028 -1.4312  0.0394 -0.0482
   65MOL0     H 8716   5.411   6.045   3.086 -3.8993 -1.5027  1.0087
   65MOL0     H 8717   5.342   6.165   3.193 -1.6672  1.8416 -2.0825
   65MOL0     H 8718   5.361   6.205   2.901 -2.1914 -2.6675 -1.5843
   65MOL0     H 8719   5.219   6.143   2.984  1.5507 -2.2345  1.4447
   65MOL0     H 8720   5.190   6.349   3.120 -1.2810 -4.9738 -0.1509
   65MOL0     H 8721   5.323   6.425   3.032  1.0071  0.2756 -1.8710
   65MOL0     H 8722   5.203   6.406   2.808 -0.3930 -0.7577 -0.5589
   65MOL0     H 8723   5.072   6.310   2.877  0.6774 -0.5369 -2.7683
   65MOL0     H 8724   5.156   6.598   2.947 -0.0027  0.5282  0.3129
   65MOL0     H 8725   5.023   6.503   3.018 -0.4487 -0.4839 -2.1782
   65MOL0     H 8726   4.889   6.734   2.939  1.9834 -0.0002 -0.3887
   65MOL0     H 8727   4.652   6.751   2.639 -0.1542  0.5655  0.2501
   65MOL0     H 8728   4.593   6.694   2.801 -1.2876  0.2471 -0.3264
   65MOL0     H 8729   4.777   6.936   2.736  0.4853 -2.6305 -0.3068
   65MOL0     H 8730   4.724   6.878   2.905 -0.6944  1.8855  0.9434
   65MOL0     H 8731   4.490   6.911   2.832  0.8748 -0.7463  0.7330
   65MOL0     H 8732   4.537   6.996   2.694 -2.4784  0.0753  1.2914
   65MOL0     H 8733   4.693   7.152   2.858  0.0589 -1.1006 -0.9994
   65MOL0     H 8734   4.592   7.088   2.988 -0.9512  1.5995  0.1875
   65MOL0     H 8735   4.294   7.346   2.777 -1.1924 -0.5428 -1.2241
   65MOL0     H 8736   4.162   7.529   2.593 -2.6012  0.1250 -2.6475
   65MOL0     H 8737   4.147   7.398   2.470 -0.1395 -1.2163 -0.3417
   65MOL0     H 8738   4.133   7.359   2.640  0.5209 -0.8767 -0.1140
   65MOL0     H 8739   4.167   7.254   2.158 -2.3281  1.4494  0.4398
   65MOL0     H 8740   4.074   7.306   1.929 -0.1783 -1.0962  0.3122
   65MOL0     H 8741   4.277   7.633   1.715 -0.8853 -0.7455  1.2098
   65MOL0     H 8742   4.331   7.502   1.605  0.9682  1.4744 -0.6987
   65MOL0     H 8743   4.183   7.665   1.469 -1.4048  0.0533  0.0131
   65MOL0     H 8744   4.096   7.516   1.510 -2.7322  1.4473 -0.2774
   65MOL0     H 8745   4.087   7.792   1.660 -2.6266  1.8570 -1.0499
   65MOL0     H 8746   3.994   7.640   1.704  1.7081 -0.3775  0.9680
   65MOL0     H 8747   3.957   7.828   1.475 -1.1233  0.5025  1.0373
   65MOL0     H 8748   3.915   7.662   1.432 -0.5853 -0.6896  1.0437
   65MOL0     H 8749   3.813   7.824   1.664 -2.2167  1.0045 -0.9116
   65MOL0     H 8750   3.766   7.651   1.627 -1.7328 -1.5892 -5.7869
   65MOL0     H 8751   3.698   7.910   1.468  0.5483  0.1430 -0.6732
   65MOL0     H 8752   3.676   7.744   1.402  1.5474  1.1605 -0.9220
   65MOL0     H 8753   3.536   7.862   1.653 -0.4028 -1.7152  0.9603
   65MOL0     H 8754   3.511   7.703   1.606 -3.8699  2.7318  2.8327
   65MOL0     H 8755   3.437   7.761   1.386 -0.6905  1.6665 -3.6207
   65MOL0     H 8756   3.468   7.933   1.406 -2.3665  0.3857  0.2583
   65MOL0     H 8757   4.427   7.515   1.816  0.2685 -0.2786 -0.1129
   65MOL0     H 8758   4.530   7.467   2.055  1.2197 -1.9019 -2.1288
   65MOL0     H 8759   4.616   7.318   2.412  0.1769 -0.6425 -0.2281
   65MOL0     H 8760   4.679   7.231   2.625  0.3929  0.4375  1.5074
   65MOL0     H 8761   6.032   5.963   3.363 -1.2822  0.0604  2.0811
   65MOL0     H 8762   6.286   6.018   3.400 -1.0918 -0.5586  2.4380
   65MOL0     H 8763   6.606   6.247   3.705  1.1012 -0.9938  0.0306
   65MOL0     H 8764   6.847   6.254   3.702  1.5292  0.3377 -0.6924
   65MOL0     H 8765   7.105   6.060   3.383 -0.1178  0.1738  0.8404
   65MOL0     H 8766   7.064   6.221   3.318  1.6985 -2.1133 -1.6416
   65MOL0     H 8767   7.270   6.153   3.544  0.7307 -1.1879 -0.4717
   65MOL0     H 8768   7.267   6.305   3.449 -3.4469  1.4354 -1.0906
   65MOL0     H 8769   7.330   6.016   3.356  3.2701 -0.9434 -0.1689
   65MOL0     H 8770   7.454   6.140   3.390 -0.7065  2.5603  0.8399
   65MOL0     H 8771   7.250   6.217   3.181  0.2411 -0.4267 -2.2526
   65MOL0     H 8772   7.380   6.116   3.138 -2.1400 -0.0431 -0.0856
   65MOL0     H 8773   7.558   6.501   3.233  1.0137 -0.5372  1.7409
   65MOL0     H 8774   6.864   6.143   3.292  1.2271  0.5888  0.7932
   65MOL0     H 8775   6.606   6.148   3.296 -2.6599 -0.0036  1.9858
   66MOL0     O 8776   8.694   6.303   2.799  0.7039  0.2453 -0.2159
   66MOL0     C 8777   8.671   6.282   2.924  0.7453 -0.7103  0.3665
   66MOL0     O 8778   8.549   6.311   2.994 -0.4258 -0.0905 -0.1996
   66MOL0     C 8779   8.447   6.351   2.918  0.5861 -0.3345 -0.0245
   66MOL0     C 8780   8.337   6.277   2.928 -0.3823 -0.9673  0.2066
   66MOL0     C 8781   8.225   6.316   2.853 -0.1459  0.3690 -0.0668
   66MOL0     C 8782   8.230   6.435   2.780  0.3327  0.1080  0.0375
   66MOL0     O 8783   8.115   6.482   2.718  0.5046  0.1585  0.3608
   66MOL0     C 8784   8.007   6.517   2.802  0.3248 -0.3400  0.4667
   66MOL0     C 8785   7.877   6.463   2.742  0.2301 -0.0747  0.0375
   66MOL0     C 8786   7.750   6.513   2.825 -0.9545  0.0262 -0.3091
   66MOL0     C 8787   7.625   6.453   2.764 -0.3075 -0.2751  0.4377
   66MOL0     C 8788   7.499   6.467   2.851 -1.6975  0.2886  0.4000
   66MOL0     C 8789   7.392   6.373   2.788 -0.2904  0.4012  0.0425
   66MOL0     C 8790   7.265   6.398   2.866  0.1066  0.0739 -0.5898
   66MOL0     C 8791   7.153   6.304   2.822  0.0651  0.5707  0.3815
   66MOL0     N 8792   7.034   6.331   2.904 -0.4025  0.2791 -0.2501
   66MOL0     C 8793   6.936   6.424   2.875 -0.8690  0.9385 -0.4095
   66MOL0     C 8794   6.855   6.421   2.987 -0.6780  1.2608  0.0032
   66MOL0     C 8795   6.715   6.483   3.007  0.6922 -0.1850  0.1053
   66MOL0     C 8796   6.738   6.639   3.009 -0.2502  0.1509  0.9974
   66MOL0     C 8797   6.597   6.710   3.010  0.0723  1.6705  0.5228
   66MOL0     C 8798   6.507   6.690   3.125  0.5365 -0.1147 -0.3209
   66MOL0     O 8799   6.385   6.756   3.104 -0.1251 -0.5159  0.0384
   66MOL0     C 8800   6.285   6.737   3.206  0.7636 -0.1296 -0.1236
   66MOL0     C 8801   6.312   6.668   3.329  0.1822 -0.3322  0.9259
   66MOL0     C 8802   6.224   6.662   3.437 -0.1975  0.6011  0.4787
   66MOL0     C 8803   6.261   6.572   3.554 -0.2596  0.6098 -0.3562
   66MOL0     C 8804   6.107   6.733   3.422  0.3382  0.0675 -0.0984
   66MOL0     C 8805   5.999   6.727   3.527  0.7138  0.3143 -0.5703
   66MOL0     O 8806   5.873   6.757   3.486  0.3737  0.2962  0.9027
   66MOL0     C 8807   5.763   6.739   3.563  0.0765 -0.1684 -0.8487
   66MOL0     C 8808   5.656   6.820   3.525 -0.0001  0.7532 -0.4149
   66MOL0     C 8809   5.534   6.828   3.584  0.2627 -0.4041 -0.2138
   66MOL0     C 8810   5.506   6.743   3.684 -0.8995  0.0858 -0.0816
   66MOL0     O 8811   5.390   6.727   3.751 -0.3010 -0.2786 -0.2903
   66MOL0     C 8812   5.272   6.791   3.706 -0.0526 -0.0557 -0.7174
   66MOL0     C 8813   5.153   6.721   3.774  0.8735  0.5537 -0.3315
   66MOL0     C 8814   5.043   6.824   3.768  0.0407  0.1816 -0.4270
   66MOL0     C 8815   4.908   6.767   3.818  0.1263  0.3440  0.2209
   66MOL0     C 8816   4.788   6.855   3.800  0.0487  0.6096 -0.1322
   66MOL0     C 8817   4.657   6.782   3.779  0.3286  0.0033 -0.2120
   66MOL0     C 8818   4.550   6.881   3.755  0.6426 -0.8617  0.1995
   66MOL0     C 8819   4.419   6.801   3.776  0.0946  0.2826 -0.1868
   66MOL0    Cl 8820   4.276   6.914   3.777 -0.3974  0.3887 -0.0878
   66MOL0     C 8821   5.606   6.657   3.736 -1.0705 -0.1225  0.1753
   66MOL0     C 8822   5.732   6.654   3.680 -0.1701  0.6446  0.7342
   66MOL0     O 8823   6.025   6.705   3.646 -0.3781  0.5235  0.0620
   66MOL0     C 8824   6.084   6.805   3.304  0.7913  0.1962  0.2475
   66MOL0     C 8825   6.170   6.807   3.199  0.6847  0.0050 -0.2641
   66MOL0     N 8826   6.911   6.332   3.086  0.6823  0.2929  0.2069
   66MOL0     N 8827   7.016   6.282   3.027  0.5759  0.7476 -0.7527
   66MOL0     C 8828   8.342   6.515   2.776  0.1017 -0.7275 -0.0245
   66MOL0     C 8829   8.456   6.465   2.842  0.4306 -0.7204 -0.1207
   66MOL0     C 8830   8.784   6.228   3.003  0.4380 -0.8267  0.6024
   66MOL0     C 8831   8.900   6.185   2.936 -0.3517  0.7136  0.2793
   66MOL0     C 8832   9.015   6.155   3.009 -0.2560  0.3161  0.6170
   66MOL0     C 8833   9.011   6.160   3.148  0.6811  0.1441 -0.5020
   66MOL0     O 8834   9.122   6.137   3.226 -0.4168  0.0948 -0.6344
   66MOL0     C 8835   9.139   6.222   3.340 -0.1866  0.6513 -0.2780
   66MOL0     C 8836   9.282   6.274   3.330  0.5231  0.2924  0.0449
   66MOL0     C 8837   9.389   6.180   3.387  0.0436  0.5980  0.2943
   66MOL0     C 8838   9.525   6.241   3.390 -0.0136  0.5531 -0.0434
   66MOL0     C 8839   9.612   6.160   3.482 -0.2689  0.8692  0.2987
   66MOL0     C 8840   9.695   6.100   3.554  1.0068  0.1537 -0.1006
   66MOL0     C 8841   8.886   6.181   3.208 -0.9370  0.3772  0.1498
   66MOL0     C 8842   8.780   6.220   3.140 -0.4515 -0.5671  0.0949
   66MOL0     H 8843   8.336   6.188   2.990  0.0825  0.3080  2.1498
   66MOL0     H 8844   8.130   6.265   2.845 -1.5939  2.8119  0.4941
   66MOL0     H 8845   8.017   6.495   2.908 -0.7761  0.4284  0.7462
   66MOL0     H 8846   8.001   6.626   2.798 -0.5388 -0.2186  3.1733
   66MOL0     H 8847   7.868   6.490   2.636  1.9322  0.2559 -0.0497
   66MOL0     H 8848   7.883   6.354   2.750  1.6466  0.0029  0.2598
   66MOL0     H 8849   7.761   6.494   2.932  1.3622  0.6712 -0.3772
   66MOL0     H 8850   7.735   6.621   2.817 -1.9032 -0.1029 -0.3504
   66MOL0     H 8851   7.615   6.488   2.662  1.0584 -2.6984 -0.6159
   66MOL0     H 8852   7.642   6.345   2.769 -0.6841 -0.3087  1.1556
   66MOL0     H 8853   7.523   6.421   2.948  0.5676  1.2831  0.3794
   66MOL0     H 8854   7.480   6.575   2.857  0.7674  0.9452 -1.6827
   66MOL0     H 8855   7.383   6.401   2.682  1.7743  1.3410  0.0626
   66MOL0     H 8856   7.428   6.270   2.798  1.0111  0.7445 -0.7552
   66MOL0     H 8857   7.282   6.385   2.974  0.8355 -0.2998 -0.7426
   66MOL0     H 8858   7.232   6.502   2.853  0.3899  0.1734 -0.5274
   66MOL0     H 8859   7.182   6.199   2.822 -0.8497  0.3096  0.1564
   66MOL0     H 8860   7.127   6.331   2.719  0.1606  1.4961  0.5900
   66MOL0     H 8861   6.907   6.483   2.789 -0.0526  0.4713 -1.0171
   66MOL0     H 8862   6.653   6.464   2.920  1.0740 -2.1193  0.2024
   66MOL0     H 8863   6.671   6.449   3.101  3.7076  0.3534  1.8731
   66MOL0     H 8864   6.784   6.668   2.914 -1.7085 -1.2119 -0.1808
   66MOL0     H 8865   6.810   6.664   3.087  2.6498 -4.1330  0.0258
   66MOL0     H 8866   6.556   6.672   2.916  0.9085  1.7027  0.1320
   66MOL0     H 8867   6.602   6.819   3.008  1.5700  1.6986  2.6878
   66MOL0     H 8868   6.571   6.719   3.209  2.7357  1.7562 -2.4684
   66MOL0     H 8869   6.486   6.583   3.129  0.5518 -0.0888  2.6041
   66MOL0     H 8870   6.401   6.610   3.350 -0.9471 -2.4611  0.1138
   66MOL0     H 8871   6.283   6.640   3.636 -0.5080 -0.3311  0.5111
   66MOL0     H 8872   6.185   6.497   3.577 -0.4564  1.3114  1.4207
   66MOL0     H 8873   6.348   6.509   3.535  0.0921  1.2818 -1.0272
   66MOL0     H 8874   5.676   6.891   3.445 -1.3289  2.6437  0.8224
   66MOL0     H 8875   5.466   6.901   3.541  0.1122 -0.3879  0.0479
   66MOL0     H 8876   5.284   6.898   3.730 -2.9371 -0.3290  2.7341
   66MOL0     H 8877   5.257   6.772   3.599 -1.2938  2.4722 -1.0731
   66MOL0     H 8878   5.128   6.623   3.732  1.5184 -0.4496  1.4905
   66MOL0     H 8879   5.175   6.700   3.880  0.3538 -1.5797 -0.5931
   66MOL0     H 8880   5.029   6.867   3.668 -0.5498  1.9663  0.3821
   66MOL0     H 8881   5.070   6.911   3.829  1.1018  1.5593 -2.7120
   66MOL0     H 8882   4.882   6.676   3.763 -0.3840  0.3700  0.4129
   66MOL0     H 8883   4.919   6.724   3.918  4.8732  1.5606  0.4744
   66MOL0     H 8884   4.807   6.924   3.717  1.1096  0.9406  0.3538
   66MOL0     H 8885   4.786   6.914   3.893  3.4162 -0.5943  0.8648
   66MOL0     H 8886   4.663   6.716   3.692  1.9370  0.2553 -0.3256
   66MOL0     H 8887   4.635   6.710   3.859 -2.0438 -0.4451 -1.1964
   66MOL0     H 8888   4.542   6.919   3.652  1.9505 -2.3032 -0.4633
   66MOL0     H 8889   4.557   6.962   3.829 -1.5241  1.3826 -1.8678
   66MOL0     H 8890   4.413   6.754   3.875  0.9608  0.1761 -0.1820
   66MOL0     H 8891   4.403   6.728   3.697  0.5389 -0.6316  0.5533
   66MOL0     H 8892   5.588   6.586   3.816  2.1309 -0.1853  0.9626
   66MOL0     H 8893   5.815   6.592   3.712  1.4436  1.7438 -1.0900
   66MOL0     H 8894   5.990   6.855   3.287  0.7173  0.1748  0.5782
   66MOL0     H 8895   6.150   6.866   3.110 -2.7769 -2.7856 -1.5916
   66MOL0     H 8896   8.352   6.601   2.712 -1.3394  0.4143  1.2195
   66MOL0     H 8897   8.545   6.525   2.838 -0.3940  0.5751  0.3361
   66MOL0     H 8898   8.908   6.187   2.828 -1.2354  0.9570  0.2094
   66MOL0     H 8899   9.109   6.135   2.959  0.3246 -2.1584  2.4696
   66MOL0     H 8900   9.068   6.305   3.346 -0.0120  0.7065  2.6830
   66MOL0     H 8901   9.130   6.170   3.436  0.7232  2.3882  0.7908
   66MOL0     H 8902   9.282   6.371   3.381 -1.7370 -0.2343  1.1962
   66MOL0     H 8903   9.305   6.311   3.230  0.7251  2.7672  0.9243
   66MOL0     H 8904   9.390   6.081   3.340  1.2571 -0.6891  2.8292
   66MOL0     H 8905   9.362   6.158   3.491 -0.0794 -0.8051 -0.0162
   66MOL0     H 8906   9.520   6.343   3.431 -0.8632  0.0873  1.0573
   66MOL0     H 8907   9.571   6.248   3.291  0.6804  1.3524  0.3234
   66MOL0     H 8908   9.761   6.057   3.626  0.0012 -0.1285  0.6802
   66MOL0     H 8909   8.882   6.185   3.317  1.3468  0.4428  0.2809
   66MOL0     H 8910   8.689   6.256   3.187 -0.0230 -1.1593  1.4021
   67MOL0     O 8911   6.650   3.479   3.553  0.1373  0.1150 -0.6956
   67MOL0     C 8912   6.729   3.410   3.622  0.3788  0.3366 -0.0841
   67MOL0     O 8913   6.703   3.288   3.660  0.0476 -0.8801 -0.5658
   67MOL0     C 8914   6.584   3.233   3.622  0.6026 -0.0368  0.2461
   67MOL0     C 8915   6.482   3.225   3.720  0.6251 -0.2976 -0.3458
   67MOL0     C 8916   6.355   3.181   3.680 -0.1429  0.4816  0.1329
   67MOL0     C 8917   6.337   3.135   3.553  1.2735  1.2848  0.4905
   67MOL0     O 8918   6.210   3.082   3.521 -1.2640  0.7433  0.4021
   67MOL0     C 8919   6.172   3.104   3.391  1.1972  0.2464  0.1188
   67MOL0     C 8920   6.014   3.107   3.390 -0.2021 -0.2470  0.7402
   67MOL0     C 8921   5.954   3.118   3.250 -0.4749  0.0421 -0.0770
   67MOL0     C 8922   5.799   3.107   3.266 -0.3501  0.2984  0.3216
   67MOL0     C 8923   5.726   3.111   3.136  0.4721  0.0337 -0.5298
   67MOL0     C 8924   5.574   3.101   3.174 -0.5254 -0.3864 -0.1053
   67MOL0     C 8925   5.494   3.103   3.040  0.7070 -0.1304 -0.1401
   67MOL0     C 8926   5.345   3.089   3.070  0.3593 -0.6508 -0.6968
   67MOL0     N 8927   5.302   3.207   3.134 -0.3123 -0.3891 -0.2839
   67MOL0     C 8928   5.247   3.322   3.081 -0.3332 -1.0061 -0.3865
   67MOL0     C 8929   5.198   3.388   3.190  0.8881  0.2843 -0.1726
   67MOL0     C 8930   5.134   3.526   3.186 -0.4526 -0.7847 -0.1497
   67MOL0     C 8931   4.999   3.527   3.116 -0.2921 -0.7025  0.3982
   67MOL0     C 8932   4.905   3.407   3.158  0.1321 -0.2708 -0.6475
   67MOL0     C 8933   4.869   3.408   3.306 -0.2338 -0.1946 -0.3016
   67MOL0     O 8934   4.812   3.545   3.327 -0.3453 -0.1087  0.1841
   67MOL0     C 8935   4.680   3.569   3.306 -0.5961  0.7575 -0.2161
   67MOL0     C 8936   4.581   3.479   3.310  0.3588 -0.7511 -0.3879
   67MOL0     C 8937   4.448   3.512   3.286 -0.6211  0.1105 -0.1481
   67MOL0     C 8938   4.334   3.412   3.284 -0.2113  0.3845 -0.4904
   67MOL0     C 8939   4.419   3.648   3.263  0.2977 -0.4392  0.1583
   67MOL0     C 8940   4.286   3.689   3.242  0.8301 -0.2504 -0.1361
   67MOL0     O 8941   4.202   3.626   3.155 -0.2435  0.6086 -0.0805
   67MOL0     C 8942   4.071   3.667   3.152  0.4484 -0.3094  1.8335
   67MOL0     C 8943   4.026   3.744   3.040 -0.6390  0.0885 -0.6642
   67MOL0     C 8944   3.909   3.809   3.036  1.5260  0.0117  0.0909
   67MOL0     C 8945   3.817   3.793   3.138 -0.6661  0.7075 -0.0751
   67MOL0     O 8946   3.691   3.850   3.133  0.9904 -0.6039 -0.0590
   67MOL0     C 8947   3.653   3.958   3.047 -0.4057  0.5871  0.0853
   67MOL0     C 8948   3.559   4.050   3.124 -0.2284 -0.5945 -0.1914
   67MOL0     C 8949   3.433   3.992   3.193  0.5541 -0.4649  0.3341
   67MOL0     C 8950   3.406   4.093   3.309 -1.0954  0.0779 -0.1053
   67MOL0     C 8951   3.266   4.097   3.355  1.0719 -0.4032  0.6925
   67MOL0     C 8952   3.228   4.229   3.407  0.3456  0.3965 -0.2764
   67MOL0     C 8953   3.068   4.246   3.420  0.3054  0.8419  0.5334
   67MOL0     C 8954   3.022   4.378   3.485  0.7043  0.1833 -0.4640
   67MOL0    Cl 8955   2.844   4.404   3.487  0.0047 -0.0604  0.0692
   67MOL0     C 8956   3.864   3.726   3.255  0.2725  0.0546  0.7486
   67MOL0     C 8957   3.985   3.658   3.258 -0.1908  0.3203  0.1334
   67MOL0     O 8958   4.242   3.781   3.317  0.4049 -0.0283  0.1336
   67MOL0     C 8959   4.518   3.745   3.258 -0.3372 -0.3706 -0.2776
   67MOL0     C 8960   4.649   3.703   3.273 -0.3085  0.1066  0.3360
   67MOL0     N 8961   5.222   3.323   3.301  0.2395 -0.4335  0.5654
   67MOL0     N 8962   5.281   3.213   3.271 -0.8410  0.2137  0.2097
   67MOL0     C 8963   6.447   3.131   3.466  0.4740  0.0735 -0.2812
   67MOL0     C 8964   6.572   3.186   3.494 -0.1230 -0.7111  0.5505
   67MOL0     C 8965   6.860   3.468   3.648  0.8072  0.0982 -0.7857
   67MOL0     C 8966   6.926   3.409   3.760  0.6922 -0.0362 -0.8533
   67MOL0     C 8967   7.061   3.437   3.786 -0.6981  0.3698  0.3528
   67MOL0     C 8968   7.128   3.526   3.703  0.4915  0.5430  0.5496
   67MOL0     O 8969   7.267   3.535   3.721 -1.4412  0.3012 -0.3791
   67MOL0     C 8970   7.343   3.642   3.670  0.6912  0.5850 -0.4158
   67MOL0     C 8971   7.490   3.616   3.695  0.3542 -0.5832 -0.5628
   67MOL0     C 8972   7.564   3.747   3.726  0.1955  0.2866 -0.0566
   67MOL0     C 8973   7.577   3.831   3.597 -0.5318 -0.5275  0.0800
   67MOL0     C 8974   7.611   3.973   3.638  0.9266 -0.6953 -0.3130
   67MOL0     C 8975   7.641   4.087   3.675 -0.9259 -0.3369  0.2770
   67MOL0     C 8976   7.062   3.584   3.592 -0.0290  0.3647  0.2551
   67MOL0     C 8977   6.928   3.553   3.565  0.0225 -1.1585 -0.3874
   67MOL0     H 8978   6.497   3.262   3.821  2.1633  2.7862 -1.5756
   67MOL0     H 8979   6.278   3.170   3.755 -0.9353 -0.4485 -0.7852
   67MOL0     H 8980   6.210   3.197   3.349  0.1443  0.4800 -0.3576
   67MOL0     H 8981   6.209   3.023   3.327 -0.7843 -0.3042 -0.4250
   67MOL0     H 8982   5.973   3.012   3.425 -0.5107 -0.6824 -0.7719
   67MOL0     H 8983   5.982   3.192   3.452  1.0237  0.5479  0.3249
   67MOL0     H 8984   5.989   3.210   3.201  1.4879  0.3118  1.7251
   67MOL0     H 8985   5.995   3.039   3.188 -0.5452 -1.3295  1.5488
   67MOL0     H 8986   5.788   3.014   3.324 -0.8668  0.1758  0.0350
   67MOL0     H 8987   5.768   3.188   3.332  1.3878  1.5218 -0.2858
   67MOL0     H 8988   5.747   3.209   3.094 -0.8299  0.5210 -0.0844
   67MOL0     H 8989   5.754   3.036   3.061  0.6541 -0.0914 -0.3378
   67MOL0     H 8990   5.561   3.002   3.219 -0.7193 -0.3349 -0.0501
   67MOL0     H 8991   5.543   3.183   3.239  0.1180 -0.1752 -0.0592
   67MOL0     H 8992   5.505   3.197   2.986 -2.9405 -0.1917 -1.2868
   67MOL0     H 8993   5.525   3.019   2.978 -0.0255 -1.7959  1.6230
   67MOL0     H 8994   5.332   3.000   3.132  4.8123 -1.9211 -1.2343
   67MOL0     H 8995   5.282   3.081   2.980 -1.2442 -1.5720  0.4613
   67MOL0     H 8996   5.251   3.349   2.976  1.3244  0.8807  0.0990
   67MOL0     H 8997   5.130   3.577   3.283 -1.4534  1.0171 -1.0957
   67MOL0     H 8998   5.201   3.591   3.130  0.4994 -2.1847 -0.6967
   67MOL0     H 8999   5.017   3.523   3.008  0.7207 -0.3836  0.5391
   67MOL0     H 9000   4.942   3.618   3.133 -0.5457 -0.9137  0.6886
   67MOL0     H 9001   4.948   3.313   3.120  3.1619  1.1025 -0.9124
   67MOL0     H 9002   4.815   3.419   3.098 -1.3160  0.4565  1.5578
   67MOL0     H 9003   4.967   3.404   3.355  1.2309 -2.3370 -3.1377
   67MOL0     H 9004   4.799   3.332   3.341 -1.1206  2.0356  3.3555
   67MOL0     H 9005   4.608   3.375   3.327  1.5857 -0.3186  0.4750
   67MOL0     H 9006   4.370   3.309   3.295  2.1949  0.5978 -4.4695
   67MOL0     H 9007   4.262   3.428   3.365 -0.1568 -1.7619  0.0659
   67MOL0     H 9008   4.283   3.402   3.188  3.0471 -0.7191 -2.2745
   67MOL0     H 9009   4.109   3.762   2.972  1.4615  0.6956  1.8407
   67MOL0     H 9010   3.882   3.856   2.942 -2.4251 -0.5312  0.7953
   67MOL0     H 9011   3.744   4.011   3.017 -2.5666  4.3790 -0.3804
   67MOL0     H 9012   3.598   3.927   2.957 -1.8830  2.1836  0.3990
   67MOL0     H 9013   3.626   4.093   3.199 -1.7805 -0.0211  0.9291
   67MOL0     H 9014   3.529   4.129   3.055 -2.5500 -1.0192  0.2613
   67MOL0     H 9015   3.448   3.891   3.232 -0.3662 -0.4844  0.6544
   67MOL0     H 9016   3.348   3.989   3.124  0.8148 -0.4654  0.0119
   67MOL0     H 9017   3.468   4.076   3.397  0.7454 -1.2690 -1.5785
   67MOL0     H 9018   3.428   4.196   3.281 -1.0228  0.5753  1.6987
   67MOL0     H 9019   3.254   4.017   3.429  0.2919 -1.4156 -0.4883
   67MOL0     H 9020   3.203   4.083   3.267  1.5195 -0.3599  0.3649
   67MOL0     H 9021   3.276   4.246   3.504  0.1939 -1.6660  0.1962
   67MOL0     H 9022   3.254   4.307   3.336 -0.4433  2.3526  1.4569
   67MOL0     H 9023   3.047   4.154   3.476  3.5271 -0.0126  0.5082
   67MOL0     H 9024   3.030   4.237   3.318 -1.3752  0.6822  1.1402
   67MOL0     H 9025   3.070   4.451   3.419 -0.5591  1.8878  0.4155
   67MOL0     H 9026   3.067   4.399   3.583 -0.2421  1.3135 -0.2481
   67MOL0     H 9027   3.806   3.725   3.346  1.6911  0.8534  1.7000
   67MOL0     H 9028   4.026   3.605   3.343  2.0127 -0.3300 -1.2620
   67MOL0     H 9029   4.496   3.851   3.244 -0.7986 -0.5236 -0.7018
   67MOL0     H 9030   4.720   3.785   3.272 -2.5697  2.2065 -1.5588
   67MOL0     H 9031   6.439   3.082   3.370 -1.1709 -0.4885  0.1037
   67MOL0     H 9032   6.661   3.175   3.433  0.0934  0.0054  0.7359
   67MOL0     H 9033   6.897   3.327   3.825 -0.5157  1.4115  0.5296
   67MOL0     H 9034   7.119   3.386   3.862 -1.9641  0.7292  1.6092
   67MOL0     H 9035   7.334   3.649   3.561  1.6184 -4.2526 -1.0294
   67MOL0     H 9036   7.307   3.731   3.723  2.0792  1.2855 -0.6062
   67MOL0     H 9037   7.524   3.572   3.601  2.4818  0.5524 -0.3679
   67MOL0     H 9038   7.502   3.549   3.781  0.1209 -0.9597 -0.8184
   67MOL0     H 9039   7.661   3.722   3.769  0.2245 -0.5043 -0.5585
   67MOL0     H 9040   7.517   3.809   3.802  1.0225  0.4015  0.3768
   67MOL0     H 9041   7.483   3.834   3.541 -0.6572  0.0772  0.3168
   67MOL0     H 9042   7.653   3.793   3.528 -0.5418 -1.5503  0.6146
   67MOL0     H 9043   7.673   4.186   3.700 -1.6811  0.2408 -0.9192
   67MOL0     H 9044   7.119   3.635   3.515 -0.5004 -0.5420 -0.7126
   67MOL0     H 9045   6.881   3.597   3.478 -0.6459  3.7212  2.1346
   68MOL0     O 9046   6.357   8.182   0.641 -0.2126 -0.0662  0.5808
   68MOL0     C 9047   6.411   8.134   0.738  0.2133  0.2750 -0.5628
   68MOL0     O 9048   6.362   8.128   0.868  0.5017 -0.0055  0.1711
   68MOL0     C 9049   6.226   8.158   0.883 -0.4698 -0.5358 -0.3566
   68MOL0     C 9050   6.178   8.271   0.950  0.2477 -0.2046 -0.5970
   68MOL0     C 9051   6.041   8.306   0.959 -1.5103  0.0477  0.0750
   68MOL0     C 9052   5.955   8.217   0.899  0.3730  0.4207  0.1631
   68MOL0     O 9053   5.815   8.221   0.903  0.1432 -0.1799 -0.5769
   68MOL0     C 9054   5.749   8.342   0.869 -0.0836  0.2467 -0.2952
   68MOL0     C 9055   5.598   8.306   0.858  0.2517 -0.5884 -0.3527
   68MOL0     C 9056   5.540   8.272   0.991 -0.3737  0.0909 -0.6769
   68MOL0     C 9057   5.385   8.248   0.990 -0.2423  0.5454  0.1509
   68MOL0     C 9058   5.332   8.209   1.130 -0.0022 -0.2808  1.0578
   68MOL0     C 9059   5.179   8.209   1.137  0.1706  0.0595  0.6344
   68MOL0     C 9060   5.117   8.181   1.270 -0.5543 -0.2634  0.0035
   68MOL0     C 9061   4.961   8.196   1.271 -0.9457 -0.3694  0.4067
   68MOL0     N 9062   4.881   8.100   1.192  0.0529 -0.3017  0.1304
   68MOL0     C 9063   4.857   8.105   1.057 -0.0888 -0.3378 -0.0353
   68MOL0     C 9064   4.762   8.010   1.033 -0.0437 -0.3357  0.0191
   68MOL0     C 9065   4.703   7.989   0.895 -0.9529  0.2258 -1.1662
   68MOL0     C 9066   4.564   8.068   0.874 -0.4674 -0.3838  0.0419
   68MOL0     C 9067   4.455   7.993   0.968 -0.6247 -0.5105  0.3159
   68MOL0     C 9068   4.314   8.055   0.940  1.0841  0.1141  0.1665
   68MOL0     O 9069   4.308   8.192   0.986 -0.6296  0.0568 -0.1057
   68MOL0     C 9070   4.196   8.268   0.967 -0.8292  0.4034  0.4262
   68MOL0     C 9071   4.181   8.370   1.062  0.0340 -0.1819 -0.3883
   68MOL0     C 9072   4.059   8.441   1.076  0.3724  0.0950  0.6718
   68MOL0     C 9073   4.072   8.565   1.164 -0.9592  0.9739  0.0461
   68MOL0     C 9074   3.954   8.415   0.979 -0.6169 -0.5648 -0.1025
   68MOL0     C 9075   3.821   8.484   0.966 -1.0166  0.1010 -0.3014
   68MOL0     O 9076   3.738   8.431   0.876  0.1130 -0.2489  0.1928
   68MOL0     C 9077   3.613   8.485   0.858 -0.3620  0.0145  0.1977
   68MOL0     C 9078   3.561   8.520   0.740  0.6308  0.5610 -0.5123
   68MOL0     C 9079   3.428   8.582   0.740  0.0140  0.0769  0.5917
   68MOL0     C 9080   3.349   8.599   0.850  1.0768  0.4902 -0.2912
   68MOL0     O 9081   3.230   8.663   0.858 -0.0262 -0.4741 -0.2321
   68MOL0     C 9082   3.135   8.637   0.754  0.1599  0.0485 -0.1478
   68MOL0     C 9083   3.008   8.715   0.807  0.1238  0.3827  0.9336
   68MOL0     C 9084   2.882   8.705   0.715  0.0693  0.8807  0.7668
   68MOL0     C 9085   2.771   8.800   0.749  0.1790  0.2128 -0.4339
   68MOL0     C 9086   2.654   8.793   0.648 -0.2106 -0.4909  1.1153
   68MOL0     C 9087   2.514   8.830   0.706 -0.1915 -0.0828 -0.0052
   68MOL0     C 9088   2.489   8.980   0.702 -0.0856  0.0393  0.9328
   68MOL0     C 9089   2.346   9.033   0.726  0.3371 -0.8528  0.0157
   68MOL0    Cl 9090   2.254   9.014   0.566  0.0706  0.2194 -0.3818
   68MOL0     C 9091   3.397   8.548   0.974  0.0323 -0.4355  0.9495
   68MOL0     C 9092   3.529   8.490   0.977  0.3982  0.0522  0.5670
   68MOL0     O 9093   3.791   8.571   1.052  0.3463  0.1630  0.6305
   68MOL0     C 9094   3.972   8.310   0.894 -0.3802  0.9284  0.2071
   68MOL0     C 9095   4.093   8.244   0.875 -0.0610 -0.4132 -0.5084
   68MOL0     N 9096   4.732   7.937   1.143 -0.8375 -0.3492  0.5575
   68MOL0     N 9097   4.812   7.993   1.234 -1.1740  0.0112  0.7711
   68MOL0     C 9098   6.000   8.109   0.828 -0.1204 -0.5749 -0.3792
   68MOL0     C 9099   6.133   8.072   0.822 -0.1854  0.2641  0.5514
   68MOL0     C 9100   6.538   8.072   0.709  0.5142 -0.1631 -0.2136
   68MOL0     C 9101   6.619   8.116   0.600 -0.3522  0.0656  0.2040
   68MOL0     C 9102   6.749   8.069   0.579  0.3639 -0.6070 -0.3790
   68MOL0     C 9103   6.794   7.966   0.661 -0.9814 -0.3850 -0.4945
   68MOL0     O 9104   6.919   7.933   0.637 -0.1131  0.3326  0.3714
   68MOL0     C 9105   6.990   7.827   0.705  0.1293  0.3531 -0.2981
   68MOL0     C 9106   7.116   7.794   0.646 -0.4727  0.3240 -0.0499
   68MOL0     C 9107   7.230   7.872   0.699 -0.8991  0.3859 -1.0124
   68MOL0     C 9108   7.359   7.870   0.611 -0.5338 -0.2958  0.4403
   68MOL0     C 9109   7.470   7.935   0.682 -0.2089  0.0376  0.1366
   68MOL0     C 9110   7.573   7.974   0.741 -0.0999  0.1492 -0.6146
   68MOL0     C 9111   6.711   7.916   0.767 -0.1705  0.3035  0.0651
   68MOL0     C 9112   6.587   7.975   0.792 -1.0882  0.3856 -0.0160
   68MOL0     H 9113   6.250   8.343   0.988 -1.9262  2.4842 -1.2380
   68MOL0     H 9114   6.016   8.392   1.020  2.3585  0.1259  1.8437
   68MOL0     H 9115   5.760   8.419   0.946 -0.2410  1.1512 -1.1533
   68MOL0     H 9116   5.796   8.380   0.778 -0.3115  2.0488  0.3031
   68MOL0     H 9117   5.556   8.395   0.810  3.4752 -0.0851 -2.6003
   68MOL0     H 9118   5.580   8.223   0.790 -0.7778 -1.2272  0.6635
   68MOL0     H 9119   5.596   8.191   1.040  0.2440  0.3736 -0.9003
   68MOL0     H 9120   5.553   8.358   1.058 -0.3501 -1.4173  1.3554
   68MOL0     H 9121   5.331   8.328   0.937 -1.1228 -0.7404 -0.9426
   68MOL0     H 9122   5.366   8.168   0.918 -1.0450  0.2836  0.6338
   68MOL0     H 9123   5.368   8.108   1.151  1.4000 -1.0253 -3.6481
   68MOL0     H 9124   5.375   8.281   1.200  1.4787  1.6930 -1.6918
   68MOL0     H 9125   5.157   8.312   1.106  1.4040  0.1961  0.1338
   68MOL0     H 9126   5.142   8.148   1.054  1.3808 -1.4853  1.1796
   68MOL0     H 9127   5.128   8.072   1.281  0.2233 -0.0836  1.2229
   68MOL0     H 9128   5.169   8.237   1.349  0.4785  0.5916 -1.2541
   68MOL0     H 9129   4.936   8.301   1.251  1.6598  1.1730  4.1729
   68MOL0     H 9130   4.934   8.191   1.377  3.6335  0.8589  1.8341
   68MOL0     H 9131   4.895   8.172   0.981 -1.0798 -0.9822 -1.1353
   68MOL0     H 9132   4.778   8.011   0.819  1.9701  0.6744  1.6647
   68MOL0     H 9133   4.682   7.881   0.898 -2.0764  0.4250 -1.1876
   68MOL0     H 9134   4.531   8.066   0.770 -0.8748  3.6334 -0.0575
   68MOL0     H 9135   4.558   8.174   0.900 -0.9667 -0.7637  1.5310
   68MOL0     H 9136   4.503   8.004   1.066  0.5141 -0.3968 -0.2309
   68MOL0     H 9137   4.440   7.888   0.940 -3.4786  0.0455 -0.5455
   68MOL0     H 9138   4.241   8.012   1.009 -2.7613  3.5831 -1.2975
   68MOL0     H 9139   4.278   8.051   0.837  0.4053  3.4811  0.1446
   68MOL0     H 9140   4.263   8.396   1.128 -2.2895  3.8966  1.3019
   68MOL0     H 9141   3.992   8.565   1.238 -1.4414  0.1400 -0.4536
   68MOL0     H 9142   4.163   8.562   1.225 -2.4655  1.6311  2.4612
   68MOL0     H 9143   4.062   8.658   1.108 -1.8512  0.2318 -1.0902
   68MOL0     H 9144   3.616   8.521   0.646 -1.9024 -0.8979 -2.1337
   68MOL0     H 9145   3.393   8.637   0.653  0.4648  2.2179  1.6927
   68MOL0     H 9146   3.171   8.680   0.660  0.8039  2.2718  1.0449
   68MOL0     H 9147   3.113   8.532   0.733 -1.2251  0.6179 -1.8052
   68MOL0     H 9148   2.965   8.673   0.899  0.1979  1.7448  1.6121
   68MOL0     H 9149   3.022   8.821   0.830 -2.1557  0.7976  0.6081
   68MOL0     H 9150   2.838   8.606   0.698  0.9099  0.0118  3.2025
   68MOL0     H 9151   2.926   8.737   0.620  1.5130  1.7272  1.6972
   68MOL0     H 9152   2.735   8.788   0.851 -0.2307  2.0316 -0.3418
   68MOL0     H 9153   2.801   8.905   0.747 -0.9543  0.6165  1.5875
   68MOL0     H 9154   2.661   8.693   0.604  2.4521 -0.2158  0.7648
   68MOL0     H 9155   2.686   8.859   0.567 -0.3322 -0.7817  0.8236
   68MOL0     H 9156   2.440   8.791   0.637 -0.4681  0.6469 -0.1249
   68MOL0     H 9157   2.507   8.787   0.807 -1.9564  2.2966  1.0012
   68MOL0     H 9158   2.523   9.019   0.606 -3.2193  2.5023  0.6310
   68MOL0     H 9159   2.540   9.024   0.788  1.2700 -1.9007  1.1690
   68MOL0     H 9160   2.366   9.138   0.749  1.3401 -0.9034 -0.5788
   68MOL0     H 9161   2.300   8.987   0.815 -1.0128 -0.5590 -0.4997
   68MOL0     H 9162   3.327   8.549   1.057 -0.2299 -1.1349  0.7452
   68MOL0     H 9163   3.562   8.439   1.067  0.2471  2.0948  1.8379
   68MOL0     H 9164   3.896   8.285   0.821  2.0437 -2.5828 -1.4527
   68MOL0     H 9165   4.095   8.168   0.798  1.2515 -1.4325  0.4881
   68MOL0     H 9166   5.932   8.033   0.791 -0.2605 -1.9028  2.3276
   68MOL0     H 9167   6.158   7.982   0.768 -0.0176  0.8933 -0.4484
   68MOL0     H 9168   6.583   8.196   0.535 -1.8615 -0.6614  0.1194
   68MOL0     H 9169   6.817   8.109   0.505  0.7295 -0.7350 -0.1104
   68MOL0     H 9170   6.996   7.857   0.809  3.6321  1.5148 -0.7333
   68MOL0     H 9171   6.932   7.734   0.708 -0.0877  0.5113  0.6436
   68MOL0     H 9172   7.108   7.810   0.538 -2.4821 -2.5167 -0.4597
   68MOL0     H 9173   7.137   7.690   0.673  1.8250  1.0964  1.4130
   68MOL0     H 9174   7.245   7.820   0.794 -1.2723 -1.0606 -1.7188
   68MOL0     H 9175   7.196   7.975   0.709  1.4376  1.1426 -0.1815
   68MOL0     H 9176   7.339   7.930   0.522  0.6309 -0.3674  0.1042
   68MOL0     H 9177   7.389   7.772   0.573 -1.5741  1.0090 -4.4531
   68MOL0     H 9178   7.654   8.009   0.801  1.0359 -2.7439 -0.3116
   68MOL0     H 9179   6.746   7.838   0.834  2.1670  2.6327  1.7430
   68MOL0     H 9180   6.538   7.937   0.882  2.5786 -1.2837  1.4805
   69MOL0     O 9181   2.637   2.462   5.335 -0.1141 -0.4998 -0.2330
   69MOL0     C 9182   2.698   2.569   5.320 -0.2541 -0.2415 -0.2771
   69MOL0     O 9183   2.638   2.693   5.333  0.0209  0.0956  0.2062
   69MOL0     C 9184   2.505   2.712   5.369 -0.8898  0.0576  0.5623
   69MOL0     C 9185   2.437   2.642   5.467 -0.3514 -0.0943  1.1571
   69MOL0     C 9186   2.303   2.658   5.492 -0.5804 -0.2404  0.1765
   69MOL0     C 9187   2.226   2.747   5.412 -0.8191 -0.3635  0.4903
   69MOL0     O 9188   2.090   2.760   5.422  0.1643 -0.4589  0.2716
   69MOL0     C 9189   2.039   2.739   5.553 -0.4279  0.1288  0.4374
   69MOL0     C 9190   1.907   2.801   5.563 -0.5648  0.2128 -0.2787
   69MOL0     C 9191   1.790   2.711   5.504  0.7441 -0.3239  0.1812
   69MOL0     C 9192   1.665   2.788   5.501 -1.5121  0.2601 -0.2134
   69MOL0     C 9193   1.545   2.695   5.500 -0.0417  0.4575  0.8941
   69MOL0     C 9194   1.419   2.779   5.497  0.4905 -0.2246 -0.2206
   69MOL0     C 9195   1.282   2.713   5.498  0.1110  0.4822  0.4552
   69MOL0     C 9196   1.252   2.628   5.622 -0.2308  0.0426 -0.3751
   69MOL0     N 9197   1.266   2.690   5.754  0.3281 -0.1242  0.8558
   69MOL0     C 9198   1.188   2.794   5.797  0.2942  0.2437  0.0828
   69MOL0     C 9199   1.244   2.836   5.914 -0.2220 -0.7544  0.0139
   69MOL0     C 9200   1.190   2.943   6.004 -0.4525 -0.7360  0.1044
   69MOL0     C 9201   1.052   2.899   6.066 -0.0638 -0.1904  0.7517
   69MOL0     C 9202   1.035   2.938   6.206 -0.3599 -0.4816  0.0221
   69MOL0     C 9203   0.900   2.909   6.273 -0.2312 -0.2838  1.3798
   69MOL0     O 9204   0.794   2.959   6.185  0.2619  0.4159  0.8432
   69MOL0     C 9205   0.668   2.941   6.238  0.2012  0.1409 -0.2457
   69MOL0     C 9206   0.569   2.991   6.164  0.2043  0.0128 -0.0911
   69MOL0     C 9207   0.433   2.999   6.206 -0.0239  0.1838 -0.9461
   69MOL0     C 9208   0.331   3.066   6.119  0.5451  0.7211  0.2773
   69MOL0     C 9209   0.389   2.948   6.333 -0.0986  0.7733  0.5770
   69MOL0     C 9210   0.253   2.961   6.400  0.0668 -0.1631 -0.5194
   69MOL0     O 9211   0.142   2.955   6.315  0.2465  0.5611  0.3060
   69MOL0     C 9212   0.021   2.966   6.372 -0.1291  0.4381 -1.1221
   69MOL0     C 9213  -0.020   3.067   6.464  1.3828 -0.0570 -0.4991
   69MOL0     C 9214  -0.153   3.065   6.517  0.0090 -0.1778 -0.1085
   69MOL0     C 9215  -0.241   2.958   6.483 -0.4476  0.4560  1.0321
   69MOL0     O 9216  -0.367   2.935   6.533 -0.4018  0.4680  0.4086
   69MOL0     C 9217  -0.435   3.030   6.617  0.3425 -0.2492 -0.6693
   69MOL0     C 9218  -0.465   3.167   6.552 -0.6284  0.4284  0.5337
   69MOL0     C 9219  -0.524   3.252   6.656  0.0794 -1.6219 -0.0691
   69MOL0     C 9220  -0.570   3.384   6.601 -0.4101  0.5919  0.2681
   69MOL0     C 9221  -0.667   3.465   6.686 -0.1628 -0.6578  0.7084
   69MOL0     C 9222  -0.811   3.418   6.679  0.3630  0.0600  0.0267
   69MOL0     C 9223  -0.896   3.480   6.792 -0.3689 -0.5776  0.2383
   69MOL0     C 9224  -1.047   3.448   6.777 -0.2314 -0.2880 -1.3257
   69MOL0    Cl 9225  -1.131   3.518   6.633  0.4111  0.2795 -0.1947
   69MOL0     C 9226  -0.195   2.860   6.392 -0.0368 -0.0675 -0.0840
   69MOL0     C 9227  -0.061   2.865   6.350  0.8598  0.3898 -0.4663
   69MOL0     O 9228   0.250   2.969   6.529  0.5027  0.0072  0.0902
   69MOL0     C 9229   0.491   2.892   6.406 -0.0431 -0.2216 -0.3067
   69MOL0     C 9230   0.629   2.891   6.361  1.1870  0.5047 -0.0477
   69MOL0     N 9231   1.353   2.756   5.938 -0.2595 -1.1085  0.4653
   69MOL0     N 9232   1.376   2.675   5.840  0.6279  0.0666  0.1842
   69MOL0     C 9233   2.292   2.810   5.304  1.2176 -0.1402 -0.3295
   69MOL0     C 9234   2.434   2.794   5.283  0.0218  0.1806 -0.3943
   69MOL0     C 9235   2.836   2.561   5.263  0.4322 -0.8708 -0.4759
   69MOL0     C 9236   2.923   2.452   5.290 -0.9760 -0.1430 -0.2562
   69MOL0     C 9237   3.057   2.451   5.244  0.4332  0.4070 -0.0415
   69MOL0     C 9238   3.107   2.561   5.179 -0.1353  0.0424 -0.9844
   69MOL0     O 9239   3.239   2.564   5.146 -0.3921  0.3951 -0.1160
   69MOL0     C 9240   3.315   2.684   5.186  0.2135 -0.6927  0.1851
   69MOL0     C 9241   3.444   2.645   5.272 -0.2484 -0.3703  0.0017
   69MOL0     C 9242   3.533   2.553   5.183  0.2895  0.1072  0.4070
   69MOL0     C 9243   3.661   2.510   5.265  0.6847  1.0995  1.2825
   69MOL0     C 9244   3.616   2.434   5.386  0.0336  0.0127 -0.3730
   69MOL0     C 9245   3.583   2.371   5.484  0.3227 -0.1981 -0.3214
   69MOL0     C 9246   3.024   2.672   5.164 -0.4860  0.1280 -0.6894
   69MOL0     C 9247   2.895   2.678   5.203  0.4174  0.3086  0.1144
   69MOL0     H 9248   2.501   2.573   5.520 -1.5562 -1.1352  1.3127
   69MOL0     H 9249   2.254   2.604   5.572 -0.7638  0.8111  0.7899
   69MOL0     H 9250   2.038   2.630   5.563  1.3985  0.1899  1.7428
   69MOL0     H 9251   2.103   2.781   5.630 -2.6834 -1.4987  3.4044
   69MOL0     H 9252   1.890   2.826   5.668  2.3934  1.8002 -0.0530
   69MOL0     H 9253   1.908   2.903   5.523  2.4274 -0.4514 -2.2424
   69MOL0     H 9254   1.822   2.682   5.404  1.6289 -0.0170  0.3699
   69MOL0     H 9255   1.789   2.620   5.566 -0.3416 -1.5401 -1.5354
   69MOL0     H 9256   1.670   2.849   5.592  1.7210  3.3137 -2.1553
   69MOL0     H 9257   1.663   2.851   5.411 -2.5087 -2.0580 -1.9143
   69MOL0     H 9258   1.551   2.632   5.411  0.8100  0.6734  0.7841
   69MOL0     H 9259   1.545   2.642   5.595 -0.0552  1.7193  1.6313
   69MOL0     H 9260   1.420   2.848   5.581 -3.6939  0.2889 -0.3674
   69MOL0     H 9261   1.431   2.837   5.405  1.1273 -1.0977 -0.7130
   69MOL0     H 9262   1.204   2.790   5.493 -0.8185 -0.4813 -0.4730
   69MOL0     H 9263   1.271   2.661   5.402 -0.2905  4.3410 -1.7771
   69MOL0     H 9264   1.313   2.539   5.606 -1.6359 -1.4178  1.8163
   69MOL0     H 9265   1.149   2.597   5.602 -0.7369  0.8226  0.9100
   69MOL0     H 9266   1.107   2.839   5.740  0.8641  3.1037  1.3446
   69MOL0     H 9267   1.261   2.961   6.085  0.2024  1.5234 -0.8884
   69MOL0     H 9268   1.190   3.031   5.939 -0.7512 -0.8344 -0.0341
   69MOL0     H 9269   1.041   2.791   6.059 -0.6870 -0.0068 -2.1193
   69MOL0     H 9270   0.971   2.947   6.011  0.8258  0.0230 -0.3967
   69MOL0     H 9271   1.042   3.047   6.208 -0.3618 -0.4703  2.3652
   69MOL0     H 9272   1.119   2.893   6.262 -0.0469 -0.1370 -0.1692
   69MOL0     H 9273   0.887   2.959   6.370 -0.8917  0.9268  0.6823
   69MOL0     H 9274   0.881   2.803   6.296 -2.2040 -0.7213 -1.7698
   69MOL0     H 9275   0.585   3.039   6.067 -0.3770 -0.8650 -0.6369
   69MOL0     H 9276   0.255   2.992   6.096 -0.3555  1.8468 -0.4726
   69MOL0     H 9277   0.274   3.143   6.171 -0.8955  0.3027 -0.6359
   69MOL0     H 9278   0.373   3.095   6.022  1.0441 -1.6937 -0.2915
   69MOL0     H 9279   0.046   3.146   6.496  2.3274 -0.0757 -2.2702
   69MOL0     H 9280  -0.175   3.138   6.595  1.0696 -0.1591  0.1853
   69MOL0     H 9281  -0.535   3.000   6.649  1.2512  0.6828  3.6800
   69MOL0     H 9282  -0.370   3.033   6.705  2.8085  2.6058 -2.3790
   69MOL0     H 9283  -0.374   3.217   6.518 -1.8076  0.7363 -2.4872
   69MOL0     H 9284  -0.535   3.157   6.468  0.8788 -0.6160 -0.6586
   69MOL0     H 9285  -0.460   3.258   6.745  1.0967 -2.0789 -0.7399
   69MOL0     H 9286  -0.608   3.195   6.697 -0.8278 -0.9005 -0.8968
   69MOL0     H 9287  -0.476   3.440   6.598 -1.5723  2.6820  0.4545
   69MOL0     H 9288  -0.595   3.374   6.495  1.0630  1.2894 -0.1774
   69MOL0     H 9289  -0.668   3.568   6.649 -0.5482 -2.4325 -5.4412
   69MOL0     H 9290  -0.632   3.460   6.789  0.1619  1.6694  0.7476
   69MOL0     H 9291  -0.849   3.446   6.580  0.3377  0.1453  0.0609
   69MOL0     H 9292  -0.818   3.309   6.686 -1.0437  0.1736  0.6625
   69MOL0     H 9293  -0.877   3.586   6.767  2.0160 -0.4400  2.2176
   69MOL0     H 9294  -0.854   3.458   6.890 -0.5955  0.8030  0.6755
   69MOL0     H 9295  -1.101   3.473   6.869  2.9175 -0.9359  0.8993
   69MOL0     H 9296  -1.050   3.339   6.770  1.4667 -0.3981 -0.8763
   69MOL0     H 9297  -0.259   2.782   6.353  2.2951 -0.2855 -4.0458
   69MOL0     H 9298  -0.033   2.777   6.293  0.0694 -0.6754  0.7199
   69MOL0     H 9299   0.489   2.857   6.509  1.1691 -2.4753 -0.9782
   69MOL0     H 9300   0.709   2.858   6.426  1.0051 -0.4955 -0.3127
   69MOL0     H 9301   2.244   2.878   5.234 -0.5385  1.3693  2.1740
   69MOL0     H 9302   2.477   2.838   5.194  0.8787 -2.6852 -1.5237
   69MOL0     H 9303   2.890   2.375   5.359 -0.7497 -0.6786 -0.7348
   69MOL0     H 9304   3.122   2.364   5.245 -1.7813 -1.4286  3.2870
   69MOL0     H 9305   3.359   2.734   5.099  2.3163  2.4026  2.7659
   69MOL0     H 9306   3.257   2.753   5.248  2.0220  0.6056  0.5399
   69MOL0     H 9307   3.416   2.585   5.359  0.0326  1.1030  1.1481
   69MOL0     H 9308   3.499   2.735   5.300  2.4355 -1.4297 -1.4836
   69MOL0     H 9309   3.555   2.608   5.091 -0.3257 -2.0591 -1.1281
   69MOL0     H 9310   3.477   2.463   5.155 -1.9117  1.4287  0.2358
   69MOL0     H 9311   3.728   2.590   5.295  0.3712  0.5114  3.7485
   69MOL0     H 9312   3.724   2.438   5.211  0.6972  0.5935  1.9598
   69MOL0     H 9313   3.549   2.314   5.568 -0.3753  1.4512  0.5593
   69MOL0     H 9314   3.068   2.755   5.110  2.1857  0.2771  1.5144
   69MOL0     H 9315   2.834   2.768   5.198 -2.0205 -1.2580  0.0279
   70MOL0     O 9316   0.448   2.179   0.516  0.4255  0.1974  0.0129
   70MOL0     C 9317   0.563   2.226   0.533 -0.4889  0.3103  0.9486
   70MOL0     O 9318   0.601   2.312   0.629 -0.4067 -0.3884 -0.2600
   70MOL0     C 9319   0.500   2.385   0.680  0.2334  0.6116  0.6100
   70MOL0     C 9320   0.482   2.518   0.653  0.9845 -0.5719  0.3756
   70MOL0     C 9321   0.389   2.593   0.718  0.2485 -0.6023  0.2793
   70MOL0     C 9322   0.305   2.545   0.810  0.5947  0.0971  0.0191
   70MOL0     O 9323   0.198   2.617   0.847 -0.0810  0.5588  0.1785
   70MOL0     C 9324   0.109   2.559   0.947 -0.2157  0.5363  0.1010
   70MOL0     C 9325   0.006   2.653   0.995 -0.3210 -0.0990 -0.3619
   70MOL0     C 9326  -0.124   2.586   1.046  0.6865 -0.1196 -0.1336
   70MOL0     C 9327  -0.249   2.684   1.028 -0.3169  0.7464 -0.2124
   70MOL0     C 9328  -0.372   2.632   1.089  0.3403 -0.1698  0.1366
   70MOL0     C 9329  -0.446   2.547   0.990  0.3022 -0.3099  0.3480
   70MOL0     C 9330  -0.540   2.637   0.893  0.1500  0.0100 -0.1247
   70MOL0     C 9331  -0.570   2.570   0.754  0.0185  0.3435  0.1003
   70MOL0     N 9332  -0.680   2.654   0.695 -0.1256 -0.5753 -0.0944
   70MOL0     C 9333  -0.804   2.612   0.662 -0.1084  0.0278  0.1180
   70MOL0     C 9334  -0.881   2.728   0.660  0.6675  0.4855 -0.7425
   70MOL0     C 9335  -1.033   2.723   0.658  0.0945  0.3313  0.2818
   70MOL0     C 9336  -1.101   2.865   0.668 -0.3596 -0.1976  0.0803
   70MOL0     C 9337  -1.054   2.942   0.796  0.1652 -1.1168  0.4376
   70MOL0     C 9338  -1.168   3.036   0.855 -0.1905  0.0735  0.5965
   70MOL0     O 9339  -1.221   3.112   0.744  0.2776  0.1436  0.5654
   70MOL0     C 9340  -1.292   3.221   0.779  0.1598  0.1268 -0.0199
   70MOL0     C 9341  -1.331   3.301   0.678  0.5076  0.6763 -0.2699
   70MOL0     C 9342  -1.382   3.428   0.703 -0.3219 -0.5369 -0.1171
   70MOL0     C 9343  -1.401   3.510   0.577 -0.5694 -0.4470 -0.4251
   70MOL0     C 9344  -1.416   3.466   0.828  0.2166 -1.1916 -0.6089
   70MOL0     C 9345  -1.488   3.592   0.854 -0.3187  0.3710  0.0057
   70MOL0     O 9346  -1.588   3.580   0.952 -0.2316 -0.1591  0.2149
   70MOL0     C 9347  -1.676   3.687   0.971 -0.3300  0.1876  0.9273
   70MOL0     C 9348  -1.801   3.683   0.918  0.7890  0.2134  0.0022
   70MOL0     C 9349  -1.896   3.787   0.930 -0.4247 -0.2401 -0.4413
   70MOL0     C 9350  -1.853   3.907   0.996  0.2074  0.6917 -0.3143
   70MOL0     O 9351  -1.939   4.005   1.012 -0.2178 -0.0682 -0.6138
   70MOL0     C 9352  -2.085   3.985   1.007  0.9722  0.1922 -0.8357
   70MOL0     C 9353  -2.154   4.091   1.081 -0.1403 -0.4202 -0.9395
   70MOL0     C 9354  -2.308   4.066   1.103 -0.2440 -0.7553  0.2969
   70MOL0     C 9355  -2.382   4.010   0.977 -0.5799 -0.4053 -0.3366
   70MOL0     C 9356  -2.527   4.007   0.996 -0.0994 -0.3394 -0.0823
   70MOL0     C 9357  -2.602   4.138   1.004  0.4384 -0.0056 -0.5158
   70MOL0     C 9358  -2.586   4.237   0.893 -0.1346 -0.2003 -0.5012
   70MOL0     C 9359  -2.662   4.202   0.766  0.1499  0.0411  0.3905
   70MOL0    Cl 9360  -2.659   4.337   0.646  0.5775  0.3262 -0.3929
   70MOL0     C 9361  -1.721   3.915   1.044  0.5686  0.0799  0.1729
   70MOL0     C 9362  -1.630   3.805   1.032 -0.2215  0.8609  0.4743
   70MOL0     O 9363  -1.462   3.697   0.792  0.6619 -0.2809  0.3441
   70MOL0     C 9364  -1.399   3.373   0.935 -0.7850 -0.4040 -0.2752
   70MOL0     C 9365  -1.331   3.257   0.911 -0.2254 -0.5504  0.5200
   70MOL0     N 9366  -0.800   2.841   0.683  0.2851  0.0763 -0.1004
   70MOL0     N 9367  -0.688   2.787   0.700 -0.4676  0.2314 -0.3814
   70MOL0     C 9368   0.328   2.408   0.847  0.3835 -0.0247  0.4836
   70MOL0     C 9369   0.423   2.326   0.784  0.1117  0.2249 -0.1299
   70MOL0     C 9370   0.673   2.186   0.448  0.4755  0.6496 -0.4861
   70MOL0     C 9371   0.654   2.092   0.339  0.3559  0.4748  0.0728
   70MOL0     C 9372   0.771   2.047   0.266  0.0513  0.0738  0.7666
   70MOL0     C 9373   0.894   2.112   0.283  0.2614 -0.2448  0.8528
   70MOL0     O 9374   0.991   2.077   0.192 -0.9738  0.1642  0.2745
   70MOL0     C 9375   1.099   2.169   0.162 -0.4796  0.3487  0.3948
   70MOL0     C 9376   1.190   2.112   0.052  0.3817  0.0291 -0.7260
   70MOL0     C 9377   1.281   2.214  -0.025 -0.2688  0.5883 -0.5644
   70MOL0     C 9378   1.390   2.270   0.072  0.5142 -0.1899  0.9808
   70MOL0     C 9379   1.480   2.166   0.128  1.0639 -0.6488  0.6244
   70MOL0     C 9380   1.548   2.080   0.172  0.3406  0.0622 -0.1414
   70MOL0     C 9381   0.902   2.214   0.376 -0.3494  0.6589 -0.9364
   70MOL0     C 9382   0.798   2.244   0.465  0.3546  0.1353 -0.3859
   70MOL0     H 9383   0.550   2.573   0.588 -1.5726  1.3267 -0.8467
   70MOL0     H 9384   0.369   2.696   0.690  3.3488 -0.1060 -0.4818
   70MOL0     H 9385   0.078   2.466   0.898  0.6486 -0.7689  1.9047
   70MOL0     H 9386   0.158   2.521   1.038  0.5208 -2.6596 -1.4559
   70MOL0     H 9387   0.057   2.715   1.070  1.1858  2.3215 -3.1516
   70MOL0     H 9388  -0.010   2.715   0.907  2.0130 -1.3037 -1.7520
   70MOL0     H 9389  -0.144   2.490   0.997 -0.6120  1.0401 -2.0038
   70MOL0     H 9390  -0.118   2.558   1.152 -1.0690 -0.7601 -0.1671
   70MOL0     H 9391  -0.225   2.779   1.075 -1.9031  1.2197 -0.3104
   70MOL0     H 9392  -0.263   2.714   0.924 -0.1111 -1.8931 -1.0953
   70MOL0     H 9393  -0.359   2.566   1.175 -0.5239 -0.9465 -0.3135
   70MOL0     H 9394  -0.436   2.718   1.114  0.8583  0.5922 -1.0602
   70MOL0     H 9395  -0.376   2.491   0.927 -0.5565 -2.0826  0.9303
   70MOL0     H 9396  -0.507   2.469   1.035 -0.6983 -0.7110 -1.5788
   70MOL0     H 9397  -0.632   2.656   0.948  0.3268  1.4368 -0.2817
   70MOL0     H 9398  -0.486   2.727   0.862 -0.4293 -0.5249 -3.0081
   70MOL0     H 9399  -0.597   2.464   0.760  0.7390  0.2115  3.7580
   70MOL0     H 9400  -0.475   2.576   0.700  0.6952  3.9846  1.4537
   70MOL0     H 9401  -0.832   2.508   0.650  0.2423  0.0115 -0.5635
   70MOL0     H 9402  -1.079   2.675   0.571  0.9114  3.3932 -2.0273
   70MOL0     H 9403  -1.065   2.670   0.748 -0.4558  0.2513  0.0473
   70MOL0     H 9404  -1.210   2.869   0.663 -0.2771  1.9357 -1.0689
   70MOL0     H 9405  -1.063   2.914   0.578 -1.1681 -0.8700 -0.6449
   70MOL0     H 9406  -0.965   3.004   0.783  0.4748 -1.4740  0.8204
   70MOL0     H 9407  -1.030   2.869   0.873  2.4129  1.2788  2.1617
   70MOL0     H 9408  -1.116   3.103   0.924 -0.6570  1.2925 -0.1947
   70MOL0     H 9409  -1.238   2.980   0.917  1.0659 -2.1138  0.1342
   70MOL0     H 9410  -1.301   3.282   0.576  2.1107 -0.0846  0.3121
   70MOL0     H 9411  -1.497   3.563   0.579  0.6293  1.8237  0.5750
   70MOL0     H 9412  -1.317   3.577   0.560  0.0085 -1.0321  0.0733
   70MOL0     H 9413  -1.409   3.451   0.485  0.1828 -1.7118  0.2891
   70MOL0     H 9414  -1.840   3.596   0.867  0.2554 -1.3258  2.8375
   70MOL0     H 9415  -1.993   3.770   0.885 -0.4713  0.2984 -0.5479
   70MOL0     H 9416  -2.118   3.987   0.903  1.1484  3.2131 -0.9241
   70MOL0     H 9417  -2.097   3.888   1.056  0.5748  1.1555  1.0510
   70MOL0     H 9418  -2.105   4.107   1.177 -0.3757  0.2804 -0.9341
   70MOL0     H 9419  -2.137   4.183   1.024 -1.2829  0.7577  0.5436
   70MOL0     H 9420  -2.359   4.158   1.134 -1.4026 -1.3111  0.0915
   70MOL0     H 9421  -2.329   3.986   1.175 -0.0358 -3.1990 -2.1767
   70MOL0     H 9422  -2.363   4.072   0.889 -1.0204  1.0793  0.5838
   70MOL0     H 9423  -2.340   3.910   0.968  2.2580  0.5971  0.6691
   70MOL0     H 9424  -2.557   3.967   1.093  1.2711 -0.8101  0.1603
   70MOL0     H 9425  -2.575   3.948   0.917 -0.2158 -0.6765  0.2339
   70MOL0     H 9426  -2.708   4.111   1.017  0.3058  0.9461  0.5150
   70MOL0     H 9427  -2.567   4.191   1.093  0.7424 -0.4466 -0.3691
   70MOL0     H 9428  -2.483   4.259   0.865 -0.4003  2.6089  0.4224
   70MOL0     H 9429  -2.622   4.335   0.926 -0.2097 -0.0276 -1.0755
   70MOL0     H 9430  -2.760   4.166   0.798 -1.0179  1.3485 -1.5112
   70MOL0     H 9431  -2.606   4.116   0.728 -0.6120 -0.9070  1.3552
   70MOL0     H 9432  -1.681   4.009   1.079  1.4820  0.6731 -2.2717
   70MOL0     H 9433  -1.527   3.800   1.064 -0.5164 -1.8064  1.2727
   70MOL0     H 9434  -1.433   3.388   1.037 -2.1977 -1.7135 -0.5125
   70MOL0     H 9435  -1.329   3.193   0.999  0.4326  1.1256  1.7778
   70MOL0     H 9436   0.267   2.359   0.922 -1.1306  0.7451 -0.1993
   70MOL0     H 9437   0.444   2.228   0.826  2.8521  0.8670  0.1895
   70MOL0     H 9438   0.554   2.057   0.313  0.1906 -0.0688  1.3608
   70MOL0     H 9439   0.768   1.980   0.180 -1.0828 -0.3361  1.1182
   70MOL0     H 9440   1.060   2.261   0.117  0.9972  0.1421 -1.4529
   70MOL0     H 9441   1.164   2.180   0.249  3.0801 -2.3883 -1.6601
   70MOL0     H 9442   1.136   2.055  -0.025 -1.1532 -0.7707  0.8634
   70MOL0     H 9443   1.259   2.038   0.095  1.7301  0.8505 -1.4242
   70MOL0     H 9444   1.231   2.301  -0.069 -1.0880  1.3094  1.6296
   70MOL0     H 9445   1.337   2.159  -0.101  1.0512 -0.8135  1.3271
   70MOL0     H 9446   1.341   2.316   0.159  3.1192 -1.2801  3.1680
   70MOL0     H 9447   1.444   2.342   0.010  2.0081 -2.2982 -0.2441
   70MOL0     H 9448   1.600   1.995   0.212 -1.0368  0.3726  2.5437
   70MOL0     H 9449   0.993   2.272   0.387  0.9537 -1.7114  2.3324
   70MOL0     H 9450   0.818   2.304   0.554 -2.4083  0.5778  0.0102
   71MOL0     O 9451   0.091   0.568   8.010 -0.1753  0.8361  0.2690
   71MOL0     C 9452   0.026   0.464   8.013  0.8998  0.4712  0.8713
   71MOL0     O 9453  -0.105   0.446   8.056 -0.1289 -0.2056 -0.3353
   71MOL0     C 9454  -0.170   0.545   8.131  0.6515 -0.2906  0.7538
   71MOL0     C 9455  -0.313   0.528   8.136 -0.1074  0.3463 -0.1415
   71MOL0     C 9456  -0.392   0.619   8.196 -0.0797 -0.4203  0.0283
   71MOL0     C 9457  -0.337   0.720   8.270  0.1273 -0.2707 -0.6123
   71MOL0     O 9458  -0.429   0.807   8.319  0.2184 -0.3255 -0.1608
   71MOL0     C 9459  -0.397   0.899   8.418 -0.4372 -0.1739 -0.4746
   71MOL0     C 9460  -0.507   0.996   8.471 -0.6165 -0.3381  0.1708
   71MOL0     C 9461  -0.603   1.056   8.359 -0.6278  0.0308  0.4300
   71MOL0     C 9462  -0.733   1.108   8.420 -0.2081  1.4533  0.4127
   71MOL0     C 9463  -0.825   1.188   8.326  0.0115 -0.3903  0.0251
   71MOL0     C 9464  -0.945   1.262   8.392  0.1588  0.2152 -0.0126
   71MOL0     C 9465  -0.903   1.353   8.505  0.0488  1.0884  0.0491
   71MOL0     C 9466  -1.015   1.447   8.552  0.3387 -0.5773 -0.2410
   71MOL0     N 9467  -1.108   1.385   8.642 -0.2856 -0.4427 -0.2077
   71MOL0     C 9468  -1.200   1.288   8.611  0.1525  0.2406 -0.1285
   71MOL0     C 9469  -1.255   1.254   8.729  0.0647  0.3752  0.3488
   71MOL0     C 9470  -1.358   1.146   8.733 -0.7070 -0.0122 -0.4424
   71MOL0     C 9471  -1.503   1.188   8.752  0.5811  0.0038  0.1862
   71MOL0     C 9472  -1.545   1.304   8.657 -0.4211 -0.6633  0.3097
   71MOL0     C 9473  -1.697   1.299   8.607  0.8830 -0.3580 -0.0509
   71MOL0     O 9474  -1.776   1.310   8.725 -0.5995 -0.7080 -0.6137
   71MOL0     C 9475  -1.914   1.311   8.714  0.3726 -0.1815  0.1878
   71MOL0     C 9476  -1.981   1.323   8.595  0.4316  0.5364 -0.3133
   71MOL0     C 9477  -2.118   1.328   8.591 -0.3465  0.1188  0.2468
   71MOL0     C 9478  -2.192   1.343   8.462  0.4518 -0.3464 -0.3413
   71MOL0     C 9479  -2.195   1.311   8.710  0.4972 -0.1933 -0.1100
   71MOL0     C 9480  -2.337   1.275   8.721  0.8746 -0.4708  0.2981
   71MOL0     O 9481  -2.428   1.379   8.735  0.3903  0.1154 -0.5078
   71MOL0     C 9482  -2.562   1.356   8.715  0.1263 -0.3707 -0.1165
   71MOL0     C 9483  -2.654   1.439   8.783 -0.2635 -0.0915  0.6676
   71MOL0     C 9484  -2.789   1.418   8.764 -0.1998  0.5593 -0.3142
   71MOL0     C 9485  -2.840   1.328   8.664  0.0960  0.2805 -0.2009
   71MOL0     O 9486  -2.974   1.304   8.658  0.4230 -0.0141  0.1742
   71MOL0     C 9487  -3.035   1.243   8.541  0.0582 -0.5994  0.6394
   71MOL0     C 9488  -3.190   1.252   8.567  0.1356 -0.0796 -0.4286
   71MOL0     C 9489  -3.254   1.373   8.519  0.0410  0.1719 -0.1173
   71MOL0     C 9490  -3.258   1.384   8.366 -0.0140  0.9056  0.5980
   71MOL0     C 9491  -3.337   1.504   8.315 -0.0244 -0.7725 -0.8441
   71MOL0     C 9492  -3.338   1.504   8.166  0.5207 -0.0929  0.8014
   71MOL0     C 9493  -3.200   1.525   8.099 -0.0608 -0.2038  0.0168
   71MOL0     C 9494  -3.210   1.606   7.967 -0.1161  0.3437 -0.1719
   71MOL0    Cl 9495  -3.038   1.611   7.905 -0.6360 -0.2347  0.4179
   71MOL0     C 9496  -2.747   1.248   8.597 -0.1236 -0.3688  0.5700
   71MOL0     C 9497  -2.612   1.269   8.620  0.3586 -0.2275  0.6477
   71MOL0     O 9498  -2.360   1.149   8.729  0.1210 -0.5585  0.2890
   71MOL0     C 9499  -2.129   1.312   8.836  0.0699 -0.3912  0.1208
   71MOL0     C 9500  -1.982   1.311   8.837  0.1593  0.0821 -0.6111
   71MOL0     N 9501  -1.182   1.321   8.832  0.1925 -0.9199  0.2460
   71MOL0     N 9502  -1.100   1.407   8.778  0.1139 -0.2271 -0.1289
   71MOL0     C 9503  -0.198   0.737   8.268  0.5815 -0.4230  0.6248
   71MOL0     C 9504  -0.113   0.650   8.199 -0.4953  0.1643 -0.1701
   71MOL0     C 9505   0.091   0.346   7.956 -0.6663 -0.8021 -0.0442
   71MOL0     C 9506   0.092   0.220   8.025  0.1611 -0.5795  0.0941
   71MOL0     C 9507   0.151   0.110   7.972  0.5983  1.1095 -0.6348
   71MOL0     C 9508   0.226   0.117   7.852  0.5383  0.5833 -0.6617
   71MOL0     O 9509   0.300   0.015   7.794  1.0190 -1.0441  0.0901
   71MOL0     C 9510   0.315  -0.110   7.863  0.4659 -0.5535 -0.7338
   71MOL0     C 9511   0.197  -0.208   7.853 -0.3173 -0.3252 -0.0081
   71MOL0     C 9512   0.236  -0.350   7.893  0.1632  0.7187 -0.2776
   71MOL0     C 9513   0.135  -0.438   7.822  0.1498  0.0290 -0.2213
   71MOL0     C 9514   0.145  -0.576   7.872 -0.7069 -0.4852 -0.2410
   71MOL0     C 9515   0.159  -0.690   7.900 -0.2492  0.5681 -0.7974
   71MOL0     C 9516   0.230   0.239   7.781  0.6268  0.0889 -0.7432
   71MOL0     C 9517   0.167   0.353   7.831  0.8130 -0.2122  0.7153
   71MOL0     H 9518  -0.368   0.439   8.108 -0.7195  0.5035  0.5427
   71MOL0     H 9519  -0.500   0.614   8.189 -0.1576  1.3769 -0.6194
   71MOL0     H 9520  -0.355   0.846   8.504  1.3745 -0.4486 -1.4692
   71MOL0     H 9521  -0.307   0.953   8.387  0.2524 -0.7113  0.5523
   71MOL0     H 9522  -0.567   0.945   8.547 -0.3178 -1.4505 -0.3121
   71MOL0     H 9523  -0.455   1.084   8.510  0.1011 -0.0255 -1.3773
   71MOL0     H 9524  -0.552   1.137   8.306 -1.0275  0.6228  0.9364
   71MOL0     H 9525  -0.627   0.983   8.282 -2.3304 -0.5974  1.4828
   71MOL0     H 9526  -0.793   1.027   8.464  0.0873  0.6849 -0.5750
   71MOL0     H 9527  -0.709   1.157   8.515  1.3618 -1.6918  1.7811
   71MOL0     H 9528  -0.760   1.261   8.278 -0.1228 -0.8961 -0.9609
   71MOL0     H 9529  -0.871   1.129   8.246  1.2120 -1.3269 -0.0042
   71MOL0     H 9530  -1.002   1.313   8.314  1.9697  1.1928 -0.7489
   71MOL0     H 9531  -1.006   1.189   8.446  0.6944  0.4111  0.8713
   71MOL0     H 9532  -0.865   1.291   8.587 -1.6324 -2.1295 -1.4173
   71MOL0     H 9533  -0.818   1.415   8.476  0.7292 -0.9992 -2.8135
   71MOL0     H 9534  -1.075   1.495   8.474 -0.3745 -2.9457 -1.2420
   71MOL0     H 9535  -0.965   1.525   8.610  0.1967 -0.7130  0.0666
   71MOL0     H 9536  -1.224   1.262   8.509 -2.7886  2.0373 -0.0192
   71MOL0     H 9537  -1.355   1.088   8.641  1.0187 -0.6381 -0.0199
   71MOL0     H 9538  -1.330   1.088   8.821  2.3720 -0.9024 -1.8823
   71MOL0     H 9539  -1.528   1.222   8.853  0.2087 -1.9519  0.7913
   71MOL0     H 9540  -1.565   1.103   8.725  1.0377  0.2880 -1.9351
   71MOL0     H 9541  -1.484   1.292   8.567 -0.4609 -0.1919  0.2201
   71MOL0     H 9542  -1.527   1.400   8.705  1.2283 -0.8051  0.0396
   71MOL0     H 9543  -1.710   1.198   8.566 -1.9158 -0.9046  1.8965
   71MOL0     H 9544  -1.720   1.364   8.522  1.2232 -1.4474 -1.0038
   71MOL0     H 9545  -1.944   1.322   8.493 -1.7024 -1.4991 -1.1646
   71MOL0     H 9546  -2.151   1.281   8.382 -2.4086 -1.3287 -1.1741
   71MOL0     H 9547  -2.297   1.313   8.472  0.8055 -1.4390  0.2639
   71MOL0     H 9548  -2.190   1.448   8.433 -1.4744  0.4817  2.1412
   71MOL0     H 9549  -2.615   1.514   8.852  0.3727  0.7189 -0.5363
   71MOL0     H 9550  -2.845   1.493   8.818 -0.0927 -0.1233  0.7584
   71MOL0     H 9551  -3.003   1.288   8.447 -2.9527 -0.1983 -0.3204
   71MOL0     H 9552  -3.022   1.134   8.543  0.4945 -0.5496  0.5540
   71MOL0     H 9553  -3.236   1.163   8.524 -0.3053  0.1121 -0.3574
   71MOL0     H 9554  -3.209   1.241   8.674  0.5808  1.5077 -0.1594
   71MOL0     H 9555  -3.201   1.461   8.558 -1.3264  0.8768  0.2486
   71MOL0     H 9556  -3.354   1.375   8.565  0.3663 -0.8918  0.6724
   71MOL0     H 9557  -3.153   1.390   8.333  0.7698 -1.1584  2.4941
   71MOL0     H 9558  -3.315   1.301   8.323  0.8968  0.4631  0.2039
   71MOL0     H 9559  -3.289   1.599   8.341 -1.0935 -0.9213  2.0644
   71MOL0     H 9560  -3.440   1.507   8.351 -0.8974 -0.5710 -3.2158
   71MOL0     H 9561  -3.381   1.413   8.124  0.1885  0.6914 -0.6162
   71MOL0     H 9562  -3.409   1.581   8.134 -2.2022 -2.7638 -0.1401
   71MOL0     H 9563  -3.153   1.430   8.071 -1.9685 -1.4947  0.9895
   71MOL0     H 9564  -3.127   1.570   8.166  0.5338 -0.3830 -0.4948
   71MOL0     H 9565  -3.253   1.704   7.990  0.8524  0.2775  2.1854
   71MOL0     H 9566  -3.272   1.555   7.893  0.5380 -0.3276 -0.2709
   71MOL0     H 9567  -2.776   1.165   8.533  1.4928  0.0136 -0.7354
   71MOL0     H 9568  -2.539   1.202   8.575 -2.0130 -0.7001 -2.8330
   71MOL0     H 9569  -2.184   1.282   8.925 -0.5091  0.7721  0.1665
   71MOL0     H 9570  -1.923   1.296   8.927  1.0067  1.5226 -0.9059
   71MOL0     H 9571  -0.159   0.814   8.335  0.7119 -2.2398  2.7541
   71MOL0     H 9572  -0.007   0.662   8.219 -0.1436 -3.8389  1.3127
   71MOL0     H 9573   0.041   0.213   8.121  1.3496  0.9460  0.8816
   71MOL0     H 9574   0.148   0.019   8.031 -0.8456  1.6093  0.1208
   71MOL0     H 9575   0.395  -0.166   7.813 -1.0942 -3.7043  0.0649
   71MOL0     H 9576   0.336  -0.098   7.969 -1.6749 -5.4599  0.5101
   71MOL0     H 9577   0.160  -0.196   7.750  2.1291  0.8236 -0.8400
   71MOL0     H 9578   0.115  -0.189   7.923  0.7068 -0.7502  1.3400
   71MOL0     H 9579   0.229  -0.366   8.001 -0.8380  0.5353 -0.3637
   71MOL0     H 9580   0.340  -0.372   7.865  0.3313 -1.1511  1.5940
   71MOL0     H 9581   0.146  -0.435   7.714 -0.7746 -1.3903 -0.3731
   71MOL0     H 9582   0.034  -0.404   7.846  0.0844 -0.2845 -0.0520
   71MOL0     H 9583   0.166  -0.794   7.925 -0.7740  0.2359 -1.9997
   71MOL0     H 9584   0.281   0.247   7.686  3.0327  1.3561  0.5619
   71MOL0     H 9585   0.173   0.439   7.766  1.5621 -0.1866  0.8118
   72MOL0     O 9586   4.324   9.221   4.472  0.1891 -1.0715  0.6370
   72MOL0     C 9587   4.275   9.112   4.469  0.6883  0.0484 -0.4469
   72MOL0     O 9588   4.138   9.072   4.457 -0.5112  0.0385 -0.1068
   72MOL0     C 9589   4.033   9.158   4.458 -0.6374 -0.6860 -0.8818
   72MOL0     C 9590   4.022   9.297   4.474  0.0589  0.0348  0.2086
   72MOL0     C 9591   3.895   9.352   4.463  0.1121 -0.0512 -0.5876
   72MOL0     C 9592   3.771   9.283   4.443  0.9248 -0.4406 -0.3037
   72MOL0     O 9593   3.648   9.343   4.436 -0.0218  0.2418 -0.1290
   72MOL0     C 9594   3.625   9.469   4.374  0.1385  0.0212 -0.1607
   72MOL0     C 9595   3.473   9.500   4.347  1.0946 -0.2529  0.8504
   72MOL0     C 9596   3.401   9.515   4.474  0.9369  0.0563 -0.0259
   72MOL0     C 9597   3.243   9.512   4.454  1.6801 -0.1736 -0.0157
   72MOL0     C 9598   3.174   9.525   4.584  1.1192  0.0867  0.0236
   72MOL0     C 9599   3.180   9.398   4.676 -0.1153 -0.0059 -0.4205
   72MOL0     C 9600   3.093   9.410   4.792 -0.1137  0.4748 -0.1242
   72MOL0     C 9601   3.095   9.282   4.877  0.0488 -0.7715 -0.5887
   72MOL0     N 9602   3.032   9.164   4.812  0.0529 -0.6845 -0.0428
   72MOL0     C 9603   2.916   9.169   4.739  0.4917  0.3408  0.4106
   72MOL0     C 9604   2.898   9.039   4.701 -0.4407 -0.4454 -0.0329
   72MOL0     C 9605   2.783   8.984   4.615  0.0895  0.0661 -0.2440
   72MOL0     C 9606   2.680   8.905   4.703  0.6591  0.5662  0.8532
   72MOL0     C 9607   2.563   8.849   4.629 -1.0290  0.3619  0.1424
   72MOL0     C 9608   2.466   8.771   4.717  0.8500 -0.7853  0.1911
   72MOL0     O 9609   2.354   8.729   4.633 -0.7233  0.4783  0.2120
   72MOL0     C 9610   2.227   8.700   4.673  0.2350  0.1347  0.3491
   72MOL0     C 9611   2.171   8.709   4.803 -0.1679  0.4161 -0.3883
   72MOL0     C 9612   2.042   8.682   4.840 -0.6906 -0.1137  0.8500
   72MOL0     C 9613   1.999   8.693   4.991  0.8751  0.0835  0.0341
   72MOL0     C 9614   1.952   8.642   4.732  0.6736 -0.1207  0.2958
   72MOL0     C 9615   1.812   8.589   4.751 -0.4323  0.2335  0.9980
   72MOL0     O 9616   1.780   8.542   4.881  0.1615 -0.5550 -0.6469
   72MOL0     C 9617   1.651   8.501   4.901 -0.0101  0.4292 -0.2901
   72MOL0     C 9618   1.591   8.546   5.021  0.1218  0.4567  0.2915
   72MOL0     C 9619   1.467   8.485   5.055 -0.3582 -0.9799 -0.7779
   72MOL0     C 9620   1.398   8.398   4.974  0.0623  0.2030 -0.5851
   72MOL0     O 9621   1.282   8.336   5.008 -0.0037 -0.1786 -0.1698
   72MOL0     C 9622   1.169   8.399   4.946  0.3974  0.1856 -0.2137
   72MOL0     C 9623   1.155   8.549   4.970 -0.0990 -0.7392  0.1964
   72MOL0     C 9624   1.111   8.585   5.112  0.4363 -0.1448  0.7227
   72MOL0     C 9625   1.074   8.732   5.136 -0.3657  0.4727 -0.3774
   72MOL0     C 9626   1.024   8.753   5.288  0.4733 -0.2569 -0.0034
   72MOL0     C 9627   0.992   8.899   5.315  0.8903  0.0467  0.3781
   72MOL0     C 9628   0.857   8.943   5.253  0.1115  0.1115  0.0299
   72MOL0     C 9629   0.832   9.094   5.288 -0.6660 -0.1954  1.0885
   72MOL0    Cl 9630   0.817   9.121   5.467 -0.0362 -0.2467  0.1200
   72MOL0     C 9631   1.446   8.365   4.845 -0.4227 -0.5596 -0.4648
   72MOL0     C 9632   1.578   8.407   4.820 -0.7145 -0.0883 -0.8051
   72MOL0     O 9633   1.734   8.589   4.653  0.0829 -0.1774  0.2863
   72MOL0     C 9634   2.006   8.633   4.600  0.6188 -0.3248 -0.1679
   72MOL0     C 9635   2.135   8.672   4.571 -0.6105  0.2213 -0.5814
   72MOL0     N 9636   3.004   8.966   4.755  0.0176 -0.5822 -0.0254
   72MOL0     N 9637   3.088   9.047   4.811  0.0872 -0.0334 -0.4363
   72MOL0     C 9638   3.793   9.145   4.428 -0.3321 -0.6978  1.4054
   72MOL0     C 9639   3.919   9.082   4.429 -0.2976 -0.9620  0.3148
   72MOL0     C 9640   4.373   9.002   4.492  0.0441 -0.0694 -0.0748
   72MOL0     C 9641   4.322   8.875   4.537 -0.8375  0.7525 -0.6317
   72MOL0     C 9642   4.396   8.755   4.549 -0.6685  0.2862  0.5228
   72MOL0     C 9643   4.535   8.764   4.519 -0.3933 -0.8636  0.5928
   72MOL0     O 9644   4.607   8.646   4.510  0.7591 -0.3967  0.4780
   72MOL0     C 9645   4.743   8.648   4.463 -0.1574  0.4784 -1.0258
   72MOL0     C 9646   4.794   8.499   4.439 -0.0691 -0.0388  0.6502
   72MOL0     C 9647   4.710   8.420   4.338 -0.4293 -0.1929 -0.7011
   72MOL0     C 9648   4.753   8.272   4.344 -0.7960  0.8108  0.5419
   72MOL0     C 9649   4.895   8.244   4.317 -0.5719 -0.3576  0.8540
   72MOL0     C 9650   5.018   8.246   4.293 -0.5303 -0.0144 -0.0697
   72MOL0     C 9651   4.588   8.885   4.465  0.0804  0.0176 -0.0007
   72MOL0     C 9652   4.508   9.004   4.457 -0.4172  0.5109 -0.4906
   72MOL0     H 9653   4.116   9.349   4.486  0.5408 -1.3619  3.2056
   72MOL0     H 9654   3.906   9.460   4.467  2.3834 -0.2427  1.1678
   72MOL0     H 9655   3.659   9.543   4.448  2.6787 -0.3888 -0.8253
   72MOL0     H 9656   3.691   9.491   4.290  1.1045 -0.5418  0.4299
   72MOL0     H 9657   3.462   9.594   4.292 -3.0089  0.3457  2.3618
   72MOL0     H 9658   3.434   9.416   4.289  0.7564 -0.2322  1.0455
   72MOL0     H 9659   3.433   9.423   4.524 -1.2224 -0.7992 -0.1154
   72MOL0     H 9660   3.441   9.592   4.541  0.9674 -0.0867  0.1202
   72MOL0     H 9661   3.206   9.596   4.394 -0.6813 -1.1389 -0.0308
   72MOL0     H 9662   3.206   9.429   4.394  2.1778  0.6694 -1.5285
   72MOL0     H 9663   3.208   9.616   4.633 -1.0425  0.5752  0.7368
   72MOL0     H 9664   3.069   9.548   4.562  1.2521  4.0233  2.6154
   72MOL0     H 9665   3.156   9.310   4.616  0.7967  0.5460 -1.6434
   72MOL0     H 9666   3.286   9.384   4.703 -0.1577 -1.8332 -1.1201
   72MOL0     H 9667   3.131   9.487   4.860 -0.7341  0.5876  0.1072
   72MOL0     H 9668   2.993   9.450   4.769  0.2243  0.2739 -2.0680
   72MOL0     H 9669   3.045   9.318   4.967  1.4901  1.6674 -0.6563
   72MOL0     H 9670   3.198   9.254   4.903 -1.0629 -3.8261  0.9128
   72MOL0     H 9671   2.852   9.252   4.713  0.7763  0.9888  1.7276
   72MOL0     H 9672   2.726   9.059   4.560 -0.3403 -0.2551 -0.2444
   72MOL0     H 9673   2.827   8.913   4.545 -0.3148 -1.9332  1.4215
   72MOL0     H 9674   2.618   8.950   4.781 -1.1514 -1.6756  0.8189
   72MOL0     H 9675   2.740   8.827   4.751 -1.1928 -0.6631  1.2765
   72MOL0     H 9676   2.604   8.771   4.564 -0.2099  1.7662 -1.0709
   72MOL0     H 9677   2.504   8.922   4.573 -0.3887 -0.1188 -1.1828
   72MOL0     H 9678   2.411   8.833   4.789 -1.0367 -0.6075 -1.3376
   72MOL0     H 9679   2.503   8.689   4.779  1.2373 -0.0258  0.9966
   72MOL0     H 9680   2.247   8.736   4.876  2.7412 -0.7183 -2.7488
   72MOL0     H 9681   1.893   8.716   5.005  0.2708 -0.8771 -2.4817
   72MOL0     H 9682   2.045   8.605   5.038 -0.2971 -0.5401  0.0310
   72MOL0     H 9683   2.047   8.781   5.035 -0.7632  1.6035 -1.0981
   72MOL0     H 9684   1.652   8.613   5.080 -2.1289  2.4293  0.5789
   72MOL0     H 9685   1.421   8.499   5.152  0.1010 -1.6711 -0.4563
   72MOL0     H 9686   1.186   8.383   4.839  0.7021 -2.1541  0.1370
   72MOL0     H 9687   1.071   8.359   4.976  0.0510  1.0424 -0.1456
   72MOL0     H 9688   1.244   8.604   4.938 -0.4371 -0.2285  0.1191
   72MOL0     H 9689   1.081   8.587   4.899 -0.5045  0.3631  1.1762
   72MOL0     H 9690   1.192   8.557   5.179  1.0285 -0.1503  0.0207
   72MOL0     H 9691   1.024   8.521   5.131 -0.3894  1.0501  1.0850
   72MOL0     H 9692   1.172   8.779   5.122 -0.2916 -0.3394 -3.0562
   72MOL0     H 9693   1.005   8.767   5.059  0.0708 -0.5040 -1.2405
   72MOL0     H 9694   1.102   8.727   5.360  1.4775 -0.2817 -1.0600
   72MOL0     H 9695   0.937   8.691   5.309 -1.2031  1.9486 -0.0993
   72MOL0     H 9696   0.988   8.915   5.423  1.9368  2.5652  0.0956
   72MOL0     H 9697   1.078   8.952   5.276 -0.9402  0.4006 -3.7079
   72MOL0     H 9698   0.773   8.884   5.291 -0.7246 -0.3709 -2.4194
   72MOL0     H 9699   0.852   8.941   5.144 -1.6792  0.3142  0.0871
   72MOL0     H 9700   0.747   9.131   5.231  0.9934  0.4737 -1.0892
   72MOL0     H 9701   0.924   9.141   5.252 -0.9841 -0.2436  0.1911
   72MOL0     H 9702   1.397   8.296   4.776 -1.7430 -0.3150  0.2076
   72MOL0     H 9703   1.626   8.371   4.729  1.0587 -2.8659  1.1050
   72MOL0     H 9704   1.941   8.591   4.524  1.8024 -0.5817 -1.0541
   72MOL0     H 9705   2.159   8.667   4.465  1.2096 -0.3897 -0.1739
   72MOL0     H 9706   3.713   9.077   4.400 -1.4811  0.7495  1.0834
   72MOL0     H 9707   3.925   8.976   4.407 -2.4920 -0.9208 -0.7952
   72MOL0     H 9708   4.216   8.871   4.560 -0.6459 -0.2746  0.1292
   72MOL0     H 9709   4.347   8.661   4.575  0.0909 -0.0730  0.7002
   72MOL0     H 9710   4.742   8.704   4.368  0.0190  1.7474 -0.2995
   72MOL0     H 9711   4.806   8.707   4.530 -2.9096  0.5320  1.6962
   72MOL0     H 9712   4.805   8.444   4.533  1.5073  0.6496  0.9026
   72MOL0     H 9713   4.896   8.512   4.400  0.3895  3.4538  2.5544
   72MOL0     H 9714   4.733   8.460   4.239 -0.2365 -0.1353 -0.6319
   72MOL0     H 9715   4.602   8.421   4.356 -0.6677 -1.1586 -1.9713
   72MOL0     H 9716   4.689   8.209   4.281 -0.1444  1.5183 -0.8769
   72MOL0     H 9717   4.727   8.222   4.438 -1.5014  0.0902 -0.0215
   72MOL0     H 9718   5.118   8.235   4.256 -0.1205 -0.5839  1.1746
   72MOL0     H 9719   4.689   8.905   4.432 -0.4712  0.8390 -1.2940
   72MOL0     H 9720   4.554   9.098   4.429 -0.6226  0.3330 -1.4553
   73MOL0     O 9721   3.715   7.838   2.525 -0.2887  0.1492  1.1659
   73MOL0     C 9722   3.780   7.923   2.591 -0.1487  0.9838 -0.2334
   73MOL0     O 9723   3.738   7.992   2.690  0.7022 -0.0763 -0.6826
   73MOL0     C 9724   3.611   7.982   2.734  0.6164 -0.4324 -0.4295
   73MOL0     C 9725   3.508   8.007   2.643  0.7273 -0.1608  0.5448
   73MOL0     C 9726   3.376   7.970   2.691 -1.2207  0.5864 -0.4505
   73MOL0     C 9727   3.353   7.931   2.824  0.3889 -0.1829 -0.9709
   73MOL0     O 9728   3.222   7.911   2.856  0.8714  0.2467 -0.9834
   73MOL0     C 9729   3.179   7.917   3.000  0.3231  0.4008  0.6100
   73MOL0     C 9730   3.035   7.887   3.000  0.1285 -0.4757 -0.3652
   73MOL0     C 9731   2.955   8.005   2.944 -0.1294 -0.4404  0.0941
   73MOL0     C 9732   2.929   8.108   3.051  0.3748  0.3828 -0.4049
   73MOL0     C 9733   2.851   8.215   2.973  0.2161  0.5456  0.0548
   73MOL0     C 9734   2.707   8.181   2.938  0.4762 -0.7951 -0.6657
   73MOL0     C 9735   2.630   8.298   2.873 -0.8163 -0.8156 -0.1557
   73MOL0     C 9736   2.488   8.250   2.848 -0.5709 -0.0712 -0.0697
   73MOL0     N 9737   2.412   8.362   2.799 -0.3435 -0.6492  0.0180
   73MOL0     C 9738   2.310   8.426   2.859  0.7791  0.6748 -0.4159
   73MOL0     C 9739   2.305   8.550   2.807 -0.0771  0.4195 -0.1719
   73MOL0     C 9740   2.211   8.660   2.851 -0.1147  0.1169  0.4690
   73MOL0     C 9741   2.107   8.702   2.742  0.7535  0.0646  0.1846
   73MOL0     C 9742   2.050   8.851   2.755 -0.5843  0.5721  0.4760
   73MOL0     C 9743   1.967   8.864   2.880  0.4869 -0.7677 -0.4158
   73MOL0     O 9744   1.835   8.813   2.859 -0.2044  0.3509 -0.5493
   73MOL0     C 9745   1.749   8.785   2.963  0.6565  0.2609 -0.6342
   73MOL0     C 9746   1.785   8.777   3.095  0.3812 -0.5825  0.3418
   73MOL0     C 9747   1.698   8.727   3.194  0.6623  0.0923  0.8213
   73MOL0     C 9748   1.743   8.726   3.338 -0.3225 -0.1123 -0.2508
   73MOL0     C 9749   1.563   8.694   3.149 -0.3218 -0.3788 -0.5169
   73MOL0     C 9750   1.464   8.623   3.230 -0.1556  0.0708  0.7414
   73MOL0     O 9751   1.357   8.563   3.166 -0.4546 -0.2468 -0.6298
   73MOL0     C 9752   1.238   8.573   3.232  0.2541 -0.0347  0.4602
   73MOL0     C 9753   1.133   8.489   3.169 -0.0509  0.5032 -0.3863
   73MOL0     C 9754   1.006   8.469   3.220 -0.3023  0.0912 -0.2365
   73MOL0     C 9755   0.967   8.549   3.326  0.0055  0.3073  0.1169
   73MOL0     O 9756   0.838   8.555   3.375 -0.6178  0.2164  0.0382
   73MOL0     C 9757   0.731   8.490   3.314 -0.9685  0.9182  0.0634
   73MOL0     C 9758   0.594   8.555   3.354 -0.7634  0.2854  0.2232
   73MOL0     C 9759   0.480   8.471   3.290 -0.5688 -0.1896 -0.3255
   73MOL0     C 9760   0.339   8.524   3.330 -0.7383  0.0881  0.5723
   73MOL0     C 9761   0.232   8.454   3.254  0.5660 -0.0663 -0.2836
   73MOL0     C 9762   0.091   8.498   3.308 -0.8447  0.8662 -0.2265
   73MOL0     C 9763  -0.027   8.420   3.240  0.2136  0.5894  0.0754
   73MOL0     C 9764  -0.169   8.476   3.271  0.6740 -0.2855  0.5576
   73MOL0    Cl 9765  -0.186   8.509   3.449  0.0655 -0.2532  0.0265
   73MOL0     C 9766   1.060   8.625   3.397 -0.7630 -0.4826  0.2534
   73MOL0     C 9767   1.193   8.646   3.348 -0.2417  1.0580 -0.3551
   73MOL0     O 9768   1.480   8.620   3.351 -0.1915 -0.2992  0.1844
   73MOL0     C 9769   1.529   8.720   3.011 -0.1583  0.1376 -0.5408
   73MOL0     C 9770   1.622   8.754   2.921 -0.6750 -0.3866  0.1633
   73MOL0     N 9771   2.397   8.562   2.698  0.4927  0.2769  0.0949
   73MOL0     N 9772   2.455   8.444   2.692  0.6568  0.3516  0.4533
   73MOL0     C 9773   3.456   7.921   2.915  0.2025  1.3425 -0.0747
   73MOL0     C 9774   3.586   7.936   2.864  0.3254 -0.2286 -0.3732
   73MOL0     C 9775   3.923   7.937   2.547  0.2799  0.6921  0.4933
   73MOL0     C 9776   3.991   7.831   2.489  0.4994 -0.4037 -0.2648
   73MOL0     C 9777   4.126   7.838   2.454  0.7391  0.0332  0.0620
   73MOL0     C 9778   4.199   7.955   2.474  0.1254 -0.1157  0.0463
   73MOL0     O 9779   4.330   7.975   2.429  0.4007  0.8685  0.2442
   73MOL0     C 9780   4.394   7.873   2.356 -0.2589  0.4846 -0.1503
   73MOL0     C 9781   4.495   7.793   2.445  0.2306  0.1572  1.5039
   73MOL0     C 9782   4.581   7.885   2.531  0.3770  0.1124 -0.5087
   73MOL0     C 9783   4.642   7.798   2.642  0.4071  0.3132 -0.0160
   73MOL0     C 9784   4.745   7.869   2.719  0.4999  0.3670  0.8895
   73MOL0     C 9785   4.828   7.924   2.786 -0.4645 -0.4289  0.4038
   73MOL0     C 9786   4.137   8.059   2.550 -0.1789 -0.7956  0.3070
   73MOL0     C 9787   3.999   8.053   2.577 -1.2809  0.1034 -0.0528
   73MOL0     H 9788   3.529   8.030   2.539 -0.9379  2.1721  0.6506
   73MOL0     H 9789   3.289   7.975   2.625 -2.4817 -2.7605  0.7600
   73MOL0     H 9790   3.234   7.850   3.067 -1.0428 -0.5437  0.8257
   73MOL0     H 9791   3.187   8.022   3.031 -0.5660  0.7038 -0.1635
   73MOL0     H 9792   3.014   7.793   2.949  0.1775 -0.0502 -1.1815
   73MOL0     H 9793   2.996   7.865   3.100 -1.2986 -1.0920 -1.0238
   73MOL0     H 9794   3.014   8.043   2.861 -1.5327 -0.4488 -0.9398
   73MOL0     H 9795   2.860   7.971   2.902 -2.6858  3.1399  2.3509
   73MOL0     H 9796   2.867   8.066   3.130  1.0755  0.0755 -0.0166
   73MOL0     H 9797   3.021   8.147   3.095 -0.6899  0.9850  1.3588
   73MOL0     H 9798   2.839   8.289   3.053 -2.3402 -0.5605  0.7947
   73MOL0     H 9799   2.906   8.257   2.889 -0.9535 -0.6433 -1.3636
   73MOL0     H 9800   2.709   8.100   2.864  0.3649 -0.4615 -1.0397
   73MOL0     H 9801   2.654   8.140   3.025  1.2843 -0.0709  0.1903
   73MOL0     H 9802   2.645   8.384   2.939 -2.9398  1.6587 -2.6702
   73MOL0     H 9803   2.669   8.321   2.774  1.6381  2.5962  1.4098
   73MOL0     H 9804   2.454   8.215   2.946  1.9734  1.1776  1.3627
   73MOL0     H 9805   2.480   8.170   2.774 -2.5334  0.6213 -0.6831
   73MOL0     H 9806   2.247   8.400   2.943  0.7422 -1.3000 -1.0168
   73MOL0     H 9807   2.153   8.620   2.935 -0.5859 -2.5870 -1.0360
   73MOL0     H 9808   2.272   8.739   2.896  0.3079 -0.1401  0.3554
   73MOL0     H 9809   2.021   8.635   2.738  1.0707 -0.2976 -0.6896
   73MOL0     H 9810   2.150   8.701   2.642 -2.0342 -0.5982 -1.0892
   73MOL0     H 9811   1.988   8.868   2.666 -0.3537 -1.6883 -0.1589
   73MOL0     H 9812   2.143   8.908   2.762  0.5240 -1.4090  3.5695
   73MOL0     H 9813   1.959   8.966   2.919  0.1145 -0.6837 -0.7080
   73MOL0     H 9814   2.017   8.814   2.964 -1.3980 -0.8139  0.7163
   73MOL0     H 9815   1.880   8.800   3.143 -0.0084  0.3507  0.6899
   73MOL0     H 9816   1.724   8.822   3.387  1.0360  1.0712 -1.9135
   73MOL0     H 9817   1.710   8.640   3.397 -0.3183 -0.1153 -0.2526
   73MOL0     H 9818   1.851   8.705   3.343 -0.6412 -1.9825 -0.3594
   73MOL0     H 9819   1.168   8.425   3.089  1.0003 -0.0739  0.5080
   73MOL0     H 9820   0.936   8.401   3.174 -0.6405  0.5275 -0.3760
   73MOL0     H 9821   0.736   8.493   3.204  0.2591  0.0982  0.0723
   73MOL0     H 9822   0.727   8.383   3.339  0.6768  1.1044  1.3195
   73MOL0     H 9823   0.596   8.559   3.463 -1.6372  0.4445  0.2410
   73MOL0     H 9824   0.586   8.659   3.320  0.0321 -0.2563 -1.7502
   73MOL0     H 9825   0.490   8.367   3.321 -2.6783 -0.3172  0.0692
   73MOL0     H 9826   0.490   8.472   3.181 -3.7031  1.0102 -0.7305
   73MOL0     H 9827   0.340   8.502   3.437  0.8350 -1.6133  0.2592
   73MOL0     H 9828   0.336   8.632   3.319  1.3561  0.1216 -0.1021
   73MOL0     H 9829   0.242   8.346   3.271  2.4522  0.4751  2.7242
   73MOL0     H 9830   0.247   8.475   3.147 -0.5148 -0.2429 -0.4889
   73MOL0     H 9831   0.095   8.481   3.416  1.8213  0.3055 -0.3596
   73MOL0     H 9832   0.081   8.604   3.280  2.0560  1.4699  0.7086
   73MOL0     H 9833  -0.004   8.318   3.270  2.6637  0.3575 -2.1770
   73MOL0     H 9834  -0.003   8.419   3.133 -0.8423  0.1951 -0.1736
   73MOL0     H 9835  -0.250   8.406   3.246  1.0306 -0.7301  0.6310
   73MOL0     H 9836  -0.177   8.574   3.224 -1.9961 -0.2389  0.9625
   73MOL0     H 9837   1.031   8.664   3.494 -2.0830 -2.3087  0.6569
   73MOL0     H 9838   1.254   8.699   3.420  0.8324  2.1645 -2.0415
   73MOL0     H 9839   1.430   8.702   2.970 -1.7698  1.4628  2.3885
   73MOL0     H 9840   1.597   8.772   2.817  1.2237  0.9076 -0.1141
   73MOL0     H 9841   3.454   7.891   3.019 -0.4711  0.0189 -0.4494
   73MOL0     H 9842   3.663   7.913   2.937  0.9153  2.3850 -0.0654
   73MOL0     H 9843   3.940   7.737   2.470  0.9395 -0.3648 -1.7477
   73MOL0     H 9844   4.157   7.748   2.401  0.1681 -0.6269  0.8184
   73MOL0     H 9845   4.323   7.815   2.297  0.6247 -0.2294 -0.5207
   73MOL0     H 9846   4.446   7.921   2.273  0.3111 -0.3905 -0.3061
   73MOL0     H 9847   4.566   7.743   2.379  0.8713  2.9037 -0.0593
   73MOL0     H 9848   4.452   7.715   2.509  0.3674  1.2852  3.0457
   73MOL0     H 9849   4.524   7.967   2.575  3.3063  3.2619 -2.1232
   73MOL0     H 9850   4.661   7.925   2.468  0.1397  1.8782  0.2452
   73MOL0     H 9851   4.695   7.719   2.588  0.2724  1.4911 -1.9674
   73MOL0     H 9852   4.568   7.753   2.708  1.1429 -3.7984 -1.7092
   73MOL0     H 9853   4.895   7.994   2.832  0.1985  0.2487 -1.4870
   73MOL0     H 9854   4.194   8.151   2.558  0.8429 -1.2993 -0.8443
   73MOL0     H 9855   3.952   8.133   2.634 -1.3451 -2.4335  3.7920
   74MOL0     O 9856  11.241   0.400   9.525  0.5093  0.0559 -0.4021
   74MOL0     C 9857  11.271   0.464   9.625 -0.1843  0.5274 -0.0942
   74MOL0     O 9858  11.189   0.538   9.701  0.0301 -0.0410  0.5311
   74MOL0     C 9859  11.051   0.532   9.690 -0.5905 -0.5986 -0.2464
   74MOL0     C 9860  10.968   0.430   9.635 -0.6051 -0.6477  0.0254
   74MOL0     C 9861  10.827   0.426   9.648 -0.3585  0.5733 -0.5490
   74MOL0     C 9862  10.765   0.535   9.708 -0.4426  0.5083 -0.1398
   74MOL0     O 9863  10.636   0.537   9.682 -0.2590  0.3641  0.3843
   74MOL0     C 9864  10.566   0.659   9.668  0.4230  0.2371  0.0936
   74MOL0     C 9865  10.414   0.642   9.626 -0.1194 -0.2919  0.0011
   74MOL0     C 9866  10.357   0.511   9.654 -0.8213 -0.3061 -0.0245
   74MOL0     C 9867  10.206   0.514   9.620  0.3440  0.9826  0.3796
   74MOL0     C 9868  10.113   0.403   9.686 -0.2693 -1.1052  0.9911
   74MOL0     C 9869  10.089   0.427   9.833 -0.2610 -0.5157 -0.4213
   74MOL0     C 9870   9.987   0.322   9.878 -0.2864 -0.1114  0.0280
   74MOL0     C 9871   9.952   0.322  10.024 -0.8057  0.5447  0.0331
   74MOL0     N 9872   9.873   0.440  10.050 -0.1596 -0.2387 -0.3418
   74MOL0     C 9873   9.904   0.523  10.152 -0.6285 -0.7608  0.3777
   74MOL0     C 9874   9.816   0.621  10.143 -0.2521 -0.1546 -0.4841
   74MOL0     C 9875   9.823   0.760  10.208 -0.0451 -0.2634  0.1276
   74MOL0     C 9876   9.690   0.792  10.276  0.2252 -0.1008  0.0607
   74MOL0     C 9877   9.680   0.938  10.300 -0.4310  0.1543 -0.1327
   74MOL0     C 9878   9.565   0.983  10.393  0.1336  0.4279  0.1960
   74MOL0     O 9879   9.579   1.128  10.399  0.7478  0.2736  0.4161
   74MOL0     C 9880   9.479   1.202  10.448  0.7434 -0.8502  0.9319
   74MOL0     C 9881   9.468   1.337  10.404  0.2631 -0.0979 -0.7288
   74MOL0     C 9882   9.370   1.425  10.446 -0.0700  0.1953  0.5726
   74MOL0     C 9883   9.376   1.563  10.397 -0.8465  0.5067  0.1803
   74MOL0     C 9884   9.268   1.374  10.522 -0.1738  0.1801 -0.2354
   74MOL0     C 9885   9.151   1.454  10.572  0.4604 -0.9599 -0.2190
   74MOL0     O 9886   9.116   1.424  10.702  0.6894 -0.6715 -0.5456
   74MOL0     C 9887   9.000   1.477  10.752  0.2361 -0.0660 -0.1858
   74MOL0     C 9888   8.870   1.456  10.697  0.2253 -0.6667  0.6407
   74MOL0     C 9889   8.755   1.519  10.756  1.2568 -0.1109  0.1323
   74MOL0     C 9890   8.769   1.590  10.878 -0.5053  0.0183 -0.5530
   74MOL0     O 9891   8.650   1.655  10.909 -0.4360  1.1195 -0.6693
   74MOL0     C 9892   8.632   1.688  11.051  0.3928 -0.2145  0.5275
   74MOL0     C 9893   8.483   1.676  11.099  0.2914 -0.1586 -0.0454
   74MOL0     C 9894   8.407   1.546  11.079 -0.2220 -0.1324  0.1196
   74MOL0     C 9895   8.357   1.524  10.940  0.7282  0.1752  0.3348
   74MOL0     C 9896   8.244   1.417  10.926 -0.6433 -0.5349 -0.4519
   74MOL0     C 9897   8.111   1.460  10.990  0.0726 -0.3527  0.2032
   74MOL0     C 9898   8.010   1.348  11.004 -0.0404 -0.1240 -0.0456
   74MOL0     C 9899   7.868   1.406  10.983 -0.3470  0.1642  0.2330
   74MOL0    Cl 9900   7.824   1.523  11.116  0.1517  0.1069 -0.2644
   74MOL0     C 9901   8.895   1.603  10.938 -0.0297  0.1159 -0.8792
   74MOL0     C 9902   9.012   1.553  10.875 -0.6059  0.0255 -0.0339
   74MOL0     O 9903   9.100   1.546  10.504  0.7141 -0.6880 -0.3488
   74MOL0     C 9904   9.283   1.241  10.581  0.5571 -0.1892  0.8713
   74MOL0     C 9905   9.384   1.153  10.539 -0.4541 -0.3011  0.5426
   74MOL0     N 9906   9.728   0.598  10.048  0.9190  0.6191  0.9001
   74MOL0     N 9907   9.758   0.483   9.990 -0.2715  0.1773 -0.7055
   74MOL0     C 9908  10.842   0.644   9.758 -0.1383 -0.8828 -0.0249
   74MOL0     C 9909  10.982   0.643   9.745  1.2022 -0.0731 -0.1574
   74MOL0     C 9910  11.419   0.477   9.646  0.4997 -0.0526 -0.0628
   74MOL0     C 9911  11.510   0.393   9.574  0.0056 -0.5298 -0.0936
   74MOL0     C 9912  11.645   0.422   9.588  0.1422 -0.5683  0.1181
   74MOL0     C 9913  11.696   0.526   9.671  0.2202  0.8335 -0.4215
   74MOL0     O 9914  11.826   0.563   9.673  0.3606  0.5054  0.1103
   74MOL0     C 9915  11.917   0.464   9.729 -1.3408  0.2170 -0.1526
   74MOL0     C 9916  12.006   0.416   9.614  1.1390 -0.3171 -0.7009
   74MOL0     C 9917  12.123   0.518   9.590  0.5920 -0.0504 -0.2476
   74MOL0     C 9918  12.233   0.458   9.496  0.9960 -0.2896 -0.0586
   74MOL0     C 9919  12.187   0.429   9.357  0.4164  0.3051  2.1827
   74MOL0     C 9920  12.166   0.403   9.237  0.6791 -0.6789 -0.1749
   74MOL0     C 9921  11.602   0.604   9.742  0.6449  0.8478  0.0832
   74MOL0     C 9922  11.462   0.581   9.734  0.6799  0.6718  0.7235
   74MOL0     H 9923  11.008   0.348   9.577 -0.2876  0.7393 -1.8137
   74MOL0     H 9924  10.770   0.346   9.603 -0.7564 -1.1504  2.7397
   74MOL0     H 9925  10.579   0.719   9.759 -3.4532  1.4632  0.0106
   74MOL0     H 9926  10.626   0.703   9.588  3.3828 -1.2628  1.3511
   74MOL0     H 9927  10.348   0.710   9.680 -0.6017  0.4952 -1.5107
   74MOL0     H 9928  10.403   0.665   9.520 -0.1465 -1.6592 -0.3064
   74MOL0     H 9929  10.416   0.424   9.624 -1.0583 -1.5508  2.7851
   74MOL0     H 9930  10.367   0.504   9.762  1.0413 -0.1015 -0.1590
   74MOL0     H 9931  10.167   0.612   9.650  1.4706  1.4297  0.4342
   74MOL0     H 9932  10.200   0.512   9.511  2.6102 -1.9120  0.1699
   74MOL0     H 9933  10.015   0.405   9.637  1.9249 -1.3396 -4.1491
   74MOL0     H 9934  10.168   0.312   9.658  0.4895  0.2625 -2.5721
   74MOL0     H 9935  10.183   0.426   9.888  0.3007  2.3547 -1.1848
   74MOL0     H 9936  10.041   0.525   9.846  1.4400  0.3240 -0.2641
   74MOL0     H 9937   9.895   0.324   9.819  0.3891 -0.4148 -1.0815
   74MOL0     H 9938  10.039   0.227   9.860 -0.3531 -0.0066 -0.7560
   74MOL0     H 9939  10.041   0.317  10.088 -1.8737 -2.3395  1.4310
   74MOL0     H 9940   9.900   0.231  10.053  0.0530 -0.9225 -2.6752
   74MOL0     H 9941   9.994   0.503  10.209 -0.3826 -2.2873 -0.4744
   74MOL0     H 9942   9.893   0.769  10.292 -0.8061 -0.8906  0.8506
   74MOL0     H 9943   9.847   0.831  10.128  0.6274 -0.0931  0.4724
   74MOL0     H 9944   9.684   0.731  10.366 -1.2541 -0.7259 -0.4292
   74MOL0     H 9945   9.606   0.759  10.213 -0.3379  2.5108 -0.6938
   74MOL0     H 9946   9.663   0.979  10.200 -1.4244 -2.8420 -1.3340
   74MOL0     H 9947   9.775   0.972  10.341 -0.9702  0.2069  1.1114
   74MOL0     H 9948   9.575   0.945  10.495  0.0150  0.1352  0.1022
   74MOL0     H 9949   9.469   0.956  10.347 -0.7003 -1.1159  2.6402
   74MOL0     H 9950   9.554   1.372  10.347  2.6372 -2.5888  1.0590
   74MOL0     H 9951   9.446   1.570  10.314 -0.6073  0.3300  0.3655
   74MOL0     H 9952   9.282   1.600  10.355 -0.1002  1.1924 -0.9172
   74MOL0     H 9953   9.396   1.628  10.483 -0.1514 -1.6813  1.7470
   74MOL0     H 9954   8.864   1.409  10.600 -0.9706 -0.7779  0.7578
   74MOL0     H 9955   8.659   1.494  10.712  1.8353 -0.2631 -1.0902
   74MOL0     H 9956   8.688   1.619  11.115 -0.1555  0.3758  1.6833
   74MOL0     H 9957   8.664   1.789  11.077 -1.0923  0.6524 -0.8066
   74MOL0     H 9958   8.467   1.721  11.198  0.4120 -0.9051  0.3189
   74MOL0     H 9959   8.428   1.757  11.051 -0.9020  0.8502  2.7742
   74MOL0     H 9960   8.317   1.555  11.140 -2.7862  1.9119 -3.5623
   74MOL0     H 9961   8.470   1.466  11.120  2.4163  1.8641  0.2017
   74MOL0     H 9962   8.325   1.622  10.903  1.0895 -0.0197 -0.5237
   74MOL0     H 9963   8.442   1.499  10.876  1.4517 -0.1668  1.4011
   74MOL0     H 9964   8.287   1.334  10.982 -1.0620 -0.6856 -0.3489
   74MOL0     H 9965   8.229   1.389  10.821 -0.3512 -0.1390 -0.6028
   74MOL0     H 9966   8.125   1.500  11.091  0.4013 -0.4418  0.1962
   74MOL0     H 9967   8.073   1.537  10.923  0.3754  0.3015  0.7696
   74MOL0     H 9968   8.021   1.307  11.104 -0.7548  1.7252  0.8436
   74MOL0     H 9969   8.027   1.273  10.926  1.0745 -2.6664  2.4636
   74MOL0     H 9970   7.800   1.321  10.985  0.4076 -0.4641  2.4015
   74MOL0     H 9971   7.866   1.443  10.880 -0.5556  1.7878  0.7925
   74MOL0     H 9972   8.916   1.650  11.034  3.8514  1.4010 -2.1795
   74MOL0     H 9973   9.108   1.564  10.924 -1.1222  0.0636  0.9935
   74MOL0     H 9974   9.210   1.210  10.654 -1.5727  2.4784  0.0352
   74MOL0     H 9975   9.391   1.050  10.571 -1.4605 -0.6384 -0.2786
   74MOL0     H 9976  10.799   0.734   9.801  2.1252 -0.5341  1.6810
   74MOL0     H 9977  11.039   0.727   9.784  2.2454 -1.7680  2.1906
   74MOL0     H 9978  11.466   0.327   9.499 -3.5738  1.8012 -0.3130
   74MOL0     H 9979  11.712   0.366   9.524 -0.0706 -0.6614 -0.0193
   74MOL0     H 9980  11.975   0.508   9.811 -0.2371 -1.7882  0.2049
   74MOL0     H 9981  11.865   0.378   9.772 -2.2620 -0.1387 -1.8604
   74MOL0     H 9982  11.943   0.399   9.526  1.5283  0.0956 -1.0583
   74MOL0     H 9983  12.046   0.321   9.652  1.3984  0.4371  0.9714
   74MOL0     H 9984  12.158   0.542   9.691 -0.4177  1.0228 -0.1337
   74MOL0     H 9985  12.080   0.609   9.548  1.3394 -0.2551 -1.5137
   74MOL0     H 9986  12.280   0.371   9.543  0.2147  0.2505  1.7957
   74MOL0     H 9987  12.318   0.526   9.488  0.6588  0.0232 -1.2340
   74MOL0     H 9988  12.146   0.379   9.135  1.2609 -0.8662 -0.2514
   74MOL0     H 9989  11.637   0.682   9.809 -1.4173  3.3744 -1.5755
   74MOL0     H 9990  11.391   0.628   9.802 -0.8592  0.0444 -0.3778
   75MOL0     O 9991  10.223   2.072  11.206 -0.9120  0.1568  0.2646
   75MOL0     C 9992  10.199   1.971  11.276 -0.1698  0.3347  0.2015
   75MOL0     O 9993  10.141   1.969  11.399 -0.3791 -0.4459 -0.5959
   75MOL0     C 9994  10.091   2.080  11.459 -1.1625  0.6079  0.0023
   75MOL0     C 9995  10.111   2.108  11.594 -0.4418 -0.5072  0.2453
   75MOL0     C 9996  10.055   2.225  11.651 -0.6233  0.4581 -0.1158
   75MOL0     C 9997   9.983   2.316  11.579 -0.0452  0.4933  0.5165
   75MOL0     O 9998   9.936   2.429  11.642  0.4480 -0.0137 -0.1333
   75MOL0     C 9999   9.826   2.505  11.586 -0.4361  0.9866 -0.5773
   75MOL0     C10000   9.779   2.613  11.680 -0.0028 -0.2405 -0.0362
   75MOL0     C10001   9.728   2.550  11.810 -0.1493  0.4493 -0.1679
   75MOL0     C10002   9.680   2.655  11.916 -0.4809  0.4720 -0.8164
   75MOL0     C10003   9.562   2.601  12.000 -0.4384  0.9631 -0.0926
   75MOL0     C10004   9.525   2.702  12.108 -0.4247 -0.9273 -0.3894
   75MOL0     C10005   9.396   2.661  12.180  0.1994 -0.3953 -1.2773
   75MOL0     C10006   9.368   2.773  12.291 -0.2186  0.3814 -0.1379
   75MOL0     N10007   9.230   2.773  12.351 -0.5258 -0.1304 -0.4095
   75MOL0     C10008   9.101   2.756  12.301  0.7399  0.4879  0.0975
   75MOL0     C10009   9.009   2.755  12.402 -0.3979  0.0723  0.3169
   75MOL0     C10010   8.861   2.748  12.385  0.8790 -0.4157 -0.3166
   75MOL0     C10011   8.774   2.860  12.444  0.2927  0.6645  0.7585
   75MOL0     C10012   8.798   2.881  12.592 -0.2491 -0.0957  0.1518
   75MOL0     C10013   8.699   2.982  12.649  0.0366  0.3929  0.2308
   75MOL0     O10014   8.568   2.925  12.632  0.3973 -0.2339  0.2084
   75MOL0     C10015   8.458   2.975  12.692  0.8114  0.1845  0.5287
   75MOL0     C10016   8.445   3.087  12.779 -0.3182  0.0260 -0.1547
   75MOL0     C10017   8.326   3.136  12.823  0.3719  0.2661  0.1430
   75MOL0     C10018   8.331   3.246  12.926 -0.5456 -0.1129  0.2987
   75MOL0     C10019   8.204   3.080  12.777 -0.2475 -0.2402  0.3153
   75MOL0     C10020   8.065   3.133  12.802 -0.2248  0.6410 -0.2405
   75MOL0     O10021   8.051   3.229  12.897  0.1516  0.1108  0.3384
   75MOL0     C10022   7.932   3.308  12.887 -0.0528  0.2348 -0.0824
   75MOL0     C10023   7.823   3.286  12.966 -0.1680  0.3024  0.9962
   75MOL0     C10024   7.712   3.363  12.954  0.6778 -0.4781  0.4290
   75MOL0     C10025   7.707   3.468  12.860 -0.0500  0.3413 -0.7092
   75MOL0     O10026   7.600   3.555  12.852  0.4110  0.1774 -0.1037
   75MOL0     C10027   7.477   3.501  12.900 -0.1264 -0.1987 -1.0055
   75MOL0     C10028   7.363   3.596  12.857 -0.1608 -0.2349 -0.9023
   75MOL0     C10029   7.320   3.573  12.721 -0.3347 -0.0118  0.0892
   75MOL0     C10030   7.199   3.651  12.690  0.7062  0.1175 -0.0877
   75MOL0     C10031   7.142   3.651  12.543  0.4445 -0.5215 -0.5995
   75MOL0     C10032   7.033   3.755  12.517  0.4163 -0.2309  0.1675
   75MOL0     C10033   6.989   3.738  12.375 -0.4168  0.0541 -0.0723
   75MOL0     C10034   6.922   3.864  12.338  0.1839  0.1042  0.4639
   75MOL0    Cl10035   6.844   3.850  12.183  0.1182 -0.1192  0.1721
   75MOL0     C10036   7.814   3.479  12.779  0.3422 -0.5300  0.7523
   75MOL0     C10037   7.928   3.401  12.788  0.3934 -0.9514  0.4598
   75MOL0     O10038   7.979   3.109  12.716 -0.2165 -0.5927 -0.6423
   75MOL0     C10039   8.211   2.966  12.690 -1.1646  0.1795  0.8558
   75MOL0     C10040   8.334   2.925  12.647 -0.1982 -0.2311 -0.1218
   75MOL0     N10041   9.093   2.771  12.520 -0.8296  0.8271  0.3298
   75MOL0     N10042   9.220   2.781  12.485 -0.1344  0.0655 -0.5192
   75MOL0     C10043   9.973   2.292  11.442  0.6234 -0.1163  0.5535
   75MOL0     C10044  10.025   2.178  11.383 -0.1015 -0.2343  0.2060
   75MOL0     C10045  10.258   1.843  11.227  0.5157 -0.1053 -0.1720
   75MOL0     C10046  10.330   1.846  11.101  0.1508 -0.5713  0.2875
   75MOL0     C10047  10.369   1.721  11.045 -0.3246 -0.6924  0.5145
   75MOL0     C10048  10.341   1.601  11.118 -0.5204 -1.1017  0.9529
   75MOL0     O10049  10.386   1.477  11.088 -0.0829  1.0446 -0.7774
   75MOL0     C10050  10.512   1.470  11.026 -0.0417 -0.7132 -0.0513
   75MOL0     C10051  10.561   1.327  11.024  0.4536 -0.2279  0.3333
   75MOL0     C10052  10.526   1.260  10.883  0.4983 -0.4311 -0.5178
   75MOL0     C10053  10.531   1.106  10.895  0.2564 -0.0251  0.3941
   75MOL0     C10054  10.656   1.046  10.943  0.3085 -0.1066 -0.0794
   75MOL0     C10055  10.757   0.995  10.987  0.2461  1.2880 -0.7412
   75MOL0     C10056  10.264   1.605  11.234  0.2713 -0.0403  0.4034
   75MOL0     C10057  10.217   1.720  11.286 -0.0044  0.2272 -0.7330
   75MOL0     H10058  10.169   2.038  11.653  0.0937  0.1177  0.4708
   75MOL0     H10059  10.064   2.249  11.756  2.9618  2.2530 -0.6837
   75MOL0     H10060   9.855   2.548  11.489  0.5740  0.5917 -0.4584
   75MOL0     H10061   9.739   2.442  11.566 -0.0754  0.6376 -1.0590
   75MOL0     H10062   9.859   2.687  11.693 -0.6512  0.4574  0.0493
   75MOL0     H10063   9.691   2.659  11.635  0.9605  1.7279 -0.0293
   75MOL0     H10064   9.646   2.482  11.785  1.0742 -1.4800  0.8412
   75MOL0     H10065   9.807   2.490  11.856 -0.8788 -2.1926 -2.1399
   75MOL0     H10066   9.761   2.668  11.988 -0.2986  0.8247 -1.0829
   75MOL0     H10067   9.651   2.748  11.865 -3.7501 -0.4643 -0.8681
   75MOL0     H10068   9.485   2.585  11.924  0.7537 -3.7683 -0.6748
   75MOL0     H10069   9.585   2.503  12.043 -0.7169  0.3322 -1.3316
   75MOL0     H10070   9.601   2.694  12.186 -0.0902  1.6842 -0.3439
   75MOL0     H10071   9.521   2.804  12.067  0.9005 -0.5739  0.2792
   75MOL0     H10072   9.314   2.661  12.108 -0.6162 -0.4862 -0.3630
   75MOL0     H10073   9.408   2.567  12.234  1.2618  1.2095  1.4694
   75MOL0     H10074   9.383   2.865  12.233 -0.3246 -0.2573 -1.2129
   75MOL0     H10075   9.432   2.774  12.380 -0.8154 -2.0361  0.3997
   75MOL0     H10076   9.085   2.754  12.193  0.4289 -0.4983  0.1561
   75MOL0     H10077   8.837   2.735  12.279  2.4641 -2.6227 -0.4809
   75MOL0     H10078   8.844   2.659  12.447 -0.5769 -0.3093 -0.5311
   75MOL0     H10079   8.678   2.810  12.435  0.4976  0.5996 -1.6684
   75MOL0     H10080   8.782   2.947  12.378  2.1162 -1.0357 -1.4291
   75MOL0     H10081   8.897   2.916  12.622  0.0970  0.5589 -1.6533
   75MOL0     H10082   8.777   2.787  12.643 -0.8398  0.4573  0.9546
   75MOL0     H10083   8.702   3.074  12.590 -0.6744  0.5889  0.4956
   75MOL0     H10084   8.710   3.001  12.756  1.6433  1.5637 -0.1046
   75MOL0     H10085   8.539   3.136  12.802 -0.7132  0.5683  0.3458
   75MOL0     H10086   8.295   3.215  13.024 -1.3647  1.7866  0.6391
   75MOL0     H10087   8.432   3.284  12.943 -0.9989  0.6155  1.4629
   75MOL0     H10088   8.269   3.326  12.886 -0.5105  0.1360  0.7429
   75MOL0     H10089   7.819   3.200  13.032 -0.7827  0.4281  1.1235
   75MOL0     H10090   7.637   3.346  13.030  1.7054 -0.8962  1.3696
   75MOL0     H10091   7.446   3.401  12.867 -1.0750 -0.3555  0.2866
   75MOL0     H10092   7.483   3.499  13.009 -2.1756 -0.7814 -0.8567
   75MOL0     H10093   7.283   3.578  12.929 -0.2449  0.1865 -0.8864
   75MOL0     H10094   7.400   3.696  12.881 -1.6006  0.1712 -0.2775
   75MOL0     H10095   7.309   3.467  12.697 -0.3819  0.5648 -2.9088
   75MOL0     H10096   7.396   3.602  12.648 -3.0235 -0.0845 -2.9930
   75MOL0     H10097   7.116   3.630  12.758  0.8622 -0.3619 -0.0448
   75MOL0     H10098   7.237   3.752  12.709 -3.0512  1.7741 -0.5473
   75MOL0     H10099   7.105   3.550  12.527 -0.7685 -0.3810  1.0848
   75MOL0     H10100   7.219   3.666  12.466 -1.6291  2.3427 -2.3515
   75MOL0     H10101   6.949   3.753  12.587  1.5610  3.2794  1.8563
   75MOL0     H10102   7.087   3.848  12.536  1.7359 -1.0357  0.4600
   75MOL0     H10103   6.923   3.651  12.365 -1.6503  1.0289 -0.6409
   75MOL0     H10104   7.074   3.725  12.307 -0.1699 -0.5985  0.3423
   75MOL0     H10105   6.996   3.945  12.348  0.0837  0.1017  1.3150
   75MOL0     H10106   6.839   3.892  12.403 -0.5591  0.4141 -0.5892
   75MOL0     H10107   7.807   3.558  12.705 -2.7607 -1.3190  0.0418
   75MOL0     H10108   8.003   3.406  12.709  0.4118 -3.2474  0.2575
   75MOL0     H10109   8.122   2.926  12.643  0.2662 -1.8802 -0.2966
   75MOL0     H10110   8.338   2.868  12.554 -1.3445  1.8411 -1.5307
   75MOL0     H10111   9.931   2.367  11.377  3.8595  2.1624  0.8277
   75MOL0     H10112  10.001   2.150  11.282 -1.2328 -1.6760  0.8373
   75MOL0     H10113  10.360   1.939  11.053 -1.4102 -0.1443  0.0918
   75MOL0     H10114  10.428   1.721  10.954 -0.1540 -0.2811  0.6253
   75MOL0     H10115  10.510   1.510  10.925  2.4979 -0.2972  0.0029
   75MOL0     H10116  10.591   1.527  11.077 -0.9891 -1.8125  2.8527
   75MOL0     H10117  10.520   1.275  11.111 -4.3725  1.3362 -0.7004
   75MOL0     H10118  10.670   1.334  11.028  0.7084  0.0314 -3.2174
   75MOL0     H10119  10.588   1.305  10.805  0.1630 -1.2078 -1.2430
   75MOL0     H10120  10.422   1.275  10.853  0.9236  2.0277 -0.9639
   75MOL0     H10121  10.506   1.067  10.795  0.2458 -3.2079  1.5073
   75MOL0     H10122  10.451   1.080  10.965 -0.5841  2.7516  0.5501
   75MOL0     H10123  10.844   0.945  11.023 -1.0603  0.7748  1.9917
   75MOL0     H10124  10.235   1.519  11.292 -1.8488  1.4514  1.6657
   75MOL0     H10125  10.149   1.713  11.370 -2.2463  0.0487 -2.4633
   76MOL0     O10126   6.686   9.403   5.707  0.0891  0.2892  1.0706
   76MOL0     C10127   6.681   9.301   5.639  0.2950 -0.6059 -0.3655
   76MOL0     O10128   6.591   9.205   5.659  0.0137  0.5675 -0.2000
   76MOL0     C10129   6.500   9.238   5.763 -0.2040  0.1601 -0.3100
   76MOL0     C10130   6.525   9.198   5.887  0.7376 -0.0579  0.4714
   76MOL0     C10131   6.436   9.218   5.988  0.1202  0.4242 -0.6132
   76MOL0     C10132   6.322   9.296   5.975 -0.3629  0.1474 -0.2479
   76MOL0     O10133   6.238   9.315   6.077 -0.6883 -0.3585  0.0792
   76MOL0     C10134   6.234   9.230   6.194  0.3943  0.9594  0.5359
   76MOL0     C10135   6.083   9.186   6.204  0.1047  0.0673  0.3597
   76MOL0     C10136   5.991   9.307   6.245 -0.1906  0.6135  0.0267
   76MOL0     C10137   5.839   9.272   6.228  0.6695 -0.3151  0.6832
   76MOL0     C10138   5.759   9.400   6.244  0.9816 -0.5998 -0.0548
   76MOL0     C10139   5.608   9.377   6.284 -0.3102  0.3058  0.0895
   76MOL0     C10140   5.536   9.510   6.307 -0.5185 -0.6937  0.3532
   76MOL0     C10141   5.501   9.583   6.174 -0.4301 -0.1443 -0.5317
   76MOL0     N10142   5.377   9.529   6.110 -0.1940 -0.4837 -0.5370
   76MOL0     C10143   5.257   9.522   6.168 -0.2561  0.6057 -0.3583
   76MOL0     C10144   5.174   9.472   6.071 -0.6010 -0.7352 -0.9060
   76MOL0     C10145   5.030   9.476   6.075 -0.1839 -0.6796  0.6399
   76MOL0     C10146   4.969   9.343   6.006 -0.8952  0.6353  0.1541
   76MOL0     C10147   4.843   9.294   6.060  0.1553 -0.9179 -0.8615
   76MOL0     C10148   4.725   9.385   6.031 -0.0466  0.4322  0.0040
   76MOL0     O10149   4.613   9.316   6.083 -0.1745 -0.4332  0.4926
   76MOL0     C10150   4.487   9.337   6.037  0.7692  0.0993 -0.3671
   76MOL0     C10151   4.389   9.233   6.038 -0.1973 -0.3327 -1.7477
   76MOL0     C10152   4.253   9.248   5.993  0.0954 -0.2067 -0.8989
   76MOL0     C10153   4.158   9.135   6.032  0.3167 -0.6443  0.0757
   76MOL0     C10154   4.217   9.366   5.912 -0.7517 -0.1560 -0.4847
   76MOL0     C10155   4.098   9.380   5.824 -0.1861 -0.1819 -0.3687
   76MOL0     O10156   4.099   9.475   5.735  0.3506 -0.2366  0.6514
   76MOL0     C10157   4.010   9.477   5.635  0.0183 -0.6143  0.1440
   76MOL0     C10158   4.046   9.446   5.500 -0.3801 -0.0176  0.7157
   76MOL0     C10159   3.942   9.452   5.399  0.9275 -0.7961  0.0653
   76MOL0     C10160   3.809   9.496   5.423 -0.6910  0.6782 -0.1686
   76MOL0     O10161   3.725   9.512   5.316  1.0645  0.3350 -0.2563
   76MOL0     C10162   3.708   9.398   5.234  0.3321 -0.3699 -0.1185
   76MOL0     C10163   3.578   9.419   5.158 -0.2425 -0.3071 -0.2704
   76MOL0     C10164   3.581   9.531   5.051  0.0146  0.1799 -0.3111
   76MOL0     C10165   3.468   9.507   4.950 -0.1955 -0.3122  0.4417
   76MOL0     C10166   3.485   9.611   4.836 -0.3246  0.5979  1.1403
   76MOL0     C10167   3.472   9.748   4.891  0.5909 -0.1381 -0.2009
   76MOL0     C10168   3.456   9.831   4.773 -0.1794 -0.3568  0.4177
   76MOL0     C10169   3.377   9.955   4.806  0.6829  0.2862  0.3235
   76MOL0    Cl10170   3.207   9.910   4.834  0.1884 -0.2486 -0.2998
   76MOL0     C10171   3.782   9.530   5.553 -0.8975 -0.1977 -0.3597
   76MOL0     C10172   3.878   9.513   5.656  0.4378  0.5014  0.0266
   76MOL0     O10173   4.001   9.307   5.838 -0.2862  0.7202  0.4334
   76MOL0     C10174   4.319   9.460   5.899  0.9150 -0.1644  0.0159
   76MOL0     C10175   4.445   9.450   5.967  0.3111 -0.2745 -0.3377
   76MOL0     N10176   5.247   9.444   5.961 -0.0946  0.9153  0.1914
   76MOL0     N10177   5.364   9.480   5.984 -0.2622 -0.1037 -0.2682
   76MOL0     C10178   6.306   9.359   5.856 -0.4455  0.0083 -0.2444
   76MOL0     C10179   6.391   9.322   5.745 -0.2972  0.0324  0.4598
   76MOL0     C10180   6.779   9.285   5.529 -0.0466  0.3178  0.5107
   76MOL0     C10181   6.837   9.400   5.479  0.4840  0.0078  0.5028
   76MOL0     C10182   6.927   9.396   5.372  1.1337 -0.5635  0.5198
   76MOL0     C10183   6.970   9.270   5.325 -0.2437 -0.8577 -0.3288
   76MOL0     O10184   7.065   9.255   5.219  0.6702 -0.4326 -0.0892
   76MOL0     C10185   7.154   9.366   5.190 -0.2614  0.2918  0.6363
   76MOL0     C10186   7.234   9.346   5.062 -0.0609 -0.8372 -0.2471
   76MOL0     C10187   7.323   9.219   5.064  0.1237 -0.0155  0.3680
   76MOL0     C10188   7.400   9.183   5.188  0.0664 -0.4497 -0.1130
   76MOL0     C10189   7.530   9.124   5.153 -0.1126  0.4004 -0.0630
   76MOL0     C10190   7.641   9.083   5.141  0.3465 -0.3952  0.6567
   76MOL0     C10191   6.918   9.158   5.379  0.5445  0.0458  0.4584
   76MOL0     C10192   6.820   9.162   5.477 -1.0199  0.0948 -0.6586
   76MOL0     H10193   6.608   9.128   5.892 -0.3149 -1.5785 -1.7572
   76MOL0     H10194   6.459   9.168   6.082 -1.7146  0.4765 -0.1105
   76MOL0     H10195   6.289   9.138   6.171  1.9403  1.9174  0.2109
   76MOL0     H10196   6.268   9.279   6.286  0.3216 -1.3798  1.8871
   76MOL0     H10197   6.060   9.149   6.103 -2.2554  2.6694 -0.1935
   76MOL0     H10198   6.073   9.110   6.282 -1.3507  1.1979  1.3335
   76MOL0     H10199   5.996   9.340   6.349 -2.3432 -0.4684  0.5339
   76MOL0     H10200   6.010   9.390   6.175 -1.4212 -0.1082 -1.2064
   76MOL0     H10201   5.829   9.218   6.133 -0.6164 -1.0927  1.2206
   76MOL0     H10202   5.812   9.202   6.308 -2.2734  2.1191  2.0859
   76MOL0     H10203   5.802   9.457   6.328  0.6850 -1.7728  0.9117
   76MOL0     H10204   5.758   9.449   6.146 -2.8723 -0.8697 -0.3139
   76MOL0     H10205   5.572   9.318   6.200 -0.8699 -1.8215  1.7232
   76MOL0     H10206   5.599   9.324   6.379  1.7960  0.8008  0.6134
   76MOL0     H10207   5.446   9.493   6.366 -1.2348 -1.3234 -0.8907
   76MOL0     H10208   5.602   9.571   6.370  0.4477 -0.2832 -0.9949
   76MOL0     H10209   5.588   9.589   6.108  0.6145  0.8778  0.8761
   76MOL0     H10210   5.485   9.687   6.204 -0.3296 -0.1598 -0.4228
   76MOL0     H10211   5.220   9.550   6.266 -1.5977 -1.7080 -0.1329
   76MOL0     H10212   4.992   9.499   6.174 -0.5202 -1.0325  0.5965
   76MOL0     H10213   4.990   9.552   6.008  0.1122  0.2177  1.4663
   76MOL0     H10214   5.035   9.258   6.024 -0.7308  1.2649  2.9864
   76MOL0     H10215   4.965   9.354   5.898  1.7334 -0.3184 -0.1186
   76MOL0     H10216   4.847   9.283   6.168  0.4257  1.4475 -0.5715
   76MOL0     H10217   4.824   9.194   6.018 -2.1637 -1.7435  1.8504
   76MOL0     H10218   4.709   9.385   5.922  2.2641 -0.0647 -0.3939
   76MOL0     H10219   4.740   9.483   6.077  0.0085  1.0232 -1.2155
   76MOL0     H10220   4.416   9.148   6.099 -0.8897  0.0548 -0.8968
   76MOL0     H10221   4.158   9.049   5.964  6.5638 -1.3175  0.3890
   76MOL0     H10222   4.190   9.105   6.132 -4.2221  1.6551  2.5591
   76MOL0     H10223   4.057   9.176   6.037  0.9760  1.4305 -2.2119
   76MOL0     H10224   4.146   9.416   5.470 -0.7738 -1.3535  0.6444
   76MOL0     H10225   3.962   9.426   5.296 -0.4251  2.3201 -1.1015
   76MOL0     H10226   3.789   9.377   5.164  0.8165 -3.6966  1.2393
   76MOL0     H10227   3.703   9.307   5.294  1.1533  1.2070  2.4665
   76MOL0     H10228   3.549   9.319   5.123 -0.4156  0.2006 -1.6305
   76MOL0     H10229   3.501   9.457   5.226  0.3965  1.0039 -0.2583
   76MOL0     H10230   3.674   9.519   4.995  0.4205  2.1018 -0.1136
   76MOL0     H10231   3.583   9.623   5.110 -1.9314  0.4839 -0.6512
   76MOL0     H10232   3.485   9.402   4.923  1.7243 -0.5946  2.4444
   76MOL0     H10233   3.370   9.506   4.997 -0.6385 -2.1931 -0.4246
   76MOL0     H10234   3.405   9.585   4.767  0.8492  1.0392 -0.4431
   76MOL0     H10235   3.582   9.596   4.787 -0.8509 -3.1787  0.9368
   76MOL0     H10236   3.379   9.751   4.950  1.0807 -0.5532  0.6068
   76MOL0     H10237   3.546   9.782   4.964 -2.2468  3.7637  1.2476
   76MOL0     H10238   3.393   9.781   4.699 -1.9525 -0.0116  1.6320
   76MOL0     H10239   3.549   9.873   4.733  1.0385 -1.5840  1.8498
   76MOL0     H10240   3.388  10.019   4.718  2.4384 -1.3559 -0.7352
   76MOL0     H10241   3.417  10.006   4.894  0.0105 -0.0945  0.8555
   76MOL0     H10242   3.690   9.586   5.563 -0.0581  1.2875 -0.6410
   76MOL0     H10243   3.852   9.545   5.756  0.4016  1.4252 -0.2613
   76MOL0     H10244   4.303   9.549   5.839 -1.2135 -0.3586  0.2253
   76MOL0     H10245   4.519   9.530   5.960  0.0884 -0.1337 -1.0763
   76MOL0     H10246   6.231   9.436   5.838  0.2323  0.2035 -2.5951
   76MOL0     H10247   6.386   9.376   5.651  3.8681  2.1112  1.1852
   76MOL0     H10248   6.810   9.501   5.509 -3.4677 -0.1453 -1.7830
   76MOL0     H10249   6.959   9.488   5.325 -0.8835  0.9651  1.9604
   76MOL0     H10250   7.112   9.467   5.187  0.3563  0.6127  1.8810
   76MOL0     H10251   7.224   9.386   5.272 -0.2775 -1.2654  1.0615
   76MOL0     H10252   7.303   9.431   5.051  0.1807 -0.9588  0.2957
   76MOL0     H10253   7.164   9.360   4.980  1.4940  1.7625 -1.2601
   76MOL0     H10254   7.392   9.230   4.980 -1.5263  1.7636 -0.8527
   76MOL0     H10255   7.247   9.142   5.046 -2.9471  1.5994  4.6978
   76MOL0     H10256   7.345   9.110   5.247 -1.7301  0.7230 -0.2628
   76MOL0     H10257   7.408   9.269   5.256 -0.2747  0.4663 -1.2032
   76MOL0     H10258   7.745   9.066   5.121  0.7545  0.4744  1.9056
   76MOL0     H10259   6.959   9.061   5.352 -2.5917 -1.2981  0.0524
   76MOL0     H10260   6.775   9.069   5.508  0.4358 -0.1838  0.7664
   77MOL0     O10261   9.799   9.497   6.913  0.1955 -0.1180 -0.1554
   77MOL0     C10262   9.796   9.474   6.795  0.2801 -0.1158 -0.8458
   77MOL0     O10263   9.708   9.515   6.705  0.2330  0.0278  0.2983
   77MOL0     C10264   9.590   9.590   6.734  0.4157  0.8406 -0.6276
   77MOL0     C10265   9.479   9.579   6.653 -0.4603  0.3521  0.6882
   77MOL0     C10266   9.375   9.662   6.664 -0.5398  0.4618 -0.6304
   77MOL0     C10267   9.366   9.750   6.767  0.5005 -0.1301  0.1674
   77MOL0     O10268   9.253   9.831   6.767 -0.8740  0.0888  0.6112
   77MOL0     C10269   9.129   9.778   6.826 -0.4932  0.3929  0.0782
   77MOL0     C10270   9.034   9.889   6.840 -0.0311  0.8491  1.1503
   77MOL0     C10271   8.897   9.842   6.866 -0.4235  0.8428 -0.8576
   77MOL0     C10272   8.806   9.962   6.889 -0.6488  0.3120 -0.5655
   77MOL0     C10273   8.659   9.923   6.886 -0.2822 -0.0787  0.9215
   77MOL0     C10274   8.563  10.047   6.858  0.7272 -0.4939 -0.0627
   77MOL0     C10275   8.421  10.002   6.823 -0.1630 -0.0846  0.0448
   77MOL0     C10276   8.331  10.126   6.800 -0.7971  0.7787  0.0032
   77MOL0     N10277   8.199  10.080   6.755 -0.9186  0.7752  0.0490
   77MOL0     C10278   8.163  10.032   6.632 -0.2932  0.4723 -0.5898
   77MOL0     C10279   8.028  10.013   6.644  0.1064 -0.1776  0.4831
   77MOL0     C10280   7.922   9.956   6.536 -1.0294 -0.6370 -0.3531
   77MOL0     C10281   7.778   9.961   6.587  0.2365  0.0332 -0.8243
   77MOL0     C10282   7.666   9.913   6.492  0.4558  0.1756  1.4604
   77MOL0     C10283   7.530   9.894   6.566  0.2696  0.9486  0.0286
   77MOL0     O10284   7.430   9.861   6.463 -0.6184 -0.3226 -0.0204
   77MOL0     C10285   7.301   9.839   6.497 -0.4320  0.6975 -0.8220
   77MOL0     C10286   7.267   9.806   6.633  0.6048 -0.6273 -0.5863
   77MOL0     C10287   7.132   9.783   6.663 -0.5628 -0.0020  0.1729
   77MOL0     C10288   7.108   9.761   6.812 -0.6936 -0.3459 -0.4810
   77MOL0     C10289   7.034   9.786   6.557  0.2323  0.1764  0.1898
   77MOL0     C10290   6.887   9.773   6.586  0.2204 -0.5367  0.0548
   77MOL0     O10291   6.845   9.777   6.717 -0.4971 -0.4874 -0.3929
   77MOL0     C10292   6.703   9.794   6.733 -0.0124  0.2700  0.4497
   77MOL0     C10293   6.639   9.924   6.726 -0.1873  0.9297 -0.0777
   77MOL0     C10294   6.511   9.944   6.776  0.6574  0.2965  0.4376
   77MOL0     C10295   6.436   9.837   6.822 -0.5908 -0.4951 -0.5820
   77MOL0     O10296   6.305   9.846   6.868 -0.3545  0.5015  0.0874
   77MOL0     C10297   6.245   9.966   6.915  0.5357  0.1581 -0.8408
   77MOL0     C10298   6.262  10.006   7.059 -1.3997  0.0169 -0.4423
   77MOL0     C10299   6.411  10.033   7.103  0.0171 -0.5019  0.0489
   77MOL0     C10300   6.431  10.070   7.251 -0.0245 -0.4211 -0.7122
   77MOL0     C10301   6.569  10.129   7.265 -0.5845  1.1940  0.4903
   77MOL0     C10302   6.672  10.015   7.261 -0.2172  0.0264 -0.0848
   77MOL0     C10303   6.817  10.059   7.298  0.3572  0.4296  0.0927
   77MOL0     C10304   6.916   9.959   7.226  0.3391  0.0581  0.3840
   77MOL0    Cl10305   7.081   9.994   7.283  0.6388  0.5450  0.1075
   77MOL0     C10306   6.490   9.709   6.815 -0.1992 -0.0598 -0.7618
   77MOL0     C10307   6.621   9.688   6.768  0.2455 -0.7592  0.4671
   77MOL0     O10308   6.815   9.769   6.487 -0.3652  1.0259  0.0111
   77MOL0     C10309   7.074   9.813   6.421  0.0800  0.1800 -0.2160
   77MOL0     C10310   7.204   9.840   6.401 -0.6263  0.1068 -0.0915
   77MOL0     N10311   7.989  10.047   6.772 -0.1448  0.2073 -0.4761
   77MOL0     N10312   8.093  10.091   6.838 -0.6995  0.2445  1.0647
   77MOL0     C10313   9.474   9.773   6.859 -0.1198 -0.1271 -0.1489
   77MOL0     C10314   9.587   9.690   6.835 -0.4309  0.2267  0.5364
   77MOL0     C10315   9.918   9.406   6.736  0.3852 -0.4841  1.1143
   77MOL0     C10316   9.946   9.388   6.595  0.5077 -0.0793  0.2878
   77MOL0     C10317  10.059   9.329   6.547 -0.6903 -0.1823  0.0463
   77MOL0     C10318  10.154   9.277   6.638  0.6957  0.1530 -0.1334
   77MOL0     O10319  10.258   9.205   6.605  0.1679 -0.4084 -0.0981
   77MOL0     C10320  10.316   9.242   6.478  1.2600 -0.0921 -0.3944
   77MOL0     C10321  10.457   9.205   6.471  0.4606  0.2288  0.3006
   77MOL0     C10322  10.555   9.295   6.554  0.1238 -0.0669 -0.0044
   77MOL0     C10323  10.554   9.252   6.704  0.5255 -0.4016 -0.3880
   77MOL0     C10324  10.685   9.189   6.743  0.3950 -0.5850  0.3793
   77MOL0     C10325  10.792   9.149   6.779 -0.2207  0.5021 -0.5451
   77MOL0     C10326  10.133   9.287   6.780 -0.6843  0.3655  0.6338
   77MOL0     C10327  10.017   9.350   6.826  0.2789 -0.4031 -0.4187
   77MOL0     H10328   9.493   9.504   6.576 -1.7262 -1.3344  2.0291
   77MOL0     H10329   9.290   9.660   6.596  0.4572 -0.7288 -1.8938
   77MOL0     H10330   9.100   9.707   6.748 -0.2093 -0.1316  0.4483
   77MOL0     H10331   9.131   9.732   6.925 -4.1777  0.5264  0.3539
   77MOL0     H10332   9.066   9.957   6.920 -2.2174  0.9964  1.9597
   77MOL0     H10333   9.023   9.942   6.744 -0.3933  4.2420  2.8878
   77MOL0     H10334   8.861   9.792   6.775  1.4473 -1.1479 -0.5901
   77MOL0     H10335   8.898   9.786   6.959  1.3410  0.8229 -0.8490
   77MOL0     H10336   8.825  10.026   6.977  0.1811  0.2836 -0.7133
   77MOL0     H10337   8.825  10.034   6.809 -0.2320  1.5372  0.5833
   77MOL0     H10338   8.645   9.856   6.801  0.5857  0.3406  0.4437
   77MOL0     H10339   8.633   9.865   6.976 -0.3249 -4.8101 -1.8059
   77MOL0     H10340   8.552  10.114   6.944  0.0446 -1.7969  0.9117
   77MOL0     H10341   8.597  10.097   6.767  1.3934 -0.5839  0.1279
   77MOL0     H10342   8.421   9.941   6.732 -0.4101  0.3993 -0.2828
   77MOL0     H10343   8.382   9.941   6.905 -0.7721 -0.0961 -0.2466
   77MOL0     H10344   8.375  10.188   6.721  1.0027 -1.4397 -0.8373
   77MOL0     H10345   8.332  10.187   6.891 -0.2823  0.3440  0.2946
   77MOL0     H10346   8.229  10.017   6.546 -2.2638  2.8022 -2.6763
   77MOL0     H10347   7.931  10.015   6.444 -0.4174 -2.1420 -1.2999
   77MOL0     H10348   7.940   9.851   6.510 -0.4971 -0.6929  0.2197
   77MOL0     H10349   7.751  10.059   6.627  0.5100 -1.0431  2.2535
   77MOL0     H10350   7.763   9.895   6.673  0.5150  2.0752  0.8838
   77MOL0     H10351   7.692   9.820   6.442 -0.6515  1.4312 -1.6471
   77MOL0     H10352   7.651   9.991   6.417  2.2041 -0.1647  0.7013
   77MOL0     H10353   7.490   9.982   6.617 -1.0044  0.4009  0.0178
   77MOL0     H10354   7.536   9.816   6.642 -0.2197  1.7951  0.9564
   77MOL0     H10355   7.339   9.796   6.713  0.9413 -0.7644 -0.9031
   77MOL0     H10356   7.049   9.669   6.820 -0.3285 -0.5521 -0.0598
   77MOL0     H10357   7.193   9.728   6.873 -1.1453 -1.8748 -0.6306
   77MOL0     H10358   7.057   9.845   6.859  0.5319  1.5912 -2.4119
   77MOL0     H10359   6.709  10.000   6.692  1.8377 -1.3265 -1.2575
   77MOL0     H10360   6.474  10.045   6.791  0.0128  0.6064 -2.6511
   77MOL0     H10361   6.264  10.045   6.842 -2.8987  2.6523  0.6900
   77MOL0     H10362   6.138   9.947   6.904  0.6558 -3.4689  2.2621
   77MOL0     H10363   6.209  10.097   7.087  2.3178  1.9311  1.1670
   77MOL0     H10364   6.233   9.919   7.118 -1.0276  0.4901  0.4565
   77MOL0     H10365   6.454  10.110   7.038  3.2155 -2.0346  0.1562
   77MOL0     H10366   6.463   9.941   7.077  0.5016 -0.7869  1.8991
   77MOL0     H10367   6.357  10.146   7.279  0.5140  0.0433 -0.5227
   77MOL0     H10368   6.419   9.982   7.314 -2.0076  1.3617  1.6350
   77MOL0     H10369   6.596  10.170   7.363 -0.4110  0.7331  0.6345
   77MOL0     H10370   6.593  10.201   7.186 -1.2411  0.3989 -0.4496
   77MOL0     H10371   6.642   9.926   7.317 -1.3071 -0.1100 -0.8569
   77MOL0     H10372   6.680   9.984   7.157  2.5438  1.8676 -0.5333
   77MOL0     H10373   6.823  10.059   7.408  0.3082 -0.5812  0.1054
   77MOL0     H10374   6.838  10.163   7.272  2.5514  0.5225  1.8914
   77MOL0     H10375   6.911   9.973   7.117 -1.0610 -0.7821  0.3158
   77MOL0     H10376   6.886   9.856   7.249  2.6561 -0.8417 -0.3634
   77MOL0     H10377   6.424   9.630   6.849  0.3989 -0.2429  0.0331
   77MOL0     H10378   6.662   9.589   6.783  2.1395 -0.1496 -0.3762
   77MOL0     H10379   7.008   9.835   6.337  1.5796 -0.1419 -1.5231
   77MOL0     H10380   7.241   9.867   6.302 -0.1943  0.9798  0.2968
   77MOL0     H10381   9.466   9.855   6.929 -0.3110  2.5258 -3.0487
   77MOL0     H10382   9.678   9.697   6.894  1.3733 -3.3571 -1.4753
   77MOL0     H10383   9.873   9.425   6.524  1.1517  0.9096  0.1128
   77MOL0     H10384  10.069   9.293   6.445 -0.4177  1.0643 -0.3811
   77MOL0     H10385  10.266   9.190   6.396 -1.3196 -1.5864  1.9551
   77MOL0     H10386  10.309   9.347   6.448 -0.1673 -0.3947 -1.2400
   77MOL0     H10387  10.498   9.206   6.370 -0.8444  3.6170 -0.3226
   77MOL0     H10388  10.466   9.098   6.494 -1.4847 -0.5536 -2.1126
   77MOL0     H10389  10.539   9.403   6.545  1.1562 -0.0649 -3.3740
   77MOL0     H10390  10.653   9.274   6.511  0.3085 -0.5471  0.6443
   77MOL0     H10391  10.491   9.166   6.729  1.7440 -1.7462 -1.7584
   77MOL0     H10392  10.544   9.346   6.758  1.6380  0.0500 -0.9407
   77MOL0     H10393  10.889   9.116   6.810 -0.7504 -2.2077 -1.5539
   77MOL0     H10394  10.211   9.247   6.844 -1.9256 -0.1490  1.8745
   77MOL0     H10395   9.987   9.350   6.930 -2.4216  0.8633 -1.1211
   78MOL0     O10396  10.979   8.743   2.412  0.3652  0.9012 -0.4535
   78MOL0     C10397  11.049   8.804   2.498 -0.0843 -0.2361  0.3560
   78MOL0     O10398  10.996   8.887   2.588  0.4385  0.7896 -0.2937
   78MOL0     C10399  10.866   8.920   2.569  0.0984 -0.0443  1.1502
   78MOL0     C10400  10.832   9.036   2.493  0.1657 -0.2069 -0.5514
   78MOL0     C10401  10.698   9.072   2.478 -0.1981 -0.1565  0.2693
   78MOL0     C10402  10.592   9.002   2.536  0.8912 -0.1582 -0.7548
   78MOL0     O10403  10.471   9.064   2.515  0.2426 -0.0829 -0.2807
   78MOL0     C10404  10.358   8.996   2.578  0.7942 -0.2738  0.5093
   78MOL0     C10405  10.242   9.087   2.549  0.4168  0.6230  0.4565
   78MOL0     C10406  10.104   9.044   2.586 -0.4591  0.5669  0.1275
   78MOL0     C10407  10.007   9.149   2.539  0.2783  1.2168  0.6823
   78MOL0     C10408   9.868   9.136   2.606  0.5456 -0.6132  0.2104
   78MOL0     C10409   9.784   9.020   2.547 -0.7790 -0.2285 -0.4070
   78MOL0     C10410   9.641   9.031   2.584  0.2939 -0.5055 -0.2473
   78MOL0     C10411   9.555   8.925   2.514 -0.7597 -0.3184 -0.4723
   78MOL0     N10412   9.416   8.914   2.552 -0.0090  0.2909 -0.0236
   78MOL0     C10413   9.360   8.805   2.612 -0.1437 -0.4594 -0.2387
   78MOL0     C10414   9.237   8.846   2.643  0.3635 -0.3349  0.5263
   78MOL0     C10415   9.147   8.777   2.745 -0.2070 -0.4687  0.4757
   78MOL0     C10416   9.015   8.745   2.678  0.3835 -0.8069  0.0908
   78MOL0     C10417   8.912   8.699   2.774  0.3137 -0.1258 -0.4791
   78MOL0     C10418   8.779   8.631   2.727  0.1277 -0.0460 -0.2931
   78MOL0     O10419   8.687   8.624   2.836 -0.1383  0.0811 -0.2903
   78MOL0     C10420   8.557   8.593   2.821 -0.1077 -0.0247  0.4389
   78MOL0     C10421   8.497   8.596   2.699  0.2290  0.4869  0.3099
   78MOL0     C10422   8.356   8.573   2.687 -1.2594  0.1538  1.5590
   78MOL0     C10423   8.303   8.564   2.547  0.2683  0.3041 -0.0032
   78MOL0     C10424   8.282   8.547   2.803  0.1214 -0.3388 -0.4249
   78MOL0     C10425   8.137   8.557   2.808 -0.0762  0.5261  0.2842
   78MOL0     O10426   8.083   8.541   2.941  0.3016  0.1493  0.3404
   78MOL0     C10427   7.964   8.604   2.956  0.4663 -0.0062 -0.0700
   78MOL0     C10428   7.853   8.531   3.007  0.4546  0.0793 -0.3473
   78MOL0     C10429   7.728   8.589   3.011 -0.3086 -0.9462 -0.4225
   78MOL0     C10430   7.702   8.712   2.959  0.1593  0.3516 -0.8291
   78MOL0     O10431   7.586   8.779   2.955  0.8649 -0.2629  0.6013
   78MOL0     C10432   7.489   8.762   3.055 -1.0062  0.2379  0.2318
   78MOL0     C10433   7.352   8.810   3.023 -0.0250 -0.4751 -0.1437
   78MOL0     C10434   7.243   8.756   3.116 -0.8180  0.1675 -0.1363
   78MOL0     C10435   7.113   8.799   3.071  1.1565  0.2203 -0.3680
   78MOL0     C10436   7.006   8.734   3.163 -0.8561 -0.2078  0.1199
   78MOL0     C10437   6.872   8.757   3.099  0.7071  0.4872  0.3010
   78MOL0     C10438   6.824   8.905   3.072 -0.6830  0.5418 -0.2095
   78MOL0     C10439   6.675   8.912   3.049  0.5587 -0.3206  0.3267
   78MOL0    Cl10440   6.635   9.079   2.981  0.1492  0.1329  0.1423
   78MOL0     C10441   7.815   8.794   2.928 -0.5127 -0.6150 -0.2368
   78MOL0     C10442   7.942   8.737   2.927  0.6955  0.7942  0.4863
   78MOL0     O10443   8.076   8.576   2.708 -0.0781  0.2537  0.4592
   78MOL0     C10444   8.350   8.552   2.926  0.6787 -0.9790 -0.0097
   78MOL0     C10445   8.487   8.579   2.938  0.2534  1.4668 -0.2896
   78MOL0     N10446   9.219   8.981   2.608 -0.0182 -0.8540  0.4938
   78MOL0     N10447   9.327   9.022   2.552 -0.0015 -0.2490  0.0381
   78MOL0     C10448  10.625   8.890   2.611  0.2720 -0.4116  1.0515
   78MOL0     C10449  10.758   8.847   2.618 -0.1587 -0.2941 -0.7196
   78MOL0     C10450  11.188   8.785   2.516 -0.2477 -0.9506  0.5373
   78MOL0     C10451  11.262   8.806   2.634  0.1861  0.0793 -0.7240
   78MOL0     C10452  11.396   8.802   2.623 -0.3473  0.7235  0.5428
   78MOL0     C10453  11.474   8.768   2.508 -0.1916 -0.3611 -0.5226
   78MOL0     O10454  11.611   8.763   2.517  0.2910 -0.3852  0.5409
   78MOL0     C10455  11.679   8.858   2.442  0.5860  0.2089  0.1812
   78MOL0     C10456  11.834   8.846   2.461 -0.2526  0.3015  0.7566
   78MOL0     C10457  11.906   8.959   2.405  0.7903 -0.2989 -0.1211
   78MOL0     C10458  12.059   8.968   2.435  0.1495 -0.1856 -1.0751
   78MOL0     C10459  12.142   9.057   2.354  0.2191  0.1137 -0.0153
   78MOL0     C10460  12.207   9.146   2.300  0.9406  0.4675 -0.2682
   78MOL0     C10461  11.397   8.745   2.392 -0.2737  0.8652 -0.0753
   78MOL0     C10462  11.262   8.750   2.401  0.1515  0.1142 -0.3975
   78MOL0     H10463  10.909   9.109   2.470  3.7204 -3.2614  0.5154
   78MOL0     H10464  10.681   9.168   2.430 -2.0367 -1.1586 -1.2048
   78MOL0     H10465  10.329   8.903   2.527 -1.1843  1.7210 -2.3577
   78MOL0     H10466  10.375   8.981   2.685  0.2992  0.6979  0.7366
   78MOL0     H10467  10.263   9.187   2.589 -2.9831  2.7815 -2.5375
   78MOL0     H10468  10.232   9.111   2.443 -3.4731  0.0143  0.5363
   78MOL0     H10469  10.093   8.941   2.550  3.6799  0.9365 -2.9515
   78MOL0     H10470  10.097   9.051   2.695 -0.5925  0.8928  0.0980
   78MOL0     H10471  10.041   9.250   2.567  2.1595  0.7050  0.4280
   78MOL0     H10472  10.003   9.131   2.431  0.5043  0.9954  0.7100
   78MOL0     H10473   9.872   9.126   2.714  0.0764 -0.1963  0.2698
   78MOL0     H10474   9.814   9.227   2.578 -1.9867 -2.5450 -1.6295
   78MOL0     H10475   9.793   9.020   2.438 -2.5487 -1.1776 -0.5853
   78MOL0     H10476   9.826   8.927   2.586 -1.4682  0.3745  1.9716
   78MOL0     H10477   9.635   9.028   2.693  1.8302  2.1342 -0.0182
   78MOL0     H10478   9.600   9.126   2.550  1.9286  1.4543  2.8075
   78MOL0     H10479   9.604   8.832   2.541 -1.5832  0.0983  2.9635
   78MOL0     H10480   9.564   8.946   2.406  1.0750 -1.2939 -0.5488
   78MOL0     H10481   9.416   8.717   2.643  1.2556 -0.0343 -1.4416
   78MOL0     H10482   9.200   8.690   2.787  1.1684  0.4371  0.6986
   78MOL0     H10483   9.123   8.849   2.823 -1.7729  2.8647 -2.7961
   78MOL0     H10484   9.038   8.668   2.603 -0.2953 -1.5465  0.6277
   78MOL0     H10485   8.979   8.836   2.630  3.5873  1.1624  1.1205
   78MOL0     H10486   8.881   8.778   2.843 -0.7933 -2.4375  1.8300
   78MOL0     H10487   8.957   8.622   2.838 -1.6862  0.7026  2.0892
   78MOL0     H10488   8.805   8.534   2.683 -0.3839  0.7063 -2.3398
   78MOL0     H10489   8.730   8.692   2.651  1.2619  0.3372 -0.7379
   78MOL0     H10490   8.549   8.619   2.606 -0.3106  0.5696  0.0253
   78MOL0     H10491   8.255   8.467   2.536  0.9566 -0.3002  2.0408
   78MOL0     H10492   8.222   8.636   2.531  1.6858  1.4918 -2.5874
   78MOL0     H10493   8.373   8.578   2.464 -0.4976 -1.8495 -1.0898
   78MOL0     H10494   7.865   8.429   3.041  0.4074  0.0569 -0.3978
   78MOL0     H10495   7.654   8.530   3.064 -0.8063  0.9379  1.0988
   78MOL0     H10496   7.495   8.655   3.078  0.5485  0.6429  2.0207
   78MOL0     H10497   7.531   8.820   3.138  0.3645  5.2681 -3.4650
   78MOL0     H10498   7.349   8.919   3.021 -2.2908 -0.4903  0.0125
   78MOL0     H10499   7.342   8.777   2.919  2.9479  2.2853 -1.4770
   78MOL0     H10500   7.256   8.776   3.222 -0.7592  1.3588 -0.3549
   78MOL0     H10501   7.242   8.646   3.108 -1.2540 -0.1307  2.9930
   78MOL0     H10502   7.114   8.909   3.072  2.1797  0.2301 -0.8202
   78MOL0     H10503   7.112   8.762   2.968  0.0773  1.2545 -0.7598
   78MOL0     H10504   6.999   8.788   3.258 -0.0259  0.7664 -0.3507
   78MOL0     H10505   7.022   8.628   3.185 -2.5176 -0.5952 -0.3778
   78MOL0     H10506   6.873   8.692   3.010  0.4914 -0.9039  1.2773
   78MOL0     H10507   6.807   8.723   3.180 -0.1957  1.9815  0.2350
   78MOL0     H10508   6.873   8.953   2.987 -0.1374 -0.2820 -0.3701
   78MOL0     H10509   6.855   8.968   3.156  1.0681 -1.3919  0.6890
   78MOL0     H10510   6.619   8.881   3.138 -1.4615 -2.5551 -1.5622
   78MOL0     H10511   6.647   8.839   2.972  1.4109  0.3204 -0.6175
   78MOL0     H10512   7.802   8.900   2.913  0.2827 -0.7254 -1.8919
   78MOL0     H10513   8.026   8.802   2.903  0.4054  0.8740 -0.3601
   78MOL0     H10514   8.316   8.532   3.027  1.1595 -0.2623  0.2970
   78MOL0     H10515   8.537   8.596   3.032 -1.7003 -1.1874  1.3797
   78MOL0     H10516  10.553   8.829   2.665 -0.3250 -0.5186  0.1574
   78MOL0     H10517  10.773   8.773   2.696 -1.5838  2.5343  2.4853
   78MOL0     H10518  11.223   8.828   2.732  1.2956  0.9427 -0.4528
   78MOL0     H10519  11.457   8.824   2.710  1.1482  1.1815 -0.5777
   78MOL0     H10520  11.655   8.851   2.336 -0.9534 -2.6657  0.6110
   78MOL0     H10521  11.647   8.959   2.468 -0.6561 -0.1780  0.2092
   78MOL0     H10522  11.863   8.749   2.419 -0.3486 -0.9447  3.3667
   78MOL0     H10523  11.851   8.844   2.569  1.9073  1.6840  0.5007
   78MOL0     H10524  11.860   9.052   2.440  0.8104 -0.5777  0.6832
   78MOL0     H10525  11.891   8.956   2.297  1.7099  1.2247 -0.3291
   78MOL0     H10526  12.094   8.864   2.428 -1.4937 -0.8809  0.1884
   78MOL0     H10527  12.061   9.004   2.538  4.0471  3.5580 -2.1780
   78MOL0     H10528  12.266   9.231   2.272  2.0757  0.0138  0.6898
   78MOL0     H10529  11.453   8.712   2.305  2.1709  0.7210  1.4642
   78MOL0     H10530  11.224   8.736   2.301  1.5337  2.7274 -1.3672
   79MOL0     O10531   9.250   4.599  10.975 -0.3642 -0.9588  0.0520
   79MOL0     C10532   9.288   4.485  11.012  0.3592  0.1376  0.5475
   79MOL0     O10533   9.216   4.389  11.073  0.2318 -0.5695 -0.1855
   79MOL0     C10534   9.083   4.420  11.104 -0.4454  0.4048 -0.6752
   79MOL0     C10535   9.053   4.407  11.239 -0.8138 -0.1066  0.0832
   79MOL0     C10536   8.917   4.425  11.284 -0.0072  0.3261 -0.0714
   79MOL0     C10537   8.809   4.452  11.192 -0.0172 -0.7598  0.1989
   79MOL0     O10538   8.684   4.473  11.251 -0.3713 -0.2506 -0.0126
   79MOL0     C10539   8.571   4.466  11.168  0.0400  0.3329  0.2801
   79MOL0     C10540   8.558   4.318  11.135 -0.5298 -0.3754  0.5334
   79MOL0     C10541   8.437   4.295  11.033 -0.3452  0.0339  0.0497
   79MOL0     C10542   8.393   4.146  11.016  0.1283  0.4893  0.2611
   79MOL0     C10543   8.272   4.131  10.923  0.3541  0.9628  0.2306
   79MOL0     C10544   8.148   4.183  10.987 -0.4807  0.8835 -0.5210
   79MOL0     C10545   8.015   4.173  10.904  0.7230 -1.0375 -0.4076
   79MOL0     C10546   7.898   4.232  10.984  0.3888 -0.1979 -0.2996
   79MOL0     N10547   7.772   4.203  10.925  0.0773  0.2138 -0.4191
   79MOL0     C10548   7.737   4.199  10.794 -0.2693  0.5384  0.2370
   79MOL0     C10549   7.606   4.159  10.791  0.2851  0.6997  0.0929
   79MOL0     C10550   7.523   4.144  10.668  0.1857 -0.4811  0.9332
   79MOL0     C10551   7.575   4.041  10.563  0.4480 -0.1821 -0.5141
   79MOL0     C10552   7.551   3.894  10.604 -0.4204 -0.3506  0.4671
   79MOL0     C10553   7.409   3.850  10.617 -0.1595 -0.4459 -0.8213
   79MOL0     O10554   7.429   3.715  10.648  0.0586  0.6127  0.4359
   79MOL0     C10555   7.328   3.630  10.603 -0.0509  0.6934 -0.1270
   79MOL0     C10556   7.199   3.626  10.670 -0.0157  0.4477  0.0735
   79MOL0     C10557   7.090   3.553  10.628 -0.2103  0.0395  1.2085
   79MOL0     C10558   6.961   3.563  10.698  0.3686  0.3125 -0.0122
   79MOL0     C10559   7.116   3.466  10.509  0.2186 -0.2342 -0.3990
   79MOL0     C10560   7.015   3.385  10.450 -0.7420 -1.0497  0.3355
   79MOL0     O10561   6.906   3.453  10.390 -0.2433  0.3265 -1.1080
   79MOL0     C10562   6.787   3.382  10.368 -0.2372 -0.1246  0.7364
   79MOL0     C10563   6.717   3.344  10.487 -0.1589 -0.3018  0.2583
   79MOL0     C10564   6.572   3.313  10.476 -0.7063 -0.1935 -0.7422
   79MOL0     C10565   6.502   3.318  10.353  0.5946 -0.2264  0.0056
   79MOL0     O10566   6.368   3.297  10.337 -0.6021  0.5878 -0.4404
   79MOL0     C10567   6.293   3.416  10.381 -0.7168 -0.6171  0.4110
   79MOL0     C10568   6.145   3.379  10.399  0.4409  0.1064 -0.2165
   79MOL0     C10569   6.126   3.285  10.519 -0.2761  0.6203 -0.7498
   79MOL0     C10570   5.980   3.252  10.562  0.8248 -0.2567 -0.1653
   79MOL0     C10571   5.899   3.159  10.466  0.0146  0.0400 -0.2364
   79MOL0     C10572   5.763   3.131  10.526 -0.1467 -0.9781  0.6103
   79MOL0     C10573   5.667   3.062  10.425 -0.2273  0.3930  0.1669
   79MOL0     C10574   5.527   3.057  10.476 -0.1175  0.1700  0.0493
   79MOL0    Cl10575   5.504   2.928  10.598 -0.1370  0.1018  0.1964
   79MOL0     C10576   6.579   3.367  10.250  0.1334 -0.4063  0.3871
   79MOL0     C10577   6.714   3.410  10.254  0.3582  0.3019 -0.3985
   79MOL0     O10578   7.033   3.263  10.450 -0.1979 -0.3109 -0.3010
   79MOL0     C10579   7.246   3.467  10.447 -0.3676 -0.2333 -0.5200
   79MOL0     C10580   7.356   3.546  10.498  0.6459  0.2163 -0.0665
   79MOL0     N10581   7.572   4.128  10.924  0.3066  0.0956  0.0719
   79MOL0     N10582   7.670   4.162  10.999  0.4217 -0.6025 -0.2255
   79MOL0     C10583   8.850   4.453  11.055  0.1920 -0.2151 -0.4859
   79MOL0     C10584   8.981   4.435  11.013 -0.5982 -0.0625 -0.1424
   79MOL0     C10585   9.429   4.449  10.994 -0.5168  0.0424 -0.4927
   79MOL0     C10586   9.476   4.330  11.047 -0.4253 -0.7966 -0.2247
   79MOL0     C10587   9.615   4.295  11.039 -0.0862  0.0386 -0.1093
   79MOL0     C10588   9.703   4.366  10.955 -0.0282  0.9577  1.1091
   79MOL0     O10589   9.824   4.312  10.919  0.3829 -0.7698  0.2757
   79MOL0     C10590   9.926   4.340  11.017 -0.4279 -0.4458 -0.6128
   79MOL0     C10591   9.918   4.240  11.136 -0.9351  0.2550 -0.6894
   79MOL0     C10592  10.043   4.267  11.220  0.3197 -0.2609 -0.0794
   79MOL0     C10593  10.182   4.203  11.192 -0.8408  0.3897  0.2105
   79MOL0     C10594  10.172   4.057  11.214 -0.1791 -0.2929 -0.4223
   79MOL0     C10595  10.153   3.936  11.231  0.6664 -0.5203 -0.5177
   79MOL0     C10596   9.645   4.478  10.893 -0.3519  0.1942  0.2420
   79MOL0     C10597   9.514   4.522  10.916 -0.4769  0.8353  0.0312
   79MOL0     H10598   9.147   4.406  11.294  0.5305  2.2836 -1.9470
   79MOL0     H10599   8.907   4.405  11.390 -0.5299 -2.2496 -0.5306
   79MOL0     H10600   8.487   4.504  11.227 -2.2679 -0.7740 -2.1039
   79MOL0     H10601   8.584   4.522  11.075  2.1967  0.5545  0.6583
   79MOL0     H10602   8.650   4.292  11.082  0.0057  1.8054  0.2789
   79MOL0     H10603   8.554   4.250  11.220 -2.6308 -2.1884 -0.9164
   79MOL0     H10604   8.358   4.348  11.087 -0.1255 -0.4863  0.8960
   79MOL0     H10605   8.453   4.333  10.931  2.3999  1.1671  0.8169
   79MOL0     H10606   8.474   4.083  10.977  0.7307  0.4156  1.5586
   79MOL0     H10607   8.369   4.110  11.116 -0.4194  4.8611  1.9270
   79MOL0     H10608   8.286   4.186  10.830 -1.1877  1.7927  0.4483
   79MOL0     H10609   8.256   4.025  10.905  3.3287  0.3691  0.6069
   79MOL0     H10610   8.130   4.135  11.084 -0.7965  0.3798 -0.8219
   79MOL0     H10611   8.166   4.287  11.015 -1.9299  0.3432  2.9471
   79MOL0     H10612   8.033   4.218  10.806 -1.6580  1.3391  0.1323
   79MOL0     H10613   7.992   4.069  10.878 -0.1511 -1.1157  0.6158
   79MOL0     H10614   7.896   4.341  10.997 -2.2746 -0.0647 -1.3305
   79MOL0     H10615   7.905   4.186  11.083  5.2366  2.1319  0.7627
   79MOL0     H10616   7.796   4.231  10.709 -0.3092 -2.1147 -0.8883
   79MOL0     H10617   7.426   4.109  10.706  0.4506 -0.3823  1.7184
   79MOL0     H10618   7.500   4.243  10.628  3.8148  0.0521 -0.1090
   79MOL0     H10619   7.682   4.060  10.557  0.6215 -0.8786  0.2083
   79MOL0     H10620   7.531   4.063  10.465  0.7723  0.8139 -0.4506
   79MOL0     H10621   7.594   3.881  10.703  0.6167  0.3519  0.1332
   79MOL0     H10622   7.610   3.829  10.538  0.3050 -0.8929  1.6277
   79MOL0     H10623   7.353   3.861  10.523  2.4996  2.4918 -2.2249
   79MOL0     H10624   7.349   3.900  10.694  0.3144  1.6318 -1.7344
   79MOL0     H10625   7.186   3.696  10.751 -1.1221  1.3588 -0.8655
   79MOL0     H10626   6.876   3.583  10.632  0.4372 -4.2916 -1.8482
   79MOL0     H10627   6.937   3.474  10.756  0.0557  0.9843  0.9114
   79MOL0     H10628   6.964   3.635  10.781  0.6689  1.7298 -1.2066
   79MOL0     H10629   6.765   3.340  10.585 -1.8524 -0.6422  1.1262
   79MOL0     H10630   6.532   3.294  10.575  2.5119  0.5695  0.8243
   79MOL0     H10631   6.331   3.457  10.475 -1.3519  3.1271 -0.8089
   79MOL0     H10632   6.296   3.504  10.317  2.7429  0.7215  2.1923
   79MOL0     H10633   6.084   3.464  10.431 -0.9303 -1.7566  2.4516
   79MOL0     H10634   6.103   3.330  10.310  0.8999 -0.6905 -0.0038
   79MOL0     H10635   6.179   3.329  10.604  0.2829  1.1822 -1.3821
   79MOL0     H10636   6.190   3.197  10.502  0.9978  1.1687  0.9317
   79MOL0     H10637   5.985   3.203  10.660 -0.1112 -1.1362 -0.5432
   79MOL0     H10638   5.924   3.346  10.574  3.9810  1.4934  2.6585
   79MOL0     H10639   5.957   3.067  10.462  0.1625 -0.3132  4.7279
   79MOL0     H10640   5.894   3.208  10.368 -0.5243 -1.3683 -0.9333
   79MOL0     H10641   5.765   3.072  10.619 -1.6099 -1.3194  0.4566
   79MOL0     H10642   5.708   3.223  10.549 -1.9106 -2.2284  1.6990
   79MOL0     H10643   5.702   2.959  10.421 -2.0905 -0.4069  2.2367
   79MOL0     H10644   5.668   3.094  10.321  0.6907 -1.9895 -0.5996
   79MOL0     H10645   5.456   3.047  10.393  1.2429 -0.5509 -1.0731
   79MOL0     H10646   5.515   3.159  10.513 -2.0986  0.1919 -0.5121
   79MOL0     H10647   6.528   3.394  10.158  0.5088  0.7596  0.5049
   79MOL0     H10648   6.758   3.478  10.182 -0.9983  2.3596  0.6323
   79MOL0     H10649   7.251   3.417  10.351 -1.2257  0.4520 -0.9402
   79MOL0     H10650   7.454   3.560  10.455 -0.1905 -0.5370 -2.3758
   79MOL0     H10651   8.776   4.487  10.984 -0.3361  1.1284  0.6496
   79MOL0     H10652   9.005   4.444  10.907 -2.9737  3.6423 -0.5393
   79MOL0     H10653   9.417   4.275  11.120  0.0615 -0.3256  0.5407
   79MOL0     H10654   9.641   4.203  11.091 -0.8985  0.3378  0.8660
   79MOL0     H10655  10.017   4.340  10.956  0.8706 -1.6453  1.2489
   79MOL0     H10656   9.921   4.443  11.052  0.4607  0.4869 -3.0304
   79MOL0     H10657   9.917   4.139  11.096  4.5807 -0.7692  0.8663
   79MOL0     H10658   9.829   4.251  11.198 -0.4083  2.4117 -0.2232
   79MOL0     H10659  10.012   4.238  11.321 -1.6428 -0.2362 -0.6387
   79MOL0     H10660  10.061   4.374  11.237  2.2908 -0.5863  0.1741
   79MOL0     H10661  10.261   4.233  11.262  0.3216 -1.6841 -0.1328
   79MOL0     H10662  10.215   4.220  11.089 -1.1752  2.2272  0.3693
   79MOL0     H10663  10.129   3.831  11.232  5.0586 -1.8332  3.5063
   79MOL0     H10664   9.706   4.535  10.823  2.0315 -0.2091  1.8543
   79MOL0     H10665   9.482   4.617  10.875 -0.1764  0.6455 -0.6496
   80MOL0     O10666   2.172   3.214   7.164  0.3718  0.1482 -0.4113
   80MOL0     C10667   2.227   3.290   7.252  0.6012  0.1090  0.0860
   80MOL0     O10668   2.166   3.345   7.354  0.1985  0.0265  0.4127
   80MOL0     C10669   2.041   3.301   7.384 -0.7558  0.4925  0.5844
   80MOL0     C10670   2.019   3.174   7.430 -0.2241  0.1023 -0.1701
   80MOL0     C10671   1.900   3.135   7.489 -0.2802 -0.4922  0.4418
   80MOL0     C10672   1.797   3.237   7.512 -0.8835  0.1284  0.3947
   80MOL0     O10673   1.671   3.217   7.561  0.2031  0.5145 -0.4470
   80MOL0     C10674   1.653   3.099   7.642 -0.8410 -0.0869 -0.7117
   80MOL0     C10675   1.517   3.092   7.704 -0.3351 -0.0741 -0.2771
   80MOL0     C10676   1.415   3.043   7.612 -0.2645 -0.1327 -0.1235
   80MOL0     C10677   1.275   3.037   7.675 -1.1696 -0.0746  0.2818
   80MOL0     C10678   1.165   2.999   7.571 -0.0949 -0.0118 -0.0618
   80MOL0     C10679   1.023   2.997   7.639  0.2660 -0.5218  0.2555
   80MOL0     C10680   0.905   2.991   7.536  0.4300  0.7259  0.0273
   80MOL0     C10681   0.765   2.970   7.602 -0.0916 -0.4763  0.2647
   80MOL0     N10682   0.747   2.837   7.655 -0.6404  0.7406 -0.8243
   80MOL0     C10683   0.703   2.731   7.582 -0.4568  0.1446  0.2804
   80MOL0     C10684   0.695   2.629   7.675  0.2579  0.0645 -0.5839
   80MOL0     C10685   0.641   2.495   7.651 -0.2380 -0.2843  0.0769
   80MOL0     C10686   0.498   2.497   7.599 -0.5012 -0.8963  0.5010
   80MOL0     C10687   0.404   2.553   7.702 -0.3899 -0.4038  0.2417
   80MOL0     C10688   0.270   2.573   7.638 -0.6980  0.6697 -0.2861
   80MOL0     O10689   0.176   2.628   7.732 -0.9880  0.1681 -0.2393
   80MOL0     C10690   0.047   2.623   7.704  0.0629  0.4004  0.4008
   80MOL0     C10691  -0.015   2.645   7.576 -0.2868  0.1596  0.6030
   80MOL0     C10692  -0.161   2.648   7.561  0.0339 -0.1413  0.2257
   80MOL0     C10693  -0.207   2.660   7.414  0.0121 -0.3717  1.0098
   80MOL0     C10694  -0.243   2.639   7.673  0.3856 -0.6075 -1.1893
   80MOL0     C10695  -0.385   2.670   7.663  0.3302  0.6108  0.1933
   80MOL0     O10696  -0.464   2.600   7.747 -0.0334 -0.6946  0.2045
   80MOL0     C10697  -0.604   2.613   7.743  0.1590 -0.0634 -0.1010
   80MOL0     C10698  -0.680   2.602   7.619 -1.2464 -0.2774  0.3782
   80MOL0     C10699  -0.824   2.614   7.621 -0.6609 -0.0067  0.5392
   80MOL0     C10700  -0.889   2.635   7.729 -0.2795  0.5292 -0.0797
   80MOL0     O10701  -1.026   2.633   7.722 -0.4198 -0.2095 -0.5662
   80MOL0     C10702  -1.101   2.602   7.841  0.2112  0.0575  0.0008
   80MOL0     C10703  -1.184   2.728   7.892  0.5542 -0.0117  0.3956
   80MOL0     C10704  -1.086   2.841   7.934  0.4912  0.6785 -0.3582
   80MOL0     C10705  -1.164   2.969   7.968  0.4657 -0.7648 -0.0537
   80MOL0     C10706  -1.073   3.083   7.994  1.2334  1.2993  0.6247
   80MOL0     C10707  -1.147   3.213   8.009 -0.5888 -0.0896 -0.7154
   80MOL0     C10708  -1.239   3.258   7.897  0.0156  0.0524  0.3949
   80MOL0     C10709  -1.158   3.283   7.767  0.4874 -0.1967 -0.9701
   80MOL0    Cl10710  -1.234   3.397   7.661  0.0587  0.0051 -0.4260
   80MOL0     C10711  -0.815   2.647   7.853  0.1195  0.8909  0.5300
   80MOL0     C10712  -0.676   2.641   7.861 -0.4844 -0.1137 -0.1983
   80MOL0     O10713  -0.418   2.761   7.601  0.3339 -0.8201 -0.3016
   80MOL0     C10714  -0.185   2.585   7.792 -0.0535 -0.0149  1.1991
   80MOL0     C10715  -0.044   2.579   7.800  0.0385 -0.1456  0.4286
   80MOL0     N10716   0.732   2.685   7.795 -0.9012 -0.7344  0.1442
   80MOL0     N10717   0.764   2.809   7.786 -0.8537  0.7340 -0.0895
   80MOL0     C10718   1.810   3.361   7.439  0.3633 -0.1467 -0.7175
   80MOL0     C10719   1.941   3.395   7.391  0.2061 -0.4100 -0.0668
   80MOL0     C10720   2.364   3.327   7.233  0.6684 -0.1326 -0.3758
   80MOL0     C10721   2.443   3.396   7.326  0.2379  1.0959 -0.7906
   80MOL0     C10722   2.578   3.422   7.300 -0.2520  0.9197  0.2877
   80MOL0     C10723   2.644   3.370   7.189 -0.4129 -0.5068  0.0720
   80MOL0     O10724   2.779   3.384   7.171 -0.9805  0.3679 -0.3926
   80MOL0     C10725   2.870   3.405   7.282  0.2725  0.3444  0.7126
   80MOL0     C10726   3.011   3.370   7.248  0.0210  0.2822 -0.1730
   80MOL0     C10727   3.122   3.413   7.347 -1.0566 -0.2683  0.1169
   80MOL0     C10728   3.254   3.400   7.276  0.0606 -0.0923 -0.6260
   80MOL0     C10729   3.338   3.293   7.318  1.0264 -0.9918  0.6952
   80MOL0     C10730   3.407   3.206   7.373 -0.2473  0.6794  1.0297
   80MOL0     C10731   2.566   3.305   7.091  0.5035 -0.4799 -0.3740
   80MOL0     C10732   2.430   3.285   7.113  0.2031  0.7162 -0.2968
   80MOL0     H10733   2.100   3.102   7.432 -0.5156 -0.2194  0.4886
   80MOL0     H10734   1.882   3.035   7.528  1.7196  0.5807  4.6977
   80MOL0     H10735   1.677   3.006   7.590 -0.2990 -1.4169  1.7086
   80MOL0     H10736   1.730   3.095   7.721 -0.9194 -0.8760 -0.6657
   80MOL0     H10737   1.513   3.030   7.795  1.8008 -2.6379 -1.7851
   80MOL0     H10738   1.490   3.194   7.731 -3.8214 -0.6576 -1.0526
   80MOL0     H10739   1.411   3.116   7.531 -0.0849  1.8300  1.5761
   80MOL0     H10740   1.442   2.943   7.576  0.7444 -0.3426  1.1593
   80MOL0     H10741   1.278   2.964   7.757  1.4666  0.7853  1.0473
   80MOL0     H10742   1.246   3.135   7.714  2.8026  1.0987  0.7071
   80MOL0     H10743   1.178   3.074   7.492 -0.8388  1.3054  1.0444
   80MOL0     H10744   1.182   2.899   7.528  2.9938 -0.3618  1.6520
   80MOL0     H10745   1.027   2.912   7.708 -0.8502  0.6014  1.7715
   80MOL0     H10746   1.020   3.094   7.690 -1.7331  2.2040 -4.4473
   80MOL0     H10747   0.903   3.076   7.468 -2.4974  0.0118 -0.9264
   80MOL0     H10748   0.926   2.913   7.463  0.6411  0.0431  0.7983
   80MOL0     H10749   0.688   2.996   7.529 -1.1402 -2.0780  0.7431
   80MOL0     H10750   0.750   3.032   7.691 -0.4421 -2.3774  1.5763
   80MOL0     H10751   0.676   2.719   7.478  1.4185  0.0057 -0.2230
   80MOL0     H10752   0.715   2.452   7.583 -0.3351 -2.0107  0.9986
   80MOL0     H10753   0.656   2.432   7.739 -1.0113 -1.9211 -0.8972
   80MOL0     H10754   0.466   2.398   7.567 -1.9663  0.0508 -1.2051
   80MOL0     H10755   0.492   2.555   7.506 -2.1714 -1.3720  0.2890
   80MOL0     H10756   0.432   2.652   7.741 -0.9529 -0.5469  1.0343
   80MOL0     H10757   0.401   2.477   7.780  5.1747  0.6626  1.9872
   80MOL0     H10758   0.229   2.480   7.595  0.7246  0.9778 -2.4859
   80MOL0     H10759   0.275   2.642   7.554 -3.2362  0.1685 -0.9415
   80MOL0     H10760   0.044   2.661   7.486  0.6120 -2.5910  0.5928
   80MOL0     H10761  -0.225   2.765   7.392  1.2817 -0.1064  1.1418
   80MOL0     H10762  -0.122   2.620   7.358  1.6481 -0.2806  3.2778
   80MOL0     H10763  -0.292   2.597   7.387  0.0235  1.3849 -4.0763
   80MOL0     H10764  -0.622   2.584   7.529  2.5446  0.2960  2.4716
   80MOL0     H10765  -0.879   2.619   7.528 -2.3382 -0.0506  1.4787
   80MOL0     H10766  -1.167   2.519   7.813  2.3217 -2.2726  1.6128
   80MOL0     H10767  -1.046   2.553   7.921  0.0943 -2.4448 -1.3648
   80MOL0     H10768  -1.244   2.759   7.805 -0.9740 -0.5904  1.2003
   80MOL0     H10769  -1.259   2.707   7.969 -1.6215  1.4217 -1.1957
   80MOL0     H10770  -1.016   2.860   7.852 -0.4977  2.1588 -0.8919
   80MOL0     H10771  -1.023   2.802   8.015  0.6306 -1.9746 -1.6587
   80MOL0     H10772  -1.231   2.991   7.884 -0.0968  1.1501  0.8214
   80MOL0     H10773  -1.230   2.953   8.053  0.7943  1.8721  0.8056
   80MOL0     H10774  -1.004   3.090   7.909 -0.8782 -0.4479 -1.3813
   80MOL0     H10775  -1.008   3.056   8.078  1.4136 -2.4203 -0.4976
   80MOL0     H10776  -1.210   3.208   8.099  0.3438 -4.5072 -0.0906
   80MOL0     H10777  -1.068   3.286   8.031  3.5618 -3.7608 -1.9409
   80MOL0     H10778  -1.278   3.357   7.925  3.4372  0.8909  2.9402
   80MOL0     H10779  -1.325   3.192   7.882  1.7158 -1.7949 -1.8216
   80MOL0     H10780  -1.145   3.187   7.716 -0.8730  0.4267 -2.6092
   80MOL0     H10781  -1.065   3.327   7.803  2.2716 -2.6286 -2.3036
   80MOL0     H10782  -0.858   2.670   7.949  2.0889  1.2626  1.3540
   80MOL0     H10783  -0.626   2.665   7.955 -0.4433  1.1980 -0.5354
   80MOL0     H10784  -0.236   2.570   7.887 -0.5256  1.1712  1.1521
   80MOL0     H10785  -0.004   2.538   7.893  0.4098 -1.7510 -0.4006
   80MOL0     H10786   1.728   3.432   7.443  0.3171 -0.2344  1.4507
   80MOL0     H10787   1.949   3.496   7.352 -1.9217 -0.1394  0.0731
   80MOL0     H10788   2.400   3.428   7.420 -0.0501 -2.3966  0.4108
   80MOL0     H10789   2.630   3.478   7.377  0.4983  1.0120 -0.2759
   80MOL0     H10790   2.853   3.511   7.303 -1.6152  0.4530 -1.0011
   80MOL0     H10791   2.842   3.361   7.378  0.1563 -0.1874  0.4380
   80MOL0     H10792   3.029   3.408   7.147 -1.1532  0.7170 -0.2385
   80MOL0     H10793   3.012   3.261   7.237  0.1729  0.4881 -2.7845
   80MOL0     H10794   3.133   3.367   7.445  2.6166  1.1145  0.4882
   80MOL0     H10795   3.096   3.518   7.366 -0.0274 -0.0608  0.4065
   80MOL0     H10796   3.308   3.490   7.307  2.0052 -1.1422 -0.8345
   80MOL0     H10797   3.252   3.401   7.166  3.8245  1.1437 -0.8369
   80MOL0     H10798   3.448   3.127   7.432 -0.1963  0.0932  0.2215
   80MOL0     H10799   2.616   3.278   6.998  0.1111  1.5507 -1.2260
   80MOL0     H10800   2.376   3.230   7.037  2.0695  1.0865 -1.9734
   81MOL0     O10801   5.625   4.767   4.723 -0.6549 -0.2615 -0.2918
   81MOL0     C10802   5.629   4.777   4.600 -0.0891  0.1350 -0.0714
   81MOL0     O10803   5.720   4.859   4.529 -0.1943  0.4727  0.0432
   81MOL0     C10804   5.807   4.944   4.597 -0.7361 -0.0564  0.6635
   81MOL0     C10805   5.933   4.961   4.541 -0.5020  0.2611  0.0970
   81MOL0     C10806   6.039   5.031   4.607  0.4445  0.2291 -0.0553
   81MOL0     C10807   6.001   5.076   4.743 -0.1575  0.7446  1.3605
   81MOL0     O10808   6.096   5.131   4.824 -0.2992 -0.2462 -0.2299
   81MOL0     C10809   6.220   5.055   4.845 -0.0550 -0.1376 -0.1093
   81MOL0     C10810   6.283   5.109   4.977  0.4089  0.1768  0.0789
   81MOL0     C10811   6.284   5.265   4.981 -1.1965 -0.5819  0.7319
   81MOL0     C10812   6.346   5.312   5.106 -0.3876 -0.7107  0.0142
   81MOL0     C10813   6.334   5.473   5.103  0.4476 -0.2544 -0.0473
   81MOL0     C10814   6.412   5.556   4.988  1.3333  1.1363  0.3626
   81MOL0     C10815   6.560   5.525   4.983 -0.0212 -0.3519 -0.5052
   81MOL0     C10816   6.638   5.582   4.868 -0.4177 -0.0569  0.4750
   81MOL0     N10817   6.578   5.537   4.744 -0.0270 -1.2830 -0.1613
   81MOL0     C10818   6.550   5.412   4.703 -0.1090 -0.4661  0.0350
   81MOL0     C10819   6.537   5.417   4.563 -0.7618 -0.0131  0.4357
   81MOL0     C10820   6.488   5.298   4.484  0.1277  0.0647  0.4095
   81MOL0     C10821   6.594   5.203   4.437  0.1573  0.6086 -0.7048
   81MOL0     C10822   6.537   5.074   4.374 -0.1752 -0.8681  0.7309
   81MOL0     C10823   6.399   5.079   4.304 -0.4994 -0.3475 -0.3444
   81MOL0     O10824   6.363   4.941   4.269 -0.7651 -0.3341  0.7368
   81MOL0     C10825   6.234   4.921   4.228 -0.3840  0.4437  0.4233
   81MOL0     C10826   6.142   5.029   4.193  0.1673  0.7648 -0.5885
   81MOL0     C10827   6.018   4.990   4.140  0.1281 -0.2991  0.4167
   81MOL0     C10828   5.926   5.111   4.115  0.0672  0.4751 -0.2675
   81MOL0     C10829   5.973   4.853   4.133 -0.5817  0.6651  0.1013
   81MOL0     C10830   5.845   4.802   4.083  0.7542 -0.5800 -0.1470
   81MOL0     O10831   5.759   4.901   4.043  0.2325  0.9569 -0.9092
   81MOL0     C10832   5.628   4.865   3.994  0.3949  0.4834 -0.3279
   81MOL0     C10833   5.593   4.760   3.906 -0.4123  0.0650  0.1295
   81MOL0     C10834   5.464   4.731   3.866  0.3036 -1.3741  0.1291
   81MOL0     C10835   5.354   4.809   3.916  0.2352 -0.5534 -0.5762
   81MOL0     O10836   5.225   4.769   3.877 -0.0304  0.5104 -0.4485
   81MOL0     C10837   5.111   4.818   3.952  0.4760 -0.6892 -0.0638
   81MOL0     C10838   4.987   4.770   3.884  0.4927  0.9639 -0.1801
   81MOL0     C10839   4.840   4.807   3.942 -0.0854 -0.5484 -0.6045
   81MOL0     C10840   4.741   4.843   3.828  0.1305 -1.0070  0.1791
   81MOL0     C10841   4.609   4.865   3.893  0.3413 -0.6375  0.9668
   81MOL0     C10842   4.512   4.941   3.797 -0.8450 -0.6373 -0.9668
   81MOL0     C10843   4.368   4.958   3.841  0.3082 -0.4939 -0.8537
   81MOL0     C10844   4.292   5.054   3.754 -0.0404  0.2742  0.1223
   81MOL0    Cl10845   4.377   5.206   3.706 -0.3612 -0.0540 -0.0194
   81MOL0     C10846   5.388   4.922   3.999 -0.3106 -0.5781  0.1178
   81MOL0     C10847   5.520   4.947   4.030 -0.4384 -0.2366 -0.2442
   81MOL0     O10848   5.816   4.683   4.100 -0.2648 -0.3109 -1.0377
   81MOL0     C10849   6.075   4.758   4.164  0.8952  0.3930 -0.2597
   81MOL0     C10850   6.198   4.793   4.214 -0.0869  0.7731 -0.5075
   81MOL0     N10851   6.552   5.548   4.522  0.2727 -0.1711 -0.3969
   81MOL0     N10852   6.577   5.617   4.635 -0.6813  0.1711  0.7814
   81MOL0     C10853   5.869   5.073   4.782  0.4357  0.6293  0.7813
   81MOL0     C10854   5.771   5.007   4.715  0.8185  0.1440  0.2816
   81MOL0     C10855   5.534   4.707   4.519 -0.0132  0.3477 -0.2841
   81MOL0     C10856   5.539   4.736   4.385 -0.1247 -0.5111  0.1453
   81MOL0     C10857   5.454   4.666   4.294 -0.7303  0.1572 -0.1181
   81MOL0     C10858   5.366   4.560   4.343  0.3482 -0.1735 -0.1315
   81MOL0     O10859   5.277   4.490   4.274 -0.1022 -0.2829 -0.1597
   81MOL0     C10860   5.274   4.499   4.130 -0.3786 -0.5303 -0.0931
   81MOL0     C10861   5.396   4.429   4.070  0.8513 -0.8659  0.5572
   81MOL0     C10862   5.428   4.288   4.112  0.4915  0.2961  0.5291
   81MOL0     C10863   5.523   4.216   4.016 -0.7354 -0.2831  0.8035
   81MOL0     C10864   5.564   4.084   4.069 -0.7367  1.6042 -0.4499
   81MOL0     C10865   5.597   3.982   4.127  0.0185 -0.2665  0.4305
   81MOL0     C10866   5.371   4.535   4.484 -0.7497  0.1538  0.4506
   81MOL0     C10867   5.461   4.601   4.568  0.0237 -0.9308 -1.0933
   81MOL0     H10868   5.961   4.924   4.443 -2.7846  0.4000 -0.6724
   81MOL0     H10869   6.142   5.045   4.577  1.1222  0.3401  2.1004
   81MOL0     H10870   6.196   4.949   4.844 -2.8230  0.3683  1.4031
   81MOL0     H10871   6.286   5.075   4.760  1.9333 -0.7956  1.2239
   81MOL0     H10872   6.219   5.070   5.056  0.6593 -0.0725  0.1592
   81MOL0     H10873   6.386   5.072   4.978  0.9277  1.4923 -0.9229
   81MOL0     H10874   6.350   5.299   4.899 -3.2259 -1.2357 -1.2692
   81MOL0     H10875   6.184   5.309   4.970 -1.1830 -0.1046  2.3525
   81MOL0     H10876   6.291   5.271   5.191 -0.9507  1.5289  0.7997
   81MOL0     H10877   6.451   5.282   5.112  0.2702  1.2916 -0.5407
   81MOL0     H10878   6.229   5.502   5.112  0.7781  0.6703  0.9936
   81MOL0     H10879   6.385   5.505   5.194  0.2258 -0.4171  0.1335
   81MOL0     H10880   6.361   5.531   4.894 -0.1679  0.7641  1.2391
   81MOL0     H10881   6.396   5.662   5.004 -0.0852  1.3941 -2.1879
   81MOL0     H10882   6.612   5.560   5.073  3.0539 -1.3631 -1.7656
   81MOL0     H10883   6.573   5.416   4.986 -0.8797 -0.5580 -2.6396
   81MOL0     H10884   6.745   5.557   4.868 -0.7795 -1.7070  0.6687
   81MOL0     H10885   6.634   5.691   4.883  0.9035 -0.2107  2.2271
   81MOL0     H10886   6.557   5.328   4.771 -2.0560  1.5620  3.0061
   81MOL0     H10887   6.422   5.237   4.546  1.6588 -0.8723  1.1647
   81MOL0     H10888   6.445   5.349   4.397  3.2716  1.6361 -0.3725
   81MOL0     H10889   6.663   5.177   4.518  0.7432  1.5827 -0.8778
   81MOL0     H10890   6.664   5.242   4.362 -0.9658 -1.4912 -2.9757
   81MOL0     H10891   6.537   4.999   4.454  0.6330 -2.5946 -0.8069
   81MOL0     H10892   6.607   5.042   4.297  1.4009  1.2995  1.1871
   81MOL0     H10893   6.402   5.139   4.212 -0.9572 -1.4499 -1.0889
   81MOL0     H10894   6.327   5.114   4.378 -3.0532 -3.3450 -1.1943
   81MOL0     H10895   6.165   5.135   4.206  1.7596  0.1682  2.6298
   81MOL0     H10896   5.840   5.091   4.180  1.3585 -3.4168  0.5070
   81MOL0     H10897   5.974   5.201   4.154 -0.0994 -0.1302  1.3951
   81MOL0     H10898   5.884   5.134   4.016 -0.8267  2.3838  0.5045
   81MOL0     H10899   5.675   4.699   3.871 -0.3252 -0.4969  1.2530
   81MOL0     H10900   5.444   4.649   3.798 -0.1156 -0.4832 -0.8574
   81MOL0     H10901   5.098   4.783   4.055 -3.2054  1.7612  0.4889
   81MOL0     H10902   5.110   4.927   3.953 -1.0846 -0.6056 -2.3185
   81MOL0     H10903   4.988   4.805   3.780 -0.8832 -3.8264 -2.0595
   81MOL0     H10904   4.995   4.661   3.881  3.1285  0.8547  3.8593
   81MOL0     H10905   4.841   4.894   4.009 -1.2982 -2.5861  2.2812
   81MOL0     H10906   4.801   4.724   4.002 -0.1267  0.9690  1.5817
   81MOL0     H10907   4.783   4.931   3.779 -0.3762  0.1860  1.8349
   81MOL0     H10908   4.730   4.775   3.743 -1.0616 -0.1070 -0.3994
   81MOL0     H10909   4.618   4.911   3.991 -0.2010  0.6660  0.4299
   81MOL0     H10910   4.552   4.772   3.906 -1.5343  0.3211  0.0323
   81MOL0     H10911   4.562   5.038   3.799  0.3019 -1.2210  0.2106
   81MOL0     H10912   4.515   4.900   3.695  0.9641 -0.5825 -0.9606
   81MOL0     H10913   4.373   4.995   3.944  0.6174 -3.4494  0.2679
   81MOL0     H10914   4.314   4.864   3.852 -1.1113  0.2796 -0.9822
   81MOL0     H10915   4.201   5.081   3.808 -0.0684  4.8230 -1.7282
   81MOL0     H10916   4.251   5.003   3.666 -0.4965 -0.0393  0.5087
   81MOL0     H10917   5.307   4.982   4.039  0.1079 -1.4620  2.4535
   81MOL0     H10918   5.542   5.043   4.076 -0.3954 -0.0112 -0.7325
   81MOL0     H10919   6.041   4.655   4.165  1.1222  0.3177 -0.3148
   81MOL0     H10920   6.260   4.706   4.235  0.0502  0.7477 -1.0041
   81MOL0     H10921   5.862   5.130   4.874  0.0421 -0.2648  1.3216
   81MOL0     H10922   5.673   5.000   4.761 -0.3282 -0.5988 -2.0795
   81MOL0     H10923   5.607   4.810   4.345 -1.3262  0.6382  0.1600
   81MOL0     H10924   5.461   4.688   4.188  0.0156  2.1095  0.3029
   81MOL0     H10925   5.179   4.467   4.085  0.0840 -2.3214  0.1310
   81MOL0     H10926   5.273   4.606   4.108  0.2271  0.0260  2.3081
   81MOL0     H10927   5.482   4.495   4.080  1.7726 -1.8146 -0.8049
   81MOL0     H10928   5.370   4.429   3.964  2.1320 -1.8213  0.2159
   81MOL0     H10929   5.335   4.230   4.115  1.3495 -1.0736  1.7952
   81MOL0     H10930   5.467   4.285   4.215 -0.1373  2.5105  0.8882
   81MOL0     H10931   5.614   4.273   3.992 -1.2701  0.2377 -0.0632
   81MOL0     H10932   5.463   4.204   3.925  1.2181  2.0146 -0.9351
   81MOL0     H10933   5.636   3.914   4.200 -1.9041 -0.9428  0.8847
   81MOL0     H10934   5.311   4.455   4.525 -0.0662  0.7472  2.7242
   81MOL0     H10935   5.463   4.575   4.673 -0.5395 -1.1061 -1.1220
   82MOL0     O10936   5.536   1.806   6.736 -0.5626  0.3597  0.8320
   82MOL0     C10937   5.581   1.691   6.728 -0.2928 -1.0155  0.3717
   82MOL0     O10938   5.518   1.577   6.689 -0.4168 -0.2738  0.8585
   82MOL0     C10939   5.386   1.581   6.641 -0.9009  0.4807 -0.4691
   82MOL0     C10940   5.356   1.528   6.521  0.1035 -0.2501  0.5424
   82MOL0     C10941   5.225   1.548   6.472 -0.1265  0.4614  0.5210
   82MOL0     C10942   5.121   1.589   6.551 -0.0498 -0.4044  0.2743
   82MOL0     O10943   5.002   1.588   6.493  0.7557  0.9012 -0.0478
   82MOL0     C10944   4.884   1.613   6.566 -0.4244  0.3059  0.0595
   82MOL0     C10945   4.768   1.659   6.485 -0.4327  0.3403  0.6887
   82MOL0     C10946   4.647   1.690   6.573 -0.4622  0.6043  0.3804
   82MOL0     C10947   4.533   1.773   6.505 -0.6502 -0.0897 -0.0650
   82MOL0     C10948   4.398   1.754   6.572  0.1575 -0.2159  0.5671
   82MOL0     C10949   4.299   1.845   6.509  0.0705 -0.1809 -0.3820
   82MOL0     C10950   4.155   1.817   6.549 -0.1241  0.0559  0.7386
   82MOL0     C10951   4.136   1.839   6.700  0.2489  1.1959 -0.6062
   82MOL0     N10952   3.988   1.818   6.720  0.0902  0.4874 -0.4244
   82MOL0     C10953   3.902   1.922   6.737  0.1250 -0.0251 -0.1097
   82MOL0     C10954   3.786   1.865   6.747 -0.1849  0.3986  0.2715
   82MOL0     C10955   3.656   1.941   6.761 -0.0619  0.1201 -0.0554
   82MOL0     C10956   3.538   1.853   6.787 -0.1918  0.0534 -0.3651
   82MOL0     C10957   3.526   1.823   6.939  0.2653  0.9076  0.4673
   82MOL0     C10958   3.376   1.798   6.966  0.0468 -0.1798  0.0044
   82MOL0     O10959   3.340   1.669   6.920 -0.4565  0.0774  0.1273
   82MOL0     C10960   3.210   1.631   6.927 -0.2166  0.0885  0.5833
   82MOL0     C10961   3.178   1.499   6.954 -0.1468 -0.3006  0.0517
   82MOL0     C10962   3.044   1.444   6.958  0.0793  0.0423  0.4402
   82MOL0     C10963   3.028   1.294   6.996  0.0502  0.6184  0.1996
   82MOL0     C10964   2.930   1.526   6.923 -0.6744  0.6597  0.4290
   82MOL0     C10965   2.783   1.482   6.922  0.8366 -0.6050  0.1276
   82MOL0     O10966   2.711   1.573   6.854  0.2568 -0.5445  0.2546
   82MOL0     C10967   2.566   1.570   6.841 -0.5764  0.3316  0.2138
   82MOL0     C10968   2.476   1.514   6.931  0.3547 -0.4753  0.5484
   82MOL0     C10969   2.344   1.511   6.893  0.1931  0.1996  0.0290
   82MOL0     C10970   2.290   1.571   6.780 -0.3834 -0.2760 -0.4104
   82MOL0     O10971   2.154   1.569   6.745  0.9102 -0.3958 -0.6056
   82MOL0     C10972   2.060   1.500   6.823 -0.4668  0.2549  0.7948
   82MOL0     C10973   1.941   1.458   6.741 -0.6240  0.7012  0.5265
   82MOL0     C10974   1.824   1.421   6.827  0.0925  0.8905  0.2150
   82MOL0     C10975   1.711   1.372   6.739 -0.3911  0.3441  0.5896
   82MOL0     C10976   1.578   1.363   6.814  0.1263 -0.2229 -0.6492
   82MOL0     C10977   1.560   1.223   6.890 -0.7086 -0.6259 -0.1684
   82MOL0     C10978   1.564   1.101   6.803 -0.3085  0.5648  0.2253
   82MOL0     C10979   1.481   1.120   6.680  0.3544  0.0293 -0.2718
   82MOL0    Cl10980   1.311   1.165   6.718 -0.4245 -0.0289  0.0007
   82MOL0     C10981   2.380   1.628   6.689  0.8808  0.1824 -0.2352
   82MOL0     C10982   2.518   1.620   6.717  0.8862  0.2289 -0.2333
   82MOL0     O10983   2.746   1.393   6.995  0.1518 -0.1914 -0.3376
   82MOL0     C10984   2.967   1.656   6.879  0.1948  1.0870 -0.1596
   82MOL0     C10985   3.096   1.709   6.885 -0.3653  0.3581 -0.6109
   82MOL0     N10986   3.798   1.728   6.734 -0.1134 -0.2477 -0.7987
   82MOL0     N10987   3.926   1.699   6.736 -0.0315  0.9532  0.5035
   82MOL0     C10988   5.165   1.640   6.676 -0.3251 -0.1989 -0.6396
   82MOL0     C10989   5.292   1.648   6.717 -0.7107 -0.7733  0.3386
   82MOL0     C10990   5.716   1.672   6.773 -0.0868 -0.3426  0.3918
   82MOL0     C10991   5.819   1.780   6.770  0.4724 -0.4738 -0.7213
   82MOL0     C10992   5.952   1.761   6.813  0.5254 -1.0232  0.5822
   82MOL0     C10993   5.988   1.636   6.861  0.6866  0.3210 -1.0402
   82MOL0     O10994   6.123   1.616   6.898 -0.0780  0.3017  0.6729
   82MOL0     C10995   6.166   1.492   6.954 -0.1011 -0.7205  0.1857
   82MOL0     C10996   6.121   1.469   7.098 -0.3349  0.8160  0.2467
   82MOL0     C10997   6.192   1.346   7.153 -0.3044 -0.6471  0.3680
   82MOL0     C10998   6.188   1.219   7.073  0.0709  0.1891  0.1955
   82MOL0     C10999   6.056   1.171   7.033  0.0174  0.4392  0.1396
   82MOL0     C11000   5.955   1.118   7.004 -0.1018 -0.0690  0.4346
   82MOL0     C11001   5.889   1.537   6.870 -0.5178 -0.0101  0.7839
   82MOL0     C11002   5.755   1.554   6.823 -1.0975  0.0885 -0.0788
   82MOL0     H11003   5.442   1.495   6.464  0.3314 -0.0535  0.7692
   82MOL0     H11004   5.200   1.509   6.373 -2.4819 -0.0519  1.2639
   82MOL0     H11005   4.868   1.520   6.623  1.7524  0.3747  0.9073
   82MOL0     H11006   4.905   1.691   6.639 -0.2157  0.6942 -0.4153
   82MOL0     H11007   4.794   1.754   6.436 -0.6279 -0.6517 -1.4347
   82MOL0     H11008   4.734   1.579   6.419 -3.3443  0.5707  1.7652
   82MOL0     H11009   4.613   1.592   6.607  0.4136  0.6220  1.3716
   82MOL0     H11010   4.672   1.749   6.662  0.6586  0.2294  0.3311
   82MOL0     H11011   4.566   1.877   6.506  1.6942 -0.7706 -0.7453
   82MOL0     H11012   4.527   1.745   6.399 -1.3453  0.9671 -0.3270
   82MOL0     H11013   4.364   1.650   6.579 -0.0545 -0.1951 -0.1626
   82MOL0     H11014   4.406   1.790   6.675 -0.4704 -1.3434  1.0345
   82MOL0     H11015   4.325   1.948   6.536 -2.3773  0.9112 -1.8896
   82MOL0     H11016   4.299   1.836   6.400 -0.1753 -0.6784 -0.3452
   82MOL0     H11017   4.105   1.896   6.492  2.3083  1.4731  0.3963
   82MOL0     H11018   4.114   1.720   6.519  2.8429 -1.0936 -0.0000
   82MOL0     H11019   4.182   1.934   6.732  3.1516 -1.0576  2.6709
   82MOL0     H11020   4.183   1.757   6.755 -1.6529  0.4024 -0.0956
   82MOL0     H11021   3.921   2.028   6.749 -1.3353  0.1636  0.7763
   82MOL0     H11022   3.666   2.021   6.835  0.7848  0.7580 -0.8389
   82MOL0     H11023   3.644   2.002   6.671 -1.5195 -0.9952 -0.6564
   82MOL0     H11024   3.540   1.756   6.736 -1.8368 -1.0559  1.5588
   82MOL0     H11025   3.446   1.902   6.755 -0.3143 -0.5918 -1.0401
   82MOL0     H11026   3.549   1.910   7.000  0.7656  0.4929  0.8824
   82MOL0     H11027   3.595   1.748   6.978  2.5491  2.6694  0.0289
   82MOL0     H11028   3.314   1.881   6.931 -0.1368 -1.0420 -1.8211
   82MOL0     H11029   3.367   1.802   7.075  3.0077 -0.6168  0.3301
   82MOL0     H11030   3.250   1.437   7.006  0.3675  1.1672  1.1622
   82MOL0     H11031   3.104   1.221   6.969 -0.2904 -0.8192  2.7559
   82MOL0     H11032   3.031   1.293   7.106  3.2214 -1.8404  0.2297
   82MOL0     H11033   2.935   1.248   6.962  0.8066 -0.0454 -1.0475
   82MOL0     H11034   2.507   1.460   7.020 -2.0500 -0.6785  1.3158
   82MOL0     H11035   2.271   1.470   6.962 -0.2016  2.6242  1.1603
   82MOL0     H11036   2.101   1.403   6.854  1.1080 -0.5198 -3.1950
   82MOL0     H11037   2.031   1.561   6.910  1.2004  2.4808 -0.1199
   82MOL0     H11038   1.917   1.548   6.683 -0.4099  0.5927  0.2652
   82MOL0     H11039   1.976   1.371   6.683 -1.8146 -0.5090  1.5575
   82MOL0     H11040   1.805   1.501   6.899 -1.1773 -0.6926  1.7062
   82MOL0     H11041   1.837   1.326   6.880 -1.0039  0.0074 -1.0448
   82MOL0     H11042   1.694   1.453   6.667  1.3105  0.7045  0.5509
   82MOL0     H11043   1.730   1.275   6.691 -2.2608  1.3829 -2.5394
   82MOL0     H11044   1.504   1.375   6.734  1.6234 -1.0468 -2.2323
   82MOL0     H11045   1.569   1.451   6.878  1.8655 -1.7203  1.8632
   82MOL0     H11046   1.632   1.217   6.972 -2.3605  0.7305  1.4743
   82MOL0     H11047   1.463   1.227   6.941 -0.4152  0.0866  0.3547
   82MOL0     H11048   1.518   1.018   6.856  0.9186 -1.4417 -1.6665
   82MOL0     H11049   1.663   1.068   6.772 -1.2358  0.0270 -2.4158
   82MOL0     H11050   1.480   1.037   6.610  0.3106 -0.3914  0.2236
   82MOL0     H11051   1.533   1.198   6.624  0.2377 -0.8842 -1.6801
   82MOL0     H11052   2.333   1.694   6.618 -5.0900 -2.5172  0.6109
   82MOL0     H11053   2.581   1.669   6.644 -0.9436  2.0279 -0.6958
   82MOL0     H11054   2.898   1.723   6.828 -1.0230 -0.7137 -0.9623
   82MOL0     H11055   3.101   1.815   6.864 -1.4337  0.3285 -1.0725
   82MOL0     H11056   5.097   1.693   6.742  0.4628 -0.1348  0.1277
   82MOL0     H11057   5.323   1.703   6.805  0.8042  0.3181 -0.8132
   82MOL0     H11058   5.787   1.877   6.733  2.9931  0.0830 -1.6629
   82MOL0     H11059   6.018   1.847   6.811  0.0827 -0.6628  1.0881
   82MOL0     H11060   6.137   1.413   6.883 -0.0897 -0.9422  0.4254
   82MOL0     H11061   6.275   1.487   6.952 -0.0301 -0.2743  1.6750
   82MOL0     H11062   6.012   1.463   7.111 -0.1817 -2.3456  0.9380
   82MOL0     H11063   6.154   1.557   7.154  3.4100 -0.1038 -0.2947
   82MOL0     H11064   6.149   1.328   7.251  0.3484  2.1569  1.2473
   82MOL0     H11065   6.296   1.369   7.176 -0.0678 -2.0212  0.7396
   82MOL0     H11066   6.236   1.135   7.124 -0.9292  0.1739  1.1529
   82MOL0     H11067   6.242   1.225   6.979 -0.2888  1.2826  0.0404
   82MOL0     H11068   5.858   1.084   6.975 -1.5507  3.0266  1.2133
   82MOL0     H11069   5.916   1.437   6.903 -1.9120 -0.2167  1.3579
   82MOL0     H11070   5.685   1.472   6.817 -0.3657 -0.4700 -1.2698
   83MOL0     O11071   8.875   2.879   9.595 -0.1453  0.4023 -0.1247
   83MOL0     C11072   8.890   2.814   9.491 -0.4282  0.2641 -0.7377
   83MOL0     O11073   8.787   2.767   9.412  0.0654 -0.9057  0.1461
   83MOL0     C11074   8.664   2.781   9.467  0.5248  0.3657  0.9138
   83MOL0     C11075   8.611   2.667   9.535  0.1926 -0.2840  0.1314
   83MOL0     C11076   8.484   2.678   9.595 -0.2726  0.1411 -0.4202
   83MOL0     C11077   8.408   2.797   9.595 -0.5786  1.0642 -0.2121
   83MOL0     O11078   8.289   2.803   9.671  0.3688 -0.1852  0.6047
   83MOL0     C11079   8.176   2.770   9.585  0.9164 -0.5460 -0.4995
   83MOL0     C11080   8.070   2.879   9.623 -0.0032  0.1379  0.0319
   83MOL0     C11081   7.934   2.844   9.579 -0.5673 -1.2564 -0.2481
   83MOL0     C11082   7.864   2.972   9.536  0.0638 -0.6168  0.0632
   83MOL0     C11083   7.724   2.924   9.498 -0.0410 -0.4075  0.6627
   83MOL0     C11084   7.651   3.029   9.415  0.5809 -0.4874 -0.1330
   83MOL0     C11085   7.515   2.980   9.363 -0.9620 -0.1997  0.9554
   83MOL0     C11086   7.415   2.974   9.466  0.7022 -0.2252 -0.2686
   83MOL0     N11087   7.283   2.937   9.400 -0.1227  0.4883 -0.1718
   83MOL0     C11088   7.246   2.809   9.393  0.8942 -0.0637 -0.5164
   83MOL0     C11089   7.135   2.810   9.316 -0.4350  0.7760 -0.3295
   83MOL0     C11090   7.060   2.684   9.275  0.0926  0.6144 -0.1492
   83MOL0     C11091   6.911   2.703   9.301 -1.1042 -0.2723  0.2064
   83MOL0     C11092   6.837   2.802   9.207  0.8549  0.0190  0.8911
   83MOL0     C11093   6.681   2.781   9.229 -0.0621  0.1850 -0.3707
   83MOL0     O11094   6.643   2.649   9.183 -0.0013  0.3325 -0.4693
   83MOL0     C11095   6.512   2.630   9.222  0.7427  0.3677 -0.3328
   83MOL0     C11096   6.482   2.595   9.354  1.2010  0.8765 -0.0241
   83MOL0     C11097   6.350   2.571   9.401 -0.7713 -0.0453 -0.3285
   83MOL0     C11098   6.337   2.536   9.546 -0.3596 -0.8050  1.6248
   83MOL0     C11099   6.247   2.581   9.306  0.5559 -0.1768 -0.6722
   83MOL0     C11100   6.106   2.566   9.335 -0.3278  0.0951 -0.4093
   83MOL0     O11101   6.037   2.513   9.237  0.3274  0.0158  0.1917
   83MOL0     C11102   5.919   2.451   9.267 -0.9108  0.0015  0.3747
   83MOL0     C11103   5.807   2.497   9.210  0.0185  0.7258 -0.2817
   83MOL0     C11104   5.682   2.432   9.234 -1.0123  0.2443  0.1039
   83MOL0     C11105   5.683   2.329   9.328  0.9096 -0.2743  0.2602
   83MOL0     O11106   5.555   2.294   9.372 -0.7233  0.4790 -0.6057
   83MOL0     C11107   5.535   2.322   9.510  0.6451  0.6136 -0.5429
   83MOL0     C11108   5.394   2.282   9.535 -0.6186 -0.4530 -0.6857
   83MOL0     C11109   5.376   2.133   9.513  0.6449  0.8811  0.6564
   83MOL0     C11110   5.238   2.080   9.560 -0.2006 -0.6143  0.1849
   83MOL0     C11111   5.229   1.927   9.563  0.1943  0.8382 -0.2146
   83MOL0     C11112   5.095   1.878   9.603 -0.1559  0.6585 -0.2153
   83MOL0     C11113   5.098   1.726   9.572  0.7846 -0.5505  0.0271
   83MOL0     C11114   4.955   1.669   9.600  0.3587  0.1459 -0.3769
   83MOL0    Cl11115   4.828   1.695   9.466 -0.0559 -0.1951  1.0717
   83MOL0     C11116   5.800   2.287   9.398  0.0089  0.4317 -0.1274
   83MOL0     C11117   5.919   2.345   9.361  0.9098  0.2871 -0.0803
   83MOL0     O11118   6.054   2.611   9.438 -0.4440  0.0643  0.1180
   83MOL0     C11119   6.280   2.613   9.172  0.1589  0.1879  0.5552
   83MOL0     C11120   6.406   2.634   9.128 -0.1102  0.7342  0.1119
   83MOL0     N11121   7.098   2.938   9.288 -0.3319 -0.3856  0.3350
   83MOL0     N11122   7.193   3.017   9.335  0.4184 -0.2612 -0.3534
   83MOL0     C11123   8.467   2.906   9.528  0.2935 -0.0607 -0.3194
   83MOL0     C11124   8.587   2.898   9.462  0.3316  0.1448  0.5526
   83MOL0     C11125   9.030   2.800   9.442  0.2460  0.6924 -0.6613
   83MOL0     C11126   9.140   2.850   9.519 -0.0759 -0.0054 -0.8630
   83MOL0     C11127   9.274   2.843   9.476  0.5682  0.0983 -0.1705
   83MOL0     C11128   9.300   2.803   9.350 -0.6885  0.3467  0.5172
   83MOL0     O11129   9.428   2.823   9.310  0.0593  0.5487  0.3762
   83MOL0     C11130   9.442   2.850   9.169 -0.6118  0.1728  0.1590
   83MOL0     C11131   9.386   2.982   9.134 -0.3472 -0.2279 -0.0888
   83MOL0     C11132   9.480   3.098   9.180 -0.3375  0.3276  0.7198
   83MOL0     C11133   9.422   3.232   9.146  0.6438 -1.0566 -0.0237
   83MOL0     C11134   9.284   3.245   9.209 -0.1611  0.0598 -0.2468
   83MOL0     C11135   9.172   3.240   9.271  0.1223 -0.3031  0.3816
   83MOL0     C11136   9.192   2.749   9.276 -0.5833  0.6967 -0.0246
   83MOL0     C11137   9.057   2.752   9.311  0.4715  0.9025 -0.3991
   83MOL0     H11138   8.670   2.576   9.536  1.5130  0.4891 -1.9121
   83MOL0     H11139   8.433   2.600   9.649  1.7800  1.0002  3.0995
   83MOL0     H11140   8.200   2.770   9.478  1.2817  1.8161 -0.4710
   83MOL0     H11141   8.139   2.672   9.617  0.4320  0.3519  1.8819
   83MOL0     H11142   8.075   2.929   9.720 -0.7326 -0.6160  0.4718
   83MOL0     H11143   8.103   2.959   9.556 -0.1523 -0.3700 -0.6641
   83MOL0     H11144   7.952   2.780   9.492  0.4585  1.7349 -2.3925
   83MOL0     H11145   7.879   2.795   9.660 -1.2120 -2.0219 -1.1381
   83MOL0     H11146   7.861   3.048   9.616  2.9201  0.3669 -0.6540
   83MOL0     H11147   7.920   3.021   9.456  0.2816 -0.4484  0.3157
   83MOL0     H11148   7.734   2.841   9.427  0.5454  1.9132 -2.2033
   83MOL0     H11149   7.675   2.884   9.586  1.1386  0.3156  1.6845
   83MOL0     H11150   7.635   3.124   9.467 -2.8545 -2.9175  3.9484
   83MOL0     H11151   7.696   3.051   9.318 -1.2885  0.8577 -0.7525
   83MOL0     H11152   7.495   3.061   9.292 -0.4594  1.2663  2.4163
   83MOL0     H11153   7.528   2.877   9.328  1.1119  0.2219  0.3296
   83MOL0     H11154   7.394   3.073   9.507 -4.6398 -0.9976 -0.4746
   83MOL0     H11155   7.449   2.906   9.544  3.6679  4.1387  2.7068
   83MOL0     H11156   7.302   2.724   9.430 -0.6052 -0.5399  0.7250
   83MOL0     H11157   7.084   2.670   9.169  2.4620  0.8122  0.2925
   83MOL0     H11158   7.098   2.603   9.338 -0.4907  1.3289  1.1753
   83MOL0     H11159   6.900   2.738   9.404  1.4128 -2.1808  1.2384
   83MOL0     H11160   6.870   2.601   9.300  0.5187 -0.9523 -0.5129
   83MOL0     H11161   6.864   2.778   9.103 -3.2197  1.1475 -0.6375
   83MOL0     H11162   6.853   2.909   9.217 -0.6573  0.4719 -0.8457
   83MOL0     H11163   6.620   2.856   9.178 -0.5682  0.3355  0.4388
   83MOL0     H11164   6.669   2.782   9.337  0.8893 -0.4037 -0.2471
   83MOL0     H11165   6.572   2.574   9.411  0.7200  1.1375  0.8549
   83MOL0     H11166   6.324   2.628   9.604 -2.4147 -1.0648  1.6461
   83MOL0     H11167   6.252   2.470   9.564 -0.2992 -1.3337  0.1553
   83MOL0     H11168   6.428   2.483   9.576 -0.1517 -1.2308  0.3096
   83MOL0     H11169   5.817   2.570   9.130  0.4417  1.5656  0.5153
   83MOL0     H11170   5.599   2.480   9.184  1.5850  1.2919 -3.7090
   83MOL0     H11171   5.595   2.255   9.572 -0.6042 -0.6506 -0.6551
   83MOL0     H11172   5.555   2.425   9.540  5.5569  0.4169 -2.2645
   83MOL0     H11173   5.372   2.301   9.641 -1.4393 -1.3514 -0.6833
   83MOL0     H11174   5.322   2.353   9.492 -0.8327  1.1071  1.9544
   83MOL0     H11175   5.446   2.080   9.578 -0.5196 -0.4923  0.8466
   83MOL0     H11176   5.404   2.102   9.412 -0.3653 -3.8360  1.5722
   83MOL0     H11177   5.220   2.114   9.663 -0.5055 -0.9329  0.2408
   83MOL0     H11178   5.174   2.123   9.483  3.9757  1.7977 -2.2908
   83MOL0     H11179   5.308   1.896   9.632 -0.1502  2.4341  0.9596
   83MOL0     H11180   5.259   1.886   9.466  1.1329  1.6505 -0.2745
   83MOL0     H11181   5.083   1.899   9.710  2.5643  0.0525  0.3014
   83MOL0     H11182   5.019   1.931   9.546  0.6978  1.2670 -0.8151
   83MOL0     H11183   5.165   1.670   9.638 -0.6986 -2.2401  0.1914
   83MOL0     H11184   5.121   1.694   9.470  0.4994 -0.1628 -0.1591
   83MOL0     H11185   4.915   1.717   9.690  1.5765  3.0506 -1.2692
   83MOL0     H11186   4.965   1.560   9.609  3.6864  0.3990  0.0125
   83MOL0     H11187   5.784   2.219   9.481 -0.6360 -0.7935 -1.2142
   83MOL0     H11188   6.016   2.323   9.403  1.2238  1.3078 -0.2541
   83MOL0     H11189   6.208   2.606   9.090 -0.3916  0.1755  1.0318
   83MOL0     H11190   6.429   2.654   9.024 -0.4984 -2.1877 -0.6245
   83MOL0     H11191   8.409   2.998   9.520  3.0313  1.8840  0.8662
   83MOL0     H11192   8.622   2.978   9.397  2.2479  0.8928  2.3883
   83MOL0     H11193   9.119   2.891   9.617  2.5563 -2.4945  0.9149
   83MOL0     H11194   9.351   2.876   9.545 -0.6287 -0.0092  1.2552
   83MOL0     H11195   9.545   2.857   9.132 -0.2272  2.5514  1.4417
   83MOL0     H11196   9.392   2.777   9.105 -0.3444  1.7770 -1.9950
   83MOL0     H11197   9.284   2.991   9.174 -0.6058  1.2673 -1.0436
   83MOL0     H11198   9.371   2.979   9.026  1.0165 -1.5543 -0.2743
   83MOL0     H11199   9.577   3.079   9.134 -0.2954 -1.4463  1.4294
   83MOL0     H11200   9.503   3.083   9.286  3.4738 -3.2095 -0.3405
   83MOL0     H11201   9.413   3.252   9.039  0.5055  0.4087  0.2268
   83MOL0     H11202   9.489   3.307   9.190  0.5215 -0.1970 -1.2599
   83MOL0     H11203   9.070   3.225   9.301  0.2847 -0.7496  0.7274
   83MOL0     H11204   9.205   2.725   9.171  0.7189  1.0205  0.0447
   83MOL0     H11205   8.982   2.720   9.239  2.1988  1.1585 -2.4323
   84MOL0     O11206   4.547   1.981  10.417  0.7638  0.1512 -0.2538
   84MOL0     C11207   4.557   1.893  10.333 -0.0598  0.2481 -1.5504
   84MOL0     O11208   4.455   1.859  10.250 -0.2245 -0.0134  0.2311
   84MOL0     C11209   4.343   1.933  10.250 -0.8793 -0.2786 -0.3082
   84MOL0     C11210   4.230   1.870  10.304  0.6306 -0.0938 -0.0304
   84MOL0     C11211   4.112   1.941  10.317 -0.5944  0.3754  0.0887
   84MOL0     C11212   4.114   2.073  10.290  0.5553 -0.2413 -0.8733
   84MOL0     O11213   4.007   2.155  10.332 -0.3701  0.0158 -0.1572
   84MOL0     C11214   3.874   2.102  10.335 -0.3852  0.3288  0.3671
   84MOL0     C11215   3.774   2.222  10.333 -1.3618 -0.9039 -0.2891
   84MOL0     C11216   3.646   2.182  10.274 -0.2932  0.8268 -0.1924
   84MOL0     C11217   3.638   2.206  10.114  0.3076  0.0379 -0.4969
   84MOL0     C11218   3.572   2.336  10.085  0.6115 -0.1357 -0.4028
   84MOL0     C11219   3.422   2.317  10.104 -0.4544  0.0516  0.8195
   84MOL0     C11220   3.356   2.458  10.088 -0.2874  0.4847 -0.2140
   84MOL0     C11221   3.375   2.542  10.215 -0.3295 -0.1072 -0.5350
   84MOL0     N11222   3.277   2.650  10.226  0.3535 -0.3370 -0.0709
   84MOL0     C11223   3.138   2.629  10.227 -0.1446 -0.8127 -1.1143
   84MOL0     C11224   3.092   2.754  10.191  0.1600  0.4321 -0.1437
   84MOL0     C11225   2.940   2.777  10.174 -0.5848  0.1317 -0.6375
   84MOL0     C11226   2.873   2.790  10.300  0.1382 -0.0186 -0.2826
   84MOL0     C11227   2.933   2.900  10.385 -0.0584  0.2570  1.0488
   84MOL0     C11228   2.852   2.926  10.512  0.8307 -0.0685 -0.4790
   84MOL0     O11229   2.716   2.958  10.474  0.2986  0.2902 -0.2379
   84MOL0     C11230   2.623   2.871  10.536 -0.8256  0.1597 -0.4116
   84MOL0     C11231   2.527   2.809  10.456 -0.4904 -0.1335 -0.0090
   84MOL0     C11232   2.414   2.739  10.503 -0.6685  0.0338  0.1447
   84MOL0     C11233   2.312   2.690  10.397 -0.1687 -0.3383 -0.7687
   84MOL0     C11234   2.409   2.720  10.643 -0.6499  1.2251 -0.2026
   84MOL0     C11235   2.300   2.644  10.711  0.4266 -1.1912 -0.0954
   84MOL0     O11236   2.322   2.603  10.841  0.4747 -0.5044  1.0125
   84MOL0     C11237   2.236   2.516  10.904 -0.9405 -0.0092 -0.1408
   84MOL0     C11238   2.236   2.376  10.883 -0.8405 -0.0318  0.3462
   84MOL0     C11239   2.136   2.293  10.937  0.0802  0.6521 -0.1800
   84MOL0     C11240   2.033   2.347  11.018  0.0827  0.5939  0.4276
   84MOL0     O11241   1.926   2.260  11.044 -0.2247  0.1927 -0.0087
   84MOL0     C11242   1.817   2.315  11.121  0.6797  0.5544 -0.5618
   84MOL0     C11243   1.688   2.225  11.106 -0.2786  0.8902  0.4873
   84MOL0     C11244   1.720   2.078  11.094 -0.7522  0.2028 -0.4965
   84MOL0     C11245   1.590   2.003  11.093  0.4653 -0.5570 -0.3321
   84MOL0     C11246   1.607   1.853  11.048  0.1857  0.1867  0.6456
   84MOL0     C11247   1.466   1.789  11.022 -0.3420 -0.0999 -0.4085
   84MOL0     C11248   1.402   1.779  11.164  0.1084  0.7222  0.8801
   84MOL0     C11249   1.275   1.685  11.158 -0.8716 -0.1484 -0.3516
   84MOL0    Cl11250   1.134   1.752  11.063  0.0887  0.1341 -0.4607
   84MOL0     C11251   2.044   2.480  11.051  0.2624  0.4619 -0.3194
   84MOL0     C11252   2.141   2.564  10.996 -0.1696  0.0423  0.2754
   84MOL0     O11253   2.192   2.640  10.656  1.0763 -0.1273 -0.2185
   84MOL0     C11254   2.508   2.785  10.722  0.3137  0.5976  0.4915
   84MOL0     C11255   2.611   2.862  10.673  0.5388  0.3879  0.0017
   84MOL0     N11256   3.198   2.839  10.181  0.0749 -0.3862  0.4181
   84MOL0     N11257   3.308   2.777  10.203  0.6955 -0.3507  0.1343
   84MOL0     C11258   4.229   2.138  10.242  0.4417  0.7270  0.0459
   84MOL0     C11259   4.342   2.066  10.213  0.2688  0.2153 -0.1838
   84MOL0     C11260   4.685   1.819  10.325  0.8287 -0.0997  0.3489
   84MOL0     C11261   4.701   1.739  10.208  0.4282 -0.4283 -0.4940
   84MOL0     C11262   4.828   1.686  10.189 -0.5359  0.6766 -1.1156
   84MOL0     C11263   4.936   1.707  10.282 -0.1054  0.1466  0.2759
   84MOL0     O11264   5.062   1.645  10.259  0.1913  0.3265  0.2223
   84MOL0     C11265   5.184   1.676  10.314 -0.6335 -0.3583 -0.2200
   84MOL0     C11266   5.253   1.791  10.234  0.5497 -0.2509  0.1615
   84MOL0     C11267   5.286   1.743  10.087 -0.2829 -0.0431 -0.3199
   84MOL0     C11268   5.357   1.852  10.000  0.6276 -0.0694 -0.9336
   84MOL0     C11269   5.271   1.960   9.956 -0.8429 -0.0651  0.3902
   84MOL0     C11270   5.199   2.044   9.918 -0.5763 -0.4591 -0.6921
   84MOL0     C11271   4.913   1.793  10.389  0.1735  0.3540  0.0771
   84MOL0     C11272   4.793   1.845  10.408  0.2072 -0.7437  0.0420
   84MOL0     H11273   4.237   1.764  10.328 -1.1356 -0.2178  0.0398
   84MOL0     H11274   4.028   1.894  10.367 -1.9534  1.7437 -0.8049
   84MOL0     H11275   3.847   2.031  10.256  0.0872  0.3731  0.1624
   84MOL0     H11276   3.863   2.051  10.431 -0.9305  1.5267  0.9558
   84MOL0     H11277   3.750   2.265  10.430  0.1397  4.6402 -2.0265
   84MOL0     H11278   3.818   2.305  10.277  0.4419 -0.8748  1.0661
   84MOL0     H11279   3.621   2.076  10.292 -0.5978  1.1370  1.3723
   84MOL0     H11280   3.572   2.237  10.333 -1.5059 -2.0824  1.2129
   84MOL0     H11281   3.738   2.207  10.070  0.7567  2.5236  0.4152
   84MOL0     H11282   3.578   2.129  10.063  0.1680  0.9255 -1.7268
   84MOL0     H11283   3.615   2.409  10.154  2.2459 -2.4583  1.1772
   84MOL0     H11284   3.592   2.383   9.988  1.1878  1.0925  0.2862
   84MOL0     H11285   3.384   2.257  10.021 -2.0035 -1.7788  2.7308
   84MOL0     H11286   3.401   2.270  10.200  0.8787 -0.1693  1.0135
   84MOL0     H11287   3.387   2.509   9.996  0.1744  1.2414  0.3506
   84MOL0     H11288   3.248   2.442  10.079 -0.8161  2.0745  2.2971
   84MOL0     H11289   3.476   2.583  10.227 -0.2324 -0.1673 -1.1104
   84MOL0     H11290   3.360   2.480  10.303  2.0791  0.4917  0.3926
   84MOL0     H11291   3.097   2.535  10.264  1.7571 -0.9549  0.9011
   84MOL0     H11292   2.922   2.875  10.130  2.0203  0.2083 -1.7018
   84MOL0     H11293   2.897   2.714  10.095  0.4517  0.6740 -1.6636
   84MOL0     H11294   2.879   2.690  10.344 -0.8621 -0.7315 -1.6787
   84MOL0     H11295   2.767   2.803  10.279 -0.7135 -0.0753  3.3968
   84MOL0     H11296   2.938   2.986  10.317  1.1946  0.2574  1.1148
   84MOL0     H11297   3.033   2.876  10.422  1.0146  3.3900  0.4845
   84MOL0     H11298   2.895   3.017  10.556 -0.1770  0.8857 -1.4107
   84MOL0     H11299   2.856   2.845  10.586 -0.4948  1.7379  1.7126
   84MOL0     H11300   2.528   2.829  10.350  0.2432 -0.2970 -0.0349
   84MOL0     H11301   2.208   2.721  10.409 -0.5563 -1.9078  0.2672
   84MOL0     H11302   2.343   2.716  10.295  0.0896  1.1739 -0.3230
   84MOL0     H11303   2.313   2.581  10.408  0.3950 -0.2295  0.3014
   84MOL0     H11304   2.314   2.330  10.823 -0.4772 -0.1340  0.8952
   84MOL0     H11305   2.133   2.187  10.911  1.8454  0.5849 -0.1892
   84MOL0     H11306   1.834   2.330  11.228 -1.9251  1.6998 -0.2157
   84MOL0     H11307   1.795   2.418  11.095  0.4827  1.3193  2.2859
   84MOL0     H11308   1.613   2.238  11.184  0.7852  0.6020  1.6009
   84MOL0     H11309   1.638   2.252  11.013 -0.7639 -1.9233 -0.1501
   84MOL0     H11310   1.782   2.037  11.174  0.4577  1.4689 -0.7419
   84MOL0     H11311   1.776   2.055  11.003 -1.6543 -1.2803 -0.7097
   84MOL0     H11312   1.539   2.006  11.189  0.4392  0.9943 -0.3742
   84MOL0     H11313   1.524   2.046  11.017  1.7822 -2.9566 -3.0652
   84MOL0     H11314   1.658   1.794  11.124 -2.4710 -0.0899  2.3617
   84MOL0     H11315   1.664   1.851  10.955  0.9937  1.0455  1.1005
   84MOL0     H11316   1.397   1.848  10.961 -0.7018  0.6241  0.6794
   84MOL0     H11317   1.468   1.684  10.990  0.9349 -0.9968  2.2858
   84MOL0     H11318   1.381   1.879  11.205  0.4465  1.5906 -0.9588
   84MOL0     H11319   1.465   1.725  11.236  0.3446 -1.2207 -0.7021
   84MOL0     H11320   1.240   1.667  11.260 -0.8518 -2.4022 -0.6824
   84MOL0     H11321   1.300   1.590  11.109  2.2294  1.0826 -1.4249
   84MOL0     H11322   1.973   2.523  11.120 -1.1096 -1.5712 -0.3817
   84MOL0     H11323   2.138   2.669  11.024  2.4945  1.1805 -2.9480
   84MOL0     H11324   2.499   2.783  10.831  2.2796 -1.2641  0.7050
   84MOL0     H11325   2.688   2.895  10.742  1.8149 -0.2810 -1.0621
   84MOL0     H11326   4.222   2.243  10.216 -2.5443  0.4576 -0.5957
   84MOL0     H11327   4.429   2.124  10.182 -1.2902  2.2357 -0.9926
   84MOL0     H11328   4.622   1.732  10.133 -2.6611  2.4245  2.1894
   84MOL0     H11329   4.854   1.614  10.112  0.2507  1.0141 -1.1761
   84MOL0     H11330   5.181   1.718  10.415  0.1897  1.4349 -0.8895
   84MOL0     H11331   5.255   1.593  10.326 -1.8652 -1.3831  0.1349
   84MOL0     H11332   5.338   1.823  10.295  0.1987  2.4383 -0.6512
   84MOL0     H11333   5.176   1.869  10.236  1.3029  0.6040 -1.8739
   84MOL0     H11334   5.192   1.715  10.039  0.4255 -2.4886 -0.3906
   84MOL0     H11335   5.349   1.654  10.092 -3.1930 -2.2652 -0.8242
   84MOL0     H11336   5.401   1.797   9.916  2.3200 -0.1703 -0.0159
   84MOL0     H11337   5.435   1.898  10.061  1.2719 -1.8501 -0.3374
   84MOL0     H11338   5.135   2.125   9.892  0.2523  0.3741 -0.1949
   84MOL0     H11339   4.999   1.818  10.451 -0.6096 -0.2696  1.4382
   84MOL0     H11340   4.782   1.897  10.502 -1.7680 -0.0762 -0.4987
   85MOL0     O11341   2.339   1.001   2.363 -0.2077  0.2100  0.3070
   85MOL0     C11342   2.246   0.944   2.305 -0.6024  0.2437  0.1865
   85MOL0     O11343   2.251   0.820   2.252  0.2672  0.0286  0.0700
   85MOL0     C11344   2.371   0.757   2.259 -0.3247  0.2138 -0.0992
   85MOL0     C11345   2.451   0.747   2.147  0.4886  0.2581 -0.1808
   85MOL0     C11346   2.592   0.717   2.157  0.3499 -0.2950 -1.2699
   85MOL0     C11347   2.646   0.675   2.285 -0.7795  0.6644 -0.2723
   85MOL0     O11348   2.776   0.639   2.311  0.1997  0.1014 -0.2254
   85MOL0     C11349   2.866   0.720   2.246  0.4789  1.1092  0.6842
   85MOL0     C11350   3.010   0.717   2.297 -0.3525  0.1306 -0.2352
   85MOL0     C11351   3.111   0.810   2.212  0.8351  0.2172 -0.7716
   85MOL0     C11352   3.234   0.724   2.158 -0.6191 -0.4714 -0.4747
   85MOL0     C11353   3.346   0.818   2.096  0.5716 -0.0293  0.0912
   85MOL0     C11354   3.446   0.734   2.017 -0.3331 -0.4868  0.2044
   85MOL0     C11355   3.386   0.670   1.891 -0.1701 -0.2042 -0.0297
   85MOL0     C11356   3.493   0.619   1.783 -0.1268  0.5324 -0.7859
   85MOL0     N11357   3.541   0.742   1.727 -0.3538  0.4286 -0.1114
   85MOL0     C11358   3.474   0.821   1.631 -0.2177  0.4945  0.6525
   85MOL0     C11359   3.569   0.917   1.616  0.7452  0.6194  0.1574
   85MOL0     C11360   3.545   1.029   1.515 -0.4973  0.1130  0.9260
   85MOL0     C11361   3.618   1.021   1.376 -0.5465 -0.9825 -0.6199
   85MOL0     C11362   3.549   1.088   1.270  0.8747 -0.5714  0.4825
   85MOL0     C11363   3.549   1.240   1.280 -0.4853  0.1312  0.5980
   85MOL0     O11364   3.443   1.290   1.193 -0.3906  0.0457  0.7083
   85MOL0     C11365   3.312   1.297   1.232  0.3577 -0.8395 -0.3774
   85MOL0     C11366   3.256   1.254   1.356 -0.0230 -0.4706 -1.1485
   85MOL0     C11367   3.118   1.266   1.382  0.8296 -0.3711 -0.4557
   85MOL0     C11368   3.091   1.234   1.532  0.3583  1.0898  0.4428
   85MOL0     C11369   3.023   1.303   1.288 -0.2723  0.0382  0.2291
   85MOL0     C11370   2.875   1.314   1.310 -0.4225  0.5624  0.2282
   85MOL0     O11371   2.812   1.228   1.400  0.0878  0.1125  0.7134
   85MOL0     C11372   2.683   1.239   1.425 -0.1205  0.8334  0.1633
   85MOL0     C11373   2.643   1.260   1.555  0.1798 -0.2331  0.2569
   85MOL0     C11374   2.506   1.253   1.593  0.6801  0.2085  0.2044
   85MOL0     C11375   2.402   1.237   1.494 -0.4902  0.5902 -0.3407
   85MOL0     O11376   2.283   1.221   1.544 -0.0147  0.6725 -0.5246
   85MOL0     C11377   2.196   1.122   1.477 -0.2472  0.3637  0.3440
   85MOL0     C11378   2.104   1.192   1.368 -0.8020 -0.4217 -0.2503
   85MOL0     C11379   1.969   1.233   1.437 -0.3986 -0.3645 -0.7843
   85MOL0     C11380   1.884   1.319   1.339 -0.1783  0.2011 -0.4746
   85MOL0     C11381   1.738   1.345   1.393 -0.0608 -0.6149 -0.2369
   85MOL0     C11382   1.638   1.367   1.283  0.3831  0.0053  0.1295
   85MOL0     C11383   1.496   1.375   1.335  0.4033  0.7113  0.2534
   85MOL0     C11384   1.403   1.472   1.264 -0.7691  0.2778  0.2365
   85MOL0    Cl11385   1.246   1.479   1.354 -0.0365 -0.6027 -0.1530
   85MOL0     C11386   2.449   1.229   1.360 -0.4477  0.4130  0.4223
   85MOL0     C11387   2.586   1.224   1.326 -0.1902  0.0735 -0.6172
   85MOL0     O11388   2.818   1.413   1.263 -0.7963 -0.2142  0.1837
   85MOL0     C11389   3.081   1.351   1.163  0.3656  0.4726 -0.2284
   85MOL0     C11390   3.219   1.350   1.140 -0.6526  0.1419  0.1539
   85MOL0     N11391   3.680   0.900   1.696  0.3309 -0.1557  0.2642
   85MOL0     N11392   3.671   0.788   1.752  0.2758  0.6118  1.1028
   85MOL0     C11393   2.555   0.664   2.387 -0.4496  0.6518 -0.1749
   85MOL0     C11394   2.422   0.703   2.379 -0.1280 -0.5082  0.1532
   85MOL0     C11395   2.121   1.020   2.287 -0.1391 -0.5810 -0.5778
   85MOL0     C11396   2.000   0.961   2.248 -0.6890  0.3872  0.0963
   85MOL0     C11397   1.885   1.039   2.217  0.1729  0.4258  0.6620
   85MOL0     C11398   1.892   1.174   2.250 -0.3627 -0.3187  0.3716
   85MOL0     O11399   1.787   1.260   2.244  0.1328  0.5953  0.0172
   85MOL0     C11400   1.658   1.225   2.208 -0.6928 -0.2102 -0.0920
   85MOL0     C11401   1.588   1.161   2.326  0.4923 -0.6395 -0.0747
   85MOL0     C11402   1.443   1.145   2.283  1.1769 -0.2883 -0.1625
   85MOL0     C11403   1.353   1.088   2.393 -0.0327 -0.1840 -0.1849
   85MOL0     C11404   1.355   1.176   2.505  0.5472 -0.1099 -0.3115
   85MOL0     C11405   1.367   1.251   2.600 -0.7187  0.5386 -0.8592
   85MOL0     C11406   2.011   1.232   2.298  0.4035  0.1699 -0.2427
   85MOL0     C11407   2.124   1.157   2.311 -0.2161 -0.3345  0.0427
   85MOL0     H11408   2.404   0.786   2.057  0.3944  0.4362 -0.0555
   85MOL0     H11409   2.667   0.727   2.079  2.3051 -1.7170  0.3167
   85MOL0     H11410   2.875   0.702   2.138  0.8530  1.5282  0.6399
   85MOL0     H11411   2.825   0.821   2.250 -1.5207  0.3410  0.5238
   85MOL0     H11412   3.010   0.751   2.401 -2.0182 -3.7989  1.2455
   85MOL0     H11413   3.049   0.615   2.303  2.0104  1.0111  0.3451
   85MOL0     H11414   3.067   0.857   2.123  1.0288 -0.2323 -1.1060
   85MOL0     H11415   3.149   0.886   2.280 -1.3119 -2.1069  3.3874
   85MOL0     H11416   3.276   0.672   2.245  0.6417 -3.1983 -2.5926
   85MOL0     H11417   3.199   0.643   2.094  0.1563 -1.0318 -0.2013
   85MOL0     H11418   3.288   0.881   2.027 -3.5275  2.4547  5.1168
   85MOL0     H11419   3.407   0.878   2.164  0.4644 -0.3020  0.4252
   85MOL0     H11420   3.529   0.797   1.985  1.5386 -3.0649 -0.2997
   85MOL0     H11421   3.494   0.658   2.079  1.5860 -1.4156 -2.2955
   85MOL0     H11422   3.328   0.588   1.933  2.2830 -0.9098  2.3395
   85MOL0     H11423   3.319   0.737   1.837 -0.4928  0.6278  1.3453
   85MOL0     H11424   3.437   0.554   1.715 -1.6033  0.9092  0.0347
   85MOL0     H11425   3.572   0.557   1.825  0.7256  1.0322 -1.6020
   85MOL0     H11426   3.373   0.818   1.591 -0.3804  0.7814  1.0294
   85MOL0     H11427   3.441   1.015   1.486  0.1155 -0.5716 -1.0982
   85MOL0     H11428   3.558   1.131   1.553 -1.7223  1.1360 -1.2193
   85MOL0     H11429   3.623   0.916   1.346  0.8167 -0.9428 -0.5967
   85MOL0     H11430   3.718   1.064   1.376 -0.4641 -1.1186  0.7895
   85MOL0     H11431   3.449   1.044   1.272  0.1547  0.9325 -0.3519
   85MOL0     H11432   3.591   1.067   1.171 -2.5727 -2.4189 -0.7341
   85MOL0     H11433   3.646   1.273   1.242  0.7057 -2.9735  0.7040
   85MOL0     H11434   3.532   1.291   1.375 -0.3972 -0.0136  0.6914
   85MOL0     H11435   3.316   1.205   1.432 -1.8110 -0.2821  0.4630
   85MOL0     H11436   3.065   1.129   1.548 -1.0648  0.5415 -4.0159
   85MOL0     H11437   3.179   1.251   1.594  0.8310 -1.8904  0.7394
   85MOL0     H11438   3.003   1.283   1.575 -0.4492 -0.8387  1.1160
   85MOL0     H11439   2.720   1.269   1.630  0.8418 -0.9453 -0.3288
   85MOL0     H11440   2.466   1.279   1.691  0.1375  1.0999 -0.2312
   85MOL0     H11441   2.265   1.052   1.431  0.1721 -1.0549  2.9426
   85MOL0     H11442   2.135   1.070   1.552 -0.8280 -1.3075 -1.2037
   85MOL0     H11443   2.160   1.279   1.332  0.1490 -0.3343  1.3404
   85MOL0     H11444   2.092   1.128   1.279 -1.5612 -1.5363  0.6168
   85MOL0     H11445   1.997   1.295   1.523 -1.6448 -2.1282  1.0058
   85MOL0     H11446   1.914   1.145   1.472  1.1417 -0.6216  1.1692
   85MOL0     H11447   1.935   1.414   1.326  0.5548  0.2334  2.0308
   85MOL0     H11448   1.874   1.259   1.248 -0.4139 -1.1312  0.3907
   85MOL0     H11449   1.739   1.417   1.475 -1.6743 -1.0747  0.2217
   85MOL0     H11450   1.695   1.256   1.440  2.8189 -0.3746  3.2541
   85MOL0     H11451   1.651   1.459   1.225  1.4209 -1.5118 -2.2014
   85MOL0     H11452   1.644   1.295   1.201 -2.2417  1.4867 -1.5071
   85MOL0     H11453   1.496   1.400   1.442 -3.3190 -0.8031  0.7309
   85MOL0     H11454   1.436   1.286   1.317  2.3552 -0.0547 -3.4203
   85MOL0     H11455   1.396   1.438   1.160  0.7597 -1.7819  0.7505
   85MOL0     H11456   1.448   1.571   1.259  1.2616 -0.6252 -0.3274
   85MOL0     H11457   2.380   1.220   1.277 -0.2800  1.2336  0.1865
   85MOL0     H11458   2.623   1.203   1.226 -0.1124  1.1464 -0.8165
   85MOL0     H11459   3.023   1.395   1.083 -0.0083  1.5335  0.6021
   85MOL0     H11460   3.256   1.374   1.040 -0.6018 -3.8302 -0.9690
   85MOL0     H11461   2.592   0.617   2.478  0.1991  2.7773  0.7229
   85MOL0     H11462   2.352   0.714   2.461 -1.0164 -0.0190 -0.6541
   85MOL0     H11463   1.999   0.853   2.253  4.9449  0.1365  2.1473
   85MOL0     H11464   1.797   0.983   2.185  2.6778 -2.2265 -2.3812
   85MOL0     H11465   1.607   1.321   2.192 -1.8167 -1.1800 -2.8142
   85MOL0     H11466   1.644   1.174   2.113  0.2783  1.2483 -1.0605
   85MOL0     H11467   1.605   1.213   2.421 -0.0562 -2.5026  1.0982
   85MOL0     H11468   1.629   1.062   2.349  0.7005 -0.0616  2.2270
   85MOL0     H11469   1.432   1.079   2.196 -1.5618  1.0128 -0.9179
   85MOL0     H11470   1.394   1.241   2.266 -1.2445 -1.2927  0.6582
   85MOL0     H11471   1.383   0.987   2.420 -0.5689  0.1679  1.8520
   85MOL0     H11472   1.256   1.076   2.344  0.7193 -1.0648 -1.5418
   85MOL0     H11473   1.388   1.304   2.691 -0.2346 -0.6815 -0.2324
   85MOL0     H11474   2.018   1.340   2.306  0.7832  0.1308 -0.0158
   85MOL0     H11475   2.219   1.205   2.333 -0.2454 -0.7618  1.1593
   86MOL0     O11476   7.106   0.014   8.294 -0.5294 -0.3326  0.1043
   86MOL0     C11477   7.110   0.142   8.282 -0.4739  0.3160  0.6060
   86MOL0     O11478   7.008   0.220   8.239 -0.5438  0.4098 -0.9155
   86MOL0     C11479   6.891   0.160   8.204  0.4488 -0.0307  0.4585
   86MOL0     C11480   6.836   0.185   8.078  0.9386  0.2056  0.2745
   86MOL0     C11481   6.706   0.145   8.053  0.2211 -0.6049 -0.6970
   86MOL0     C11482   6.628   0.066   8.144 -0.1486 -0.1505 -0.0392
   86MOL0     O11483   6.507   0.039   8.111  0.3353 -0.1910  0.7106
   86MOL0     C11484   6.453  -0.092   8.120  0.4081  0.6651 -0.3865
   86MOL0     C11485   6.319  -0.081   8.049  1.0566 -0.7603  0.0039
   86MOL0     C11486   6.238  -0.210   8.082  0.0364  0.2029 -0.8460
   86MOL0     C11487   6.100  -0.180   8.029  0.5745 -0.9369  0.3332
   86MOL0     C11488   5.989  -0.267   8.072 -0.0411  0.0596 -0.3857
   86MOL0     C11489   6.032  -0.416   8.059  0.2052  0.7449  0.0393
   86MOL0     C11490   5.904  -0.501   8.043  0.0299 -0.5768 -0.2395
   86MOL0     C11491   5.952  -0.650   8.031  0.0888 -0.4283 -0.1867
   86MOL0     N11492   5.837  -0.742   8.028 -0.2059  0.0151 -0.3861
   86MOL0     C11493   5.783  -0.827   8.125  0.2348 -0.1671  0.3569
   86MOL0     C11494   5.680  -0.898   8.080 -0.7239  0.1755 -0.3451
   86MOL0     C11495   5.620  -0.989   8.176  0.6892  0.3879  0.0914
   86MOL0     C11496   5.572  -1.112   8.103  0.4082  0.1980  0.2914
   86MOL0     C11497   5.540  -1.234   8.194 -0.2806 -0.5527  0.4705
   86MOL0     C11498   5.541  -1.372   8.118 -0.8957  0.4028  1.1512
   86MOL0     O11499   5.438  -1.369   8.015  0.3531 -0.3667 -0.6969
   86MOL0     C11500   5.299  -1.386   8.046 -0.2081 -0.4784  0.6082
   86MOL0     C11501   5.251  -1.434   8.167  0.2868  0.1248  0.9099
   86MOL0     C11502   5.115  -1.442   8.189  0.3522  0.1271  1.0266
   86MOL0     C11503   5.079  -1.507   8.318  0.5267 -0.8536  0.0425
   86MOL0     C11504   5.021  -1.386   8.098  0.4427 -0.1764 -0.4880
   86MOL0     C11505   4.872  -1.378   8.128  0.0244  0.2123 -0.2475
   86MOL0     O11506   4.795  -1.359   8.014 -0.3616 -0.0795 -0.4977
   86MOL0     C11507   4.661  -1.382   8.029  0.2357  0.0781 -0.0122
   86MOL0     C11508   4.569  -1.301   7.964  0.5752 -0.7680  0.1539
   86MOL0     C11509   4.435  -1.322   7.961 -0.2887  0.2090  0.1170
   86MOL0     C11510   4.378  -1.429   8.026 -0.4604  1.6694 -0.5033
   86MOL0     O11511   4.248  -1.477   8.004  0.5695  0.3173  0.2825
   86MOL0     C11512   4.141  -1.377   7.999 -0.1516 -0.2591  1.0265
   86MOL0     C11513   4.038  -1.413   7.883  0.1194 -0.3380  0.0299
   86MOL0     C11514   3.922  -1.310   7.872  0.1428  0.4777  1.1717
   86MOL0     C11515   3.968  -1.183   7.797  0.3389 -0.4013 -0.2073
   86MOL0     C11516   3.869  -1.067   7.808 -0.1023 -0.6212  0.1123
   86MOL0     C11517   3.739  -1.098   7.736  0.8364  0.0144  0.0294
   86MOL0     C11518   3.649  -0.988   7.792  0.3743  0.3735 -0.1166
   86MOL0     C11519   3.513  -0.985   7.710  0.3473 -0.5177  0.5046
   86MOL0    Cl11520   3.422  -0.847   7.770  0.2311  0.3766 -0.1229
   86MOL0     C11521   4.462  -1.510   8.101  0.1969 -0.4780  0.0363
   86MOL0     C11522   4.606  -1.490   8.102  0.5127  1.2533  0.0220
   86MOL0     O11523   4.831  -1.402   8.241  0.2297 -0.3257 -0.2728
   86MOL0     C11524   5.074  -1.346   7.971 -0.3858  0.1838  0.4095
   86MOL0     C11525   5.210  -1.353   7.943 -0.8586 -0.0969  0.0618
   86MOL0     N11526   5.680  -0.867   7.950  0.2668  0.6173  0.1403
   86MOL0     N11527   5.782  -0.789   7.917 -0.5198  1.1984  0.7087
   86MOL0     C11528   6.683   0.031   8.268  0.1233  0.4895  1.3109
   86MOL0     C11529   6.812   0.082   8.301  0.1203 -0.2230  0.0896
   86MOL0     C11530   7.234   0.217   8.310  0.0317  0.8206 -0.0362
   86MOL0     C11531   7.234   0.361   8.332 -0.1968 -0.2637  0.0602
   86MOL0     C11532   7.355   0.426   8.350 -0.3884  0.5392 -0.5053
   86MOL0     C11533   7.482   0.362   8.344 -0.4429  0.1997 -0.2144
   86MOL0     O11534   7.600   0.424   8.358  0.6467 -0.3249  0.4162
   86MOL0     C11535   7.640   0.497   8.245 -0.2161 -0.9253  0.2366
   86MOL0     C11536   7.777   0.559   8.262 -0.1049  0.6110  0.8108
   86MOL0     C11537   7.880   0.444   8.291  0.5006 -0.0129 -0.5945
   86MOL0     C11538   8.026   0.507   8.292  0.4927 -0.6444  0.0377
   86MOL0     C11539   8.118   0.402   8.314  0.0923 -0.9797 -0.1869
   86MOL0     C11540   8.189   0.306   8.322 -0.0082 -0.1151  0.6154
   86MOL0     C11541   7.470   0.222   8.336  0.2820 -0.8624 -0.4042
   86MOL0     C11542   7.358   0.149   8.311  0.3116 -0.5626 -0.4949
   86MOL0     H11543   6.885   0.254   8.009 -1.7545  0.9287 -1.0587
   86MOL0     H11544   6.648   0.163   7.962 -0.0641 -0.5521 -0.5069
   86MOL0     H11545   6.518  -0.171   8.084  0.5918 -0.1503  1.6211
   86MOL0     H11546   6.431  -0.112   8.225 -2.3476 -3.7611 -1.5620
   86MOL0     H11547   6.262   0.011   8.065  0.9200 -0.1077 -3.4969
   86MOL0     H11548   6.336  -0.072   7.942  0.0124 -2.2331 -0.3199
   86MOL0     H11549   6.273  -0.292   8.019  1.5750  0.3379 -0.2029
   86MOL0     H11550   6.250  -0.243   8.186  0.3661  2.0780 -0.2520
   86MOL0     H11551   6.073  -0.080   8.065 -0.6896 -1.4117  0.7456
   86MOL0     H11552   6.098  -0.170   7.920  0.8365  1.7720  0.5072
   86MOL0     H11553   5.960  -0.241   8.174 -4.3690 -1.7547 -0.9307
   86MOL0     H11554   5.903  -0.246   8.008 -0.6818 -2.7434 -0.5722
   86MOL0     H11555   6.094  -0.434   7.971  1.8328 -2.5770  1.6757
   86MOL0     H11556   6.082  -0.445   8.152  0.8440  3.5567  0.6536
   86MOL0     H11557   5.835  -0.499   8.129  2.0114  2.3070  1.4901
   86MOL0     H11558   5.842  -0.466   7.960  3.2980  0.5662 -2.3938
   86MOL0     H11559   6.017  -0.686   8.111 -3.4170  1.6457  4.0624
   86MOL0     H11560   6.004  -0.661   7.936 -1.3892  1.7902 -1.3442
   86MOL0     H11561   5.823  -0.838   8.225 -0.9224  0.1781  0.8739
   86MOL0     H11562   5.690  -1.012   8.257  1.8963  0.1849 -0.9874
   86MOL0     H11563   5.531  -0.935   8.211  1.9059  1.5989  1.4199
   86MOL0     H11564   5.647  -1.151   8.033 -1.6246 -1.6546 -1.0101
   86MOL0     H11565   5.491  -1.092   8.032  0.3571  1.6709  0.7439
   86MOL0     H11566   5.436  -1.227   8.225 -0.0821 -1.4977  1.4201
   86MOL0     H11567   5.605  -1.250   8.280  0.4862  0.6322  0.1399
   86MOL0     H11568   5.511  -1.447   8.192  3.1914 -1.1482  1.4730
   86MOL0     H11569   5.637  -1.406   8.078 -1.5961  0.2175 -0.4242
   86MOL0     H11570   5.314  -1.474   8.246 -1.1807  0.2204  2.1734
   86MOL0     H11571   5.172  -1.543   8.364  1.7900  2.3109  0.2169
   86MOL0     H11572   5.034  -1.424   8.374  0.5985  1.9132 -3.5853
   86MOL0     H11573   5.002  -1.584   8.308 -0.4755  0.3158 -1.7695
   86MOL0     H11574   4.600  -1.217   7.902 -2.0072  1.1623  1.2823
   86MOL0     H11575   4.373  -1.270   7.888  1.4141  1.3784 -0.5662
   86MOL0     H11576   4.090  -1.380   8.096 -0.8634  0.3070  0.6760
   86MOL0     H11577   4.181  -1.277   7.980  0.3015 -0.8901 -1.8074
   86MOL0     H11578   4.097  -1.413   7.791  2.6683  2.3938  1.5043
   86MOL0     H11579   3.999  -1.514   7.902  0.7716 -0.6693 -0.3837
   86MOL0     H11580   3.869  -1.292   7.966 -4.0881 -0.0354 -0.8876
   86MOL0     H11581   3.853  -1.365   7.808  0.8835 -1.3150  1.8697
   86MOL0     H11582   4.067  -1.151   7.833 -0.4185  0.9211  0.8058
   86MOL0     H11583   3.978  -1.210   7.692  1.7015  2.2400 -0.8393
   86MOL0     H11584   3.907  -0.973   7.767 -0.2050  1.0148  3.4508
   86MOL0     H11585   3.856  -1.056   7.916 -1.6119 -1.3679  0.0287
   86MOL0     H11586   3.743  -1.094   7.627  0.4272 -0.5214 -0.0054
   86MOL0     H11587   3.703  -1.198   7.760 -0.9624  0.3595 -1.0815
   86MOL0     H11588   3.703  -0.896   7.767  3.0815 -0.6534  1.5444
   86MOL0     H11589   3.632  -0.993   7.900 -3.1235  0.7675 -0.5517
   86MOL0     H11590   3.459  -1.079   7.723 -0.3364 -0.3815 -1.0695
   86MOL0     H11591   3.534  -0.973   7.603  2.2171 -0.0365  0.8778
   86MOL0     H11592   4.410  -1.594   8.146 -1.0496 -0.0811 -0.6238
   86MOL0     H11593   4.669  -1.558   8.158 -0.4696  1.1464  1.0324
   86MOL0     H11594   5.010  -1.299   7.897  0.1023  1.0803  0.5391
   86MOL0     H11595   5.242  -1.319   7.845  0.4068  1.3997  0.9420
   86MOL0     H11596   6.615  -0.037   8.317 -0.4833 -1.8194 -2.3784
   86MOL0     H11597   6.854   0.055   8.397  1.0084 -0.1884 -0.2783
   86MOL0     H11598   7.145   0.423   8.335 -0.5923 -0.8537  0.8005
   86MOL0     H11599   7.352   0.533   8.369  3.3486  1.0022 -1.6863
   86MOL0     H11600   7.631   0.433   8.157 -1.5523  0.4072 -0.6475
   86MOL0     H11601   7.565   0.578   8.242  0.5908  0.1405  3.7427
   86MOL0     H11602   7.773   0.621   8.352 -1.3951 -0.8627  1.8159
   86MOL0     H11603   7.793   0.613   8.168  1.2844 -2.2942 -0.7389
   86MOL0     H11604   7.883   0.375   8.207  0.5538  0.7654 -1.2485
   86MOL0     H11605   7.867   0.390   8.385 -1.3103  2.2848  0.6003
   86MOL0     H11606   8.034   0.575   8.378 -1.6881  0.7975 -0.8106
   86MOL0     H11607   8.049   0.564   8.202  0.3724  1.5475  1.3122
   86MOL0     H11608   8.257   0.225   8.338 -0.4046 -0.5499  0.1606
   86MOL0     H11609   7.562   0.164   8.345 -1.1263 -3.1114  0.1896
   86MOL0     H11610   7.368   0.041   8.307 -1.5133 -0.8340  0.7646
   87MOL0     O11611   8.480   8.917   6.558 -0.0195  0.3504 -0.8116
   87MOL0     C11612   8.558   8.842   6.504  0.4665  0.2929 -0.5759
   87MOL0     O11613   8.519   8.724   6.439  0.1972  0.7454 -0.7426
   87MOL0     C11614   8.388   8.712   6.395 -0.5391  1.3090 -0.2151
   87MOL0     C11615   8.341   8.807   6.308 -0.2115 -0.3249  0.1127
   87MOL0     C11616   8.211   8.790   6.251 -0.1267 -0.2747  0.0328
   87MOL0     C11617   8.127   8.674   6.282 -0.2681 -0.5330 -0.3220
   87MOL0     O11618   8.008   8.641   6.229 -0.5487  0.1334  0.3406
   87MOL0     C11619   7.990   8.644   6.081  0.3542  0.1861 -0.5828
   87MOL0     C11620   7.852   8.692   6.052 -0.2291 -0.4691 -0.2254
   87MOL0     C11621   7.734   8.607   6.102  0.2007 -1.0413 -0.5022
   87MOL0     C11622   7.599   8.641   6.022 -0.6506  0.1768  0.2105
   87MOL0     C11623   7.498   8.539   6.063  0.0563 -0.1869  0.1445
   87MOL0     C11624   7.359   8.602   6.029 -1.2394  0.6829  0.2326
   87MOL0     C11625   7.254   8.503   6.080  0.4610 -0.7784 -0.2359
   87MOL0     C11626   7.113   8.546   6.038  0.7364  0.7309 -0.3401
   87MOL0     N11627   7.018   8.434   6.059  0.5927  0.1662 -0.4916
   87MOL0     C11628   6.899   8.439   5.994 -0.3940 -0.0307 -0.4992
   87MOL0     C11629   6.838   8.321   6.024  0.1135 -0.1887 -0.0264
   87MOL0     C11630   6.705   8.265   5.988 -0.5414  0.0810 -0.8212
   87MOL0     C11631   6.611   8.242   6.109  0.1997  0.1778  0.9087
   87MOL0     C11632   6.473   8.251   6.048  0.0522  0.4240  0.1164
   87MOL0     C11633   6.360   8.244   6.153 -0.7494  0.2874  1.2227
   87MOL0     O11634   6.243   8.295   6.101  0.0508 -0.0889  0.6240
   87MOL0     C11635   6.136   8.323   6.183 -0.2496  0.2031  0.1864
   87MOL0     C11636   6.119   8.283   6.311  0.4070  0.3114 -0.8483
   87MOL0     C11637   6.007   8.305   6.385  0.2999  0.7704 -0.1605
   87MOL0     C11638   6.001   8.272   6.535  0.5398  0.0066 -0.1891
   87MOL0     C11639   5.897   8.369   6.329  0.3273 -0.4737  0.2871
   87MOL0     C11640   5.761   8.388   6.393  0.3108  0.5221  0.1386
   87MOL0     O11641   5.659   8.443   6.312 -0.1432 -0.0819  0.1865
   87MOL0     C11642   5.531   8.423   6.350 -0.5948 -0.2239 -0.1309
   87MOL0     C11643   5.486   8.300   6.403  1.0006 -0.4360 -0.0327
   87MOL0     C11644   5.357   8.291   6.463 -0.5343  0.0663  0.6841
   87MOL0     C11645   5.269   8.395   6.468  0.3863 -0.2105  0.0351
   87MOL0     O11646   5.139   8.412   6.515 -0.1160 -0.3109 -0.3830
   87MOL0     C11647   5.060   8.305   6.575 -0.0660 -0.1185 -0.4204
   87MOL0     C11648   4.934   8.368   6.629 -0.1975  0.4094 -0.6051
   87MOL0     C11649   4.833   8.262   6.663 -0.2321  0.0534 -0.3844
   87MOL0     C11650   4.698   8.327   6.699  0.8493  0.1925  1.1347
   87MOL0     C11651   4.581   8.228   6.708  0.2726 -0.4477  0.2454
   87MOL0     C11652   4.437   8.282   6.711  0.1023  0.3002  0.3478
   87MOL0     C11653   4.337   8.165   6.715 -0.4115  0.1678  0.0676
   87MOL0     C11654   4.323   8.100   6.581 -0.1846 -0.5070  0.3047
   87MOL0    Cl11655   4.205   7.965   6.604  0.2414  0.1183  0.2699
   87MOL0     C11656   5.318   8.519   6.423 -0.6419 -0.0239  0.1661
   87MOL0     C11657   5.447   8.533   6.360  1.0566  0.6264  0.2845
   87MOL0     O11658   5.736   8.356   6.511 -0.4468  0.2129  0.5013
   87MOL0     C11659   5.911   8.420   6.193 -0.1166 -0.2093  0.0693
   87MOL0     C11660   6.027   8.385   6.127  0.0024 -0.6176  0.4825
   87MOL0     N11661   6.930   8.252   6.103 -0.2481 -0.5159  0.1743
   87MOL0     N11662   7.036   8.314   6.121 -0.1267 -0.3580  0.7196
   87MOL0     C11663   8.179   8.593   6.384  0.9263  0.2091 -0.1493
   87MOL0     C11664   8.308   8.601   6.432  0.0635 -0.0210  0.7656
   87MOL0     C11665   8.700   8.870   6.508  0.0002  0.4100 -0.3081
   87MOL0     C11666   8.798   8.790   6.435 -0.0732  0.9279  0.1884
   87MOL0     C11667   8.929   8.828   6.428 -0.0634 -0.8328 -0.2498
   87MOL0     C11668   8.976   8.933   6.502 -0.5764  0.8661 -1.5131
   87MOL0     O11669   9.103   8.978   6.510  0.1426  0.1897  0.5140
   87MOL0     C11670   9.209   8.947   6.424  0.4742 -1.1114 -0.0532
   87MOL0     C11671   9.295   8.847   6.500  0.4402 -0.2286  0.0910
   87MOL0     C11672   9.431   8.834   6.431 -0.2628 -0.1613 -0.1786
   87MOL0     C11673   9.437   8.799   6.279 -0.1150 -0.0409  1.0751
   87MOL0     C11674   9.355   8.683   6.238  0.1353 -0.1694  0.3450
   87MOL0     C11675   9.282   8.587   6.197  0.3300 -0.3764  0.2091
   87MOL0     C11676   8.888   8.993   6.596  0.5018  0.0671 -0.2608
   87MOL0     C11677   8.750   8.962   6.597 -0.2182 -0.4822  0.2015
   87MOL0     H11678   8.409   8.889   6.287 -1.3620  0.3186 -1.2147
   87MOL0     H11679   8.162   8.854   6.178 -0.9714 -0.6717  0.2318
   87MOL0     H11680   8.065   8.713   6.042  1.9664 -0.3273  1.4245
   87MOL0     H11681   8.005   8.541   6.046  1.5088  0.6472 -1.5022
   87MOL0     H11682   7.842   8.796   6.085 -2.9600 -0.9326  0.6919
   87MOL0     H11683   7.840   8.699   5.944 -0.4416  2.2336 -0.0994
   87MOL0     H11684   7.762   8.502   6.092  3.4998 -0.1033 -2.6898
   87MOL0     H11685   7.717   8.628   6.208  0.3918 -3.8431  0.1693
   87MOL0     H11686   7.571   8.745   6.040  2.9393  1.8919 -2.7363
   87MOL0     H11687   7.621   8.644   5.915  0.0154 -0.1252  0.3307
   87MOL0     H11688   7.526   8.445   6.015  1.6773 -0.4102  1.4186
   87MOL0     H11689   7.509   8.528   6.172  0.2697 -1.7960 -0.0260
   87MOL0     H11690   7.346   8.693   6.089  1.5585  0.8592  0.7027
   87MOL0     H11691   7.353   8.624   5.923 -4.3369  1.2822  0.4391
   87MOL0     H11692   7.272   8.403   6.040 -0.0571 -1.7355  1.8421
   87MOL0     H11693   7.258   8.499   6.189  1.2377  3.4295  0.0469
   87MOL0     H11694   7.112   8.585   5.935  2.1517 -3.5778 -2.2019
   87MOL0     H11695   7.085   8.628   6.105  0.1801  2.1884 -2.2420
   87MOL0     H11696   6.864   8.524   5.936  0.5916  0.6185 -0.1566
   87MOL0     H11697   6.657   8.330   5.914 -2.7833  2.4802  2.3999
   87MOL0     H11698   6.721   8.166   5.947  1.3816 -0.2467  0.5808
   87MOL0     H11699   6.630   8.311   6.192  2.8901 -0.8447  1.2708
   87MOL0     H11700   6.627   8.140   6.145 -1.3985 -0.3027  0.3544
   87MOL0     H11701   6.451   8.169   5.979 -1.6828  0.4098  0.6533
   87MOL0     H11702   6.467   8.341   5.986 -2.9603 -1.1970 -2.2187
   87MOL0     H11703   6.393   8.303   6.239  1.6497 -1.9074  1.9388
   87MOL0     H11704   6.331   8.149   6.199 -1.5315  0.5063  1.1915
   87MOL0     H11705   6.202   8.236   6.361  1.8044  2.4080 -1.0718
   87MOL0     H11706   6.096   8.235   6.575  0.5979  2.1728  1.9023
   87MOL0     H11707   5.954   8.348   6.598 -1.6414  1.0749 -2.8813
   87MOL0     H11708   5.943   8.180   6.549  0.0397  0.2877 -0.4116
   87MOL0     H11709   5.557   8.218   6.411  2.7954  1.0234 -0.2039
   87MOL0     H11710   5.322   8.198   6.507  3.8989 -1.0623  2.3426
   87MOL0     H11711   5.037   8.227   6.502 -0.4258  0.5328 -1.0098
   87MOL0     H11712   5.118   8.254   6.653 -1.5461 -0.1539  0.7125
   87MOL0     H11713   4.950   8.438   6.712  1.6368  0.8615 -1.3015
   87MOL0     H11714   4.891   8.422   6.544  2.2445  1.2800 -1.3563
   87MOL0     H11715   4.877   8.203   6.744  0.0540  2.5224  1.3485
   87MOL0     H11716   4.813   8.198   6.576  0.6020  0.3493 -0.8065
   87MOL0     H11717   4.712   8.378   6.795 -1.7469  0.6746  1.3249
   87MOL0     H11718   4.669   8.394   6.618  1.7765 -3.1726 -2.2718
   87MOL0     H11719   4.603   8.176   6.802 -0.1902 -2.5833 -0.7504
   87MOL0     H11720   4.599   8.151   6.632  1.3124  0.1751 -0.1668
   87MOL0     H11721   4.419   8.349   6.796 -2.0344  1.1709 -0.6907
   87MOL0     H11722   4.421   8.342   6.621  2.0643  1.0628  0.4657
   87MOL0     H11723   4.238   8.206   6.737 -1.6200 -2.4302 -0.1648
   87MOL0     H11724   4.351   8.089   6.792  0.0792 -1.1077 -1.2368
   87MOL0     H11725   4.416   8.045   6.560 -0.0034 -1.1692  2.6147
   87MOL0     H11726   4.307   8.168   6.497  1.5235 -0.7515 -0.2647
   87MOL0     H11727   5.244   8.599   6.423  0.4950  1.1362  2.4183
   87MOL0     H11728   5.480   8.624   6.312 -2.1683 -0.1509 -4.0374
   87MOL0     H11729   5.834   8.482   6.148 -3.8071 -4.3167  0.0102
   87MOL0     H11730   6.022   8.434   6.031 -0.7960  0.5375  1.0956
   87MOL0     H11731   8.127   8.500   6.405 -0.9164  0.9911 -1.0254
   87MOL0     H11732   8.348   8.515   6.486 -2.7465 -2.3241 -0.5138
   87MOL0     H11733   8.767   8.709   6.369  0.0065  1.3157 -0.3316
   87MOL0     H11734   8.986   8.774   6.352  0.0284 -0.2171 -0.6221
   87MOL0     H11735   9.183   8.925   6.320 -2.1153  1.0268  0.0483
   87MOL0     H11736   9.260   9.043   6.434 -1.3884 -0.3623  4.8480
   87MOL0     H11737   9.237   8.755   6.501 -2.3363  1.3679 -1.6560
   87MOL0     H11738   9.311   8.878   6.604 -1.5665 -3.6476  1.5958
   87MOL0     H11739   9.487   8.756   6.484  2.2225  2.1549  0.8163
   87MOL0     H11740   9.489   8.922   6.459  1.8717 -1.3937 -0.5093
   87MOL0     H11741   9.543   8.784   6.255 -0.1688  0.9570  0.1348
   87MOL0     H11742   9.409   8.888   6.221 -0.6442  1.3407  3.3443
   87MOL0     H11743   9.209   8.512   6.174 -0.3936 -0.1278  1.5665
   87MOL0     H11744   8.915   9.068   6.670 -0.9619 -0.2702  0.6543
   87MOL0     H11745   8.699   9.021   6.673  0.6603  1.3491 -0.5653
   88MOL0     O11746   2.560  10.994   9.667 -0.2237 -0.6720  0.0232
   88MOL0     C11747   2.596  10.912   9.587  0.0438 -0.4717 -0.1927
   88MOL0     O11748   2.534  10.878   9.468  0.4270 -0.4507  0.1133
   88MOL0     C11749   2.430  10.959   9.426 -0.4605  0.5958 -0.6170
   88MOL0     C11750   2.436  11.099   9.441  0.5224  0.0889  0.4042
   88MOL0     C11751   2.346  11.182   9.374  0.4477  0.3008  0.5772
   88MOL0     C11752   2.248  11.128   9.287 -0.5012  0.5716  0.6998
   88MOL0     O11753   2.149  11.207   9.232  0.2373  0.3783 -1.4808
   88MOL0     C11754   2.058  11.268   9.324 -0.9052  0.5352  0.6094
   88MOL0     C11755   1.912  11.219   9.315 -0.1865  1.2045 -0.0401
   88MOL0     C11756   1.854  11.237   9.171 -0.1722 -0.9278 -1.7576
   88MOL0     C11757   1.712  11.194   9.174  0.2584  1.4218  1.2115
   88MOL0     C11758   1.632  11.215   9.053 -0.2832 -0.1049  0.3274
   88MOL0     C11759   1.673  11.127   8.925  0.3150 -0.7755 -0.9250
   88MOL0     C11760   1.606  11.187   8.794 -0.3185  0.8693 -1.0044
   88MOL0     C11761   1.461  11.231   8.823 -1.3567 -0.1915  0.1171
   88MOL0     N11762   1.401  11.280   8.699 -0.0717 -0.1215  0.9061
   88MOL0     C11763   1.346  11.204   8.596 -0.0711 -0.1975  1.0812
   88MOL0     C11764   1.298  11.300   8.509  0.0884 -0.2089  0.6882
   88MOL0     C11765   1.244  11.252   8.384  0.0399  0.0395  0.7431
   88MOL0     C11766   1.089  11.271   8.369  0.1726 -0.2636 -0.6195
   88MOL0     C11767   1.063  11.422   8.368 -0.8172 -0.3831 -0.8732
   88MOL0     C11768   0.919  11.461   8.328 -0.0446  0.4380 -0.4072
   88MOL0     O11769   0.839  11.457   8.449 -0.3323 -0.3981  0.4608
   88MOL0     C11770   0.711  11.496   8.431  0.7465  0.5725  0.4252
   88MOL0     C11771   0.646  11.500   8.310 -0.3745 -0.0071 -0.0440
   88MOL0     C11772   0.512  11.526   8.299  0.3800 -0.0492  0.0580
   88MOL0     C11773   0.457  11.483   8.167 -0.2705  0.3742  0.0895
   88MOL0     C11774   0.439  11.572   8.412  0.1182 -1.3384  1.2639
   88MOL0     C11775   0.301  11.635   8.424 -0.1993 -1.0671  0.9933
   88MOL0     O11776   0.252  11.645   8.553  0.2848  0.0744  0.1438
   88MOL0     C11777   0.129  11.679   8.590  0.0390  0.8977 -0.3956
   88MOL0     C11778   0.020  11.711   8.512  0.4030  0.2041  0.0898
   88MOL0     C11779  -0.111  11.732   8.570 -0.2670 -0.2633  0.2889
   88MOL0     C11780  -0.133  11.722   8.711 -0.7990  0.4865  1.1664
   88MOL0     O11781  -0.259  11.741   8.748 -0.0696 -0.3851  0.5253
   88MOL0     C11782  -0.278  11.771   8.890 -0.1971  0.8932  1.1735
   88MOL0     C11783  -0.307  11.649   8.977 -0.3235 -0.3305 -0.4542
   88MOL0     C11784  -0.420  11.560   8.921  0.0952  0.0776  0.3306
   88MOL0     C11785  -0.558  11.627   8.934  0.0368  0.7004 -0.1352
   88MOL0     C11786  -0.649  11.552   8.839  0.4050  0.0218  0.3733
   88MOL0     C11787  -0.676  11.398   8.881 -0.2882 -0.5157 -0.9331
   88MOL0     C11788  -0.796  11.330   8.826 -0.4763  0.6850  0.1396
   88MOL0     C11789  -0.784  11.313   8.671  0.0502 -0.3575 -0.2948
   88MOL0    Cl11790  -0.933  11.288   8.586  0.2850 -0.1560  0.2492
   88MOL0     C11791  -0.016  11.689   8.787 -0.4796  0.7023  0.1480
   88MOL0     C11792   0.110  11.669   8.726  0.5779 -0.1450  0.3585
   88MOL0     O11793   0.240  11.678   8.328 -1.0100 -0.1217  0.6898
   88MOL0     C11794   0.512  11.583   8.529 -0.5730 -0.4083 -0.1197
   88MOL0     C11795   0.642  11.539   8.545  0.3076  0.7248 -0.4574
   88MOL0     N11796   1.309  11.426   8.564  0.1956 -0.0839 -0.1049
   88MOL0     N11797   1.375  11.409   8.673  0.2031  0.5786 -0.0300
   88MOL0     C11798   2.245  10.993   9.269  0.0721  0.2871 -0.3669
   88MOL0     C11799   2.340  10.905   9.333 -0.6841  0.1636 -0.0693
   88MOL0     C11800   2.712  10.830   9.639  0.9330  0.7971 -0.5539
   88MOL0     C11801   2.783  10.877   9.748 -0.6605 -0.8907  0.2548
   88MOL0     C11802   2.896  10.801   9.798 -0.0529 -0.4389 -0.7220
   88MOL0     C11803   2.935  10.687   9.736 -0.3908  0.8014 -0.2226
   88MOL0     O11804   3.040  10.613   9.792 -0.3037  0.3806  0.5608
   88MOL0     C11805   3.045  10.465   9.784 -0.5560  0.0938 -0.1172
   88MOL0     C11806   3.134  10.421   9.656  0.4446  0.2412  0.2888
   88MOL0     C11807   3.280  10.479   9.667  0.6761 -0.0651  0.2488
   88MOL0     C11808   3.365  10.442   9.547  1.0730 -0.6485 -0.6266
   88MOL0     C11809   3.503  10.480   9.570  0.0747 -0.2104  0.5846
   88MOL0     C11810   3.616  10.496   9.598  0.0578 -0.7290 -0.3499
   88MOL0     C11811   2.864  10.644   9.626  0.5156 -0.4420  1.1578
   88MOL0     C11812   2.759  10.714   9.571  1.0823  1.5087  0.2963
   88MOL0     H11813   2.521  11.144   9.491  1.4947 -0.8440 -0.3463
   88MOL0     H11814   2.358  11.289   9.386 -0.0718  0.4239  0.0422
   88MOL0     H11815   2.087  11.251   9.428  1.5128  7.1409  1.4697
   88MOL0     H11816   2.047  11.376   9.317 -0.5824  0.4611 -2.0705
   88MOL0     H11817   1.918  11.113   9.342 -2.5947  0.8748 -0.5720
   88MOL0     H11818   1.847  11.268   9.387 -2.2342 -0.1616 -0.8637
   88MOL0     H11819   1.865  11.344   9.150  4.3139 -0.6129  0.9070
   88MOL0     H11820   1.914  11.204   9.086  3.6262 -0.4475  0.5332
   88MOL0     H11821   1.700  11.086   9.186 -1.3762  1.5703  1.1059
   88MOL0     H11822   1.649  11.239   9.251 -1.8471 -0.0239  0.4284
   88MOL0     H11823   1.529  11.189   9.080 -0.6124 -0.1213 -0.9074
   88MOL0     H11824   1.645  11.320   9.027  3.3725 -0.7146 -0.8248
   88MOL0     H11825   1.780  11.135   8.907  0.1543 -0.3898 -1.7777
   88MOL0     H11826   1.643  11.022   8.936 -1.5029 -0.2507 -0.5793
   88MOL0     H11827   1.668  11.264   8.747  2.6937 -1.0214 -0.4119
   88MOL0     H11828   1.597  11.101   8.726  0.1840  3.0303 -4.0463
   88MOL0     H11829   1.470  11.315   8.892  0.9346  1.7309 -2.2875
   88MOL0     H11830   1.409  11.140   8.855 -1.1048 -1.0971 -1.8864
   88MOL0     H11831   1.339  11.096   8.590 -0.3552 -0.1170 -0.5180
   88MOL0     H11832   1.287  11.311   8.303 -2.3111  0.5453 -0.2102
   88MOL0     H11833   1.263  11.144   8.377  1.5612  0.2886  0.6555
   88MOL0     H11834   1.035  11.219   8.448  1.4777 -0.0032  0.5000
   88MOL0     H11835   1.058  11.226   8.274 -1.8986  1.8406 -1.0239
   88MOL0     H11836   1.127  11.477   8.299 -1.9431  1.0747 -0.8000
   88MOL0     H11837   1.080  11.460   8.469 -2.4941 -2.1232  0.1446
   88MOL0     H11838   0.887  11.381   8.261  2.8185 -3.0683  2.0347
   88MOL0     H11839   0.916  11.562   8.287  3.8191  1.4034  1.1896
   88MOL0     H11840   0.693  11.471   8.217  0.4632 -0.9881  0.6650
   88MOL0     H11841   0.389  11.400   8.187  0.8696  0.0471  3.2582
   88MOL0     H11842   0.407  11.573   8.130 -0.8960  0.9520  2.1567
   88MOL0     H11843   0.531  11.445   8.097 -0.0365  1.2795 -0.1712
   88MOL0     H11844   0.032  11.716   8.404 -0.7639 -0.2147 -0.0785
   88MOL0     H11845  -0.189  11.760   8.501  1.7723  1.5983 -1.3917
   88MOL0     H11846  -0.189  11.823   8.927  1.1784 -0.9183  0.5553
   88MOL0     H11847  -0.360  11.843   8.883 -1.3243 -0.4940 -0.8482
   88MOL0     H11848  -0.216  11.589   8.991  0.4488 -0.2793 -4.1367
   88MOL0     H11849  -0.339  11.672   9.079  3.2866 -2.5696  1.3914
   88MOL0     H11850  -0.417  11.466   8.979  3.1934 -0.2864 -0.2446
   88MOL0     H11851  -0.388  11.535   8.820 -0.5738 -0.7883  0.3189
   88MOL0     H11852  -0.605  11.633   9.033 -2.3240  2.3181 -1.2714
   88MOL0     H11853  -0.545  11.731   8.905  0.6238  0.8923  0.7687
   88MOL0     H11854  -0.601  11.556   8.741 -0.5047 -1.1945 -0.1500
   88MOL0     H11855  -0.742  11.610   8.837 -1.0386 -2.2042 -0.8320
   88MOL0     H11856  -0.595  11.328   8.858  2.0439  1.4676  0.7350
   88MOL0     H11857  -0.682  11.405   8.990  0.1539  0.9555 -0.9760
   88MOL0     H11858  -0.879  11.401   8.827 -1.8013 -0.7475  2.5032
   88MOL0     H11859  -0.828  11.236   8.873  0.8918  0.0267 -0.1986
   88MOL0     H11860  -0.722  11.225   8.650 -0.0881  0.0615 -2.7345
   88MOL0     H11861  -0.740  11.403   8.626 -1.6284  1.6908  1.9019
   88MOL0     H11862  -0.020  11.681   8.895 -2.1521 -1.3316  0.0080
   88MOL0     H11863   0.192  11.665   8.796 -0.9317  0.1337  2.2199
   88MOL0     H11864   0.470  11.622   8.621 -2.6951 -0.2325 -1.1031
   88MOL0     H11865   0.704  11.531   8.633  1.5039  0.0904 -1.3203
   88MOL0     H11866   2.169  10.954   9.203  1.0793 -0.8186 -0.9203
   88MOL0     H11867   2.333  10.799   9.312 -0.9089  0.4204 -1.3665
   88MOL0     H11868   2.756  10.971   9.795 -1.5698  0.3283 -2.5270
   88MOL0     H11869   2.954  10.844   9.879  0.4818  1.2055 -1.9221
   88MOL0     H11870   3.080  10.425   9.880 -1.1925  0.2236  0.1767
   88MOL0     H11871   2.947  10.422   9.761 -0.9333 -0.0060  1.4951
   88MOL0     H11872   3.091  10.464   9.566 -0.4896  1.0012  1.0728
   88MOL0     H11873   3.138  10.313   9.639  1.1039  0.1741  0.8315
   88MOL0     H11874   3.332  10.447   9.758 -0.9393  0.7584  1.5161
   88MOL0     H11875   3.283  10.587   9.681 -0.4607  0.2216 -1.3897
   88MOL0     H11876   3.325  10.489   9.457 -1.6377 -1.7853 -0.1264
   88MOL0     H11877   3.376  10.334   9.531  1.3528 -0.4176 -2.0793
   88MOL0     H11878   3.719  10.521   9.614  0.2945 -0.4487 -2.1267
   88MOL0     H11879   2.895  10.554   9.575 -3.5875 -1.4175 -0.0209
   88MOL0     H11880   2.705  10.668   9.489  0.8896 -0.2012  1.3327
   89MOL0     O11881   3.904   4.181   2.842 -0.2384  0.0956  0.4762
   89MOL0     C11882   4.006   4.196   2.913  0.2823  0.0102  0.3195
   89MOL0     O11883   4.015   4.290   3.016  0.1144  0.8463 -0.1720
   89MOL0     C11884   3.903   4.358   3.043 -0.1282  0.6504  0.4608
   89MOL0     C11885   3.879   4.467   2.957  0.8045  0.3844  0.1808
   89MOL0     C11886   3.769   4.550   2.979  0.5692 -0.0482 -0.2175
   89MOL0     C11887   3.684   4.526   3.089  0.0823 -0.3819  0.5806
   89MOL0     O11888   3.578   4.609   3.102 -0.0108  0.2696 -0.3301
   89MOL0     C11889   3.540   4.631   3.244 -0.9010  0.2824  0.2308
   89MOL0     C11890   3.454   4.755   3.264 -0.0077 -0.0566 -0.1515
   89MOL0     C11891   3.313   4.714   3.245  0.8615  0.0572  0.5660
   89MOL0     C11892   3.214   4.780   3.342  0.4514 -0.4632  0.4907
   89MOL0     C11893   3.073   4.748   3.302  0.7967 -0.0580  0.2785
   89MOL0     C11894   2.969   4.799   3.398 -0.1205 -0.1917 -0.6956
   89MOL0     C11895   2.994   4.779   3.562  0.9971 -0.4205 -0.5158
   89MOL0     C11896   2.865   4.764   3.647 -0.7636  0.0049  0.0689
   89MOL0     N11897   2.910   4.734   3.784 -0.1795 -0.3557 -0.8264
   89MOL0     C11898   2.865   4.808   3.893 -0.5275 -0.6071 -0.7100
   89MOL0     C11899   2.913   4.742   4.008 -0.5649 -0.1250 -0.0933
   89MOL0     C11900   2.889   4.806   4.143 -0.5933  0.2242 -0.2802
   89MOL0     C11901   2.741   4.830   4.174  0.0662  0.3524  0.5984
   89MOL0     C11902   2.647   4.710   4.152  0.8014 -0.1251 -0.5298
   89MOL0     C11903   2.653   4.606   4.274  0.0562 -0.8911 -0.1585
   89MOL0     O11904   2.549   4.514   4.243 -0.1090  0.0326 -0.2967
   89MOL0     C11905   2.440   4.489   4.334 -0.2075 -0.3848  1.1121
   89MOL0     C11906   2.458   4.487   4.474 -0.2210  0.6539 -0.2703
   89MOL0     C11907   2.349   4.492   4.559  0.4783 -0.0606  0.0628
   89MOL0     C11908   2.365   4.505   4.709 -0.2526  0.0853 -0.5084
   89MOL0     C11909   2.213   4.466   4.505 -0.4921  0.2540 -0.1629
   89MOL0     C11910   2.089   4.470   4.581  0.6025 -0.4399  0.3951
   89MOL0     O11911   1.979   4.520   4.506 -0.9064 -0.1701 -0.0210
   89MOL0     C11912   1.843   4.505   4.536  0.4267  0.0037  0.6267
   89MOL0     C11913   1.788   4.481   4.663  0.5272  0.6617 -0.6515
   89MOL0     C11914   1.651   4.474   4.682  0.4534 -1.1650  0.0737
   89MOL0     C11915   1.570   4.473   4.564  0.1048  0.3301  0.2710
   89MOL0     O11916   1.435   4.450   4.572 -0.3025  0.5374 -0.1418
   89MOL0     C11917   1.358   4.547   4.640 -0.0255 -0.5451 -0.6689
   89MOL0     C11918   1.316   4.488   4.771  0.0624 -0.7042 -0.2391
   89MOL0     C11919   1.166   4.481   4.786  0.6758 -0.6981  0.5475
   89MOL0     C11920   1.108   4.385   4.893  0.7644  0.7567 -0.4392
   89MOL0     C11921   0.962   4.402   4.928  0.2202  0.3860 -0.4485
   89MOL0     C11922   0.937   4.514   5.024 -0.2190 -0.9413  0.1421
   89MOL0     C11923   0.786   4.521   5.072 -0.0488  0.5122  0.0747
   89MOL0     C11924   0.778   4.632   5.176  0.3922  0.3927 -0.2020
   89MOL0    Cl11925   0.603   4.627   5.239  0.1718 -0.1852  0.0795
   89MOL0     C11926   1.622   4.476   4.437  0.5679 -0.5111 -0.4213
   89MOL0     C11927   1.760   4.506   4.422  0.4667  1.4885  0.0587
   89MOL0     O11928   2.084   4.428   4.697  0.0676  0.3113  0.7726
   89MOL0     C11929   2.200   4.456   4.361  0.2442  0.4339 -0.0398
   89MOL0     C11930   2.312   4.471   4.277  0.2891  0.1345  0.0677
   89MOL0     N11931   2.967   4.626   3.966 -0.6073  0.8187  0.3159
   89MOL0     N11932   2.968   4.621   3.839 -0.3497  0.2839 -0.9367
   89MOL0     C11933   3.718   4.414   3.175  0.4040  0.3642 -0.6752
   89MOL0     C11934   3.828   4.330   3.154  0.0320  0.7532 -0.7234
   89MOL0     C11935   4.128   4.110   2.886  0.3981 -0.9306 -0.2017
   89MOL0     C11936   4.136   4.027   2.773  0.6810 -0.7185  0.5436
   89MOL0     C11937   4.252   3.955   2.742 -0.1258  0.4854 -0.0050
   89MOL0     C11938   4.359   3.940   2.832 -0.0308  0.9052  0.4177
   89MOL0     O11939   4.472   3.870   2.796  0.5968  0.3473 -0.2009
   89MOL0     C11940   4.591   3.886   2.868  0.1237 -1.0421  0.2896
   89MOL0     C11941   4.707   3.817   2.795  0.0337 -0.0317 -0.3578
   89MOL0     C11942   4.692   3.664   2.829 -0.9159  0.5798 -0.5037
   89MOL0     C11943   4.768   3.583   2.725  0.0913  1.2678 -0.2419
   89MOL0     C11944   4.782   3.432   2.741  0.4293 -0.1887 -0.3685
   89MOL0     C11945   4.802   3.309   2.736  0.2274 -0.2148  0.1661
   89MOL0     C11946   4.348   4.015   2.955 -0.3216  0.8401 -0.3692
   89MOL0     C11947   4.232   4.100   2.981  0.1983  0.4648  0.4000
   89MOL0     H11948   3.940   4.499   2.873  1.0710  0.8538  0.5476
   89MOL0     H11949   3.766   4.637   2.913  0.2943  0.8968  0.9899
   89MOL0     H11950   3.494   4.540   3.285  1.4624 -1.1365 -0.0894
   89MOL0     H11951   3.630   4.670   3.290 -0.8047  0.0016  0.2824
   89MOL0     H11952   3.467   4.788   3.367  0.6865  2.9935 -1.1161
   89MOL0     H11953   3.499   4.837   3.207 -1.1485  2.5187  2.3854
   89MOL0     H11954   3.283   4.735   3.142 -3.0377 -0.3956  1.4597
   89MOL0     H11955   3.299   4.606   3.258  0.4425  0.0647  0.1960
   89MOL0     H11956   3.239   4.744   3.443  1.7689  1.9608  1.1154
   89MOL0     H11957   3.211   4.889   3.342 -1.1062 -0.4907 -0.0550
   89MOL0     H11958   3.062   4.808   3.211  2.1747 -0.8497 -0.4492
   89MOL0     H11959   3.057   4.641   3.286  0.7611 -0.0985  0.5854
   89MOL0     H11960   2.954   4.906   3.383 -1.0295 -0.0940  0.7045
   89MOL0     H11961   2.879   4.742   3.374  1.1037 -2.2031 -0.6725
   89MOL0     H11962   3.048   4.685   3.571  2.3304  0.4784  1.8578
   89MOL0     H11963   3.055   4.860   3.604  0.9148 -0.9814  0.7333
   89MOL0     H11964   2.799   4.687   3.606 -1.6715  0.6709  0.2509
   89MOL0     H11965   2.808   4.857   3.639 -2.1315 -0.9262 -1.6324
   89MOL0     H11966   2.827   4.909   3.895  1.9200  0.4419  2.4828
   89MOL0     H11967   2.930   4.744   4.223 -1.2252  2.3769  1.8215
   89MOL0     H11968   2.934   4.906   4.150  0.2355 -0.1670  0.1425
   89MOL0     H11969   2.713   4.906   4.100  0.3528 -3.4666 -3.8755
   89MOL0     H11970   2.719   4.871   4.274 -3.1099 -2.5325  1.2681
   89MOL0     H11971   2.674   4.657   4.061  1.2472 -2.6474  0.9660
   89MOL0     H11972   2.545   4.748   4.142  0.0567 -2.3754 -2.2640
   89MOL0     H11973   2.628   4.649   4.371  1.5746 -2.2104  0.8611
   89MOL0     H11974   2.747   4.552   4.287 -0.8482 -2.0627  1.9126
   89MOL0     H11975   2.558   4.506   4.512  1.0086  1.9714 -3.7335
   89MOL0     H11976   2.306   4.580   4.762  0.7778  1.2465 -0.9468
   89MOL0     H11977   2.331   4.411   4.754  0.2411 -0.3144 -0.9488
   89MOL0     H11978   2.470   4.529   4.731 -0.5685  0.8056  0.2488
   89MOL0     H11979   1.858   4.469   4.744 -0.1679  0.3998 -0.0793
   89MOL0     H11980   1.596   4.466   4.775 -0.9697 -0.4991 -0.6741
   89MOL0     H11981   1.413   4.640   4.658  1.1154 -1.2190 -0.6135
   89MOL0     H11982   1.269   4.565   4.579 -1.0760 -2.3824  0.2370
   89MOL0     H11983   1.351   4.386   4.786 -2.5471 -1.6821 -0.2638
   89MOL0     H11984   1.353   4.551   4.852 -0.1762  0.9759 -1.3772
   89MOL0     H11985   1.113   4.466   4.692 -1.1759  3.8138  0.6178
   89MOL0     H11986   1.135   4.582   4.815 -1.2957  0.3795 -4.3337
   89MOL0     H11987   1.117   4.285   4.848 -0.2924 -0.3220  1.6078
   89MOL0     H11988   1.173   4.379   4.981 -0.7808 -0.7939  0.6628
   89MOL0     H11989   0.942   4.315   4.992  0.6666  1.2682  0.9403
   89MOL0     H11990   0.892   4.400   4.844 -0.9256  2.3854  0.3710
   89MOL0     H11991   0.998   4.507   5.114 -0.2249  0.7400  0.3055
   89MOL0     H11992   0.951   4.607   4.968  0.4379 -0.8952  0.3793
   89MOL0     H11993   0.773   4.421   5.115  4.7165  0.2058  1.4107
   89MOL0     H11994   0.729   4.538   4.981  1.8160 -3.6621 -2.1567
   89MOL0     H11995   0.806   4.732   5.141 -1.0004  0.9115  0.0883
   89MOL0     H11996   0.846   4.604   5.257 -0.7585 -1.6284  0.1228
   89MOL0     H11997   1.563   4.468   4.347 -1.0991 -1.8488  0.7254
   89MOL0     H11998   1.795   4.535   4.324 -0.6614  0.7671 -0.5903
   89MOL0     H11999   2.108   4.453   4.303  1.4716 -0.7718 -2.0321
   89MOL0     H12000   2.301   4.459   4.170  1.1213 -1.6306  0.1508
   89MOL0     H12001   3.662   4.404   3.267 -0.5006  0.7164 -1.1761
   89MOL0     H12002   3.850   4.257   3.231 -1.6071  1.5601  0.5903
   89MOL0     H12003   4.056   4.023   2.700  1.0882 -0.7564  0.0889
   89MOL0     H12004   4.252   3.885   2.659  1.9079 -0.0603  0.3842
   89MOL0     H12005   4.621   3.991   2.877  2.3462 -1.0696 -4.0405
   89MOL0     H12006   4.587   3.849   2.971  3.9045  2.0229  1.8055
   89MOL0     H12007   4.798   3.859   2.838 -1.9900  3.3003  1.1259
   89MOL0     H12008   4.696   3.840   2.689 -0.8728  0.1290 -0.2390
   89MOL0     H12009   4.585   3.641   2.826 -0.6103 -1.0551 -0.2050
   89MOL0     H12010   4.728   3.649   2.931 -0.7172  1.8371 -0.3799
   89MOL0     H12011   4.871   3.619   2.727  0.5456  0.0480 -0.4056
   89MOL0     H12012   4.727   3.598   2.624  0.4846  0.6514 -0.5008
   89MOL0     H12013   4.821   3.204   2.727 -2.4971 -0.7780  0.1656
   89MOL0     H12014   4.433   4.008   3.022  2.0864 -0.8357 -3.3211
   89MOL0     H12015   4.232   4.158   3.073  0.0157  0.1141  0.6274
   90MOL0     O12016   3.271   8.815  10.968 -0.3313 -0.3808 -0.4355
   90MOL0     C12017   3.221   8.717  10.920  0.2025  0.4348 -0.3668
   90MOL0     O12018   3.090   8.701  10.880  0.7437 -0.1275  0.3051
   90MOL0     C12019   3.002   8.798  10.910  0.2564 -0.1781 -0.0410
   90MOL0     C12020   2.991   8.839  11.045  1.0566  0.3605  0.3235
   90MOL0     C12021   2.905   8.942  11.082  0.4563 -0.4132 -0.4995
   90MOL0     C12022   2.818   9.007  10.986  0.2660  0.2346 -0.2143
   90MOL0     O12023   2.727   9.102  11.026 -0.2961  0.3022  0.3560
   90MOL0     C12024   2.631   9.161  10.930 -0.1812 -0.0777  0.1749
   90MOL0     C12025   2.517   9.067  10.888 -0.4182  0.5386 -0.0086
   90MOL0     C12026   2.420   9.126  10.782 -0.3315  0.4954  0.2371
   90MOL0     C12027   2.337   9.238  10.849 -0.1545 -0.2129 -0.1546
   90MOL0     C12028   2.221   9.275  10.755 -0.2245  0.3362  0.5324
   90MOL0     C12029   2.149   9.403  10.799  0.5531  0.0728  0.6332
   90MOL0     C12030   2.106   9.410  10.942 -0.2117 -0.2120 -0.5518
   90MOL0     C12031   1.998   9.521  10.979  0.1854  0.2225  0.1538
   90MOL0     N12032   1.865   9.486  10.925 -0.0380 -0.3597  0.2551
   90MOL0     C12033   1.778   9.591  10.908 -0.1545  0.4488 -0.1760
   90MOL0     C12034   1.662   9.535  10.877 -0.4046 -0.2985  1.1413
   90MOL0     C12035   1.536   9.588  10.836 -0.9683 -0.2875  0.6099
   90MOL0     C12036   1.424   9.552  10.941 -1.0094  0.4405  1.2184
   90MOL0     C12037   1.436   9.627  11.074  0.4602 -0.1978  0.0029
   90MOL0     C12038   1.385   9.770  11.058 -0.2558 -0.2392  0.2267
   90MOL0     O12039   1.253   9.782  11.007 -0.2148  0.4671 -0.6544
   90MOL0     C12040   1.144   9.774  11.089  0.1391 -0.6829 -0.0773
   90MOL0     C12041   1.139   9.782  11.232 -0.4336  0.2153  0.0513
   90MOL0     C12042   1.018   9.778  11.302 -0.1740 -0.2587 -0.5537
   90MOL0     C12043   1.031   9.796  11.452  0.1631 -0.1389  0.4993
   90MOL0     C12044   0.891   9.758  11.234 -0.1239 -1.0860 -0.2843
   90MOL0     C12045   0.752   9.758  11.295 -0.3817 -1.4199  0.3896
   90MOL0     O12046   0.650   9.765  11.206  0.3271  0.4751  0.4010
   90MOL0     C12047   0.528   9.812  11.244 -0.3041  0.7834 -0.3390
   90MOL0     C12048   0.421   9.729  11.281 -0.0254 -0.0173 -0.6835
   90MOL0     C12049   0.302   9.788  11.322 -0.0253  0.1233 -0.7128
   90MOL0     C12050   0.268   9.928  11.303 -0.3557  0.3421  0.9391
   90MOL0     O12051   0.145   9.996  11.315 -0.1831 -0.3323 -0.3890
   90MOL0     C12052   0.032   9.912  11.284  0.1968 -0.6787 -0.3886
   90MOL0     C12053  -0.085  10.009  11.261  0.5248  0.5196  0.0848
   90MOL0     C12054  -0.218   9.947  11.297 -0.6326  0.9914  0.0069
   90MOL0     C12055  -0.328  10.054  11.269 -0.3259 -0.5193  0.0229
   90MOL0     C12056  -0.465   9.996  11.287  0.4735 -0.4530  0.1969
   90MOL0     C12057  -0.579  10.071  11.212  0.0306  0.4086  0.2211
   90MOL0     C12058  -0.718  10.004  11.235  0.3079 -0.3008  0.4812
   90MOL0     C12059  -0.827  10.113  11.205 -0.1790  0.5771 -0.2438
   90MOL0    Cl12060  -0.995  10.058  11.225 -0.2630  0.4915  0.1000
   90MOL0     C12061   0.384  10.003  11.278  0.0917 -0.3285 -0.1741
   90MOL0     C12062   0.503   9.945  11.252 -0.5794  0.4540 -0.0256
   90MOL0     O12063   0.735   9.755  11.413  0.2384 -0.4198 -0.1913
   90MOL0     C12064   0.904   9.766  11.093  1.1074  0.0528 -0.6616
   90MOL0     C12065   1.026   9.767  11.024 -0.1650 -0.2492  0.8648
   90MOL0     N12066   1.689   9.393  10.864  0.5974 -0.3552 -0.0063
   90MOL0     N12067   1.807   9.370  10.902  0.0768  0.5040 -0.6348
   90MOL0     C12068   2.832   8.970  10.851  0.1785 -0.6673 -0.0416
   90MOL0     C12069   2.922   8.866  10.817 -0.2435  0.2419 -0.6476
   90MOL0     C12070   3.316   8.602  10.911  0.7551 -0.2956 -0.5462
   90MOL0     C12071   3.456   8.617  10.941  0.0705  0.2872 -0.2737
   90MOL0     C12072   3.552   8.510  10.938 -0.5467 -0.2036  0.5852
   90MOL0     C12073   3.510   8.380  10.911  0.0846  0.3654 -0.0507
   90MOL0     O12074   3.580   8.269  10.909 -0.0491 -0.1690  0.2282
   90MOL0     C12075   3.721   8.272  10.955  0.6468  0.6464  0.2703
   90MOL0     C12076   3.828   8.342  10.870 -0.2006  0.4420  0.0038
   90MOL0     C12077   3.786   8.345  10.719 -0.2276  0.1233  0.7458
   90MOL0     C12078   3.880   8.401  10.622 -0.1604 -0.6040  0.1035
   90MOL0     C12079   3.833   8.387  10.486 -0.1127 -0.2155  0.4976
   90MOL0     C12080   3.803   8.367  10.370 -0.7877  0.5584  0.4761
   90MOL0     C12081   3.371   8.368  10.892  0.2473 -0.0538  1.1007
   90MOL0     C12082   3.280   8.469  10.887  0.4788  0.8746  0.4753
   90MOL0     H12083   3.054   8.783  11.113  1.8504 -1.8644 -2.0661
   90MOL0     H12084   2.900   8.964  11.188 -0.9937  0.4977 -0.7207
   90MOL0     H12085   2.594   9.236  11.001  1.8230  0.6382  0.5307
   90MOL0     H12086   2.672   9.210  10.841 -3.8292 -0.1068 -1.7385
   90MOL0     H12087   2.567   8.980  10.845  3.2126  2.5950 -0.3156
   90MOL0     H12088   2.470   9.039  10.983  1.8550  1.6386  1.5188
   90MOL0     H12089   2.462   9.171  10.691 -0.8842  0.1606 -0.1950
   90MOL0     H12090   2.354   9.051  10.738  1.5101 -2.0532  1.5936
   90MOL0     H12091   2.298   9.206  10.946  0.3856 -0.8008 -0.1257
   90MOL0     H12092   2.411   9.317  10.866  0.7579 -0.3213 -3.0962
   90MOL0     H12093   2.266   9.284  10.656 -3.2350  0.5458 -0.9442
   90MOL0     H12094   2.142   9.199  10.748 -0.1835  0.4517 -3.6799
   90MOL0     H12095   2.215   9.485  10.770  1.4663 -1.2043 -1.0820
   90MOL0     H12096   2.061   9.420  10.737  0.9625 -0.4154 -0.0992
   90MOL0     H12097   2.071   9.312  10.974  0.0903 -0.2262 -0.2621
   90MOL0     H12098   2.195   9.423  11.003 -0.4021  0.9199 -0.4830
   90MOL0     H12099   2.036   9.611  10.929 -1.6470  0.2601 -1.2736
   90MOL0     H12100   1.998   9.551  11.084  2.9902  0.2285  0.2211
   90MOL0     H12101   1.791   9.697  10.928 -0.4286  0.6979 -1.2372
   90MOL0     H12102   1.548   9.695  10.819  3.6195 -0.5816  0.6545
   90MOL0     H12103   1.498   9.543  10.743  2.6040 -2.6274  0.0418
   90MOL0     H12104   1.444   9.447  10.964 -0.7063 -0.0429 -1.0028
   90MOL0     H12105   1.327   9.556  10.890 -0.6727 -1.0186  0.3982
   90MOL0     H12106   1.541   9.630  11.106 -0.1346  1.3207  2.0240
   90MOL0     H12107   1.371   9.573  11.143 -0.8117  0.3741 -0.7139
   90MOL0     H12108   1.458   9.818  10.992 -0.8733 -2.2733 -2.0601
   90MOL0     H12109   1.386   9.817  11.157  2.1985 -1.5181  0.8982
   90MOL0     H12110   1.230   9.778  11.291  1.2034 -0.3942 -2.3595
   90MOL0     H12111   0.966   9.876  11.490  0.6381 -0.5441  2.2195
   90MOL0     H12112   0.989   9.705  11.496 -0.6743 -0.6195 -1.1707
   90MOL0     H12113   1.136   9.803  11.480  0.0375  5.3190  0.7255
   90MOL0     H12114   0.436   9.622  11.273 -0.3128 -0.2056  0.8977
   90MOL0     H12115   0.228   9.716  11.357  0.6567 -0.5402 -0.6316
   90MOL0     H12116   0.058   9.856  11.193  0.2816  0.7536 -1.2744
   90MOL0     H12117   0.005   9.850  11.370  1.9384  1.5451  1.9204
   90MOL0     H12118  -0.084  10.105  11.313  1.5842  0.4094  0.3027
   90MOL0     H12119  -0.088  10.034  11.155  0.4592  0.7769  0.1481
   90MOL0     H12120  -0.205   9.924  11.404  0.0363  0.4938 -0.1706
   90MOL0     H12121  -0.237   9.856  11.239  2.5782  0.2857 -0.1336
   90MOL0     H12122  -0.316  10.141  11.334  0.4859 -3.2439  3.8021
   90MOL0     H12123  -0.313  10.075  11.162  1.7209 -1.0176  0.1875
   90MOL0     H12124  -0.493  10.010  11.392  2.3000  1.4634  0.5043
   90MOL0     H12125  -0.470   9.889  11.262  1.1086 -0.3744 -0.2845
   90MOL0     H12126  -0.580  10.171  11.257 -1.6222  0.4156  0.2388
   90MOL0     H12127  -0.565  10.083  11.104  1.2592 -0.2935  0.2899
   90MOL0     H12128  -0.720   9.962  11.335 -2.5397  1.0060  1.0694
   90MOL0     H12129  -0.740   9.926  11.162 -0.1052 -1.6891  2.0357
   90MOL0     H12130  -0.806  10.157  11.107 -1.5897  1.8021 -0.0268
   90MOL0     H12131  -0.808  10.202  11.266 -1.3708  0.2813  0.5913
   90MOL0     H12132   0.372  10.111  11.280 -1.8547 -0.4986 -0.7953
   90MOL0     H12133   0.584  10.012  11.225  0.4706 -1.8891 -3.2831
   90MOL0     H12134   0.815   9.776  11.032  1.5227  1.6603 -1.0619
   90MOL0     H12135   1.022   9.765  10.915 -2.0706 -0.4372  0.8977
   90MOL0     H12136   2.777   9.008  10.766 -0.7670 -3.0486 -0.5866
   90MOL0     H12137   2.940   8.822  10.719 -0.5731  0.4643 -0.8118
   90MOL0     H12138   3.492   8.713  10.976 -0.3562  0.6897 -0.9188
   90MOL0     H12139   3.657   8.535  10.953 -0.5833  0.8500 -0.7424
   90MOL0     H12140   3.732   8.307  11.058 -2.2204 -3.1529  2.1283
   90MOL0     H12141   3.754   8.168  10.956 -1.8078 -0.2200  2.2453
   90MOL0     H12142   3.918   8.281  10.885 -1.0672 -0.8240  0.2105
   90MOL0     H12143   3.848   8.437  10.921  0.4173 -0.1498  0.8934
   90MOL0     H12144   3.693   8.403  10.714  0.4094  1.0804 -1.1460
   90MOL0     H12145   3.765   8.240  10.697 -0.1060  0.2113  0.1799
   90MOL0     H12146   3.978   8.352  10.632  1.3689  2.0459 -0.9074
   90MOL0     H12147   3.897   8.507  10.642 -3.2524  0.7008 -3.0956
   90MOL0     H12148   3.774   8.367  10.266  0.7939  2.3881 -0.0125
   90MOL0     H12149   3.331   8.269  10.872 -2.1603  1.6172 -3.8462
   90MOL0     H12150   3.178   8.436  10.873  0.2527  2.0744 -0.9636
   91MOL0     O12151   7.313   8.097   2.881 -0.3637 -0.4394  0.2112
   91MOL0     C12152   7.328   8.213   2.847  1.0196  0.2359  0.4793
   91MOL0     O12153   7.447   8.270   2.820 -0.3789 -0.2233  0.8464
   91MOL0     C12154   7.572   8.214   2.830 -0.1466  0.9986 -0.3200
   91MOL0     C12155   7.613   8.071   2.837 -0.5061  0.1263  0.7201
   91MOL0     C12156   7.747   8.037   2.834  0.2684 -0.5861 -0.6097
   91MOL0     C12157   7.849   8.131   2.825 -0.5574 -0.5668 -0.2289
   91MOL0     O12158   7.976   8.082   2.809  0.2719  0.8393  0.8136
   91MOL0     C12159   8.092   8.166   2.799  0.5949 -0.1100  0.2432
   91MOL0     C12160   8.222   8.094   2.808 -0.0656 -0.3428  0.5858
   91MOL0     C12161   8.331   8.179   2.764  0.2034 -0.2887  0.4734
   91MOL0     C12162   8.473   8.119   2.762 -0.0685 -0.3601  0.3506
   91MOL0     C12163   8.583   8.220   2.720  0.2093  0.1465 -0.6512
   91MOL0     C12164   8.722   8.144   2.694 -0.4601  0.0000 -0.4089
   91MOL0     C12165   8.840   8.230   2.738  0.1415 -0.3439  0.7157
   91MOL0     C12166   8.969   8.159   2.723  0.6819 -0.6069  0.0852
   91MOL0     N12167   9.092   8.249   2.742 -0.3445  0.3560  0.3186
   91MOL0     C12168   9.176   8.254   2.853  0.2584  0.4448  0.1666
   91MOL0     C12169   9.273   8.336   2.807  0.8793  0.0785 -0.5818
   91MOL0     C12170   9.405   8.353   2.885 -0.4815 -0.4648 -0.3154
   91MOL0     C12171   9.394   8.473   2.985  0.2969  0.4938  0.0020
   91MOL0     C12172   9.283   8.441   3.087 -0.0890  0.1963 -0.0146
   91MOL0     C12173   9.271   8.525   3.217  0.6105  0.0568  1.1528
   91MOL0     O12174   9.233   8.666   3.180  0.1410  0.0708  0.4943
   91MOL0     C12175   9.095   8.693   3.166  0.0394 -0.3301  0.0713
   91MOL0     C12176   9.061   8.818   3.117 -1.7368 -0.6582 -0.0913
   91MOL0     C12177   8.933   8.874   3.114  0.5373 -0.4069 -0.7011
   91MOL0     C12178   8.915   9.011   3.074  0.1972  0.0743 -0.1083
   91MOL0     C12179   8.823   8.798   3.162  1.1107 -0.5736 -0.2135
   91MOL0     C12180   8.674   8.848   3.161 -0.6897 -0.0961 -0.2306
   91MOL0     O12181   8.622   8.928   3.063 -0.5883  0.4678 -0.3259
   91MOL0     C12182   8.495   8.977   3.082  0.6959 -0.0296  0.5588
   91MOL0     C12183   8.477   9.104   3.131 -0.0280  0.7008 -0.3559
   91MOL0     C12184   8.347   9.152   3.165 -0.0277  0.0468 -0.2610
   91MOL0     C12185   8.234   9.075   3.129 -0.3495 -0.0194  1.5614
   91MOL0     O12186   8.121   9.145   3.136  0.1334  0.0810  0.0384
   91MOL0     C12187   8.005   9.086   3.197  0.2111 -0.0638  0.1797
   91MOL0     C12188   7.878   9.144   3.134  0.2724 -0.0486  0.4801
   91MOL0     C12189   7.751   9.094   3.217 -1.3794 -0.1456 -0.2944
   91MOL0     C12190   7.622   9.141   3.168  0.2828  0.6334 -0.6360
   91MOL0     C12191   7.504   9.112   3.269 -0.0230 -0.4365  0.2839
   91MOL0     C12192   7.362   9.165   3.235  0.4750  0.3636 -0.1776
   91MOL0     C12193   7.252   9.102   3.321 -0.8164 -0.2374 -0.2741
   91MOL0     C12194   7.269   9.155   3.468 -0.5232  0.2575  0.2702
   91MOL0    Cl12195   7.136   9.261   3.501 -0.0082  0.7809  0.4134
   91MOL0     C12196   8.253   8.939   3.087  0.0701 -0.2184 -0.1107
   91MOL0     C12197   8.381   8.895   3.061  0.0941  0.2600  0.7638
   91MOL0     O12198   8.612   8.798   3.256 -0.4815  1.0749 -0.5049
   91MOL0     C12199   8.854   8.664   3.209 -0.0642  0.1668 -0.4196
   91MOL0     C12200   8.989   8.617   3.220  0.4099 -0.7704  0.4412
   91MOL0     N12201   9.242   8.390   2.684  0.2368 -0.7024  0.7372
   91MOL0     N12202   9.136   8.338   2.645  0.5523  0.3024 -0.2896
   91MOL0     C12203   7.813   8.261   2.818  0.4579 -0.3214 -0.0686
   91MOL0     C12204   7.678   8.301   2.818 -0.1811 -0.4161  0.0270
   91MOL0     C12205   7.201   8.293   2.817 -0.3930 -0.0539 -0.3360
   91MOL0     C12206   7.205   8.433   2.833 -0.7049 -0.2446 -0.4206
   91MOL0     C12207   7.085   8.504   2.812 -0.3817 -0.1884 -0.2329
   91MOL0     C12208   6.961   8.444   2.783 -0.1338 -0.8013  0.5883
   91MOL0     O12209   6.859   8.536   2.777  0.7903  0.6342  0.0905
   91MOL0     C12210   6.747   8.489   2.695 -0.2564  0.6316 -0.1001
   91MOL0     C12211   6.632   8.436   2.789  0.8209 -0.3275  0.0340
   91MOL0     C12212   6.577   8.542   2.887  0.1938 -0.0342 -0.3299
   91MOL0     C12213   6.447   8.518   2.964  0.3759  0.8191 -0.2717
   91MOL0     C12214   6.338   8.508   2.855  0.4096  1.0983 -0.0503
   91MOL0     C12215   6.253   8.500   2.765 -0.1555 -0.0535 -0.7664
   91MOL0     C12216   6.956   8.308   2.783  0.4758 -0.6999  0.0153
   91MOL0     C12217   7.072   8.236   2.789 -0.0227 -0.1759  0.0513
   91MOL0     H12218   7.532   8.000   2.850  0.5912 -1.0042  1.4980
   91MOL0     H12219   7.773   7.932   2.834  1.0944 -0.4408  1.5163
   91MOL0     H12220   8.081   8.210   2.700  1.3848 -0.9716 -0.2528
   91MOL0     H12221   8.107   8.240   2.878  1.0965 -0.4730  0.4972
   91MOL0     H12222   8.234   8.065   2.912 -0.7392 -0.7343  0.5590
   91MOL0     H12223   8.218   8.007   2.742  0.0174  3.0477 -4.5775
   91MOL0     H12224   8.316   8.225   2.666  4.1580 -0.0345 -0.1826
   91MOL0     H12225   8.337   8.261   2.836 -1.3428  0.2179  0.0783
   91MOL0     H12226   8.480   8.088   2.866  0.2165  1.5052  0.9177
   91MOL0     H12227   8.485   8.035   2.693 -0.8230 -0.6280  0.5368
   91MOL0     H12228   8.559   8.273   2.628  2.4952 -1.4181 -2.2828
   91MOL0     H12229   8.596   8.292   2.801  1.1025 -0.2055 -0.4615
   91MOL0     H12230   8.730   8.042   2.734  1.7479 -0.0995 -0.9851
   91MOL0     H12231   8.745   8.139   2.588  1.7916 -1.7584  0.0767
   91MOL0     H12232   8.850   8.315   2.670 -0.0675 -0.3676  0.6537
   91MOL0     H12233   8.830   8.263   2.842  2.8682 -1.1546  1.3013
   91MOL0     H12234   8.981   8.109   2.626  0.0202 -0.0984 -0.2628
   91MOL0     H12235   8.968   8.081   2.800 -4.3026 -0.3939  0.5038
   91MOL0     H12236   9.187   8.194   2.943 -1.8864 -0.5420 -0.1482
   91MOL0     H12237   9.420   8.254   2.928 -1.3987 -0.5159 -0.0902
   91MOL0     H12238   9.486   8.368   2.812  2.1478 -1.9462  2.0930
   91MOL0     H12239   9.361   8.560   2.926 -1.8355 -2.4313 -3.5135
   91MOL0     H12240   9.493   8.503   3.022  0.5945  1.2140 -1.3285
   91MOL0     H12241   9.283   8.334   3.110  1.0813  0.5345  1.7760
   91MOL0     H12242   9.186   8.452   3.038 -0.9983  0.1900  1.7255
   91MOL0     H12243   9.361   8.503   3.275  1.3992  0.9119  0.3000
   91MOL0     H12244   9.195   8.473   3.275  1.2446 -3.4460 -0.8596
   91MOL0     H12245   9.141   8.883   3.083 -2.1236  0.0411  0.3118
   91MOL0     H12246   8.873   9.010   2.973  1.4618  1.5183 -0.6736
   91MOL0     H12247   8.857   9.057   3.155  2.3555  0.7056  1.1543
   91MOL0     H12248   9.013   9.059   3.065  0.3706 -0.1622  0.4790
   91MOL0     H12249   8.560   9.164   3.166 -1.2127  0.3609  3.5231
   91MOL0     H12250   8.338   9.253   3.204 -1.1785  0.2297 -0.9468
   91MOL0     H12251   8.009   8.977   3.190 -2.1141 -0.4431  2.8846
   91MOL0     H12252   8.006   9.111   3.303  2.6056 -1.8372  0.6602
   91MOL0     H12253   7.880   9.253   3.134 -0.0419 -0.0315 -0.6724
   91MOL0     H12254   7.874   9.115   3.028  0.1501  1.2368  0.1102
   91MOL0     H12255   7.767   9.126   3.321  0.8096 -0.2011 -0.5726
   91MOL0     H12256   7.760   8.985   3.217  4.5348  0.0059  1.3304
   91MOL0     H12257   7.632   9.247   3.141  0.3102  0.0329 -3.2150
   91MOL0     H12258   7.604   9.087   3.075  0.7976  2.8935 -2.1222
   91MOL0     H12259   7.531   9.152   3.367  2.3860 -1.6234  0.1665
   91MOL0     H12260   7.501   9.005   3.293  2.7568 -0.1966  2.0715
   91MOL0     H12261   7.356   9.272   3.256 -1.4027  0.5461 -1.3925
   91MOL0     H12262   7.329   9.153   3.132  0.7236  2.9722 -0.6325
   91MOL0     H12263   7.270   8.994   3.318 -1.6462 -0.3559 -1.2235
   91MOL0     H12264   7.149   9.120   3.290 -0.9758  1.1783  0.9393
   91MOL0     H12265   7.361   9.211   3.486 -0.5474  0.1742  0.6457
   91MOL0     H12266   7.256   9.074   3.540  0.0851 -0.1594 -0.0845
   91MOL0     H12267   8.174   8.870   3.060  2.4214 -3.4035  0.4944
   91MOL0     H12268   8.399   8.794   3.025  1.4740  0.0205  2.0299
   91MOL0     H12269   8.783   8.597   3.257 -1.6550 -1.6579 -4.8274
   91MOL0     H12270   9.008   8.526   3.276  2.0474  0.0390  1.2712
   91MOL0     H12271   7.886   8.339   2.799 -1.5207  1.2552 -1.5508
   91MOL0     H12272   7.644   8.399   2.789  1.2678 -0.1284 -0.7642
   91MOL0     H12273   7.295   8.492   2.853  0.0234 -1.9310  1.6168
   91MOL0     H12274   7.091   8.611   2.802 -1.7936 -0.0613  0.0292
   91MOL0     H12275   6.711   8.576   2.641 -0.7194  1.5181  1.5711
   91MOL0     H12276   6.780   8.404   2.634  1.8029 -0.5715  2.4700
   91MOL0     H12277   6.669   8.360   2.858 -0.0550 -0.2630  0.5916
   91MOL0     H12278   6.546   8.396   2.736 -0.5734 -0.1641  2.0563
   91MOL0     H12279   6.562   8.624   2.816 -0.1740 -1.3155 -1.7973
   91MOL0     H12280   6.656   8.562   2.959  0.3424 -1.9317  0.1005
   91MOL0     H12281   6.425   8.596   3.037  1.2410  0.6663  0.1708
   91MOL0     H12282   6.452   8.423   3.019  2.1196 -0.3045 -2.2420
   91MOL0     H12283   6.179   8.500   2.688  0.0828 -1.4727 -1.0129
   91MOL0     H12284   6.868   8.258   2.745 -0.8120  1.9579 -0.7272
   91MOL0     H12285   7.076   8.130   2.770  1.5148 -0.5833  2.1877
   92MOL0     O12286   7.681   2.548   6.810 -0.2146 -0.0102 -0.8150
   92MOL0     C12287   7.701   2.597   6.701  0.0828 -0.2997  0.2910
   92MOL0     O12288   7.814   2.676   6.675  0.0443  0.1225  0.3037
   92MOL0     C12289   7.915   2.673   6.771  0.1610  0.1922 -0.4689
   92MOL0     C12290   8.038   2.605   6.764  0.7722  0.5291  0.5283
   92MOL0     C12291   8.130   2.608   6.876 -0.4577 -0.3036 -0.3785
   92MOL0     C12292   8.105   2.692   6.995  0.4612 -0.4032  0.7052
   92MOL0     O12293   8.186   2.721   7.107  0.0309 -0.2235 -1.2135
   92MOL0     C12294   8.325   2.707   7.086 -0.0435 -0.4213 -0.1818
   92MOL0     C12295   8.402   2.742   7.219  0.5350  0.4343 -0.2948
   92MOL0     C12296   8.534   2.658   7.233  0.2004  0.1990  0.3020
   92MOL0     C12297   8.629   2.734   7.325  0.7072  1.0198  0.5779
   92MOL0     C12298   8.735   2.636   7.366  0.0621  0.5594 -0.3486
   92MOL0     C12299   8.843   2.709   7.441 -0.5016  0.2023  0.8418
   92MOL0     C12300   8.958   2.622   7.491  0.1362 -0.7362 -0.2199
   92MOL0     C12301   9.050   2.717   7.577  0.0067  0.6716 -1.1597
   92MOL0     N12302   9.153   2.640   7.642 -0.3438  0.2857 -0.0326
   92MOL0     C12303   9.288   2.673   7.641 -0.7747  0.1458 -0.3433
   92MOL0     C12304   9.339   2.596   7.744 -0.0931 -0.5542  0.1880
   92MOL0     C12305   9.484   2.610   7.787 -0.1647  0.6145 -0.6577
   92MOL0     C12306   9.516   2.749   7.846 -0.2002 -0.0899 -0.5513
   92MOL0     C12307   9.665   2.748   7.892  0.0970 -0.1844  0.4652
   92MOL0     C12308   9.716   2.874   7.963 -0.0514  0.9820  0.3185
   92MOL0     O12309   9.656   2.987   7.897 -0.0056  0.1487 -0.2890
   92MOL0     C12310   9.682   3.107   7.966 -0.0416 -0.2152 -0.3254
   92MOL0     C12311   9.615   3.222   7.912 -0.1616  0.8895  0.0792
   92MOL0     C12312   9.622   3.348   7.975 -0.4498 -0.8094  0.1434
   92MOL0     C12313   9.559   3.467   7.908  0.1051  0.3275 -0.4020
   92MOL0     C12314   9.694   3.356   8.098 -0.2766 -0.6457  0.0482
   92MOL0     C12315   9.714   3.488   8.186  0.3752  0.6299  1.4128
   92MOL0     O12316   9.607   3.566   8.213 -0.4082 -0.0985 -0.6107
   92MOL0     C12317   9.492   3.497   8.246 -0.2229 -0.2399 -0.2906
   92MOL0     C12318   9.381   3.545   8.182 -0.6940  0.0198 -0.0230
   92MOL0     C12319   9.258   3.488   8.209  0.4248  0.2318 -0.1401
   92MOL0     C12320   9.244   3.384   8.308 -0.4307 -0.8705 -0.9369
   92MOL0     O12321   9.127   3.318   8.336 -0.7365 -0.9236 -0.6886
   92MOL0     C12322   9.037   3.311   8.228 -1.2211 -0.5741  0.3357
   92MOL0     C12323   8.946   3.183   8.238  0.4021 -0.3210  0.4155
   92MOL0     C12324   8.871   3.169   8.370 -0.5652 -0.6026  0.2810
   92MOL0     C12325   8.954   3.091   8.472  0.9647 -0.4309  0.4550
   92MOL0     C12326   8.874   3.032   8.595 -0.4624 -0.4985  0.5764
   92MOL0     C12327   8.799   2.896   8.573  0.5582 -0.6807  0.5519
   92MOL0     C12328   8.891   2.773   8.602 -0.1389  1.0255 -0.6751
   92MOL0     C12329   8.823   2.641   8.562  0.3793  0.3164 -0.3031
   92MOL0    Cl12330   8.688   2.607   8.672  0.3512 -0.5319 -0.0142
   92MOL0     C12331   9.363   3.341   8.372  0.9404  0.0152  0.0835
   92MOL0     C12332   9.480   3.410   8.351 -0.1029 -0.1740  0.5862
   92MOL0     O12333   9.829   3.511   8.228 -0.3664 -0.5588 -0.0821
   92MOL0     C12334   9.764   3.245   8.149 -0.9439 -0.0794 -0.6517
   92MOL0     C12335   9.759   3.131   8.080 -0.2514  0.0343  0.3848
   92MOL0     N12336   9.242   2.532   7.809  0.2608  0.3409  0.1146
   92MOL0     N12337   9.133   2.554   7.744  0.8006 -0.2052  0.6214
   92MOL0     C12338   7.984   2.767   6.996 -0.2312  0.2263 -0.0251
   92MOL0     C12339   7.895   2.753   6.889  0.1194 -0.6183  0.1937
   92MOL0     C12340   7.612   2.570   6.590  1.0019  0.3688  0.2431
   92MOL0     C12341   7.634   2.620   6.456  0.1950  0.0210  1.2199
   92MOL0     C12342   7.542   2.604   6.354 -0.1284 -0.0830 -0.3280
   92MOL0     C12343   7.413   2.553   6.387  0.8196 -0.8272  0.0076
   92MOL0     O12344   7.318   2.565   6.288 -1.2648  0.2804 -0.3980
   92MOL0     C12345   7.196   2.620   6.329  0.0250  0.5225  0.0220
   92MOL0     C12346   7.099   2.502   6.336 -0.2598 -0.4987  0.2282
   92MOL0     C12347   6.947   2.543   6.303 -0.0090 -0.4914 -0.3101
   92MOL0     C12348   6.837   2.439   6.305 -0.0603  0.1500 -0.2446
   92MOL0     C12349   6.839   2.367   6.431  0.4118 -0.1648  0.4570
   92MOL0     C12350   6.851   2.311   6.540  0.3721  0.1581 -0.7725
   92MOL0     C12351   7.384   2.509   6.515 -0.4156  0.3805 -0.3437
   92MOL0     C12352   7.485   2.503   6.612 -0.1441 -0.0433 -0.3318
   92MOL0     H12353   8.056   2.542   6.677 -0.3152  1.5527 -0.4800
   92MOL0     H12354   8.217   2.544   6.882 -0.7215 -0.6199  0.1689
   92MOL0     H12355   8.344   2.603   7.057 -0.9581 -0.3273 -1.1795
   92MOL0     H12356   8.350   2.778   7.006  0.2625 -1.8593 -1.3944
   92MOL0     H12357   8.416   2.849   7.238  1.2378  0.2682  0.1416
   92MOL0     H12358   8.340   2.716   7.305  1.0994  1.7367  0.5502
   92MOL0     H12359   8.514   2.561   7.281  1.4657  0.6550  1.8444
   92MOL0     H12360   8.576   2.630   7.136 -2.7221 -0.8965 -0.7573
   92MOL0     H12361   8.679   2.814   7.269 -0.3669  2.0084  0.9985
   92MOL0     H12362   8.581   2.766   7.417 -1.8725 -1.6414  0.2964
   92MOL0     H12363   8.688   2.558   7.428 -3.0939  0.7901 -2.2371
   92MOL0     H12364   8.772   2.582   7.278  0.9138  1.5973 -0.6369
   92MOL0     H12365   8.873   2.789   7.372  1.2540 -1.2000 -0.0889
   92MOL0     H12366   8.786   2.737   7.530 -3.1646  0.0573 -0.7096
   92MOL0     H12367   8.914   2.541   7.550 -3.7567  1.0987 -0.3124
   92MOL0     H12368   9.018   2.584   7.408 -2.8581 -2.8991 -1.5355
   92MOL0     H12369   8.997   2.770   7.656 -2.7243 -1.2619 -1.5491
   92MOL0     H12370   9.099   2.794   7.516  0.0058  1.3515 -0.3192
   92MOL0     H12371   9.342   2.751   7.588  1.6790 -0.0340  1.6680
   92MOL0     H12372   9.502   2.524   7.852  0.1714  1.1014 -0.0920
   92MOL0     H12373   9.554   2.601   7.703  1.8099  2.9208  0.5963
   92MOL0     H12374   9.465   2.759   7.943 -1.0230 -0.1868 -0.9668
   92MOL0     H12375   9.476   2.835   7.791  0.7761  1.5604  1.1864
   92MOL0     H12376   9.735   2.737   7.809  1.0317 -1.1025  1.3363
   92MOL0     H12377   9.685   2.656   7.947  2.6160 -0.1194 -0.2330
   92MOL0     H12378   9.825   2.865   7.977  0.0268  0.7143 -0.4177
   92MOL0     H12379   9.678   2.866   8.065  0.3749  0.1391  0.4280
   92MOL0     H12380   9.562   3.198   7.820  1.0509  0.5112 -0.5376
   92MOL0     H12381   9.587   3.484   7.804  0.9095  0.8258 -0.1093
   92MOL0     H12382   9.453   3.442   7.899  0.0673  0.5580 -0.6071
   92MOL0     H12383   9.579   3.555   7.969  1.1439 -0.2513  0.1287
   92MOL0     H12384   9.385   3.622   8.107 -4.4998 -0.0735 -0.5171
   92MOL0     H12385   9.168   3.530   8.167  1.0600 -0.2482 -2.0999
   92MOL0     H12386   8.967   3.396   8.227 -1.0496 -0.4134 -1.1886
   92MOL0     H12387   9.085   3.301   8.130 -1.1564 -0.7435  0.3833
   92MOL0     H12388   8.874   3.170   8.157 -2.1275  5.1402  1.3180
   92MOL0     H12389   9.016   3.101   8.223  0.3964 -0.1901 -0.4230
   92MOL0     H12390   8.770   3.134   8.349 -2.2069  2.8689  1.6248
   92MOL0     H12391   8.845   3.266   8.413 -1.8329 -1.6340  1.9651
   92MOL0     H12392   9.018   3.012   8.431  2.5398  0.8198  0.3900
   92MOL0     H12393   9.032   3.158   8.510  2.2596 -0.8835 -1.2466
   92MOL0     H12394   8.799   3.111   8.610 -1.1607 -0.7843 -1.1458
   92MOL0     H12395   8.941   3.018   8.679  1.3040 -0.4414 -0.7712
   92MOL0     H12396   8.708   2.901   8.634  0.0639 -1.5683 -0.0727
   92MOL0     H12397   8.773   2.884   8.467  1.3995 -0.7918  0.3496
   92MOL0     H12398   8.908   2.767   8.710  1.6648 -0.1288 -0.9648
   92MOL0     H12399   8.991   2.767   8.558 -0.6605  0.4664 -1.8366
   92MOL0     H12400   8.895   2.561   8.576  0.5534  1.0503  5.7437
   92MOL0     H12401   8.771   2.646   8.465 -1.8681  0.4052  0.8281
   92MOL0     H12402   9.363   3.257   8.441 -1.0036 -0.3164 -0.2612
   92MOL0     H12403   9.571   3.394   8.408  0.1243 -0.2775  0.1998
   92MOL0     H12404   9.833   3.250   8.233  1.8778  2.7027 -2.8870
   92MOL0     H12405   9.819   3.049   8.118  2.8340  1.2846 -1.3602
   92MOL0     H12406   7.965   2.846   7.068  0.8354  0.2821  0.2231
   92MOL0     H12407   7.799   2.804   6.894 -0.5970 -2.0449  1.8795
   92MOL0     H12408   7.717   2.688   6.440 -0.2423  0.6355  1.5519
   92MOL0     H12409   7.565   2.639   6.254  0.8390  0.6771  0.1506
   92MOL0     H12410   7.202   2.678   6.421  0.3947 -0.3750  0.5775
   92MOL0     H12411   7.175   2.692   6.249 -1.3389 -0.5706 -0.6574
   92MOL0     H12412   7.108   2.451   6.432 -1.0988 -1.1612 -0.0301
   92MOL0     H12413   7.121   2.440   6.250 -0.5217  0.4106 -0.5151
   92MOL0     H12414   6.953   2.591   6.205  1.6227 -1.8145 -0.8956
   92MOL0     H12415   6.919   2.627   6.368  1.7110  0.3952 -0.6721
   92MOL0     H12416   6.843   2.371   6.220 -0.3738 -0.5457  0.2832
   92MOL0     H12417   6.739   2.487   6.300  0.0233  0.5708  1.4480
   92MOL0     H12418   6.866   2.260   6.633 -0.5708  0.7331 -0.2906
   92MOL0     H12419   7.282   2.484   6.542 -1.1384  2.4021 -1.0453
   92MOL0     H12420   7.463   2.455   6.707 -0.4563  1.5934  0.4626
   93MOL0     O12421   8.309   0.375   8.972  0.3772 -0.0483  0.4828
   93MOL0     C12422   8.330   0.261   8.946 -1.3737 -0.1693 -0.4673
   93MOL0     O12423   8.257   0.154   8.967  0.4092  0.0383 -0.1373
   93MOL0     C12424   8.129   0.169   9.024  0.4606  0.4471 -0.2879
   93MOL0     C12425   8.073   0.056   9.078  0.2107 -0.2207  0.5149
   93MOL0     C12426   7.939   0.057   9.124 -0.7201 -0.1824 -0.2237
   93MOL0     C12427   7.863   0.172   9.125 -0.3347 -0.3188  0.6192
   93MOL0     O12428   7.730   0.161   9.162  0.0383 -0.4778  0.2499
   93MOL0     C12429   7.712   0.112   9.300 -0.1955 -0.5369  0.3835
   93MOL0     C12430   7.750   0.220   9.408 -0.1942  0.1445 -0.4779
   93MOL0     C12431   7.643   0.339   9.407 -0.5523  0.3763  0.7391
   93MOL0     C12432   7.505   0.301   9.471  0.2450 -0.4273  0.3103
   93MOL0     C12433   7.422   0.432   9.492 -0.6571 -0.3134 -0.6378
   93MOL0     C12434   7.275   0.396   9.531 -0.6997 -0.3022  0.3536
   93MOL0     C12435   7.192   0.523   9.533  0.3197 -0.1493 -0.1323
   93MOL0     C12436   7.043   0.505   9.546 -0.2306  0.0959  0.0626
   93MOL0     N12437   6.961   0.630   9.537  0.1350 -0.9474 -0.0279
   93MOL0     C12438   6.928   0.711   9.648  0.8974  0.0004  0.3316
   93MOL0     C12439   6.828   0.787   9.602 -0.6531 -0.7682 -0.3888
   93MOL0     C12440   6.757   0.896   9.685  0.5051 -0.6533  0.9574
   93MOL0     C12441   6.605   0.884   9.683  0.0375 -0.0855  0.4766
   93MOL0     C12442   6.539   0.989   9.775 -0.4132 -0.3364  0.3993
   93MOL0     C12443   6.393   0.988   9.746 -0.7323 -0.5090 -1.1087
   93MOL0     O12444   6.328   1.079   9.842  0.8723 -0.1008  0.1551
   93MOL0     C12445   6.202   1.037   9.866  0.3784  0.1642 -0.9753
   93MOL0     C12446   6.179   0.964   9.984  0.0301 -0.2482  0.0143
   93MOL0     C12447   6.054   0.931  10.018  0.3585 -0.7010  0.6673
   93MOL0     C12448   6.039   0.842  10.148 -0.9695  0.7740  0.4582
   93MOL0     C12449   5.946   0.974   9.936 -0.2495  0.4805  0.0978
   93MOL0     C12450   5.803   0.952   9.974  0.7772  0.3122 -0.4585
   93MOL0     O12451   5.763   0.921  10.103 -0.0458  0.4388  0.4475
   93MOL0     C12452   5.645   0.855  10.115 -0.1792 -0.5685 -0.3779
   93MOL0     C12453   5.643   0.719  10.123  0.3591 -0.4476  0.4122
   93MOL0     C12454   5.522   0.650  10.120 -0.7530 -0.2230  0.4582
   93MOL0     C12455   5.402   0.721  10.101  0.4646  1.0439 -0.5205
   93MOL0     O12456   5.280   0.656  10.102 -0.1087 -0.6693 -0.2791
   93MOL0     C12457   5.157   0.724  10.128 -0.1641  1.5416  0.5862
   93MOL0     C12458   5.040   0.627  10.119 -0.4963 -0.5571 -0.6198
   93MOL0     C12459   4.907   0.708  10.108 -0.4720 -0.8192 -0.1070
   93MOL0     C12460   4.804   0.626  10.027 -0.3636  0.6677 -0.0103
   93MOL0     C12461   4.669   0.678  10.058 -0.0648 -0.4052 -0.2636
   93MOL0     C12462   4.560   0.635   9.955  0.2914  0.5533 -0.8975
   93MOL0     C12463   4.431   0.724   9.973  0.5483 -0.2637 -0.5932
   93MOL0     C12464   4.306   0.642   9.937  0.4874 -1.0361  0.5739
   93MOL0    Cl12465   4.161   0.728   9.973  0.3896  0.2213 -0.1169
   93MOL0     C12466   5.407   0.863  10.087 -0.1695 -0.2385 -1.0849
   93MOL0     C12467   5.524   0.931  10.097  0.0455 -0.0951 -0.4333
   93MOL0     O12468   5.720   0.970   9.884  0.1088  0.5701 -0.4733
   93MOL0     C12469   5.973   1.036   9.815 -0.1889  0.1013 -0.0363
   93MOL0     C12470   6.103   1.075   9.781  0.5330  0.4975 -0.4874
   93MOL0     N12471   6.805   0.757   9.468  0.3411 -0.2217  0.8024
   93MOL0     N12472   6.886   0.667   9.430  0.4136 -0.5203  0.6797
   93MOL0     C12473   7.910   0.281   9.052 -0.0995  0.3436  0.5995
   93MOL0     C12474   8.043   0.284   9.020  0.2100 -0.1346  0.7480
   93MOL0     C12475   8.481   0.233   8.926 -0.2700 -0.3309 -0.6691
   93MOL0     C12476   8.585   0.331   8.924 -0.1604  0.1868  0.5133
   93MOL0     C12477   8.719   0.294   8.909 -0.5777  0.1238 -0.2038
   93MOL0     C12478   8.758   0.166   8.880  0.5014 -0.4664  0.3455
   93MOL0     O12479   8.884   0.138   8.842  0.9424  0.1092  0.2734
   93MOL0     C12480   8.955   0.025   8.907  0.5604 -0.5672  0.3505
   93MOL0     C12481   9.099   0.074   8.949  0.3808 -0.4462  0.0431
   93MOL0     C12482   9.176   0.167   8.855  0.2737  0.0071  0.5500
   93MOL0     C12483   9.130   0.315   8.871 -0.3184 -0.7123  0.5935
   93MOL0     C12484   9.205   0.407   8.779 -1.0057 -0.9333 -0.1679
   93MOL0     C12485   9.244   0.483   8.694  0.2221 -0.4650  0.2900
   93MOL0     C12486   8.656   0.066   8.882 -0.1401  0.1998 -0.5673
   93MOL0     C12487   8.522   0.101   8.908  0.0228 -0.0807  0.2684
   93MOL0     H12488   8.130  -0.036   9.094 -0.3553 -0.5588  0.5954
   93MOL0     H12489   7.906  -0.038   9.163  2.1159 -1.3483 -0.3793
   93MOL0     H12490   7.608   0.081   9.307  0.2371 -2.0768  0.4849
   93MOL0     H12491   7.777   0.025   9.312 -1.1703 -1.2444  0.6482
   93MOL0     H12492   7.754   0.185   9.512 -0.9225  2.6080  0.4671
   93MOL0     H12493   7.851   0.258   9.387  0.9934 -1.6722  1.5260
   93MOL0     H12494   7.687   0.421   9.464  2.5885 -2.4353  2.7199
   93MOL0     H12495   7.631   0.374   9.304  0.2918  0.1052  0.5455
   93MOL0     H12496   7.450   0.237   9.401  0.0104  1.4437 -1.3038
   93MOL0     H12497   7.503   0.257   9.571 -2.0820  1.2397  1.0669
   93MOL0     H12498   7.475   0.497   9.562 -1.1183  1.3401 -1.7622
   93MOL0     H12499   7.425   0.486   9.397 -0.5812 -1.6217 -1.4105
   93MOL0     H12500   7.232   0.324   9.460 -1.0484  0.4232 -0.1755
   93MOL0     H12501   7.279   0.353   9.631  0.1821  1.4868  1.1212
   93MOL0     H12502   7.226   0.576   9.622 -3.1629 -2.9376  3.1477
   93MOL0     H12503   7.201   0.581   9.440  0.4989  2.1649  1.2536
   93MOL0     H12504   7.022   0.460   9.643  1.5660  1.1032  0.9595
   93MOL0     H12505   7.008   0.434   9.470  0.8151 -1.6712  1.1591
   93MOL0     H12506   6.969   0.734   9.746  0.8128  2.0944 -0.0732
   93MOL0     H12507   6.793   0.894   9.788  1.7005 -0.2742  0.5652
   93MOL0     H12508   6.774   0.993   9.638  0.6491 -0.4355  1.4490
   93MOL0     H12509   6.574   0.783   9.711  1.4032 -0.0443  2.3241
   93MOL0     H12510   6.579   0.899   9.578  0.7686 -0.0086  0.3007
   93MOL0     H12511   6.586   1.085   9.750 -1.7307  0.2953  0.2668
   93MOL0     H12512   6.544   0.964   9.881 -2.3273  1.8632  1.0817
   93MOL0     H12513   6.352   0.887   9.751 -0.7966 -0.4236  1.3314
   93MOL0     H12514   6.377   1.020   9.643  1.9064 -0.4237 -1.5756
   93MOL0     H12515   6.265   0.922  10.034  1.8081 -1.5796 -3.7504
   93MOL0     H12516   5.971   0.877  10.226  0.1732  1.5820  1.1198
   93MOL0     H12517   5.994   0.745  10.124 -1.4513  0.9774  0.5318
   93MOL0     H12518   6.135   0.823  10.196  0.5834  2.4130 -1.7930
   93MOL0     H12519   5.737   0.668  10.139  0.9472  0.4250 -0.1676
   93MOL0     H12520   5.528   0.542  10.131  1.0809 -0.2314 -0.2233
   93MOL0     H12521   5.161   0.761  10.231 -1.3673  0.7492  0.9432
   93MOL0     H12522   5.153   0.808  10.059  0.3802  0.5667 -0.6722
   93MOL0     H12523   5.056   0.559  10.034 -1.0954  0.5232 -1.6287
   93MOL0     H12524   5.038   0.564  10.208 -1.9164  2.5584  1.7272
   93MOL0     H12525   4.926   0.804  10.059 -1.5902 -0.2914  0.4451
   93MOL0     H12526   4.875   0.726  10.211 -1.1768 -0.1405 -0.4305
   93MOL0     H12527   4.828   0.635   9.920  0.3156  1.2925  0.1821
   93MOL0     H12528   4.798   0.520  10.052 -0.4969  0.9727  1.2980
   93MOL0     H12529   4.682   0.786  10.065 -0.4573 -0.4192  0.7453
   93MOL0     H12530   4.644   0.652  10.161 -1.0552  1.8917  0.1215
   93MOL0     H12531   4.602   0.658   9.856  3.8519 -0.8453  0.1489
   93MOL0     H12532   4.521   0.534   9.966 -2.2756  1.7507  4.7426
   93MOL0     H12533   4.433   0.818   9.916 -0.9683  0.9164  1.1702
   93MOL0     H12534   4.416   0.751  10.078  2.0408 -0.0935 -0.4142
   93MOL0     H12535   4.303   0.544   9.985 -1.0677 -1.3881 -0.1672
   93MOL0     H12536   4.312   0.634   9.828 -1.2367 -0.6364  0.4193
   93MOL0     H12537   5.315   0.918  10.072 -0.5567 -1.3845 -3.3458
   93MOL0     H12538   5.535   1.036  10.073  0.8047 -0.5641 -2.3870
   93MOL0     H12539   5.897   1.052   9.740 -0.5503  3.3630  0.8943
   93MOL0     H12540   6.123   1.114   9.681  0.9531  0.5462 -0.3846
   93MOL0     H12541   7.845   0.367   9.046  0.4151  0.6414 -1.6977
   93MOL0     H12542   8.081   0.378   8.980 -0.2007 -0.7350 -1.1535
   93MOL0     H12543   8.561   0.436   8.938  5.8744  1.6592  3.5290
   93MOL0     H12544   8.786   0.379   8.910 -1.2149  0.7014 -2.0450
   93MOL0     H12545   8.908  -0.006   9.001 -0.4813 -0.8320 -0.2509
   93MOL0     H12546   8.950  -0.061   8.839  1.0953 -2.2145  2.2966
   93MOL0     H12547   9.155  -0.019   8.966  1.0175 -0.0826 -0.0424
   93MOL0     H12548   9.085   0.119   9.047 -2.3919  0.8966 -0.8704
   93MOL0     H12549   9.154   0.126   8.756 -2.1417  1.1909  0.5316
   93MOL0     H12550   9.284   0.178   8.873  0.3958  0.3133 -0.3214
   93MOL0     H12551   9.147   0.345   8.974 -0.1344  0.1661  0.3196
   93MOL0     H12552   9.024   0.328   8.847 -0.0327 -1.2212 -1.0794
   93MOL0     H12553   9.269   0.554   8.617 -1.7951 -1.3954 -1.3116
   93MOL0     H12554   8.685  -0.037   8.866  2.5439  0.7246  0.3207
   93MOL0     H12555   8.445   0.024   8.914  0.8618 -1.0987 -1.4237
   94MOL0     O12556   1.736   7.304   6.404 -0.3921  0.0994 -0.2126
   94MOL0     C12557   1.794   7.237   6.321  0.6411  0.7156  0.1469
   94MOL0     O12558   1.727   7.163   6.217  0.3301  0.2419 -0.5162
   94MOL0     C12559   1.591   7.162   6.223 -0.4548 -0.7828 -0.0880
   94MOL0     C12560   1.504   7.265   6.184 -0.2481 -0.0855 -0.4035
   94MOL0     C12561   1.361   7.247   6.185  0.8325  0.6410  0.2659
   94MOL0     C12562   1.315   7.118   6.233  0.0702  0.2343  0.1577
   94MOL0     O12563   1.176   7.115   6.245 -0.6083 -0.0126  0.0537
   94MOL0     C12564   1.118   7.013   6.325 -0.2278  1.7541  0.0792
   94MOL0     C12565   0.971   7.027   6.346  0.0965  0.1814 -0.0612
   94MOL0     C12566   0.890   6.989   6.224  0.0000 -1.0734 -0.2232
   94MOL0     C12567   0.745   6.954   6.279 -0.4092 -0.3316  0.0482
   94MOL0     C12568   0.660   7.075   6.292  0.0651  0.7205  0.3455
   94MOL0     C12569   0.682   7.163   6.412  0.1406 -0.0745 -0.2260
   94MOL0     C12570   0.548   7.179   6.497 -0.4562  0.2674  0.8858
   94MOL0     C12571   0.561   7.307   6.578 -0.5008  0.7255  0.3504
   94MOL0     N12572   0.432   7.348   6.635  0.0331  0.4978 -0.3264
   94MOL0     C12573   0.352   7.272   6.721  0.6653  0.1094 -0.4763
   94MOL0     C12574   0.256   7.358   6.757  0.0586 -0.4832 -0.1855
   94MOL0     C12575   0.123   7.332   6.818 -0.3827 -0.6911  0.1565
   94MOL0     C12576   0.013   7.439   6.782  0.3102 -0.2534  0.3348
   94MOL0     C12577   0.018   7.564   6.871 -0.2317 -0.6423 -0.4957
   94MOL0     C12578  -0.109   7.649   6.882 -0.4222 -1.0915  0.4378
   94MOL0     O12579  -0.217   7.590   6.948  0.7694 -0.1216 -0.4999
   94MOL0     C12580  -0.326   7.675   6.964 -0.3954 -0.6709  0.0160
   94MOL0     C12581  -0.350   7.800   6.898 -0.7950 -0.2478 -0.3901
   94MOL0     C12582  -0.464   7.881   6.918 -1.0515  0.2275 -0.2104
   94MOL0     C12583  -0.470   8.018   6.854 -1.1248 -0.3397 -0.3119
   94MOL0     C12584  -0.568   7.828   7.000 -0.0334 -0.3012 -0.0372
   94MOL0     C12585  -0.707   7.884   7.008  0.2901 -0.8485  0.5446
   94MOL0     O12586  -0.803   7.796   7.037 -0.1489  0.2796  0.0155
   94MOL0     C12587  -0.937   7.839   7.030 -1.0789 -0.0564  0.4974
   94MOL0     C12588  -0.982   7.913   6.915  0.3299  0.0796  0.7986
   94MOL0     C12589  -1.114   7.945   6.906  0.4871 -0.1331  0.4489
   94MOL0     C12590  -1.207   7.914   7.009  0.2038  0.4000  0.6433
   94MOL0     O12591  -1.342   7.952   7.002 -0.0791  0.3845  0.7747
   94MOL0     C12592  -1.398   7.975   6.870 -0.0272  0.8822  0.0675
   94MOL0     C12593  -1.538   8.028   6.882  0.5818 -0.6126 -0.3994
   94MOL0     C12594  -1.627   8.007   6.764 -0.7673  0.3016  0.5808
   94MOL0     C12595  -1.730   7.895   6.781 -0.5668 -0.1999 -0.3289
   94MOL0     C12596  -1.787   7.853   6.644  0.0695 -0.0138  0.2109
   94MOL0     C12597  -1.903   7.752   6.657 -0.4794 -0.5987 -0.2526
   94MOL0     C12598  -1.978   7.718   6.522  0.0852 -0.0523  0.5403
   94MOL0     C12599  -2.084   7.611   6.556 -0.2072 -0.4146 -0.9152
   94MOL0    Cl12600  -2.008   7.446   6.547  0.3009  0.1097 -0.2104
   94MOL0     C12601  -1.159   7.846   7.120  0.7129 -0.1183 -0.0009
   94MOL0     C12602  -1.021   7.814   7.135  0.1678 -0.0264  0.5252
   94MOL0     O12603  -0.717   8.011   7.001  0.3694 -0.7284  0.1991
   94MOL0     C12604  -0.536   7.708   7.069 -0.0818  0.1014  0.7159
   94MOL0     C12605  -0.420   7.638   7.052 -0.0939 -0.1591  0.0152
   94MOL0     N12606   0.289   7.484   6.702 -0.5895  0.2072 -0.1624
   94MOL0     N12607   0.388   7.469   6.626 -0.9568  0.4002  0.1317
   94MOL0     C12608   1.399   7.016   6.268  0.5053 -0.1101  0.6028
   94MOL0     C12609   1.541   7.040   6.266  0.8017  0.1875 -0.0808
   94MOL0     C12610   1.938   7.225   6.317  0.3519  0.2609  0.1164
   94MOL0     C12611   2.010   7.279   6.428 -0.3331 -0.4017 -0.0276
   94MOL0     C12612   2.151   7.276   6.427  0.5900 -0.1283 -0.8513
   94MOL0     C12613   2.218   7.217   6.316 -0.4949 -0.3169  0.0578
   94MOL0     O12614   2.353   7.220   6.330 -0.3656  0.2219  0.3271
   94MOL0     C12615   2.431   7.131   6.249 -0.6608  0.5172  0.5235
   94MOL0     C12616   2.584   7.151   6.284 -0.7405  0.8039 -0.5482
   94MOL0     C12617   2.625   7.111   6.430  1.1566  0.1226 -0.0664
   94MOL0     C12618   2.593   6.965   6.455  1.2902 -0.5179  0.8029
   94MOL0     C12619   2.651   6.930   6.586  1.0087 -0.6622  0.0648
   94MOL0     C12620   2.697   6.892   6.694 -0.0021  0.5072  0.2856
   94MOL0     C12621   2.145   7.168   6.199 -0.4916 -0.0766 -0.4242
   94MOL0     C12622   2.009   7.177   6.205 -0.3831  0.1729  0.8318
   94MOL0     H12623   1.539   7.363   6.150  0.1244 -0.5635 -1.4454
   94MOL0     H12624   1.288   7.323   6.160 -0.6373  0.3810  3.3045
   94MOL0     H12625   1.137   6.914   6.281 -2.8814  0.5294  1.4253
   94MOL0     H12626   1.165   7.015   6.424 -0.0971  1.0152  0.0421
   94MOL0     H12627   0.942   6.962   6.430  0.5568  0.2374  0.1450
   94MOL0     H12628   0.949   7.131   6.370  1.0970  1.1376 -2.8804
   94MOL0     H12629   0.884   7.067   6.149  2.0974  0.4994  1.1526
   94MOL0     H12630   0.942   6.909   6.170  0.1091 -1.3023  0.2114
   94MOL0     H12631   0.699   6.885   6.208 -0.3330 -1.2794  0.8897
   94MOL0     H12632   0.748   6.909   6.379 -1.6755 -0.7904 -0.1069
   94MOL0     H12633   0.679   7.130   6.199  0.3059  0.5134  0.2712
   94MOL0     H12634   0.554   7.050   6.295 -0.1418  1.1631 -1.6639
   94MOL0     H12635   0.764   7.124   6.473  0.3267 -1.1027 -1.1037
   94MOL0     H12636   0.712   7.259   6.369 -1.4404 -0.3353 -2.0065
   94MOL0     H12637   0.462   7.192   6.430  0.3238 -0.2241 -0.2507
   94MOL0     H12638   0.524   7.092   6.559 -0.7483 -0.0561  0.3346
   94MOL0     H12639   0.590   7.391   6.513  1.0907 -0.3187 -0.3205
   94MOL0     H12640   0.623   7.296   6.667 -0.4911  1.6080  0.4689
   94MOL0     H12641   0.353   7.167   6.747  0.2327 -0.4152 -2.4123
   94MOL0     H12642   0.088   7.231   6.792 -1.0816 -0.6026  0.7252
   94MOL0     H12643   0.149   7.318   6.924  2.5298 -1.1569 -0.5364
   94MOL0     H12644  -0.089   7.399   6.790 -0.8695  1.9096 -2.1930
   94MOL0     H12645   0.020   7.461   6.675 -0.8880 -0.7610  0.1310
   94MOL0     H12646   0.092   7.638   6.838 -1.0544  1.8396  2.6414
   94MOL0     H12647   0.052   7.529   6.969  0.8464 -0.0196 -0.6268
   94MOL0     H12648  -0.133   7.685   6.782  1.3962  2.4313  1.1047
   94MOL0     H12649  -0.079   7.736   6.941 -2.0308 -0.6230  0.6305
   94MOL0     H12650  -0.273   7.841   6.833  0.0382 -2.1912 -0.7034
   94MOL0     H12651  -0.369   8.038   6.817 -1.0705  2.0479  0.9750
   94MOL0     H12652  -0.554   8.024   6.783 -4.1620 -0.1119  3.0376
   94MOL0     H12653  -0.489   8.099   6.925 -1.0760  1.1281 -1.9019
   94MOL0     H12654  -0.922   7.939   6.828 -0.2190 -0.6496  0.1925
   94MOL0     H12655  -1.145   8.000   6.818 -1.3011 -1.3589  0.2696
   94MOL0     H12656  -1.346   8.048   6.807 -2.5470  3.0648  0.3269
   94MOL0     H12657  -1.406   7.878   6.818 -3.0673  1.1362 -0.1622
   94MOL0     H12658  -1.575   7.972   6.969  1.5602 -1.6140 -0.6046
   94MOL0     H12659  -1.536   8.133   6.912  1.2806 -0.3983 -1.1600
   94MOL0     H12660  -1.575   7.967   6.676 -1.7288  1.8524 -0.7500
   94MOL0     H12661  -1.674   8.104   6.744  1.3382  1.3826  0.5785
   94MOL0     H12662  -1.685   7.803   6.821  2.4662  0.1499 -2.6180
   94MOL0     H12663  -1.811   7.931   6.845 -1.2026 -1.5728 -0.3068
   94MOL0     H12664  -1.704   7.810   6.588 -0.3049  0.3183 -0.6082
   94MOL0     H12665  -1.824   7.944   6.596 -0.8996  0.9149  2.5456
   94MOL0     H12666  -1.856   7.670   6.711 -0.0510 -0.7086 -0.7866
   94MOL0     H12667  -1.976   7.805   6.720  0.8967  1.7280 -0.4702
   94MOL0     H12668  -1.908   7.679   6.447  1.2075  1.0201  1.0011
   94MOL0     H12669  -2.029   7.811   6.496  0.4484  1.2522  3.9767
   94MOL0     H12670  -2.163   7.612   6.480  0.0956  0.9706 -1.2450
   94MOL0     H12671  -2.132   7.627   6.653 -0.2279  1.6802 -1.2218
   94MOL0     H12672  -1.226   7.828   7.204 -1.3478 -0.5781 -1.6534
   94MOL0     H12673  -0.987   7.766   7.226 -1.4289  0.8754  1.6580
   94MOL0     H12674  -0.608   7.654   7.131 -0.3165 -1.4357 -0.8090
   94MOL0     H12675  -0.416   7.539   7.094  0.3372 -0.6761 -1.2029
   94MOL0     H12676   1.348   6.923   6.292  2.4780 -0.8984  1.9695
   94MOL0     H12677   1.612   6.965   6.298  1.1502 -0.7922 -2.8546
   94MOL0     H12678   1.965   7.313   6.520 -2.4736 -0.9759 -0.8001
   94MOL0     H12679   2.196   7.318   6.517 -2.2022  0.0253  0.5635
   94MOL0     H12680   2.402   7.026   6.255 -0.9991  0.0484 -4.6373
   94MOL0     H12681   2.414   7.149   6.142  0.4400 -0.4374  0.1675
   94MOL0     H12682   2.609   7.253   6.254 -2.1497  0.8851 -1.5604
   94MOL0     H12683   2.650   7.098   6.214 -0.8320 -0.5866  0.3873
   94MOL0     H12684   2.564   7.173   6.496 -0.2089 -0.3278 -0.8725
   94MOL0     H12685   2.730   7.137   6.444  0.9448  0.2521  1.4362
   94MOL0     H12686   2.620   6.891   6.379  1.6354 -1.5578  1.9074
   94MOL0     H12687   2.485   6.952   6.469  1.2520 -0.7164  0.3394
   94MOL0     H12688   2.740   6.859   6.787  0.4608 -0.7013 -0.3335
   94MOL0     H12689   2.202   7.143   6.110 -1.3867  3.6547 -2.2715
   94MOL0     H12690   1.956   7.136   6.119  0.3563 -0.5180  0.6965
   95MOL0     O12691   2.424   2.406   3.348  0.2326  0.3466 -0.5276
   95MOL0     C12692   2.493   2.337   3.417 -0.2001  0.7945 -0.1375
   95MOL0     O12693   2.462   2.219   3.470  0.2699 -0.3641 -0.4176
   95MOL0     C12694   2.338   2.166   3.473  0.4053 -0.0224 -0.2385
   95MOL0     C12695   2.323   2.035   3.506 -0.5379  0.4710  0.3683
   95MOL0     C12696   2.194   1.970   3.500 -0.4064 -0.2683 -0.0808
   95MOL0     C12697   2.076   2.039   3.469  0.1362 -0.2292 -0.2348
   95MOL0     O12698   1.948   1.987   3.436 -0.1204 -0.2286  0.2834
   95MOL0     C12699   1.938   1.842   3.430 -0.2537  0.7472  0.1984
   95MOL0     C12700   1.799   1.805   3.379  0.1535  0.1977  0.6398
   95MOL0     C12701   1.703   1.806   3.494  0.1185  0.3227  0.0915
   95MOL0     C12702   1.559   1.756   3.461  0.3599 -0.0636  0.3457
   95MOL0     C12703   1.555   1.604   3.427  0.5519  0.6583  0.0139
   95MOL0     C12704   1.416   1.552   3.467 -0.5553  0.2409 -0.0227
   95MOL0     C12705   1.400   1.399   3.438  0.6262 -0.4068 -0.2846
   95MOL0     C12706   1.263   1.360   3.371 -0.2309  0.8684  0.3344
   95MOL0     N12707   1.167   1.329   3.473 -0.7033 -0.7189  0.8782
   95MOL0     C12708   1.096   1.412   3.558 -1.2572 -0.1626 -0.0081
   95MOL0     C12709   1.043   1.331   3.644 -0.6773 -0.0000  0.6367
   95MOL0     C12710   0.964   1.371   3.762  0.5716  0.3743 -0.0112
   95MOL0     C12711   0.817   1.341   3.731  0.1556  0.6554 -0.2376
   95MOL0     C12712   0.739   1.358   3.866 -0.0207  0.3672  0.4651
   95MOL0     C12713   0.600   1.302   3.853  0.2318  0.1322 -0.2340
   95MOL0     O12714   0.549   1.290   3.981 -0.4470 -0.0556  0.2978
   95MOL0     C12715   0.423   1.237   3.994  0.3666 -0.5832  0.6647
   95MOL0     C12716   0.406   1.099   3.972  0.3845  0.0960  0.9298
   95MOL0     C12717   0.290   1.030   4.006 -0.5825 -0.1336 -0.4832
   95MOL0     C12718   0.297   0.876   4.000  0.1225 -0.5616  0.4816
   95MOL0     C12719   0.183   1.109   4.065 -0.3772 -0.4229 -0.0037
   95MOL0     C12720   0.054   1.055   4.107  0.1809  0.5618 -0.9932
   95MOL0     O12721  -0.045   1.137   4.150  0.0020  0.1186  0.3083
   95MOL0     C12722  -0.157   1.074   4.200 -0.6382 -0.7746  0.7412
   95MOL0     C12723  -0.275   1.084   4.132  0.0456 -0.2339 -0.2846
   95MOL0     C12724  -0.397   1.028   4.181 -0.3173 -0.5037 -0.5349
   95MOL0     C12725  -0.403   0.953   4.303 -0.0567 -0.4858 -0.1204
   95MOL0     O12726  -0.506   0.893   4.365 -0.6488 -0.4974  0.0081
   95MOL0     C12727  -0.609   0.868   4.282  0.8644 -0.1692  0.1070
   95MOL0     C12728  -0.703   0.784   4.369 -0.4698 -0.0449  0.1033
   95MOL0     C12729  -0.810   0.864   4.442 -0.3407 -0.7966 -0.4113
   95MOL0     C12730  -0.948   0.817   4.417  0.2205  0.3412 -0.8494
   95MOL0     C12731  -1.048   0.924   4.472 -0.0837 -0.2081  0.0061
   95MOL0     C12732  -1.186   0.864   4.492 -0.4465 -0.4597 -0.1696
   95MOL0     C12733  -1.297   0.963   4.496 -0.6823  0.1407 -0.3696
   95MOL0     C12734  -1.418   0.904   4.561  0.4930  0.1139  0.5667
   95MOL0    Cl12735  -1.459   0.741   4.474  0.0117  0.1303  0.3488
   95MOL0     C12736  -0.281   0.936   4.369 -0.2219  0.2976 -0.2973
   95MOL0     C12737  -0.160   0.999   4.315  0.0651  0.1152  0.2663
   95MOL0     O12738   0.042   0.931   4.110  0.2568  0.0068 -0.1365
   95MOL0     C12739   0.194   1.250   4.071 -0.4023  0.3154 -0.1312
   95MOL0     C12740   0.314   1.313   4.031 -0.0375  0.9054 -0.4520
   95MOL0     N12741   1.076   1.203   3.614 -0.3256 -0.2739  0.2833
   95MOL0     N12742   1.157   1.200   3.514  0.0092  0.9339 -0.4831
   95MOL0     C12743   2.089   2.179   3.457  0.9247  0.7221  0.2275
   95MOL0     C12744   2.217   2.240   3.462 -0.0596 -0.1698 -0.3237
   95MOL0     C12745   2.639   2.369   3.436  0.6140  0.3157  0.2226
   95MOL0     C12746   2.692   2.497   3.389 -0.1117  1.0363 -0.1155
   95MOL0     C12747   2.826   2.523   3.399 -0.0434 -0.4793  0.3878
   95MOL0     C12748   2.909   2.429   3.470 -0.3343 -0.7472  0.1817
   95MOL0     O12749   3.044   2.434   3.487 -0.1799 -0.0210 -0.1568
   95MOL0     C12750   3.115   2.546   3.433 -0.5879  0.4420 -0.0369
   95MOL0     C12751   3.272   2.540   3.437 -0.0634 -0.7674  0.3358
   95MOL0     C12752   3.322   2.574   3.579 -0.3217 -0.2214  0.8056
   95MOL0     C12753   3.478   2.564   3.592  0.6263 -0.2371 -0.6096
   95MOL0     C12754   3.546   2.435   3.571  0.2681 -0.1449  1.3009
   95MOL0     C12755   3.594   2.326   3.571 -0.1913 -0.0369 -0.0189
   95MOL0     C12756   2.856   2.313   3.522 -0.0863  0.8507 -0.0651
   95MOL0     C12757   2.725   2.284   3.507 -0.0577  0.4130 -0.2628
   95MOL0     H12758   2.416   1.987   3.534  1.9858  3.6600 -1.7541
   95MOL0     H12759   2.199   1.862   3.501 -1.2444 -0.3166  2.0451
   95MOL0     H12760   2.014   1.806   3.359  0.0916  1.4436  0.2094
   95MOL0     H12761   1.962   1.788   3.522  2.2588  0.4724 -0.5273
   95MOL0     H12762   1.768   1.879   3.305  0.9088  0.8098  0.9166
   95MOL0     H12763   1.814   1.706   3.336  0.1650 -0.9824  3.1814
   95MOL0     H12764   1.739   1.744   3.577  1.6679  1.1306  0.0467
   95MOL0     H12765   1.693   1.908   3.532 -2.6668 -0.4241  1.6474
   95MOL0     H12766   1.509   1.768   3.557 -0.7072 -1.9155  0.0676
   95MOL0     H12767   1.507   1.810   3.381  1.7270  0.0833 -0.4749
   95MOL0     H12768   1.593   1.575   3.329  0.5575  0.0146  0.1975
   95MOL0     H12769   1.619   1.547   3.496  0.0880 -1.5076 -1.2383
   95MOL0     H12770   1.399   1.571   3.573 -1.2667  1.5227 -0.3331
   95MOL0     H12771   1.340   1.609   3.411 -2.2955 -0.3243  1.6405
   95MOL0     H12772   1.471   1.366   3.362 -0.0463  0.5194 -1.3523
   95MOL0     H12773   1.414   1.329   3.521  2.6500  0.1830 -0.0780
   95MOL0     H12774   1.275   1.273   3.306  0.2088  2.6700 -2.1617
   95MOL0     H12775   1.225   1.443   3.311 -0.0664 -0.0153 -1.0447
   95MOL0     H12776   1.069   1.516   3.546  1.6647  1.0099  2.4162
   95MOL0     H12777   1.001   1.304   3.840 -1.0714  1.4127  1.7401
   95MOL0     H12778   0.987   1.471   3.800  0.3714 -0.4964  2.6436
   95MOL0     H12779   0.803   1.240   3.691 -0.5324  0.9992 -0.9106
   95MOL0     H12780   0.783   1.412   3.655 -1.1118  0.6227  0.2772
   95MOL0     H12781   0.737   1.464   3.893  0.8329  0.6988 -0.6754
   95MOL0     H12782   0.800   1.300   3.935 -0.1536  0.5603  0.7467
   95MOL0     H12783   0.599   1.200   3.814 -4.2646  0.0633 -0.5464
   95MOL0     H12784   0.545   1.362   3.780  1.5186  0.7738 -0.6976
   95MOL0     H12785   0.496   1.048   3.939 -1.5657 -2.3603 -0.9957
   95MOL0     H12786   0.291   0.825   4.097 -1.1504 -3.2228 -0.8867
   95MOL0     H12787   0.208   0.845   3.945  0.3971  1.4820 -1.2337
   95MOL0     H12788   0.384   0.837   3.947  1.2972  0.4434  1.6024
   95MOL0     H12789  -0.281   1.132   4.035  4.2480  0.8540 -0.2079
   95MOL0     H12790  -0.492   1.031   4.129 -0.3676 -0.1426 -0.4243
   95MOL0     H12791  -0.665   0.958   4.254 -1.7137 -2.1009 -1.4451
   95MOL0     H12792  -0.591   0.818   4.187 -1.3303  0.6870 -0.8269
   95MOL0     H12793  -0.747   0.703   4.310 -0.8142 -2.4548  3.4163
   95MOL0     H12794  -0.640   0.739   4.446  0.9105 -0.0228 -0.9624
   95MOL0     H12795  -0.804   0.969   4.414  0.6824 -1.4058 -2.7075
   95MOL0     H12796  -0.787   0.855   4.549 -2.0418 -1.8231 -0.0878
   95MOL0     H12797  -0.955   0.812   4.308  1.9244  0.0784 -0.9767
   95MOL0     H12798  -0.962   0.718   4.461  2.4983 -1.2534 -3.4233
   95MOL0     H12799  -1.057   1.006   4.401 -3.0960  0.4938  1.0797
   95MOL0     H12800  -1.021   0.967   4.569  0.4282 -2.0899  0.7460
   95MOL0     H12801  -1.201   0.793   4.410  0.7197 -0.9977  0.0583
   95MOL0     H12802  -1.175   0.806   4.584 -1.0017  0.1126  0.2644
   95MOL0     H12803  -1.323   1.005   4.398 -0.8423 -1.0597 -0.8589
   95MOL0     H12804  -1.253   1.046   4.552  2.2301 -0.6004 -1.3758
   95MOL0     H12805  -1.504   0.971   4.550  0.9362  0.7423  0.8596
   95MOL0     H12806  -1.399   0.882   4.666  1.4623 -0.9633  0.1854
   95MOL0     H12807  -0.275   0.872   4.456  0.2193  0.5237 -0.1563
   95MOL0     H12808  -0.063   0.979   4.358  0.3591  1.6949  0.3777
   95MOL0     H12809   0.115   1.315   4.107 -0.3414  1.7781 -2.4149
   95MOL0     H12810   0.331   1.419   4.041 -2.0155  1.4740 -2.4030
   95MOL0     H12811   2.000   2.238   3.440 -0.6480 -1.2029  1.3443
   95MOL0     H12812   2.208   2.347   3.447 -1.6692 -0.5566 -2.4348
   95MOL0     H12813   2.617   2.559   3.342 -3.1598 -0.2800  2.6095
   95MOL0     H12814   2.874   2.601   3.341 -3.1195  1.5622  0.3325
   95MOL0     H12815   3.077   2.545   3.331 -0.8336 -0.6984  0.0522
   95MOL0     H12816   3.086   2.634   3.491 -0.1068  0.8734 -0.4358
   95MOL0     H12817   3.316   2.616   3.372  0.9989 -0.4684  1.3797
   95MOL0     H12818   3.296   2.441   3.399 -0.0272 -0.3995 -0.6402
   95MOL0     H12819   3.273   2.497   3.640  0.3243 -0.5579  0.9186
   95MOL0     H12820   3.285   2.673   3.606  0.6817  1.0439 -2.0115
   95MOL0     H12821   3.510   2.584   3.695  0.0802 -1.8771 -0.0846
   95MOL0     H12822   3.524   2.639   3.527 -0.2974  1.1490  0.2920
   95MOL0     H12823   3.633   2.227   3.586  1.3107  0.6558  0.9710
   95MOL0     H12824   2.919   2.243   3.576  0.4114  0.1561 -1.4874
   95MOL0     H12825   2.685   2.203   3.567 -0.7375  2.3012  1.9792
   96MOL0     O12826   5.604  10.181  10.699  0.4789  0.2855 -0.1874
   96MOL0     C12827   5.583  10.063  10.733 -0.0689 -0.1536  0.3109
   96MOL0     O12828   5.457  10.006  10.740 -0.1934  0.1693 -0.2672
   96MOL0     C12829   5.344  10.081  10.713  0.8408 -0.1859 -0.2280
   96MOL0     C12830   5.256  10.045  10.611 -0.0335 -0.3586 -0.4433
   96MOL0     C12831   5.128  10.101  10.607 -0.8126 -1.0256  0.3741
   96MOL0     C12832   5.081  10.195  10.707  0.4070  0.6182  0.7484
   96MOL0     O12833   4.954  10.235  10.702 -0.4323 -0.3775 -0.5019
   96MOL0     C12834   4.947  10.377  10.670  0.0687  0.3934 -0.3045
   96MOL0     C12835   4.934  10.403  10.519  0.2852 -1.0805 -0.7873
   96MOL0     C12836   4.790  10.387  10.460 -0.3518 -0.8128  0.2457
   96MOL0     C12837   4.766  10.241  10.427 -0.3615  0.1687 -0.2649
   96MOL0     C12838   4.623  10.222  10.355 -0.3916  0.6798 -0.6478
   96MOL0     C12839   4.627  10.247  10.210 -0.4529  0.2018 -0.3504
   96MOL0     C12840   4.492  10.215  10.150 -0.0033 -0.5562 -0.2018
   96MOL0     C12841   4.488  10.250  10.001  0.4226  0.2264 -0.2615
   96MOL0     N12842   4.359  10.213   9.940  0.7992  1.1920  0.3193
   96MOL0     C12843   4.318  10.086   9.912  0.7492  0.0493 -0.3167
   96MOL0     C12844   4.190  10.109   9.862  0.6994 -0.0533  0.2425
   96MOL0     C12845   4.105   9.998   9.821  0.3149  0.6692  0.1900
   96MOL0     C12846   3.998  10.041   9.723  0.2140 -0.3648 -0.3079
   96MOL0     C12847   3.858  10.026   9.778  0.2554  1.1957  0.1415
   96MOL0     C12848   3.758  10.031   9.661  0.2380 -0.0123 -0.2481
   96MOL0     O12849   3.637  10.010   9.731 -0.7482 -0.8507 -0.4318
   96MOL0     C12850   3.516  10.035   9.669 -0.5004  1.0265  0.8457
   96MOL0     C12851   3.507  10.073   9.531 -0.2141  0.5373 -0.6509
   96MOL0     C12852   3.378  10.090   9.465 -1.2041  0.4723 -0.4529
   96MOL0     C12853   3.386  10.138   9.327 -0.1943 -0.2885  0.0505
   96MOL0     C12854   3.266  10.071   9.548 -0.1921  0.6387  0.7872
   96MOL0     C12855   3.132  10.092   9.487 -0.1705 -0.5215 -0.4335
   96MOL0     O12856   3.119  10.189   9.397 -0.2965 -0.2702  0.0501
   96MOL0     C12857   2.989  10.231   9.364  0.8350  0.4753  0.4666
   96MOL0     C12858   2.895  10.271   9.463 -0.3206  1.0732  0.4482
   96MOL0     C12859   2.766  10.318   9.437 -0.8907 -0.7660 -0.7297
   96MOL0     C12860   2.731  10.349   9.308 -0.2273 -0.0850  0.5548
   96MOL0     O12861   2.595  10.390   9.291 -0.7078  0.0936  0.4883
   96MOL0     C12862   2.547  10.410   9.157  0.5173  0.1365 -0.5617
   96MOL0     C12863   2.573  10.551   9.101  0.2448 -0.3182 -0.2131
   96MOL0     C12864   2.551  10.562   8.957  0.2795  0.8098  0.4855
   96MOL0     C12865   2.413  10.507   8.906  0.1150  0.1076 -1.1008
   96MOL0     C12866   2.399  10.552   8.760 -0.4118  0.0615 -0.5201
   96MOL0     C12867   2.273  10.488   8.701 -0.3384 -0.1418  0.0350
   96MOL0     C12868   2.263  10.524   8.555  0.2793 -0.0308 -0.1057
   96MOL0     C12869   2.127  10.506   8.485  0.0963  0.5999 -0.7144
   96MOL0    Cl12870   2.074  10.327   8.480  0.2216  0.0976  0.7767
   96MOL0     C12871   2.830  10.328   9.204 -0.0318 -0.4632  0.6309
   96MOL0     C12872   2.952  10.274   9.234  0.6166 -0.3602 -0.5451
   96MOL0     O12873   3.044  10.009   9.519 -0.1388 -0.8775  0.1619
   96MOL0     C12874   3.272  10.037   9.680  0.0347 -0.0386  0.1378
   96MOL0     C12875   3.399  10.019   9.737  0.4217 -0.1184 -0.8033
   96MOL0     N12876   4.165  10.243   9.855  0.2883  0.2969  0.6939
   96MOL0     N12877   4.264  10.301   9.903  0.2941 -0.6026  0.5770
   96MOL0     C12878   5.164  10.232  10.814 -0.1980  0.8143  0.8278
   96MOL0     C12879   5.297  10.166  10.816  0.3977  0.2780  0.2185
   96MOL0     C12880   5.703   9.988  10.786  0.3176  0.1937 -0.3525
   96MOL0     C12881   5.825  10.022  10.739 -0.4475 -0.0998 -0.3351
   96MOL0     C12882   5.943   9.952  10.781  0.3519 -0.2573  0.3939
   96MOL0     C12883   5.926   9.848  10.865 -0.0367  0.7142 -0.9027
   96MOL0     O12884   6.042   9.772  10.894  0.2964  0.6478 -0.5943
   96MOL0     C12885   6.066   9.745  11.032 -0.6304  0.0022 -0.0886
   96MOL0     C12886   6.215   9.765  11.054 -0.0047  0.0553  0.2728
   96MOL0     C12887   6.261   9.787  11.206  0.2719 -0.5691 -0.0543
   96MOL0     C12888   6.414   9.812  11.220 -0.3791  0.3612  0.4069
   96MOL0     C12889   6.457   9.946  11.177 -0.2229 -0.3475 -0.7603
   96MOL0     C12890   6.490  10.053  11.131  0.0610 -0.0841 -0.5759
   96MOL0     C12891   5.801   9.818  10.932  1.4080  0.1301  0.0995
   96MOL0     C12892   5.689   9.891  10.884  0.6713 -0.2237 -0.1958
   96MOL0     H12893   5.287   9.969  10.540  1.0069 -0.4528  0.0958
   96MOL0     H12894   5.045  10.075  10.543 -0.2391 -2.0577  0.0321
   96MOL0     H12895   4.868  10.431  10.722 -0.2673  0.8396 -1.2566
   96MOL0     H12896   5.029  10.431  10.717 -3.4941  2.4700  4.2702
   96MOL0     H12897   4.974  10.503  10.500  0.8580 -0.3992  3.0732
   96MOL0     H12898   4.993  10.333  10.460 -1.4803 -1.4652 -2.1941
   96MOL0     H12899   4.732  10.443  10.534  1.5751  3.3690 -1.1345
   96MOL0     H12900   4.767  10.438  10.366 -1.9444 -1.3127  0.3366
   96MOL0     H12901   4.845  10.200  10.364  0.2600  0.6233  0.2118
   96MOL0     H12902   4.765  10.175  10.514  0.8632 -4.3930 -3.3437
   96MOL0     H12903   4.588  10.120  10.374 -0.4936  0.9934  1.0640
   96MOL0     H12904   4.554  10.293  10.402 -0.5732  0.0222  0.1045
   96MOL0     H12905   4.657  10.351  10.191  1.8102 -0.4322 -0.4882
   96MOL0     H12906   4.706  10.193  10.158 -0.8219 -1.5257  0.8091
   96MOL0     H12907   4.469  10.108  10.162 -0.9631 -0.0701  3.2271
   96MOL0     H12908   4.412  10.274  10.195 -1.3894 -1.6908 -1.0729
   96MOL0     H12909   4.571  10.196   9.954  0.8550 -1.7461  2.5322
   96MOL0     H12910   4.501  10.357   9.984  0.3930  0.0866 -1.2286
   96MOL0     H12911   4.357   9.991   9.945 -2.2321 -0.9803  0.5998
   96MOL0     H12912   4.167   9.919   9.777 -1.2507  1.3551 -3.6198
   96MOL0     H12913   4.055   9.955   9.909 -0.6947  1.5649  0.0693
   96MOL0     H12914   4.020   9.960   9.653 -1.4641 -2.9373  1.9170
   96MOL0     H12915   4.005  10.139   9.676 -2.7719 -0.0263 -0.2379
   96MOL0     H12916   3.842  10.099   9.858 -0.8167  0.7721  0.3176
   96MOL0     H12917   3.857   9.927   9.823  1.4134  0.3131 -1.6319
   96MOL0     H12918   3.780   9.949   9.593 -0.6992 -1.3959  1.0649
   96MOL0     H12919   3.762  10.128   9.611 -0.6507  0.8533  1.2712
   96MOL0     H12920   3.601  10.082   9.479  0.7447  0.0954  0.9196
   96MOL0     H12921   3.340  10.070   9.255  2.0683 -1.9737  0.1140
   96MOL0     H12922   3.338  10.232   9.297  0.7716 -0.8661 -3.7345
   96MOL0     H12923   3.490  10.147   9.296  0.3926 -2.3279  1.2959
   96MOL0     H12924   2.926  10.253   9.566 -1.5551  5.6662  1.8474
   96MOL0     H12925   2.691  10.328   9.514 -0.6855 -1.5016 -0.4191
   96MOL0     H12926   2.582  10.330   9.091 -1.9657  0.2779 -2.1577
   96MOL0     H12927   2.438  10.404   9.158  0.4453  1.1407  0.8083
   96MOL0     H12928   2.500  10.627   9.131  0.6459  1.0774 -2.4347
   96MOL0     H12929   2.671  10.597   9.120 -1.6737  2.9754  3.0316
   96MOL0     H12930   2.631  10.526   8.891 -1.7318 -0.2045 -1.5357
   96MOL0     H12931   2.550  10.669   8.937 -2.0984  0.9074  0.8433
   96MOL0     H12932   2.404  10.398   8.915  3.0726 -0.0530  1.5151
   96MOL0     H12933   2.329  10.553   8.960  1.0976  1.0009 -0.3060
   96MOL0     H12934   2.486  10.532   8.697 -0.4949 -1.0894 -0.2956
   96MOL0     H12935   2.390  10.661   8.755 -0.4321  0.0248 -1.4215
   96MOL0     H12936   2.277  10.380   8.714  1.0268 -0.3500 -1.7984
   96MOL0     H12937   2.190  10.531   8.759 -0.2631 -0.5939  0.4763
   96MOL0     H12938   2.338  10.453   8.517  1.4784  1.8937 -1.5358
   96MOL0     H12939   2.300  10.624   8.531 -1.0802  0.3015 -0.9159
   96MOL0     H12940   2.138  10.540   8.382  0.7786  1.0401 -0.5001
   96MOL0     H12941   2.057  10.560   8.549  1.1819 -0.6385  1.6701
   96MOL0     H12942   2.812  10.353   9.099  0.9597  0.9490  0.7710
   96MOL0     H12943   3.022  10.268   9.151 -1.5278  0.4620 -2.5360
   96MOL0     H12944   3.186  10.025   9.745 -0.2682 -1.6543 -0.5204
   96MOL0     H12945   3.418  10.017   9.844  4.2609  1.4435 -1.2806
   96MOL0     H12946   5.131  10.286  10.902 -0.3039  3.9716 -1.0305
   96MOL0     H12947   5.362  10.183  10.901 -0.9742  1.7636  1.0227
   96MOL0     H12948   5.841  10.110  10.677 -1.1089 -0.3654 -0.8904
   96MOL0     H12949   6.040   9.989  10.749 -0.2312 -0.2680 -1.5368
   96MOL0     H12950   6.014   9.817  11.096  0.9283 -0.2256  1.5226
   96MOL0     H12951   6.038   9.642  11.057  0.4218  0.3288  2.9342
   96MOL0     H12952   6.250   9.848  10.992  0.7654 -0.4407  0.0235
   96MOL0     H12953   6.271   9.672  11.040 -0.6947 -0.6193  1.7194
   96MOL0     H12954   6.233   9.702  11.270 -1.4137 -0.0992 -0.1134
   96MOL0     H12955   6.220   9.876  11.255  0.0035 -0.9409  0.4169
   96MOL0     H12956   6.473   9.734  11.171 -0.2036  1.7430 -1.7051
   96MOL0     H12957   6.441   9.810  11.326  2.1252 -0.4995 -0.1790
   96MOL0     H12958   6.520  10.151  11.098  0.4838 -0.5711 -1.6868
   96MOL0     H12959   5.781   9.748  11.013  0.5081 -0.1095 -0.3169
   96MOL0     H12960   5.585   9.876  10.914 -0.1934 -2.3508 -3.6730
   97MOL0     O12961   5.786   2.798   5.528  0.6645 -0.3695  0.2635
   97MOL0     C12962   5.833   2.746   5.429  0.2667  0.3140 -0.2456
   97MOL0     O12963   5.765   2.680   5.338  0.3986  0.0348  0.4492
   97MOL0     C12964   5.635   2.712   5.314 -0.3581  0.3242  0.5550
   97MOL0     C12965   5.540   2.618   5.282  0.1864  0.4858 -0.0152
   97MOL0     C12966   5.410   2.645   5.249  0.0849  0.9716  0.1395
   97MOL0     C12967   5.366   2.772   5.251  0.1222 -0.3148 -0.4057
   97MOL0     O12968   5.242   2.789   5.207  0.0698 -0.5203  0.1130
   97MOL0     C12969   5.191   2.926   5.192 -0.0692  0.0580 -0.0023
   97MOL0     C12970   5.073   2.919   5.091  0.1076 -0.5489 -0.3987
   97MOL0     C12971   4.946   2.856   5.145  0.3043 -0.3727 -0.2654
   97MOL0     C12972   4.818   2.892   5.068  0.2567 -0.5475  1.1003
   97MOL0     C12973   4.693   2.818   5.119  0.2995  1.0993  0.0088
   97MOL0     C12974   4.601   2.898   5.217 -0.2058  0.8934 -1.0052
   97MOL0     C12975   4.462   2.843   5.252  0.9001 -0.7289 -0.7390
   97MOL0     C12976   4.367   2.963   5.299  0.4586  0.2734 -0.7851
   97MOL0     N12977   4.237   2.894   5.346 -0.6313 -0.2272 -0.2447
   97MOL0     C12978   4.201   2.880   5.483  0.6161 -0.1591  1.0293
   97MOL0     C12979   4.070   2.841   5.472  0.2707 -0.4230 -0.0751
   97MOL0     C12980   3.993   2.810   5.595  0.2664  0.5639 -0.5495
   97MOL0     C12981   3.874   2.701   5.567  0.7371  0.3053  0.1429
   97MOL0     C12982   3.788   2.713   5.693  0.1349 -0.1071  0.4950
   97MOL0     C12983   3.661   2.632   5.694 -0.2870 -1.2284  0.0460
   97MOL0     O12984   3.554   2.699   5.626  0.1023 -0.9441 -0.6020
   97MOL0     C12985   3.427   2.655   5.633 -0.6467 -0.4021 -0.9280
   97MOL0     C12986   3.331   2.734   5.576 -0.6783  0.0548 -0.0803
   97MOL0     C12987   3.195   2.701   5.579  0.3187 -0.3728 -0.6523
   97MOL0     C12988   3.096   2.793   5.525 -0.1871 -0.0795  0.2359
   97MOL0     C12989   3.159   2.580   5.641 -0.2882 -0.6787 -0.2783
   97MOL0     C12990   3.023   2.527   5.653  0.2614  0.0273  0.6766
   97MOL0     O12991   3.002   2.399   5.601  0.0093 -0.8163  0.3698
   97MOL0     C12992   2.897   2.325   5.639  0.1477 -0.5116 -0.0889
   97MOL0     C12993   2.914   2.199   5.703 -0.1701  0.3592  0.8169
   97MOL0     C12994   2.808   2.107   5.708  0.0712  0.7149 -0.5696
   97MOL0     C12995   2.680   2.155   5.678  0.5979  0.9207  0.0936
   97MOL0     O12996   2.560   2.092   5.710  0.2444  0.8903  0.4214
   97MOL0     C12997   2.561   1.989   5.812  0.2001 -0.3873 -0.0644
   97MOL0     C12998   2.418   1.959   5.857  0.0304  1.3907  0.5677
   97MOL0     C12999   2.420   1.836   5.948 -0.9128 -0.3470  0.2941
   97MOL0     C13000   2.281   1.780   5.958 -0.1613  0.5761  0.6396
   97MOL0     C13001   2.272   1.684   6.077  0.3410  0.0607  0.0123
   97MOL0     C13002   2.130   1.624   6.094 -0.2688 -0.2353  0.6379
   97MOL0     C13003   2.016   1.728   6.121 -0.4933  0.3202 -0.3510
   97MOL0     C13004   1.890   1.663   6.172 -0.4920  0.6302 -0.0841
   97MOL0    Cl13005   1.923   1.593   6.335 -0.1009  0.1333  0.0206
   97MOL0     C13006   2.662   2.281   5.628 -0.1954  0.2537 -0.1663
   97MOL0     C13007   2.770   2.366   5.608 -0.0298 -0.0630  0.2865
   97MOL0     O13008   2.943   2.593   5.711  0.2540 -0.7325  0.0314
   97MOL0     C13009   3.259   2.502   5.704  0.1392 -0.8217  0.0730
   97MOL0     C13010   3.396   2.537   5.700  0.7621  0.3819  0.2382
   97MOL0     N13011   4.037   2.818   5.340  0.3846  0.2700  0.8280
   97MOL0     N13012   4.127   2.862   5.275 -0.0879 -0.1215 -0.1474
   97MOL0     C13013   5.455   2.873   5.283 -1.4793 -0.3218 -0.0124
   97MOL0     C13014   5.592   2.845   5.314 -0.8990 -0.3868  0.1544
   97MOL0     C13015   5.971   2.757   5.399  0.2729 -0.3468 -0.0449
   97MOL0     C13016   6.050   2.861   5.452  0.3787 -0.1001 -0.3867
   97MOL0     C13017   6.186   2.868   5.422 -1.0271  0.3788 -0.2653
   97MOL0     C13018   6.263   2.764   5.361 -0.0668  0.6073 -0.0810
   97MOL0     O13019   6.395   2.760   5.327 -0.3054 -0.5664 -0.0184
   97MOL0     C13020   6.479   2.859   5.404 -0.3827  0.1949  0.3675
   97MOL0     C13021   6.553   2.967   5.315  0.6611  0.4258 -0.6824
   97MOL0     C13022   6.452   3.027   5.206  0.5778 -0.6115 -0.4363
   97MOL0     C13023   6.512   3.154   5.144  0.1910  0.5816  0.3204
   97MOL0     C13024   6.641   3.114   5.077  0.2089 -0.4636  0.5104
   97MOL0     C13025   6.741   3.085   5.019 -0.8276 -0.5166 -0.2186
   97MOL0     C13026   6.181   2.652   5.325  0.3362  0.7456  0.0945
   97MOL0     C13027   6.044   2.651   5.333  0.1665  0.0737 -0.6249
   97MOL0     H13028   5.572   2.515   5.293  4.0308  1.7461  2.3709
   97MOL0     H13029   5.344   2.563   5.223  1.8849  0.0843 -1.9300
   97MOL0     H13030   5.151   2.967   5.285 -0.7972  2.4898 -1.3044
   97MOL0     H13031   5.265   2.994   5.149  0.4346  0.6723  1.7281
   97MOL0     H13032   5.056   3.015   5.041 -0.2312  0.2224  1.1360
   97MOL0     H13033   5.107   2.862   5.005 -0.0932  1.5239 -1.9305
   97MOL0     H13034   4.970   2.750   5.142  0.0696 -0.5398  2.0810
   97MOL0     H13035   4.933   2.881   5.251  1.9641  1.0964 -0.3598
   97MOL0     H13036   4.795   2.999   5.061 -1.1154 -0.9303 -4.0834
   97MOL0     H13037   4.829   2.867   4.962 -3.8943  0.0749  0.3695
   97MOL0     H13038   4.631   2.782   5.036  0.2676 -0.5250  0.6939
   97MOL0     H13039   4.730   2.727   5.167 -2.6558 -0.2930 -0.1676
   97MOL0     H13040   4.645   2.926   5.314 -1.2111  1.9443 -0.8174
   97MOL0     H13041   4.587   2.997   5.172  1.8564  0.4043 -2.9032
   97MOL0     H13042   4.424   2.801   5.158 -0.6900 -0.7684 -0.1068
   97MOL0     H13043   4.462   2.767   5.331 -1.0827  2.0003  2.1437
   97MOL0     H13044   4.359   3.035   5.217  0.4894  1.7024  0.4338
   97MOL0     H13045   4.407   3.031   5.374 -1.3849  2.2689 -1.5037
   97MOL0     H13046   4.263   2.894   5.571  0.3767 -0.3827  1.2359
   97MOL0     H13047   4.058   2.756   5.664  0.6275  0.5990 -0.8639
   97MOL0     H13048   3.965   2.904   5.645  1.1782 -0.0664  1.2410
   97MOL0     H13049   3.918   2.605   5.539  2.0176  1.3701 -1.6760
   97MOL0     H13050   3.810   2.728   5.482  0.9352  0.2860 -0.0132
   97MOL0     H13051   3.757   2.818   5.699  2.9797  0.8832 -0.4593
   97MOL0     H13052   3.851   2.695   5.781  0.3371 -0.4308  0.2835
   97MOL0     H13053   3.635   2.621   5.800 -1.5649  2.2688  0.2470
   97MOL0     H13054   3.686   2.539   5.642  2.0516  0.2466 -1.6783
   97MOL0     H13055   3.365   2.830   5.538 -0.4261  0.7101  1.7008
   97MOL0     H13056   3.041   2.735   5.451 -0.0700 -0.9033  0.7780
   97MOL0     H13057   3.032   2.837   5.603  0.9055  1.3941  0.3542
   97MOL0     H13058   3.151   2.881   5.490 -2.0449  1.2088  0.3872
   97MOL0     H13059   3.016   2.176   5.732 -0.8446 -0.6318  2.5558
   97MOL0     H13060   2.826   2.001   5.724  1.6166  1.0595  0.1294
   97MOL0     H13061   2.602   1.892   5.783 -0.3611 -0.7641  0.3916
   97MOL0     H13062   2.635   2.015   5.889  2.7589  0.0839 -2.4811
   97MOL0     H13063   2.377   2.045   5.911 -2.2223  0.1403  0.9932
   97MOL0     H13064   2.346   1.936   5.777 -1.0580 -1.1886  2.1656
   97MOL0     H13065   2.452   1.857   6.050 -1.1838 -2.0381  0.7463
   97MOL0     H13066   2.496   1.764   5.916  2.2268  1.8257  2.3455
   97MOL0     H13067   2.210   1.863   5.969 -2.2311 -0.5097 -2.8048
   97MOL0     H13068   2.250   1.726   5.868 -2.5323 -1.6421  2.6379
   97MOL0     H13069   2.297   1.740   6.168 -1.5652  0.4064  0.3758
   97MOL0     H13070   2.348   1.607   6.062 -0.7414 -0.9718 -0.2834
   97MOL0     H13071   2.103   1.569   6.003  0.5104 -2.1874  1.5473
   97MOL0     H13072   2.132   1.553   6.177  0.1268  0.3524  1.1419
   97MOL0     H13073   1.986   1.764   6.022 -0.6861  1.3289  0.0662
   97MOL0     H13074   2.055   1.808   6.184  1.8956  0.4749 -1.8873
   97MOL0     H13075   1.857   1.576   6.114 -0.2946  0.3273  0.2579
   97MOL0     H13076   1.807   1.735   6.178 -0.0838  0.9637  2.7170
   97MOL0     H13077   2.565   2.315   5.595  0.0513 -0.1722 -1.3872
   97MOL0     H13078   2.748   2.459   5.555  0.6330 -0.2714 -0.3732
   97MOL0     H13079   3.223   2.413   5.755 -1.6626  0.3126  0.8800
   97MOL0     H13080   3.471   2.470   5.742 -0.8217 -2.0803 -0.6352
   97MOL0     H13081   5.424   2.976   5.269 -1.4858 -0.5497 -1.9384
   97MOL0     H13082   5.668   2.919   5.338 -1.5000  0.0367  0.7960
   97MOL0     H13083   6.010   2.942   5.511 -1.0635 -1.4982  0.6324
   97MOL0     H13084   6.234   2.962   5.447 -1.3395  0.9193 -1.6179
   97MOL0     H13085   6.428   2.904   5.489  0.8278 -1.0583  1.8140
   97MOL0     H13086   6.563   2.803   5.446 -1.1588 -2.4816 -1.4112
   97MOL0     H13087   6.636   2.930   5.254  2.0080  0.8135  0.8648
   97MOL0     H13088   6.590   3.043   5.383 -0.7114 -1.2415  2.1027
   97MOL0     H13089   6.354   3.055   5.245  0.0791 -3.3309  0.4866
   97MOL0     H13090   6.434   2.952   5.129  0.9973  0.0002 -1.1334
   97MOL0     H13091   6.536   3.225   5.224  1.1755 -1.0467  1.5362
   97MOL0     H13092   6.431   3.196   5.083 -0.3042 -1.3431 -0.4086
   97MOL0     H13093   6.831   3.066   4.964 -1.5430 -1.1596 -1.1893
   97MOL0     H13094   6.235   2.565   5.286 -2.2155 -0.4682 -0.9739
   97MOL0     H13095   5.993   2.559   5.308  0.4870 -0.6293  1.0986
   98MOL0     O13096   9.755   1.160   7.498 -0.7376  0.6959  0.1645
   98MOL0     C13097   9.750   1.258   7.425  0.0631  0.7105  0.1509
   98MOL0     O13098   9.644   1.336   7.396  0.1446  0.3268  0.7215
   98MOL0     C13099   9.525   1.285   7.402  0.6333  0.7506  0.0017
   98MOL0     C13100   9.422   1.376   7.399 -0.4610 -0.5487  0.2728
   98MOL0     C13101   9.285   1.342   7.392 -0.9310  0.5363  0.8421
   98MOL0     C13102   9.248   1.206   7.382 -0.9203  0.1938 -0.1419
   98MOL0     O13103   9.118   1.175   7.353  0.1342  0.0925 -0.0069
   98MOL0     C13104   9.056   1.082   7.445  0.5197  0.5633  0.2189
   98MOL0     C13105   8.917   1.142   7.481 -0.6477  0.0438 -0.7164
   98MOL0     C13106   8.823   1.158   7.364 -0.5797  0.1752  0.5553
   98MOL0     C13107   8.734   1.295   7.390  0.2197  0.6917 -0.8860
   98MOL0     C13108   8.608   1.281   7.305 -0.2593  0.6192 -0.6447
   98MOL0     C13109   8.512   1.401   7.325 -1.1598 -0.0784 -0.5005
   98MOL0     C13110   8.419   1.411   7.194  0.2061 -0.2223 -0.1964
   98MOL0     C13111   8.324   1.288   7.201  1.0721 -0.2018 -0.3570
   98MOL0     N13112   8.206   1.306   7.119  0.7577 -0.2736  0.7347
   98MOL0     C13113   8.122   1.414   7.132 -0.0638 -0.7478  0.8621
   98MOL0     C13114   8.009   1.379   7.060  0.3364  0.5185  0.3431
   98MOL0     C13115   7.879   1.462   7.066 -0.1551  0.4441 -0.3424
   98MOL0     C13116   7.795   1.454   6.936 -0.9277  0.1994  0.1185
   98MOL0     C13117   7.693   1.566   6.927  0.5406  0.7640  0.9989
   98MOL0     C13118   7.619   1.547   6.787 -0.1485 -0.3166  0.3326
   98MOL0     O13119   7.543   1.661   6.743 -0.2315 -0.6060  0.2361
   98MOL0     C13120   7.411   1.645   6.711  0.1302 -0.3072  0.0128
   98MOL0     C13121   7.369   1.743   6.618 -0.2694  0.2784  0.4400
   98MOL0     C13122   7.243   1.755   6.577  1.0516 -0.5169 -0.9271
   98MOL0     C13123   7.207   1.867   6.485  0.0280 -0.3228  1.0381
   98MOL0     C13124   7.143   1.663   6.634  0.1912  0.5770 -0.3679
   98MOL0     C13125   6.996   1.671   6.606 -0.0901 -0.5394  0.1616
   98MOL0     O13126   6.963   1.746   6.493 -0.0607  0.5252  0.5826
   98MOL0     C13127   6.831   1.791   6.458 -0.7666 -0.4480  0.2046
   98MOL0     C13128   6.738   1.712   6.396  1.0873 -0.3248 -0.0986
   98MOL0     C13129   6.610   1.755   6.367 -0.0929 -0.2470 -0.3745
   98MOL0     C13130   6.576   1.882   6.389 -0.3937 -0.7031 -0.0537
   98MOL0     O13131   6.460   1.942   6.340 -0.3681  0.4080  0.3827
   98MOL0     C13132   6.399   1.878   6.227 -0.2685 -0.4630  0.5392
   98MOL0     C13133   6.260   1.949   6.196  0.1903  0.3288 -0.4473
   98MOL0     C13134   6.279   2.087   6.117  0.1617 -0.3569  1.2093
   98MOL0     C13135   6.153   2.168   6.104  0.6735  0.1297  0.0400
   98MOL0     C13136   6.046   2.119   6.003 -0.0606  0.2293  0.8082
   98MOL0     C13137   5.959   2.239   5.946 -0.1996 -0.1980  0.2977
   98MOL0     C13138   5.845   2.197   5.861  0.5295  0.3819  0.0516
   98MOL0     C13139   5.730   2.294   5.858 -0.0519 -0.3126  0.3459
   98MOL0    Cl13140   5.602   2.228   5.745  0.0312  0.1957 -0.1890
   98MOL0     C13141   6.672   1.965   6.436 -0.4723 -0.7627 -0.5483
   98MOL0     C13142   6.802   1.930   6.471 -0.0985  0.0831  0.8581
   98MOL0     O13143   6.920   1.624   6.693  0.4778  0.3311 -0.5692
   98MOL0     C13144   7.189   1.560   6.725  1.5440 -0.0264 -0.1538
   98MOL0     C13145   7.322   1.552   6.766  0.7055  0.4885 -0.3162
   98MOL0     N13146   8.028   1.261   7.004  0.3955  1.0718  0.3293
   98MOL0     N13147   8.135   1.211   7.048  0.3556 -0.3908  0.0417
   98MOL0     C13148   9.353   1.114   7.378  0.7767  1.0568 -0.1226
   98MOL0     C13149   9.486   1.152   7.390  0.0913  0.3662  0.1426
   98MOL0     C13150   9.874   1.303   7.373 -0.5241 -0.4946  0.4960
   98MOL0     C13151   9.886   1.381   7.262 -0.2591 -0.4125  0.0203
   98MOL0     C13152  10.012   1.410   7.205 -0.6809 -0.1460 -0.1218
   98MOL0     C13153  10.135   1.366   7.261  0.3406 -0.0532 -0.7922
   98MOL0     O13154  10.246   1.384   7.192  0.1690  0.2414  0.1908
   98MOL0     C13155  10.356   1.438   7.266 -0.4581  0.2527 -0.1842
   98MOL0     C13156  10.443   1.504   7.159 -0.4067  0.5112 -0.3750
   98MOL0     C13157  10.572   1.562   7.221  0.3237 -0.3059 -0.1639
   98MOL0     C13158  10.679   1.452   7.198  0.3822  0.8133  0.0381
   98MOL0     C13159  10.701   1.373   7.321  0.0567  0.1356  0.0259
   98MOL0     C13160  10.724   1.305   7.415 -0.9429  0.4910  0.3288
   98MOL0     C13161  10.122   1.293   7.382 -0.1133 -0.1048 -0.0474
   98MOL0     C13162  10.000   1.258   7.430  0.2726  0.7341 -0.2786
   98MOL0     H13163   9.443   1.480   7.424  1.0245 -0.7483 -0.0923
   98MOL0     H13164   9.208   1.418   7.392  0.8511  2.5507 -2.3626
   98MOL0     H13165   9.043   0.986   7.394 -1.6211 -0.1099  1.8711
   98MOL0     H13166   9.123   1.063   7.529 -1.4105 -0.6220  1.6069
   98MOL0     H13167   8.872   1.086   7.564 -0.8959  0.8654 -0.2812
   98MOL0     H13168   8.940   1.240   7.525 -1.2724  0.1816 -0.6850
   98MOL0     H13169   8.881   1.160   7.271 -1.1046  0.4957  0.2303
   98MOL0     H13170   8.760   1.068   7.368  0.9969 -0.9861  0.0081
   98MOL0     H13171   8.706   1.303   7.495 -3.9926 -0.9738 -1.6868
   98MOL0     H13172   8.786   1.387   7.364  1.3410 -0.0631 -1.3860
   98MOL0     H13173   8.629   1.278   7.198 -0.6143  0.3920 -0.7117
   98MOL0     H13174   8.558   1.185   7.322 -1.6022  1.0514 -1.9231
   98MOL0     H13175   8.463   1.390   7.422 -1.1954  2.4243 -0.1659
   98MOL0     H13176   8.576   1.489   7.339  4.8424 -4.1459  1.3057
   98MOL0     H13177   8.368   1.508   7.189  2.0337  0.7496 -1.5471
   98MOL0     H13178   8.477   1.409   7.102 -0.1388  1.5755 -0.4889
   98MOL0     H13179   8.288   1.272   7.303 -1.3312 -1.1235 -1.2803
   98MOL0     H13180   8.374   1.196   7.171 -0.4177 -0.0333 -3.8444
   98MOL0     H13181   8.135   1.500   7.198  0.9843 -0.5223  0.3764
   98MOL0     H13182   7.810   1.426   7.142 -0.7664 -0.6120 -1.3643
   98MOL0     H13183   7.901   1.566   7.094 -0.1098  1.1936 -2.9137
   98MOL0     H13184   7.752   1.354   6.935 -2.1132  0.6124  2.8524
   98MOL0     H13185   7.847   1.480   6.843 -2.8235 -0.1891 -1.1070
   98MOL0     H13186   7.743   1.664   6.927 -0.2008  1.1470  0.4818
   98MOL0     H13187   7.630   1.540   7.012  1.6355 -1.2718  1.2561
   98MOL0     H13188   7.552   1.460   6.786 -0.2122 -0.2801 -0.9289
   98MOL0     H13189   7.696   1.533   6.711  0.4269 -0.1433  0.8809
   98MOL0     H13190   7.437   1.812   6.570 -1.0964  0.6570 -0.2042
   98MOL0     H13191   7.125   1.930   6.521  1.7397  1.7317  1.5155
   98MOL0     H13192   7.294   1.929   6.462 -0.9585 -0.0623 -2.7913
   98MOL0     H13193   7.165   1.819   6.395  0.4727 -1.9537  1.6577
   98MOL0     H13194   6.772   1.615   6.360 -0.8777  0.2837 -4.2831
   98MOL0     H13195   6.538   1.680   6.335 -0.8403  1.4104 -2.9157
   98MOL0     H13196   6.465   1.881   6.140 -1.9770 -0.7333 -0.8182
   98MOL0     H13197   6.367   1.775   6.249 -1.5255 -0.7168 -2.0659
   98MOL0     H13198   6.195   1.890   6.130 -0.4137  0.5268 -0.0436
   98MOL0     H13199   6.212   1.950   6.294 -2.1903 -0.0639 -1.5251
   98MOL0     H13200   6.319   2.063   6.018 -0.7655 -2.0874  1.2067
   98MOL0     H13201   6.350   2.152   6.169 -1.9022 -0.6141  4.6849
   98MOL0     H13202   6.108   2.182   6.203  1.9514 -0.4451  0.7217
   98MOL0     H13203   6.183   2.270   6.079  1.0504  0.0127  0.0042
   98MOL0     H13204   5.983   2.045   6.052 -0.7620  1.8875  2.5639
   98MOL0     H13205   6.091   2.069   5.917 -1.1177 -1.8136  1.3947
   98MOL0     H13206   5.932   2.295   6.036  1.5463  0.5084  0.4189
   98MOL0     H13207   6.015   2.298   5.872 -1.3939 -0.4427 -0.8333
   98MOL0     H13208   5.815   2.100   5.899 -0.2579  0.9974  1.0357
   98MOL0     H13209   5.885   2.187   5.759 -0.6379 -0.3380 -0.3526
   98MOL0     H13210   5.761   2.391   5.817  0.9745 -0.4512  0.7702
   98MOL0     H13211   5.696   2.305   5.961 -2.0833 -0.5670 -0.2605
   98MOL0     H13212   6.643   2.068   6.457  2.4229  0.8088 -3.5204
   98MOL0     H13213   6.879   2.005   6.485  0.8064  0.8041 -5.1872
   98MOL0     H13214   7.126   1.486   6.773  1.8088  0.1587  0.4774
   98MOL0     H13215   7.347   1.481   6.843 -2.5656  0.4134  0.8045
   98MOL0     H13216   9.330   1.009   7.362 -0.1568  1.4569 -1.5564
   98MOL0     H13217   9.566   1.079   7.380  2.6471  3.1214 -0.7912
   98MOL0     H13218   9.796   1.419   7.213  0.5099  0.9287 -0.4029
   98MOL0     H13219  10.025   1.461   7.110 -2.4456 -2.0367 -1.4840
   98MOL0     H13220  10.315   1.506   7.341 -0.6765 -0.6717  0.5615
   98MOL0     H13221  10.414   1.362   7.319 -1.2018 -1.0832 -1.2382
   98MOL0     H13222  10.386   1.581   7.106  1.2546  0.7556 -1.8692
   98MOL0     H13223  10.464   1.427   7.085  0.6926  1.4029 -1.0202
   98MOL0     H13224  10.564   1.587   7.327 -1.7227  1.2415 -0.6313
   98MOL0     H13225  10.589   1.651   7.159 -0.3754 -0.4147 -0.5170
   98MOL0     H13226  10.767   1.513   7.177 -0.2729  1.1698 -1.8686
   98MOL0     H13227  10.664   1.403   7.102  1.5697  1.7743 -0.6671
   98MOL0     H13228  10.748   1.252   7.505  0.9679 -1.8962 -1.4539
   98MOL0     H13229  10.212   1.263   7.434  0.3210  1.5615  0.2352
   98MOL0     H13230  10.010   1.201   7.522  1.6743  2.4193  0.6648
   99MOL0     O13231   9.022   8.228   0.129 -0.1328  0.2917 -0.7322
   99MOL0     C13232   9.079   8.177   0.227  0.7689  0.0039  0.2187
   99MOL0     O13233   9.012   8.136   0.339 -0.1222  0.8981 -0.1361
   99MOL0     C13234   8.879   8.156   0.349 -1.2483  0.0773  0.0413
   99MOL0     C13235   8.828   8.277   0.388 -0.3582 -0.1054 -0.2045
   99MOL0     C13236   8.693   8.299   0.387  0.4161 -0.0775  0.0065
   99MOL0     C13237   8.604   8.200   0.350 -0.0309  0.0964  0.9275
   99MOL0     O13238   8.466   8.224   0.351 -0.0687  0.7625 -0.1941
   99MOL0     C13239   8.395   8.147   0.250  0.3896 -0.3201 -0.0128
   99MOL0     C13240   8.259   8.213   0.229  1.1093  0.0689  0.5939
   99MOL0     C13241   8.284   8.358   0.185  0.4430  0.2712  0.2107
   99MOL0     C13242   8.160   8.425   0.127 -0.0562 -0.0176  0.0631
   99MOL0     C13243   8.049   8.434   0.236  0.3236 -0.0912 -0.1063
   99MOL0     C13244   7.925   8.506   0.164 -0.4298  0.8186 -0.4914
   99MOL0     C13245   7.794   8.522   0.241  0.4965  0.5601 -0.0974
   99MOL0     C13246   7.693   8.609   0.158 -0.0910 -0.5786  0.5094
   99MOL0     N13247   7.576   8.628   0.237 -0.1620  0.8820 -0.6705
   99MOL0     C13248   7.522   8.527   0.320  0.2387 -0.4599  0.1954
   99MOL0     C13249   7.425   8.601   0.379  0.0360  0.6090  0.2474
   99MOL0     C13250   7.325   8.536   0.464  0.3710  0.6334  0.1236
   99MOL0     C13251   7.355   8.515   0.611  1.2280 -0.8586 -0.2607
   99MOL0     C13252   7.259   8.408   0.665  0.1339  0.6744  0.2367
   99MOL0     C13253   7.286   8.384   0.811  0.6809 -0.5446  0.1632
   99MOL0     O13254   7.206   8.269   0.836  0.3934  1.1313 -0.0973
   99MOL0     C13255   7.091   8.284   0.915  0.2052  0.4748 -0.1357
   99MOL0     C13256   7.089   8.367   1.032 -0.0643 -0.2100 -0.9952
   99MOL0     C13257   6.969   8.370   1.119  1.5295 -0.3090 -0.5330
   99MOL0     C13258   6.969   8.454   1.240 -0.1299 -0.2251 -0.3678
   99MOL0     C13259   6.850   8.290   1.079  0.1879  0.7174 -0.0195
   99MOL0     C13260   6.721   8.272   1.163 -0.6317 -0.1155  0.4873
   99MOL0     O13261   6.615   8.210   1.097  0.3586  0.6119  0.5567
   99MOL0     C13262   6.496   8.185   1.165 -0.2726  0.2181 -0.3449
   99MOL0     C13263   6.438   8.054   1.164 -0.3390  0.3919  0.5781
   99MOL0     C13264   6.313   8.026   1.218 -0.7730  0.5122 -0.3427
   99MOL0     C13265   6.227   8.128   1.257  0.2563 -0.7964  0.5425
   99MOL0     O13266   6.092   8.120   1.287 -0.2978  0.3970 -0.2210
   99MOL0     C13267   6.028   8.016   1.213  0.1860  0.3979 -0.7426
   99MOL0     C13268   5.873   8.043   1.203 -0.3227  0.1222  0.3380
   99MOL0     C13269   5.790   7.974   1.307 -0.7884 -0.3270 -0.2897
   99MOL0     C13270   5.649   7.935   1.271  0.2568  0.4681  0.7235
   99MOL0     C13271   5.567   7.865   1.381 -0.1009  0.0044  1.2454
   99MOL0     C13272   5.427   7.817   1.339  0.0909  0.0554  0.6992
   99MOL0     C13273   5.364   7.734   1.448 -0.6554  0.1728 -0.1248
   99MOL0     C13274   5.221   7.674   1.404 -0.4472  0.1605  0.4603
   99MOL0    Cl13275   5.092   7.802   1.403 -0.0190 -0.0563  0.0581
   99MOL0     C13276   6.280   8.258   1.257 -0.8543  1.0062  0.2864
   99MOL0     C13277   6.407   8.288   1.209 -0.1926 -0.3235  0.2747
   99MOL0     O13278   6.711   8.309   1.276  0.5241 -0.0049  0.0326
   99MOL0     C13279   6.861   8.206   0.968  0.5740  0.1504 -0.7455
   99MOL0     C13280   6.979   8.206   0.898 -0.2017 -0.6480 -0.3623
   99MOL0     N13281   7.410   8.733   0.336 -0.8780  0.0769 -0.1390
   99MOL0     N13282   7.497   8.740   0.238 -0.1296 -0.7673  0.4612
   99MOL0     C13283   8.657   8.074   0.316 -0.7699  0.5660 -0.1102
   99MOL0     C13284   8.793   8.055   0.315  0.5820  0.2036 -0.6062
   99MOL0     C13285   9.225   8.164   0.232  0.1770  0.1242 -0.3241
   99MOL0     C13286   9.304   8.193   0.123  1.2515  0.1568 -0.8233
   99MOL0     C13287   9.442   8.170   0.107 -0.0776  0.0452 -0.7161
   99MOL0     C13288   9.498   8.107   0.216 -0.0231 -0.0905 -0.2208
   99MOL0     O13289   9.634   8.103   0.217  0.1155  0.0704 -0.3688
   99MOL0     C13290   9.702   8.056   0.104  0.0611  0.7036 -0.5891
   99MOL0     C13291   9.784   7.942   0.152  0.0712  0.5578 -0.1479
   99MOL0     C13292   9.881   7.870   0.037  1.0490  0.3856  0.3900
   99MOL0     C13293  10.021   7.938   0.038  0.8246 -1.1845  0.2275
   99MOL0     C13294  10.104   7.895   0.148  0.7444  0.8806  0.3110
   99MOL0     C13295  10.182   7.851   0.224 -0.3233 -0.0524  0.4164
   99MOL0     C13296   9.420   8.069   0.323  0.4637  0.4176  0.1446
   99MOL0     C13297   9.291   8.090   0.335 -0.1947 -0.1934  0.3962
   99MOL0     H13298   8.897   8.350   0.429 -1.3186 -0.7203  2.7546
   99MOL0     H13299   8.643   8.385   0.429 -0.0353  0.6627 -1.9513
   99MOL0     H13300   8.449   8.150   0.154 -0.4337  0.9304 -0.4710
   99MOL0     H13301   8.384   8.047   0.292 -0.1010  0.0675  0.8043
   99MOL0     H13302   8.216   8.161   0.143  1.1715 -0.6858  1.0122
   99MOL0     H13303   8.205   8.210   0.324  2.8564 -0.0530  1.6261
   99MOL0     H13304   8.306   8.412   0.278  0.7906 -0.7871  0.7575
   99MOL0     H13305   8.369   8.357   0.116  0.1676  1.1005 -0.1507
   99MOL0     H13306   8.183   8.523   0.085 -2.0606  0.3292 -0.3117
   99MOL0     H13307   8.125   8.371   0.039 -0.4953 -2.3668  1.5507
   99MOL0     H13308   8.020   8.333   0.264 -2.9907  0.8130  0.1032
   99MOL0     H13309   8.081   8.495   0.322  0.2232  0.1252 -0.2213
   99MOL0     H13310   7.961   8.605   0.135 -3.5235  1.9339 -0.8796
   99MOL0     H13311   7.903   8.445   0.076 -0.7888  0.0413  0.1241
   99MOL0     H13312   7.751   8.423   0.258  0.7047 -0.1328 -3.0440
   99MOL0     H13313   7.810   8.566   0.340  0.5691  1.2932 -0.4318
   99MOL0     H13314   7.662   8.562   0.065 -0.8255  0.4268  0.2230
   99MOL0     H13315   7.734   8.708   0.134  0.4903 -0.5184  1.6772
   99MOL0     H13316   7.544   8.421   0.308 -1.8996 -0.6995 -2.3689
   99MOL0     H13317   7.228   8.587   0.458  0.1353  0.3592  1.3371
   99MOL0     H13318   7.305   8.440   0.417  0.7410 -1.3076  3.5897
   99MOL0     H13319   7.339   8.603   0.673 -2.6966 -2.2657  1.0261
   99MOL0     H13320   7.451   8.468   0.635  0.6412 -1.3840  1.1960
   99MOL0     H13321   7.275   8.317   0.607 -2.3010 -1.3370  2.4832
   99MOL0     H13322   7.156   8.440   0.647 -2.0518 -5.2631  0.1744
   99MOL0     H13323   7.255   8.472   0.868  1.5149 -0.0015 -0.2035
   99MOL0     H13324   7.394   8.371   0.818  0.4874 -3.0223 -0.4660
   99MOL0     H13325   7.177   8.415   1.075 -0.8784  0.6751 -0.2703
   99MOL0     H13326   6.927   8.553   1.220  2.8238  1.2363  0.1704
   99MOL0     H13327   6.920   8.407   1.326 -0.0815  0.8741  0.2824
   99MOL0     H13328   7.074   8.463   1.268  0.6740 -2.7081 -2.2215
   99MOL0     H13329   6.488   7.963   1.131  0.3466  0.6632  0.8557
   99MOL0     H13330   6.287   7.921   1.224 -1.4736  0.7701  2.2794
   99MOL0     H13331   6.070   8.031   1.113 -0.7657  2.0686 -0.9253
   99MOL0     H13332   6.047   7.915   1.251 -4.4367 -1.2827 -2.1861
   99MOL0     H13333   5.858   8.150   1.219  0.2218  0.4132 -0.9748
   99MOL0     H13334   5.832   8.016   1.106 -3.6722  0.3720  1.5545
   99MOL0     H13335   5.800   8.032   1.400  1.0078 -2.5936  1.0400
   99MOL0     H13336   5.842   7.881   1.333 -0.1554  0.1577  0.2455
   99MOL0     H13337   5.594   8.023   1.238  3.4306  1.6169 -2.0214
   99MOL0     H13338   5.659   7.866   1.187 -1.9945  0.7471  0.1719
   99MOL0     H13339   5.566   7.933   1.467 -1.6636  0.6894  0.7244
   99MOL0     H13340   5.615   7.770   1.406  0.6132 -0.7625 -2.4961
   99MOL0     H13341   5.358   7.897   1.313  0.4241  0.7656  1.9228
   99MOL0     H13342   5.442   7.754   1.251  1.6155  0.9898  0.2408
   99MOL0     H13343   5.358   7.777   1.549 -0.7993 -4.2252  2.0028
   99MOL0     H13344   5.424   7.646   1.472 -1.5033 -0.5362 -0.5671
   99MOL0     H13345   5.185   7.599   1.475  3.1807  0.7972  3.2816
   99MOL0     H13346   5.237   7.631   1.304  1.2692 -1.0416  1.1930
   99MOL0     H13347   6.220   8.347   1.275  1.5690  2.7913  0.1235
   99MOL0     H13348   6.455   8.384   1.191  0.3653 -0.8262 -1.0155
   99MOL0     H13349   6.780   8.138   0.945  0.0303  0.6981 -0.4839
   99MOL0     H13350   6.984   8.133   0.818 -1.1894 -3.0399  1.6351
   99MOL0     H13351   8.591   7.992   0.287 -0.3277 -0.0834  0.6840
   99MOL0     H13352   8.826   7.962   0.271 -0.6744 -0.4802 -0.1516
   99MOL0     H13353   9.249   8.227   0.036 -1.8408 -3.1528 -0.4084
   99MOL0     H13354   9.494   8.212   0.021 -0.2030 -1.4697 -1.5741
   99MOL0     H13355   9.639   8.023   0.021 -1.3687 -0.0543  0.7391
   99MOL0     H13356   9.773   8.137   0.083  0.7141  0.1765 -0.4429
   99MOL0     H13357   9.718   7.882   0.215  2.7676  0.1705  2.5278
   99MOL0     H13358   9.860   7.985   0.219 -0.2942 -0.0660  0.6810
   99MOL0     H13359   9.828   7.886  -0.057 -0.3184 -0.2830  1.0173
   99MOL0     H13360   9.888   7.761   0.046  0.0737  0.2658 -0.1728
   99MOL0     H13361  10.003   8.046   0.040 -0.3388 -1.1891  5.2619
   99MOL0     H13362  10.071   7.917  -0.057  0.5070  1.6588 -0.6729
   99MOL0     H13363  10.263   7.809   0.281  1.7462  0.4411 -1.9820
   99MOL0     H13364   9.466   8.010   0.401  0.3706  2.9564  2.2485
   99MOL0     H13365   9.238   8.043   0.418 -0.7440  0.5093  0.4553
  100MOL0     O13366   8.043   6.187  11.202  0.2731 -0.2168  0.1446
  100MOL0     C13367   8.079   6.163  11.086 -0.2500 -0.4150  0.1563
  100MOL0     O13368   8.003   6.103  10.988  0.3591  0.3769  0.5321
  100MOL0     C13369   7.894   6.027  11.018 -0.4341  0.4747 -0.6059
  100MOL0     C13370   7.796   6.007  10.910  0.2809  0.5483  0.0987
  100MOL0     C13371   7.678   5.928  10.930 -0.4823  0.5112  1.0019
  100MOL0     C13372   7.651   5.868  11.052  0.5262 -0.5040 -0.1973
  100MOL0     O13373   7.531   5.797  11.065 -0.5930  1.3020 -0.2889
  100MOL0     C13374   7.498   5.724  11.182  0.4940  0.1590  0.0488
  100MOL0     C13375   7.357   5.657  11.166  0.4516 -0.4256 -0.4727
  100MOL0     C13376   7.340   5.580  11.034 -0.2886  0.4154  1.2538
  100MOL0     C13377   7.199   5.527  11.021 -0.2469  0.5771 -1.0073
  100MOL0     C13378   7.186   5.387  11.082 -0.7384 -0.0331 -0.2187
  100MOL0     C13379   7.053   5.333  11.058 -0.1054  0.1487 -0.2276
  100MOL0     C13380   7.039   5.206  11.127 -0.2253  1.1753 -0.4641
  100MOL0     C13381   6.897   5.138  11.116  0.0035  0.3191  0.1539
  100MOL0     N13382   6.861   5.102  10.980 -0.6590 -0.4015  0.3217
  100MOL0     C13383   6.732   5.097  10.925  0.4619  0.1632  0.3270
  100MOL0     C13384   6.743   5.002  10.821 -0.6327  0.0484 -0.0310
  100MOL0     C13385   6.640   4.977  10.720  0.1663 -0.1715  0.8355
  100MOL0     C13386   6.539   4.876  10.763 -0.7306 -0.4421 -0.0425
  100MOL0     C13387   6.435   4.852  10.648 -0.2022  0.1199  0.2862
  100MOL0     C13388   6.295   4.799  10.700  0.3946  0.1517  0.7901
  100MOL0     O13389   6.225   4.749  10.583  0.5998  0.0126 -0.1424
  100MOL0     C13390   6.094   4.706  10.610  0.4098  0.1699  0.0981
  100MOL0     C13391   6.012   4.700  10.498  1.0931 -0.1130 -0.7147
  100MOL0     C13392   5.877   4.660  10.509 -1.0943  0.0816  0.1441
  100MOL0     C13393   5.788   4.651  10.390  0.3492  0.1942 -0.0195
  100MOL0     C13394   5.833   4.626  10.635  0.1783 -0.2618 -0.5312
  100MOL0     C13395   5.685   4.594  10.653 -0.2261 -0.4740 -0.2087
  100MOL0     O13396   5.622   4.524  10.559  0.7761  0.3994 -0.2828
  100MOL0     C13397   5.485   4.489  10.571 -0.7900  0.0930  0.0089
  100MOL0     C13398   5.420   4.445  10.690 -0.1236 -0.1018  1.1316
  100MOL0     C13399   5.279   4.412  10.680 -0.3042 -0.2734  0.8276
  100MOL0     C13400   5.203   4.433  10.571  0.2619 -0.4899  0.4190
  100MOL0     O13401   5.065   4.420  10.586 -0.1666 -0.1885  0.3731
  100MOL0     C13402   4.977   4.397  10.474  0.1968 -0.3430  0.7488
  100MOL0     C13403   4.861   4.313  10.533 -0.7875  0.2369 -0.0244
  100MOL0     C13404   4.761   4.282  10.421  0.0164  0.5379 -0.0381
  100MOL0     C13405   4.638   4.196  10.471 -0.8170  0.2845 -0.0272
  100MOL0     C13406   4.515   4.243  10.396  1.3230 -0.3906 -0.0753
  100MOL0     C13407   4.390   4.154  10.449  0.1442 -0.1100 -0.1214
  100MOL0     C13408   4.250   4.199  10.400 -0.5853  0.6924  0.4097
  100MOL0     C13409   4.215   4.105  10.287  0.4257 -0.5831 -0.5776
  100MOL0    Cl13410   4.054   4.139  10.223  0.1737  0.4879  0.1159
  100MOL0     C13411   5.265   4.476  10.453  0.1089  0.4513 -0.5146
  100MOL0     C13412   5.410   4.497  10.453  0.0443 -0.3546  0.2149
  100MOL0     O13413   5.629   4.634  10.756 -0.0670  0.4145 -0.1105
  100MOL0     C13414   5.915   4.608  10.743  0.7864  0.1522 -0.2372
  100MOL0     C13415   6.044   4.649  10.726  0.1672  0.0223 -0.1868
  100MOL0     N13416   6.873   4.956  10.820  0.3348 -0.0099 -0.4468
  100MOL0     N13417   6.941   5.017  10.912 -0.3051  0.2503 -0.1784
  100MOL0     C13418   7.744   5.882  11.159 -0.0278  0.3607 -0.2063
  100MOL0     C13419   7.863   5.956  11.136  0.1213 -0.1306  0.4293
  100MOL0     C13420   8.207   6.194  11.054 -0.1531 -0.3832  1.0242
  100MOL0     C13421   8.288   6.250  11.153 -0.5331 -0.6922 -0.3905
  100MOL0     C13422   8.424   6.277  11.113 -0.4384  0.0092 -0.1403
  100MOL0     C13423   8.479   6.243  10.995 -0.0721  0.6990  0.1360
  100MOL0     O13424   8.611   6.268  10.964 -0.3081  0.7249 -0.0630
  100MOL0     C13425   8.702   6.202  11.053 -0.1290 -0.3346  0.2067
  100MOL0     C13426   8.792   6.309  11.124 -0.7245 -0.0180  0.4029
  100MOL0     C13427   8.876   6.382  11.018 -0.1929 -0.1676  0.1247
  100MOL0     C13428   8.971   6.490  11.073 -0.4878  0.0069  0.1104
  100MOL0     C13429   9.052   6.419  11.172 -0.7521  0.7408 -0.0682
  100MOL0     C13430   9.124   6.366  11.253 -0.1526  0.2469 -0.3647
  100MOL0     C13431   8.398   6.201  10.896  0.3631 -0.3396 -0.0096
  100MOL0     C13432   8.256   6.174  10.922 -0.0576  0.6490 -0.2526
  100MOL0     H13433   7.827   6.045  10.814 -1.5718  2.3845  0.1609
  100MOL0     H13434   7.610   5.909  10.848  0.0487  0.4213  0.5754
  100MOL0     H13435   7.574   5.645  11.184 -0.4289 -0.7657 -0.6682
  100MOL0     H13436   7.512   5.796  11.264  4.4004 -0.3935  0.0517
  100MOL0     H13437   7.340   5.594  11.254 -1.5535  1.4668  0.5869
  100MOL0     H13438   7.290   5.743  11.174  1.2344  0.0690  1.2671
  100MOL0     H13439   7.354   5.653  10.953 -2.4041  0.5583  0.9667
  100MOL0     H13440   7.410   5.496  11.031 -2.6708 -1.6772  1.3448
  100MOL0     H13441   7.124   5.594  11.064 -0.9996  0.8955 -2.6964
  100MOL0     H13442   7.175   5.524  10.914  0.6099 -0.6100 -1.1933
  100MOL0     H13443   7.254   5.317  11.032 -2.0775 -1.5635  0.0188
  100MOL0     H13444   7.217   5.389  11.187 -0.8272 -1.1312 -0.1531
  100MOL0     H13445   6.972   5.393  11.101 -1.9116 -0.3363 -2.7314
  100MOL0     H13446   7.037   5.326  10.950 -0.8661  1.9196 -0.2503
  100MOL0     H13447   7.118   5.137  11.097 -0.0887  1.0565  0.1554
  100MOL0     H13448   7.066   5.229  11.231  2.7260 -0.9066 -0.6348
  100MOL0     H13449   6.819   5.210  11.143  0.0954  1.8556 -3.1479
  100MOL0     H13450   6.885   5.050  11.180 -1.2536 -0.0963 -0.6120
  100MOL0     H13451   6.649   5.162  10.949  0.7773  0.6423  0.1295
  100MOL0     H13452   6.587   5.070  10.697 -2.4351 -1.6679  0.4066
  100MOL0     H13453   6.693   4.932  10.636 -1.3968 -3.8440  1.6330
  100MOL0     H13454   6.494   4.911  10.856 -1.0080 -0.5548 -0.1296
  100MOL0     H13455   6.590   4.783  10.787 -1.6036 -0.4783  1.8710
  100MOL0     H13456   6.483   4.777  10.585  0.0450  0.1239  0.4649
  100MOL0     H13457   6.423   4.941  10.585 -1.7253 -1.4142 -1.6996
  100MOL0     H13458   6.228   4.882  10.726 -1.9498 -1.0971 -0.9023
  100MOL0     H13459   6.309   4.724  10.778  3.1034  2.0697  2.3290
  100MOL0     H13460   6.057   4.729  10.403  2.2726  0.0312 -0.1406
  100MOL0     H13461   5.754   4.548  10.372  1.1128 -0.1337  0.3787
  100MOL0     H13462   5.706   4.723  10.402  0.5621  0.1900  1.7378
  100MOL0     H13463   5.844   4.679  10.300 -1.6313  0.7549 -1.1517
  100MOL0     H13464   5.463   4.420  10.786 -0.3781 -1.3419  0.9436
  100MOL0     H13465   5.225   4.376  10.768 -0.2295 -0.2021  0.9018
  100MOL0     H13466   4.930   4.484  10.428  0.1905 -0.9784 -0.4802
  100MOL0     H13467   5.021   4.340  10.392 -2.2332  3.0418 -3.2910
  100MOL0     H13468   4.901   4.220  10.575  3.3824  2.7541  2.2594
  100MOL0     H13469   4.813   4.360  10.619 -3.5540 -0.0136 -1.3294
  100MOL0     H13470   4.815   4.225  10.346 -0.3140 -0.7069  0.6291
  100MOL0     H13471   4.728   4.381  10.389 -1.1745 -0.1773 -1.1720
  100MOL0     H13472   4.654   4.088  10.458 -2.6170 -0.1487  1.0503
  100MOL0     H13473   4.628   4.226  10.576  0.9593 -1.3049  0.6604
  100MOL0     H13474   4.542   4.234  10.290  3.0751 -0.2265  0.3166
  100MOL0     H13475   4.493   4.349  10.411 -1.5038 -0.7044 -1.2690
  100MOL0     H13476   4.411   4.050  10.424 -1.4171 -0.6603  0.7453
  100MOL0     H13477   4.388   4.161  10.558  0.7428 -0.2496 -0.0976
  100MOL0     H13478   4.267   4.301  10.366 -1.4203  0.2763 -1.3247
  100MOL0     H13479   4.182   4.202  10.486  1.8572 -0.3286  2.5147
  100MOL0     H13480   4.204   4.009  10.338 -0.6668  0.4057  1.1448
  100MOL0     H13481   4.285   4.104  10.203  0.5119 -1.3919 -0.5066
  100MOL0     H13482   5.211   4.482  10.359  0.8283  0.3071 -0.9520
  100MOL0     H13483   5.463   4.527  10.363 -1.9237 -0.0008 -0.8954
  100MOL0     H13484   5.889   4.569  10.841  1.2169  2.3017  0.7889
  100MOL0     H13485   6.114   4.625  10.806 -1.1008 -1.7008  0.4510
  100MOL0     H13486   7.726   5.842  11.258  0.8466  0.9815  0.2128
  100MOL0     H13487   7.932   5.956  11.220 -0.9655 -0.4550  1.3409
  100MOL0     H13488   8.263   6.263  11.257 -0.0926  0.7313 -0.4422
  100MOL0     H13489   8.500   6.315  11.182 -0.3501 -1.7980  0.8190
  100MOL0     H13490   8.646   6.146  11.129 -2.4196  1.4304 -0.0880
  100MOL0     H13491   8.762   6.132  10.994 -1.0326  0.4787 -1.7499
  100MOL0     H13492   8.848   6.253  11.200 -0.6491 -2.7115 -1.4650
  100MOL0     H13493   8.736   6.386  11.177  0.2453  1.1467 -0.2319
  100MOL0     H13494   8.815   6.428  10.939 -0.9931  1.1054  1.4464
  100MOL0     H13495   8.944   6.308  10.974  2.2894  2.1676 -0.2131
  100MOL0     H13496   8.928   6.581  11.116  1.7373  1.4310 -0.5007
  100MOL0     H13497   9.033   6.514  10.986  0.8640 -2.0798  0.3987
  100MOL0     H13498   9.187   6.312  11.321  0.4861  1.3164 -0.0701
  100MOL0     H13499   8.448   6.183  10.801 -2.1623 -1.4530 -1.2162
  100MOL0     H13500   8.197   6.139  10.838  0.5393 -2.4364  0.4929
  101MOL0     O13501   3.382   2.558  11.061  0.3932  0.0162 -0.2902
  101MOL0     C13502   3.469   2.547  11.147 -0.4900 -0.6778 -0.6767
  101MOL0     O13503   3.451   2.530  11.282  0.0800  0.4932  0.1431
  101MOL0     C13504   3.332   2.508  11.334 -0.1293 -0.2703 -0.2524
  101MOL0     C13505   3.214   2.576  11.310 -0.2282 -0.9467  0.2239
  101MOL0     C13506   3.101   2.533  11.371  0.6872 -0.1434 -0.4077
  101MOL0     C13507   3.095   2.415  11.447 -0.4996 -0.8594 -0.6827
  101MOL0     O13508   2.986   2.363  11.511 -0.0081  0.2340  0.6713
  101MOL0     C13509   2.859   2.424  11.494 -0.7226  0.3630  0.2892
  101MOL0     C13510   2.756   2.321  11.538  0.2797 -0.5665  0.0487
  101MOL0     C13511   2.732   2.311  11.692 -0.1854  0.2789 -0.0463
  101MOL0     C13512   2.656   2.184  11.720  0.5899  0.5823 -0.3025
  101MOL0     C13513   2.502   2.200  11.712  0.4256 -0.3282 -0.1625
  101MOL0     C13514   2.440   2.253  11.851  0.9473 -0.2609 -1.3244
  101MOL0     C13515   2.302   2.199  11.867  0.6588 -0.3444  0.1959
  101MOL0     C13516   2.207   2.226  11.747 -0.2530 -0.0257 -0.7291
  101MOL0     N13517   2.201   2.372  11.723  0.3718  0.4881  0.0542
  101MOL0     C13518   2.232   2.430  11.604 -0.4738  0.4948 -0.3148
  101MOL0     C13519   2.231   2.566  11.632 -0.9716  1.2783  0.1329
  101MOL0     C13520   2.261   2.668  11.531 -0.2753 -0.9260  0.4296
  101MOL0     C13521   2.390   2.743  11.570  0.8297  0.5860 -1.0423
  101MOL0     C13522   2.508   2.651  11.580 -1.0485  0.0930  0.2826
  101MOL0     C13523   2.633   2.732  11.590  0.5079 -0.4960 -0.8247
  101MOL0     O13524   2.667   2.800  11.470  0.4046  0.1175  0.1753
  101MOL0     C13525   2.793   2.847  11.449 -0.5936  0.1918 -0.4767
  101MOL0     C13526   2.893   2.838  11.541 -0.0252 -0.2502 -0.1545
  101MOL0     C13527   3.024   2.875  11.521  0.1250 -0.2585 -0.3237
  101MOL0     C13528   3.122   2.891  11.644  0.3826  0.4339  0.0959
  101MOL0     C13529   3.056   2.932  11.400  0.1619 -0.5494 -0.0869
  101MOL0     C13530   3.195   2.973  11.356 -1.1106 -0.0701 -0.2026
  101MOL0     O13531   3.299   2.952  11.436 -0.4893 -0.2409  0.3062
  101MOL0     C13532   3.421   2.986  11.381  0.3656 -0.6501  1.2519
  101MOL0     C13533   3.483   2.914  11.281 -0.1399  0.0296 -0.3023
  101MOL0     C13534   3.615   2.930  11.248 -0.6925  0.0488  0.4713
  101MOL0     C13535   3.701   3.005  11.325  0.4530  0.2144 -0.1062
  101MOL0     O13536   3.836   3.008  11.322 -0.3328 -0.4048 -0.1779
  101MOL0     C13537   3.909   2.947  11.216 -0.2731 -0.1233 -0.4052
  101MOL0     C13538   4.060   2.981  11.225  0.8173  0.6122  0.1399
  101MOL0     C13539   4.103   3.121  11.184  0.0500 -0.2070  0.2866
  101MOL0     C13540   4.039   3.243  11.265 -0.0502  0.5626  0.5471
  101MOL0     C13541   4.075   3.385  11.215 -0.2680 -0.7964 -0.1611
  101MOL0     C13542   4.220   3.437  11.243 -1.1224 -0.0767 -0.3044
  101MOL0     C13543   4.240   3.583  11.197 -0.1639  0.2396 -1.9836
  101MOL0     C13544   4.383   3.637  11.197 -0.4923  0.3067  0.1695
  101MOL0    Cl13545   4.502   3.549  11.093  0.1320  0.1022  0.0261
  101MOL0     C13546   3.637   3.089  11.417  0.5156  0.2983  0.6269
  101MOL0     C13547   3.500   3.078  11.448  0.1168 -0.1085 -0.2401
  101MOL0     O13548   3.204   3.013  11.240 -0.2237  0.0306 -0.5220
  101MOL0     C13549   2.956   2.945  11.300  0.0869  0.1314 -0.8673
  101MOL0     C13550   2.827   2.898  11.326  0.0057  0.0262  0.1410
  101MOL0     N13551   2.203   2.585  11.764 -0.1210  0.3710 -0.5377
  101MOL0     N13552   2.181   2.462  11.817 -0.5187  0.0030  0.3667
  101MOL0     C13553   3.219   2.348  11.475  0.2247  0.6594 -0.5300
  101MOL0     C13554   3.334   2.391  11.412  0.3307 -0.0410 -0.7982
  101MOL0     C13555   3.615   2.556  11.106  0.3862 -0.0492  0.1451
  101MOL0     C13556   3.718   2.553  11.195 -0.0456  0.4146 -0.0982
  101MOL0     C13557   3.845   2.567  11.146 -0.5505 -0.3599 -0.2552
  101MOL0     C13558   3.884   2.572  11.012 -1.2144 -0.1679  0.5416
  101MOL0     O13559   4.016   2.561  10.966  0.6080  0.6076  1.2241
  101MOL0     C13560   4.128   2.601  11.051 -0.5285 -0.5993 -0.0024
  101MOL0     C13561   4.248   2.642  10.970 -0.8539  0.3211 -0.5612
  101MOL0     C13562   4.376   2.646  11.057  0.0511 -0.0805 -0.4687
  101MOL0     C13563   4.503   2.689  10.978 -0.1622  0.2157 -0.1097
  101MOL0     C13564   4.610   2.660  11.072 -0.6241  0.2120  0.0482
  101MOL0     C13565   4.694   2.642  11.158 -0.3273  0.3505  0.2691
  101MOL0     C13566   3.776   2.565  10.921  0.5085 -0.0894 -0.4884
  101MOL0     C13567   3.643   2.569  10.964 -0.7123  0.6312 -0.1420
  101MOL0     H13568   3.227   2.655  11.237 -0.2326 -1.1731 -0.0261
  101MOL0     H13569   3.010   2.589  11.352  1.5297  1.7346  0.7747
  101MOL0     H13570   2.837   2.518  11.546 -2.0017  0.9320 -1.2086
  101MOL0     H13571   2.849   2.442  11.386  2.5918 -0.4175 -0.2313
  101MOL0     H13572   2.658   2.352  11.500  0.8171 -0.5576 -1.3916
  101MOL0     H13573   2.774   2.220  11.499 -2.4995 -0.9732 -0.4122
  101MOL0     H13574   2.835   2.319  11.727  0.4674 -2.6510 -1.0587
  101MOL0     H13575   2.677   2.398  11.729 -1.6096 -0.1839 -0.9723
  101MOL0     H13576   2.680   2.110  11.643 -0.2749  3.2095 -3.2800
  101MOL0     H13577   2.685   2.148  11.820  0.5995  0.9464 -0.1732
  101MOL0     H13578   2.475   2.266  11.629  1.4529  0.5115  0.1581
  101MOL0     H13579   2.470   2.098  11.689 -0.5675  0.6203 -3.5251
  101MOL0     H13580   2.499   2.202  11.928 -0.6304 -0.5682 -0.2674
  101MOL0     H13581   2.445   2.362  11.855  0.3809 -0.1623 -2.7202
  101MOL0     H13582   2.321   2.091  11.872 -0.3449 -0.6575 -1.8293
  101MOL0     H13583   2.255   2.238  11.958 -0.8483  0.6207 -0.9316
  101MOL0     H13584   2.110   2.177  11.760  0.2104 -0.5649  1.0292
  101MOL0     H13585   2.249   2.196  11.650  1.0549  0.3349 -0.2942
  101MOL0     H13586   2.245   2.376  11.511 -1.1330  0.0495 -0.1489
  101MOL0     H13587   2.284   2.614  11.439 -1.7847 -2.0584  0.6809
  101MOL0     H13588   2.168   2.726  11.527  1.9672  2.9256 -1.5545
  101MOL0     H13589   2.375   2.791  11.667 -0.3831 -2.8434  0.6499
  101MOL0     H13590   2.419   2.820  11.498  1.8971  0.5488 -0.6759
  101MOL0     H13591   2.523   2.605  11.482 -1.2073 -0.6293  0.5885
  101MOL0     H13592   2.489   2.588  11.667 -2.6958 -0.4082 -0.3978
  101MOL0     H13593   2.706   2.657  11.622  1.2244  0.4215 -0.2765
  101MOL0     H13594   2.618   2.802  11.672 -1.7585 -1.4243 -0.3410
  101MOL0     H13595   2.865   2.797  11.637 -0.2424  0.6403  0.1743
  101MOL0     H13596   3.212   2.830  11.640  1.6001  2.2370 -1.0810
  101MOL0     H13597   3.144   2.994  11.673  0.7667  0.8150 -1.4625
  101MOL0     H13598   3.068   2.847  11.729 -2.4645  1.1261 -1.2356
  101MOL0     H13599   3.434   2.829  11.235 -2.3341  0.8323  0.4154
  101MOL0     H13600   3.680   2.879  11.177 -0.2395  3.0527 -1.4614
  101MOL0     H13601   3.891   2.839  11.218  0.0231 -0.1737  0.6343
  101MOL0     H13602   3.867   2.992  11.126  0.2955  0.9460 -0.1519
  101MOL0     H13603   4.095   2.968  11.328  0.1076  0.5099  0.3755
  101MOL0     H13604   4.113   2.914  11.157  2.4157  1.4184  0.5306
  101MOL0     H13605   4.078   3.129  11.078  0.4399  0.9344  0.2636
  101MOL0     H13606   4.211   3.118  11.203 -0.3776 -0.9951  3.0009
  101MOL0     H13607   3.930   3.237  11.265 -0.1249  1.6241 -0.3776
  101MOL0     H13608   4.067   3.235  11.370  1.5551 -1.4945  0.0419
  101MOL0     H13609   4.006   3.460  11.255  0.2460 -0.8317  0.8215
  101MOL0     H13610   4.071   3.385  11.106  2.1170 -1.8688 -0.3008
  101MOL0     H13611   4.250   3.420  11.347 -0.4180 -0.7166 -0.6044
  101MOL0     H13612   4.294   3.377  11.190 -0.5645 -1.4552  1.9143
  101MOL0     H13613   4.195   3.654  11.267  0.0324  1.2545 -2.8554
  101MOL0     H13614   4.176   3.590  11.109 -2.5999 -0.1590 -0.3531
  101MOL0     H13615   4.420   3.613  11.297  0.6973 -0.1156 -0.3526
  101MOL0     H13616   4.402   3.745  11.193  4.1416 -0.2036  2.0256
  101MOL0     H13617   3.707   3.155  11.467  0.4851  0.9680 -0.1811
  101MOL0     H13618   3.453   3.150  11.514  1.4100 -0.5137  1.1831
  101MOL0     H13619   2.977   2.995  11.205  0.5811 -0.6373 -1.1728
  101MOL0     H13620   2.751   2.904  11.249 -0.4682  1.4573  0.6758
  101MOL0     H13621   3.219   2.264  11.545 -3.0530 -0.3614 -1.5911
  101MOL0     H13622   3.422   2.330  11.430 -1.1899 -2.4324 -1.0480
  101MOL0     H13623   3.706   2.544  11.303  1.6067 -1.6072 -0.0215
  101MOL0     H13624   3.920   2.574  11.224 -0.4686 -0.2754 -0.3427
  101MOL0     H13625   4.099   2.682  11.118 -2.7048 -2.7800  1.8579
  101MOL0     H13626   4.144   2.516  11.118 -0.9756 -2.9345 -2.6283
  101MOL0     H13627   4.254   2.740  10.922 -0.6084  0.6443  0.1186
  101MOL0     H13628   4.265   2.574  10.886 -0.1661  2.5111 -2.3079
  101MOL0     H13629   4.384   2.552  11.112  1.2084 -0.2885 -0.9667
  101MOL0     H13630   4.362   2.725  11.132 -0.2879 -3.2052  3.0380
  101MOL0     H13631   4.491   2.792  10.944  1.0992  0.4757  0.1845
  101MOL0     H13632   4.527   2.624  10.893  1.5801 -1.5166  1.6076
  101MOL0     H13633   4.769   2.634  11.234  0.9582  0.4942 -0.9405
  101MOL0     H13634   3.791   2.557  10.814 -2.4126 -1.1343 -0.8898
  101MOL0     H13635   3.555   2.577  10.901 -0.2364  2.6448 -0.6253
  102MOL0     O13636   5.275   7.086   5.962  0.6488 -0.3030  0.1241
  102MOL0     C13637   5.205   7.003   6.023 -0.5677  0.7096  0.2059
  102MOL0     O13638   5.255   6.900   6.106  0.2858 -0.0664  0.0361
  102MOL0     C13639   5.391   6.880   6.114  0.5064 -0.0171 -0.8544
  102MOL0     C13640   5.440   6.766   6.056 -0.5911 -0.1992  0.6429
  102MOL0     C13641   5.577   6.729   6.050  0.5652  0.0161  0.0923
  102MOL0     C13642   5.666   6.822   6.100 -0.8249  0.2755  0.0941
  102MOL0     O13643   5.799   6.791   6.082  0.5436 -0.2146  0.5942
  102MOL0     C13644   5.859   6.906   6.019  0.4314 -0.1577 -0.5326
  102MOL0     C13645   5.804   6.923   5.879  0.1909  0.5042 -0.0323
  102MOL0     C13646   5.830   6.799   5.791 -0.1389  0.1663  1.0862
  102MOL0     C13647   5.803   6.827   5.646  0.0922 -0.3750 -0.3636
  102MOL0     C13648   5.779   6.701   5.565 -0.0861 -0.2621  0.4984
  102MOL0     C13649   5.897   6.614   5.540  0.0251  0.2193 -0.0895
  102MOL0     C13650   5.873   6.517   5.424  0.3864 -0.0047 -0.0282
  102MOL0     C13651   5.999   6.477   5.363 -0.4576  0.6870  0.2475
  102MOL0     N13652   5.966   6.407   5.232  0.5680 -0.5360  0.3605
  102MOL0     C13653   5.972   6.475   5.110 -0.1135 -0.3116  0.9051
  102MOL0     C13654   5.950   6.373   5.029 -0.5362  0.7012 -0.4737
  102MOL0     C13655   5.936   6.390   4.877  0.3777 -0.6015 -0.4562
  102MOL0     C13656   5.807   6.463   4.833 -0.4295 -0.1305 -0.3654
  102MOL0     C13657   5.691   6.375   4.846  0.1145  0.9577  0.0899
  102MOL0     C13658   5.659   6.340   4.994 -1.1137 -0.2464  0.2776
  102MOL0     O13659   5.526   6.305   5.008  0.3293 -1.0234 -0.3410
  102MOL0     C13660   5.431   6.402   5.010  0.4584  0.3031  0.8482
  102MOL0     C13661   5.453   6.538   5.043  0.4994 -0.4547 -0.7285
  102MOL0     C13662   5.347   6.621   5.067  0.9731 -1.0584 -0.2251
  102MOL0     C13663   5.384   6.761   5.106  0.2338 -0.4324  0.6327
  102MOL0     C13664   5.210   6.584   5.037 -0.3423  0.3407 -0.2276
  102MOL0     C13665   5.085   6.670   5.038 -0.0870 -0.0558 -0.5163
  102MOL0     O13666   4.969   6.603   5.063  0.3741 -0.3251  0.3283
  102MOL0     C13667   4.856   6.677   5.078  0.2998  0.1603 -0.1699
  102MOL0     C13668   4.754   6.664   4.984 -0.7433 -0.4601 -0.5323
  102MOL0     C13669   4.633   6.734   5.002  0.3741  0.3490  0.1698
  102MOL0     C13670   4.621   6.827   5.109  0.3817  0.5198 -0.2806
  102MOL0     O13671   4.508   6.903   5.140 -0.8021  0.7296 -0.6711
  102MOL0     C13672   4.425   6.935   5.029 -0.5311  0.0160  0.2586
  102MOL0     C13673   4.289   6.980   5.085  0.3621  0.5694  0.3241
  102MOL0     C13674   4.304   7.106   5.170  0.3554 -0.6097  0.7201
  102MOL0     C13675   4.177   7.139   5.252 -0.2831  0.0342  0.1021
  102MOL0     C13676   4.202   7.139   5.396 -0.1911  0.0135 -0.0294
  102MOL0     C13677   4.190   7.011   5.473  0.7830  0.4239  0.3179
  102MOL0     C13678   4.258   7.026   5.609 -0.7487 -0.4285  0.1254
  102MOL0     C13679   4.215   7.152   5.685 -0.3011  0.9151  0.5570
  102MOL0    Cl13680   4.293   7.140   5.867  0.3714 -0.5394 -0.2046
  102MOL0     C13681   4.724   6.830   5.204 -0.6822 -0.1597  1.4281
  102MOL0     C13682   4.842   6.758   5.187 -0.9663  0.1671  0.2136
  102MOL0     O13683   5.097   6.786   5.002 -0.4104 -0.0559  0.5616
  102MOL0     C13684   5.198   6.450   5.012 -0.2147  0.1950  0.8847
  102MOL0     C13685   5.300   6.359   4.995 -0.8020 -0.3308  0.7395
  102MOL0     N13686   5.969   6.249   5.103 -0.0120  0.0184 -0.3033
  102MOL0     N13687   5.955   6.272   5.220  0.6426  0.6376  0.0490
  102MOL0     C13688   5.624   6.939   6.156  0.9261 -0.6177  0.5158
  102MOL0     C13689   5.489   6.968   6.165  0.1771  0.0370  0.3066
  102MOL0     C13690   5.061   7.007   5.994  0.1901 -0.9128  0.3366
  102MOL0     C13691   5.011   7.070   5.876 -0.0564  0.1676 -1.4733
  102MOL0     C13692   4.868   7.081   5.863  0.6140 -0.2801 -0.3083
  102MOL0     C13693   4.780   7.029   5.960 -0.4666  0.0731  0.3804
  102MOL0     O13694   4.643   7.024   5.931 -0.1583 -0.5899  0.5097
  102MOL0     C13695   4.568   6.906   5.975 -0.1956 -0.4567  1.0972
  102MOL0     C13696   4.611   6.774   5.903  0.2182 -0.1109 -0.8185
  102MOL0     C13697   4.545   6.761   5.763 -0.4461  0.0562 -0.1651
  102MOL0     C13698   4.607   6.851   5.656 -0.2563 -0.1658  0.4610
  102MOL0     C13699   4.734   6.786   5.614  0.1217  0.0564 -0.0493
  102MOL0     C13700   4.838   6.730   5.578  0.3620  0.0235  0.2867
  102MOL0     C13701   4.834   6.968   6.071  0.1615  0.2896 -0.8478
  102MOL0     C13702   4.975   6.953   6.091  1.1353  0.0846  0.6406
  102MOL0     H13703   5.367   6.696   6.016 -0.5170 -0.5883  1.1608
  102MOL0     H13704   5.611   6.632   6.016  1.5609  0.1224  0.7356
  102MOL0     H13705   5.847   7.001   6.072  1.0177  0.0138 -0.6967
  102MOL0     H13706   5.966   6.885   6.006  0.9253  1.1824  0.9204
  102MOL0     H13707   5.700   6.957   5.881 -0.1570 -0.5158 -0.1223
  102MOL0     H13708   5.852   7.010   5.832  1.6325 -0.7377 -0.9286
  102MOL0     H13709   5.931   6.757   5.796 -0.2078 -0.2192 -0.2410
  102MOL0     H13710   5.765   6.715   5.817  1.0566 -1.0651  0.2850
  102MOL0     H13711   5.714   6.890   5.647  1.6483  1.9636  0.4333
  102MOL0     H13712   5.875   6.893   5.597  0.2374  0.2427  0.6491
  102MOL0     H13713   5.704   6.646   5.622  0.2103  0.4787  1.6521
  102MOL0     H13714   5.739   6.731   5.467  2.8310 -1.3629 -1.1601
  102MOL0     H13715   5.974   6.689   5.519  1.0902 -1.2344 -1.5704
  102MOL0     H13716   5.924   6.564   5.633  0.0313 -1.4213 -0.9440
  102MOL0     H13717   5.812   6.430   5.452 -2.2219  1.7678  0.1019
  102MOL0     H13718   5.808   6.567   5.352 -0.1218 -1.0248 -0.3092
  102MOL0     H13719   6.063   6.425   5.435  1.0183  4.0488  1.5683
  102MOL0     H13720   6.044   6.575   5.342  0.4756  0.0852 -0.7064
  102MOL0     H13721   5.961   6.582   5.095 -0.9270 -0.4150  0.7169
  102MOL0     H13722   6.029   6.436   4.844 -0.1444  0.3297 -0.6631
  102MOL0     H13723   5.937   6.292   4.829  0.5853 -0.6671 -0.3164
  102MOL0     H13724   5.817   6.493   4.728  0.9225 -0.4504 -0.3575
  102MOL0     H13725   5.802   6.555   4.891 -1.9527  1.0228 -2.2012
  102MOL0     H13726   5.704   6.283   4.789  0.1434 -0.0764  1.6944
  102MOL0     H13727   5.610   6.429   4.797 -0.6995 -2.8775 -3.2685
  102MOL0     H13728   5.689   6.416   5.066 -3.3908 -0.6576  1.7493
  102MOL0     H13729   5.711   6.248   5.024 -0.4888 -0.0527 -0.1913
  102MOL0     H13730   5.556   6.569   5.057  1.0018 -3.0771  2.3937
  102MOL0     H13731   5.483   6.778   5.063 -1.1891  1.1674 -2.2820
  102MOL0     H13732   5.330   6.827   5.038 -0.1662 -2.1784 -0.8450
  102MOL0     H13733   5.376   6.789   5.212  2.0405  1.4822  0.3261
  102MOL0     H13734   4.767   6.602   4.896 -2.3223 -0.4661 -0.7936
  102MOL0     H13735   4.563   6.717   4.921  2.2883 -2.5382 -1.0487
  102MOL0     H13736   4.476   7.011   4.969  3.8094 -1.4685  1.6376
  102MOL0     H13737   4.414   6.854   4.955 -0.2249  0.0004  0.2297
  102MOL0     H13738   4.216   7.010   5.010 -1.5527 -1.3646  1.3187
  102MOL0     H13739   4.234   6.904   5.140 -0.3168 -1.8125 -3.3351
  102MOL0     H13740   4.323   7.187   5.098  1.4251  0.0568  1.7224
  102MOL0     H13741   4.388   7.091   5.238  1.0413 -2.8447 -0.5180
  102MOL0     H13742   4.137   7.234   5.215 -1.0832 -1.1262 -2.1919
  102MOL0     H13743   4.095   7.067   5.240  0.4886 -1.0590  1.2010
  102MOL0     H13744   4.145   7.223   5.439 -0.4890 -1.4531  2.6959
  102MOL0     H13745   4.300   7.184   5.417 -1.6474  2.2108  2.9224
  102MOL0     H13746   4.087   6.976   5.473  0.0281  2.4931 -0.2388
  102MOL0     H13747   4.247   6.935   5.419  0.9410  0.1547  0.8550
  102MOL0     H13748   4.365   7.038   5.594 -0.7094 -0.6974  0.1903
  102MOL0     H13749   4.245   6.940   5.675  2.4398  0.1743  1.6972
  102MOL0     H13750   4.107   7.162   5.697 -0.5136  0.3882 -0.7492
  102MOL0     H13751   4.244   7.245   5.636  0.5392 -0.7695 -2.4707
  102MOL0     H13752   4.718   6.914   5.272  0.1803  0.8720  0.2773
  102MOL0     H13753   4.929   6.778   5.249 -0.3514  0.5929 -0.7660
  102MOL0     H13754   5.105   6.397   4.994 -0.3189  0.3269  1.0374
  102MOL0     H13755   5.275   6.254   4.990  2.4100 -1.1896  0.8821
  102MOL0     H13756   5.689   7.016   6.198 -0.3019  1.2785 -0.8697
  102MOL0     H13757   5.464   7.058   6.221 -1.2872 -0.4366  0.4729
  102MOL0     H13758   5.078   7.104   5.798  0.3796  2.2835 -0.2338
  102MOL0     H13759   4.828   7.142   5.783 -1.6042  1.7022  2.1558
  102MOL0     H13760   4.581   6.901   6.084  0.6364 -1.7524  0.9645
  102MOL0     H13761   4.461   6.927   5.965  0.1120  1.6795  1.6805
  102MOL0     H13762   4.590   6.692   5.971  1.6615  1.8058  2.1732
  102MOL0     H13763   4.720   6.768   5.890  0.3821 -1.7718  0.9553
  102MOL0     H13764   4.436   6.770   5.760 -0.5918 -1.5741 -1.0535
  102MOL0     H13765   4.560   6.657   5.731 -0.3455 -0.8068  2.4787
  102MOL0     H13766   4.634   6.946   5.703 -2.3142 -0.1638  1.7737
  102MOL0     H13767   4.545   6.855   5.566 -2.2137 -2.3279  1.5950
  102MOL0     H13768   4.930   6.686   5.544  0.1259  1.4302 -2.5180
  102MOL0     H13769   4.766   6.928   6.146 -2.3267  0.6365 -2.7992
  102MOL0     H13770   5.026   6.892   6.165  1.1794 -1.9738 -0.9930
  103MOL0     O13771   3.387   7.325   6.355 -1.0792 -0.6584  0.3653
  103MOL0     C13772   3.476   7.317   6.442 -0.1842 -0.0777 -0.4195
  103MOL0     O13773   3.484   7.395   6.556  0.8322 -0.8133 -0.3039
  103MOL0     C13774   3.369   7.471   6.575  0.3994 -0.5675  0.2146
  103MOL0     C13775   3.242   7.423   6.608 -0.2409 -0.1793  0.2068
  103MOL0     C13776   3.132   7.506   6.631  0.2384  1.1416 -0.7507
  103MOL0     C13777   3.147   7.643   6.619 -0.5532 -0.0259 -1.2000
  103MOL0     O13778   3.039   7.718   6.623  0.0477  0.1810  0.6032
  103MOL0     C13779   3.034   7.843   6.688 -0.1041 -0.5832  0.1946
  103MOL0     C13780   2.897   7.907   6.674  0.8994 -0.2213  0.3376
  103MOL0     C13781   2.797   7.814   6.750 -0.4104  0.0489 -0.3894
  103MOL0     C13782   2.659   7.841   6.686 -0.5644  0.4655  0.4807
  103MOL0     C13783   2.559   7.742   6.750  0.0197 -0.7199 -0.6600
  103MOL0     C13784   2.419   7.775   6.702  0.7463 -0.3412  0.1914
  103MOL0     C13785   2.319   7.688   6.771  0.2438  0.8650  0.3743
  103MOL0     C13786   2.181   7.730   6.720 -1.1861  0.3915  0.1246
  103MOL0     N13787   2.083   7.631   6.767 -0.1715 -0.6577  0.1419
  103MOL0     C13788   2.009   7.628   6.885  0.0682  0.3640 -0.0778
  103MOL0     C13789   1.906   7.540   6.871 -0.5080 -0.5028  0.1939
  103MOL0     C13790   1.797   7.510   6.972  0.4907  0.3400 -0.0395
  103MOL0     C13791   1.662   7.545   6.923 -0.3075 -0.4055 -0.3541
  103MOL0     C13792   1.561   7.510   7.034  0.3846  0.0790  0.0390
  103MOL0     C13793   1.420   7.543   6.992 -0.4497 -1.3507  0.1104
  103MOL0     O13794   1.331   7.538   7.102 -0.3572  0.3514  1.0693
  103MOL0     C13795   1.198   7.541   7.058 -0.6083 -0.1330  0.0653
  103MOL0     C13796   1.147   7.589   6.937 -0.1100  0.2899 -0.7114
  103MOL0     C13797   1.001   7.591   6.912 -0.1856  0.9429  0.1032
  103MOL0     C13798   0.944   7.658   6.784  0.0008 -0.0442  0.5082
  103MOL0     C13799   0.913   7.538   7.010  0.1673  0.6370  0.0016
  103MOL0     C13800   0.761   7.534   7.003  0.3490 -0.3267  0.6289
  103MOL0     O13801   0.688   7.575   7.115  0.7180 -0.1562 -0.0015
  103MOL0     C13802   0.562   7.525   7.133  0.4170 -0.3354  0.2274
  103MOL0     C13803   0.470   7.612   7.204 -0.0583  0.4796  0.3071
  103MOL0     C13804   0.337   7.574   7.228 -0.1253  0.3826  0.4198
  103MOL0     C13805   0.295   7.447   7.189 -0.0484 -0.8448  0.9500
  103MOL0     O13806   0.171   7.403   7.219  0.1470 -0.3763 -0.1206
  103MOL0     C13807   0.080   7.446   7.318  0.3501 -0.6172 -0.3011
  103MOL0     C13808  -0.034   7.515   7.247  0.2228  0.2060  0.2983
  103MOL0     C13809  -0.144   7.544   7.340  0.6125 -0.3417 -0.3920
  103MOL0     C13810  -0.223   7.421   7.378  0.2172  0.3536 -0.2583
  103MOL0     C13811  -0.361   7.475   7.429 -0.4896  0.7075  0.0970
  103MOL0     C13812  -0.457   7.360   7.464 -0.2378  0.3618 -0.5070
  103MOL0     C13813  -0.584   7.413   7.527  0.0994 -0.9069  1.8240
  103MOL0     C13814  -0.675   7.299   7.559 -0.3392  0.3627 -0.1740
  103MOL0    Cl13815  -0.634   7.238   7.722 -0.0371  0.2313 -0.3182
  103MOL0     C13816   0.388   7.359   7.129  0.2705 -0.8294 -0.7253
  103MOL0     C13817   0.518   7.401   7.100  0.1427  0.0612  0.0514
  103MOL0     O13818   0.711   7.495   6.893 -0.6282 -0.6187 -0.4058
  103MOL0     C13819   0.967   7.482   7.128  0.5135  0.1593 -0.2868
  103MOL0     C13820   1.105   7.484   7.147  0.2460  0.7318 -0.0684
  103MOL0     N13821   1.920   7.492   6.741  0.2752 -0.4176 -0.9533
  103MOL0     N13822   2.018   7.549   6.674 -0.0486  0.2938 -0.3419
  103MOL0     C13823   3.277   7.697   6.596 -0.1647 -0.0920 -0.6965
  103MOL0     C13824   3.386   7.613   6.576 -0.1805 -0.7018  0.6524
  103MOL0     C13825   3.577   7.213   6.421 -0.5772  0.8520  0.1998
  103MOL0     C13826   3.562   7.103   6.336 -0.2938 -0.6517 -1.3242
  103MOL0     C13827   3.664   7.024   6.301  0.2987 -0.1294 -0.1581
  103MOL0     C13828   3.791   7.044   6.353  0.4931 -0.6745 -0.0070
  103MOL0     O13829   3.897   6.958   6.335  1.3117 -0.5478  0.4463
  103MOL0     C13830   3.956   6.970   6.201 -0.5980 -0.7654  0.4407
  103MOL0     C13831   4.044   6.849   6.188  0.5185 -0.7104  0.1701
  103MOL0     C13832   4.103   6.859   6.041 -0.3346 -0.3042 -0.9881
  103MOL0     C13833   4.184   6.728   6.010 -1.1731  0.1691 -0.1492
  103MOL0     C13834   4.293   6.686   6.098  0.1990 -0.0363 -0.0955
  103MOL0     C13835   4.374   6.656   6.186  0.0398  0.6225  0.4466
  103MOL0     C13836   3.809   7.146   6.441  0.8435 -0.7755  0.2768
  103MOL0     C13837   3.708   7.235   6.469  0.4077  0.3933  0.2095
  103MOL0     H13838   3.236   7.315   6.596  2.6826 -0.6802  2.0460
  103MOL0     H13839   3.033   7.465   6.648  0.6454  0.1637 -0.6706
  103MOL0     H13840   3.056   7.835   6.795  1.4288  2.0496  0.1658
  103MOL0     H13841   3.104   7.915   6.644 -0.8300 -0.4817 -0.8099
  103MOL0     H13842   2.889   8.007   6.717  1.6652 -1.0668  2.5366
  103MOL0     H13843   2.869   7.914   6.568 -0.7127  0.1972  0.7588
  103MOL0     H13844   2.821   7.707   6.748  1.5710  0.2886  3.0095
  103MOL0     H13845   2.797   7.840   6.856  1.0602  0.7226 -0.5345
  103MOL0     H13846   2.627   7.944   6.700 -1.2643  0.6193 -1.9032
  103MOL0     H13847   2.659   7.817   6.579  1.2023 -1.2727  0.8055
  103MOL0     H13848   2.587   7.639   6.728 -1.5580 -0.4497 -4.7021
  103MOL0     H13849   2.551   7.761   6.858  4.3483 -0.8649 -0.1507
  103MOL0     H13850   2.397   7.874   6.741  2.9666  0.1388  0.3301
  103MOL0     H13851   2.413   7.780   6.593  1.1942  1.6624  0.2302
  103MOL0     H13852   2.339   7.582   6.751  0.9910  0.8125  1.3234
  103MOL0     H13853   2.318   7.697   6.881 -0.7632 -1.4255  0.6111
  103MOL0     H13854   2.185   7.724   6.611 -2.8491  1.1268 -0.0113
  103MOL0     H13855   2.160   7.833   6.751 -1.7820  0.4382 -0.4156
  103MOL0     H13856   2.024   7.699   6.966  1.6915  0.1080 -0.1166
  103MOL0     H13857   1.800   7.406   7.004 -0.0026  0.2193 -0.3667
  103MOL0     H13858   1.821   7.564   7.064 -2.9570 -0.4903  1.5212
  103MOL0     H13859   1.633   7.485   6.836 -1.2374 -1.4968  0.6944
  103MOL0     H13860   1.652   7.652   6.899  2.4060  0.2487  1.0386
  103MOL0     H13861   1.590   7.577   7.116 -0.0756  0.1898  0.1130
  103MOL0     H13862   1.583   7.408   7.067 -0.6474 -0.0176  0.4413
  103MOL0     H13863   1.395   7.476   6.908 -0.7853  0.7172 -1.5168
  103MOL0     H13864   1.420   7.640   6.941 -0.1016 -1.9762 -1.1237
  103MOL0     H13865   1.221   7.626   6.867 -0.0297 -0.3147 -0.9554
  103MOL0     H13866   1.021   7.659   6.707 -0.3003  0.2087  0.2079
  103MOL0     H13867   0.864   7.591   6.752 -1.2572  1.8322 -0.4772
  103MOL0     H13868   0.902   7.757   6.803  1.3768  0.6271  0.1582
  103MOL0     H13869   0.512   7.708   7.230  2.3338 -0.7111  1.1177
  103MOL0     H13870   0.268   7.635   7.286  0.5299 -0.9531  2.7290
  103MOL0     H13871   0.046   7.367   7.386 -0.7384  0.4366  0.4160
  103MOL0     H13872   0.122   7.528   7.377  1.9232  1.5409 -4.0731
  103MOL0     H13873   0.009   7.605   7.202  1.1919 -1.4419 -2.3056
  103MOL0     H13874  -0.079   7.456   7.167  1.7531 -0.2714 -0.2425
  103MOL0     H13875  -0.202   7.621   7.288  2.2810 -0.4962 -2.6180
  103MOL0     H13876  -0.101   7.590   7.430  0.1414 -0.6494  0.0015
  103MOL0     H13877  -0.239   7.347   7.300  0.5139 -1.9219  1.7105
  103MOL0     H13878  -0.182   7.369   7.465 -2.4902  0.0101  0.9198
  103MOL0     H13879  -0.410   7.525   7.345  0.2006 -0.5966 -1.1143
  103MOL0     H13880  -0.335   7.545   7.509  1.4319  0.5453 -0.3481
  103MOL0     H13881  -0.478   7.295   7.379  0.2435  1.6512 -1.6334
  103MOL0     H13882  -0.402   7.309   7.544  1.8190  1.2754 -1.2654
  103MOL0     H13883  -0.621   7.484   7.453 -0.6751 -3.7162 -0.6604
  103MOL0     H13884  -0.567   7.470   7.620 -1.7518  2.0663  0.5058
  103MOL0     H13885  -0.656   7.217   7.489  0.1965  1.6234 -1.5795
  103MOL0     H13886  -0.781   7.326   7.561 -0.2391  0.9223 -1.2508
  103MOL0     H13887   0.362   7.258   7.099  1.2690 -0.4919 -2.9054
  103MOL0     H13888   0.583   7.331   7.048 -0.6984  0.0518 -1.0386
  103MOL0     H13889   0.900   7.446   7.205  0.1906 -0.0710 -0.6698
  103MOL0     H13890   1.140   7.445   7.243 -1.2008  1.3762  0.7553
  103MOL0     H13891   3.306   7.801   6.588  3.9647 -0.9749  0.3408
  103MOL0     H13892   3.485   7.648   6.548 -0.9764  0.9616 -0.2666
  103MOL0     H13893   3.466   7.091   6.287 -1.0065 -2.1316  0.3128
  103MOL0     H13894   3.650   6.951   6.222  0.7251  0.7495 -1.0818
  103MOL0     H13895   3.872   6.954   6.133 -1.7269  1.4414  1.2317
  103MOL0     H13896   3.999   7.070   6.189 -0.9821 -0.4888  1.3014
  103MOL0     H13897   3.991   6.757   6.213 -2.4491  1.2399  1.6611
  103MOL0     H13898   4.129   6.866   6.254  0.2031 -1.3519  0.7524
  103MOL0     H13899   4.159   6.953   6.036 -1.7657  0.7394  1.1605
  103MOL0     H13900   4.020   6.872   5.971  0.2542 -0.2417 -1.6816
  103MOL0     H13901   4.232   6.743   5.912  0.3340  0.9815  0.6788
  103MOL0     H13902   4.117   6.642   6.006 -2.2745  1.0055 -0.0320
  103MOL0     H13903   4.443   6.613   6.256 -0.4982 -0.4662  0.3352
  103MOL0     H13904   3.909   7.169   6.475  2.3826  0.6464 -4.3690
  103MOL0     H13905   3.727   7.316   6.539  0.8329  0.8645 -0.4408
  104MOL0     O13906   3.991   1.848   7.616  0.1532  0.4591 -1.3682
  104MOL0     C13907   4.033   1.964   7.616  0.0212 -0.2233 -0.8183
  104MOL0     O13908   3.981   2.069   7.687  0.2587 -1.0142 -0.0842
  104MOL0     C13909   3.866   2.056   7.758  0.6077  0.0589 -0.4669
  104MOL0     C13910   3.741   2.089   7.688 -1.0949  0.2349 -0.6386
  104MOL0     C13911   3.621   2.064   7.755 -0.3800 -0.3702  0.2403
  104MOL0     C13912   3.610   2.015   7.879 -0.2465  0.7212 -0.1525
  104MOL0     O13913   3.487   1.988   7.937  0.5434 -0.4161 -0.1525
  104MOL0     C13914   3.467   1.876   8.021 -0.3377  0.4419  0.6048
  104MOL0     C13915   3.353   1.791   7.967  0.5922 -0.4389  0.6802
  104MOL0     C13916   3.220   1.849   8.016 -0.1661  0.4931 -0.2355
  104MOL0     C13917   3.193   1.854   8.165 -0.2459 -0.1113  0.1636
  104MOL0     C13918   3.060   1.912   8.202  0.0085 -0.1712  0.3198
  104MOL0     C13919   2.940   1.836   8.146 -0.1428  0.0267  0.0835
  104MOL0     C13920   2.807   1.879   8.213 -0.5089 -0.7707 -0.1178
  104MOL0     C13921   2.688   1.793   8.186 -0.2342 -0.5006  0.1361
  104MOL0     N13922   2.660   1.802   8.045  0.4378  0.0863  0.0022
  104MOL0     C13923   2.603   1.906   7.984  0.3463 -1.0283  0.3590
  104MOL0     C13924   2.584   1.876   7.851 -0.5614  0.1655 -0.6438
  104MOL0     C13925   2.513   1.964   7.766 -0.0632  0.0906  0.0805
  104MOL0     C13926   2.362   1.922   7.746  0.8609 -0.0544  0.4313
  104MOL0     C13927   2.351   1.775   7.686  0.4373  0.6309 -0.6330
  104MOL0     C13928   2.205   1.735   7.660  0.4223  0.1174 -0.1086
  104MOL0     O13929   2.148   1.800   7.552  1.1284  0.0074  0.2990
  104MOL0     C13930   2.015   1.826   7.537  0.1222 -0.1188 -0.0512
  104MOL0     C13931   1.974   1.910   7.433 -0.9037  1.2041  0.1515
  104MOL0     C13932   1.839   1.929   7.406 -0.3431  0.2085 -0.3305
  104MOL0     C13933   1.809   2.009   7.273  0.0455  0.1855 -1.3076
  104MOL0     C13934   1.741   1.876   7.489  0.6023  0.0804 -0.1989
  104MOL0     C13935   1.591   1.892   7.470 -0.9859 -0.6332 -0.4675
  104MOL0     O13936   1.504   1.809   7.537 -0.0698 -0.6233 -0.9414
  104MOL0     C13937   1.374   1.837   7.574  0.4428 -0.8565 -0.4080
  104MOL0     C13938   1.341   1.879   7.705  0.4843 -0.0733  0.4660
  104MOL0     C13939   1.209   1.930   7.723 -0.6668 -0.6925 -0.2447
  104MOL0     C13940   1.109   1.912   7.625 -1.0876 -0.5796  0.2371
  104MOL0     O13941   0.981   1.946   7.672 -0.0730  0.0909  0.6628
  104MOL0     C13942   0.870   1.940   7.577 -0.4014  0.5729  0.0791
  104MOL0     C13943   0.756   2.012   7.641  0.2970 -0.9719  0.2328
  104MOL0     C13944   0.651   2.028   7.535 -0.1435  0.4717 -0.1992
  104MOL0     C13945   0.513   2.074   7.594  0.0470  0.1179 -0.2466
  104MOL0     C13946   0.389   2.071   7.508  0.5711  0.5041 -0.4912
  104MOL0     C13947   0.330   1.932   7.488  0.2718 -0.5455 -0.8052
  104MOL0     C13948   0.180   1.925   7.530 -0.0212 -0.4456 -0.1977
  104MOL0     C13949   0.126   1.778   7.520 -0.6324  0.3697 -0.0801
  104MOL0    Cl13950   0.197   1.676   7.645 -0.1981 -0.3128 -0.3666
  104MOL0     C13951   1.144   1.873   7.497 -0.0493 -0.0871 -0.3776
  104MOL0     C13952   1.280   1.836   7.475  0.3050 -0.2704  0.3730
  104MOL0     O13953   1.555   1.985   7.390 -0.1895 -0.3657 -0.7329
  104MOL0     C13954   1.782   1.798   7.600 -0.4273 -1.1485  0.4515
  104MOL0     C13955   1.913   1.786   7.630 -0.3198  0.0532 -0.3484
  104MOL0     N13956   2.646   1.757   7.829 -1.1625  0.7537  0.1784
  104MOL0     N13957   2.699   1.725   7.938 -0.8151  0.1086 -0.3978
  104MOL0     C13958   3.734   1.985   7.952  0.3966  0.2589 -0.3686
  104MOL0     C13959   3.859   2.000   7.882  0.3364  0.1957 -0.5670
  104MOL0     C13960   4.162   1.985   7.540 -0.0277 -0.1387 -0.1583
  104MOL0     C13961   4.259   1.891   7.524 -0.4110  1.2223  0.0549
  104MOL0     C13962   4.382   1.909   7.470 -0.5742 -1.1098  0.3634
  104MOL0     C13963   4.404   2.039   7.413  0.5401 -0.4185  0.4065
  104MOL0     O13964   4.521   2.090   7.354  0.7402 -0.1428 -0.2616
  104MOL0     C13965   4.634   2.013   7.340 -0.2352  1.1340 -0.4002
  104MOL0     C13966   4.745   2.098   7.291 -0.5391 -0.0602  0.6906
  104MOL0     C13967   4.852   2.006   7.227  0.0426 -0.0880 -0.0714
  104MOL0     C13968   4.943   2.080   7.129  0.0854 -0.6477  0.5396
  104MOL0     C13969   5.025   2.183   7.202  0.4724 -0.1738 -0.6799
  104MOL0     C13970   5.080   2.276   7.267 -0.2376  0.0938 -0.2270
  104MOL0     C13971   4.304   2.135   7.420  0.9874 -0.3942  0.0442
  104MOL0     C13972   4.185   2.104   7.482 -0.0594  0.1000  0.2559
  104MOL0     H13973   3.749   2.121   7.585  0.3727 -0.1845 -0.6852
  104MOL0     H13974   3.530   2.091   7.703  1.5114  0.6270 -2.8011
  104MOL0     H13975   3.552   1.808   8.009 -2.1162 -1.5536 -2.0676
  104MOL0     H13976   3.458   1.880   8.130 -0.4102  0.8626  0.5855
  104MOL0     H13977   3.352   1.769   7.859  1.3492  0.9452  0.3691
  104MOL0     H13978   3.367   1.695   8.017 -0.5058 -0.3704  1.1328
  104MOL0     H13979   3.208   1.952   7.980  2.4789  1.3077  0.8818
  104MOL0     H13980   3.145   1.780   7.978  0.1509 -0.8111  1.4031
  104MOL0     H13981   3.199   1.752   8.204 -0.4715 -0.5311 -0.8618
  104MOL0     H13982   3.271   1.918   8.207 -0.3517  0.9705 -1.2244
  104MOL0     H13983   3.057   1.911   8.311  1.5128 -1.7060  0.3902
  104MOL0     H13984   3.058   2.015   8.166  0.4500 -0.5722 -0.9015
  104MOL0     H13985   2.940   1.847   8.037 -1.1580  2.3458  0.2403
  104MOL0     H13986   2.937   1.732   8.180 -1.3189  0.3631  1.0966
  104MOL0     H13987   2.809   1.891   8.322 -0.0288  0.7482 -0.2717
  104MOL0     H13988   2.798   1.986   8.190  6.2991  0.2510 -0.0689
  104MOL0     H13989   2.601   1.817   8.248 -0.9564  2.3660 -1.8528
  104MOL0     H13990   2.707   1.690   8.220  0.7707  0.5744  3.2487
  104MOL0     H13991   2.571   1.997   8.033 -0.5450 -1.8394  1.3339
  104MOL0     H13992   2.537   2.063   7.806  0.8409 -0.2007  0.2799
  104MOL0     H13993   2.555   1.971   7.665 -3.8782  1.2629 -1.6028
  104MOL0     H13994   2.307   1.987   7.678 -1.1765 -1.1336  0.9484
  104MOL0     H13995   2.313   1.928   7.844  1.2395  0.7357  0.5726
  104MOL0     H13996   2.376   1.701   7.763 -3.0297  0.3200  0.3296
  104MOL0     H13997   2.420   1.765   7.602 -0.4587 -0.0040 -1.3150
  104MOL0     H13998   2.148   1.743   7.753 -1.5983 -1.0639 -1.1687
  104MOL0     H13999   2.200   1.627   7.640  1.3679 -0.1955  1.2415
  104MOL0     H14000   2.057   1.935   7.367  1.6832 -2.3851  1.7641
  104MOL0     H14001   1.904   2.014   7.218  1.3976  1.1027  0.9704
  104MOL0     H14002   1.744   1.957   7.202  2.2314 -0.5798 -2.8629
  104MOL0     H14003   1.759   2.104   7.293 -0.5775 -0.4827  0.5568
  104MOL0     H14004   1.419   1.890   7.780  0.9971  1.2207 -0.2364
  104MOL0     H14005   1.177   1.985   7.811 -1.4727  0.3882 -1.1795
  104MOL0     H14006   0.904   1.996   7.489  1.3635  0.0120  0.3445
  104MOL0     H14007   0.853   1.837   7.542  1.1144  0.4701 -0.4715
  104MOL0     H14008   0.724   1.944   7.720  1.3396 -3.3909 -1.3146
  104MOL0     H14009   0.777   2.113   7.679 -2.8689 -0.6315  1.3729
  104MOL0     H14010   0.634   1.932   7.486 -1.1737 -0.2951  1.5587
  104MOL0     H14011   0.694   2.102   7.466  3.8601 -0.8958  0.5524
  104MOL0     H14012   0.487   2.004   7.674  0.0428 -2.4637 -2.3406
  104MOL0     H14013   0.534   2.175   7.631 -3.2204  1.4686 -1.7178
  104MOL0     H14014   0.413   2.099   7.406  0.7102 -1.2611 -0.9864
  104MOL0     H14015   0.323   2.145   7.554 -0.0367 -0.7113  0.6590
  104MOL0     H14016   0.353   1.896   7.387  0.4113 -0.5018 -0.7890
  104MOL0     H14017   0.384   1.860   7.550  1.4760 -0.3682 -1.6092
  104MOL0     H14018   0.129   1.987   7.455 -1.1423 -1.0092  0.0750
  104MOL0     H14019   0.178   1.954   7.635  0.5275 -0.7682 -0.0938
  104MOL0     H14020   0.153   1.728   7.427  2.6658 -4.0505  2.8596
  104MOL0     H14021   0.018   1.783   7.532 -0.3145  3.5059  3.5113
  104MOL0     H14022   1.073   1.866   7.416  0.6299  1.6570 -1.1732
  104MOL0     H14023   1.314   1.803   7.378 -2.2599 -1.9769 -0.0588
  104MOL0     H14024   1.704   1.750   7.658 -4.9263  3.0204 -1.4472
  104MOL0     H14025   1.920   1.728   7.721 -1.8109 -0.0445 -0.2808
  104MOL0     H14026   3.728   1.950   8.054  0.9663  0.6329 -0.1985
  104MOL0     H14027   3.946   1.976   7.942 -2.4216 -0.7885  3.4262
  104MOL0     H14028   4.231   1.790   7.554  0.2534  0.6364 -1.1873
  104MOL0     H14029   4.460   1.835   7.465 -2.1062 -2.7006 -1.6561
  104MOL0     H14030   4.660   1.959   7.431 -1.4559 -0.6214 -1.0476
  104MOL0     H14031   4.611   1.948   7.255  0.8314  0.6606 -0.3494
  104MOL0     H14032   4.793   2.157   7.369  1.9379  1.3661 -1.7152
  104MOL0     H14033   4.703   2.155   7.207 -1.7329 -3.1280 -0.9558
  104MOL0     H14034   4.805   1.923   7.174 -2.7831  2.2968 -1.6248
  104MOL0     H14035   4.904   1.957   7.310 -3.3589 -1.0025  1.7078
  104MOL0     H14036   4.888   2.136   7.053  1.3327  2.6002  1.8363
  104MOL0     H14037   5.014   2.011   7.082  0.0685 -0.4947  0.2911
  104MOL0     H14038   5.128   2.339   7.339 -0.1924 -0.4449  0.2249
  104MOL0     H14039   4.308   2.236   7.379 -3.7792 -0.9469 -2.5855
  104MOL0     H14040   4.102   2.173   7.478 -1.0979 -0.9731  2.1472
  105MOL0     O14041   5.269   1.352   8.873 -0.2743 -0.1576  0.1663
  105MOL0     C14042   5.330   1.257   8.821 -0.4583 -0.7277 -0.1756
  105MOL0     O14043   5.277   1.152   8.763 -0.9096  0.4149 -0.4243
  105MOL0     C14044   5.145   1.130   8.773  0.2726  0.4274 -0.9514
  105MOL0     C14045   5.076   1.125   8.657  0.0827 -0.1667 -0.0302
  105MOL0     C14046   4.940   1.081   8.661 -0.1396  0.2401 -0.2066
  105MOL0     C14047   4.884   1.048   8.780  0.8594  0.4354 -0.5975
  105MOL0     O14048   4.750   1.008   8.788 -0.6914 -0.1654 -0.0612
  105MOL0     C14049   4.657   1.009   8.685 -1.4650 -0.0767 -0.0765
  105MOL0     C14050   4.523   0.963   8.758 -0.6176  0.1978 -0.0255
  105MOL0     C14051   4.400   0.962   8.683  0.4800  0.5998 -0.3918
  105MOL0     C14052   4.301   0.842   8.711  0.2267 -0.2046  0.1953
  105MOL0     C14053   4.215   0.802   8.589 -0.5288  0.7351 -0.3962
  105MOL0     C14054   4.109   0.900   8.545  0.4104 -0.6149  0.2245
  105MOL0     C14055   3.999   0.850   8.440  0.6377  0.4627 -0.0275
  105MOL0     C14056   4.052   0.847   8.299 -0.1393  0.3450 -0.5702
  105MOL0     N14057   4.042   0.981   8.229 -0.5273 -0.2368 -0.9622
  105MOL0     C14058   3.921   1.044   8.202 -0.4087 -0.3105 -0.2953
  105MOL0     C14059   3.955   1.162   8.148 -0.0405 -0.1635  0.5784
  105MOL0     C14060   3.867   1.258   8.078 -0.1852 -0.2239 -0.4417
  105MOL0     C14061   3.837   1.209   7.940 -0.2015 -0.3543  0.0047
  105MOL0     C14062   3.756   1.316   7.854  0.6275  0.2207  0.6633
  105MOL0     C14063   3.624   1.360   7.909 -0.8473  0.6143 -0.5811
  105MOL0     O14064   3.552   1.244   7.968  0.2244 -0.0359  0.2298
  105MOL0     C14065   3.458   1.275   8.062 -0.6800 -1.4925 -0.5096
  105MOL0     C14066   3.423   1.179   8.150  0.0254  1.5047  1.1059
  105MOL0     C14067   3.313   1.194   8.236  0.2328  0.1938  0.3035
  105MOL0     C14068   3.274   1.075   8.313 -0.7618 -0.1814  0.4800
  105MOL0     C14069   3.239   1.317   8.235  0.8770  0.7936 -0.2687
  105MOL0     C14070   3.110   1.342   8.313  0.2167  0.0315 -0.3655
  105MOL0     O14071   3.050   1.466   8.298 -0.8100 -0.1026  0.2289
  105MOL0     C14072   2.930   1.491   8.349  0.1115 -0.3852 -0.3878
  105MOL0     C14073   2.817   1.415   8.307 -0.9542 -0.5298  0.2536
  105MOL0     C14074   2.691   1.442   8.366 -0.0935  0.2796 -0.3761
  105MOL0     C14075   2.675   1.547   8.469  0.4184  0.4369 -0.2052
  105MOL0     O14076   2.558   1.584   8.529 -0.4630  0.5119  0.8836
  105MOL0     C14077   2.436   1.545   8.464 -0.3430 -0.2762  0.3778
  105MOL0     C14078   2.371   1.429   8.510 -0.2531 -0.1626  0.3546
  105MOL0     C14079   2.244   1.394   8.427  0.0222 -0.6413 -0.2504
  105MOL0     C14080   2.178   1.261   8.462  0.1208  0.3256 -0.2489
  105MOL0     C14081   2.057   1.246   8.372 -0.3049 -0.5533  0.4899
  105MOL0     C14082   1.932   1.289   8.452  0.6136  0.0008 -0.2786
  105MOL0     C14083   1.797   1.255   8.376 -0.7440 -0.0673  0.0563
  105MOL0     C14084   1.689   1.353   8.404 -0.7222  1.3215 -0.5727
  105MOL0    Cl14085   1.737   1.514   8.369  0.3653  0.6381 -0.3164
  105MOL0     C14086   2.793   1.618   8.499  0.0238 -0.2235 -0.3059
  105MOL0     C14087   2.918   1.593   8.444  0.4072  0.2204  0.0001
  105MOL0     O14088   3.061   1.246   8.368 -0.5625 -0.3483 -0.0165
  105MOL0     C14089   3.281   1.418   8.145  0.8091 -0.4771 -0.4036
  105MOL0     C14090   3.388   1.401   8.063 -0.3183  0.0800  1.0388
  105MOL0     N14091   4.092   1.170   8.146  0.2460 -0.5151 -0.1400
  105MOL0     N14092   4.149   1.061   8.188  0.2860 -0.1655  0.0042
  105MOL0     C14093   4.946   1.062   8.899  1.0385  0.0529  0.3035
  105MOL0     C14094   5.084   1.102   8.895 -0.1967  0.1234  0.4417
  105MOL0     C14095   5.477   1.257   8.830  0.2008 -0.1596 -1.1182
  105MOL0     C14096   5.548   1.142   8.794 -0.0480  0.0277  0.1127
  105MOL0     C14097   5.685   1.122   8.820 -0.2841 -0.8744  0.6908
  105MOL0     C14098   5.761   1.223   8.880 -1.4066 -0.5888  0.3532
  105MOL0     O14099   5.894   1.207   8.917  0.3120  0.6656  0.4745
  105MOL0     C14100   5.971   1.102   8.845  0.6470 -0.1981 -0.4679
  105MOL0     C14101   6.009   1.146   8.703 -0.0777  0.7629 -0.3653
  105MOL0     C14102   6.142   1.222   8.703  0.3446  0.6524  0.6691
  105MOL0     C14103   6.193   1.252   8.562 -0.2624  0.1042 -0.8421
  105MOL0     C14104   6.337   1.282   8.546 -0.5867  0.1932  0.9619
  105MOL0     C14105   6.452   1.303   8.538 -0.6494  0.4075 -0.2078
  105MOL0     C14106   5.697   1.343   8.918  0.1132 -0.0216  0.8385
  105MOL0     C14107   5.555   1.354   8.899 -0.2082  0.2394  0.0459
  105MOL0     H14108   5.128   1.140   8.563  0.0790  1.2182  0.1665
  105MOL0     H14109   4.885   1.081   8.567 -0.5359  0.2304  0.0215
  105MOL0     H14110   4.644   1.111   8.649 -0.0422 -0.2215 -1.0870
  105MOL0     H14111   4.689   0.941   8.605 -0.5872 -0.5400  0.6524
  105MOL0     H14112   4.541   0.858   8.784 -0.3063  0.2696  0.0593
  105MOL0     H14113   4.511   1.036   8.838 -1.0872  0.7126 -0.5586
  105MOL0     H14114   4.344   1.053   8.708  2.2683  1.3581  1.0952
  105MOL0     H14115   4.417   0.971   8.576  2.8483  5.0494  0.1070
  105MOL0     H14116   4.365   0.757   8.736 -1.3635 -0.4320  4.1919
  105MOL0     H14117   4.233   0.869   8.792 -1.4286  1.7448 -1.7291
  105MOL0     H14118   4.276   0.783   8.501 -2.6222 -2.4840 -1.3496
  105MOL0     H14119   4.169   0.706   8.616  0.8347 -0.0331 -0.7234
  105MOL0     H14120   4.063   0.930   8.640  2.4064 -0.8308  1.3148
  105MOL0     H14121   4.158   0.991   8.511 -1.9699  0.5590 -0.2544
  105MOL0     H14122   3.950   0.756   8.467  0.0937  1.0864  1.2226
  105MOL0     H14123   3.914   0.920   8.436 -0.8412 -1.3130 -1.2967
  105MOL0     H14124   4.000   0.771   8.240 -0.3534  1.8533 -2.4424
  105MOL0     H14125   4.157   0.817   8.297  0.1746  1.3077  0.3972
  105MOL0     H14126   3.822   1.004   8.221 -0.9716  1.2127  0.0820
  105MOL0     H14127   3.772   1.261   8.131 -0.8439 -0.5009 -1.5824
  105MOL0     H14128   3.918   1.354   8.094 -0.7936  0.0197  0.0455
  105MOL0     H14129   3.794   1.108   7.945  1.6624 -1.1674  0.7562
  105MOL0     H14130   3.933   1.206   7.886  0.8157  2.3684  1.4846
  105MOL0     H14131   3.725   1.268   7.761 -2.7180  1.7610  0.8477
  105MOL0     H14132   3.818   1.403   7.830  2.5584 -1.7183 -1.9442
  105MOL0     H14133   3.578   1.388   7.814  2.6997 -1.3775 -3.1348
  105MOL0     H14134   3.630   1.449   7.973  0.6868 -0.1702  0.4421
  105MOL0     H14135   3.465   1.079   8.148  0.0100  1.4371 -2.1665
  105MOL0     H14136   3.174   1.038   8.288 -0.6167 -1.0066  1.0584
  105MOL0     H14137   3.339   0.987   8.310  2.1023  1.8113 -1.2138
  105MOL0     H14138   3.279   1.108   8.418 -1.5396 -0.4542  0.6054
  105MOL0     H14139   2.817   1.338   8.230 -0.7874 -1.9389  1.6171
  105MOL0     H14140   2.606   1.383   8.334  0.0400 -0.7511  1.0763
  105MOL0     H14141   2.360   1.622   8.482 -1.4157 -1.2738  0.2406
  105MOL0     H14142   2.451   1.548   8.356 -1.5428 -0.7380  0.1772
  105MOL0     H14143   2.434   1.341   8.497 -0.8143 -0.6441  0.8330
  105MOL0     H14144   2.357   1.447   8.617 -0.4682 -3.7345  1.0476
  105MOL0     H14145   2.280   1.388   8.324  1.8267 -3.0893  0.4502
  105MOL0     H14146   2.168   1.473   8.427 -1.5255 -2.0957  0.6382
  105MOL0     H14147   2.248   1.181   8.435  0.2755 -0.3442  1.9543
  105MOL0     H14148   2.147   1.252   8.566  0.5892 -0.7676 -0.1879
  105MOL0     H14149   2.056   1.142   8.338  0.5970 -0.6679  0.7882
  105MOL0     H14150   2.067   1.306   8.282 -2.3049 -0.2889  0.3810
  105MOL0     H14151   1.930   1.238   8.549 -0.2532 -0.3696 -0.4819
  105MOL0     H14152   1.934   1.396   8.475 -1.1755 -0.2120  1.0556
  105MOL0     H14153   1.775   1.154   8.412  0.9870 -0.9755 -1.2850
  105MOL0     H14154   1.812   1.244   8.269 -2.3655 -0.3867 -0.1693
  105MOL0     H14155   1.656   1.348   8.509  2.9233  1.8387  0.7261
  105MOL0     H14156   1.601   1.327   8.344 -1.1757  0.8856  0.2472
  105MOL0     H14157   2.787   1.699   8.572 -0.7324 -2.0821  1.7950
  105MOL0     H14158   3.000   1.640   8.498  0.0224 -2.0811  2.8651
  105MOL0     H14159   3.238   1.518   8.146 -1.3009 -1.3303  0.5119
  105MOL0     H14160   3.407   1.476   7.987  1.2994 -3.0992 -2.0014
  105MOL0     H14161   4.899   1.040   8.994  0.8100 -2.1506 -0.2629
  105MOL0     H14162   5.133   1.115   8.991 -3.0321  2.5225  1.7560
  105MOL0     H14163   5.497   1.064   8.739 -1.6741  0.8882  0.3290
  105MOL0     H14164   5.733   1.030   8.787  2.5119  0.1685  1.6486
  105MOL0     H14165   6.060   1.086   8.906  1.8940  1.9590 -1.6090
  105MOL0     H14166   5.925   1.005   8.820  0.2666 -0.1015 -0.1528
  105MOL0     H14167   5.934   1.216   8.665  1.8573  2.1893 -1.8315
  105MOL0     H14168   6.013   1.057   8.640 -1.4724  0.4657 -0.0474
  105MOL0     H14169   6.217   1.168   8.761 -1.7674 -2.3594  0.8047
  105MOL0     H14170   6.114   1.317   8.749 -0.0994  0.9916 -0.2690
  105MOL0     H14171   6.125   1.332   8.529 -2.1518 -1.0703  0.0168
  105MOL0     H14172   6.179   1.161   8.504 -1.4281 -1.4212  1.6583
  105MOL0     H14173   6.559   1.311   8.535 -0.4499 -1.4523  0.1345
  105MOL0     H14174   5.741   1.429   8.969  2.0721  0.8166 -2.0262
  105MOL0     H14175   5.498   1.441   8.931  1.2225  2.0653 -2.0345
  106MOL0     O14176   3.306   8.045   0.203 -0.1556 -0.2163 -0.4320
  106MOL0     C14177   3.271   7.926   0.193 -0.9927 -0.4697  0.1192
  106MOL0     O14178   3.195   7.879   0.104 -0.1405 -0.2620  0.1779
  106MOL0     C14179   3.156   7.967   0.005 -0.4453  0.2008 -0.5563
  106MOL0     C14180   3.024   7.978  -0.028  0.5093 -0.3357  0.0715
  106MOL0     C14181   2.985   8.056  -0.142  0.2353  0.0710 -0.3408
  106MOL0     C14182   3.080   8.123  -0.218  0.1228 -0.0295 -1.0640
  106MOL0     O14183   3.069   8.206  -0.331 -0.0098 -0.1278 -0.7641
  106MOL0     C14184   2.929   8.238  -0.358 -0.1278 -0.4754 -0.6247
  106MOL0     C14185   2.925   8.366  -0.446 -0.3122  0.3324  0.3137
  106MOL0     C14186   2.790   8.384  -0.495 -0.5903  0.0337  0.2981
  106MOL0     C14187   2.771   8.525  -0.543 -0.0879 -0.5107 -0.3672
  106MOL0     C14188   2.631   8.539  -0.597  0.4235  0.4064 -0.4564
  106MOL0     C14189   2.611   8.687  -0.619  0.1207 -0.3981 -0.1761
  106MOL0     C14190   2.483   8.702  -0.704  0.0586  0.5572 -1.2679
  106MOL0     C14191   2.448   8.850  -0.703  0.5967 -0.8162 -0.6186
  106MOL0     N14192   2.324   8.895  -0.775 -0.5843  0.6419 -0.0311
  106MOL0     C14193   2.279   9.028  -0.799  0.7902 -0.2022  0.1202
  106MOL0     C14194   2.170   9.016  -0.876  0.0404 -0.7108  0.2790
  106MOL0     C14195   2.085   9.127  -0.948  0.0474  0.0506 -0.3225
  106MOL0     C14196   1.963   9.135  -0.861  1.4488 -0.6088 -0.2676
  106MOL0     C14197   1.896   9.276  -0.863  0.0367  0.6746 -0.5076
  106MOL0     C14198   1.760   9.284  -0.799 -0.0119  0.3188  0.0946
  106MOL0     O14199   1.664   9.237  -0.892  0.0617 -0.6794  0.0129
  106MOL0     C14200   1.531   9.254  -0.858 -0.6786  0.1250 -0.3402
  106MOL0     C14201   1.486   9.262  -0.727 -0.6377 -0.8001  0.2892
  106MOL0     C14202   1.347   9.258  -0.698 -0.1955 -0.2009 -0.6824
  106MOL0     C14203   1.299   9.264  -0.549  0.0647 -0.7376 -0.2086
  106MOL0     C14204   1.253   9.264  -0.806 -0.9693  0.0197 -0.0415
  106MOL0     C14205   1.106   9.278  -0.794 -0.7529  0.2663  0.2568
  106MOL0     O14206   1.032   9.172  -0.858  0.8459 -0.0989 -0.3015
  106MOL0     C14207   0.892   9.180  -0.864 -0.7832 -0.0698  0.4874
  106MOL0     C14208   0.809   9.160  -0.754 -0.5546  0.0312  0.5987
  106MOL0     C14209   0.670   9.153  -0.750  0.4145  0.5152  0.4221
  106MOL0     C14210   0.605   9.170  -0.878 -1.0873  0.0365 -0.1407
  106MOL0     O14211   0.472   9.160  -0.864  0.1320 -0.2696  0.2504
  106MOL0     C14212   0.400   9.193  -0.984  0.8310 -0.9155 -0.2475
  106MOL0     C14213   0.255   9.187  -0.947  0.1943  0.7388  1.3976
  106MOL0     C14214   0.180   9.045  -0.946 -0.1527 -0.5580  0.1232
  106MOL0     C14215   0.030   9.070  -0.958  1.4015  0.6729  0.1394
  106MOL0     C14216  -0.052   8.937  -0.966  0.5444  1.3591  0.0595
  106MOL0     C14217  -0.205   8.952  -0.982 -0.3915 -1.0379  0.4452
  106MOL0     C14218  -0.281   8.819  -1.000  0.5568 -0.0382  0.5388
  106MOL0     C14219  -0.428   8.838  -1.003  0.1443 -0.5995 -0.0053
  106MOL0    Cl14220  -0.504   8.675  -1.021  0.0236 -0.2098  0.0489
  106MOL0     C14221   0.685   9.192  -0.991 -0.4655  0.9358  0.1544
  106MOL0     C14222   0.825   9.200  -0.985  0.1087 -0.0515  0.7259
  106MOL0     O14223   1.058   9.376  -0.734  0.5506 -0.5503 -0.1679
  106MOL0     C14224   1.303   9.275  -0.940  0.9193  0.8436 -0.3362
  106MOL0     C14225   1.443   9.254  -0.964 -0.1857 -0.3468 -0.1802
  106MOL0     N14226   2.152   8.884  -0.901 -0.7234 -0.0490  0.4930
  106MOL0     N14227   2.231   8.812  -0.832 -0.1065 -0.2871  0.2845
  106MOL0     C14228   3.210   8.113  -0.182  0.3317 -0.2853  0.2994
  106MOL0     C14229   3.252   8.026  -0.077 -0.1895 -0.5564  0.0538
  106MOL0     C14230   3.330   7.841   0.286  0.7661  0.9539 -0.0600
  106MOL0     C14231   3.342   7.704   0.261 -0.6241  0.7563  0.0986
  106MOL0     C14232   3.397   7.619   0.358  0.4019  0.2800 -0.6279
  106MOL0     C14233   3.437   7.665   0.483 -0.4589  0.3499  0.3114
  106MOL0     O14234   3.492   7.581   0.573  0.1185  0.3603  0.1675
  106MOL0     C14235   3.577   7.645   0.676  0.4409 -0.1100 -0.4141
  106MOL0     C14236   3.689   7.546   0.717  0.9794 -0.6830 -0.5595
  106MOL0     C14237   3.796   7.535   0.609  0.1483  0.4012  0.1000
  106MOL0     C14238   3.893   7.415   0.632  0.9077 -0.2600 -0.0543
  106MOL0     C14239   3.985   7.442   0.745  0.8119  0.1884 -0.7541
  106MOL0     C14240   4.073   7.458   0.830 -0.8325  0.0228  0.0886
  106MOL0     C14241   3.414   7.804   0.511  0.6013  0.6913  0.0192
  106MOL0     C14242   3.370   7.890   0.413 -0.2586  0.1799  0.0639
  106MOL0     H14243   2.954   7.923   0.034  2.6630  0.5629  3.6617
  106MOL0     H14244   2.877   8.058  -0.147  0.0203  1.0020  2.9054
  106MOL0     H14245   2.888   8.158  -0.421 -3.5156  0.8498 -0.2560
  106MOL0     H14246   2.870   8.254  -0.268  0.1000  0.7753 -0.6723
  106MOL0     H14247   2.964   8.453  -0.392  2.2002 -1.1888  1.1070
  106MOL0     H14248   2.996   8.357  -0.528 -0.1494 -0.0150  0.4923
  106MOL0     H14249   2.780   8.312  -0.577 -1.6059  1.4881 -0.9015
  106MOL0     H14250   2.716   8.356  -0.419 -0.1083  0.3046  0.8816
  106MOL0     H14251   2.782   8.595  -0.460  0.9400 -0.3786 -0.5921
  106MOL0     H14252   2.843   8.544  -0.623  2.2362 -0.0693  1.7195
  106MOL0     H14253   2.620   8.476  -0.685 -0.3809  0.4742 -0.4124
  106MOL0     H14254   2.555   8.511  -0.523 -2.2217  3.0641 -1.9459
  106MOL0     H14255   2.612   8.741  -0.525  1.4559 -0.1905 -0.2930
  106MOL0     H14256   2.695   8.725  -0.678 -1.1434 -3.1552 -4.2082
  106MOL0     H14257   2.501   8.671  -0.808 -1.3098 -3.4899 -0.4476
  106MOL0     H14258   2.398   8.643  -0.669 -0.4082  1.0785 -1.4913
  106MOL0     H14259   2.536   8.899  -0.746 -1.7493  1.4903 -3.2921
  106MOL0     H14260   2.439   8.869  -0.596 -1.8279 -0.2195 -0.8752
  106MOL0     H14261   2.332   9.120  -0.775  2.4268 -0.8419 -0.9180
  106MOL0     H14262   2.142   9.220  -0.939  0.6633 -0.1885 -1.4416
  106MOL0     H14263   2.063   9.112  -1.054  0.0595  1.2850 -0.5215
  106MOL0     H14264   1.998   9.135  -0.758 -1.2092 -0.9633  0.7312
  106MOL0     H14265   1.887   9.057  -0.871 -0.2266  0.9016  0.0297
  106MOL0     H14266   1.888   9.310  -0.967 -1.4166  0.5703 -0.4422
  106MOL0     H14267   1.957   9.359  -0.824  1.2167  1.1875 -3.2457
  106MOL0     H14268   1.743   9.386  -0.764  0.7445 -0.2638  2.3148
  106MOL0     H14269   1.771   9.214  -0.717  1.1010 -0.7386 -0.9177
  106MOL0     H14270   1.558   9.257  -0.646  0.4684  1.6190 -0.4286
  106MOL0     H14271   1.252   9.361  -0.533  0.8235 -0.3714 -0.1594
  106MOL0     H14272   1.229   9.183  -0.528  1.0280 -0.6352  4.5956
  106MOL0     H14273   1.378   9.261  -0.474  0.7711  1.8141 -0.7333
  106MOL0     H14274   0.861   9.158  -0.659 -0.0641 -2.6013  0.3636
  106MOL0     H14275   0.610   9.138  -0.661 -4.3535  2.9096 -2.0300
  106MOL0     H14276   0.430   9.292  -1.020 -0.9252 -1.1062 -2.4506
  106MOL0     H14277   0.427   9.134  -1.072 -0.5893  0.7862 -1.9210
  106MOL0     H14278   0.237   9.217  -0.843 -4.9280 -0.1970  1.0303
  106MOL0     H14279   0.208   9.253  -1.020  1.5654 -1.0342 -1.2637
  106MOL0     H14280   0.209   8.988  -0.858 -0.0702 -0.4944  0.1379
  106MOL0     H14281   0.218   8.987  -1.030  1.1427 -0.5258  0.6652
  106MOL0     H14282  -0.003   9.100  -0.858  0.7310 -0.6234  0.3320
  106MOL0     H14283  -0.017   9.131  -1.036 -1.6326 -0.4601  0.9361
  106MOL0     H14284  -0.026   8.885  -0.872  3.3920  1.3770 -0.6345
  106MOL0     H14285  -0.016   8.868  -1.043  0.1527  1.4444 -0.2049
  106MOL0     H14286  -0.237   9.009  -0.895  1.2019  1.4326 -0.4697
  106MOL0     H14287  -0.207   9.003  -1.079  5.3733 -1.3972 -0.2139
  106MOL0     H14288  -0.249   8.758  -0.915  1.3012  0.5263  0.6715
  106MOL0     H14289  -0.257   8.766  -1.093  0.6315 -1.2494  1.2308
  106MOL0     H14290  -0.469   8.913  -1.073 -1.1685 -0.3768  0.9509
  106MOL0     H14291  -0.444   8.873  -0.900  0.4499 -0.3752 -0.0333
  106MOL0     H14292   0.638   9.196  -1.088 -1.1685 -0.0447  0.4416
  106MOL0     H14293   0.878   9.233  -1.074 -0.8878 -2.8387 -1.0388
  106MOL0     H14294   1.231   9.298  -1.017 -0.0568  1.6050  0.7620
  106MOL0     H14295   1.474   9.249  -1.068  0.0492 -1.4622 -0.0709
  106MOL0     H14296   3.293   8.156  -0.237 -1.0625 -0.3885 -2.0078
  106MOL0     H14297   3.359   8.018  -0.059 -0.3388  1.3965  2.2569
  106MOL0     H14298   3.320   7.664   0.162 -1.2999 -1.3841  1.0487
  106MOL0     H14299   3.416   7.513   0.345 -0.0609 -0.0668  1.1622
  106MOL0     H14300   3.626   7.734   0.636  2.3056 -0.2826  1.3014
  106MOL0     H14301   3.509   7.666   0.759 -0.1570  0.0728 -0.9467
  106MOL0     H14302   3.642   7.455   0.755 -0.8102  0.7527  0.8667
  106MOL0     H14303   3.733   7.577   0.812 -0.3718  1.2009 -0.4854
  106MOL0     H14304   3.853   7.627   0.604  0.6199  0.0885 -0.3062
  106MOL0     H14305   3.754   7.507   0.512  0.5109  0.3834 -0.0522
  106MOL0     H14306   3.941   7.396   0.536 -1.6678 -2.1117 -1.0851
  106MOL0     H14307   3.842   7.326   0.669  0.5484 -0.1541 -0.2905
  106MOL0     H14308   4.152   7.482   0.899  0.4489  0.0291 -1.3259
  106MOL0     H14309   3.410   7.840   0.614 -1.3294 -1.1745  0.6759
  106MOL0     H14310   3.364   7.993   0.448 -1.2988 -0.4769  1.9482
  107MOL0     O14311   2.950  10.032   6.781 -1.1755  0.0837  0.0095
  107MOL0     C14312   2.864  10.050   6.866  0.3148 -0.2368 -0.4102
  107MOL0     O14313   2.883  10.056   7.004  0.4733 -0.5976  0.2218
  107MOL0     C14314   3.001  10.057   7.067 -0.1973 -0.2359 -0.0270
  107MOL0     C14315   3.130  10.046   7.011  0.5425 -0.8003  0.1753
  107MOL0     C14316   3.249  10.025   7.087  0.0365 -0.0447 -0.1834
  107MOL0     C14317   3.246  10.034   7.235 -0.0470 -0.0466  0.8234
  107MOL0     O14318   3.364  10.039   7.315 -0.8659  0.1703 -0.7943
  107MOL0     C14319   3.489   9.992   7.255 -0.2016  0.0410 -0.6409
  107MOL0     C14320   3.606  10.014   7.349  0.2811 -0.0274 -0.7831
  107MOL0     C14321   3.591   9.943   7.485 -0.2228  0.3385  1.3063
  107MOL0     C14322   3.596   9.794   7.469  0.6659 -0.2889  0.6188
  107MOL0     C14323   3.616   9.722   7.598 -1.4113  0.6506 -0.1981
  107MOL0     C14324   3.661   9.570   7.589  0.5819  0.1336  0.3823
  107MOL0     C14325   3.670   9.509   7.731 -0.3358 -0.3922 -0.0944
  107MOL0     C14326   3.715   9.355   7.719  0.1023  0.2911  0.8841
  107MOL0     N14327   3.615   9.258   7.674  0.3937  0.2308  0.0692
  107MOL0     C14328   3.475   9.279   7.698  0.5262 -0.3775 -0.8457
  107MOL0     C14329   3.418   9.153   7.692 -0.4186  0.1363  0.3071
  107MOL0     C14330   3.279   9.109   7.718 -0.3381 -0.1578 -0.6723
  107MOL0     C14331   3.196   9.218   7.656  0.9159  0.4013  0.3858
  107MOL0     C14332   3.049   9.185   7.630  0.0221 -0.8506 -0.9595
  107MOL0     C14333   3.016   9.076   7.530  0.4056 -0.2449 -0.3400
  107MOL0     O14334   2.880   9.021   7.559 -0.1425 -0.3645  0.5528
  107MOL0     C14335   2.826   8.919   7.480  0.1682 -0.5044 -0.1898
  107MOL0     C14336   2.887   8.874   7.359  0.9644  0.0190 -0.0450
  107MOL0     C14337   2.831   8.769   7.280  0.8952 -0.7489  0.0222
  107MOL0     C14338   2.920   8.710   7.176 -0.0340  0.3443 -0.2988
  107MOL0     C14339   2.702   8.716   7.311  0.0991  0.6164  0.2293
  107MOL0     C14340   2.625   8.621   7.223  0.2389  0.2911  0.8267
  107MOL0     O14341   2.488   8.603   7.255 -0.6260  0.1810 -0.0529
  107MOL0     C14342   2.393   8.535   7.176  0.1519  0.2798  0.7123
  107MOL0     C14343   2.288   8.476   7.249  0.4563  0.7456  0.0051
  107MOL0     C14344   2.189   8.409   7.173 -0.0576  0.5246  0.1421
  107MOL0     C14345   2.193   8.400   7.032  0.0658 -0.3481  0.2590
  107MOL0     O14346   2.099   8.332   6.964  0.0192  0.6584  0.6458
  107MOL0     C14347   2.076   8.197   7.007 -0.3597  1.0556 -0.1629
  107MOL0     C14348   1.996   8.125   6.893 -0.1149 -0.8846 -0.1176
  107MOL0     C14349   1.940   7.993   6.941 -0.5638 -0.3994 -0.0080
  107MOL0     C14350   1.827   8.005   7.049  0.5770  0.1598 -0.3910
  107MOL0     C14351   1.777   7.867   7.093 -0.2446  0.1950  0.1214
  107MOL0     C14352   1.645   7.868   7.177 -0.3109 -0.6579  0.6530
  107MOL0     C14353   1.533   7.927   7.098 -0.1104 -0.7600  0.2238
  107MOL0     C14354   1.396   7.884   7.151 -1.7401  0.5364  0.3746
  107MOL0    Cl14355   1.275   7.940   7.035 -0.1335  0.0973  0.2492
  107MOL0     C14356   2.299   8.462   6.960 -0.1002 -0.2513  0.3978
  107MOL0     C14357   2.396   8.539   7.032  0.2595 -0.5404 -0.4013
  107MOL0     O14358   2.681   8.564   7.135  0.1914 -0.1707 -0.2066
  107MOL0     C14359   2.644   8.752   7.433 -0.5985 -0.1936  0.1780
  107MOL0     C14360   2.707   8.855   7.512  0.1110  1.1667 -0.3263
  107MOL0     N14361   3.518   9.058   7.664 -0.6344  0.6100 -0.2330
  107MOL0     N14362   3.632   9.123   7.647  0.3939  0.4830  0.0862
  107MOL0     C14363   3.118  10.053   7.286 -0.3575  0.1317 -0.7130
  107MOL0     C14364   3.001  10.069   7.209 -0.4121 -0.1494 -0.4564
  107MOL0     C14365   2.724  10.062   6.818  0.1303  0.3478  0.3006
  107MOL0     C14366   2.690  10.050   6.678 -0.2430 -0.1567 -0.1248
  107MOL0     C14367   2.545  10.056   6.640 -0.7380 -0.2212 -0.1113
  107MOL0     C14368   2.445  10.082   6.728 -0.4202  0.2627  0.6559
  107MOL0     O14369   2.321  10.090   6.662 -0.5956 -0.1209 -0.5108
  107MOL0     C14370   2.212  10.142   6.735  0.6384 -0.0238 -0.0562
  107MOL0     C14371   2.094  10.165   6.652  0.5483 -0.2326  0.3403
  107MOL0     C14372   1.999  10.281   6.700 -0.3709  0.8491  0.7421
  107MOL0     C14373   2.048  10.420   6.659 -0.2890  0.6280 -0.4363
  107MOL0     C14374   2.074  10.420   6.510 -0.2839  0.6426  0.2019
  107MOL0     C14375   2.098  10.440   6.391 -0.4128  1.0175 -0.0064
  107MOL0     C14376   2.483  10.114   6.858  0.0884  0.0928 -0.2631
  107MOL0     C14377   2.619  10.089   6.906  0.7618 -0.6032  0.1518
  107MOL0     H14378   3.151  10.034   6.905  0.7052 -0.6018  0.1844
  107MOL0     H14379   3.337  10.014   7.025  0.1087  0.3068 -0.1468
  107MOL0     H14380   3.472   9.885   7.238 -1.3090 -0.5173  3.0486
  107MOL0     H14381   3.512  10.038   7.159  1.9112 -0.9524 -0.6740
  107MOL0     H14382   3.703   9.999   7.301 -0.1706  1.1307 -2.1419
  107MOL0     H14383   3.601  10.121   7.372 -2.6493  0.0995 -1.5214
  107MOL0     H14384   3.665   9.978   7.558  0.5622  0.3128  0.5353
  107MOL0     H14385   3.499   9.972   7.538  0.2365  0.4779  2.0482
  107MOL0     H14386   3.508   9.748   7.422 -0.1569 -0.1182  1.9196
  107MOL0     H14387   3.682   9.773   7.405  0.5028  2.0753 -0.4486
  107MOL0     H14388   3.693   9.770   7.659 -0.8792 -1.1035  0.5931
  107MOL0     H14389   3.529   9.724   7.664  0.0715  0.1443  1.8859
  107MOL0     H14390   3.596   9.517   7.519 -1.0365  2.1590  0.2665
  107MOL0     H14391   3.758   9.561   7.540 -0.4555  1.9678 -2.1761
  107MOL0     H14392   3.753   9.551   7.788  0.1626 -1.8900  0.3096
  107MOL0     H14393   3.577   9.519   7.789 -0.5818 -0.5001 -0.4622
  107MOL0     H14394   3.754   9.316   7.814 -0.3530  0.7504  1.2683
  107MOL0     H14395   3.788   9.345   7.639 -0.4572  0.2473  0.3688
  107MOL0     H14396   3.429   9.375   7.717 -1.2376 -1.3989  0.4252
  107MOL0     H14397   3.244   9.011   7.683 -0.9708  0.9695 -3.4954
  107MOL0     H14398   3.274   9.119   7.827  1.1574 -0.7984 -0.5179
  107MOL0     H14399   3.232   9.240   7.555 -3.0781 -1.1416 -1.6017
  107MOL0     H14400   3.188   9.308   7.717  1.8756  0.7838 -0.0338
  107MOL0     H14401   2.999   9.278   7.601  2.3891  1.0165  0.6700
  107MOL0     H14402   3.016   9.151   7.729  0.2064 -0.9109 -0.9180
  107MOL0     H14403   3.101   9.008   7.523 -1.5081 -2.7181 -1.3751
  107MOL0     H14404   3.008   9.121   7.431  0.7867  0.9279  0.1425
  107MOL0     H14405   2.985   8.920   7.346  1.1929 -0.0353  1.3290
  107MOL0     H14406   3.025   8.739   7.173  1.1698 -3.4892 -0.8154
  107MOL0     H14407   2.930   8.602   7.192  1.1321  0.3688 -0.7554
  107MOL0     H14408   2.878   8.733   7.078  1.2568  1.5237 -0.6007
  107MOL0     H14409   2.276   8.478   7.357 -1.0874  0.8575 -0.1363
  107MOL0     H14410   2.104   8.364   7.223 -0.2004  1.4890  0.7921
  107MOL0     H14411   2.168   8.141   7.029 -2.8942 -2.9132  1.4075
  107MOL0     H14412   2.030   8.201   7.106  0.3685 -1.1626  0.3215
  107MOL0     H14413   1.923   8.200   6.863  0.6067  0.1411  0.6031
  107MOL0     H14414   2.062   8.100   6.810  0.8434 -1.2527  0.7303
  107MOL0     H14415   2.024   7.936   6.984  0.7867  0.5383 -1.3079
  107MOL0     H14416   1.905   7.936   6.855 -0.3035 -1.7149  0.7164
  107MOL0     H14417   1.870   8.051   7.139 -1.6031 -1.6130  1.7029
  107MOL0     H14418   1.746   8.065   7.006 -1.3533 -2.1027 -0.1198
  107MOL0     H14419   1.857   7.814   7.145 -0.9081 -1.8214 -0.8157
  107MOL0     H14420   1.760   7.813   6.999 -0.5844 -0.0242  0.3056
  107MOL0     H14421   1.629   7.765   7.212  0.5879 -0.6219  1.1834
  107MOL0     H14422   1.652   7.930   7.266  1.9123 -0.6626  0.5352
  107MOL0     H14423   1.534   7.890   6.995 -0.5800 -1.2995  0.4091
  107MOL0     H14424   1.541   8.036   7.087 -2.6720 -0.4644  0.7842
  107MOL0     H14425   1.382   7.918   7.255  2.6887  1.2056  0.9774
  107MOL0     H14426   1.387   7.775   7.158 -1.5333  0.3462 -1.8450
  107MOL0     H14427   2.295   8.458   6.852 -0.8536 -3.1536  0.4584
  107MOL0     H14428   2.461   8.597   6.967  0.2184  1.1073  0.9735
  107MOL0     H14429   2.553   8.704   7.467 -0.5235 -0.3337  0.1851
  107MOL0     H14430   2.656   8.874   7.606 -0.7880  0.8143 -0.7346
  107MOL0     H14431   3.112  10.066   7.394 -0.4123  3.5836 -1.0519
  107MOL0     H14432   2.911  10.090   7.267  1.0497  0.8833  1.5700
  107MOL0     H14433   2.767  10.032   6.605  0.9231 -0.3193  1.1072
  107MOL0     H14434   2.527  10.037   6.535  2.0933  0.4661 -0.8054
  107MOL0     H14435   2.191  10.072   6.817  1.8745 -1.9667 -1.3109
  107MOL0     H14436   2.241  10.240   6.774 -0.9307  0.0665  0.9803
  107MOL0     H14437   2.030  10.079   6.671 -4.2352  2.0409 -3.1055
  107MOL0     H14438   2.113  10.168   6.544 -1.0793 -2.4151 -0.0749
  107MOL0     H14439   1.988  10.272   6.808  0.0355 -1.3838  0.6371
  107MOL0     H14440   1.894  10.274   6.670  0.0743  0.2766 -0.7737
  107MOL0     H14441   2.139  10.438   6.718 -0.7841 -0.7288  0.8112
  107MOL0     H14442   1.971  10.493   6.686  0.9612  1.4564  1.1337
  107MOL0     H14443   2.121  10.459   6.288 -1.2186 -0.9425 -0.5970
  107MOL0     H14444   2.401  10.139   6.924 -0.4639 -0.4913 -0.7218
  107MOL0     H14445   2.639  10.099   7.012 -3.0996 -0.2664  0.9779
  108MOL0     O14446   2.376   7.244   8.295 -0.2571 -0.3075  0.1882
  108MOL0     C14447   2.429   7.173   8.379  0.0223  0.5692  0.1007
  108MOL0     O14448   2.356   7.099   8.477  0.3429 -0.1890 -0.4275
  108MOL0     C14449   2.225   7.087   8.449  0.1979  0.5977  0.0259
  108MOL0     C14450   2.188   7.001   8.344  0.4665  0.5485 -0.8468
  108MOL0     C14451   2.050   7.009   8.314 -0.2821  0.9963  0.1998
  108MOL0     C14452   1.956   7.077   8.402 -0.5510 -0.2992  0.4565
  108MOL0     O14453   1.821   7.083   8.369  0.1268  0.2673  0.3651
  108MOL0     C14454   1.757   7.202   8.418  0.2388 -0.8849  0.6159
  108MOL0     C14455   1.646   7.257   8.330  0.3755  0.4161  0.5149
  108MOL0     C14456   1.543   7.156   8.291 -0.1024 -0.1930  0.2078
  108MOL0     C14457   1.434   7.138   8.404  0.7524 -0.7792  0.5768
  108MOL0     C14458   1.302   7.075   8.357 -0.0513  0.6177 -0.7110
  108MOL0     C14459   1.227   7.027   8.482  0.0184 -0.4160  0.2835
  108MOL0     C14460   1.092   6.970   8.425 -0.1452  0.5686 -0.3407
  108MOL0     C14461   0.997   6.887   8.510  0.9636  0.2779 -0.5711
  108MOL0     N14462   0.863   6.852   8.459 -0.0649 -0.0634  0.3640
  108MOL0     C14463   0.856   6.788   8.337  0.2938  0.0623 -0.0036
  108MOL0     C14464   0.728   6.757   8.332  0.0056 -0.0428 -0.2530
  108MOL0     C14465   0.663   6.673   8.225  0.3468  0.0352 -0.5915
  108MOL0     C14466   0.535   6.618   8.276 -0.1493 -0.3474 -0.1248
  108MOL0     C14467   0.488   6.493   8.201  0.0572 -0.4426 -0.0915
  108MOL0     C14468   0.355   6.441   8.239  1.0713  0.0292 -1.0067
  108MOL0     O14469   0.300   6.363   8.130 -0.0642  0.1060 -0.9073
  108MOL0     C14470   0.191   6.291   8.152  0.3373  0.0281 -0.0729
  108MOL0     C14471   0.116   6.293   8.271 -1.3288  0.4705 -0.0141
  108MOL0     C14472  -0.008   6.229   8.287 -0.0650  0.3692 -0.3465
  108MOL0     C14473  -0.085   6.271   8.409  0.1884 -1.2658 -0.0266
  108MOL0     C14474  -0.056   6.147   8.184 -0.4278  0.2749  0.3617
  108MOL0     C14475  -0.174   6.057   8.189 -0.3979 -0.2866 -0.1851
  108MOL0     O14476  -0.205   5.983   8.081  0.2879 -0.7689 -0.4270
  108MOL0     C14477  -0.328   5.919   8.078  0.3448 -0.3565 -0.6786
  108MOL0     C14478  -0.453   5.967   8.129 -0.3576  0.1707 -0.4719
  108MOL0     C14479  -0.565   5.888   8.136  0.1243  0.0211 -0.4959
  108MOL0     C14480  -0.552   5.755   8.105  0.5428 -0.1155 -0.2856
  108MOL0     O14481  -0.676   5.689   8.125 -0.1027  0.0055  0.4927
  108MOL0     C14482  -0.679   5.545   8.111  1.1149 -0.5180 -0.4106
  108MOL0     C14483  -0.823   5.482   8.120 -0.4618 -0.0516  0.3415
  108MOL0     C14484  -0.885   5.513   8.253  0.2796 -0.2891  0.5109
  108MOL0     C14485  -1.032   5.480   8.243 -0.2882 -0.2125 -0.0255
  108MOL0     C14486  -1.110   5.523   8.364  0.8169  0.3879  0.3260
  108MOL0     C14487  -1.114   5.673   8.396  0.6904 -0.3058  0.0677
  108MOL0     C14488  -1.227   5.695   8.503  0.0393 -0.0215  1.1272
  108MOL0     C14489  -1.264   5.843   8.540  0.2015  0.3474 -0.0399
  108MOL0    Cl14490  -1.397   5.823   8.663 -0.2577  0.3267  0.0034
  108MOL0     C14491  -0.439   5.707   8.049 -0.5356 -0.6024  0.1024
  108MOL0     C14492  -0.326   5.786   8.029 -0.3649 -0.1031 -0.0945
  108MOL0     O14493  -0.233   6.054   8.298  0.0196 -0.2920 -0.7206
  108MOL0     C14494   0.025   6.136   8.067 -0.3477 -0.1077 -0.5358
  108MOL0     C14495   0.147   6.207   8.050  0.6862 -1.3771 -0.0493
  108MOL0     N14496   0.665   6.798   8.448 -0.1766  0.8124  0.5199
  108MOL0     N14497   0.746   6.857   8.527  0.2823 -0.1205 -0.1356
  108MOL0     C14498   2.006   7.142   8.519  0.1346  0.1090  0.1122
  108MOL0     C14499   2.140   7.137   8.543 -0.8553  0.4801 -0.8442
  108MOL0     C14500   2.573   7.184   8.395  0.4180 -0.7170  0.1696
  108MOL0     C14501   2.639   7.108   8.491 -1.6722  0.5945  0.6505
  108MOL0     C14502   2.763   7.153   8.547 -0.1512 -0.8680  0.2648
  108MOL0     C14503   2.828   7.262   8.482 -0.2925  0.6126 -0.3327
  108MOL0     O14504   2.940   7.322   8.533  0.0491  0.0251  0.4040
  108MOL0     C14505   3.025   7.262   8.632  0.4739 -0.4060  0.9699
  108MOL0     C14506   3.152   7.357   8.647  0.9448 -0.1082  0.4898
  108MOL0     C14507   3.242   7.347   8.524 -1.2204 -0.5139  0.5745
  108MOL0     C14508   3.354   7.456   8.527  0.2443 -0.0170 -0.1854
  108MOL0     C14509   3.447   7.444   8.644  0.5616 -0.4446  0.1190
  108MOL0     C14510   3.509   7.411   8.743 -0.4914  0.0515 -0.2447
  108MOL0     C14511   2.764   7.322   8.372  0.0236 -0.0974 -0.5425
  108MOL0     C14512   2.643   7.290   8.326  0.6099 -0.0782 -0.3324
  108MOL0     H14513   2.258   6.955   8.275 -1.0819 -1.7001 -1.0143
  108MOL0     H14514   2.008   6.944   8.238 -1.1976 -1.6703  2.8291
  108MOL0     H14515   1.712   7.182   8.516 -0.7362  0.2625  0.4303
  108MOL0     H14516   1.827   7.286   8.426 -0.9379  0.3765 -1.4309
  108MOL0     H14517   1.598   7.337   8.387 -1.9318 -1.4274  1.2952
  108MOL0     H14518   1.693   7.311   8.247  0.8122 -1.0801 -0.2412
  108MOL0     H14519   1.488   7.186   8.201  0.0360 -1.4356 -0.3117
  108MOL0     H14520   1.587   7.056   8.279  0.8313  0.3370 -1.0537
  108MOL0     H14521   1.483   7.085   8.486 -0.5175  0.1459  1.9785
  108MOL0     H14522   1.409   7.235   8.448 -0.9937 -0.6183 -0.6478
  108MOL0     H14523   1.251   7.159   8.308 -0.4526  1.8360  1.6656
  108MOL0     H14524   1.320   6.999   8.281  1.3501  0.6321 -0.4223
  108MOL0     H14525   1.285   6.950   8.533  2.0103  1.4659  0.9979
  108MOL0     H14526   1.210   7.113   8.546  0.1907  0.9096 -1.3878
  108MOL0     H14527   1.051   7.066   8.395 -0.3539  0.6971  0.3498
  108MOL0     H14528   1.120   6.907   8.339  0.0163 -0.4051  0.4034
  108MOL0     H14529   0.977   6.944   8.601 -0.0777  0.6128 -0.9989
  108MOL0     H14530   1.049   6.792   8.529 -1.0321 -1.0724 -1.5000
  108MOL0     H14531   0.940   6.776   8.269  0.9537  2.8617  0.1876
  108MOL0     H14532   0.640   6.731   8.135 -1.7643 -0.8539 -0.6916
  108MOL0     H14533   0.724   6.585   8.201  2.3033  1.3560 -0.7476
  108MOL0     H14534   0.455   6.691   8.266  0.7176  0.5723 -0.5508
  108MOL0     H14535   0.553   6.592   8.381  4.2998 -1.8355 -1.0085
  108MOL0     H14536   0.565   6.418   8.217  2.2670  1.3120 -1.6853
  108MOL0     H14537   0.485   6.523   8.095  0.9500  1.2904  0.3221
  108MOL0     H14538   0.277   6.514   8.264  0.0979 -1.3292  0.0375
  108MOL0     H14539   0.382   6.378   8.324 -0.4695  1.2032  0.4214
  108MOL0     H14540   0.149   6.346   8.359  0.5254 -0.8178  0.1237
  108MOL0     H14541  -0.185   6.310   8.387  0.7769 -0.5374 -1.5339
  108MOL0     H14542  -0.100   6.189   8.481 -0.1038 -1.1963 -0.0058
  108MOL0     H14543  -0.031   6.347   8.466  1.9368 -1.8447 -0.8395
  108MOL0     H14544  -0.447   6.064   8.177 -2.0980 -0.6557  1.6261
  108MOL0     H14545  -0.655   5.916   8.191  0.0465 -0.3114 -0.4538
  108MOL0     H14546  -0.639   5.535   8.010  2.1178  2.0964 -0.3505
  108MOL0     H14547  -0.620   5.500   8.192  0.3162 -2.0126 -0.6168
  108MOL0     H14548  -0.887   5.521   8.040 -1.7156  0.6725  1.6449
  108MOL0     H14549  -0.817   5.373   8.111  0.1275  0.1056 -1.6396
  108MOL0     H14550  -0.872   5.619   8.277 -1.1160 -0.1011  0.4610
  108MOL0     H14551  -0.834   5.453   8.330 -0.0060 -2.9248 -1.2384
  108MOL0     H14552  -1.081   5.524   8.155 -2.0098 -0.2953  0.8485
  108MOL0     H14553  -1.042   5.371   8.242  0.7112 -0.3580 -2.7675
  108MOL0     H14554  -1.073   5.473   8.454 -3.5845  1.3975  3.0041
  108MOL0     H14555  -1.210   5.481   8.349  1.9118 -1.7571 -1.5704
  108MOL0     H14556  -1.018   5.700   8.440 -0.1691  1.4565  0.9614
  108MOL0     H14557  -1.140   5.737   8.312 -2.0565 -0.0521  1.0073
  108MOL0     H14558  -1.198   5.655   8.600 -0.4259 -1.5696  0.6486
  108MOL0     H14559  -1.312   5.641   8.461  0.2439  1.3185 -1.2033
  108MOL0     H14560  -1.308   5.894   8.453 -0.6481 -1.7434 -0.9036
  108MOL0     H14561  -1.176   5.897   8.574  1.3105 -0.3080 -1.7334
  108MOL0     H14562  -0.429   5.600   8.029 -0.3626 -0.4704 -0.5532
  108MOL0     H14563  -0.240   5.749   7.974 -0.6611 -1.8991  0.5872
  108MOL0     H14564  -0.010   6.063   7.994 -1.6230 -1.3273  1.1956
  108MOL0     H14565   0.205   6.191   7.959  2.0080  0.7009  0.3660
  108MOL0     H14566   1.937   7.188   8.590 -0.1051  5.1426 -2.8659
  108MOL0     H14567   2.181   7.191   8.627 -2.8371  0.7915 -0.0145
  108MOL0     H14568   2.581   7.041   8.553 -2.9259  1.6684  0.6737
  108MOL0     H14569   2.809   7.104   8.632  1.6319  0.0555 -0.1145
  108MOL0     H14570   2.976   7.243   8.728 -1.6247 -0.2826 -0.0170
  108MOL0     H14571   3.063   7.166   8.594  1.9213  0.2856  0.5940
  108MOL0     H14572   3.213   7.313   8.727  0.9612  0.6345  0.8902
  108MOL0     H14573   3.120   7.459   8.669 -2.9684 -1.0947  0.2392
  108MOL0     H14574   3.175   7.354   8.438 -0.7416  0.1458  0.2437
  108MOL0     H14575   3.291   7.250   8.521 -0.1210  0.0378 -0.4135
  108MOL0     H14576   3.301   7.551   8.539  1.5514  0.3887  3.7272
  108MOL0     H14577   3.411   7.455   8.433  0.4118  1.2295 -0.1070
  108MOL0     H14578   3.568   7.391   8.830  1.5487  1.1711 -1.3009
  108MOL0     H14579   2.818   7.397   8.315 -1.8095  1.2960 -0.5385
  108MOL0     H14580   2.595   7.333   8.239  2.7382 -0.7329 -1.9383
  109MOL0     O14581   6.767   1.115   0.001  0.1070 -0.1655  0.5351
  109MOL0     C14582   6.726   1.213  -0.065 -0.7952 -0.7316 -0.2158
  109MOL0     O14583   6.801   1.320  -0.103 -0.0004  0.2025 -0.2729
  109MOL0     C14584   6.940   1.321  -0.082  0.5120  0.1155 -1.1851
  109MOL0     C14585   7.014   1.228  -0.151 -0.4520 -0.2541  0.4997
  109MOL0     C14586   7.153   1.214  -0.125  0.4045 -0.0663 -0.2531
  109MOL0     C14587   7.223   1.288  -0.040  0.6347 -0.0419 -0.3333
  109MOL0     O14588   7.358   1.277  -0.031 -0.0817  0.2928 -0.6479
  109MOL0     C14589   7.439   1.348  -0.127  0.1542  0.4051 -0.5903
  109MOL0     C14590   7.469   1.262  -0.248  0.3643  0.0879 -0.3960
  109MOL0     C14591   7.551   1.146  -0.204 -0.4545 -0.7411  0.4721
  109MOL0     C14592   7.582   1.057  -0.327 -0.1496  0.0193 -0.2304
  109MOL0     C14593   7.676   0.945  -0.288  0.6977  0.8346 -0.1711
  109MOL0     C14594   7.794   0.984  -0.208  0.7757  0.1742  0.3161
  109MOL0     C14595   7.910   0.880  -0.216 -0.2093  0.1933 -0.0072
  109MOL0     C14596   7.874   0.733  -0.198  0.3575 -0.6142  0.1187
  109MOL0     N14597   8.000   0.652  -0.220 -0.4925 -0.5126 -0.5182
  109MOL0     C14598   8.001   0.517  -0.189  0.0899 -0.7901  0.0643
  109MOL0     C14599   8.125   0.468  -0.227  0.5110 -0.5468  0.0765
  109MOL0     C14600   8.165   0.320  -0.202  0.3935  0.0592  1.1027
  109MOL0     C14601   8.067   0.213  -0.255  0.2896  0.8912  0.4431
  109MOL0     C14602   8.043   0.238  -0.405 -0.7867 -0.5021  0.4203
  109MOL0     C14603   7.972   0.112  -0.467  0.5333  0.1048 -0.0533
  109MOL0     O14604   7.871   0.049  -0.380  0.1132  0.1292  0.1455
  109MOL0     C14605   7.757   0.122  -0.351  0.4535  0.2070  0.0200
  109MOL0     C14606   7.723   0.248  -0.393 -0.5177  0.3717  0.2057
  109MOL0     C14607   7.611   0.321  -0.340  0.2631  0.1160 -0.1466
  109MOL0     C14608   7.603   0.466  -0.378  0.4425 -0.0053  0.2156
  109MOL0     C14609   7.535   0.271  -0.238  0.4828  0.1577 -0.4445
  109MOL0     C14610   7.408   0.328  -0.184 -0.4492 -0.3721 -1.2627
  109MOL0     O14611   7.352   0.265  -0.071  0.0796  0.5021  0.3626
  109MOL0     C14612   7.230   0.301  -0.014 -0.3933 -0.7986 -0.0237
  109MOL0     C14613   7.107   0.287  -0.079 -0.0409  0.0213  0.0472
  109MOL0     C14614   6.988   0.309  -0.008  0.2442  0.1062  0.0375
  109MOL0     C14615   6.984   0.335   0.128 -0.1439 -0.3277  0.0689
  109MOL0     O14616   6.860   0.361   0.184  0.3289 -0.5584  0.1036
  109MOL0     C14617   6.844   0.359   0.325  0.6400  0.6518 -0.8751
  109MOL0     C14618   6.689   0.380   0.354 -0.7142 -0.0164 -0.3709
  109MOL0     C14619   6.660   0.350   0.499  0.4278 -0.3090  0.5244
  109MOL0     C14620   6.700   0.467   0.593 -0.0352  0.0423  0.3264
  109MOL0     C14621   6.689   0.443   0.735  0.6235 -0.4319 -0.6147
  109MOL0     C14622   6.547   0.383   0.766  0.5264  0.0695  0.5880
  109MOL0     C14623   6.515   0.384   0.907  0.0673 -0.4117 -0.2525
  109MOL0     C14624   6.445   0.515   0.960 -0.5242 -0.4388 -0.5675
  109MOL0    Cl14625   6.400   0.483   1.125  0.2956  0.4454  0.2823
  109MOL0     C14626   7.111   0.354   0.188  0.3149 -0.1167  0.3747
  109MOL0     C14627   7.231   0.335   0.115  0.5798 -0.6121  1.4183
  109MOL0     O14628   7.357   0.422  -0.248  0.0489  0.2776  0.2233
  109MOL0     C14629   7.563   0.140  -0.192 -0.5898  0.2933 -0.1220
  109MOL0     C14630   7.678   0.068  -0.252  0.4012  0.5210 -0.5021
  109MOL0     N14631   8.195   0.579  -0.278 -0.3007  0.0688 -0.3390
  109MOL0     N14632   8.125   0.686  -0.257 -0.0843 -0.1922 -0.5155
  109MOL0     C14633   7.145   1.376   0.034  0.1941 -0.5941  0.4746
  109MOL0     C14634   7.007   1.396   0.015 -0.9434  0.1831  0.2946
  109MOL0     C14635   6.581   1.226  -0.087  0.4838 -0.1491  0.3690
  109MOL0     C14636   6.485   1.135  -0.040 -0.0635  0.1873  0.3871
  109MOL0     C14637   6.350   1.146  -0.072  0.1737 -0.1392 -1.1686
  109MOL0     C14638   6.303   1.253  -0.130 -0.0042 -1.4967 -0.0516
  109MOL0     O14639   6.178   1.272  -0.173  0.8019 -0.0046 -0.1828
  109MOL0     C14640   6.098   1.347  -0.091  0.1089 -0.7681 -0.7444
  109MOL0     C14641   6.066   1.270   0.038  0.8989 -0.1162 -0.3719
  109MOL0     C14642   5.984   1.151   0.010 -0.2642  0.9087  0.6744
  109MOL0     C14643   5.997   1.042   0.122  0.3433  0.0350 -0.1876
  109MOL0     C14644   6.061   0.918   0.068 -0.2297 -1.0979  0.4733
  109MOL0     C14645   6.101   0.819   0.012 -0.4834  0.0759 -0.6951
  109MOL0     C14646   6.399   1.347  -0.180  0.0964  0.4083  0.6417
  109MOL0     C14647   6.535   1.330  -0.167  0.1742  0.6697 -0.2101
  109MOL0     H14648   6.968   1.168  -0.229 -2.6457  2.1289 -0.1691
  109MOL0     H14649   7.201   1.137  -0.184 -2.1349 -4.2785  2.6490
  109MOL0     H14650   7.401   1.446  -0.157 -0.6741  0.3727  0.3284
  109MOL0     H14651   7.531   1.378  -0.076 -0.5125 -2.1692  2.4571
  109MOL0     H14652   7.369   1.227  -0.277  0.0505 -1.4463  2.2843
  109MOL0     H14653   7.519   1.314  -0.331  2.1529 -2.7022 -1.1783
  109MOL0     H14654   7.645   1.186  -0.166 -1.4142 -1.8862  4.4980
  109MOL0     H14655   7.499   1.086  -0.129 -1.7740 -2.5964 -1.7786
  109MOL0     H14656   7.490   1.022  -0.374 -0.0016  0.3766 -0.7993
  109MOL0     H14657   7.637   1.123  -0.395  1.4420  2.1712  2.8714
  109MOL0     H14658   7.621   0.872  -0.228  2.0745  0.3082  0.5130
  109MOL0     H14659   7.702   0.913  -0.389 -1.0435 -0.7386 -0.1684
  109MOL0     H14660   7.837   1.078  -0.244 -1.7123  1.2225 -0.0835
  109MOL0     H14661   7.772   0.994  -0.101  1.0885 -2.7079  0.7138
  109MOL0     H14662   7.951   0.905  -0.314  0.6094 -0.3559  0.1909
  109MOL0     H14663   7.983   0.909  -0.141 -1.0740 -1.5231  1.5717
  109MOL0     H14664   7.799   0.705  -0.273  0.2699 -0.7761  0.2653
  109MOL0     H14665   7.848   0.719  -0.093 -0.8325 -0.5480 -0.1596
  109MOL0     H14666   7.928   0.468  -0.126 -1.0162  1.9557  1.0707
  109MOL0     H14667   8.266   0.310  -0.244 -0.5187  1.9628 -1.8268
  109MOL0     H14668   8.160   0.312  -0.093 -0.3946 -0.2134  1.0476
  109MOL0     H14669   7.967   0.220  -0.210 -1.0084  2.8159 -2.3722
  109MOL0     H14670   8.114   0.118  -0.233  5.8667  2.9980 -0.7415
  109MOL0     H14671   8.136   0.233  -0.464 -1.6625  0.0269 -1.0393
  109MOL0     H14672   7.981   0.324  -0.429 -1.2876 -0.3328  2.1495
  109MOL0     H14673   8.053   0.041  -0.488 -0.5679 -1.0721 -0.4299
  109MOL0     H14674   7.919   0.149  -0.554  0.7994 -1.7608 -1.0571
  109MOL0     H14675   7.775   0.289  -0.479  2.9385 -1.0801  1.4213
  109MOL0     H14676   7.588   0.529  -0.290 -0.4196  1.4263 -0.8941
  109MOL0     H14677   7.690   0.495  -0.438 -0.6690 -0.0387 -1.4990
  109MOL0     H14678   7.521   0.486  -0.448 -0.0661  0.9504  1.0616
  109MOL0     H14679   7.102   0.258  -0.184  1.6207  3.5432 -1.1493
  109MOL0     H14680   6.893   0.281  -0.054  1.7135 -2.8482 -1.5164
  109MOL0     H14681   6.879   0.262   0.360  1.7762  0.2399 -2.9746
  109MOL0     H14682   6.909   0.436   0.368  1.6522 -0.7072  0.0886
  109MOL0     H14683   6.679   0.486   0.327  0.5786  0.0019 -0.8554
  109MOL0     H14684   6.624   0.316   0.293 -2.4500  0.5830  0.7728
  109MOL0     H14685   6.710   0.255   0.523  3.0900  1.5489  3.1342
  109MOL0     H14686   6.554   0.326   0.506  1.0289 -2.6188  4.8112
  109MOL0     H14687   6.803   0.499   0.576 -0.3719  1.7236  1.2308
  109MOL0     H14688   6.634   0.548   0.561 -2.1438 -1.4128  0.7656
  109MOL0     H14689   6.705   0.536   0.790  0.5516  0.6932 -2.4241
  109MOL0     H14690   6.776   0.386   0.770  0.3487  0.5602  1.8493
  109MOL0     H14691   6.475   0.451   0.720 -0.7993 -0.2977  2.0317
  109MOL0     H14692   6.530   0.285   0.719 -0.8532  1.2776 -1.5798
  109MOL0     H14693   6.607   0.364   0.963 -0.0914 -1.2686 -0.2830
  109MOL0     H14694   6.452   0.298   0.932  0.0260  0.2104  1.9885
  109MOL0     H14695   6.351   0.540   0.910 -1.9796 -2.7052  0.8319
  109MOL0     H14696   6.512   0.601   0.952  1.9080 -1.7628  2.9180
  109MOL0     H14697   7.104   0.391   0.290  0.4530  0.7141  0.0927
  109MOL0     H14698   7.328   0.347   0.161  0.6281  0.1280  1.1540
  109MOL0     H14699   7.506   0.099  -0.110 -0.6443 -1.1597 -0.8591
  109MOL0     H14700   7.705  -0.029  -0.210  0.5942  1.7397  2.4281
  109MOL0     H14701   7.207   1.431   0.103 -0.2017  2.0023 -1.1128
  109MOL0     H14702   6.945   1.460   0.077  1.1051  0.3816  2.2935
  109MOL0     H14703   6.516   1.044   0.009  1.5615 -0.2047 -1.2442
  109MOL0     H14704   6.291   1.057  -0.049  1.2348 -0.1030  2.1598
  109MOL0     H14705   6.144   1.443  -0.065  0.6821 -1.1740 -0.2389
  109MOL0     H14706   6.001   1.360  -0.140 -0.8425 -3.8112  0.1249
  109MOL0     H14707   6.019   1.336   0.112  2.3976  1.1143 -0.4652
  109MOL0     H14708   6.157   1.241   0.091 -0.6192 -3.0724  0.8338
  109MOL0     H14709   6.009   1.105  -0.086 -2.2220 -1.8831  1.3743
  109MOL0     H14710   5.877   1.164  -0.007  0.0644  1.8652 -0.8641
  109MOL0     H14711   5.895   1.016   0.153 -0.7351  0.8283 -2.7948
  109MOL0     H14712   6.040   1.066   0.219 -2.1064  2.3150  0.4536
  109MOL0     H14713   6.139   0.725  -0.024  0.5326 -0.6583  2.0147
  109MOL0     H14714   6.365   1.437  -0.231  1.5529  1.2540  1.0963
  109MOL0     H14715   6.601   1.405  -0.209 -1.4423  2.5792  0.4782
  110MOL0     O14716   6.212  10.924   8.645  0.9798 -0.8573 -0.2759
  110MOL0     C14717   6.244  10.907   8.534  0.1070  0.5714  0.4286
  110MOL0     O14718   6.163  10.851   8.437  0.0922 -0.0573 -0.5140
  110MOL0     C14719   6.030  10.841   8.458 -0.2707  0.3967 -0.1628
  110MOL0     C14720   5.941  10.945   8.494 -0.7084  0.2939 -0.0764
  110MOL0     C14721   5.799  10.920   8.510  0.0044 -0.1590  0.2427
  110MOL0     C14722   5.752  10.794   8.483  0.8834  0.2625  0.7165
  110MOL0     O14723   5.619  10.757   8.494 -0.0931 -0.3989  0.2550
  110MOL0     C14724   5.515  10.840   8.440  0.3837  0.2585 -0.0943
  110MOL0     C14725   5.439  10.729   8.367 -0.0136 -0.5896 -0.4336
  110MOL0     C14726   5.315  10.786   8.309  0.5674  0.4242 -0.4244
  110MOL0     C14727   5.238  10.682   8.224  0.0275  0.4851  0.7721
  110MOL0     C14728   5.123  10.744   8.147  0.8611 -0.2211 -0.1100
  110MOL0     C14729   5.014  10.815   8.240 -1.6047  0.2083 -0.2383
  110MOL0     C14730   4.925  10.723   8.315  0.9447  0.1042 -0.0458
  110MOL0     C14731   4.856  10.616   8.222  0.1629  0.3105  1.1448
  110MOL0     N14732   4.765  10.677   8.122  0.2927 -0.2483  0.2364
  110MOL0     C14733   4.811  10.712   7.997 -0.1914  0.1444 -0.4962
  110MOL0     C14734   4.720  10.807   7.951  0.1767  0.7408  0.1624
  110MOL0     C14735   4.723  10.877   7.818 -0.3290 -1.0249 -0.3790
  110MOL0     C14736   4.595  10.840   7.745  0.7205  1.0557  0.1981
  110MOL0     C14737   4.606  10.698   7.691  0.4670  0.7828  0.0251
  110MOL0     C14738   4.503  10.643   7.583 -0.5497  0.6861 -0.3258
  110MOL0     O14739   4.367  10.668   7.621 -0.6995  0.9983  0.3027
  110MOL0     C14740   4.265  10.617   7.542  0.3358 -0.5730 -0.2540
  110MOL0     C14741   4.249  10.479   7.531  0.0536 -0.1746 -0.2111
  110MOL0     C14742   4.134  10.420   7.476  0.2956 -0.4959  0.7813
  110MOL0     C14743   4.108  10.272   7.490  0.4380  0.8699  0.6741
  110MOL0     C14744   4.043  10.512   7.413  0.3190  0.4945 -0.1303
  110MOL0     C14745   3.926  10.476   7.340  0.1799  0.0418  0.1896
  110MOL0     O14746   3.820  10.560   7.330 -0.1711 -0.9026  0.1186
  110MOL0     C14747   3.709  10.514   7.263 -0.2709 -0.6095 -0.2741
  110MOL0     C14748   3.681  10.590   7.148 -0.6229  0.8922  0.1674
  110MOL0     C14749   3.564  10.563   7.075 -0.3252  0.5766 -0.3368
  110MOL0     C14750   3.476  10.464   7.125  0.0349  0.2678 -0.6068
  110MOL0     O14751   3.375  10.414   7.051 -0.4459 -0.7680 -0.0810
  110MOL0     C14752   3.286  10.500   6.974  0.5696  0.0103  0.2938
  110MOL0     C14753   3.156  10.420   6.952  0.1484  0.0532 -0.0887
  110MOL0     C14754   3.074  10.495   6.856 -0.2389 -0.0432  0.3343
  110MOL0     C14755   2.933  10.426   6.833 -0.0207  0.1004  0.1641
  110MOL0     C14756   2.829  10.477   6.928 -0.4012  0.5999  0.1779
  110MOL0     C14757   2.687  10.480   6.862  0.1332  1.0663  0.3383
  110MOL0     C14758   2.584  10.526   6.961 -0.5000 -0.0321 -0.0955
  110MOL0     C14759   2.442  10.492   6.915  0.3951 -0.2410 -0.2031
  110MOL0    Cl14760   2.316  10.553   7.034 -0.0346  0.3215 -0.0623
  110MOL0     C14761   3.500  10.393   7.243  0.5873 -0.7671 -0.5970
  110MOL0     C14762   3.622  10.422   7.315 -0.1165  0.1132  0.3285
  110MOL0     O14763   3.923  10.362   7.297  0.4402 -0.5507 -0.5537
  110MOL0     C14764   4.061  10.647   7.425  0.2418  0.1248  0.3841
  110MOL0     C14765   4.169  10.705   7.496  0.8790  0.0636  0.8438
  110MOL0     N14766   4.627  10.830   8.052  0.4025  0.0443 -0.2635
  110MOL0     N14767   4.652  10.750   8.150  0.2223  0.3705  0.4738
  110MOL0     C14768   5.838  10.682   8.462 -1.2321  0.3905 -0.6106
  110MOL0     C14769   5.973  10.714   8.442  0.6110  0.8334  0.8390
  110MOL0     C14770   6.380  10.937   8.485 -0.4296 -0.0939  0.6661
  110MOL0     C14771   6.478  11.014   8.561  0.3354 -0.2498  0.3072
  110MOL0     C14772   6.611  11.014   8.527 -0.1422  0.3396 -0.0012
  110MOL0     C14773   6.656  10.969   8.399 -0.2787 -0.9677 -0.1818
  110MOL0     O14774   6.785  10.980   8.354  0.4155 -0.2476  0.0010
  110MOL0     C14775   6.894  10.998   8.444 -1.6026 -1.0617  0.7183
  110MOL0     C14776   6.911  10.868   8.521  0.0902  0.5050  0.3188
  110MOL0     C14777   7.040  10.862   8.597  0.0339 -0.1482 -0.1716
  110MOL0     C14778   7.065  10.719   8.650 -0.3444 -0.0137  0.6008
  110MOL0     C14779   6.971  10.670   8.753  0.0989 -0.9537 -0.3857
  110MOL0     C14780   6.882  10.638   8.831 -0.2807  0.0684  0.1744
  110MOL0     C14781   6.555  10.922   8.306 -0.3201  0.3349 -0.2417
  110MOL0     C14782   6.422  10.896   8.352 -0.4837  0.7526 -0.6159
  110MOL0     H14783   5.972  11.046   8.521 -0.9115  0.2409  0.3676
  110MOL0     H14784   5.733  11.000   8.539  1.7858  3.1921 -3.8497
  110MOL0     H14785   5.461  10.886   8.524 -1.0194  0.2307 -0.9486
  110MOL0     H14786   5.541  10.923   8.373 -1.4907  0.9372 -0.0410
  110MOL0     H14787   5.506  10.701   8.286  1.2868 -0.9473  0.7249
  110MOL0     H14788   5.407  10.642   8.425 -1.0106 -0.9608 -1.4946
  110MOL0     H14789   5.243  10.815   8.387 -0.6805  2.1038 -2.0954
  110MOL0     H14790   5.353  10.865   8.243  3.4664 -2.0250 -1.8884
  110MOL0     H14791   5.311  10.640   8.154 -1.1512 -0.6806  0.2064
  110MOL0     H14792   5.191  10.591   8.263 -2.3898  1.1184 -0.4487
  110MOL0     H14793   5.166  10.819   8.080  0.3504  1.5294  1.4280
  110MOL0     H14794   5.072  10.665   8.091 -3.1249  1.3197  1.0102
  110MOL0     H14795   5.072  10.887   8.298  0.6686  0.1912 -2.3149
  110MOL0     H14796   4.947  10.862   8.166 -0.3573  0.9941 -0.9012
  110MOL0     H14797   4.976  10.662   8.390  0.6636 -2.0006 -1.4594
  110MOL0     H14798   4.837  10.771   8.360 -1.8322 -2.3948 -2.3635
  110MOL0     H14799   4.800  10.551   8.290  0.9204  0.4691  1.9506
  110MOL0     H14800   4.927  10.546   8.177  0.3495  1.4464 -0.4092
  110MOL0     H14801   4.900  10.670   7.951 -0.8968 -1.4073 -0.5141
  110MOL0     H14802   4.715  10.984   7.837  0.1520 -1.3860  2.3586
  110MOL0     H14803   4.808  10.848   7.756 -0.6368 -2.5956 -0.1216
  110MOL0     H14804   4.574  10.908   7.662  0.3172  0.5333 -0.1338
  110MOL0     H14805   4.507  10.841   7.810 -0.6121 -0.0171 -1.5250
  110MOL0     H14806   4.617  10.632   7.777  0.0291 -1.8858 -1.8227
  110MOL0     H14807   4.703  10.689   7.642  2.4202 -0.4428  3.8019
  110MOL0     H14808   4.533  10.538   7.583 -1.5821  0.3397 -2.7748
  110MOL0     H14809   4.523  10.690   7.486  2.8188  1.9434  0.8197
  110MOL0     H14810   4.317  10.408   7.577 -1.6359 -1.4772  0.3796
  110MOL0     H14811   4.013  10.237   7.530 -0.5811  2.5580 -0.2039
  110MOL0     H14812   4.125  10.234   7.389  3.4499  2.8443  0.3065
  110MOL0     H14813   4.184  10.236   7.561 -1.2600 -0.4702  1.9056
  110MOL0     H14814   3.754  10.661   7.111  1.7818 -0.2339  2.5004
  110MOL0     H14815   3.535  10.621   6.988 -2.4532  0.6526  0.3595
  110MOL0     H14816   3.265  10.588   7.037  0.8606 -0.2382  0.7435
  110MOL0     H14817   3.330  10.535   6.880 -2.7509  0.3556 -1.2733
  110MOL0     H14818   3.192  10.330   6.902 -0.2612  0.6105 -1.4131
  110MOL0     H14819   3.105  10.408   7.048  1.8842  1.1412  1.0179
  110MOL0     H14820   3.130  10.496   6.762 -0.0593 -0.3519  0.4332
  110MOL0     H14821   3.064  10.603   6.868 -0.8710 -0.0917  0.2636
  110MOL0     H14822   2.896  10.447   6.732 -2.5090  6.3291  1.9047
  110MOL0     H14823   2.940  10.319   6.851 -0.9635  0.2272  1.3608
  110MOL0     H14824   2.849  10.580   6.958 -0.8984  0.6721  0.2772
  110MOL0     H14825   2.825  10.411   7.015  1.9709  2.1466  1.5572
  110MOL0     H14826   2.676  10.529   6.765 -2.6460 -1.7283 -0.9619
  110MOL0     H14827   2.664  10.377   6.833 -1.0005  1.6330 -0.9082
  110MOL0     H14828   2.591  10.633   6.984 -0.9506 -0.1191  0.4859
  110MOL0     H14829   2.612  10.469   7.050  1.6807  0.7718 -0.2211
  110MOL0     H14830   2.436  10.383   6.909  2.6303 -0.4335  0.4601
  110MOL0     H14831   2.431  10.543   6.819  0.2012  0.0027 -0.0529
  110MOL0     H14832   3.444  10.315   7.292  0.9581  0.0348  1.1943
  110MOL0     H14833   3.651  10.372   7.406  3.1640  1.0081 -0.1042
  110MOL0     H14834   3.996  10.715   7.371  0.9284  1.4474  1.1958
  110MOL0     H14835   4.171  10.813   7.507  0.4408  0.0173  1.4166
  110MOL0     H14836   5.799  10.582   8.446 -4.2407  1.8180 -3.5440
  110MOL0     H14837   6.027  10.625   8.411 -2.5239 -0.1142 -2.5503
  110MOL0     H14838   6.454  11.051   8.661 -1.3545 -3.0873  1.0748
  110MOL0     H14839   6.681  11.061   8.595 -0.1637  0.8500 -0.3236
  110MOL0     H14840   6.983  11.020   8.385 -1.4068 -3.2651  0.0972
  110MOL0     H14841   6.877  11.078   8.517 -2.0777 -1.6341  1.2509
  110MOL0     H14842   6.909  10.789   8.445 -0.5524 -0.0315  0.8922
  110MOL0     H14843   6.830  10.858   8.593 -0.6994  0.5744 -0.5480
  110MOL0     H14844   7.040  10.932   8.681  1.1483 -0.6552  0.2670
  110MOL0     H14845   7.119  10.881   8.523 -1.4464 -0.3028 -1.8782
  110MOL0     H14846   7.166  10.705   8.690  0.6811  0.3965 -1.6525
  110MOL0     H14847   7.061  10.649   8.566 -0.6378 -0.6470  1.1413
  110MOL0     H14848   6.814  10.616   8.911 -1.0799  1.3797 -0.1077
  110MOL0     H14849   6.596  10.891   8.210  0.2094 -0.4183  0.2234
  110MOL0     H14850   6.358  10.849   8.278  0.2614 -1.2676 -0.0396
  111MOL0     O14851   6.823   2.670   0.282  0.3157 -0.0974  0.7742
  111MOL0     C14852   6.874   2.606   0.185  0.0594 -0.4673 -0.5606
  111MOL0     O14853   6.809   2.551   0.081  0.1634  0.2565  0.0078
  111MOL0     C14854   6.689   2.492   0.092 -0.4595 -0.2747  0.5637
  111MOL0     C14855   6.626   2.442   0.205  1.0316 -0.1333  0.3151
  111MOL0     C14856   6.505   2.363   0.203  0.7287  0.1769 -0.6836
  111MOL0     C14857   6.443   2.334   0.080  0.5535 -0.6265 -0.5015
  111MOL0     O14858   6.319   2.273   0.062  0.1941 -0.5988 -0.4079
  111MOL0     C14859   6.215   2.297   0.165  0.0481 -0.3578  0.2032
  111MOL0     C14860   6.091   2.228   0.117 -0.2992  0.1066  0.5083
  111MOL0     C14861   5.970   2.252   0.208 -0.0907  0.0354 -0.2453
  111MOL0     C14862   5.840   2.216   0.142  0.1203 -0.0316 -0.1020
  111MOL0     C14863   5.715   2.220   0.238 -0.0151  0.9556  0.0743
  111MOL0     C14864   5.582   2.205   0.164  0.9539  0.7705 -0.5408
  111MOL0     C14865   5.457   2.220   0.261 -0.4663  0.5158  0.1218
  111MOL0     C14866   5.328   2.225   0.180  0.1824 -0.0160  0.1180
  111MOL0     N14867   5.246   2.108   0.194 -0.2140  0.3280 -0.2534
  111MOL0     C14868   5.152   2.092   0.287 -0.7397 -0.0874  0.2097
  111MOL0     C14869   5.078   1.982   0.249  0.5124  0.1624  0.2502
  111MOL0     C14870   4.951   1.944   0.324  0.3440  0.1770  0.4628
  111MOL0     C14871   4.826   1.964   0.248  0.6231  0.1008 -0.3824
  111MOL0     C14872   4.801   1.903   0.111  0.3442 -0.4488 -0.1819
  111MOL0     C14873   4.784   1.754   0.099 -0.4822 -0.3616 -0.0948
  111MOL0     O14874   4.675   1.710   0.193 -1.4009  0.1564 -0.0428
  111MOL0     C14875   4.549   1.719   0.152 -0.1304  0.9750  0.0773
  111MOL0     C14876   4.451   1.667   0.246 -0.8000  0.1076  0.6517
  111MOL0     C14877   4.311   1.686   0.208  1.2299 -0.6979 -0.3795
  111MOL0     C14878   4.206   1.641   0.311  0.2011 -0.0133 -0.2219
  111MOL0     C14879   4.270   1.738   0.082  0.2261  0.2190 -0.2752
  111MOL0     C14880   4.133   1.739   0.033  0.2164  0.6770 -0.5015
  111MOL0     O14881   4.033   1.774   0.110  0.3076  0.5523 -0.0315
  111MOL0     C14882   3.910   1.802   0.056 -0.1634  0.3582  0.0269
  111MOL0     C14883   3.887   1.846  -0.075  0.2443  0.8100 -0.4618
  111MOL0     C14884   3.755   1.854  -0.128  0.2472 -0.6488 -0.1878
  111MOL0     C14885   3.647   1.794  -0.056 -0.5778  0.2247  0.1059
  111MOL0     O14886   3.519   1.789  -0.110  0.7188  0.9251  0.1546
  111MOL0     C14887   3.523   1.766  -0.251 -0.2854  0.7383 -1.2738
  111MOL0     C14888   3.399   1.680  -0.286 -0.4136 -1.0724 -0.5678
  111MOL0     C14889   3.391   1.650  -0.435 -0.7284 -0.7449  0.1332
  111MOL0     C14890   3.277   1.572  -0.487  0.5014 -0.2667 -0.0359
  111MOL0     C14891   3.274   1.574  -0.646 -0.3401  0.7384 -0.3184
  111MOL0     C14892   3.166   1.665  -0.716 -0.2956  0.1484 -0.0516
  111MOL0     C14893   3.020   1.620  -0.697  0.4126 -0.1054 -0.0565
  111MOL0     C14894   2.917   1.732  -0.756 -1.1731  0.4701 -0.6192
  111MOL0    Cl14895   2.932   1.890  -0.660  0.1640  0.0393 -0.1496
  111MOL0     C14896   3.671   1.749   0.072 -0.0298 -0.0661 -0.1559
  111MOL0     C14897   3.802   1.756   0.135 -0.1909  0.7172  0.5423
  111MOL0     O14898   4.124   1.709  -0.085 -0.1348 -0.3105  0.0188
  111MOL0     C14899   4.379   1.763  -0.006  0.1718 -0.7695 -0.5475
  111MOL0     C14900   4.507   1.764   0.030  0.0557 -0.2345  0.3222
  111MOL0     N14901   5.137   1.925   0.138  0.6139 -0.0771 -0.3768
  111MOL0     N14902   5.232   2.008   0.108 -0.1022  0.8172 -0.0575
  111MOL0     C14903   6.499   2.390  -0.031  0.5794 -0.5978 -0.0345
  111MOL0     C14904   6.617   2.467  -0.025 -0.0010  0.5092 -0.3976
  111MOL0     C14905   7.017   2.600   0.186 -0.0778 -0.4905 -0.3032
  111MOL0     C14906   7.091   2.542   0.075  0.5529 -0.4407  0.6393
  111MOL0     C14907   7.224   2.533   0.072 -0.8932 -0.6375 -0.5251
  111MOL0     C14908   7.299   2.602   0.170  0.1240 -0.4772  0.6701
  111MOL0     O14909   7.438   2.618   0.185 -0.5702 -0.0908 -0.1567
  111MOL0     C14910   7.512   2.599   0.064 -0.0424 -0.1332  0.1687
  111MOL0     C14911   7.553   2.456   0.047 -0.5906  0.2977  0.8658
  111MOL0     C14912   7.642   2.414   0.163  0.3611 -0.5454  0.1250
  111MOL0     C14913   7.768   2.494   0.188  0.3308 -0.0479  0.1315
  111MOL0     C14914   7.841   2.531   0.072 -0.2958 -0.2025 -0.7199
  111MOL0     C14915   7.924   2.564  -0.005  0.5191  0.3188 -0.6245
  111MOL0     C14916   7.232   2.674   0.276 -0.5669  0.2455  0.2262
  111MOL0     C14917   7.097   2.678   0.282 -0.2940  0.7817  0.9212
  111MOL0     H14918   6.665   2.454   0.306  2.5942 -0.0265 -0.2908
  111MOL0     H14919   6.472   2.339   0.304  2.4104 -0.7557 -0.3082
  111MOL0     H14920   6.246   2.261   0.263  1.1573  1.3612  0.5294
  111MOL0     H14921   6.193   2.403   0.180  1.9136 -0.1131  1.5769
  111MOL0     H14922   6.080   2.264   0.014  1.2640 -2.5186 -0.6728
  111MOL0     H14923   6.097   2.119   0.106  0.3165  0.1680  0.1544
  111MOL0     H14924   5.986   2.199   0.303 -1.9895  2.7075  1.7353
  111MOL0     H14925   5.971   2.356   0.240 -0.6363 -1.1600  4.5069
  111MOL0     H14926   5.817   2.259   0.044 -0.6219 -0.7399 -0.2476
  111MOL0     H14927   5.837   2.108   0.124 -2.1001 -0.2159  1.1281
  111MOL0     H14928   5.730   2.136   0.307 -0.7550  0.9794  0.2662
  111MOL0     H14929   5.716   2.314   0.294 -0.1565  0.7926  0.3528
  111MOL0     H14930   5.565   2.287   0.093 -0.6039 -0.5149 -1.7333
  111MOL0     H14931   5.582   2.109   0.111  3.1570 -0.1361  0.9914
  111MOL0     H14932   5.448   2.135   0.330 -1.1469  2.0260  1.9624
  111MOL0     H14933   5.473   2.317   0.308  0.6461  0.5678 -0.3368
  111MOL0     H14934   5.353   2.246   0.076 -0.4464  0.5335  0.0779
  111MOL0     H14935   5.276   2.315   0.212  1.0805  1.3471 -2.0591
  111MOL0     H14936   5.122   2.158   0.367  0.4161  0.6862  0.0265
  111MOL0     H14937   4.956   1.840   0.357 -1.7225 -0.0509  0.1838
  111MOL0     H14938   4.935   2.015   0.406 -1.3930  1.9675 -1.3263
  111MOL0     H14939   4.800   2.069   0.229 -0.6257 -0.5903 -2.9751
  111MOL0     H14940   4.747   1.920   0.310 -0.7087  1.0820 -1.3087
  111MOL0     H14941   4.873   1.946   0.040 -0.9822  0.3374 -1.0908
  111MOL0     H14942   4.710   1.949   0.070  0.6320  0.9646  0.6910
  111MOL0     H14943   4.881   1.712   0.129  0.4142  0.7643 -1.3335
  111MOL0     H14944   4.770   1.713  -0.001  0.5678 -0.5819 -0.1625
  111MOL0     H14945   4.467   1.624   0.345 -3.3375 -1.2230  0.5447
  111MOL0     H14946   4.151   1.733   0.331  0.8506  1.1661 -3.3118
  111MOL0     H14947   4.129   1.571   0.279  0.3220 -1.3743  2.1872
  111MOL0     H14948   4.248   1.600   0.403 -1.2008  0.8435  0.8319
  111MOL0     H14949   3.973   1.893  -0.119 -0.6049  2.8013 -0.0925
  111MOL0     H14950   3.749   1.894  -0.228 -5.1258  1.7444  0.6922
  111MOL0     H14951   3.533   1.858  -0.309  1.3159  0.5131 -1.3850
  111MOL0     H14952   3.602   1.697  -0.282 -0.9118 -0.3637 -0.5074
  111MOL0     H14953   3.409   1.592  -0.221 -0.0585  0.9080  2.2481
  111MOL0     H14954   3.306   1.729  -0.256 -2.4283 -4.6005 -0.4786
  111MOL0     H14955   3.479   1.598  -0.474 -1.4880 -0.5211 -1.9841
  111MOL0     H14956   3.394   1.742  -0.494  3.3170 -0.7346  0.0723
  111MOL0     H14957   3.282   1.473  -0.441  0.4294  0.5231  1.7196
  111MOL0     H14958   3.186   1.611  -0.442  1.1067  1.0913  0.0654
  111MOL0     H14959   3.268   1.469  -0.676  2.2835  0.1113  1.0833
  111MOL0     H14960   3.373   1.604  -0.680  0.0882  1.5311  1.5067
  111MOL0     H14961   3.184   1.768  -0.686  0.3994 -0.2803  1.0456
  111MOL0     H14962   3.189   1.675  -0.823 -2.9378 -0.3506 -0.7524
  111MOL0     H14963   2.987   1.613  -0.592  1.4150  0.8268  0.3370
  111MOL0     H14964   3.004   1.524  -0.747  0.9805  1.3155 -3.2202
  111MOL0     H14965   2.816   1.692  -0.755 -0.6401 -0.9561 -0.7331
  111MOL0     H14966   2.944   1.756  -0.860  1.5390  1.8414  0.3043
  111MOL0     H14967   3.598   1.704   0.139  0.1021  0.2735  0.2253
  111MOL0     H14968   3.824   1.703   0.226 -0.1019 -2.2756 -1.0924
  111MOL0     H14969   4.368   1.793  -0.110  2.5003  0.9930 -0.3838
  111MOL0     H14970   4.583   1.774  -0.047 -1.0506 -0.1785 -0.7964
  111MOL0     H14971   6.449   2.374  -0.126  0.1808  0.3910 -0.0061
  111MOL0     H14972   6.674   2.492  -0.114 -2.8784 -2.6964 -3.4479
  111MOL0     H14973   7.031   2.485   0.005 -0.0748 -1.1236  1.7001
  111MOL0     H14974   7.268   2.488  -0.016  0.9918  0.0292  0.0264
  111MOL0     H14975   7.457   2.635  -0.023  0.3058 -2.5921 -1.1682
  111MOL0     H14976   7.593   2.670   0.084  0.9675 -1.7858  2.5873
  111MOL0     H14977   7.600   2.447  -0.052 -1.5970  0.5242  0.3514
  111MOL0     H14978   7.459   2.401   0.043 -1.1895  1.2668  1.3093
  111MOL0     H14979   7.675   2.312   0.141 -1.2156 -1.3648  1.3306
  111MOL0     H14980   7.585   2.408   0.257  2.2802 -1.2114  1.3170
  111MOL0     H14981   7.830   2.453   0.268 -0.3743  2.6377  2.1830
  111MOL0     H14982   7.729   2.585   0.233  1.7479  0.4038  0.5189
  111MOL0     H14983   7.998   2.595  -0.076 -1.7154  0.1073 -3.2094
  111MOL0     H14984   7.285   2.731   0.351  0.9265  0.9659 -1.3258
  111MOL0     H14985   7.037   2.740   0.349 -0.0363  0.1507  1.7529
  112MOL0     O14986   5.817   2.431   4.060 -0.3457  0.2090 -0.0264
  112MOL0     C14987   5.848   2.555   4.063 -0.4764  0.1749  0.6034
  112MOL0     O14988   5.768   2.660   4.025  0.1467 -0.1689 -0.2251
  112MOL0     C14989   5.642   2.633   3.981  0.1576 -0.1571 -0.0424
  112MOL0     C14990   5.608   2.655   3.850  0.6848 -0.7735  0.3560
  112MOL0     C14991   5.477   2.642   3.806 -0.4207  0.1621  0.0059
  112MOL0     C14992   5.371   2.612   3.901 -1.2608  0.0782  0.1845
  112MOL0     O14993   5.247   2.592   3.848  0.0555 -0.6477  0.3045
  112MOL0     C14994   5.139   2.660   3.928 -0.1606 -0.1284  0.6491
  112MOL0     C14995   5.029   2.696   3.817 -0.2816  0.3964 -0.7684
  112MOL0     C14996   4.911   2.781   3.866 -0.4645 -0.6263  0.1150
  112MOL0     C14997   4.936   2.931   3.897 -0.0304  0.4626 -0.3064
  112MOL0     C14998   4.939   3.018   3.775  0.2515 -0.2454 -0.0148
  112MOL0     C14999   4.989   3.163   3.810 -0.4286  0.1813 -0.4154
  112MOL0     C15000   4.953   3.249   3.688  0.1808  0.3155  0.4041
  112MOL0     C15001   4.989   3.394   3.682 -0.1514 -0.4432  0.9486
  112MOL0     N15002   4.894   3.479   3.764 -0.6329 -0.2588  0.0984
  112MOL0     C15003   4.799   3.576   3.720 -0.0452  1.1780 -0.5259
  112MOL0     C15004   4.748   3.628   3.832 -0.2180 -0.0460  0.1622
  112MOL0     C15005   4.636   3.730   3.826  0.3563 -0.0478  0.0460
  112MOL0     C15006   4.501   3.658   3.821 -0.1628 -0.4096  0.3263
  112MOL0     C15007   4.482   3.563   3.702 -0.4768  0.0570  0.3841
  112MOL0     C15008   4.342   3.516   3.683  0.2111 -1.0171  1.1854
  112MOL0     O15009   4.246   3.620   3.672 -0.2055  0.1868  0.3171
  112MOL0     C15010   4.115   3.592   3.672 -0.0982  0.0861  0.7564
  112MOL0     C15011   4.069   3.462   3.667 -0.5453 -0.4339  0.5602
  112MOL0     C15012   3.926   3.444   3.664  0.3457 -0.0714 -0.7350
  112MOL0     C15013   3.882   3.296   3.670 -0.1198 -0.2861 -0.0638
  112MOL0     C15014   3.838   3.562   3.653  0.1273  0.1126  0.3816
  112MOL0     C15015   3.688   3.564   3.621 -0.3631  1.3557 -0.0747
  112MOL0     O15016   3.623   3.685   3.624  0.0483  0.5480 -0.3272
  112MOL0     C15017   3.489   3.685   3.598 -0.0761 -0.1667 -0.1393
  112MOL0     C15018   3.393   3.626   3.681 -0.7181 -0.2615  0.2191
  112MOL0     C15019   3.255   3.632   3.659 -0.3536 -0.4202  0.0514
  112MOL0     C15020   3.209   3.697   3.541  0.0037  0.8239 -0.0748
  112MOL0     O15021   3.076   3.710   3.507 -0.0017  0.0662  0.0118
  112MOL0     C15022   2.974   3.631   3.572 -0.1740  0.8953  0.4575
  112MOL0     C15023   2.824   3.666   3.544 -0.1802  0.9994 -0.1796
  112MOL0     C15024   2.780   3.808   3.586  0.5154 -0.8386  0.2019
  112MOL0     C15025   2.626   3.837   3.575 -0.4640  0.0828 -0.7212
  112MOL0     C15026   2.576   3.850   3.434  0.1960  0.1581  0.4367
  112MOL0     C15027   2.503   3.727   3.380  0.3698  1.1729 -0.2079
  112MOL0     C15028   2.449   3.762   3.239 -0.3280  1.0688 -0.5896
  112MOL0     C15029   2.348   3.676   3.172  1.0952  0.3376  0.6418
  112MOL0    Cl15030   2.421   3.523   3.096 -0.4558  0.0318  0.1350
  112MOL0     C15031   3.303   3.750   3.456 -0.0573  0.1914  0.2565
  112MOL0     C15032   3.441   3.747   3.478  0.7637 -0.6094  0.4885
  112MOL0     O15033   3.641   3.453   3.603 -0.2498 -0.4398 -0.6967
  112MOL0     C15034   3.900   3.681   3.645  0.8129 -0.6826 -0.4302
  112MOL0     C15035   4.033   3.703   3.657  0.7453  0.6254  0.8591
  112MOL0     N15036   4.807   3.575   3.942  0.4164 -0.4754  0.1656
  112MOL0     N15037   4.898   3.494   3.902 -0.0870  0.3932  0.4583
  112MOL0     C15038   5.406   2.579   4.031  0.4443  0.0981  0.5799
  112MOL0     C15039   5.542   2.591   4.066  0.3449 -0.2647 -0.6236
  112MOL0     C15040   5.985   2.591   4.081  1.4766  0.7707 -0.2629
  112MOL0     C15041   6.084   2.499   4.120 -0.0225 -0.0569  0.3563
  112MOL0     C15042   6.216   2.538   4.155  0.0812 -0.4746  0.4119
  112MOL0     C15043   6.252   2.668   4.140 -0.3705 -0.7279  0.1535
  112MOL0     O15044   6.379   2.716   4.174  0.5114 -0.2927  0.3562
  112MOL0     C15045   6.498   2.635   4.181  0.0574  0.2130 -0.3864
  112MOL0     C15046   6.605   2.707   4.089  0.7190  0.5073 -0.2947
  112MOL0     C15047   6.727   2.617   4.063  0.3351 -0.3313  0.0705
  112MOL0     C15048   6.858   2.686   4.028  0.0520 -0.3780  0.0107
  112MOL0     C15049   6.929   2.731   4.151  0.2255  0.0798  0.0460
  112MOL0     C15050   6.991   2.760   4.248 -0.3635 -0.0846  0.2279
  112MOL0     C15051   6.154   2.766   4.109 -1.1465 -0.3250 -0.3504
  112MOL0     C15052   6.023   2.725   4.079 -1.4951 -0.6669 -0.2701
  112MOL0     H15053   5.681   2.681   3.774  1.2624 -2.8024  0.1790
  112MOL0     H15054   5.455   2.644   3.699 -3.7209 -0.4274  0.5571
  112MOL0     H15055   5.101   2.598   4.010 -1.0954  0.4600  0.6714
  112MOL0     H15056   5.178   2.753   3.969 -1.8472  0.7028  0.4319
  112MOL0     H15057   5.084   2.752   3.741  1.7391  0.3419  0.5894
  112MOL0     H15058   4.991   2.604   3.770  0.8825 -0.8404  0.6401
  112MOL0     H15059   4.840   2.780   3.783 -1.0234  2.5805  0.4404
  112MOL0     H15060   4.858   2.730   3.947  1.5436  1.0275  2.6386
  112MOL0     H15061   4.855   2.964   3.962 -1.6506 -1.7948 -1.0626
  112MOL0     H15062   5.027   2.949   3.955 -1.3257  1.4390  1.5152
  112MOL0     H15063   5.008   2.982   3.698  0.0217  2.0813 -1.4003
  112MOL0     H15064   4.835   3.019   3.741  0.1436  1.3685  0.2901
  112MOL0     H15065   4.941   3.199   3.901 -0.7369 -3.3509  0.9958
  112MOL0     H15066   5.098   3.156   3.816 -0.5734 -1.2620  1.0589
  112MOL0     H15067   5.004   3.205   3.602 -1.0124 -0.8103  0.2318
  112MOL0     H15068   4.846   3.237   3.665  0.2832  0.2408 -0.0334
  112MOL0     H15069   4.984   3.429   3.578 -4.5592 -2.6218  0.1879
  112MOL0     H15070   5.094   3.403   3.714  0.5438 -0.5062 -1.1538
  112MOL0     H15071   4.779   3.614   3.620  1.4126  0.3115 -1.1819
  112MOL0     H15072   4.647   3.793   3.915  2.4277 -1.2724  0.7220
  112MOL0     H15073   4.654   3.798   3.742 -1.5420 -2.2988 -2.3287
  112MOL0     H15074   4.425   3.737   3.828  1.8640  1.6779  0.0228
  112MOL0     H15075   4.496   3.601   3.915 -1.8416  1.3268  1.3810
  112MOL0     H15076   4.548   3.477   3.720 -0.3285  0.3786  1.4544
  112MOL0     H15077   4.513   3.613   3.610  0.3848  1.4348  1.3830
  112MOL0     H15078   4.319   3.465   3.777  1.2738  0.4789  2.2937
  112MOL0     H15079   4.334   3.456   3.592  1.0036  1.0714 -0.3202
  112MOL0     H15080   4.134   3.376   3.659 -0.7441 -0.3940 -2.3159
  112MOL0     H15081   3.966   3.227   3.683 -2.0400 -2.5534  1.0083
  112MOL0     H15082   3.818   3.272   3.755  0.6436 -1.8126  0.1216
  112MOL0     H15083   3.833   3.271   3.576 -0.3655  0.7404 -0.2133
  112MOL0     H15084   3.421   3.588   3.779  0.5213  2.6068  1.1117
  112MOL0     H15085   3.186   3.591   3.731  1.6776 -2.6721  0.8442
  112MOL0     H15086   3.002   3.528   3.547  3.1876  1.8583 -0.1850
  112MOL0     H15087   2.990   3.652   3.678  1.5271 -0.8134  0.5779
  112MOL0     H15088   2.804   3.653   3.438  0.1425  3.6116 -0.6266
  112MOL0     H15089   2.764   3.598   3.606 -0.0219 -0.6622 -1.7526
  112MOL0     H15090   2.831   3.888   3.531 -1.0446  0.2903  0.3537
  112MOL0     H15091   2.814   3.820   3.690  0.8343  1.1864 -0.0935
  112MOL0     H15092   2.571   3.756   3.622  1.7193 -1.5129 -0.7767
  112MOL0     H15093   2.608   3.924   3.639  2.0898  0.5000 -0.4521
  112MOL0     H15094   2.652   3.884   3.364 -0.1608 -0.7734 -0.4353
  112MOL0     H15095   2.507   3.934   3.426  1.8626  1.6761  1.4421
  112MOL0     H15096   2.574   3.643   3.373 -3.4899 -2.6788  1.7968
  112MOL0     H15097   2.424   3.687   3.444 -0.2213  1.4531 -0.7504
  112MOL0     H15098   2.531   3.779   3.169 -1.4130  1.0843 -1.8872
  112MOL0     H15099   2.395   3.857   3.250  0.5549  1.4539  0.7487
  112MOL0     H15100   2.304   3.741   3.096  1.9219 -1.6408 -1.6399
  112MOL0     H15101   2.271   3.647   3.244  0.3161  0.2143 -0.2200
  112MOL0     H15102   3.269   3.804   3.369 -0.1326 -0.3533 -0.0593
  112MOL0     H15103   3.517   3.795   3.417  1.9533 -1.7486  1.0349
  112MOL0     H15104   3.837   3.770   3.643 -1.4469 -2.2022 -1.9492
  112MOL0     H15105   4.078   3.800   3.640 -0.1002  0.8201 -0.4118
  112MOL0     H15106   5.340   2.528   4.100  1.6856 -1.8147  0.4512
  112MOL0     H15107   5.562   2.559   4.168 -2.0342 -2.1354 -0.6535
  112MOL0     H15108   6.080   2.390   4.121  1.3336 -0.1252  0.3265
  112MOL0     H15109   6.286   2.457   4.172 -0.2458 -1.0303 -0.7878
  112MOL0     H15110   6.525   2.633   4.287 -2.5296  1.6918  0.4055
  112MOL0     H15111   6.483   2.533   4.145 -0.4294 -0.6892  2.1776
  112MOL0     H15112   6.649   2.787   4.149 -0.9326  1.7370 -0.6316
  112MOL0     H15113   6.552   2.738   3.998 -1.8835  0.4878  1.0937
  112MOL0     H15114   6.702   2.544   3.986  0.3440  0.6985 -0.9157
  112MOL0     H15115   6.755   2.552   4.147 -2.6641 -1.0579  0.6496
  112MOL0     H15116   6.840   2.773   3.963 -0.4621  2.9253  4.1256
  112MOL0     H15117   6.912   2.609   3.972  1.8182  0.4821  0.4651
  112MOL0     H15118   7.051   2.765   4.337 -0.3971  0.5678  0.2172
  112MOL0     H15119   6.187   2.867   4.130 -0.9263 -1.1291  4.3373
  112MOL0     H15120   5.957   2.808   4.057 -1.9395 -0.7489  0.7147
  113MOL0     O15121   7.200   0.294   4.475 -0.3457  0.3826  0.3166
  113MOL0     C15122   7.276   0.390   4.454  0.9592  0.0813 -0.1598
  113MOL0     O15123   7.251   0.513   4.394 -0.0103  0.1429 -0.0120
  113MOL0     C15124   7.116   0.528   4.370  0.5611  0.3261  0.4855
  113MOL0     C15125   7.055   0.474   4.248  0.1806  0.9649 -0.7039
  113MOL0     C15126   6.919   0.493   4.235  0.7823  0.3425  0.4658
  113MOL0     C15127   6.836   0.555   4.331 -0.1492  0.4152 -0.5635
  113MOL0     O15128   6.700   0.565   4.298  0.3516 -0.8254 -0.3273
  113MOL0     C15129   6.595   0.555   4.402  0.0941  0.9205 -0.6000
  113MOL0     C15130   6.534   0.699   4.403 -1.1155  0.3234  0.2286
  113MOL0     C15131   6.380   0.699   4.400 -0.9570 -0.3219 -0.0575
  113MOL0     C15132   6.328   0.834   4.386  0.1645 -0.5008  0.6684
  113MOL0     C15133   6.181   0.858   4.421  0.3660 -0.3988  0.6850
  113MOL0     C15134   6.088   0.783   4.317 -1.3163 -0.7475 -0.0955
  113MOL0     C15135   5.946   0.836   4.330 -0.0792  0.2801  0.0116
  113MOL0     C15136   5.844   0.778   4.236 -0.7026  0.4529 -0.1964
  113MOL0     N15137   5.713   0.827   4.266  0.3186 -0.3934  0.4454
  113MOL0     C15138   5.645   0.934   4.213 -0.2517 -0.3995 -0.0625
  113MOL0     C15139   5.521   0.934   4.269  0.1376 -0.7730  0.5793
  113MOL0     C15140   5.414   1.037   4.231 -0.0737 -0.9737  0.0752
  113MOL0     C15141   5.268   0.976   4.219 -0.3929  1.3470  0.3365
  113MOL0     C15142   5.169   1.071   4.150  0.0414 -0.0616  0.1370
  113MOL0     C15143   5.021   1.048   4.166 -0.0250  0.7102  0.8604
  113MOL0     O15144   4.970   0.920   4.146  0.4772 -0.0376  0.7815
  113MOL0     C15145   4.832   0.905   4.132 -0.0437  0.1270  0.6842
  113MOL0     C15146   4.782   0.772   4.106  0.0059 -0.3401 -0.9476
  113MOL0     C15147   4.643   0.753   4.098 -0.9030  0.7945  0.1948
  113MOL0     C15148   4.609   0.610   4.078  0.0447  1.0682  0.2423
  113MOL0     C15149   4.550   0.860   4.108 -0.5723  0.0198  0.2786
  113MOL0     C15150   4.406   0.834   4.083  0.4805  0.6286 -0.1889
  113MOL0     O15151   4.323   0.900   4.172 -0.5409 -0.5015 -0.6411
  113MOL0     C15152   4.188   0.904   4.150  0.5455 -0.4481  0.3616
  113MOL0     C15153   4.109   0.801   4.100  0.6229 -1.1299 -1.1896
  113MOL0     C15154   3.970   0.812   4.066 -0.5271  0.3613 -0.1274
  113MOL0     C15155   3.909   0.925   4.120 -0.5812  0.4795  0.5083
  113MOL0     O15156   3.778   0.952   4.115  0.1206  0.4387 -0.0285
  113MOL0     C15157   3.685   0.862   4.052 -0.1671 -0.3146 -0.1553
  113MOL0     C15158   3.543   0.930   4.048  0.0444  0.8493  0.3404
  113MOL0     C15159   3.473   0.902   4.188 -0.5318  0.4619 -1.3675
  113MOL0     C15160   3.342   0.983   4.198 -0.9866  0.4185  0.2203
  113MOL0     C15161   3.273   1.002   4.339 -0.4626 -0.6536  0.3301
  113MOL0     C15162   3.338   1.111   4.423  0.4109 -0.6339 -0.1539
  113MOL0     C15163   3.259   1.161   4.541 -1.0504  0.6864 -0.1533
  113MOL0     C15164   3.243   1.053   4.645 -0.4175  0.6768  0.0925
  113MOL0    Cl15165   3.388   1.002   4.728 -0.0509  0.0125  0.0531
  113MOL0     C15166   3.985   1.033   4.164  0.6283  0.1106 -0.0532
  113MOL0     C15167   4.121   1.026   4.172  0.4284  0.1410 -0.6119
  113MOL0     O15168   4.370   0.779   3.977 -0.3553 -0.5770 -0.7610
  113MOL0     C15169   4.605   0.986   4.126  0.4779 -0.4046 -0.6232
  113MOL0     C15170   4.739   1.012   4.140 -0.3533 -0.2449  0.3805
  113MOL0     N15171   5.517   0.832   4.364  0.1445 -1.1274  0.5693
  113MOL0     N15172   5.638   0.775   4.359  0.6185 -0.3443 -0.2717
  113MOL0     C15173   6.891   0.608   4.443 -0.1662 -1.0322  0.5029
  113MOL0     C15174   7.038   0.609   4.454  0.8445  0.7187  0.0804
  113MOL0     C15175   7.413   0.375   4.499  0.6229  0.5632 -0.2151
  113MOL0     C15176   7.511   0.468   4.485 -0.0357 -0.4480 -0.9239
  113MOL0     C15177   7.638   0.465   4.549  0.0106  0.0070 -0.9205
  113MOL0     C15178   7.658   0.362   4.643 -0.1556  0.1709  0.4950
  113MOL0     O15179   7.773   0.354   4.721 -0.2923 -0.1824 -0.4861
  113MOL0     C15180   7.868   0.467   4.735  0.0802  0.2889  0.5764
  113MOL0     C15181   7.963   0.431   4.849  0.7254 -0.4844  0.4129
  113MOL0     C15182   8.084   0.526   4.853 -0.7189 -0.3782  0.7659
  113MOL0     C15183   8.215   0.462   4.914 -0.2902 -0.1932 -0.3518
  113MOL0     C15184   8.322   0.558   4.896 -0.4972 -0.3764  0.3260
  113MOL0     C15185   8.417   0.629   4.866 -0.5863 -0.4390 -0.2154
  113MOL0     C15186   7.567   0.259   4.647 -0.3913 -0.3336 -0.2592
  113MOL0     C15187   7.438   0.268   4.593  0.5825  0.0025  0.0282
  113MOL0     H15188   7.112   0.421   4.172 -0.2611 -0.7584  0.1194
  113MOL0     H15189   6.893   0.465   4.133 -0.9263 -2.9349  1.6525
  113MOL0     H15190   6.528   0.477   4.367 -3.0410  2.9599  0.4516
  113MOL0     H15191   6.639   0.532   4.500  1.5649  2.6926 -0.7747
  113MOL0     H15192   6.575   0.751   4.490  1.1451 -0.9048 -0.0280
  113MOL0     H15193   6.583   0.752   4.321  2.0537 -0.3955  1.5156
  113MOL0     H15194   6.344   0.634   4.320 -2.7988 -0.7593  1.0692
  113MOL0     H15195   6.348   0.663   4.498  0.0617  1.1544  0.8680
  113MOL0     H15196   6.387   0.901   4.450 -1.1723  1.2629  0.1532
  113MOL0     H15197   6.341   0.874   4.285  0.8586 -1.0909  0.5135
  113MOL0     H15198   6.162   0.811   4.518 -3.5327 -0.4946  0.0423
  113MOL0     H15199   6.160   0.965   4.434 -0.5953 -0.3585 -1.0150
  113MOL0     H15200   6.120   0.787   4.212  1.3635 -0.1272  0.6813
  113MOL0     H15201   6.092   0.677   4.344 -1.3288 -0.3929  1.3359
  113MOL0     H15202   5.921   0.800   4.430  0.4576  1.4940  0.6059
  113MOL0     H15203   5.934   0.945   4.332 -0.7909  0.3379 -2.9173
  113MOL0     H15204   5.836   0.669   4.248  0.4433  0.0321 -2.5336
  113MOL0     H15205   5.882   0.806   4.137 -0.0556  0.4556  0.0437
  113MOL0     H15206   5.682   1.007   4.142  3.0708 -1.0494  0.8240
  113MOL0     H15207   5.404   1.115   4.307 -0.3913  0.2792 -1.2027
  113MOL0     H15208   5.441   1.075   4.132  0.1635 -1.9061 -0.2288
  113MOL0     H15209   5.226   0.956   4.318 -0.4326 -0.4122  0.0021
  113MOL0     H15210   5.277   0.879   4.169 -1.1350  1.3525  0.1772
  113MOL0     H15211   5.203   1.070   4.046 -1.3265  1.2268 -0.3653
  113MOL0     H15212   5.191   1.168   4.196 -0.0223 -0.3881  0.8715
  113MOL0     H15213   4.974   1.106   4.087  0.2775 -0.5435 -0.2800
  113MOL0     H15214   4.996   1.095   4.262  1.2525  1.8448  0.6758
  113MOL0     H15215   4.857   0.695   4.091  0.1590  0.1170 -2.7524
  113MOL0     H15216   4.685   0.541   4.116 -1.6838 -0.0321  1.9077
  113MOL0     H15217   4.527   0.580   4.145  0.4295  1.6531  1.0023
  113MOL0     H15218   4.572   0.581   3.980 -0.6679 -1.6906  1.2211
  113MOL0     H15219   4.156   0.704   4.095 -0.5532 -1.9761  2.1515
  113MOL0     H15220   3.907   0.729   4.034 -0.6238  0.7521 -0.9976
  113MOL0     H15221   3.718   0.847   3.949 -0.0974  3.0266 -0.7241
  113MOL0     H15222   3.676   0.766   4.104 -0.1557 -0.3889 -0.2918
  113MOL0     H15223   3.554   1.038   4.035  0.5527  0.8136  0.4714
  113MOL0     H15224   3.486   0.885   3.967 -0.3142  1.1907  0.3955
  113MOL0     H15225   3.542   0.929   4.268 -0.4235 -2.7269 -0.2372
  113MOL0     H15226   3.450   0.795   4.190  2.1082 -0.1987 -2.4706
  113MOL0     H15227   3.351   1.082   4.153  1.6981  0.3483  0.4371
  113MOL0     H15228   3.268   0.931   4.138 -0.1983  0.9013 -1.2069
  113MOL0     H15229   3.271   0.902   4.384 -1.3391 -3.1322 -4.5009
  113MOL0     H15230   3.168   1.030   4.326 -0.1560  1.5127  2.0722
  113MOL0     H15231   3.435   1.079   4.462 -0.1164 -2.2747 -0.0983
  113MOL0     H15232   3.359   1.194   4.355  2.2502 -1.9456 -1.2669
  113MOL0     H15233   3.160   1.197   4.509 -1.0066 -0.1204 -1.2418
  113MOL0     H15234   3.307   1.248   4.587 -1.4415 -0.2794  2.2433
  113MOL0     H15235   3.192   0.967   4.599  1.0022  0.7344 -1.7374
  113MOL0     H15236   3.175   1.098   4.718 -1.2165 -0.8968  0.3546
  113MOL0     H15237   3.937   1.127   4.191 -0.7003  0.4649 -3.2091
  113MOL0     H15238   4.178   1.114   4.200  0.7153 -0.0269 -0.6709
  113MOL0     H15239   4.531   1.058   4.157 -0.1662 -2.5159  3.5287
  113MOL0     H15240   4.759   1.115   4.167 -3.5978  0.3209  1.0577
  113MOL0     H15241   6.837   0.664   4.519  3.1089 -0.4701  2.5862
  113MOL0     H15242   7.092   0.663   4.531  2.6964 -2.5920  1.3451
  113MOL0     H15243   7.503   0.557   4.424  0.3967 -1.0970 -1.9572
  113MOL0     H15244   7.712   0.545   4.543  1.4994 -1.3078 -0.7571
  113MOL0     H15245   7.930   0.467   4.645  0.8053  0.0005  1.0592
  113MOL0     H15246   7.827   0.567   4.753  2.0647  0.9859  1.6805
  113MOL0     H15247   7.997   0.328   4.855  1.9074 -0.1522 -0.2809
  113MOL0     H15248   7.914   0.443   4.946 -0.2255  1.4525 -0.2577
  113MOL0     H15249   8.048   0.606   4.918 -0.4440  2.0086 -1.8572
  113MOL0     H15250   8.110   0.569   4.756 -1.7581  2.5865  1.7064
  113MOL0     H15251   8.240   0.365   4.871 -0.0017 -0.6892  0.8723
  113MOL0     H15252   8.200   0.453   5.022 -1.3378  1.4139 -0.3205
  113MOL0     H15253   8.510   0.679   4.846 -0.3124 -1.1677 -0.8450
  113MOL0     H15254   7.590   0.165   4.696  2.9101 -0.2487 -1.3453
  113MOL0     H15255   7.378   0.180   4.614 -0.8239  0.8258 -0.4227
  114MOL0     O15256   9.167   7.392   6.223 -0.6121 -0.5503 -0.5330
  114MOL0     C15257   9.197   7.448   6.116  0.6031  0.0153 -0.5538
  114MOL0     O15258   9.110   7.470   6.015 -0.2424  0.1704  0.4004
  114MOL0     C15259   8.983   7.416   6.008 -0.3413  0.6697  0.0278
  114MOL0     C15260   8.903   7.375   6.115  0.1617 -0.6002  0.1728
  114MOL0     C15261   8.782   7.310   6.096 -0.2961 -0.1981  0.1369
  114MOL0     C15262   8.740   7.274   5.971 -0.2172 -0.3946  0.8086
  114MOL0     O15263   8.615   7.225   5.953  0.4490 -0.3990 -0.1343
  114MOL0     C15264   8.514   7.328   5.942 -0.4674  0.4585  0.1653
  114MOL0     C15265   8.384   7.260   5.903  0.6339 -0.0954  0.0473
  114MOL0     C15266   8.367   7.219   5.759 -0.4685 -0.0429 -0.2049
  114MOL0     C15267   8.237   7.146   5.745 -0.1305 -0.0273 -0.2110
  114MOL0     C15268   8.192   7.167   5.598 -0.0537  0.4085  0.1906
  114MOL0     C15269   8.046   7.120   5.578 -0.0535 -0.5589  0.0397
  114MOL0     C15270   7.995   7.153   5.432 -0.4562  0.0579 -0.6459
  114MOL0     C15271   7.848   7.120   5.424  0.1377  0.5177  0.8082
  114MOL0     N15272   7.826   6.978   5.447 -0.4388  0.2283 -0.1347
  114MOL0     C15273   7.803   6.887   5.349  0.6078  0.1294  0.2224
  114MOL0     C15274   7.759   6.782   5.411  0.2376  0.2926 -0.0992
  114MOL0     C15275   7.726   6.658   5.327  0.2551  0.0991  0.0403
  114MOL0     C15276   7.591   6.650   5.265 -0.2359  0.7625  0.9583
  114MOL0     C15277   7.482   6.661   5.373  0.3398  0.2235  0.9747
  114MOL0     C15278   7.351   6.581   5.343 -0.5844 -0.1101  0.5416
  114MOL0     O15279   7.250   6.654   5.399  1.0094 -0.4715  0.8280
  114MOL0     C15280   7.120   6.600   5.400  0.3371  0.6319 -0.3408
  114MOL0     C15281   7.014   6.683   5.448 -0.4269 -0.3418  1.0033
  114MOL0     C15282   6.879   6.637   5.440  0.7687  0.2446 -0.4168
  114MOL0     C15283   6.793   6.747   5.505  0.3026  0.1068  1.0203
  114MOL0     C15284   6.847   6.512   5.394 -0.1235  0.2945  0.6664
  114MOL0     C15285   6.708   6.460   5.393  0.0942  0.2735  0.8014
  114MOL0     O15286   6.685   6.326   5.428  0.1263  0.2647 -0.2021
  114MOL0     C15287   6.558   6.280   5.455  0.6364 -0.3214  0.1676
  114MOL0     C15288   6.441   6.314   5.392 -0.3415  1.5396  0.5256
  114MOL0     C15289   6.317   6.269   5.430  0.1516 -0.1912 -0.2136
  114MOL0     C15290   6.313   6.179   5.537 -0.1364  0.1798  0.4054
  114MOL0     O15291   6.202   6.094   5.567  0.2883 -0.2657  0.9749
  114MOL0     C15292   6.097   6.148   5.647  0.6271 -0.0496  0.0489
  114MOL0     C15293   5.973   6.048   5.638  0.6590  0.0269  0.5874
  114MOL0     C15294   5.896   6.068   5.514  0.1496  0.5496  1.0519
  114MOL0     C15295   5.793   5.960   5.478  0.7269 -1.0354 -0.7522
  114MOL0     C15296   5.733   5.995   5.347  1.1309  1.1063 -0.1440
  114MOL0     C15297   5.636   5.879   5.300  0.2932 -0.3710 -0.8436
  114MOL0     C15298   5.570   5.918   5.176  0.2625 -0.0498  0.1857
  114MOL0     C15299   5.474   6.030   5.188  0.5155  0.3187  0.1822
  114MOL0    Cl15300   5.351   6.010   5.321  0.3765  0.7309 -0.1320
  114MOL0     C15301   6.432   6.146   5.604  0.1377  0.7690  0.0968
  114MOL0     C15302   6.557   6.196   5.567  0.1624 -0.4974  1.1581
  114MOL0     O15303   6.625   6.546   5.377  0.3036  0.4979 -0.4836
  114MOL0     C15304   6.954   6.421   5.353  0.0145  0.6317 -0.1213
  114MOL0     C15305   7.089   6.469   5.353 -0.5623  0.2119 -0.6635
  114MOL0     N15306   7.729   6.816   5.550  0.1436 -0.4160  0.4166
  114MOL0     N15307   7.775   6.933   5.567  0.6588 -0.7035 -0.0822
  114MOL0     C15308   8.826   7.303   5.858 -0.2073  0.0301  0.5446
  114MOL0     C15309   8.945   7.374   5.879 -0.5083 -0.2393 -0.6612
  114MOL0     C15310   9.329   7.518   6.108  0.4255 -0.4433 -0.4225
  114MOL0     C15311   9.358   7.613   6.010 -0.2295  0.5185 -0.3386
  114MOL0     C15312   9.487   7.669   6.004 -0.5119 -0.1300 -0.0192
  114MOL0     C15313   9.583   7.634   6.101 -0.2666 -0.7811  0.5908
  114MOL0     O15314   9.706   7.695   6.086  0.5267  0.2890 -0.3113
  114MOL0     C15315   9.817   7.649   6.167  0.3054  0.7348 -0.4768
  114MOL0     C15316   9.952   7.706   6.124  0.1832  0.3687 -0.3876
  114MOL0     C15317   9.953   7.844   6.181 -0.8042  0.5778 -0.7120
  114MOL0     C15318  10.072   7.918   6.146 -0.9915 -0.6520 -0.3223
  114MOL0     C15319  10.066   8.056   6.194  0.2380  0.6041  0.4090
  114MOL0     C15320  10.078   8.165   6.243 -0.1678 -0.4835  0.6121
  114MOL0     C15321   9.553   7.537   6.197 -0.1697 -0.6379  0.1267
  114MOL0     C15322   9.426   7.486   6.207 -0.0119 -1.0843 -0.5425
  114MOL0     H15323   8.923   7.384   6.222 -3.5764 -1.9232  1.1376
  114MOL0     H15324   8.714   7.283   6.175 -2.0299  2.3997 -0.3187
  114MOL0     H15325   8.514   7.383   6.036 -0.7992  2.6119 -1.0258
  114MOL0     H15326   8.530   7.405   5.866 -0.0265  1.7003  1.4722
  114MOL0     H15327   8.368   7.184   5.980 -0.2537  3.3389  3.5627
  114MOL0     H15328   8.305   7.333   5.923  0.3737 -1.1146  3.4431
  114MOL0     H15329   8.372   7.311   5.699 -0.1594  0.7391  0.9826
  114MOL0     H15330   8.454   7.156   5.736  1.8317  1.2149  4.0198
  114MOL0     H15331   8.262   7.043   5.772  2.3330  0.8637  1.2218
  114MOL0     H15332   8.170   7.196   5.817  0.0496 -0.7195  0.4474
  114MOL0     H15333   8.201   7.271   5.566  2.3926  1.2951  3.2070
  114MOL0     H15334   8.251   7.098   5.537  0.4828  0.6941  0.3868
  114MOL0     H15335   8.040   7.011   5.588 -3.5502 -0.6354 -1.4072
  114MOL0     H15336   7.984   7.168   5.653 -0.4222  1.5253 -1.5134
  114MOL0     H15337   8.007   7.260   5.412 -1.0077 -0.0384 -1.5023
  114MOL0     H15338   8.049   7.107   5.349 -1.1924  1.5606 -1.9915
  114MOL0     H15339   7.812   7.134   5.322  2.8719 -5.1280 -1.3733
  114MOL0     H15340   7.795   7.182   5.496 -0.3300 -1.7471  2.5593
  114MOL0     H15341   7.827   6.896   5.244  1.9880  0.3113  0.5404
  114MOL0     H15342   7.802   6.649   5.248  1.6972  0.6806  1.3192
  114MOL0     H15343   7.733   6.575   5.397 -1.0307 -0.1897 -0.1595
  114MOL0     H15344   7.572   6.559   5.206 -0.7571  2.7134 -2.0912
  114MOL0     H15345   7.576   6.739   5.203  0.7994  1.6189  1.8887
  114MOL0     H15346   7.459   6.768   5.380 -4.3076 -0.6098  1.1504
  114MOL0     H15347   7.521   6.625   5.469  0.4252 -4.1761 -0.5008
  114MOL0     H15348   7.356   6.478   5.378  1.7593 -0.4977 -0.6828
  114MOL0     H15349   7.336   6.566   5.235  0.6981 -2.6955  0.6261
  114MOL0     H15350   7.050   6.781   5.478 -0.3925  0.6055 -1.7971
  114MOL0     H15351   6.751   6.821   5.436  1.4425 -0.1719 -0.0022
  114MOL0     H15352   6.719   6.708   5.575 -0.5660  0.5565  0.3780
  114MOL0     H15353   6.856   6.805   5.573 -0.1604  2.9228 -0.7574
  114MOL0     H15354   6.446   6.376   5.303 -0.7028  0.4816 -0.2582
  114MOL0     H15355   6.226   6.286   5.374  1.0053 -1.9773 -2.2912
  114MOL0     H15356   6.128   6.140   5.751  2.2541 -0.0392 -0.4024
  114MOL0     H15357   6.081   6.254   5.627 -0.2899 -0.0154  0.9386
  114MOL0     H15358   6.009   5.947   5.658  1.1482  0.3281  1.2797
  114MOL0     H15359   5.906   6.077   5.720 -1.3508  0.8552 -1.2392
  114MOL0     H15360   5.963   6.058   5.428 -3.1249 -2.0237 -1.4823
  114MOL0     H15361   5.849   6.166   5.510  0.6932  0.7683 -1.2727
  114MOL0     H15362   5.852   5.868   5.463  3.0613  0.2568  0.0208
  114MOL0     H15363   5.721   5.944   5.558 -1.0442 -2.0345 -2.4557
  114MOL0     H15364   5.806   6.031   5.274  2.7736 -0.1427  0.8119
  114MOL0     H15365   5.675   6.081   5.380 -0.0764 -0.2600  1.4482
  114MOL0     H15366   5.690   5.784   5.294 -1.5407 -1.5931  0.6094
  114MOL0     H15367   5.567   5.872   5.385  1.8482 -4.5839  0.3535
  114MOL0     H15368   5.514   5.830   5.142 -3.1765  1.1461  2.2048
  114MOL0     H15369   5.654   5.951   5.115  1.2211 -0.5683  1.1767
  114MOL0     H15370   5.426   6.041   5.090 -0.4014  1.2244  0.7079
  114MOL0     H15371   5.536   6.119   5.203  0.7027  0.6276 -2.0465
  114MOL0     H15372   6.419   6.074   5.684 -0.5476  1.1979  0.3841
  114MOL0     H15373   6.650   6.175   5.618  0.8351  1.8832  1.0280
  114MOL0     H15374   6.946   6.318   5.320  2.5139  0.2491  0.2482
  114MOL0     H15375   7.159   6.396   5.311 -1.0090 -1.0272  0.6560
  114MOL0     H15376   8.784   7.290   5.759 -0.7653  1.3970  0.5668
  114MOL0     H15377   9.013   7.402   5.799  0.4660 -0.9214 -0.0992
  114MOL0     H15378   9.286   7.643   5.934  1.3916 -0.3678 -2.3291
  114MOL0     H15379   9.508   7.737   5.922  0.4313 -0.4446 -0.0584
  114MOL0     H15380   9.803   7.664   6.275  0.5500 -0.4606 -0.2627
  114MOL0     H15381   9.826   7.540   6.161 -3.3290  0.1006  1.9521
  114MOL0     H15382   9.964   7.710   6.016 -1.5715 -2.1317 -0.7853
  114MOL0     H15383  10.034   7.646   6.165 -2.7891 -2.2773  2.2669
  114MOL0     H15384   9.930   7.843   6.288 -0.7166  0.3279 -0.6945
  114MOL0     H15385   9.869   7.902   6.141  0.3581  2.6712 -0.2737
  114MOL0     H15386  10.101   7.924   6.040  0.9731  1.2799  0.2384
  114MOL0     H15387  10.159   7.885   6.203  0.8637  1.1413 -1.9376
  114MOL0     H15388  10.100   8.254   6.298  3.0078 -1.6266  1.3961
  114MOL0     H15389   9.627   7.508   6.271 -1.4623 -0.4626  1.5504
  114MOL0     H15390   9.401   7.408   6.278 -1.1193 -1.0856 -0.9044
  115MOL0     O15391  10.262   7.014   4.333  0.0600  0.3855 -0.1540
  115MOL0     C15392  10.272   7.130   4.291  0.2354 -0.1621  0.2187
  115MOL0     O15393  10.198   7.233   4.340 -0.0775 -0.0232  0.0651
  115MOL0     C15394  10.079   7.202   4.402  0.7273  0.2620  0.1976
  115MOL0     C15395  10.069   7.238   4.530  0.7572  0.5525  0.1756
  115MOL0     C15396   9.943   7.222   4.596 -0.5311 -0.7646 -0.1680
  115MOL0     C15397   9.833   7.167   4.525  0.3953 -0.2784 -0.5548
  115MOL0     O15398   9.702   7.168   4.570 -0.2477 -0.0280  0.5123
  115MOL0     C15399   9.681   7.114   4.698 -0.3196  0.3554 -1.0032
  115MOL0     C15400   9.534   7.085   4.723 -0.2701  0.5684 -0.2407
  115MOL0     C15401   9.479   6.985   4.636 -0.2545  0.7752 -0.2702
  115MOL0     C15402   9.327   6.959   4.666  0.2793 -0.5319  0.4875
  115MOL0     C15403   9.270   6.860   4.567  0.0233  0.3373 -0.4009
  115MOL0     C15404   9.118   6.874   4.572  0.0724  0.6246 -0.4925
  115MOL0     C15405   9.056   6.792   4.463 -0.9998 -0.7451  0.8460
  115MOL0     C15406   8.910   6.766   4.488  0.8412 -0.1330  0.2388
  115MOL0     N15407   8.837   6.688   4.390 -0.5885 -0.0073  0.2312
  115MOL0     C15408   8.865   6.551   4.375 -0.6994 -0.4667  0.0542
  115MOL0     C15409   8.774   6.508   4.280 -0.6718  0.0714  0.2262
  115MOL0     C15410   8.769   6.368   4.219 -0.4811 -0.4385  0.0820
  115MOL0     C15411   8.676   6.365   4.098  0.7295  0.6272 -0.1314
  115MOL0     C15412   8.625   6.224   4.087  0.0448 -0.0419 -0.6984
  115MOL0     C15413   8.511   6.225   3.986  0.1341 -0.1993 -0.2315
  115MOL0     O15414   8.453   6.096   4.001  0.0420 -0.2087  0.3180
  115MOL0     C15415   8.361   6.074   3.901 -0.3000 -0.0910 -0.4065
  115MOL0     C15416   8.226   6.076   3.929 -0.5170  0.0142 -0.3042
  115MOL0     C15417   8.134   6.036   3.828 -0.3095 -0.0715 -0.2175
  115MOL0     C15418   7.989   6.038   3.869 -0.2133 -0.1526  0.6194
  115MOL0     C15419   8.177   5.990   3.698 -0.4374  0.0127  0.1040
  115MOL0     C15420   8.085   5.958   3.586  0.0037  1.2901 -0.1386
  115MOL0     O15421   8.102   5.843   3.506  1.2131 -0.6000 -0.4871
  115MOL0     C15422   8.000   5.815   3.419  0.2502  0.6066  0.0465
  115MOL0     C15423   7.865   5.816   3.455  0.2194 -0.2320 -0.5617
  115MOL0     C15424   7.763   5.799   3.357  0.5069  0.3255 -0.2457
  115MOL0     C15425   7.798   5.757   3.228 -0.4939 -0.7032  0.1869
  115MOL0     O15426   7.694   5.716   3.145 -0.1839  0.5526 -0.0484
  115MOL0     C15427   7.739   5.678   3.009  0.3348 -0.5073  0.6842
  115MOL0     C15428   7.607   5.635   2.936  0.3473 -0.5514 -0.7065
  115MOL0     C15429   7.563   5.496   2.982 -0.3116 -0.0332  0.4044
  115MOL0     C15430   7.443   5.465   2.887 -0.0280  0.9689 -0.0086
  115MOL0     C15431   7.364   5.344   2.948  0.0868 -0.2077  0.1440
  115MOL0     C15432   7.241   5.292   2.868  0.5404  0.4039 -0.2150
  115MOL0     C15433   7.115   5.380   2.860 -0.6995  0.3737 -0.7852
  115MOL0     C15434   7.076   5.438   3.002 -0.7676 -0.0659  0.1779
  115MOL0    Cl15435   6.926   5.528   2.993 -0.0003  0.1120 -0.0879
  115MOL0     C15436   7.936   5.757   3.193  0.1065  0.7349 -0.6392
  115MOL0     C15437   8.034   5.781   3.288 -0.0540 -0.5785 -0.4355
  115MOL0     O15438   8.004   6.044   3.564 -0.0248 -0.1205 -0.0893
  115MOL0     C15439   8.319   5.989   3.679  0.7088 -0.5003 -0.7101
  115MOL0     C15440   8.405   6.023   3.777  0.3726 -0.6852  0.2804
  115MOL0     N15441   8.685   6.619   4.252 -0.1763 -0.0053  0.1183
  115MOL0     N15442   8.725   6.718   4.317 -0.9524  0.0680  0.5165
  115MOL0     C15443   9.848   7.147   4.388 -0.6807  0.6647 -0.6849
  115MOL0     C15444   9.972   7.174   4.323 -0.3607  0.1317 -0.0517
  115MOL0     C15445  10.385   7.167   4.196  0.4089  0.2218 -0.7632
  115MOL0     C15446  10.344   7.265   4.101 -1.1119  0.7867  0.2198
  115MOL0     C15447  10.442   7.297   3.998  0.3331  0.8125 -0.7110
  115MOL0     C15448  10.568   7.240   3.994 -0.0910  0.2256 -1.2472
  115MOL0     O15449  10.648   7.289   3.900 -0.2676 -0.1238 -0.0299
  115MOL0     C15450  10.780   7.248   3.865  0.3917 -0.4559 -0.4993
  115MOL0     C15451  10.795   7.247   3.714 -0.0523 -0.0209 -0.2264
  115MOL0     C15452  10.931   7.185   3.669 -0.2759 -0.3029 -0.7623
  115MOL0     C15453  11.050   7.267   3.726  0.5190 -0.5352 -0.0272
  115MOL0     C15454  11.179   7.225   3.662  0.8453 -0.7226 -0.9152
  115MOL0     C15455  11.293   7.190   3.642  0.3335  0.2302  0.1610
  115MOL0     C15456  10.603   7.161   4.096  0.1544  0.0357 -0.4233
  115MOL0     C15457  10.510   7.119   4.192 -0.1646 -1.1246  0.1458
  115MOL0     H15458  10.162   7.274   4.571  0.4272 -0.6100  2.0574
  115MOL0     H15459   9.936   7.253   4.700 -0.6295  1.8454 -0.8915
  115MOL0     H15460   9.741   7.023   4.711  1.6422  1.4499 -1.9848
  115MOL0     H15461   9.723   7.184   4.771  0.0962 -0.2294 -0.6714
  115MOL0     H15462   9.512   7.040   4.820 -0.6236  1.4581  0.0974
  115MOL0     H15463   9.474   7.176   4.716 -1.7950 -0.1426  2.4496
  115MOL0     H15464   9.496   7.022   4.534  0.7887  0.3387 -0.2701
  115MOL0     H15465   9.538   6.893   4.648  1.2103  1.7087 -0.0440
  115MOL0     H15466   9.308   6.941   4.772  1.1576  1.4461  1.0225
  115MOL0     H15467   9.272   7.052   4.650 -0.3347 -0.1812  3.9771
  115MOL0     H15468   9.307   6.885   4.468 -1.4951  2.2918 -0.5343
  115MOL0     H15469   9.302   6.758   4.591  0.2826  1.0073  2.5139
  115MOL0     H15470   9.092   6.847   4.675  0.9366 -0.3138 -0.5036
  115MOL0     H15471   9.084   6.976   4.551 -1.3906 -0.2734 -2.8413
  115MOL0     H15472   9.062   6.849   4.370  2.7018 -1.1732  0.6629
  115MOL0     H15473   9.109   6.697   4.448  0.3040  0.2907 -1.6045
  115MOL0     H15474   8.845   6.854   4.498 -0.1885 -0.6924 -1.2686
  115MOL0     H15475   8.910   6.711   4.583  2.0039  1.6853  1.3779
  115MOL0     H15476   8.946   6.493   4.418  0.0155 -2.1693 -3.1955
  115MOL0     H15477   8.868   6.347   4.178 -0.8357 -1.6589 -0.1842
  115MOL0     H15478   8.733   6.300   4.297  1.8025 -0.6904  0.9922
  115MOL0     H15479   8.722   6.399   4.004 -2.6085  1.1372 -1.7421
  115MOL0     H15480   8.591   6.431   4.115 -1.2555 -2.1537  1.4973
  115MOL0     H15481   8.573   6.205   4.182 -0.8944 -0.0067 -1.1918
  115MOL0     H15482   8.704   6.152   4.065 -0.2741 -0.4603 -0.4804
  115MOL0     H15483   8.552   6.243   3.887  1.7025  0.3960  0.4969
  115MOL0     H15484   8.445   6.309   4.009 -0.8553  0.1709 -3.8659
  115MOL0     H15485   8.195   6.114   4.026 -2.9491  0.2068 -1.0805
  115MOL0     H15486   7.938   5.964   3.807 -1.2758  1.3980 -0.4237
  115MOL0     H15487   7.968   6.022   3.975  0.4503 -0.8406  0.6591
  115MOL0     H15488   7.948   6.135   3.840  2.0155  0.6576 -0.0765
  115MOL0     H15489   7.850   5.835   3.561 -0.3035 -1.1015 -0.4705
  115MOL0     H15490   7.660   5.817   3.387  0.0400  3.5445 -3.1341
  115MOL0     H15491   7.790   5.760   2.958 -0.8542  0.9855  1.8215
  115MOL0     H15492   7.810   5.594   3.004  1.1393  0.1941 -0.0455
  115MOL0     H15493   7.525   5.703   2.959 -0.0801 -1.7107  1.4182
  115MOL0     H15494   7.633   5.632   2.830  1.8032 -1.3073 -0.3644
  115MOL0     H15495   7.531   5.495   3.087  0.6464 -5.5964  0.9405
  115MOL0     H15496   7.639   5.417   2.977 -0.7716 -0.5390  1.1436
  115MOL0     H15497   7.378   5.552   2.877 -0.1609  0.8172 -0.5185
  115MOL0     H15498   7.489   5.436   2.792 -2.1975 -0.2189 -0.7701
  115MOL0     H15499   7.338   5.378   3.049  0.3869  1.0803 -0.1990
  115MOL0     H15500   7.428   5.256   2.961 -1.3396 -1.5136 -1.2744
  115MOL0     H15501   7.275   5.262   2.768  0.6291 -1.6489  0.3685
  115MOL0     H15502   7.206   5.197   2.909  2.0532  0.4203  1.2191
  115MOL0     H15503   7.040   5.308   2.828 -0.6692 -0.6708  1.2878
  115MOL0     H15504   7.136   5.458   2.787 -2.1894  2.6972  1.1187
  115MOL0     H15505   7.154   5.500   3.048 -2.0304 -0.2555  2.7186
  115MOL0     H15506   7.055   5.359   3.074 -2.6219  0.6681  0.4886
  115MOL0     H15507   7.964   5.730   3.091 -0.0464 -2.2544  0.0275
  115MOL0     H15508   8.138   5.761   3.264 -0.2097  0.5171 -2.1905
  115MOL0     H15509   8.352   5.971   3.577 -2.7590 -2.6220 -1.6380
  115MOL0     H15510   8.510   6.016   3.750 -0.1934 -1.8325 -1.8032
  115MOL0     H15511   9.757   7.112   4.342 -1.2309  1.3136 -0.1188
  115MOL0     H15512   9.995   7.151   4.220  0.9266  1.4192 -0.0715
  115MOL0     H15513  10.242   7.301   4.091 -0.4956  2.3002 -0.9654
  115MOL0     H15514  10.415   7.366   3.919 -1.1664  0.5650 -0.4517
  115MOL0     H15515  10.857   7.309   3.913  2.1131  0.1082 -3.7100
  115MOL0     H15516  10.797   7.143   3.893 -0.0703 -1.1858 -2.7738
  115MOL0     H15517  10.797   7.347   3.671  2.9198 -0.8697 -2.3473
  115MOL0     H15518  10.706   7.194   3.677 -1.4863  0.5878  2.1031
  115MOL0     H15519  10.944   7.194   3.561 -2.9263  1.6756 -1.0068
  115MOL0     H15520  10.931   7.082   3.704  0.4878  1.1272  4.2822
  115MOL0     H15521  11.055   7.247   3.834  0.6897 -0.2296  0.0209
  115MOL0     H15522  11.042   7.374   3.707 -1.8373 -0.5346  0.5609
  115MOL0     H15523  11.398   7.172   3.635  0.3072 -0.6756  1.7867
  115MOL0     H15524  10.705   7.123   4.101 -0.5837 -1.9025  2.2899
  115MOL0     H15525  10.535   7.050   4.272 -0.5640 -0.3465  0.9539
  116MOL0     O15526   0.531  10.142   1.200 -0.0924  0.4245  0.0095
  116MOL0     C15527   0.610  10.159   1.292 -0.4320  0.2633  0.3987
  116MOL0     O15528   0.649  10.061   1.383  0.0440 -0.8424 -0.8863
  116MOL0     C15529   0.628   9.929   1.366 -0.3789  0.2210  0.5576
  116MOL0     C15530   0.721   9.835   1.424  0.6551  0.3822  0.2368
  116MOL0     C15531   0.698   9.698   1.402 -0.7549  0.0685  0.0444
  116MOL0     C15532   0.592   9.649   1.329  0.0518  0.3765  0.2132
  116MOL0     O15533   0.554   9.520   1.323  0.3041 -0.2315 -0.6006
  116MOL0     C15534   0.658   9.421   1.334 -0.0169 -0.2047  0.4961
  116MOL0     C15535   0.620   9.282   1.275  0.0321  0.2584 -0.5484
  116MOL0     C15536   0.492   9.215   1.327 -0.8318  0.3925 -0.3048
  116MOL0     C15537   0.361   9.279   1.289  0.1201 -0.1109 -0.4502
  116MOL0     C15538   0.241   9.191   1.288 -0.0286 -0.6119 -0.2147
  116MOL0     C15539   0.211   9.166   1.438 -0.2592  0.4601 -0.1746
  116MOL0     C15540   0.072   9.111   1.473  0.4005  0.4188  0.2007
  116MOL0     C15541   0.032   8.999   1.375  0.1994 -0.0105 -0.0116
  116MOL0     N15542  -0.081   8.913   1.416  0.1799  0.3161  0.1025
  116MOL0     C15543  -0.209   8.924   1.384 -0.0181  0.3192  0.0032
  116MOL0     C15544  -0.271   8.814   1.433 -0.0228 -1.1805  0.2397
  116MOL0     C15545  -0.407   8.761   1.399  0.1576  0.0147 -0.2611
  116MOL0     C15546  -0.502   8.747   1.519  0.3077  0.9639  0.0750
  116MOL0     C15547  -0.535   8.886   1.578 -0.0322 -0.1608  0.2423
  116MOL0     C15548  -0.602   8.861   1.714  0.0445 -0.8629  0.5059
  116MOL0     O15549  -0.726   8.801   1.678 -0.4618 -0.5070  0.5398
  116MOL0     C15550  -0.838   8.880   1.703 -0.4253 -0.0836 -0.8661
  116MOL0     C15551  -0.853   9.022   1.687 -0.7004 -0.1522 -0.3070
  116MOL0     C15552  -0.977   9.091   1.684 -0.0052  0.5018  0.2777
  116MOL0     C15553  -0.993   9.236   1.639 -0.5522  0.0305  0.9950
  116MOL0     C15554  -1.093   9.009   1.716 -0.1706  0.8349 -0.2933
  116MOL0     C15555  -1.226   9.064   1.733  0.2906  0.5917 -0.2774
  116MOL0     O15556  -1.318   8.976   1.711 -0.7966 -0.1887 -0.4482
  116MOL0     C15557  -1.453   8.996   1.718  0.0718  0.6561 -0.4369
  116MOL0     C15558  -1.534   9.108   1.708 -0.6793 -0.3802 -0.7686
  116MOL0     C15559  -1.672   9.100   1.724  0.9360  0.5734  0.1504
  116MOL0     C15560  -1.739   8.974   1.737  0.4655 -0.7017  0.8674
  116MOL0     O15561  -1.871   8.946   1.736  0.6714 -0.1791 -0.2448
  116MOL0     C15562  -1.966   9.053   1.745  0.1521  0.3462 -0.1797
  116MOL0     C15563  -2.111   8.994   1.742  0.2881  0.2117 -0.6255
  116MOL0     C15564  -2.219   9.103   1.728  0.6999 -0.5897 -0.0377
  116MOL0     C15565  -2.354   9.048   1.773 -0.3925  0.0024  0.5271
  116MOL0     C15566  -2.447   9.164   1.778  0.5256  0.1697  0.2827
  116MOL0     C15567  -2.584   9.130   1.836  0.2429 -0.1546  0.4129
  116MOL0     C15568  -2.684   9.249   1.835 -0.2330  0.0183 -0.5634
  116MOL0     C15569  -2.826   9.212   1.865  0.2090 -0.3154  0.5919
  116MOL0    Cl15570  -2.900   9.129   1.729 -0.4103 -0.0498 -0.4910
  116MOL0     C15571  -1.658   8.862   1.747  0.0330 -0.4021  0.9048
  116MOL0     C15572  -1.517   8.875   1.746  0.0141  0.2131 -0.1410
  116MOL0     O15573  -1.246   9.165   1.802 -0.6956  0.2712 -0.2631
  116MOL0     C15574  -1.078   8.863   1.740  0.1769  0.7047  0.5193
  116MOL0     C15575  -0.950   8.802   1.724 -0.0617  0.3984  0.6965
  116MOL0     N15576  -0.182   8.747   1.508  0.1865 -0.6241  0.3139
  116MOL0     N15577  -0.065   8.809   1.499 -0.3875 -0.0787 -0.1584
  116MOL0     C15578   0.496   9.739   1.287  0.1959 -0.4721  0.3847
  116MOL0     C15579   0.515   9.871   1.310  0.0333  0.4157  0.1195
  116MOL0     C15580   0.674  10.289   1.311 -0.3189  0.5189  0.3778
  116MOL0     C15581   0.781  10.295   1.406 -0.7168  0.4023 -1.1329
  116MOL0     C15582   0.836  10.420   1.437  0.0012 -0.3754  0.8273
  116MOL0     C15583   0.801  10.534   1.360  0.4491  0.6092  0.0638
  116MOL0     O15584   0.863  10.656   1.384 -0.8452  0.7741 -0.7455
  116MOL0     C15585   1.005  10.651   1.392 -0.0342  1.0456  0.3222
  116MOL0     C15586   1.049  10.784   1.349  0.6001 -0.9120 -0.5126
  116MOL0     C15587   1.205  10.794   1.380  0.3931 -0.5203 -0.0091
  116MOL0     C15588   1.261  10.937   1.374  0.3009 -0.3735 -0.4060
  116MOL0     C15589   1.254  10.984   1.232  0.4690 -0.8760 -0.1780
  116MOL0     C15590   1.220  11.029   1.127  0.3569  0.0096 -0.1383
  116MOL0     C15591   0.688  10.517   1.268  0.2163 -0.0341  0.2234
  116MOL0     C15592   0.619  10.398   1.255  0.4268 -0.2710  0.5186
  116MOL0     H15593   0.809   9.856   1.485  0.8504 -0.3369  0.2110
  116MOL0     H15594   0.770   9.631   1.449  1.4033  2.6951  0.6977
  116MOL0     H15595   0.744   9.463   1.281 -1.0812  1.0889 -0.2760
  116MOL0     H15596   0.694   9.395   1.434 -1.4038 -2.4597  0.4775
  116MOL0     H15597   0.618   9.298   1.167  0.4356 -0.2939 -0.6431
  116MOL0     H15598   0.700   9.210   1.294 -1.8392 -1.7056  0.3079
  116MOL0     H15599   0.487   9.118   1.278 -1.4816 -0.2013  0.8898
  116MOL0     H15600   0.516   9.197   1.433  1.1295 -0.9189 -0.9035
  116MOL0     H15601   0.347   9.368   1.350  0.2527 -2.3136  3.1277
  116MOL0     H15602   0.386   9.306   1.186  1.4170  1.3569  0.1963
  116MOL0     H15603   0.152   9.239   1.246 -0.7307  0.2898  2.1512
  116MOL0     H15604   0.255   9.096   1.236  1.3028 -1.2050  1.1351
  116MOL0     H15605   0.289   9.094   1.464  0.0728  1.1282  0.6977
  116MOL0     H15606   0.215   9.269   1.473 -0.6804  0.1707  0.7550
  116MOL0     H15607   0.086   9.077   1.576  1.4904 -0.4281 -0.2000
  116MOL0     H15608  -0.002   9.190   1.466 -1.4176 -1.2071  0.2254
  116MOL0     H15609   0.118   8.933   1.358  1.5464  1.7080 -0.1086
  116MOL0     H15610   0.011   9.043   1.277 -0.8487 -1.2736 -0.3932
  116MOL0     H15611  -0.262   8.997   1.323 -0.4942 -1.0652 -1.3013
  116MOL0     H15612  -0.453   8.830   1.327 -0.0435  1.9044  1.5910
  116MOL0     H15613  -0.397   8.665   1.347  2.6265  2.1170 -4.1980
  116MOL0     H15614  -0.453   8.683   1.593  2.5401  1.5362 -0.8217
  116MOL0     H15615  -0.589   8.691   1.485  0.3643  1.6710 -1.3139
  116MOL0     H15616  -0.604   8.937   1.510 -1.1556 -0.1638  1.3326
  116MOL0     H15617  -0.449   8.949   1.603  1.2402 -1.2523 -1.2489
  116MOL0     H15618  -0.610   8.954   1.771 -2.4664  0.3163 -1.5477
  116MOL0     H15619  -0.548   8.789   1.776  1.7773 -0.4998 -0.5364
  116MOL0     H15620  -0.765   9.079   1.662 -0.7829 -0.3985 -1.1782
  116MOL0     H15621  -1.062   9.246   1.555 -0.3053  3.1707  1.0401
  116MOL0     H15622  -1.022   9.308   1.717 -0.0014  1.4170 -0.0349
  116MOL0     H15623  -0.892   9.264   1.607 -1.3210 -0.5900 -2.3042
  116MOL0     H15624  -1.498   9.211   1.709 -1.0167 -0.2622 -0.5313
  116MOL0     H15625  -1.733   9.188   1.743  0.5244  0.9868 -2.5584
  116MOL0     H15626  -1.949   9.103   1.841  1.1775  1.3832 -0.8742
  116MOL0     H15627  -1.961   9.128   1.666 -0.8301 -0.5462 -1.1177
  116MOL0     H15628  -2.117   8.923   1.659  1.2082 -1.4165  0.6275
  116MOL0     H15629  -2.130   8.933   1.831 -0.9058  1.9272  0.3520
  116MOL0     H15630  -2.220   9.169   1.641 -1.3014  0.4716  0.7204
  116MOL0     H15631  -2.198   9.177   1.806 -0.5589 -0.5460  0.2820
  116MOL0     H15632  -2.389   8.969   1.707  1.1707  0.5048 -0.9773
  116MOL0     H15633  -2.340   8.990   1.864  1.6325 -1.7874 -0.8137
  116MOL0     H15634  -2.449   9.210   1.679  0.4766  0.0310  0.2194
  116MOL0     H15635  -2.414   9.247   1.841 -0.3557  3.1179 -2.8059
  116MOL0     H15636  -2.632   9.060   1.766  1.7256  0.1566 -0.9910
  116MOL0     H15637  -2.570   9.088   1.936  2.4878  0.5914  0.4601
  116MOL0     H15638  -2.679   9.312   1.746 -0.4523  1.1072  0.1833
  116MOL0     H15639  -2.644   9.309   1.917  0.9958 -0.0953 -1.0590
  116MOL0     H15640  -2.886   9.300   1.890  1.3164 -0.1718  2.9981
  116MOL0     H15641  -2.830   9.146   1.952  0.5432 -3.7838 -1.8290
  116MOL0     H15642  -1.707   8.766   1.758  1.7516 -1.3252  0.8127
  116MOL0     H15643  -1.453   8.787   1.749  1.6346  1.3263 -0.8077
  116MOL0     H15644  -1.168   8.811   1.773  0.1665  0.3208 -0.0921
  116MOL0     H15645  -0.943   8.694   1.734 -4.3478  0.0269  1.8138
  116MOL0     H15646   0.405   9.706   1.239 -0.0424 -0.6831  0.9694
  116MOL0     H15647   0.430   9.931   1.280 -0.0522 -0.2119 -0.9654
  116MOL0     H15648   0.819  10.206   1.457 -2.1340  0.7312  0.5883
  116MOL0     H15649   0.910  10.442   1.513 -0.9693  1.9099  1.1874
  116MOL0     H15650   1.041  10.613   1.488  2.6860 -0.7257 -1.2603
  116MOL0     H15651   1.052  10.578   1.325  2.8761  0.8156  2.4494
  116MOL0     H15652   0.997  10.865   1.401  3.3431  0.4271  0.2940
  116MOL0     H15653   1.036  10.797   1.241  1.6617  1.1424 -0.4468
  116MOL0     H15654   1.258  10.739   1.301 -0.0721 -0.7618 -0.1562
  116MOL0     H15655   1.222  10.751   1.479 -0.0527  0.5027  0.5181
  116MOL0     H15656   1.364  10.943   1.409  0.1891  1.4100 -0.3214
  116MOL0     H15657   1.201  11.006   1.434  1.9906 -0.8171  1.9330
  116MOL0     H15658   1.184  11.070   1.034 -0.5462  0.0616  0.2213
  116MOL0     H15659   0.647  10.605   1.220  2.9585  1.4200  0.3759
  116MOL0     H15660   0.531  10.375   1.195 -0.1555 -0.1008  1.2830
  117MOL0     O15661   8.539   7.737   5.514  0.7851  0.3665  0.0655
  117MOL0     C15662   8.587   7.683   5.615  0.4258  0.8928 -0.6766
  117MOL0     O15663   8.523   7.616   5.709  0.5350  0.6779 -0.2615
  117MOL0     C15664   8.383   7.586   5.699  0.1236  0.2747 -0.2036
  117MOL0     C15665   8.317   7.563   5.575 -0.2450 -0.5123 -0.1520
  117MOL0     C15666   8.181   7.530   5.579  0.4084  0.0376 -0.4005
  117MOL0     C15667   8.119   7.506   5.700  0.2105  0.0353 -0.8005
  117MOL0     O15668   7.995   7.451   5.695 -1.1224 -0.6401 -0.6711
  117MOL0     C15669   7.932   7.393   5.819 -0.1664  0.9226 -0.4410
  117MOL0     C15670   7.792   7.346   5.777  0.0341  0.4881  0.8250
  117MOL0     C15671   7.739   7.238   5.880  0.2423 -0.1297 -0.2449
  117MOL0     C15672   7.802   7.102   5.875 -0.6897 -0.2536  0.3404
  117MOL0     C15673   7.759   7.014   5.990  1.0946 -0.5582 -0.3044
  117MOL0     C15674   7.826   6.877   5.990  0.8605 -0.2315 -0.1052
  117MOL0     C15675   7.784   6.785   6.112  0.5014 -0.8552 -0.1293
  117MOL0     C15676   7.887   6.694   6.170  0.1436  0.5277  0.5505
  117MOL0     N15677   7.830   6.615   6.280 -0.6787 -0.5101 -0.0602
  117MOL0     C15678   7.838   6.667   6.414 -0.2913  0.8095  0.2105
  117MOL0     C15679   7.818   6.557   6.485  0.5569 -0.3486 -0.5780
  117MOL0     C15680   7.797   6.559   6.632 -0.4817 -0.5027 -0.0571
  117MOL0     C15681   7.646   6.593   6.675  0.0140  0.2613  0.0248
  117MOL0     C15682   7.553   6.472   6.633  1.0606  0.2942  0.1469
  117MOL0     C15683   7.403   6.504   6.663  0.1866  0.0559 -0.0491
  117MOL0     O15684   7.390   6.556   6.803 -0.1928  0.1820  0.2112
  117MOL0     C15685   7.267   6.534   6.860 -0.5708  0.4839  0.2523
  117MOL0     C15686   7.255   6.545   6.999 -0.2742  0.0789  0.2865
  117MOL0     C15687   7.138   6.515   7.071 -0.0428  0.3152 -0.5075
  117MOL0     C15688   7.131   6.512   7.221  0.0640 -0.3183 -0.5097
  117MOL0     C15689   7.019   6.487   7.002 -0.1320  0.1484  0.4624
  117MOL0     C15690   6.882   6.452   7.051 -0.3353  0.4127  0.1845
  117MOL0     O15691   6.775   6.480   6.972  0.0803 -0.2283  0.2573
  117MOL0     C15692   6.643   6.448   7.003  0.0876  0.8314 -0.0785
  117MOL0     C15693   6.545   6.531   6.941 -0.4069 -0.1048 -0.0311
  117MOL0     C15694   6.411   6.528   6.970 -0.0666  0.6632 -0.1644
  117MOL0     C15695   6.362   6.434   7.063 -0.2210  0.5801 -0.6302
  117MOL0     O15696   6.228   6.450   7.084  0.7389  0.3373 -0.9992
  117MOL0     C15697   6.173   6.427   7.212 -0.3445 -0.2011 -0.5442
  117MOL0     C15698   6.209   6.534   7.308  0.3450  0.1933  0.8182
  117MOL0     C15699   6.124   6.512   7.438 -0.0287  0.2117 -0.5175
  117MOL0     C15700   6.168   6.383   7.518  0.5158  0.0012 -0.0336
  117MOL0     C15701   6.151   6.410   7.670 -0.0107 -0.6167 -0.1870
  117MOL0     C15702   6.153   6.294   7.765 -0.6056 -0.4293  0.2725
  117MOL0     C15703   6.020   6.214   7.773 -0.4552  0.2808  0.5530
  117MOL0     C15704   6.002   6.157   7.914  0.2617  0.0637 -1.6637
  117MOL0    Cl15705   5.828   6.125   7.942 -0.0948 -0.1480 -0.1385
  117MOL0     C15706   6.455   6.335   7.116 -0.0209  0.0723 -0.1096
  117MOL0     C15707   6.596   6.345   7.088 -0.0881 -0.8567  0.5753
  117MOL0     O15708   6.870   6.410   7.165  0.1152 -0.2598 -0.4383
  117MOL0     C15709   7.032   6.497   6.859 -0.5121  0.2237  0.4558
  117MOL0     C15710   7.148   6.507   6.788 -0.0943 -0.8784 -0.4324
  117MOL0     N15711   7.824   6.443   6.403  0.2211 -0.0367  0.0944
  117MOL0     N15712   7.822   6.478   6.284  0.1492 -0.0985 -0.0811
  117MOL0     C15713   8.190   7.532   5.829 -0.9295  0.0915  0.2906
  117MOL0     C15714   8.313   7.583   5.826 -0.2688 -0.7493 -0.3826
  117MOL0     C15715   8.732   7.703   5.640 -0.6198  0.6288  0.5528
  117MOL0     C15716   8.820   7.728   5.530  0.8032 -0.0024  0.8262
  117MOL0     C15717   8.961   7.741   5.551 -0.0656  0.5283 -0.2439
  117MOL0     C15718   9.017   7.704   5.665 -0.5928 -0.5691 -0.7409
  117MOL0     O15719   9.148   7.693   5.681  0.1275  0.3201 -0.5050
  117MOL0     C15720   9.248   7.713   5.579 -0.3939  0.1223  0.0949
  117MOL0     C15721   9.391   7.748   5.627  0.2753  0.5723 -0.6383
  117MOL0     C15722   9.403   7.894   5.670  0.8429 -0.2506 -0.0022
  117MOL0     C15723   9.540   7.947   5.704 -0.5817  0.5500  0.1028
  117MOL0     C15724   9.624   7.950   5.586 -0.3276 -0.1902 -0.9637
  117MOL0     C15725   9.690   7.979   5.491 -0.3698  0.1595 -1.1351
  117MOL0     C15726   8.936   7.670   5.779 -0.4376  0.8401  0.5190
  117MOL0     C15727   8.798   7.663   5.765 -0.3921  0.0162  0.2155
  117MOL0     H15728   8.378   7.567   5.485 -0.0205  2.1005  0.0288
  117MOL0     H15729   8.129   7.508   5.487 -2.5273 -3.1670  1.7702
  117MOL0     H15730   7.985   7.300   5.840 -0.8232  0.8201  0.8636
  117MOL0     H15731   7.931   7.462   5.904 -0.7745  1.7269 -1.0872
  117MOL0     H15732   7.718   7.426   5.778 -0.0079  0.4564  1.9135
  117MOL0     H15733   7.785   7.305   5.676  1.3098  1.7761  0.1859
  117MOL0     H15734   7.746   7.278   5.982 -0.9371 -1.5093  0.4135
  117MOL0     H15735   7.631   7.231   5.865 -0.2333 -0.1633  2.6014
  117MOL0     H15736   7.780   7.064   5.775 -0.7021  0.4980  0.0507
  117MOL0     H15737   7.911   7.109   5.888 -0.5380 -2.7254  0.8172
  117MOL0     H15738   7.792   7.058   6.085  0.2317  0.4645 -0.4544
  117MOL0     H15739   7.650   7.003   5.985  0.9899 -0.5283  1.2832
  117MOL0     H15740   7.793   6.825   5.900 -0.8516 -1.4768  1.1606
  117MOL0     H15741   7.934   6.891   5.980  0.6401  0.4766 -1.6989
  117MOL0     H15742   7.756   6.841   6.202 -0.3058 -4.0750  1.8084
  117MOL0     H15743   7.695   6.725   6.089 -1.4701  2.7910 -3.0596
  117MOL0     H15744   7.968   6.747   6.221  0.5864 -0.9208  1.4202
  117MOL0     H15745   7.935   6.623   6.102 -1.3955  0.2091 -0.2556
  117MOL0     H15746   7.855   6.769   6.446 -0.5459  1.3285 -1.2592
  117MOL0     H15747   7.833   6.464   6.673  0.4693  0.3908  1.2601
  117MOL0     H15748   7.865   6.631   6.680 -1.9006  0.3578  0.7254
  117MOL0     H15749   7.624   6.693   6.637  2.4099  0.5015 -0.9219
  117MOL0     H15750   7.637   6.602   6.784  0.4589  1.2179 -0.0064
  117MOL0     H15751   7.578   6.380   6.687 -0.3730 -1.6982 -2.3549
  117MOL0     H15752   7.566   6.440   6.529  1.8441 -0.9285  0.6031
  117MOL0     H15753   7.349   6.411   6.641 -0.8956  0.6340  0.1077
  117MOL0     H15754   7.375   6.581   6.591 -1.2226  1.1367  1.5784
  117MOL0     H15755   7.343   6.569   7.059  1.3244  2.3032 -2.6982
  117MOL0     H15756   7.040   6.561   7.257 -0.3400 -0.9502 -0.6595
  117MOL0     H15757   7.122   6.414   7.269  1.3664 -0.4226 -0.4281
  117MOL0     H15758   7.201   6.572   7.281 -0.6181 -1.0407  1.0748
  117MOL0     H15759   6.582   6.606   6.872  1.2829 -1.2374 -0.4213
  117MOL0     H15760   6.346   6.596   6.915  0.5106 -0.8973 -3.0048
  117MOL0     H15761   6.064   6.430   7.196 -0.2036 -0.2518 -1.5544
  117MOL0     H15762   6.180   6.323   7.246 -0.6986 -0.3151 -0.8106
  117MOL0     H15763   6.314   6.526   7.335  0.5193 -0.8444 -0.0978
  117MOL0     H15764   6.193   6.632   7.263  1.2952  0.1130  0.2768
  117MOL0     H15765   6.020   6.502   7.407  0.0470  1.9115 -1.4444
  117MOL0     H15766   6.133   6.596   7.509 -3.2332  0.3950 -0.1768
  117MOL0     H15767   6.112   6.297   7.483  1.4857 -0.3186 -0.8556
  117MOL0     H15768   6.273   6.356   7.498  0.1214 -1.6804  0.0427
  117MOL0     H15769   6.052   6.457   7.675 -0.9052 -2.1255 -2.2413
  117MOL0     H15770   6.235   6.476   7.694 -0.0275 -0.0859 -1.5173
  117MOL0     H15771   6.236   6.228   7.739  0.8339  1.4360 -0.0966
  117MOL0     H15772   6.177   6.320   7.869  0.8729  2.0747 -0.6201
  117MOL0     H15773   6.017   6.139   7.693 -1.7527 -2.4496  2.9851
  117MOL0     H15774   5.933   6.279   7.761  0.1419  1.1395  0.8106
  117MOL0     H15775   6.034   6.230   7.988 -1.4247 -1.0367  0.2538
  117MOL0     H15776   6.054   6.062   7.927 -0.7988 -0.2181  1.2588
  117MOL0     H15777   6.415   6.257   7.181 -0.6198 -0.6980 -1.3512
  117MOL0     H15778   6.666   6.272   7.127 -0.1777 -1.1089  0.2726
  117MOL0     H15779   6.946   6.473   6.796  0.5014 -2.0360 -0.1735
  117MOL0     H15780   7.135   6.501   6.681  3.8324  0.1469 -1.1361
  117MOL0     H15781   8.133   7.538   5.922 -0.1196 -0.1606  0.8115
  117MOL0     H15782   8.369   7.611   5.915  1.7330 -0.9074 -1.5164
  117MOL0     H15783   8.786   7.739   5.427 -1.3107  0.0631  1.4907
  117MOL0     H15784   9.014   7.784   5.467  0.7060  0.4558  0.1951
  117MOL0     H15785   9.245   7.616   5.527 -3.8267 -1.7489  3.2811
  117MOL0     H15786   9.217   7.783   5.501 -1.6253 -1.2084 -0.6836
  117MOL0     H15787   9.470   7.730   5.554  1.2426  1.2559  0.2152
  117MOL0     H15788   9.411   7.695   5.721  1.9911  1.3124 -0.5437
  117MOL0     H15789   9.338   7.919   5.755  0.0490  0.5006 -0.8008
  117MOL0     H15790   9.361   7.965   5.598  2.7168  2.8367  1.7342
  117MOL0     H15791   9.588   7.880   5.776  0.4079  2.2029  1.0430
  117MOL0     H15792   9.540   8.048   5.746  2.5418  0.1094  1.4784
  117MOL0     H15793   9.759   8.010   5.415  0.5040  0.1384 -0.3588
  117MOL0     H15794   8.980   7.652   5.876 -1.4110  1.1997  1.0446
  117MOL0     H15795   8.743   7.611   5.842 -1.6251 -0.3108 -0.8554
  118MOL0     O15796   8.773   9.995   5.401 -0.0535  0.0682 -0.5158
  118MOL0     C15797   8.799  10.104   5.449 -0.5586 -0.0392 -0.5402
  118MOL0     O15798   8.718  10.176   5.535 -0.6631 -0.0668 -0.4983
  118MOL0     C15799   8.593  10.126   5.564 -0.1780  0.2535 -0.1837
  118MOL0     C15800   8.546  10.168   5.694  0.5463 -0.1892 -0.5498
  118MOL0     C15801   8.415  10.161   5.724  0.0159 -0.1117 -1.2003
  118MOL0     C15802   8.324  10.103   5.637 -0.9630  0.4073  0.1135
  118MOL0     O15803   8.200  10.088   5.680  0.1532  0.2914 -0.0120
  118MOL0     C15804   8.110  10.173   5.611  0.2267  0.4976  0.8218
  118MOL0     C15805   7.987  10.192   5.694  0.0678 -0.2490 -0.7055
  118MOL0     C15806   7.936  10.067   5.766  0.2002  0.1626 -0.0628
  118MOL0     C15807   7.812  10.090   5.850  0.1212 -0.8541  0.7791
  118MOL0     C15808   7.792   9.966   5.924 -0.6445 -0.1407  0.1313
  118MOL0     C15809   7.673   9.968   6.022  0.2338  0.0575 -0.0940
  118MOL0     C15810   7.534   9.938   5.964 -0.2238  0.6366  0.2603
  118MOL0     C15811   7.417   9.873   6.044 -0.0972  0.6813 -0.1467
  118MOL0     N15812   7.273   9.898   6.000 -0.8212  0.1678  0.7079
  118MOL0     C15813   7.223   9.847   5.879  1.0491 -0.5340  0.2896
  118MOL0     C15814   7.092   9.882   5.883 -0.3763 -0.1690  0.4989
  118MOL0     C15815   7.008   9.866   5.757  0.3129  0.2747  0.1470
  118MOL0     C15816   6.869   9.825   5.786  0.2777  1.1633  0.4106
  118MOL0     C15817   6.785   9.945   5.832 -0.5562 -0.2653  0.5355
  118MOL0     C15818   6.650   9.887   5.862  0.0880  0.2165  0.2078
  118MOL0     O15819   6.562   9.998   5.904 -0.0847 -0.2672 -0.5909
  118MOL0     C15820   6.434   9.965   5.946 -0.2093  0.0055 -0.0280
  118MOL0     C15821   6.378   9.838   5.972  0.2674  0.6173 -0.4429
  118MOL0     C15822   6.250   9.817   6.028 -0.4303 -0.0332 -0.0311
  118MOL0     C15823   6.209   9.677   6.063  0.0519  0.5823  0.1340
  118MOL0     C15824   6.164   9.927   6.034  0.5266  0.2737  0.2144
  118MOL0     C15825   6.026   9.919   6.090  0.2265 -0.9421  0.1704
  118MOL0     O15826   5.980  10.031   6.154  0.2994  0.4374 -0.1135
  118MOL0     C15827   5.851  10.017   6.199  0.3811  0.0545  0.1206
  118MOL0     C15828   5.751  10.052   6.112  0.4501 -0.2005 -0.1500
  118MOL0     C15829   5.613  10.015   6.133 -0.0359  0.1509 -0.0012
  118MOL0     C15830   5.580   9.945   6.253 -0.1733 -0.3527 -0.1423
  118MOL0     O15831   5.459   9.903   6.284 -0.0131 -0.5421  0.3269
  118MOL0     C15832   5.350   9.932   6.190 -0.0582 -0.4878 -0.1777
  118MOL0     C15833   5.223   9.892   6.256  0.1614 -0.2434 -0.4019
  118MOL0     C15834   5.102   9.904   6.169  0.0074  0.1937 -0.0900
  118MOL0     C15835   4.984   9.841   6.245  0.5608  0.8303 -0.0233
  118MOL0     C15836   4.865   9.859   6.153 -0.1754  0.4197 -0.3969
  118MOL0     C15837   4.746   9.777   6.211 -0.2819  0.1643  0.8094
  118MOL0     C15838   4.610   9.806   6.147  0.2332  0.0182 -0.5855
  118MOL0     C15839   4.508   9.712   6.207 -0.0400 -0.3019  0.2950
  118MOL0    Cl15840   4.359   9.781   6.137 -0.3116  0.1148  0.1381
  118MOL0     C15841   5.677   9.908   6.337  0.1871  1.2005  0.1858
  118MOL0     C15842   5.812   9.928   6.305  0.4673 -0.2152 -0.1584
  118MOL0     O15843   5.967   9.818   6.073  0.4705 -0.5129  0.0431
  118MOL0     C15844   6.215  10.051   5.990  0.7314 -0.4465  0.1967
  118MOL0     C15845   6.342  10.068   5.959 -0.7617  0.8211  0.6012
  118MOL0     N15846   7.065   9.947   6.002 -0.0861  0.9743  1.2579
  118MOL0     N15847   7.176   9.954   6.070  0.1944 -0.1141  0.0643
  118MOL0     C15848   8.371  10.053   5.516 -0.2231 -0.6351  0.4662
  118MOL0     C15849   8.501  10.067   5.476 -0.5953  0.6793  0.0388
  118MOL0     C15850   8.929  10.164   5.403 -0.8308 -0.0660 -0.7111
  118MOL0     C15851   8.982  10.273   5.475 -0.8787  0.3333  0.1227
  118MOL0     C15852   9.112  10.317   5.447 -0.2868 -0.7163 -0.0039
  118MOL0     C15853   9.173  10.284   5.326 -0.1424 -0.4153 -0.4223
  118MOL0     O15854   9.289  10.348   5.283 -0.1137 -0.9563 -0.4789
  118MOL0     C15855   9.355  10.438   5.366 -0.3306 -0.5622 -0.0812
  118MOL0     C15856   9.447  10.383   5.472  1.1561  0.2018 -0.2201
  118MOL0     C15857   9.527  10.494   5.550 -0.5356  0.2290 -0.6034
  118MOL0     C15858   9.628  10.422   5.651  0.1823  0.3038  0.2290
  118MOL0     C15859   9.677  10.516   5.746 -0.6014  0.2009 -0.7354
  118MOL0     C15860   9.728  10.601   5.825  0.7352  0.3524  0.7774
  118MOL0     C15861   9.110  10.185   5.244 -0.2116  0.1527 -0.0175
  118MOL0     C15862   8.994  10.118   5.293 -0.5969 -0.5131  1.3127
  118MOL0     H15863   8.610  10.228   5.758  3.0855 -2.4472 -0.8107
  118MOL0     H15864   8.381  10.206   5.817  0.6956  2.7858 -2.2501
  118MOL0     H15865   8.156  10.270   5.594  1.2924 -0.2166 -0.5502
  118MOL0     H15866   8.088  10.137   5.510  0.3760 -2.0320  1.5958
  118MOL0     H15867   8.015  10.266   5.770 -0.4126 -0.3593 -0.4183
  118MOL0     H15868   7.908  10.248   5.643  0.6410  3.9276  2.3691
  118MOL0     H15869   7.924   9.985   5.695  1.5213 -2.3593  2.4088
  118MOL0     H15870   8.017  10.037   5.832 -0.0539 -1.4657 -0.4483
  118MOL0     H15871   7.827  10.174   5.918  1.5131 -0.4079 -0.0302
  118MOL0     H15872   7.722  10.115   5.794  1.1358  0.2116 -0.4460
  118MOL0     H15873   7.781   9.875   5.865 -2.6807 -1.2121  1.9833
  118MOL0     H15874   7.884   9.956   5.982 -1.3687 -0.4334  1.2680
  118MOL0     H15875   7.690   9.886   6.092  1.1837  0.3583  0.0352
  118MOL0     H15876   7.660  10.066   6.070 -1.0645  1.3089 -2.7755
  118MOL0     H15877   7.496  10.039   5.943 -2.0839 -0.5745 -2.9342
  118MOL0     H15878   7.539   9.892   5.864 -1.7414  0.1940  0.3651
  118MOL0     H15879   7.420   9.925   6.140 -1.1150  3.8528 -1.6846
  118MOL0     H15880   7.435   9.766   6.058  0.1979  0.6266 -0.8820
  118MOL0     H15881   7.273   9.805   5.793  0.4371  2.2492 -1.5663
  118MOL0     H15882   7.000   9.962   5.705 -1.9505 -0.6411 -1.3886
  118MOL0     H15883   7.056   9.802   5.683 -0.9535  1.2217 -1.5581
  118MOL0     H15884   6.863   9.735   5.849  0.3334  0.8628 -0.0072
  118MOL0     H15885   6.825   9.782   5.695  0.7754 -0.3319  0.8408
  118MOL0     H15886   6.782  10.014   5.747  3.6919 -0.1346  0.2587
  118MOL0     H15887   6.829   9.994   5.920 -0.2634 -2.1378  1.4724
  118MOL0     H15888   6.643   9.806   5.935  0.1567  2.1064  2.4413
  118MOL0     H15889   6.609   9.847   5.769  0.1166  3.1549 -1.1822
  118MOL0     H15890   6.443   9.751   5.976  1.0646  1.2332  1.3715
  118MOL0     H15891   6.126   9.635   6.006  0.6124 -0.1257 -0.1737
  118MOL0     H15892   6.287   9.601   6.052  0.3943  0.6293  1.9109
  118MOL0     H15893   6.177   9.687   6.168 -0.8564 -0.8069  0.0113
  118MOL0     H15894   5.774  10.090   6.013  2.7682 -0.3581  0.2751
  118MOL0     H15895   5.542  10.047   6.057  1.3749  2.5246 -0.4361
  118MOL0     H15896   5.345  10.038   6.166 -2.4359 -0.8970 -1.8813
  118MOL0     H15897   5.362   9.875   6.097 -2.7524 -3.0837  0.8899
  118MOL0     H15898   5.235   9.788   6.289 -0.0649  0.2257  1.2206
  118MOL0     H15899   5.211   9.954   6.345 -0.4452  0.2801 -0.8390
  118MOL0     H15900   5.110   9.856   6.071 -2.7890 -1.2784  0.3124
  118MOL0     H15901   5.085  10.012   6.155  0.3192  0.3543  0.7165
  118MOL0     H15902   5.005   9.734   6.254  0.7691  0.7340 -1.4218
  118MOL0     H15903   4.960   9.888   6.341 -0.2683 -0.1603  0.2663
  118MOL0     H15904   4.884   9.816   6.054  0.2240  0.0661 -0.1687
  118MOL0     H15905   4.847   9.964   6.128  1.2010  1.0530  1.1339
  118MOL0     H15906   4.766   9.670   6.205  0.0356  0.1393  1.9788
  118MOL0     H15907   4.740   9.803   6.317 -1.0264 -2.3257  1.4349
  118MOL0     H15908   4.609   9.795   6.038 -0.5923 -1.2295 -0.4693
  118MOL0     H15909   4.587   9.910   6.172 -1.1398  0.1168 -2.0964
  118MOL0     H15910   4.505   9.714   6.317  1.7764 -0.0884  0.3873
  118MOL0     H15911   4.519   9.609   6.172  0.3590  0.2535 -1.3003
  118MOL0     H15912   5.646   9.854   6.426  2.0513 -0.2720  0.0245
  118MOL0     H15913   5.893   9.880   6.361  0.1735 -2.2230 -1.3412
  118MOL0     H15914   6.154  10.140   6.004 -1.1784 -1.3829 -1.6444
  118MOL0     H15915   6.387  10.167   5.953  0.7342  0.1396 -0.0389
  118MOL0     H15916   8.293  10.007   5.457 -3.4373  3.0598  1.4219
  118MOL0     H15917   8.525  10.041   5.373  2.3710 -0.5171  0.9298
  118MOL0     H15918   8.932  10.322   5.558 -0.1271 -0.5861  1.1478
  118MOL0     H15919   9.153  10.389   5.517  0.0680 -0.2892 -0.6324
  118MOL0     H15920   9.412  10.500   5.297  0.3398 -0.1820  0.7941
  118MOL0     H15921   9.287  10.503   5.421 -0.6045 -0.7145 -0.2372
  118MOL0     H15922   9.525  10.334   5.412  1.9896  2.1501 -0.8024
  118MOL0     H15923   9.407  10.304   5.536  0.4937  0.8088  0.1251
  118MOL0     H15924   9.448  10.540   5.609  0.3156  1.4331 -0.3616
  118MOL0     H15925   9.571  10.569   5.483 -0.9769  0.6719 -0.4045
  118MOL0     H15926   9.700  10.365   5.592 -1.7368 -1.4694 -0.5316
  118MOL0     H15927   9.573  10.349   5.712  2.5436 -1.3763  0.4791
  118MOL0     H15928   9.750  10.685   5.888 -0.2450  1.1828  0.0347
  118MOL0     H15929   9.150  10.162   5.146  0.2082  2.3481 -0.4094
  118MOL0     H15930   8.948  10.049   5.223  0.5016  0.6874 -0.6875
  119MOL0     O15931   9.891   4.912   1.813  0.6112 -0.0826  0.0458
  119MOL0     C15932   9.881   4.912   1.690 -0.2529 -0.0608  1.3515
  119MOL0     O15933   9.804   4.992   1.622  0.3066  0.1647  0.3832
  119MOL0     C15934   9.688   5.049   1.679  0.4414 -0.8219 -0.5330
  119MOL0     C15935   9.611   4.962   1.749  0.4350  0.2500 -0.0310
  119MOL0     C15936   9.499   4.998   1.817  0.1940 -0.0289 -0.0360
  119MOL0     C15937   9.464   5.140   1.830  0.0460 -0.6819  0.3166
  119MOL0     O15938   9.358   5.176   1.899  0.2306 -0.0493 -0.7462
  119MOL0     C15939   9.287   5.294   1.863  0.3714 -0.8237 -0.3297
  119MOL0     C15940   9.159   5.286   1.930 -0.0060  0.5260  0.2793
  119MOL0     C15941   9.046   5.384   1.874 -1.2800  0.1356  0.2292
  119MOL0     C15942   8.910   5.353   1.931  0.2451 -1.1078  0.5341
  119MOL0     C15943   8.803   5.426   1.845 -0.2589  0.1405 -0.4307
  119MOL0     C15944   8.667   5.417   1.915  0.9893  0.4886 -0.1051
  119MOL0     C15945   8.557   5.468   1.818 -0.6515 -0.1157 -0.2218
  119MOL0     C15946   8.405   5.471   1.882  0.1620 -0.2391  1.0343
  119MOL0     N15947   8.333   5.606   1.869  0.7406 -0.0452 -0.2171
  119MOL0     C15948   8.283   5.674   1.976 -0.4168  0.8793 -0.0411
  119MOL0     C15949   8.200   5.775   1.921 -0.0611 -0.4871 -0.2646
  119MOL0     C15950   8.104   5.868   1.995 -0.4201  0.4995 -0.5822
  119MOL0     C15951   7.970   5.798   2.007  0.7958 -0.0191  0.3774
  119MOL0     C15952   7.871   5.881   2.093  0.7566  0.2924  0.1253
  119MOL0     C15953   7.917   5.880   2.240 -0.0924 -0.0648 -1.4665
  119MOL0     O15954   7.813   5.939   2.323  0.7152  0.2698  0.0027
  119MOL0     C15955   7.693   5.876   2.350 -1.9424 -1.1571 -0.3834
  119MOL0     C15956   7.596   5.964   2.382  0.2121  0.0636 -0.3715
  119MOL0     C15957   7.466   5.914   2.431 -2.1577  0.0928 -0.9927
  119MOL0     C15958   7.376   6.019   2.487 -0.5208  0.2876 -0.2286
  119MOL0     C15959   7.442   5.777   2.443 -0.3902 -0.1732 -0.0870
  119MOL0     C15960   7.323   5.709   2.504 -0.2727  0.0985  0.1843
  119MOL0     O15961   7.282   5.592   2.450 -0.8676 -0.3722 -0.5569
  119MOL0     C15962   7.171   5.514   2.494 -0.1758 -0.1236  0.3649
  119MOL0     C15963   7.203   5.381   2.504 -0.4020  0.1718 -0.5853
  119MOL0     C15964   7.097   5.295   2.526 -0.4732  0.8483 -0.7066
  119MOL0     C15965   6.968   5.345   2.552 -0.2347  0.3690  0.2853
  119MOL0     O15966   6.869   5.254   2.593  0.0643  0.0694 -0.2276
  119MOL0     C15967   6.866   5.127   2.517 -0.0035  0.0306 -0.3702
  119MOL0     C15968   6.736   5.052   2.553  0.4334 -0.8321 -0.6496
  119MOL0     C15969   6.611   5.137   2.514 -1.2834  0.2843  0.1366
  119MOL0     C15970   6.489   5.045   2.511 -0.1027 -0.0013  0.1180
  119MOL0     C15971   6.375   5.129   2.439  0.1854  0.2702 -0.1810
  119MOL0     C15972   6.303   5.222   2.530 -0.2569  0.8809  0.5368
  119MOL0     C15973   6.168   5.282   2.478 -0.5170  0.0383 -0.7279
  119MOL0     C15974   6.077   5.308   2.596  0.3519 -0.3665  0.2261
  119MOL0    Cl15975   6.008   5.168   2.676 -0.0575  0.5470 -0.4616
  119MOL0     C15976   6.938   5.482   2.557 -0.3535  0.2009  1.3310
  119MOL0     C15977   7.041   5.566   2.520 -0.6524  0.0209 -0.0061
  119MOL0     O15978   7.270   5.767   2.601  0.0662 -0.1826 -0.0588
  119MOL0     C15979   7.541   5.697   2.388 -0.2418 -0.1622  0.7972
  119MOL0     C15980   7.661   5.742   2.332  0.4629 -0.0046 -0.5367
  119MOL0     N15981   8.207   5.756   1.790 -0.1547 -0.3931 -0.2502
  119MOL0     N15982   8.274   5.659   1.753 -0.1255  0.3384  0.5552
  119MOL0     C15983   9.544   5.228   1.757 -0.3984 -0.1240  0.1479
  119MOL0     C15984   9.645   5.182   1.680 -0.2740 -0.1930 -0.1808
  119MOL0     C15985   9.989   4.851   1.611  0.8336  0.4289 -0.2386
  119MOL0     C15986  10.000   4.882   1.466 -0.4316 -0.1934 -0.4894
  119MOL0     C15987  10.112   4.842   1.390  0.4324 -0.5342 -0.0947
  119MOL0     C15988  10.214   4.769   1.449  0.0960 -0.8322 -0.9050
  119MOL0     O15989  10.328   4.730   1.392 -0.3580  0.3176 -0.1031
  119MOL0     C15990  10.378   4.793   1.269  0.3363 -0.1838 -0.0144
  119MOL0     C15991  10.435   4.686   1.179 -0.1354 -0.3715 -0.3568
  119MOL0     C15992  10.567   4.628   1.225 -0.1910 -0.6556 -0.0380
  119MOL0     C15993  10.617   4.503   1.161 -0.6900  0.3338  0.8804
  119MOL0     C15994  10.513   4.400   1.144  0.3084 -0.1438 -0.4314
  119MOL0     C15995  10.439   4.304   1.136 -0.7408 -0.0307 -0.6891
  119MOL0     C15996  10.209   4.745   1.588 -0.0500  0.7735  0.7761
  119MOL0     C15997  10.100   4.790   1.665  0.3810  0.1620  0.3348
  119MOL0     H15998   9.643   4.859   1.741  1.2940  0.6728 -3.8718
  119MOL0     H15999   9.435   4.925   1.865  1.3944 -0.0905  1.5264
  119MOL0     H16000   9.340   5.385   1.894 -0.4152 -1.2719  2.6057
  119MOL0     H16001   9.269   5.293   1.755  1.5432  0.4006 -0.5558
  119MOL0     H16002   9.128   5.181   1.918 -1.0967  1.0289 -1.6718
  119MOL0     H16003   9.166   5.303   2.037 -1.9951 -2.0953  0.9562
  119MOL0     H16004   9.094   5.481   1.890  1.6245 -1.0274 -0.5724
  119MOL0     H16005   9.022   5.367   1.768 -3.0113 -1.3923  0.8228
  119MOL0     H16006   8.893   5.246   1.923  0.5281 -1.3130  2.1906
  119MOL0     H16007   8.898   5.379   2.037  1.4263 -3.5638  1.3443
  119MOL0     H16008   8.834   5.531   1.834  2.3720 -0.4728  0.4664
  119MOL0     H16009   8.792   5.377   1.748 -0.3702 -1.0855  0.1859
  119MOL0     H16010   8.641   5.313   1.938  1.5720 -0.0841 -1.8372
  119MOL0     H16011   8.665   5.478   2.005 -4.2211 -1.1379  1.2441
  119MOL0     H16012   8.578   5.570   1.784 -1.0290 -0.0683 -0.3185
  119MOL0     H16013   8.555   5.406   1.728  1.9261 -2.6981  1.3550
  119MOL0     H16014   8.403   5.424   1.981 -1.2576 -1.3816  0.5025
  119MOL0     H16015   8.344   5.409   1.815  0.6911 -1.3301  1.5376
  119MOL0     H16016   8.304   5.655   2.080  1.4427  1.2911 -0.3035
  119MOL0     H16017   8.142   5.888   2.096  2.1646 -2.1882 -0.8889
  119MOL0     H16018   8.094   5.967   1.948 -0.4539  2.7200  3.5702
  119MOL0     H16019   7.970   5.694   2.043 -1.5787 -0.2088 -0.0164
  119MOL0     H16020   7.933   5.799   1.904 -0.4772  0.4083  0.8205
  119MOL0     H16021   7.773   5.832   2.084 -0.3350  1.9625  2.0460
  119MOL0     H16022   7.855   5.984   2.058  0.2155  0.2915  0.3582
  119MOL0     H16023   8.013   5.931   2.256 -0.7058  0.1910  1.9540
  119MOL0     H16024   7.936   5.782   2.284  1.0153  1.0703  0.7445
  119MOL0     H16025   7.620   6.070   2.394 -1.7824  0.2415  5.2190
  119MOL0     H16026   7.407   6.120   2.460 -2.6541  0.3051 -3.1897
  119MOL0     H16027   7.274   5.999   2.452  0.1219 -2.8908 -0.6373
  119MOL0     H16028   7.373   6.004   2.595 -0.7078  2.7169  0.1514
  119MOL0     H16029   7.304   5.344   2.513  0.1803  1.5243 -1.3171
  119MOL0     H16030   7.127   5.191   2.535 -0.0150  0.8560 -1.9338
  119MOL0     H16031   6.866   5.137   2.408  2.4500 -1.0734 -0.5342
  119MOL0     H16032   6.955   5.068   2.539  0.2460  0.6659  0.3930
  119MOL0     H16033   6.736   4.956   2.502 -0.3218 -1.0358 -0.2875
  119MOL0     H16034   6.747   5.036   2.661  0.7915 -0.0635 -0.5651
  119MOL0     H16035   6.630   5.164   2.410 -0.2149 -0.2506  0.1849
  119MOL0     H16036   6.608   5.227   2.576 -1.1044 -0.5369  1.3778
  119MOL0     H16037   6.506   4.960   2.445 -0.6920 -0.9215  1.1157
  119MOL0     H16038   6.458   5.013   2.611 -1.8383 -0.7077 -0.5988
  119MOL0     H16039   6.290   5.067   2.410 -3.0065  2.9180  2.6636
  119MOL0     H16040   6.419   5.194   2.362 -1.0968  1.7863  0.3095
  119MOL0     H16041   6.294   5.162   2.621  0.3465 -0.9575 -0.5495
  119MOL0     H16042   6.369   5.303   2.564 -0.2434  0.2472  2.0904
  119MOL0     H16043   6.127   5.231   2.391  2.4229 -0.8081 -1.7192
  119MOL0     H16044   6.194   5.382   2.442  3.1105 -1.1915 -1.8989
  119MOL0     H16045   6.000   5.374   2.555  1.1805 -0.1983 -1.1054
  119MOL0     H16046   6.123   5.366   2.677 -1.2801  0.7411  0.4163
  119MOL0     H16047   6.844   5.518   2.598  0.4482  1.7437  1.9318
  119MOL0     H16048   7.024   5.672   2.508  0.6950  0.5766  2.2458
  119MOL0     H16049   7.535   5.588   2.395  3.5264 -0.5522  0.3264
  119MOL0     H16050   7.740   5.687   2.281  1.9792  0.5016  1.1461
  119MOL0     H16051   9.549   5.334   1.780 -1.5403  0.3367 -1.6054
  119MOL0     H16052   9.717   5.249   1.634 -3.0951  1.7342 -2.0513
  119MOL0     H16053   9.921   4.936   1.415  1.5740  2.0646 -1.3922
  119MOL0     H16054  10.104   4.869   1.285  1.7222  0.0835 -0.0537
  119MOL0     H16055  10.300   4.848   1.214 -0.1233 -2.0447 -1.3028
  119MOL0     H16056  10.457   4.865   1.294 -0.2137 -0.1573  1.7635
  119MOL0     H16057  10.454   4.732   1.081  0.5953 -0.2595 -0.1699
  119MOL0     H16058  10.357   4.610   1.168 -0.9737  0.1820  1.4004
  119MOL0     H16059  10.567   4.601   1.331  0.3415  2.2996  0.8221
  119MOL0     H16060  10.644   4.706   1.221 -0.4154 -0.4785 -1.7042
  119MOL0     H16061  10.714   4.474   1.203 -0.6881  0.5947  1.0642
  119MOL0     H16062  10.641   4.523   1.056  0.8949 -0.3558  1.0787
  119MOL0     H16063  10.387   4.213   1.119 -3.0995  1.0960  0.0709
  119MOL0     H16064  10.292   4.689   1.628 -1.1726  0.0616  2.2275
  119MOL0     H16065  10.102   4.757   1.769  0.8809 -0.8065  0.0266
  120MOL0     O16066  10.570   0.762   9.338 -0.0343 -0.3767  0.3329
  120MOL0     C16067  10.623   0.754   9.227 -0.6125  0.1982 -0.3705
  120MOL0     O16068  10.554   0.729   9.102 -0.5325  0.2919 -0.7481
  120MOL0     C16069  10.422   0.701   9.097  0.2321 -0.2975  0.0369
  120MOL0     C16070  10.376   0.592   9.027  0.6869  0.9914  0.0571
  120MOL0     C16071  10.237   0.561   9.023  0.3389 -0.1567 -0.2114
  120MOL0     C16072  10.155   0.640   9.105  0.3403 -0.1366  0.0039
  120MOL0     O16073  10.024   0.599   9.129 -0.0217  0.8832  0.3691
  120MOL0     C16074   9.971   0.613   9.263 -1.2180  0.0781 -0.9330
  120MOL0     C16075   9.897   0.484   9.312  1.0068 -0.4850  0.2597
  120MOL0     C16076   9.814   0.524   9.435 -0.0770  0.1782 -0.0146
  120MOL0     C16077   9.696   0.425   9.466 -0.3863  0.8932  0.0261
  120MOL0     C16078   9.609   0.486   9.579  0.4331  0.0836 -1.0017
  120MOL0     C16079   9.483   0.409   9.584 -0.5251  0.3530  0.3335
  120MOL0     C16080   9.373   0.458   9.670  0.4356 -0.5400 -1.3357
  120MOL0     C16081   9.409   0.445   9.823  0.2125 -0.3455 -0.1032
  120MOL0     N16082   9.284   0.459   9.900  0.0111  0.0043 -0.0384
  120MOL0     C16083   9.205   0.575   9.908 -0.9071 -0.7703  0.0171
  120MOL0     C16084   9.104   0.542   9.990  0.6317  0.6200  0.8078
  120MOL0     C16085   8.992   0.635  10.020 -0.1671  0.3809 -0.1918
  120MOL0     C16086   8.896   0.655   9.913 -0.0796 -0.4240  0.4283
  120MOL0     C16087   8.809   0.789   9.940  0.1580 -0.4802 -0.4384
  120MOL0     C16088   8.702   0.803   9.843  1.2117 -0.3211 -0.5819
  120MOL0     O16089   8.615   0.901   9.905 -0.5995  0.4824 -0.0707
  120MOL0     C16090   8.498   0.932   9.843  0.8758  0.5612  0.0579
  120MOL0     C16091   8.475   0.919   9.705  0.3325 -0.3584  0.3673
  120MOL0     C16092   8.346   0.936   9.648  0.2937  0.5210  0.1816
  120MOL0     C16093   8.315   0.911   9.507  0.1315 -0.1174  0.2344
  120MOL0     C16094   8.246   0.988   9.737  0.0771 -0.6242  0.5992
  120MOL0     C16095   8.105   1.012   9.698 -0.1125 -0.7609 -0.2894
  120MOL0     O16096   8.024   1.068   9.791  0.0560 -0.0368 -0.0068
  120MOL0     C16097   7.898   1.118   9.771  0.2035 -0.5042  0.3102
  120MOL0     C16098   7.890   1.260   9.799  0.6089  0.0908  0.3102
  120MOL0     C16099   7.777   1.340   9.783  0.8609 -0.1615 -0.1307
  120MOL0     C16100   7.659   1.268   9.753 -0.7977  0.3030  0.6746
  120MOL0     O16101   7.546   1.346   9.733  0.0097  0.0682  0.3603
  120MOL0     C16102   7.444   1.277   9.659 -0.2455 -0.2003  0.7359
  120MOL0     C16103   7.340   1.366   9.602 -0.0003  0.6233 -0.7083
  120MOL0     C16104   7.227   1.290   9.524 -0.1810 -0.1550  1.0665
  120MOL0     C16105   7.139   1.215   9.615  0.1853 -0.0753 -0.3051
  120MOL0     C16106   7.070   1.109   9.531 -0.2259  0.3177  0.2228
  120MOL0     C16107   6.987   1.161   9.413 -0.1880  0.6757  0.4921
  120MOL0     C16108   6.895   1.275   9.459 -0.4419  0.3711  0.0112
  120MOL0     C16109   6.774   1.312   9.373 -0.3279  0.5833  0.1134
  120MOL0    Cl16110   6.663   1.178   9.368 -0.0235  0.1389 -0.0957
  120MOL0     C16111   7.663   1.134   9.730  0.0649  0.9539  0.0394
  120MOL0     C16112   7.784   1.058   9.734 -0.4177  0.6776  0.2200
  120MOL0     O16113   8.066   0.979   9.589 -0.9470 -0.8229 -0.6918
  120MOL0     C16114   8.276   1.009   9.873  0.0652 -0.2815  0.6226
  120MOL0     C16115   8.400   0.976   9.929  0.6587 -0.6852 -0.1015
  120MOL0     N16116   9.106   0.412  10.012 -0.2517  0.0483 -0.3337
  120MOL0     N16117   9.217   0.362   9.964 -0.1823 -0.3927  0.5129
  120MOL0     C16118  10.194   0.755   9.175  0.1194 -0.5557  0.3665
  120MOL0     C16119  10.336   0.787   9.167  0.8199 -0.5457 -0.4269
  120MOL0     C16120  10.769   0.753   9.224 -0.4025  0.1183  1.0970
  120MOL0     C16121  10.843   0.751   9.105 -0.5218 -0.1061  0.7093
  120MOL0     C16122  10.985   0.756   9.107  0.5384 -0.4335  0.4906
  120MOL0     C16123  11.051   0.762   9.232 -0.2459 -0.5988  0.2072
  120MOL0     O16124  11.188   0.747   9.221 -0.2267  0.3598  0.1861
  120MOL0     C16125  11.270   0.699   9.320 -0.3547 -0.0325 -0.4897
  120MOL0     C16126  11.401   0.654   9.263  0.6139  0.1019  0.1825
  120MOL0     C16127  11.400   0.521   9.176  0.1838 -1.1841 -0.0027
  120MOL0     C16128  11.515   0.510   9.080 -0.4209 -0.0761  0.0150
  120MOL0     C16129  11.636   0.497   9.161  0.5275  0.8474  0.0492
  120MOL0     C16130  11.744   0.489   9.211  0.7808  0.2173  0.1178
  120MOL0     C16131  10.984   0.751   9.352  0.1798 -0.8777 -0.9290
  120MOL0     C16132  10.848   0.744   9.340 -0.1291  0.1962 -0.6593
  120MOL0     H16133  10.445   0.526   8.975 -1.7772 -3.2914  1.6861
  120MOL0     H16134  10.205   0.467   8.977 -0.4177 -0.6444  1.2532
  120MOL0     H16135  10.050   0.631   9.336 -2.6251  1.2128  0.4049
  120MOL0     H16136   9.899   0.696   9.261  0.1001  1.3818  1.1379
  120MOL0     H16137   9.835   0.449   9.230  1.7882  0.7993 -0.9391
  120MOL0     H16138   9.964   0.400   9.331 -1.5455 -2.6013  0.3314
  120MOL0     H16139   9.879   0.534   9.523  0.8241 -3.1736 -0.1679
  120MOL0     H16140   9.768   0.620   9.410 -2.6060 -0.6233  1.2034
  120MOL0     H16141   9.631   0.416   9.378 -1.7356 -0.1072  1.0980
  120MOL0     H16142   9.733   0.325   9.488  0.6122  0.8413 -1.6947
  120MOL0     H16143   9.655   0.476   9.677 -1.2182  0.3430 -0.1602
  120MOL0     H16144   9.574   0.589   9.567 -2.0109 -0.5484  0.0972
  120MOL0     H16145   9.439   0.402   9.484  1.9349 -2.5438 -0.7124
  120MOL0     H16146   9.515   0.310   9.617 -1.6391 -0.5620 -1.2343
  120MOL0     H16147   9.340   0.560   9.648 -1.1447 -1.0790 -1.6172
  120MOL0     H16148   9.280   0.405   9.649  0.2194 -0.8870  0.3512
  120MOL0     H16149   9.469   0.528   9.860  2.3386 -0.8938 -2.0840
  120MOL0     H16150   9.465   0.352   9.839 -0.7342 -0.5236  2.5267
  120MOL0     H16151   9.235   0.668   9.862 -2.5537 -0.3785 -0.3174
  120MOL0     H16152   8.953   0.604  10.117  1.5676 -0.3965  0.3024
  120MOL0     H16153   9.028   0.733  10.052  0.0022 -0.1450  1.3023
  120MOL0     H16154   8.833   0.566   9.910 -1.8425  0.6716  2.0538
  120MOL0     H16155   8.950   0.672   9.820  0.0401 -2.5857  0.0589
  120MOL0     H16156   8.879   0.873   9.934 -1.3179  1.0414  1.8572
  120MOL0     H16157   8.777   0.795  10.045  0.1338  0.2090 -0.4860
  120MOL0     H16158   8.655   0.705   9.832  1.2166 -0.5284  0.9818
  120MOL0     H16159   8.741   0.833   9.746  0.9494 -0.9305 -0.8821
  120MOL0     H16160   8.556   0.880   9.643 -0.1896  0.4824 -0.8981
  120MOL0     H16161   8.403   0.870   9.458  1.6665  2.4047  0.7070
  120MOL0     H16162   8.235   0.836   9.507 -0.7939  0.8056  1.7296
  120MOL0     H16163   8.277   0.998   9.453 -0.2561  0.6278  1.6630
  120MOL0     H16164   7.980   1.316   9.823  1.2790 -1.3123  1.2437
  120MOL0     H16165   7.766   1.447   9.800 -0.9965 -0.4426  0.7872
  120MOL0     H16166   7.490   1.213   9.584 -1.1900  0.3393 -0.3348
  120MOL0     H16167   7.396   1.208   9.731 -3.1053  0.8640 -0.0073
  120MOL0     H16168   7.301   1.440   9.672  0.9448  1.2859 -0.8579
  120MOL0     H16169   7.394   1.428   9.530  0.7250  2.6232  1.4327
  120MOL0     H16170   7.271   1.220   9.453  1.1166  0.7112  0.9812
  120MOL0     H16171   7.175   1.369   9.469  0.5459  0.0472  0.6465
  120MOL0     H16172   7.188   1.164   9.699  1.7354 -0.8828 -1.6394
  120MOL0     H16173   7.065   1.280   9.663  0.1956 -0.6271  0.4723
  120MOL0     H16174   7.000   1.055   9.594  2.3842 -1.4666  1.7644
  120MOL0     H16175   7.140   1.034   9.493 -0.6577 -0.1755  0.4023
  120MOL0     H16176   7.052   1.180   9.327  0.9335  1.8970  1.5728
  120MOL0     H16177   6.923   1.080   9.376 -1.2845  0.7545  2.0905
  120MOL0     H16178   6.948   1.370   9.473 -0.1584  0.7635 -2.9867
  120MOL0     H16179   6.851   1.245   9.554 -0.2058  2.4974  0.8535
  120MOL0     H16180   6.814   1.333   9.273  1.4077 -2.3934  0.0454
  120MOL0     H16181   6.722   1.399   9.414  0.2317 -0.7525  4.1706
  120MOL0     H16182   7.581   1.068   9.704 -0.2903  1.0861  0.7825
  120MOL0     H16183   7.787   0.952   9.711 -1.1783  0.6565  0.2059
  120MOL0     H16184   8.209   1.061   9.941 -0.0372  1.8841 -1.0280
  120MOL0     H16185   8.411   0.983  10.037  0.0379  2.4263 -0.1493
  120MOL0     H16186  10.125   0.815   9.233 -0.1756 -0.6373  0.1034
  120MOL0     H16187  10.361   0.881   9.216 -2.7383  0.3786 -0.1071
  120MOL0     H16188  10.789   0.726   9.014  1.1925 -2.1884  0.1793
  120MOL0     H16189  11.040   0.744   9.014 -0.1177  1.8518 -0.2634
  120MOL0     H16190  11.282   0.774   9.399 -0.3497 -0.3941 -0.1431
  120MOL0     H16191  11.224   0.612   9.367  5.1619 -1.3671  3.3901
  120MOL0     H16192  11.461   0.625   9.350 -1.1382 -0.9099  1.1035
  120MOL0     H16193  11.439   0.747   9.218 -1.0912 -0.4443 -2.6282
  120MOL0     H16194  11.306   0.519   9.120  0.6652  0.4071 -0.9522
  120MOL0     H16195  11.392   0.433   9.239  1.1605 -2.4542 -1.5810
  120MOL0     H16196  11.518   0.580   8.996  1.8340 -1.5274 -1.2125
  120MOL0     H16197  11.514   0.414   9.028 -2.0547 -1.0901  1.7546
  120MOL0     H16198  11.843   0.489   9.250  0.9019 -0.5492 -0.1654
  120MOL0     H16199  11.031   0.717   9.443 -0.4049 -2.1010 -1.0576
  120MOL0     H16200  10.795   0.723   9.432  1.3191  0.6885  0.3193
  121MOL0     O16201   5.391   3.384  10.417  0.3586  0.0276  1.1740
  121MOL0     C16202   5.406   3.338  10.301 -0.3227  0.9135 -0.2114
  121MOL0     O16203   5.313   3.274  10.229  0.2396 -0.5236  0.0363
  121MOL0     C16204   5.193   3.255  10.291 -0.4835 -0.7352  0.4514
  121MOL0     C16205   5.098   3.360  10.299 -0.0985  0.4996 -0.3536
  121MOL0     C16206   4.969   3.331  10.340  0.3946 -0.4943 -1.1180
  121MOL0     C16207   4.938   3.200  10.392 -0.1876 -0.1232 -0.9705
  121MOL0     O16208   4.822   3.171  10.449  0.3383 -0.8478 -0.1926
  121MOL0     C16209   4.770   3.270  10.548 -0.0385 -0.1780  0.1831
  121MOL0     C16210   4.619   3.288  10.518 -0.3414  0.2324  0.2261
  121MOL0     C16211   4.538   3.348  10.637 -0.3837 -0.2141 -0.4627
  121MOL0     C16212   4.394   3.315  10.609 -0.1890 -0.1329  0.2489
  121MOL0     C16213   4.303   3.331  10.736 -0.0136  0.1737  0.1760
  121MOL0     C16214   4.156   3.347  10.700  1.0627  0.0604 -0.4566
  121MOL0     C16215   4.082   3.347  10.827  0.4852  0.1766 -0.8726
  121MOL0     C16216   3.929   3.356  10.803 -0.1845 -0.2359  0.3656
  121MOL0     N16217   3.845   3.418  10.910 -0.3200  0.3995 -0.1173
  121MOL0     C16218   3.738   3.360  10.970 -0.0486 -0.3324 -0.4198
  121MOL0     C16219   3.710   3.427  11.083  0.3025 -0.1713  0.7423
  121MOL0     C16220   3.608   3.408  11.190 -0.2139 -1.0101  0.6475
  121MOL0     C16221   3.489   3.312  11.147  0.6316 -0.5892  0.2880
  121MOL0     C16222   3.354   3.344  11.217 -0.0035  0.5603  0.0860
  121MOL0     C16223   3.238   3.355  11.117  0.5043  0.5860  0.1119
  121MOL0     O16224   3.122   3.341  11.195 -0.6316  0.1832 -0.8784
  121MOL0     C16225   3.015   3.272  11.142 -1.0715  0.8461  0.4411
  121MOL0     C16226   2.989   3.218  11.004 -0.1517 -1.1569 -0.0107
  121MOL0     C16227   2.864   3.168  10.971 -0.0526 -0.1822  0.4046
  121MOL0     C16228   2.837   3.106  10.837  0.5784 -0.5799  0.5354
  121MOL0     C16229   2.759   3.175  11.063 -0.5449  0.4851 -0.7885
  121MOL0     C16230   2.633   3.097  11.049 -0.1581 -0.4778  0.0679
  121MOL0     O16231   2.529   3.148  11.118 -0.0818 -0.0314 -1.2218
  121MOL0     C16232   2.424   3.074  11.149  0.7022 -0.6415 -0.1196
  121MOL0     C16233   2.431   2.937  11.194  0.2484 -1.0080  0.3476
  121MOL0     C16234   2.311   2.871  11.232 -0.3196  1.4472 -0.0634
  121MOL0     C16235   2.186   2.939  11.235 -0.3538  0.3026 -0.9467
  121MOL0     O16236   2.078   2.878  11.293  0.5530 -0.5124 -0.0980
  121MOL0     C16237   1.953   2.949  11.288  0.6175 -0.5673  0.3819
  121MOL0     C16238   1.842   2.862  11.349 -0.1087 -0.3492  0.0726
  121MOL0     C16239   1.830   2.729  11.271 -0.6364  0.8313 -0.1195
  121MOL0     C16240   1.731   2.625  11.326 -0.2999 -0.0380 -0.1057
  121MOL0     C16241   1.775   2.567  11.456  0.8598  1.1329  0.1405
  121MOL0     C16242   1.694   2.439  11.487  0.6780 -0.5132 -0.3025
  121MOL0     C16243   1.759   2.358  11.605 -0.0843  0.1381  0.2834
  121MOL0     C16244   1.770   2.436  11.740 -0.4915 -0.8150  0.3696
  121MOL0    Cl16245   1.866   2.324  11.846 -0.0858  0.2991 -0.0384
  121MOL0     C16246   2.186   3.073  11.196  0.0034 -0.6416 -0.3416
  121MOL0     C16247   2.302   3.139  11.146  0.1730  0.0336  0.1832
  121MOL0     O16248   2.621   2.994  10.985  0.2368 -0.0685 -0.1542
  121MOL0     C16249   2.784   3.228  11.189  0.5120 -0.2528 -0.7114
  121MOL0     C16250   2.916   3.269  11.230  0.7962 -0.5558  0.2840
  121MOL0     N16251   3.794   3.543  11.070  0.3687  0.1099  0.0733
  121MOL0     N16252   3.875   3.535  10.972 -0.2166 -0.3216 -0.4325
  121MOL0     C16253   5.034   3.102  10.385  0.4440  0.9836 -0.0731
  121MOL0     C16254   5.169   3.123  10.335  0.8354  0.9169 -0.9809
  121MOL0     C16255   5.540   3.356  10.241  0.0079 -0.3884  0.1063
  121MOL0     C16256   5.567   3.300  10.117  0.0961 -0.7721  0.7585
  121MOL0     C16257   5.703   3.306  10.062  0.9064 -0.0591  0.1755
  121MOL0     C16258   5.806   3.378  10.130  0.5422 -0.4675  0.0722
  121MOL0     O16259   5.939   3.394  10.093  0.4674  0.1404 -0.0581
  121MOL0     C16260   5.972   3.361   9.960  0.3898  0.1115 -0.6892
  121MOL0     C16261   6.097   3.449   9.922  0.7929 -0.5722 -0.6954
  121MOL0     C16262   6.218   3.358   9.908 -0.1618  0.2900 -0.2274
  121MOL0     C16263   6.355   3.424   9.861  0.4215  0.2672  0.3576
  121MOL0     C16264   6.443   3.305   9.855 -0.1293  0.5303  0.4794
  121MOL0     C16265   6.515   3.204   9.874  0.4690  0.6142  0.4823
  121MOL0     C16266   5.777   3.435  10.258 -0.2352  1.2003 -0.8418
  121MOL0     C16267   5.647   3.421  10.310  0.0458 -1.1514 -0.6246
  121MOL0     H16268   5.134   3.457  10.269 -2.1955  1.2974 -0.4707
  121MOL0     H16269   4.899   3.415  10.342  0.0838 -0.7490  0.4952
  121MOL0     H16270   4.793   3.232  10.648  0.5497  0.8425  0.4517
  121MOL0     H16271   4.816   3.369  10.540  1.1156 -0.8047 -1.5952
  121MOL0     H16272   4.614   3.346  10.425  0.7958 -1.2727 -0.8293
  121MOL0     H16273   4.579   3.189  10.496  0.2337 -0.2005  1.0645
  121MOL0     H16274   4.564   3.299  10.731 -3.7782 -1.6703 -0.1490
  121MOL0     H16275   4.560   3.454  10.652  0.4203 -0.0756 -2.3778
  121MOL0     H16276   4.356   3.385  10.534  0.6808 -0.3406 -0.4040
  121MOL0     H16277   4.386   3.214  10.567  1.1526  0.0663 -0.5301
  121MOL0     H16278   4.314   3.241  10.797 -0.1092  0.7663  1.0867
  121MOL0     H16279   4.333   3.411  10.804  0.6800 -2.5271  3.3410
  121MOL0     H16280   4.136   3.439  10.644 -1.5639 -0.7885 -1.0602
  121MOL0     H16281   4.116   3.266  10.638 -1.2504  2.5337 -2.4609
  121MOL0     H16282   4.109   3.265  10.894  1.0341 -0.1028 -1.4306
  121MOL0     H16283   4.108   3.441  10.877 -4.0210  1.5191 -0.5453
  121MOL0     H16284   3.904   3.253  10.780 -0.3066 -0.2371  0.5067
  121MOL0     H16285   3.917   3.417  10.712  0.4079 -1.1216 -0.3236
  121MOL0     H16286   3.706   3.259  10.946  0.6254 -0.6141 -0.1654
  121MOL0     H16287   3.662   3.371  11.278  4.1781  1.1448 -0.8747
  121MOL0     H16288   3.580   3.512  11.211 -2.4194 -1.5716  0.7746
  121MOL0     H16289   3.520   3.208  11.152  1.3945 -0.5164 -1.7094
  121MOL0     H16290   3.466   3.338  11.043 -3.6564 -0.5983  1.0571
  121MOL0     H16291   3.356   3.434  11.279  0.3057  0.7990 -0.2633
  121MOL0     H16292   3.338   3.259  11.283  2.7361  0.9720  1.4425
  121MOL0     H16293   3.243   3.271  11.046  0.7100 -1.5054  2.4833
  121MOL0     H16294   3.243   3.451  11.064  1.8774  0.4352 -0.0713
  121MOL0     H16295   3.071   3.209  10.934  0.5457  0.2555  0.6052
  121MOL0     H16296   2.895   3.168  10.768 -1.0255  0.2062 -0.1673
  121MOL0     H16297   2.849   2.998  10.826 -2.5024 -0.9224 -0.7002
  121MOL0     H16298   2.734   3.128  10.805  0.2050  0.0861  2.1062
  121MOL0     H16299   2.521   2.880  11.216  0.8024 -0.4760 -0.4742
  121MOL0     H16300   2.316   2.771  11.274 -0.8588  1.5827  0.3424
  121MOL0     H16301   1.947   3.047  11.337 -2.4131 -0.2770 -0.3581
  121MOL0     H16302   1.931   2.966  11.182  0.5833 -0.9082  0.3341
  121MOL0     H16303   1.872   2.844  11.453 -0.4187 -2.2090 -0.1316
  121MOL0     H16304   1.749   2.920  11.350  0.5499  0.7339  0.5520
  121MOL0     H16305   1.926   2.682  11.253 -1.7166 -0.7160 -2.2485
  121MOL0     H16306   1.790   2.747  11.171  0.3674  1.8632 -0.3511
  121MOL0     H16307   1.633   2.670  11.349  0.8669  1.5406  2.2019
  121MOL0     H16308   1.722   2.545  11.253 -1.1112 -0.5827  0.5650
  121MOL0     H16309   1.754   2.642  11.533  1.9279  0.5140  1.0470
  121MOL0     H16310   1.880   2.540  11.447  1.6769  2.1827  4.3113
  121MOL0     H16311   1.595   2.465  11.526 -1.6664 -2.3033 -4.4199
  121MOL0     H16312   1.695   2.385  11.392 -0.9008  1.3054 -1.4430
  121MOL0     H16313   1.859   2.332  11.571  0.0735  0.1905  0.7129
  121MOL0     H16314   1.698   2.269  11.625 -2.9685  1.6476 -1.0520
  121MOL0     H16315   1.669   2.444  11.781 -1.3129 -0.0874 -1.6911
  121MOL0     H16316   1.821   2.532  11.733  0.6833 -1.3018  1.6933
  121MOL0     H16317   2.097   3.135  11.192  0.6160  0.3778  1.1694
  121MOL0     H16318   2.299   3.245  11.121  1.5913  0.3201  1.0715
  121MOL0     H16319   2.714   3.241  11.271  0.0994  2.4896 -1.4024
  121MOL0     H16320   2.937   3.302  11.331  0.2888 -1.0246  0.5479
  121MOL0     H16321   4.998   3.005  10.416  0.4674  0.7098 -0.8790
  121MOL0     H16322   5.224   3.038  10.298 -2.0282 -1.8863  0.6543
  121MOL0     H16323   5.485   3.251  10.064  2.3789 -1.6685 -2.2672
  121MOL0     H16324   5.717   3.259   9.965  2.0758  0.3624  0.1177
  121MOL0     H16325   5.995   3.255   9.942 -1.8330  0.1424 -4.7597
  121MOL0     H16326   5.885   3.386   9.899 -1.4049  1.4477  2.1933
  121MOL0     H16327   6.116   3.533   9.990  2.0226 -0.1121 -1.5742
  121MOL0     H16328   6.071   3.493   9.825 -1.4364 -3.0086 -1.3088
  121MOL0     H16329   6.203   3.275   9.839  1.3366  0.4193 -0.7473
  121MOL0     H16330   6.246   3.306  10.001  3.9686 -1.9601 -2.4460
  121MOL0     H16331   6.401   3.494   9.932  2.6299 -1.3121  0.5816
  121MOL0     H16332   6.356   3.479   9.766 -1.3269 -0.0465  0.1265
  121MOL0     H16333   6.585   3.125   9.890 -2.2480 -2.0668  0.0857
  121MOL0     H16334   5.859   3.480  10.314  0.8510  1.0713 -2.2848
  121MOL0     H16335   5.639   3.447  10.415 -1.7449 -2.3337 -0.4176
  122MOL0     O16336  10.997   0.046   1.949  1.1643 -0.4209 -0.2228
  122MOL0     C16337  11.037  -0.068   1.938  0.3131 -0.5003 -0.4660
  122MOL0     O16338  10.970  -0.172   1.882  0.5268  0.6073  0.5587
  122MOL0     C16339  10.846  -0.149   1.835 -0.6401 -0.5215 -0.1490
  122MOL0     C16340  10.813  -0.044   1.750  0.1721  0.0945 -0.1832
  122MOL0     C16341  10.678  -0.027   1.715 -0.0508  1.4017 -0.3417
  122MOL0     C16342  10.570  -0.115   1.759 -0.3688  0.3764  0.6207
  122MOL0     O16343  10.432  -0.097   1.740  0.0853 -0.4367  0.6667
  122MOL0     C16344  10.392   0.032   1.698  0.4487  1.0486 -1.5470
  122MOL0     C16345  10.241   0.041   1.701  1.1486 -0.1652 -0.3657
  122MOL0     C16346  10.187   0.181   1.665 -0.6863 -0.8051 -0.2729
  122MOL0     C16347  10.033   0.193   1.663  0.8170  0.2355 -0.7768
  122MOL0     C16348  10.002   0.334   1.615  0.5405 -0.7714 -0.6385
  122MOL0     C16349   9.857   0.362   1.592  0.6254  1.5119 -0.5545
  122MOL0     C16350   9.797   0.398   1.726 -0.7547  1.0426  0.8953
  122MOL0     C16351   9.649   0.410   1.730  0.3555 -0.3930  0.3653
  122MOL0     N16352   9.601   0.528   1.657 -0.2122  0.1741  0.1123
  122MOL0     C16353   9.598   0.653   1.699 -0.7680 -0.3508  0.3251
  122MOL0     C16354   9.568   0.726   1.586 -0.2658  0.3668  1.0004
  122MOL0     C16355   9.562   0.877   1.570 -0.6162  0.2602 -0.6641
  122MOL0     C16356   9.434   0.937   1.635  0.7871 -0.6761 -0.5296
  122MOL0     C16357   9.314   0.889   1.562 -0.0641 -0.3371 -0.0155
  122MOL0     C16358   9.186   0.973   1.607  1.3095 -0.4739 -0.9896
  122MOL0     O16359   9.066   0.900   1.584 -0.7685 -0.2763 -0.1962
  122MOL0     C16360   8.946   0.960   1.594 -0.5008 -0.0612 -0.1983
  122MOL0     C16361   8.918   1.092   1.640  0.1285 -0.1757  0.6020
  122MOL0     C16362   8.788   1.140   1.647 -0.0944 -0.5458  0.3279
  122MOL0     C16363   8.775   1.289   1.692  0.5340  0.0808 -0.5152
  122MOL0     C16364   8.684   1.059   1.594  1.1973  0.5818  0.0510
  122MOL0     C16365   8.538   1.089   1.594 -0.5302  0.1759  0.8154
  122MOL0     O16366   8.447   0.987   1.584  0.1886 -0.5778 -0.1002
  122MOL0     C16367   8.309   1.004   1.584  0.3026 -0.0886 -0.3199
  122MOL0     C16368   8.232   0.916   1.503 -0.1719 -0.9032 -0.3333
  122MOL0     C16369   8.096   0.930   1.498 -0.2590 -0.9050  0.5100
  122MOL0     C16370   8.027   1.022   1.579 -0.4147  0.6571  0.2616
  122MOL0     O16371   7.890   1.016   1.563  0.0132  0.5357  0.4283
  122MOL0     C16372   7.797   1.085   1.650 -0.6343 -0.8878  0.0191
  122MOL0     C16373   7.647   1.029   1.625  0.1307  0.1448 -0.4678
  122MOL0     C16374   7.548   1.115   1.698 -0.2163  0.4618  0.2990
  122MOL0     C16375   7.424   1.042   1.688  0.6388  0.2848  0.1831
  122MOL0     C16376   7.306   1.128   1.728 -0.0866 -0.1166 -0.2370
  122MOL0     C16377   7.294   1.167   1.880  0.1993  0.2591 -0.2195
  122MOL0     C16378   7.185   1.264   1.895  0.2044  0.1217 -0.5099
  122MOL0     C16379   7.228   1.365   2.003  0.2223  0.1732 -0.6142
  122MOL0    Cl16380   7.101   1.486   2.028 -0.2395 -0.2049  0.1736
  122MOL0     C16381   8.104   1.103   1.666  0.2638 -0.1974 -0.6208
  122MOL0     C16382   8.240   1.092   1.665 -0.7965 -0.2650  0.3391
  122MOL0     O16383   8.511   1.208   1.604  0.3004 -0.0189 -0.0076
  122MOL0     C16384   8.717   0.929   1.554  0.5670  0.5177  0.2662
  122MOL0     C16385   8.843   0.880   1.563 -0.4530 -0.6610 -0.3132
  122MOL0     N16386   9.540   0.637   1.480 -0.0600  0.1116 -0.0358
  122MOL0     N16387   9.569   0.520   1.524  0.6605 -0.3387  0.1448
  122MOL0     C16388  10.613  -0.226   1.832  0.0344 -0.2847 -0.3845
  122MOL0     C16389  10.745  -0.242   1.874  0.2898  0.8369  0.2277
  122MOL0     C16390  11.174  -0.085   1.991  0.0960 -0.4046 -0.1861
  122MOL0     C16391  11.253  -0.201   1.953  0.4943 -0.2475 -0.4372
  122MOL0     C16392  11.384  -0.221   1.996 -0.8679 -0.2001  0.8012
  122MOL0     C16393  11.436  -0.118   2.077  0.1208  0.4045 -0.0674
  122MOL0     O16394  11.567  -0.134   2.123 -0.4670 -0.0314 -0.1075
  122MOL0     C16395  11.650  -0.237   2.069  0.1908 -0.1545  0.3358
  122MOL0     C16396  11.800  -0.203   2.099  0.6627  1.1900 -0.7273
  122MOL0     C16397  11.835  -0.206   2.243  0.6635 -0.6311  0.6735
  122MOL0     C16398  11.984  -0.152   2.271 -0.1711  0.1864 -0.5728
  122MOL0     C16399  12.004  -0.124   2.411 -0.1052 -0.5204 -0.5580
  122MOL0     C16400  12.038  -0.102   2.533  0.8208 -0.0176  1.0007
  122MOL0     C16401  11.364  -0.009   2.126  0.2616  0.1866 -0.5981
  122MOL0     C16402  11.230   0.015   2.082 -0.4553  0.2905  0.4768
  122MOL0     H16403  10.885   0.035   1.732 -0.0547  0.6917  1.4089
  122MOL0     H16404  10.646   0.060   1.659 -1.4335 -0.3348 -2.4501
  122MOL0     H16405  10.439   0.098   1.772 -0.2681 -1.5914  1.4686
  122MOL0     H16406  10.421   0.050   1.595  1.6935  0.4787 -1.3095
  122MOL0     H16407  10.200  -0.022   1.621  1.1955  0.7355 -1.1083
  122MOL0     H16408  10.208   0.000   1.797  4.1428 -3.1246 -0.4093
  122MOL0     H16409  10.220   0.257   1.736 -1.2311  1.1076 -1.9667
  122MOL0     H16410  10.229   0.202   1.565 -1.4824 -1.5462 -0.7747
  122MOL0     H16411   9.994   0.123   1.588  0.6445  0.8293 -1.2573
  122MOL0     H16412   9.986   0.170   1.758  1.7875  1.3970  0.0134
  122MOL0     H16413  10.045   0.402   1.688 -1.2522 -3.4540  3.2466
  122MOL0     H16414  10.048   0.346   1.516 -0.3436 -1.7321 -1.1824
  122MOL0     H16415   9.836   0.435   1.513 -0.6535  1.3723 -0.3585
  122MOL0     H16416   9.811   0.270   1.554 -0.3723  1.6118  0.3869
  122MOL0     H16417   9.835   0.327   1.800 -0.3279  0.3656  0.0441
  122MOL0     H16418   9.850   0.489   1.756  1.8514  0.2399 -0.9732
  122MOL0     H16419   9.599   0.432   1.825 -3.0123  0.1916 -1.4067
  122MOL0     H16420   9.601   0.319   1.694  0.5612 -1.4725  2.6397
  122MOL0     H16421   9.605   0.684   1.803  1.0342 -1.0738  0.4565
  122MOL0     H16422   9.647   0.932   1.613  0.0194  0.7495 -2.4603
  122MOL0     H16423   9.558   0.897   1.463  2.3298 -0.0745 -0.9309
  122MOL0     H16424   9.438   1.046   1.637 -0.9551 -0.4862  4.0382
  122MOL0     H16425   9.432   0.907   1.740  0.5302  0.7924 -0.0993
  122MOL0     H16426   9.296   0.787   1.595  1.5956  0.5860  4.6198
  122MOL0     H16427   9.326   0.895   1.454  1.4923 -0.3906  0.1350
  122MOL0     H16428   9.186   1.077   1.573 -3.0729 -0.3993 -1.3663
  122MOL0     H16429   9.187   0.977   1.716 -3.0440  1.1129 -0.7786
  122MOL0     H16430   8.988   1.150   1.699 -0.5510  2.2945 -0.8718
  122MOL0     H16431   8.853   1.301   1.768 -1.8851 -2.0476  2.5514
  122MOL0     H16432   8.798   1.350   1.603  1.9026 -0.8480 -0.8363
  122MOL0     H16433   8.684   1.324   1.740  0.0672 -0.4742 -0.9867
  122MOL0     H16434   8.283   0.840   1.444 -0.0799 -0.0320 -1.4094
  122MOL0     H16435   8.036   0.863   1.439  1.1781 -1.1928 -0.6814
  122MOL0     H16436   7.826   1.054   1.751 -1.3136 -0.8209  0.2393
  122MOL0     H16437   7.792   1.194   1.639  0.7623 -0.9541 -1.7032
  122MOL0     H16438   7.619   1.035   1.520 -1.7417  1.4949  0.0585
  122MOL0     H16439   7.634   0.922   1.647 -1.5280  0.4652  0.3018
  122MOL0     H16440   7.550   1.220   1.669  2.7930  0.3565 -0.2194
  122MOL0     H16441   7.573   1.113   1.805 -0.1713 -1.9161  0.3040
  122MOL0     H16442   7.413   1.019   1.582 -0.2520  0.2452  0.2708
  122MOL0     H16443   7.421   0.944   1.736 -0.7930 -0.0209 -0.4865
  122MOL0     H16444   7.213   1.097   1.680 -0.3588  0.8233 -0.3387
  122MOL0     H16445   7.326   1.225   1.683 -0.8480  0.7078  1.1177
  122MOL0     H16446   7.269   1.078   1.939 -0.6860  0.9862  0.5367
  122MOL0     H16447   7.391   1.202   1.915 -0.8321  0.7414  2.3629
  122MOL0     H16448   7.091   1.215   1.921 -1.0707  1.7712 -1.8652
  122MOL0     H16449   7.155   1.303   1.798 -1.2367  0.7789  0.1710
  122MOL0     H16450   7.324   1.416   1.988 -0.7615  2.7059  1.1349
  122MOL0     H16451   7.239   1.315   2.100  0.3294  0.7795 -0.3110
  122MOL0     H16452   8.068   1.185   1.728  2.0604  1.8298 -2.1339
  122MOL0     H16453   8.300   1.155   1.730  1.2272 -1.8305  0.0871
  122MOL0     H16454   8.639   0.870   1.508  0.9300  0.1088  0.1676
  122MOL0     H16455   8.872   0.781   1.529  3.4278  0.2061  0.0281
  122MOL0     H16456  10.534  -0.294   1.862  0.3377 -0.7916 -0.7227
  122MOL0     H16457  10.778  -0.323   1.938  0.2746  0.8371  0.2357
  122MOL0     H16458  11.197  -0.274   1.894 -1.1966 -1.2079  2.1543
  122MOL0     H16459  11.446  -0.300   1.955 -1.2430  0.3879 -1.0092
  122MOL0     H16460  11.632  -0.335   2.114 -1.0066 -0.8810 -1.6097
  122MOL0     H16461  11.641  -0.245   1.960 -2.2701  0.4770  0.4124
  122MOL0     H16462  11.817  -0.105   2.054  3.2206  1.5554  0.8358
  122MOL0     H16463  11.863  -0.276   2.047 -1.7466  0.1535 -2.3975
  122MOL0     H16464  11.811  -0.301   2.290 -0.5430 -0.6218  0.1371
  122MOL0     H16465  11.766  -0.129   2.279  0.1485 -0.1495 -1.1815
  122MOL0     H16466  12.005  -0.061   2.213 -0.7572  0.4530 -0.3697
  122MOL0     H16467  12.048  -0.238   2.248 -0.6322 -0.1413 -0.6486
  122MOL0     H16468  12.050  -0.068   2.634 -0.8347  0.5178  1.0518
  122MOL0     H16469  11.398   0.075   2.187 -0.6412  1.3845 -1.6817
  122MOL0     H16470  11.169   0.100   2.112 -2.4120 -0.7798 -0.2504
  123MOL0     O16471   2.612   3.662   8.014 -0.3677  0.1903 -0.0914
  123MOL0     C16472   2.642   3.605   8.120  0.7969  0.8311 -0.0284
  123MOL0     O16473   2.562   3.594   8.234 -0.3559 -0.0402 -0.1177
  123MOL0     C16474   2.428   3.628   8.224  0.3188 -0.2959  0.4485
  123MOL0     C16475   2.344   3.631   8.109 -0.3020 -0.5725 -0.1150
  123MOL0     C16476   2.211   3.669   8.126  0.9773  0.3634 -0.4374
  123MOL0     C16477   2.163   3.725   8.246  0.7760  0.4298  1.0403
  123MOL0     O16478   2.048   3.789   8.274 -0.7645 -0.0074 -0.0176
  123MOL0     C16479   1.988   3.844   8.153 -0.0252 -0.5267 -0.2343
  123MOL0     C16480   1.890   3.755   8.084 -0.4963 -0.6907 -0.2579
  123MOL0     C16481   1.841   3.820   7.946  0.3111 -0.3222 -0.3394
  123MOL0     C16482   1.734   3.730   7.890  0.0295  0.3383  0.1523
  123MOL0     C16483   1.649   3.789   7.776 -0.2008  0.2844 -0.3963
  123MOL0     C16484   1.548   3.692   7.724 -0.4298  0.3676  0.5556
  123MOL0     C16485   1.442   3.755   7.635  0.5638  0.4826 -0.2450
  123MOL0     C16486   1.343   3.647   7.584  0.3108 -0.2895 -0.5318
  123MOL0     N16487   1.206   3.660   7.645  0.1406  0.3483 -0.1528
  123MOL0     C16488   1.097   3.727   7.594 -0.5868 -0.9647 -0.4463
  123MOL0     C16489   0.989   3.690   7.671 -0.2358  0.7008  0.6414
  123MOL0     C16490   0.852   3.735   7.636  0.9803 -0.1846 -0.3685
  123MOL0     C16491   0.740   3.663   7.712  0.1397  0.3358  0.4419
  123MOL0     C16492   0.605   3.713   7.686  0.1523  0.4508 -0.4903
  123MOL0     C16493   0.484   3.621   7.738 -0.9085 -0.1367 -0.3364
  123MOL0     O16494   0.366   3.692   7.709  0.1562 -0.2839  0.0244
  123MOL0     C16495   0.244   3.655   7.761  0.2379  0.2950  0.1031
  123MOL0     C16496   0.219   3.561   7.865  0.0335  0.6239  0.8734
  123MOL0     C16497   0.085   3.537   7.904  0.5157  0.0911 -0.6291
  123MOL0     C16498   0.080   3.446   8.023 -0.3849  0.9860  0.2487
  123MOL0     C16499  -0.026   3.591   7.841  0.4236 -0.2216 -0.4172
  123MOL0     C16500  -0.167   3.564   7.882 -0.2896  0.2272  0.5918
  123MOL0     O16501  -0.261   3.632   7.815  0.7280  0.2661 -0.1022
  123MOL0     C16502  -0.396   3.615   7.836 -0.4862 -0.3784  0.2732
  123MOL0     C16503  -0.465   3.512   7.777 -0.6534  0.1812  0.4513
  123MOL0     C16504  -0.601   3.496   7.795  0.3549  0.0443 -0.5482
  123MOL0     C16505  -0.668   3.592   7.863  0.7680 -0.0114 -0.7230
  123MOL0     O16506  -0.801   3.576   7.896  0.7128 -0.4273  0.9241
  123MOL0     C16507  -0.893   3.694   7.898 -0.6919  0.1567 -0.5931
  123MOL0     C16508  -1.044   3.650   7.874 -0.7933 -0.1131 -0.5402
  123MOL0     C16509  -1.134   3.765   7.923 -0.1627 -0.0585  0.7997
  123MOL0     C16510  -1.276   3.754   7.878 -0.4377 -0.4103 -0.0900
  123MOL0     C16511  -1.359   3.876   7.920 -0.0912  0.8336 -0.0938
  123MOL0     C16512  -1.508   3.830   7.957 -0.7105  0.1547  0.3233
  123MOL0     C16513  -1.597   3.945   7.987 -0.4815 -0.0960  0.2439
  123MOL0     C16514  -1.735   3.896   8.013  0.2757  0.2359 -0.2639
  123MOL0    Cl16515  -1.803   3.846   7.856 -0.1726  0.0826 -0.0157
  123MOL0     C16516  -0.604   3.698   7.928 -0.7000 -0.3301 -0.5751
  123MOL0     C16517  -0.466   3.709   7.906  0.1584  0.0517 -0.3931
  123MOL0     O16518  -0.189   3.484   7.968  0.1003 -1.1994 -0.0260
  123MOL0     C16519  -0.003   3.689   7.742 -0.2067  0.4987 -0.2555
  123MOL0     C16520   0.132   3.724   7.705  0.3028  0.2199 -0.0308
  123MOL0     N16521   1.032   3.578   7.754 -0.0011  0.5365 -0.7162
  123MOL0     N16522   1.161   3.569   7.737 -0.2846 -0.0775 -0.7533
  123MOL0     C16523   2.247   3.712   8.356 -0.3965  0.0540  0.6749
  123MOL0     C16524   2.379   3.668   8.347  0.2014 -0.1265 -0.5012
  123MOL0     C16525   2.784   3.559   8.126  0.4900  0.3849 -0.0915
  123MOL0     C16526   2.874   3.578   8.018  0.3501  0.0188 -0.2042
  123MOL0     C16527   3.004   3.532   8.029  0.4245 -0.0539 -0.4075
  123MOL0     C16528   3.058   3.478   8.143  0.7286 -0.2338  0.2811
  123MOL0     O16529   3.189   3.431   8.164  0.2252 -0.7343  0.4393
  123MOL0     C16530   3.279   3.450   8.055 -0.4988  0.6128 -0.4221
  123MOL0     C16531   3.414   3.451   8.126  0.3933 -0.7761  0.2173
  123MOL0     C16532   3.527   3.480   8.017  0.0267 -0.1791  0.2256
  123MOL0     C16533   3.638   3.573   8.077  0.6066  0.2296  0.5389
  123MOL0     C16534   3.749   3.579   7.975 -0.0372 -0.0073 -0.5048
  123MOL0     C16535   3.822   3.615   7.884  0.4224 -0.3866 -1.1565
  123MOL0     C16536   2.963   3.449   8.247 -0.1726  0.1056 -0.7569
  123MOL0     C16537   2.829   3.488   8.239 -0.7088  0.2446 -0.0421
  123MOL0     H16538   2.383   3.590   8.016  2.2154 -1.7107  1.3436
  123MOL0     H16539   2.141   3.658   8.044  0.5166 -1.4331  0.1525
  123MOL0     H16540   1.927   3.924   8.197 -2.8584 -0.9263 -3.1023
  123MOL0     H16541   2.058   3.890   8.082 -1.5741  0.9587 -0.8559
  123MOL0     H16542   1.941   3.660   8.063 -0.1261 -1.0322  2.0132
  123MOL0     H16543   1.802   3.735   8.146  0.0731 -0.5471  0.5951
  123MOL0     H16544   1.813   3.925   7.956  2.7440  0.2816  0.7188
  123MOL0     H16545   1.919   3.836   7.872 -2.3587  3.2359 -2.7080
  123MOL0     H16546   1.782   3.639   7.853 -1.0022  0.0311 -0.4924
  123MOL0     H16547   1.664   3.695   7.966 -0.6115  0.1158 -0.5227
  123MOL0     H16548   1.587   3.876   7.802 -3.3023 -1.7479 -0.4491
  123MOL0     H16549   1.725   3.821   7.703  0.3275  0.2118  0.1191
  123MOL0     H16550   1.596   3.615   7.664  1.0553  0.3755  1.6878
  123MOL0     H16551   1.503   3.643   7.811  0.9639 -1.0535  0.5152
  123MOL0     H16552   1.384   3.837   7.679 -2.1028  2.4786 -6.4391
  123MOL0     H16553   1.504   3.791   7.553  2.7744 -1.1596  0.6113
  123MOL0     H16554   1.387   3.550   7.608 -0.0085 -0.3730 -0.2751
  123MOL0     H16555   1.336   3.654   7.475 -1.5970 -1.5149 -0.5326
  123MOL0     H16556   1.097   3.807   7.521 -1.3617 -0.5398  0.0062
  123MOL0     H16557   0.839   3.843   7.649  2.0038 -0.1305  0.3238
  123MOL0     H16558   0.842   3.716   7.528  0.0632  4.2272 -1.2416
  123MOL0     H16559   0.767   3.654   7.818  1.3906  1.2731  0.2261
  123MOL0     H16560   0.754   3.559   7.682  2.8144  1.0271 -1.1010
  123MOL0     H16561   0.585   3.730   7.580  1.2791  2.4645 -0.4238
  123MOL0     H16562   0.595   3.806   7.742 -0.2838 -0.0443  0.2869
  123MOL0     H16563   0.487   3.600   7.845 -0.8645  0.3464 -0.2402
  123MOL0     H16564   0.485   3.525   7.686 -0.9575 -0.2866 -0.0603
  123MOL0     H16565   0.294   3.506   7.920 -1.0498 -0.0349  1.7323
  123MOL0     H16566   0.178   3.439   8.073 -0.4272 -1.6091  0.1051
  123MOL0     H16567   0.015   3.490   8.099 -0.7209  1.4413 -0.3054
  123MOL0     H16568   0.057   3.343   7.991 -0.4811  0.4440  1.9540
  123MOL0     H16569  -0.409   3.432   7.731 -3.5088 -1.4945 -0.3284
  123MOL0     H16570  -0.656   3.403   7.778 -0.8645  0.7690 -0.7315
  123MOL0     H16571  -0.893   3.737   7.998 -0.9499  3.3216 -1.8332
  123MOL0     H16572  -0.865   3.777   7.833 -2.3024  2.2241  1.2283
  123MOL0     H16573  -1.052   3.637   7.766 -0.2064  2.5318 -0.9708
  123MOL0     H16574  -1.065   3.560   7.933 -0.9482 -0.0946 -0.5669
  123MOL0     H16575  -1.092   3.865   7.907 -0.3121 -0.1016  0.0641
  123MOL0     H16576  -1.131   3.751   8.031  0.5640 -0.7758  0.6935
  123MOL0     H16577  -1.279   3.728   7.771 -0.0423  0.8371 -0.4139
  123MOL0     H16578  -1.322   3.664   7.921 -2.3258 -0.7190 -2.4806
  123MOL0     H16579  -1.365   3.952   7.841 -0.8210  2.1013  1.1301
  123MOL0     H16580  -1.313   3.924   8.007 -0.1807  2.2202 -0.7764
  123MOL0     H16581  -1.557   3.780   7.873  1.0494 -0.1211 -0.5963
  123MOL0     H16582  -1.495   3.760   8.040 -1.2357 -4.2211 -2.9178
  123MOL0     H16583  -1.586   4.014   7.903  2.9411  1.6579  1.9176
  123MOL0     H16584  -1.566   3.993   8.080  0.3837 -1.1400  0.5242
  123MOL0     H16585  -1.804   3.975   8.045 -0.1629  0.9005 -2.6178
  123MOL0     H16586  -1.730   3.812   8.082  1.3622 -0.2617 -0.9310
  123MOL0     H16587  -0.656   3.766   7.996 -0.9707  0.7232 -1.7969
  123MOL0     H16588  -0.405   3.791   7.942 -2.6967  3.3977 -2.6183
  123MOL0     H16589  -0.086   3.722   7.680 -1.4679  2.5616  2.3280
  123MOL0     H16590   0.153   3.793   7.624 -1.1560 -0.0175 -0.6499
  123MOL0     H16591   2.199   3.734   8.451  0.4240 -3.4662  2.0425
  123MOL0     H16592   2.440   3.676   8.437 -1.2394  1.3942  0.4019
  123MOL0     H16593   2.849   3.630   7.926  1.1852 -1.7817 -1.5096
  123MOL0     H16594   3.067   3.550   7.942 -0.2634 -2.9442 -1.6319
  123MOL0     H16595   3.269   3.366   7.986 -3.0494 -2.4722  3.3176
  123MOL0     H16596   3.258   3.547   8.008 -0.9441  0.2990 -0.8825
  123MOL0     H16597   3.422   3.364   8.192 -0.4798 -2.3630 -1.6318
  123MOL0     H16598   3.411   3.533   8.197 -1.9876  1.7964 -2.5420
  123MOL0     H16599   3.488   3.539   7.934 -1.6880 -0.1484  1.0045
  123MOL0     H16600   3.576   3.385   7.995  2.7122  0.3323  3.1678
  123MOL0     H16601   3.673   3.529   8.172  0.3688 -0.4951  0.3003
  123MOL0     H16602   3.611   3.676   8.102  0.8288  0.4037  0.0699
  123MOL0     H16603   3.877   3.651   7.799  1.9885 -0.6128 -0.2736
  123MOL0     H16604   3.006   3.394   8.330 -1.1299  0.9127  0.3074
  123MOL0     H16605   2.770   3.467   8.327 -1.0622 -3.3598 -1.0009
  124MOL0     O16606   7.605   7.087  10.946 -0.9683  0.6662 -0.2921
  124MOL0     C16607   7.628   6.965  10.931 -0.5218 -1.0296  0.7273
  124MOL0     O16608   7.537   6.872  10.907  0.7964 -0.6013  0.1341
  124MOL0     C16609   7.403   6.894  10.880  0.4765 -0.1874  0.6251
  124MOL0     C16610   7.337   7.016  10.895  0.8884 -0.6912  0.3913
  124MOL0     C16611   7.200   7.026  10.868 -0.5176 -0.1598 -0.4919
  124MOL0     C16612   7.130   6.917  10.834  0.3757  0.0383 -0.2764
  124MOL0     O16613   7.001   6.946  10.794 -0.1611 -0.5394  0.2443
  124MOL0     C16614   6.901   6.842  10.780  0.4371  0.3036  0.4841
  124MOL0     C16615   6.771   6.891  10.709 -0.2615  0.0313 -0.5214
  124MOL0     C16616   6.801   6.902  10.557 -0.4372  0.5079 -0.3867
  124MOL0     C16617   6.672   6.929  10.485  0.4839 -0.4360 -0.7265
  124MOL0     C16618   6.680   6.940  10.338 -0.4178  0.0153 -0.0158
  124MOL0     C16619   6.544   6.974  10.287 -0.4242  0.0299 -0.1296
  124MOL0     C16620   6.535   6.974  10.134 -0.4274  0.8697 -0.7779
  124MOL0     C16621   6.409   7.041  10.078  0.5629  0.4281 -0.0384
  124MOL0     N16622   6.293   6.952  10.100 -0.4007 -0.2406 -0.1657
  124MOL0     C16623   6.223   6.890   9.996  1.2991 -0.4854 -0.3533
  124MOL0     C16624   6.131   6.813  10.057  0.5327 -0.3626  0.0037
  124MOL0     C16625   6.033   6.717   9.989  0.5431  0.0039 -0.4797
  124MOL0     C16626   5.889   6.717  10.056 -0.3023 -0.6351  0.0670
  124MOL0     C16627   5.798   6.839  10.034  0.0016  0.5933  0.1581
  124MOL0     C16628   5.658   6.795  10.086  0.3302 -0.4530  0.0635
  124MOL0     O16629   5.557   6.831   9.981  0.0455  0.3125 -0.2839
  124MOL0     C16630   5.439   6.773  10.000  0.8738  0.6423 -0.6552
  124MOL0     C16631   5.351   6.766   9.889 -0.5597  0.6626 -0.7761
  124MOL0     C16632   5.221   6.721   9.893 -0.4744 -0.3292 -0.5823
  124MOL0     C16633   5.141   6.721   9.766  0.6537  1.2287 -0.6165
  124MOL0     C16634   5.173   6.680  10.023 -0.3308  0.0528  0.4978
  124MOL0     C16635   5.028   6.653  10.050  0.2127  0.5680 -1.4448
  124MOL0     O16636   5.000   6.572  10.158  0.1888  0.2123  0.3846
  124MOL0     C16637   4.870   6.548  10.192  0.3723 -0.0357  0.0136
  124MOL0     C16638   4.781   6.487  10.099 -0.5143  0.2241 -0.7345
  124MOL0     C16639   4.654   6.440  10.150  0.5982 -0.8037 -0.1547
  124MOL0     C16640   4.626   6.447  10.285  0.4473  0.5603 -0.2744
  124MOL0     O16641   4.506   6.400  10.336  0.5683  0.5557 -0.7461
  124MOL0     C16642   4.498   6.254  10.334  0.3658 -0.6352  0.6575
  124MOL0     C16643   4.411   6.218  10.452 -0.2938  0.7284  0.0073
  124MOL0     C16644   4.378   6.067  10.445  0.1971 -0.0603 -1.3142
  124MOL0     C16645   4.260   6.038  10.542  0.2708  0.0697  0.1506
  124MOL0     C16646   4.255   5.892  10.592 -0.4566  0.1555 -0.4423
  124MOL0     C16647   4.130   5.853  10.666  0.2822 -0.5008 -0.5951
  124MOL0     C16648   4.152   5.731  10.755  0.2574  0.5528 -0.0142
  124MOL0     C16649   4.191   5.603  10.692  0.6678  0.1790 -0.1182
  124MOL0    Cl16650   4.249   5.481  10.814  0.1498 -0.3676  0.0496
  124MOL0     C16651   4.711   6.512  10.372  0.2792 -0.6596  1.1495
  124MOL0     C16652   4.838   6.555  10.328  0.3723 -1.1727 -0.2552
  124MOL0     O16653   4.944   6.683   9.969 -0.5336 -0.2668  0.4580
  124MOL0     C16654   5.262   6.674  10.128  0.6173 -0.2030 -0.1040
  124MOL0     C16655   5.397   6.714  10.121  0.6668 -0.4266  0.3076
  124MOL0     N16656   6.148   6.816  10.190  0.5693 -0.6675  0.3177
  124MOL0     N16657   6.250   6.899  10.216 -0.1540  0.2484 -0.0073
  124MOL0     C16658   7.196   6.785  10.815 -0.5013 -0.3014  0.0345
  124MOL0     C16659   7.330   6.779  10.853 -0.5141  0.1534  0.2139
  124MOL0     C16660   7.766   6.916  10.960 -0.1397 -0.2133 -0.3539
  124MOL0     C16661   7.801   6.782  10.925 -0.4621 -0.0805 -0.3814
  124MOL0     C16662   7.923   6.730  10.950  0.2862 -0.1137 -0.6383
  124MOL0     C16663   8.026   6.801  11.015 -0.7342  0.2079 -0.4030
  124MOL0     O16664   8.154   6.754  11.039 -0.0720 -0.4079 -0.7682
  124MOL0     C16665   8.189   6.643  10.963 -0.6006  1.0273  0.0282
  124MOL0     C16666   8.338   6.617  10.999  1.0257 -0.0421 -0.0578
  124MOL0     C16667   8.435   6.713  10.939 -0.3517 -0.5934 -0.0147
  124MOL0     C16668   8.577   6.660  10.952  0.5011  0.3728  0.6812
  124MOL0     C16669   8.614   6.644  11.090 -0.3063  0.5890 -1.5185
  124MOL0     C16670   8.653   6.632  11.203  0.5490 -0.9266  0.0396
  124MOL0     C16671   7.988   6.928  11.057  0.7126 -0.3943 -0.3783
  124MOL0     C16672   7.861   6.983  11.036 -0.7566  0.5807 -0.4113
  124MOL0     H16673   7.379   7.111  10.927  2.3277 -1.2762  0.2731
  124MOL0     H16674   7.146   7.114  10.901 -2.2031 -1.9667  2.0224
  124MOL0     H16675   6.938   6.754  10.726  1.0388 -0.6489  2.3254
  124MOL0     H16676   6.874   6.795  10.876 -0.9840 -2.9854 -1.3499
  124MOL0     H16677   6.684   6.830  10.735  0.7705 -1.0392  0.4854
  124MOL0     H16678   6.741   6.995  10.728 -4.0012 -0.9774 -0.1198
  124MOL0     H16679   6.872   6.980  10.528 -0.4479  1.5082  2.0248
  124MOL0     H16680   6.839   6.806  10.523 -0.8589  0.9720 -2.2995
  124MOL0     H16681   6.605   6.847  10.510 -0.9083  1.5787  2.9248
  124MOL0     H16682   6.624   7.019  10.526 -2.0875 -2.7407  1.7470
  124MOL0     H16683   6.752   7.017  10.305 -0.1474  0.9940  2.6113
  124MOL0     H16684   6.713   6.843  10.300  0.2206 -0.0986  0.7892
  124MOL0     H16685   6.465   6.912  10.330 -0.1804  0.8182  1.5432
  124MOL0     H16686   6.515   7.076  10.312  0.0440  0.7754 -2.3560
  124MOL0     H16687   6.629   7.011  10.091  0.1424 -0.1642 -0.4624
  124MOL0     H16688   6.533   6.870  10.100  0.2224  0.3817  0.5890
  124MOL0     H16689   6.428   7.057   9.972 -1.2278  2.7018 -0.1080
  124MOL0     H16690   6.395   7.143  10.115 -0.8908  0.0181  0.6543
  124MOL0     H16691   6.230   6.906   9.889  1.0572 -1.9558 -0.6038
  124MOL0     H16692   6.015   6.739   9.884 -0.0393 -2.2385 -0.8978
  124MOL0     H16693   6.069   6.615  10.003 -1.1702 -1.0154 -2.9007
  124MOL0     H16694   5.900   6.707  10.164 -0.4694  1.4325  0.3065
  124MOL0     H16695   5.830   6.637  10.010 -1.4343  0.8144 -1.0992
  124MOL0     H16696   5.790   6.871   9.929 -1.5317 -0.1434  0.0310
  124MOL0     H16697   5.828   6.934  10.080 -1.2561 -0.1548  2.6533
  124MOL0     H16698   5.637   6.839  10.184 -2.0503 -0.2271 -0.4788
  124MOL0     H16699   5.657   6.687  10.102 -1.2553 -0.5430 -0.4944
  124MOL0     H16700   5.398   6.810   9.802  0.9238  0.5401 -0.0835
  124MOL0     H16701   5.109   6.617   9.761 -0.0475  1.4078 -0.0984
  124MOL0     H16702   5.059   6.793   9.778  1.1016  2.0709 -2.3092
  124MOL0     H16703   5.211   6.747   9.687  3.3310 -2.1249  0.4355
  124MOL0     H16704   4.797   6.466   9.994 -2.2409 -1.1667 -0.7673
  124MOL0     H16705   4.586   6.386  10.084 -1.7093 -0.7575  2.0195
  124MOL0     H16706   4.446   6.220  10.244  0.0200 -0.0088  0.6090
  124MOL0     H16707   4.589   6.195  10.349 -0.4092 -1.8941  0.5153
  124MOL0     H16708   4.454   6.253  10.546 -1.1524  3.5638 -0.5417
  124MOL0     H16709   4.317   6.274  10.439  0.1485  1.5361  0.2269
  124MOL0     H16710   4.466   6.011  10.479 -1.1477 -1.7144 -0.3822
  124MOL0     H16711   4.353   6.041  10.342 -0.6028 -0.9070 -0.9244
  124MOL0     H16712   4.271   6.109  10.625  0.7734  2.2066 -1.6339
  124MOL0     H16713   4.167   6.062  10.490  1.2835 -0.0258 -1.8280
  124MOL0     H16714   4.336   5.878  10.664  0.8368 -3.1141 -2.2967
  124MOL0     H16715   4.253   5.830  10.501 -0.8070  1.8313 -1.6159
  124MOL0     H16716   4.106   5.935  10.734  0.9889 -1.0548  0.3557
  124MOL0     H16717   4.046   5.839  10.598 -0.1549  0.7734 -0.3360
  124MOL0     H16718   4.052   5.723  10.799 -0.1802  2.9696 -0.4680
  124MOL0     H16719   4.211   5.755  10.843 -2.0279  1.6772  1.3107
  124MOL0     H16720   4.270   5.624  10.619  0.8681  4.0735  0.9595
  124MOL0     H16721   4.104   5.559  10.643  0.8612  1.7670 -2.0169
  124MOL0     H16722   4.689   6.525  10.478  0.0252 -0.9791  1.1389
  124MOL0     H16723   4.916   6.597  10.390  1.7448 -1.8273 -1.4834
  124MOL0     H16724   5.222   6.630  10.219 -0.9374 -0.0707 -0.6826
  124MOL0     H16725   5.452   6.699  10.214 -0.1260 -1.4180  0.6321
  124MOL0     H16726   7.144   6.694  10.785 -0.3780 -0.7513  1.1553
  124MOL0     H16727   7.389   6.688  10.858  0.0435  0.5387  0.9038
  124MOL0     H16728   7.722   6.731  10.870 -0.9121  0.4018 -0.1946
  124MOL0     H16729   7.932   6.630  10.909 -3.0097 -0.3734 -0.9497
  124MOL0     H16730   8.131   6.554  10.990  1.1614 -0.4036 -0.6578
  124MOL0     H16731   8.180   6.652  10.854 -1.3235 -2.1069 -0.2890
  124MOL0     H16732   8.363   6.515  10.968 -3.2853 -1.4324  0.3677
  124MOL0     H16733   8.348   6.614  11.108  1.9622  0.2775 -0.1305
  124MOL0     H16734   8.421   6.809  10.990 -2.2540 -0.4357 -0.7542
  124MOL0     H16735   8.411   6.744  10.837  1.7297 -2.6485 -1.2426
  124MOL0     H16736   8.638   6.740  10.909  1.1057 -1.7191 -2.6873
  124MOL0     H16737   8.595   6.565  10.901 -1.2911  0.4616 -0.2038
  124MOL0     H16738   8.698   6.650  11.299 -0.7924  3.2532  0.0575
  124MOL0     H16739   8.058   6.998  11.101  1.9857 -1.8007 -0.1037
  124MOL0     H16740   7.847   7.085  11.068 -1.6656  0.5580 -0.7284
  125MOL0     O16741   4.798   3.459   1.313  0.0138 -0.2955  0.1944
  125MOL0     C16742   4.768   3.519   1.205  0.1298 -0.0283 -0.1891
  125MOL0     O16743   4.645   3.537   1.162 -0.2469  1.0328  0.7485
  125MOL0     C16744   4.529   3.496   1.212 -0.7388  0.5421  0.1837
  125MOL0     C16745   4.430   3.587   1.195  0.5549  1.0716  0.2250
  125MOL0     C16746   4.306   3.561   1.244  0.2619 -0.8651 -0.5305
  125MOL0     C16747   4.279   3.447   1.322  0.4485  0.2894 -0.6384
  125MOL0     O16748   4.154   3.435   1.378 -0.0805  0.0358 -0.7106
  125MOL0     C16749   4.044   3.423   1.285  0.0217  0.2832 -0.0252
  125MOL0     C16750   3.912   3.408   1.363 -0.6136 -0.6515  0.0402
  125MOL0     C16751   3.904   3.268   1.429 -0.4516  0.0225 -0.0289
  125MOL0     C16752   3.772   3.247   1.508  0.6603 -0.3015  0.3658
  125MOL0     C16753   3.640   3.296   1.443  0.0476 -0.5494 -0.2895
  125MOL0     C16754   3.611   3.222   1.307 -0.0341  0.1659 -0.0138
  125MOL0     C16755   3.589   3.064   1.303  0.0950  0.0591  0.4733
  125MOL0     C16756   3.498   3.006   1.407 -0.1946 -0.2411  0.4235
  125MOL0     N16757   3.371   3.079   1.418 -0.4830  0.8211  0.6137
  125MOL0     C16758   3.287   3.098   1.312  0.3420  0.2677  0.7210
  125MOL0     C16759   3.178   3.166   1.358 -1.0253  0.2967 -0.2415
  125MOL0     C16760   3.049   3.197   1.275 -0.7184  0.3444 -0.5693
  125MOL0     C16761   2.967   3.072   1.249 -0.2429 -0.8881 -0.4280
  125MOL0     C16762   3.034   2.961   1.169 -0.3942  0.1185 -0.6683
  125MOL0     C16763   2.939   2.850   1.124  1.2104 -0.0613  0.0827
  125MOL0     O16764   2.878   2.893   1.002  0.7917 -0.0293 -0.1091
  125MOL0     C16765   2.743   2.918   0.996 -0.5427  0.1435  0.1841
  125MOL0     C16766   2.694   2.913   0.861 -0.6326 -0.3365 -0.2000
  125MOL0     C16767   2.561   2.943   0.832 -0.1265  1.0245 -0.8953
  125MOL0     C16768   2.518   2.927   0.682 -0.2436 -0.4882 -0.9315
  125MOL0     C16769   2.473   2.969   0.941 -0.3476 -0.3672 -0.9685
  125MOL0     C16770   2.313   2.977   0.920 -0.3785 -0.2395 -0.1391
  125MOL0     O16771   2.245   2.997   1.043  0.3242 -0.3675  0.5789
  125MOL0     C16772   2.108   2.997   1.040  0.0073  0.8413 -0.1204
  125MOL0     C16773   2.050   2.940   1.160  0.3756 -0.9257 -0.0132
  125MOL0     C16774   1.913   2.924   1.185  0.5038  0.5831  1.1557
  125MOL0     C16775   1.822   2.949   1.075  0.0111  0.3746  0.2195
  125MOL0     O16776   1.685   2.940   1.107 -0.7860 -0.1987  0.1998
  125MOL0     C16777   1.597   2.904   1.007 -0.7159  0.5825 -0.9244
  125MOL0     C16778   1.461   2.968   1.036  0.2963  0.4825 -0.1170
  125MOL0     C16779   1.360   2.939   0.928 -0.3703  0.6698  0.4769
  125MOL0     C16780   1.309   2.789   0.926 -0.1256  0.8928 -0.6499
  125MOL0     C16781   1.214   2.762   0.812 -0.3558  0.4814  0.0295
  125MOL0     C16782   1.068   2.782   0.858  0.2259 -0.4311  0.6308
  125MOL0     C16783   0.967   2.790   0.746  0.1675  0.6725  0.3203
  125MOL0     C16784   0.979   2.670   0.644 -0.7440  0.0002  0.8737
  125MOL0    Cl16785   0.819   2.669   0.542 -0.1243  0.1535 -0.2025
  125MOL0     C16786   1.873   3.004   0.953  0.0046 -0.4100 -0.2437
  125MOL0     C16787   2.014   3.028   0.941  0.5679  0.2090  0.7152
  125MOL0     O16788   2.263   2.971   0.809  0.3943 -0.0331  0.0161
  125MOL0     C16789   2.525   2.970   1.071 -0.1644  0.5124 -1.0351
  125MOL0     C16790   2.658   2.937   1.103 -1.0990  0.2774 -0.0676
  125MOL0     N16791   3.202   3.195   1.494  0.6544  0.4675 -0.1059
  125MOL0     N16792   3.309   3.129   1.530 -0.4794  0.2137  0.4204
  125MOL0     C16793   4.379   3.348   1.332  0.7769  1.0845 -0.4813
  125MOL0     C16794   4.505   3.372   1.275 -0.5386  0.1087  0.3902
  125MOL0     C16795   4.879   3.551   1.104  0.5053 -0.7255 -0.1283
  125MOL0     C16796   4.849   3.641   1.003  0.9782  0.5211 -0.4917
  125MOL0     C16797   4.946   3.688   0.908  0.0162 -0.7442 -0.4579
  125MOL0     C16798   5.071   3.630   0.917  0.1511  0.3896 -0.5296
  125MOL0     O16799   5.151   3.676   0.818 -0.0872 -0.1746  0.3182
  125MOL0     C16800   5.276   3.614   0.792 -0.1139  0.3167  0.1652
  125MOL0     C16801   5.387   3.679   0.861  0.4108 -0.3055 -0.0796
  125MOL0     C16802   5.416   3.820   0.803 -0.0633 -0.0676 -0.3716
  125MOL0     C16803   5.497   3.886   0.919  0.6037  0.4593 -0.2702
  125MOL0     C16804   5.533   4.017   0.878  0.3985 -0.9032 -0.3919
  125MOL0     C16805   5.581   4.126   0.843 -0.1291  0.3635  0.5624
  125MOL0     C16806   5.105   3.540   1.020  0.0007  0.2523  0.5842
  125MOL0     C16807   5.008   3.502   1.116  0.1388 -0.5193  0.4624
  125MOL0     H16808   4.445   3.675   1.133  1.0070  0.5658 -0.3866
  125MOL0     H16809   4.228   3.636   1.234  1.2978  0.3641  0.2578
  125MOL0     H16810   4.036   3.512   1.223 -4.2470 -1.1451 -1.9078
  125MOL0     H16811   4.063   3.338   1.219 -4.0335 -0.6566 -0.2540
  125MOL0     H16812   3.912   3.491   1.434 -0.2653 -0.1892 -0.4918
  125MOL0     H16813   3.825   3.429   1.300 -2.0886  0.2502  2.2718
  125MOL0     H16814   3.919   3.196   1.348 -0.5100  2.6350 -2.5424
  125MOL0     H16815   3.985   3.262   1.502 -0.0996 -2.8682 -0.5430
  125MOL0     H16816   3.768   3.143   1.544  1.3427 -0.6784 -0.6092
  125MOL0     H16817   3.777   3.300   1.604  1.4492  0.5803 -0.1525
  125MOL0     H16818   3.551   3.269   1.501  0.9324 -1.6298  0.6108
  125MOL0     H16819   3.651   3.404   1.426 -0.9237 -0.7797 -2.8598
  125MOL0     H16820   3.518   3.267   1.270 -0.2083 -1.1976 -1.3299
  125MOL0     H16821   3.687   3.248   1.232 -0.7745  0.6680 -0.6084
  125MOL0     H16822   3.551   3.037   1.204  2.2747  2.4238 -1.1203
  125MOL0     H16823   3.688   3.019   1.309  0.5287  0.7073 -1.2717
  125MOL0     H16824   3.540   3.009   1.508  0.6306  0.0254  0.0760
  125MOL0     H16825   3.473   2.903   1.378 -1.2654 -0.1515  0.9708
  125MOL0     H16826   3.311   3.068   1.211 -2.6934 -2.3157  0.5931
  125MOL0     H16827   2.993   3.273   1.330  1.6256  2.5497 -0.9865
  125MOL0     H16828   3.073   3.238   1.176 -2.0704  0.2142 -0.9628
  125MOL0     H16829   2.882   3.113   1.193  1.4913  0.1783 -2.3867
  125MOL0     H16830   2.938   3.033   1.347  1.8157  0.2345  0.6865
  125MOL0     H16831   3.115   2.918   1.228 -1.5141 -0.3007  0.6174
  125MOL0     H16832   3.073   3.003   1.076 -3.4334 -0.1569 -2.2207
  125MOL0     H16833   2.865   2.827   1.202  0.3246 -1.9653 -1.2550
  125MOL0     H16834   2.995   2.757   1.115  2.8669  0.7627  1.2812
  125MOL0     H16835   2.762   2.885   0.781 -0.6644  0.6354 -0.5819
  125MOL0     H16836   2.611   2.918   0.626  0.7514  0.0121  0.5729
  125MOL0     H16837   2.471   2.831   0.657 -2.2610 -0.3090  1.7001
  125MOL0     H16838   2.453   3.010   0.654  0.4869  0.5368  0.3258
  125MOL0     H16839   2.109   2.916   1.248 -0.2206 -3.1553 -0.1563
  125MOL0     H16840   1.874   2.885   1.278 -2.4158 -1.6816 -0.8569
  125MOL0     H16841   1.634   2.933   0.908 -0.9997 -2.4561 -2.0406
  125MOL0     H16842   1.595   2.794   1.001 -0.1377  0.6308 -2.2775
  125MOL0     H16843   1.415   2.951   1.134 -1.6267 -0.8807 -1.1888
  125MOL0     H16844   1.494   3.072   1.033 -1.5775  1.1586  0.9191
  125MOL0     H16845   1.404   2.970   0.833 -0.2363  3.1655  1.2748
  125MOL0     H16846   1.274   3.005   0.944  0.0789  2.0163 -2.0513
  125MOL0     H16847   1.401   2.731   0.924 -0.1438  0.7008  1.4277
  125MOL0     H16848   1.257   2.760   1.018 -2.0785  0.8973 -1.6852
  125MOL0     H16849   1.231   2.664   0.768  0.3227  1.1274 -1.2192
  125MOL0     H16850   1.240   2.824   0.725  1.9692 -1.0382 -0.4475
  125MOL0     H16851   1.035   2.699   0.921 -2.7519 -0.2664 -0.5590
  125MOL0     H16852   1.065   2.872   0.920 -1.5331 -1.2894  1.8494
  125MOL0     H16853   0.975   2.889   0.700  0.0939  2.1455  3.2747
  125MOL0     H16854   0.867   2.792   0.790  0.4609  1.7946  0.9484
  125MOL0     H16855   0.990   2.578   0.702 -0.0316  0.8325  2.1115
  125MOL0     H16856   1.064   2.674   0.575  0.9904  1.7198  2.9366
  125MOL0     H16857   1.807   3.022   0.868  0.9960  0.2657 -0.8881
  125MOL0     H16858   2.054   3.044   0.842  1.2616  2.1647  1.2721
  125MOL0     H16859   2.461   3.004   1.152 -0.5750 -1.0206 -0.6868
  125MOL0     H16860   2.687   2.931   1.208 -1.5330 -0.6827  0.0022
  125MOL0     H16861   4.357   3.255   1.384  2.3135 -0.5168 -2.5552
  125MOL0     H16862   4.585   3.301   1.292  0.9166  1.8083  0.9625
  125MOL0     H16863   4.750   3.684   0.989  0.2615 -1.0370 -0.4341
  125MOL0     H16864   4.932   3.758   0.827  0.3404  0.6719  0.6796
  125MOL0     H16865   5.288   3.507   0.809  1.9705  0.6132  0.7794
  125MOL0     H16866   5.291   3.629   0.685  1.2041  1.5084  0.4986
  125MOL0     H16867   5.481   3.624   0.849  1.1260  0.7091  0.7338
  125MOL0     H16868   5.360   3.694   0.966 -0.6255 -2.0035 -0.0554
  125MOL0     H16869   5.329   3.882   0.780  1.3601  1.2227 -2.6217
  125MOL0     H16870   5.475   3.825   0.711  1.4788  4.7226  0.6218
  125MOL0     H16871   5.589   3.830   0.938  0.4039 -0.1560 -1.0455
  125MOL0     H16872   5.444   3.894   1.015 -0.4208 -0.5844 -0.7273
  125MOL0     H16873   5.627   4.218   0.813  2.5223 -0.3156  2.2550
  125MOL0     H16874   5.204   3.495   1.019 -0.6612 -1.2898 -0.7695
  125MOL0     H16875   5.029   3.427   1.192  1.3925  0.1727  0.8299
  126MOL0     O16876   4.887   3.974   1.520  0.2526  0.3374 -0.0282
  126MOL0     C16877   4.925   3.903   1.425 -0.1245  0.1804 -0.2355
  126MOL0     O16878   4.851   3.867   1.320 -0.0292 -0.5477  0.2786
  126MOL0     C16879   4.714   3.889   1.339  0.0237 -0.8456 -0.3337
  126MOL0     C16880   4.664   3.998   1.269  0.3901 -0.1898  1.0457
  126MOL0     C16881   4.532   4.030   1.285  0.1610 -0.3761 -0.8240
  126MOL0     C16882   4.452   3.954   1.370  0.0049  0.9324  0.3094
  126MOL0     O16883   4.324   3.997   1.385 -0.0378  0.0527  0.1174
  126MOL0     C16884   4.301   4.103   1.472 -0.6665  0.3391 -0.2591
  126MOL0     C16885   4.161   4.113   1.520  0.6507 -0.5285 -0.2048
  126MOL0     C16886   4.103   3.981   1.572 -0.9219 -0.5244 -0.1766
  126MOL0     C16887   3.950   3.972   1.592  0.3179 -0.1410 -0.1539
  126MOL0     C16888   3.896   3.834   1.647 -0.7391 -0.2042  0.7100
  126MOL0     C16889   3.737   3.814   1.638 -0.3436  0.5669  0.5876
  126MOL0     C16890   3.685   3.675   1.669  0.7353  0.0732 -0.2632
  126MOL0     C16891   3.712   3.645   1.822  0.3383 -0.7009  0.3842
  126MOL0     N16892   3.686   3.502   1.843 -0.0204 -0.2107  0.5651
  126MOL0     C16893   3.571   3.442   1.819 -0.2496 -0.1299  0.5917
  126MOL0     C16894   3.589   3.311   1.833  0.1623 -0.3446 -1.5126
  126MOL0     C16895   3.487   3.201   1.825 -0.7419 -0.0698  0.5695
  126MOL0     C16896   3.337   3.257   1.849 -0.1010  0.4553  1.0196
  126MOL0     C16897   3.252   3.132   1.890  0.8233 -0.5167  0.2183
  126MOL0     C16898   3.102   3.158   1.863 -0.6826 -0.6522 -0.5925
  126MOL0     O16899   3.028   3.052   1.912  0.2233 -0.0077  0.4447
  126MOL0     C16900   2.899   3.087   1.941  0.6958 -0.4997  0.3912
  126MOL0     C16901   2.807   3.140   1.849  0.7876 -1.0340  1.0395
  126MOL0     C16902   2.675   3.176   1.889 -0.1707 -0.7355 -0.2750
  126MOL0     C16903   2.577   3.224   1.780 -0.9041  0.3881 -0.1664
  126MOL0     C16904   2.641   3.170   2.029  0.0108  0.1757  0.1381
  126MOL0     C16905   2.513   3.204   2.089 -0.1077 -0.0059 -0.5781
  126MOL0     O16906   2.431   3.103   2.129  0.8083  0.0086 -0.7406
  126MOL0     C16907   2.329   3.123   2.222 -0.3038  0.4285  0.8055
  126MOL0     C16908   2.227   3.033   2.219  0.1733  0.0872 -0.1507
  126MOL0     C16909   2.112   3.049   2.291 -0.0064 -0.3196 -0.0565
  126MOL0     C16910   2.094   3.165   2.363  0.7863  0.0191 -0.6561
  126MOL0     O16911   1.987   3.181   2.456 -1.2081 -0.8552  0.1260
  126MOL0     C16912   1.909   3.067   2.494 -0.0323  0.2450  0.0249
  126MOL0     C16913   1.794   3.034   2.399  0.7341 -0.1756  0.5364
  126MOL0     C16914   1.653   3.077   2.441  0.5768 -0.4448 -0.0303
  126MOL0     C16915   1.547   3.064   2.328  1.1153 -0.6561 -0.5355
  126MOL0     C16916   1.414   3.110   2.382  0.2135 -0.2435 -0.5159
  126MOL0     C16917   1.313   3.133   2.271  0.5227  0.1304  0.2401
  126MOL0     C16918   1.166   3.127   2.323  0.1061  0.1643  0.0620
  126MOL0     C16919   1.135   3.242   2.422 -0.4498 -0.4299 -0.5293
  126MOL0    Cl16920   0.967   3.253   2.469 -0.3906 -0.0456 -0.1730
  126MOL0     C16921   2.199   3.260   2.360  0.5151  0.5696  0.1326
  126MOL0     C16922   2.315   3.237   2.298 -0.9844  0.4466 -0.3633
  126MOL0     O16923   2.494   3.324   2.096  0.1681  0.2502  0.0543
  126MOL0     C16924   2.739   3.107   2.109  0.2863  0.0526  0.2181
  126MOL0     C16925   2.857   3.069   2.069 -0.0613 -0.0656  0.1350
  126MOL0     N16926   3.726   3.283   1.863  0.6021 -0.0068  0.4493
  126MOL0     N16927   3.776   3.404   1.860 -0.2792  0.1964 -0.4427
  126MOL0     C16928   4.507   3.838   1.434 -0.8178 -0.4788  0.0066
  126MOL0     C16929   4.640   3.810   1.428  0.4588  0.0213 -0.4384
  126MOL0     C16930   5.065   3.850   1.429 -1.0351 -0.1954 -0.1069
  126MOL0     C16931   5.145   3.855   1.546  0.4745 -0.2244  0.0563
  126MOL0     C16932   5.271   3.795   1.553  0.3653 -0.0228 -0.2154
  126MOL0     C16933   5.322   3.724   1.444 -0.5196 -0.5351  0.3105
  126MOL0     O16934   5.442   3.659   1.442 -0.1482  0.2383 -0.8108
  126MOL0     C16935   5.511   3.647   1.564  0.2090  0.0300  0.2428
  126MOL0     C16936   5.648   3.577   1.545  0.0757 -0.4279  0.0932
  126MOL0     C16937   5.631   3.433   1.497  0.3197 -0.6368 -0.3716
  126MOL0     C16938   5.763   3.362   1.497  0.0136 -0.8135 -0.0095
  126MOL0     C16939   5.748   3.234   1.435 -0.4063 -0.0795 -0.0809
  126MOL0     C16940   5.747   3.124   1.379 -0.0510 -0.1297  0.0691
  126MOL0     C16941   5.242   3.718   1.323 -0.7092  0.2707 -0.2338
  126MOL0     C16942   5.121   3.781   1.310  0.4542 -0.8687 -0.5001
  126MOL0     H16943   4.717   4.065   1.201 -3.3932 -0.5452 -2.6458
  126MOL0     H16944   4.490   4.117   1.235 -1.0713  0.4398  1.4866
  126MOL0     H16945   4.373   4.100   1.555  0.5330 -1.4806 -1.3082
  126MOL0     H16946   4.332   4.187   1.410  1.5945  0.9724  1.5690
  126MOL0     H16947   4.157   4.187   1.600  0.3685 -0.0349 -0.6654
  126MOL0     H16948   4.104   4.155   1.436  1.7979 -0.4841 -0.9753
  126MOL0     H16949   4.133   3.900   1.504 -0.9240 -2.7265  2.2785
  126MOL0     H16950   4.158   3.958   1.664  0.0581 -3.4947 -1.3942
  126MOL0     H16951   3.929   4.056   1.659  0.9726 -0.9789  1.1627
  126MOL0     H16952   3.903   3.983   1.494 -0.9589 -1.1934  0.2941
  126MOL0     H16953   3.946   3.765   1.579  0.2883 -0.0051  1.2410
  126MOL0     H16954   3.934   3.817   1.748  1.6040 -3.2921 -0.5390
  126MOL0     H16955   3.697   3.875   1.719 -1.9878 -0.2178  0.4275
  126MOL0     H16956   3.703   3.854   1.542 -1.2146 -0.0799  0.6113
  126MOL0     H16957   3.577   3.675   1.653  0.9361 -1.6013 -2.0424
  126MOL0     H16958   3.732   3.594   1.610 -2.1748 -2.4044  0.5674
  126MOL0     H16959   3.654   3.713   1.886  1.4842  0.5009  0.1827
  126MOL0     H16960   3.815   3.668   1.852  0.2651 -1.2201  1.0618
  126MOL0     H16961   3.475   3.487   1.795 -1.4793 -3.9909 -3.1174
  126MOL0     H16962   3.499   3.151   1.729 -0.4338  1.5696 -0.2737
  126MOL0     H16963   3.512   3.127   1.902 -1.2975 -1.1414 -0.2639
  126MOL0     H16964   3.306   3.295   1.752  0.0389 -0.6193  0.5374
  126MOL0     H16965   3.326   3.326   1.933 -2.3236  1.0067  0.3539
  126MOL0     H16966   3.282   3.094   1.988  1.9892 -1.1024 -0.3510
  126MOL0     H16967   3.274   3.054   1.817 -2.8716 -0.1227 -1.5980
  126MOL0     H16968   3.077   3.187   1.760 -0.5599  0.5721 -0.2992
  126MOL0     H16969   3.090   3.249   1.922 -0.2890 -0.6076 -0.5805
  126MOL0     H16970   2.833   3.156   1.745 -3.8708 -2.4021 -0.5721
  126MOL0     H16971   2.510   3.144   1.746 -2.6266  1.2794  0.9779
  126MOL0     H16972   2.509   3.297   1.825  0.3018  2.1823 -1.1233
  126MOL0     H16973   2.621   3.285   1.701  1.6604  2.4894  2.6591
  126MOL0     H16974   2.233   2.942   2.160 -2.0113 -0.7556  0.8272
  126MOL0     H16975   2.029   2.979   2.283  0.6558 -1.1563  0.1965
  126MOL0     H16976   1.977   2.982   2.507  1.1186  1.3756  1.9228
  126MOL0     H16977   1.863   3.077   2.593 -1.2248  2.0927 -0.6742
  126MOL0     H16978   1.810   3.078   2.300  0.0864 -3.1818 -1.0040
  126MOL0     H16979   1.793   2.929   2.371  2.5852 -0.0351 -0.2275
  126MOL0     H16980   1.658   3.174   2.492  2.9626 -1.0931  1.1354
  126MOL0     H16981   1.615   3.011   2.519 -1.4954  1.7644  0.9811
  126MOL0     H16982   1.579   3.133   2.249 -0.4986  1.5642  0.6488
  126MOL0     H16983   1.533   2.962   2.290 -0.8586 -0.3691 -0.6556
  126MOL0     H16984   1.420   3.200   2.444 -0.8102 -0.4267 -0.1214
  126MOL0     H16985   1.380   3.031   2.450  0.3510  1.3837  1.5386
  126MOL0     H16986   1.328   3.227   2.218 -1.0722 -0.4328 -1.3013
  126MOL0     H16987   1.325   3.053   2.197  1.0588  1.2256 -0.8842
  126MOL0     H16988   1.150   3.035   2.380  1.2197 -0.6903 -0.9506
  126MOL0     H16989   1.108   3.123   2.231  1.0401 -1.8489 -0.4997
  126MOL0     H16990   1.165   3.337   2.378  0.7307  0.1922  1.4562
  126MOL0     H16991   1.198   3.231   2.511 -1.1912  1.6673  0.2988
  126MOL0     H16992   2.187   3.348   2.422 -1.7602 -0.0432  0.6823
  126MOL0     H16993   2.393   3.313   2.307  0.7314 -1.3799  1.1856
  126MOL0     H16994   2.720   3.100   2.216 -0.5175  1.5929  0.2138
  126MOL0     H16995   2.927   3.038   2.146  0.7215 -0.2951 -0.6476
  126MOL0     H16996   4.433   3.787   1.494 -0.8129  1.2590  1.5803
  126MOL0     H16997   4.682   3.717   1.466 -0.1205  0.6950  2.0334
  126MOL0     H16998   5.117   3.918   1.629  2.0810 -0.1313  0.5425
  126MOL0     H16999   5.328   3.799   1.645  0.6003 -1.1969 -0.2847
  126MOL0     H17000   5.532   3.744   1.611  3.8765 -1.2508  1.5901
  126MOL0     H17001   5.453   3.584   1.633  0.5349 -1.3756 -0.7412
  126MOL0     H17002   5.706   3.571   1.637 -0.6062 -1.8309  0.4536
  126MOL0     H17003   5.710   3.629   1.470 -1.6485  1.6032 -0.0075
  126MOL0     H17004   5.575   3.425   1.404  1.7374 -1.9749 -1.1449
  126MOL0     H17005   5.573   3.378   1.571 -1.2924  0.5016 -0.7281
  126MOL0     H17006   5.788   3.341   1.602 -0.8459 -3.7409 -0.3237
  126MOL0     H17007   5.842   3.418   1.446  0.1850 -0.7815  0.2855
  126MOL0     H17008   5.765   3.035   1.322  0.2985  0.1025 -0.1803
  126MOL0     H17009   5.290   3.664   1.242 -0.5024 -0.9095  0.6486
  126MOL0     H17010   5.052   3.770   1.228 -2.2776 -0.1660  1.5647
  127MOL0     O17011   0.064   9.446   7.023  0.4272 -0.5474 -0.0080
  127MOL0     C17012   0.069   9.447   7.143  0.4465 -0.2838  0.1618
  127MOL0     O17013  -0.032   9.472   7.228  0.0267 -0.2949 -0.4023
  127MOL0     C17014  -0.168   9.477   7.197  1.1167 -0.7374  0.6285
  127MOL0     C17015  -0.261   9.476   7.300 -0.2535  0.8896  0.1846
  127MOL0     C17016  -0.395   9.448   7.288  0.1438  0.1211 -0.6675
  127MOL0     C17017  -0.442   9.404   7.169 -0.0491  0.1709  0.2619
  127MOL0     O17018  -0.574   9.376   7.163  0.4496 -0.1543 -0.7603
  127MOL0     C17019  -0.629   9.311   7.052  0.2908 -0.8116  0.3229
  127MOL0     C17020  -0.772   9.286   7.066  0.0570  0.8124  0.4569
  127MOL0     C17021  -0.858   9.409   7.111 -0.3755 -1.1356  0.0924
  127MOL0     C17022  -0.990   9.373   7.169  0.0779 -0.1976  0.3501
  127MOL0     C17023  -1.064   9.510   7.193  1.1187  1.0395  0.2312
  127MOL0     C17024  -1.188   9.518   7.287  0.4800  0.7085 -0.5292
  127MOL0     C17025  -1.318   9.460   7.218  0.1098  0.0204 -0.6056
  127MOL0     C17026  -1.443   9.446   7.305 -0.4863 -0.2483  0.1381
  127MOL0     N17027  -1.512   9.572   7.330  0.6307  0.4085 -0.1261
  127MOL0     C17028  -1.606   9.627   7.236 -0.0163 -0.4324 -0.6890
  127MOL0     C17029  -1.691   9.698   7.321  0.1784 -0.3574  0.3702
  127MOL0     C17030  -1.814   9.767   7.266  0.7564 -0.2545  0.1991
  127MOL0     C17031  -1.940   9.680   7.274  0.3475 -0.1548 -0.7520
  127MOL0     C17032  -1.993   9.629   7.145 -0.7726 -0.1233 -0.1850
  127MOL0     C17033  -2.130   9.561   7.178  0.2462  0.2234 -0.2759
  127MOL0     O17034  -2.236   9.658   7.200 -0.3176  0.2782  0.1835
  127MOL0     C17035  -2.365   9.619   7.225 -0.1018  0.5154  0.3222
  127MOL0     C17036  -2.467   9.712   7.237  0.7609 -0.1051 -0.3534
  127MOL0     C17037  -2.593   9.677   7.275 -0.3813 -0.9578  0.4137
  127MOL0     C17038  -2.698   9.789   7.273 -1.0148 -0.5795  0.3063
  127MOL0     C17039  -2.632   9.539   7.284  0.8201  0.6724  0.0332
  127MOL0     C17040  -2.767   9.487   7.337  0.1758 -0.7415  1.2606
  127MOL0     O17041  -2.793   9.359   7.323  0.4682  0.6039  0.2834
  127MOL0     C17042  -2.899   9.301   7.384 -0.5279  0.3921 -0.3152
  127MOL0     C17043  -3.029   9.327   7.342  0.9181  0.4590  0.1227
  127MOL0     C17044  -3.139   9.270   7.411  0.0597  0.0564 -0.9875
  127MOL0     C17045  -3.109   9.187   7.526  0.3159 -0.2354  0.0670
  127MOL0     O17046  -3.207   9.122   7.601 -0.6666  0.1780 -0.2294
  127MOL0     C17047  -3.346   9.151   7.574  0.0915 -0.5103  0.2487
  127MOL0     C17048  -3.441   9.083   7.662  0.0795 -0.4852  0.3241
  127MOL0     C17049  -3.432   9.145   7.803  0.2836  0.3216 -0.5714
  127MOL0     C17050  -3.520   9.088   7.910  0.0596  0.2926 -0.2879
  127MOL0     C17051  -3.515   9.174   8.035 -1.7400 -0.3498 -0.5189
  127MOL0     C17052  -3.612   9.124   8.137 -0.9046 -0.1012 -0.2653
  127MOL0     C17053  -3.589   8.981   8.189  0.5886  1.0630  0.1919
  127MOL0     C17054  -3.650   8.949   8.325 -0.2288  0.7634  0.3499
  127MOL0    Cl17055  -3.573   9.027   8.463 -0.0853 -0.6506 -0.2005
  127MOL0     C17056  -2.978   9.166   7.570  0.7363 -0.1098  0.2367
  127MOL0     C17057  -2.878   9.215   7.489  0.5806  0.5565 -0.1449
  127MOL0     O17058  -2.848   9.572   7.377 -0.2082 -0.2457 -0.2405
  127MOL0     C17059  -2.534   9.448   7.254 -0.3587 -0.6374 -0.8119
  127MOL0     C17060  -2.403   9.491   7.237  0.0935 -0.1871  0.2294
  127MOL0     N17061  -1.646   9.686   7.454 -0.1775 -0.3143 -0.8112
  127MOL0     N17062  -1.536   9.621   7.453 -0.0364 -0.4795  0.1991
  127MOL0     C17063  -0.355   9.410   7.055  0.0379  0.5634 -0.6154
  127MOL0     C17064  -0.215   9.424   7.077  0.3719  0.5848  0.7850
  127MOL0     C17065   0.196   9.415   7.208  0.0574  0.5957 -0.0977
  127MOL0     C17066   0.306   9.373   7.138 -0.0635 -0.5738  0.4636
  127MOL0     C17067   0.433   9.350   7.197 -0.2240 -0.3681 -0.2065
  127MOL0     C17068   0.452   9.357   7.335  0.0769 -0.7871  0.2711
  127MOL0     O17069   0.572   9.338   7.403 -0.0699  0.2573 -0.3919
  127MOL0     C17070   0.675   9.276   7.323  0.2490 -0.6417 -0.3453
  127MOL0     C17071   0.647   9.129   7.287  0.0283 -0.5236  0.6941
  127MOL0     C17072   0.709   9.043   7.399  0.9795 -0.6044  1.2148
  127MOL0     C17073   0.706   8.899   7.380 -1.0163  0.0763 -0.3988
  127MOL0     C17074   0.574   8.830   7.386 -0.3096 -0.3037 -0.2734
  127MOL0     C17075   0.476   8.758   7.376  0.2123  0.4615 -0.3967
  127MOL0     C17076   0.334   9.380   7.409 -0.1471 -0.0262 -0.6173
  127MOL0     C17077   0.206   9.401   7.353 -0.5299 -0.0218  0.4263
  127MOL0     H17078  -0.220   9.502   7.397  2.5371 -1.2464 -0.3015
  127MOL0     H17079  -0.464   9.464   7.370 -1.0320 -0.6460 -1.4758
  127MOL0     H17080  -0.614   9.364   6.958  4.7300 -3.9411 -1.0545
  127MOL0     H17081  -0.579   9.214   7.042  0.3078 -1.0870  2.5494
  127MOL0     H17082  -0.804   9.237   6.973  0.5384  2.2119 -0.4740
  127MOL0     H17083  -0.791   9.211   7.143  0.9179 -0.3504 -0.4425
  127MOL0     H17084  -0.799   9.470   7.180  0.5707 -1.6555 -0.2430
  127MOL0     H17085  -0.886   9.476   7.029  2.0408  1.8661  1.5008
  127MOL0     H17086  -1.051   9.307   7.106 -1.1857  2.1581 -1.0438
  127MOL0     H17087  -0.968   9.322   7.263 -0.4918 -1.1400 -0.0134
  127MOL0     H17088  -0.996   9.581   7.241  0.8047  1.9514 -0.6406
  127MOL0     H17089  -1.093   9.558   7.099  0.8485 -2.0583 -1.4282
  127MOL0     H17090  -1.166   9.465   7.381  2.5591  0.5465 -1.0430
  127MOL0     H17091  -1.207   9.621   7.316  3.3222  1.0924  0.3462
  127MOL0     H17092  -1.340   9.518   7.128  0.8604  1.3973  0.0749
  127MOL0     H17093  -1.293   9.357   7.189  1.5147  0.2802 -0.3980
  127MOL0     H17094  -1.425   9.406   7.406 -0.4019 -1.5478 -0.3673
  127MOL0     H17095  -1.524   9.385   7.263 -0.4532 -0.0116 -0.2667
  127MOL0     H17096  -1.615   9.606   7.130 -0.2328 -1.2481 -0.5237
  127MOL0     H17097  -1.828   9.859   7.324 -2.8616  0.0411 -0.8568
  127MOL0     H17098  -1.805   9.790   7.160 -0.6554 -0.1633  0.0782
  127MOL0     H17099  -2.007   9.738   7.338  3.6153 -0.1501  3.0049
  127MOL0     H17100  -1.920   9.594   7.338 -1.4366  1.3417  1.9941
  127MOL0     H17101  -1.922   9.561   7.096 -1.1818  0.0041 -0.9614
  127MOL0     H17102  -2.007   9.711   7.075 -2.6626 -0.6952 -0.5311
  127MOL0     H17103  -2.118   9.490   7.260  0.4194  0.1892 -0.3320
  127MOL0     H17104  -2.153   9.497   7.093  1.4967 -1.7477  0.8052
  127MOL0     H17105  -2.436   9.814   7.219 -1.1696  0.4531 -0.7402
  127MOL0     H17106  -2.656   9.881   7.230  1.9820 -0.8062  2.4373
  127MOL0     H17107  -2.785   9.767   7.210 -0.8868 -0.0929 -0.0486
  127MOL0     H17108  -2.746   9.804   7.370 -2.0908 -0.8147 -0.1735
  127MOL0     H17109  -3.052   9.397   7.262  1.4120  0.6699  0.1642
  127MOL0     H17110  -3.239   9.283   7.371 -1.4733 -0.6841  2.3381
  127MOL0     H17111  -3.368   9.258   7.571  0.0685 -0.5357 -1.2188
  127MOL0     H17112  -3.360   9.112   7.473 -0.0882 -3.4106  1.2856
  127MOL0     H17113  -3.544   9.102   7.631 -0.8988  0.4038  3.7406
  127MOL0     H17114  -3.423   8.975   7.663 -3.1795 -1.1316  0.9541
  127MOL0     H17115  -3.469   9.247   7.787 -4.0985 -1.2222 -1.6626
  127MOL0     H17116  -3.328   9.146   7.835  0.3761  0.8650 -0.8759
  127MOL0     H17117  -3.619   9.083   7.864 -0.7216  0.1772  1.3144
  127MOL0     H17118  -3.489   8.985   7.930  0.1977  0.5578  0.9743
  127MOL0     H17119  -3.534   9.280   8.015  1.4855  0.9078  2.1502
  127MOL0     H17120  -3.414   9.166   8.076 -1.1507 -0.7715 -2.0055
  127MOL0     H17121  -3.603   9.186   8.227 -1.0672 -0.7685  0.2203
  127MOL0     H17122  -3.715   9.138   8.103 -0.3126  0.7631 -1.8121
  127MOL0     H17123  -3.480   8.974   8.197  0.6927 -3.2238 -2.0774
  127MOL0     H17124  -3.608   8.904   8.114  0.8314 -0.8322  1.9839
  127MOL0     H17125  -3.635   8.842   8.343  0.8615  0.8833  0.2259
  127MOL0     H17126  -3.756   8.975   8.321  0.2601  2.9993  0.3840
  127MOL0     H17127  -2.963   9.114   7.664  1.0746  2.0626  1.4468
  127MOL0     H17128  -2.778   9.198   7.527  0.1231  2.1006  1.9371
  127MOL0     H17129  -2.561   9.343   7.256  1.9082 -1.2840  1.7405
  127MOL0     H17130  -2.335   9.407   7.246 -0.9760 -1.5026 -2.7303
  127MOL0     H17131  -0.385   9.384   6.954 -0.7622 -0.4285 -0.1373
  127MOL0     H17132  -0.149   9.409   6.992  0.9567  0.2970  1.2837
  127MOL0     H17133   0.304   9.366   7.030  0.0357  1.9291  0.2374
  127MOL0     H17134   0.517   9.345   7.128  0.1880  0.3681  0.2292
  127MOL0     H17135   0.706   9.331   7.234  0.4035 -0.2409 -0.0507
  127MOL0     H17136   0.758   9.271   7.395 -1.7065  0.4569  2.1356
  127MOL0     H17137   0.702   9.110   7.195 -1.1319  0.9444 -0.3579
  127MOL0     H17138   0.540   9.114   7.271 -0.1520 -1.1932  2.3130
  127MOL0     H17139   0.648   9.052   7.489  2.1211 -2.0127  2.1758
  127MOL0     H17140   0.813   9.072   7.413  2.0168 -3.3249 -0.2569
  127MOL0     H17141   0.778   8.843   7.440  0.0306  1.0299 -0.7345
  127MOL0     H17142   0.744   8.890   7.278  3.6198  0.1672  1.1118
  127MOL0     H17143   0.401   8.682   7.385  0.4122  0.3740  0.7352
  127MOL0     H17144   0.334   9.374   7.517 -2.0581  1.9813 -0.4314
  127MOL0     H17145   0.121   9.413   7.419 -1.9568  2.1559 -1.6308
  128MOL0     O17146   3.718   9.064   2.204  0.0315  0.2162 -0.4200
  128MOL0     C17147   3.789   8.963   2.195 -0.1923 -0.0635  0.5556
  128MOL0     O17148   3.744   8.833   2.185  0.2188 -0.8368  0.5927
  128MOL0     C17149   3.613   8.803   2.209 -0.6247  0.1209  0.4118
  128MOL0     C17150   3.502   8.866   2.138 -0.6057 -0.1387  0.0370
  128MOL0     C17151   3.370   8.845   2.181 -0.3376 -0.2130 -0.6873
  128MOL0     C17152   3.342   8.764   2.287  1.8036  0.5771 -0.2468
  128MOL0     O17153   3.206   8.745   2.314 -0.2799 -0.4837 -0.0479
  128MOL0     C17154   3.174   8.612   2.271 -0.7142 -0.6153 -0.4899
  128MOL0     C17155   3.037   8.578   2.323 -0.8174 -0.5426  0.6777
  128MOL0     C17156   2.936   8.695   2.310  0.5554  0.9146 -0.9583
  128MOL0     C17157   2.799   8.662   2.370 -0.5612  0.7591 -0.1318
  128MOL0     C17158   2.712   8.789   2.380  1.6911  0.0863 -0.2030
  128MOL0     C17159   2.569   8.769   2.439 -0.3894 -0.3209 -0.2778
  128MOL0     C17160   2.475   8.882   2.437  0.1354 -1.2975  0.0715
  128MOL0     C17161   2.339   8.836   2.486  0.5086 -0.6217 -0.0802
  128MOL0     N17162   2.240   8.944   2.472  0.3839 -0.0477 -0.4638
  128MOL0     C17163   2.231   9.069   2.536 -0.3725  0.1241  0.8129
  128MOL0     C17164   2.138   9.135   2.477 -0.5377  0.0305  0.2194
  128MOL0     C17165   2.106   9.278   2.510  0.9095 -0.6103  0.0919
  128MOL0     C17166   1.963   9.303   2.554 -0.0285 -0.2621  0.7057
  128MOL0     C17167   1.928   9.217   2.667 -0.2498  0.4206  1.0650
  128MOL0     C17168   1.785   9.219   2.709  0.7830  0.0506 -0.2769
  128MOL0     O17169   1.783   9.157   2.841  0.6262 -0.6136  0.3353
  128MOL0     C17170   1.665   9.154   2.907  0.5964  1.0847 -0.1296
  128MOL0     C17171   1.676   9.101   3.034 -0.1418 -0.1925 -0.4144
  128MOL0     C17172   1.571   9.094   3.125 -1.1348  0.5240 -0.1518
  128MOL0     C17173   1.602   9.052   3.269 -0.3224 -0.7876  0.1848
  128MOL0     C17174   1.443   9.137   3.080  0.1366  0.6092 -0.1702
  128MOL0     C17175   1.312   9.102   3.152 -0.2367 -0.3554 -0.5024
  128MOL0     O17176   1.203   9.073   3.068  0.2975  0.4489 -0.5661
  128MOL0     C17177   1.080   9.068   3.123 -0.5126  0.6017 -0.2617
  128MOL0     C17178   0.987   9.158   3.084  0.6031  0.0657  0.2847
  128MOL0     C17179   0.858   9.161   3.118  0.7895  0.7096  0.0714
  128MOL0     C17180   0.816   9.076   3.226 -0.5683  0.1056  0.1327
  128MOL0     O17181   0.691   9.086   3.290  0.9108  0.4819  0.5481
  128MOL0     C17182   0.638   9.218   3.278 -0.2713 -0.1199  0.0918
  128MOL0     C17183   0.504   9.224   3.357 -0.2905 -0.5710 -0.2799
  128MOL0     C17184   0.400   9.138   3.297 -0.2062 -0.0882 -0.3429
  128MOL0     C17185   0.276   9.117   3.397 -0.8130 -0.1949  0.9202
  128MOL0     C17186   0.157   9.054   3.328  0.4812 -0.3511 -0.0649
  128MOL0     C17187   0.019   9.088   3.385 -1.2620 -0.0603  0.1135
  128MOL0     C17188  -0.093   9.002   3.319 -0.6197 -0.8359 -0.4153
  128MOL0     C17189  -0.231   9.044   3.372 -0.4524  0.9086 -0.6370
  128MOL0    Cl17190  -0.358   8.935   3.307 -0.4900 -0.2226  0.1049
  128MOL0     C17191   0.897   8.967   3.254 -0.9168  0.2581  0.6200
  128MOL0     C17192   1.033   8.960   3.199 -0.5429  0.2986 -0.6114
  128MOL0     O17193   1.302   9.106   3.271  0.1038 -0.0127 -0.3680
  128MOL0     C17194   1.433   9.187   2.949 -0.2982  0.3153  0.4839
  128MOL0     C17195   1.540   9.177   2.860 -0.2010  0.0265 -0.6497
  128MOL0     N17196   2.089   9.054   2.372  0.0397  0.2839 -0.4064
  128MOL0     N17197   2.145   8.937   2.381  0.0414 -0.4281 -0.1744
  128MOL0     C17198   3.452   8.701   2.352  0.4471 -1.2478  0.8533
  128MOL0     C17199   3.586   8.714   2.313  0.2958  0.2442  0.2514
  128MOL0     C17200   3.934   8.973   2.208  0.1026 -0.3604  0.0085
  128MOL0     C17201   3.996   9.086   2.256  0.0152  0.1484  0.6707
  128MOL0     C17202   4.134   9.087   2.289 -0.0761 -0.3114 -0.5636
  128MOL0     C17203   4.214   8.965   2.286  1.3365 -0.1848  0.5644
  128MOL0     O17204   4.344   8.956   2.326 -0.6173 -0.0998  0.6429
  128MOL0     C17205   4.427   9.071   2.336 -1.0401 -0.1326  1.0389
  128MOL0     C17206   4.568   9.011   2.348 -0.6040 -0.1406 -0.1220
  128MOL0     C17207   4.673   9.087   2.260 -0.2451  0.1850  0.2221
  128MOL0     C17208   4.737   9.221   2.323  0.8003 -0.4338 -0.3543
  128MOL0     C17209   4.885   9.210   2.343  0.0701 -0.4576  0.1933
  128MOL0     C17210   5.001   9.211   2.364  0.2403  0.1367  0.0789
  128MOL0     C17211   4.149   8.852   2.233  0.2207 -0.1019  0.4385
  128MOL0     C17212   4.016   8.859   2.189 -0.4724 -1.0738  0.4135
  128MOL0     H17213   3.513   8.929   2.050  0.1047  0.5245  0.5883
  128MOL0     H17214   3.288   8.877   2.118 -3.3934  0.1301  3.1520
  128MOL0     H17215   3.175   8.590   2.164 -2.0003 -2.5856 -0.1638
  128MOL0     H17216   3.247   8.550   2.325 -1.4495 -0.4753  0.7211
  128MOL0     H17217   2.994   8.491   2.272  0.4719 -0.5431 -0.4894
  128MOL0     H17218   3.043   8.556   2.429 -2.3085 -1.6565  0.5494
  128MOL0     H17219   2.973   8.786   2.358  1.5788  0.3814 -0.7162
  128MOL0     H17220   2.926   8.711   2.202  3.1185 -0.8188 -1.5272
  128MOL0     H17221   2.751   8.585   2.309  0.6234  0.7066 -1.0340
  128MOL0     H17222   2.809   8.615   2.468 -2.5392 -0.8036 -0.6263
  128MOL0     H17223   2.760   8.862   2.445  2.9736  0.5798 -1.6491
  128MOL0     H17224   2.709   8.831   2.280 -1.8424  0.6450  0.0309
  128MOL0     H17225   2.526   8.684   2.385 -1.3826  0.3716 -0.5963
  128MOL0     H17226   2.577   8.738   2.544  1.9963 -1.5909 -0.7530
  128MOL0     H17227   2.517   8.960   2.502 -1.3378  1.2717 -1.8774
  128MOL0     H17228   2.467   8.926   2.337 -1.5325  3.3713  1.9621
  128MOL0     H17229   2.350   8.809   2.591  0.4603  2.2266  0.7514
  128MOL0     H17230   2.303   8.754   2.424  1.3773 -0.4423 -0.8457
  128MOL0     H17231   2.290   9.104   2.620  0.9296 -1.0696  0.4372
  128MOL0     H17232   2.169   9.302   2.596 -1.5241  1.5541  1.4163
  128MOL0     H17233   2.135   9.332   2.419 -1.2637 -0.0345 -0.3108
  128MOL0     H17234   1.902   9.293   2.464  3.0556  5.4419 -2.6057
  128MOL0     H17235   1.941   9.408   2.575 -0.3539  0.4414 -2.5867
  128MOL0     H17236   1.988   9.242   2.754 -0.3007  1.3495  0.8440
  128MOL0     H17237   1.945   9.116   2.630  1.3852  1.7197 -2.1151
  128MOL0     H17238   1.729   9.164   2.633  1.2626 -2.6623  1.2152
  128MOL0     H17239   1.749   9.322   2.715  1.7308  0.2968  2.7254
  128MOL0     H17240   1.772   9.071   3.075  1.3710  3.6258 -0.7602
  128MOL0     H17241   1.557   9.129   3.332 -0.5579 -0.8895  0.1434
  128MOL0     H17242   1.557   8.956   3.296 -0.6479 -1.2856 -1.9370
  128MOL0     H17243   1.711   9.043   3.282 -0.2175 -0.3315 -0.3839
  128MOL0     H17244   1.018   9.232   3.011 -2.0349  0.2998 -0.6944
  128MOL0     H17245   0.792   9.231   3.068 -2.1708 -0.5286  1.9909
  128MOL0     H17246   0.706   9.295   3.315 -1.0426  1.6467 -1.9347
  128MOL0     H17247   0.616   9.244   3.174  1.3725 -1.4261 -0.6249
  128MOL0     H17248   0.526   9.199   3.461  1.7257  1.1223 -0.2250
  128MOL0     H17249   0.457   9.323   3.353  1.9028  0.5820  0.3368
  128MOL0     H17250   0.440   9.042   3.263  2.2522  0.1869  1.5336
  128MOL0     H17251   0.354   9.182   3.208 -2.3990 -1.3457  0.0799
  128MOL0     H17252   0.310   9.056   3.482 -0.3616  1.6528  2.1360
  128MOL0     H17253   0.253   9.214   3.442  0.2581  0.2215  0.6024
  128MOL0     H17254   0.169   8.945   3.322 -1.6199 -0.7790  2.0721
  128MOL0     H17255   0.148   9.098   3.228 -1.3079 -2.9791 -1.1758
  128MOL0     H17256   0.026   9.084   3.494  3.4221 -2.5592 -0.0264
  128MOL0     H17257   0.000   9.195   3.369  1.6574  0.4186 -0.6052
  128MOL0     H17258  -0.068   8.899   3.346  0.1510  0.1681  3.1421
  128MOL0     H17259  -0.085   9.029   3.213  1.3693  1.8340  0.3093
  128MOL0     H17260  -0.249   9.150   3.352 -0.5556  0.6021 -2.3297
  128MOL0     H17261  -0.229   9.027   3.480 -1.3835  1.3306 -0.5430
  128MOL0     H17262   0.856   8.890   3.319 -0.7745  1.8125  2.6576
  128MOL0     H17263   1.090   8.875   3.234  0.7769  0.5878 -1.9857
  128MOL0     H17264   1.336   9.224   2.915 -0.0413 -1.9213 -3.2426
  128MOL0     H17265   1.524   9.203   2.755  2.8781 -1.8439 -1.7270
  128MOL0     H17266   3.424   8.632   2.432 -1.4096  0.7056  1.9917
  128MOL0     H17267   3.652   8.656   2.376 -2.9319 -1.6669  2.1034
  128MOL0     H17268   3.952   9.186   2.262  2.1418  1.2315 -0.7104
  128MOL0     H17269   4.162   9.180   2.336 -0.8417  1.3054 -3.0884
  128MOL0     H17270   4.428   9.124   2.240  2.3674  0.5690  1.3300
  128MOL0     H17271   4.404   9.144   2.415  0.6618  1.1518  0.4300
  128MOL0     H17272   4.568   8.910   2.307  0.8188 -0.5247  0.7750
  128MOL0     H17273   4.595   9.008   2.454  1.0840  0.6136 -0.5045
  128MOL0     H17274   4.625   9.116   2.166  0.1580 -2.2594 -0.8094
  128MOL0     H17275   4.757   9.027   2.227 -0.0988 -0.2076  1.2663
  128MOL0     H17276   4.694   9.242   2.421  0.7116  0.2752 -0.5427
  128MOL0     H17277   4.717   9.308   2.259  0.9201 -0.9719 -1.1482
  128MOL0     H17278   5.099   9.234   2.401 -0.6071  1.1999  1.8009
  128MOL0     H17279   4.199   8.756   2.233  1.4010  0.4134  2.9580
  128MOL0     H17280   3.978   8.762   2.157  0.8593 -1.3603 -0.3574
  129MOL0     O17281   6.656   5.461  10.988 -0.2385  1.0650 -0.3680
  129MOL0     C17282   6.568   5.419  11.066 -0.9855  0.2197 -0.4568
  129MOL0     O17283   6.566   5.437  11.200 -0.5767  0.2657 -0.3269
  129MOL0     C17284   6.670   5.490  11.274  0.1812 -1.5564 -0.3052
  129MOL0     C17285   6.718   5.411  11.371 -0.0826  0.5633  0.3472
  129MOL0     C17286   6.830   5.458  11.441 -0.1901 -1.0288 -0.6314
  129MOL0     C17287   6.898   5.579  11.420 -1.3542  0.2881  0.0009
  129MOL0     O17288   7.001   5.620  11.506 -0.0274  0.2037 -0.0415
  129MOL0     C17289   7.095   5.715  11.448  0.8774 -0.6189  0.3712
  129MOL0     C17290   7.213   5.710  11.551  0.1674  0.0563  0.2001
  129MOL0     C17291   7.315   5.824  11.548 -0.1269  0.0068  0.0309
  129MOL0     C17292   7.427   5.799  11.648  0.1854 -0.3010 -0.3435
  129MOL0     C17293   7.520   5.685  11.628  0.3424 -0.2870  0.7913
  129MOL0     C17294   7.628   5.659  11.735 -0.7275  0.5004 -0.0134
  129MOL0     C17295   7.700   5.523  11.718  0.8696  0.0274  0.0572
  129MOL0     C17296   7.767   5.502  11.585  0.6196  0.2031  0.3417
  129MOL0     N17297   7.867   5.607  11.564 -0.6747 -0.5255  0.5981
  129MOL0     C17298   7.999   5.603  11.598  0.0377  0.8918  0.0760
  129MOL0     C17299   8.045   5.728  11.595  0.2318 -0.3979 -0.1474
  129MOL0     C17300   8.185   5.760  11.639 -0.5277  0.0674 -0.1702
  129MOL0     C17301   8.207   5.750  11.790  0.0389  0.4855  0.1357
  129MOL0     C17302   8.167   5.868  11.873  0.1557 -0.2018 -0.2568
  129MOL0     C17303   8.019   5.904  11.861  0.3066 -0.8291 -0.0027
  129MOL0     O17304   7.988   5.998  11.962  0.2666 -0.0273 -0.2687
  129MOL0     C17305   7.859   6.031  11.975  0.4545 -0.4107 -0.4967
  129MOL0     C17306   7.805   6.039  12.102 -0.0189  0.2845 -0.8250
  129MOL0     C17307   7.671   6.054  12.135 -0.7140 -0.4695 -0.1957
  129MOL0     C17308   7.647   6.076  12.284 -0.8461  0.9095 -0.1826
  129MOL0     C17309   7.578   6.066  12.027 -0.0402  0.0247 -0.2358
  129MOL0     C17310   7.441   6.088  12.049  0.0710  0.2435 -0.0049
  129MOL0     O17311   7.363   6.097  11.935  0.4782  0.6128  0.1644
  129MOL0     C17312   7.223   6.081  11.954 -0.3566  0.2095 -0.2978
  129MOL0     C17313   7.132   6.184  11.991  0.0060  0.1035 -0.1514
  129MOL0     C17314   6.994   6.155  12.007  0.4739 -0.2241  0.1740
  129MOL0     C17315   6.934   6.028  11.980 -0.6064 -0.9222 -0.7466
  129MOL0     O17316   6.796   6.011  11.995  0.3634 -0.2085 -0.5913
  129MOL0     C17317   6.742   5.879  11.974  0.3676  0.4015 -0.6479
  129MOL0     C17318   6.590   5.896  11.979  0.0768  0.1536  1.4913
  129MOL0     C17319   6.522   5.762  11.954 -0.4549  0.6865 -0.3611
  129MOL0     C17320   6.385   5.742  12.015 -0.4057 -0.8682 -0.7717
  129MOL0     C17321   6.283   5.835  11.953 -1.3118  0.8306  0.0146
  129MOL0     C17322   6.158   5.818  12.035  0.4601 -0.3879  0.2857
  129MOL0     C17323   6.141   5.879  12.176  0.5937  0.6989 -0.4818
  129MOL0     C17324   5.996   5.876  12.221 -0.8156  0.1430  0.2413
  129MOL0    Cl17325   5.899   6.040  12.173 -0.3955  0.2077 -0.3866
  129MOL0     C17326   7.024   5.926  11.945  0.4780 -0.1024  0.1175
  129MOL0     C17327   7.162   5.952  11.930  0.1740 -0.5531 -0.2289
  129MOL0     O17328   7.402   6.109  12.164  0.0790 -0.3998 -0.0076
  129MOL0     C17329   7.629   6.057  11.892 -0.3333 -0.6296  0.4662
  129MOL0     C17330   7.766   6.024  11.868  0.5154 -0.1990 -0.2576
  129MOL0     N17331   7.939   5.812  11.561 -0.1664  0.0378  0.4462
  129MOL0     N17332   7.836   5.737  11.537 -0.4601  0.1183  0.2005
  129MOL0     C17333   6.844   5.653  11.319 -0.9142 -0.1752 -0.1621
  129MOL0     C17334   6.738   5.608  11.244 -1.0251 -0.2437  0.1192
  129MOL0     C17335   6.460   5.340  11.012 -0.7476  1.2569  0.3369
  129MOL0     C17336   6.436   5.329  10.872  0.2799  0.3727 -0.5551
  129MOL0     C17337   6.323   5.262  10.819 -0.3697 -0.0136 -0.4858
  129MOL0     C17338   6.226   5.215  10.904 -0.2223  0.1412 -0.0775
  129MOL0     O17339   6.114   5.155  10.856  0.4715 -0.4854 -0.8636
  129MOL0     C17340   6.088   5.140  10.722 -0.8187 -0.5042  0.4053
  129MOL0     C17341   5.944   5.080  10.729  0.8365 -0.0729 -0.2003
  129MOL0     C17342   5.899   5.041  10.589 -0.1658 -0.4455 -0.2892
  129MOL0     C17343   5.745   5.030  10.588  0.9679  0.1013 -0.7321
  129MOL0     C17344   5.713   5.026  10.443 -0.5203  0.1102  0.3478
  129MOL0     C17345   5.689   5.043  10.324 -0.9836 -0.5036  0.1607
  129MOL0     C17346   6.253   5.217  11.040  0.2001  0.1245  0.5736
  129MOL0     C17347   6.366   5.280  11.099 -0.1883 -0.7799 -0.3740
  129MOL0     H17348   6.688   5.313  11.407 -0.1326  0.2372 -0.5652
  129MOL0     H17349   6.872   5.404  11.525  1.6530  2.7539  1.1720
  129MOL0     H17350   7.118   5.684  11.345 -1.6117 -2.8879  0.3956
  129MOL0     H17351   7.061   5.818  11.439  0.8819 -0.7909 -3.6699
  129MOL0     H17352   7.158   5.707  11.645  1.4834 -1.5138  0.9599
  129MOL0     H17353   7.261   5.612  11.548 -0.2829 -0.3092  2.7331
  129MOL0     H17354   7.359   5.831  11.448  3.4028 -1.2531  1.3229
  129MOL0     H17355   7.271   5.920  11.574  2.7983  1.7022 -0.7898
  129MOL0     H17356   7.487   5.891  11.655  0.7349 -0.5547 -1.4541
  129MOL0     H17357   7.372   5.786  11.742 -1.6102  2.4379 -0.8984
  129MOL0     H17358   7.474   5.585  11.624 -0.1919 -0.0213  0.2203
  129MOL0     H17359   7.571   5.702  11.533 -0.2601  0.9057  0.6775
  129MOL0     H17360   7.698   5.743  11.743 -1.3250  0.9575  0.4862
  129MOL0     H17361   7.586   5.640  11.834  0.1268 -2.9463 -0.1766
  129MOL0     H17362   7.758   5.491  11.805  1.1236 -2.4497 -0.9425
  129MOL0     H17363   7.618   5.450  11.711 -0.7019  1.8478 -1.9429
  129MOL0     H17364   7.699   5.512  11.500  1.5307 -2.0982 -0.7414
  129MOL0     H17365   7.818   5.405  11.582  0.8557  0.3539 -0.8981
  129MOL0     H17366   8.065   5.525  11.636 -0.3624  0.4407 -0.1454
  129MOL0     H17367   8.256   5.698  11.583  1.2206  1.2082  0.7184
  129MOL0     H17368   8.204   5.866  11.624 -5.5590  1.5398  1.6767
  129MOL0     H17369   8.315   5.745  11.803  0.1455  1.9062 -0.0060
  129MOL0     H17370   8.164   5.659  11.832 -0.6729  0.5095 -0.5032
  129MOL0     H17371   8.225   5.958  11.850  1.1703 -0.7204  0.2000
  129MOL0     H17372   8.190   5.833  11.974 -0.5740 -1.2039 -0.4279
  129MOL0     H17373   7.949   5.821  11.867 -0.0380 -0.5917 -0.6822
  129MOL0     H17374   8.020   5.959  11.767  2.1483 -0.0661  0.4073
  129MOL0     H17375   7.871   6.044  12.188 -0.8151  0.8334 -0.2345
  129MOL0     H17376   7.734   6.052  12.347  0.9140  2.1209 -2.0120
  129MOL0     H17377   7.617   6.179  12.306  0.8449  1.7134 -1.4161
  129MOL0     H17378   7.562   6.016  12.318 -1.3049  0.8572 -1.3909
  129MOL0     H17379   7.167   6.282  12.020 -1.6145  1.3945 -2.3300
  129MOL0     H17380   6.916   6.225  12.036  1.4124  2.2138 -2.6577
  129MOL0     H17381   6.765   5.838  11.875 -1.3755 -2.1076 -0.1161
  129MOL0     H17382   6.770   5.811  12.055  1.0866  0.1716 -1.0774
  129MOL0     H17383   6.567   5.925  12.082  0.6386  0.4045  1.5521
  129MOL0     H17384   6.552   5.971  11.909  1.2453  0.6612  1.3761
  129MOL0     H17385   6.588   5.682  11.990 -0.2793  1.6520  1.6266
  129MOL0     H17386   6.517   5.752  11.845  1.0410 -1.7827 -0.2824
  129MOL0     H17387   6.356   5.637  12.007 -0.0023 -0.9633 -1.0152
  129MOL0     H17388   6.397   5.773  12.119 -2.1394  2.2530 -1.3632
  129MOL0     H17389   6.276   5.807  11.847 -1.3328  1.8891 -0.2754
  129MOL0     H17390   6.325   5.936  11.953  0.4969  0.1393 -1.9617
  129MOL0     H17391   6.077   5.857  11.973  1.6039 -1.9859 -2.3714
  129MOL0     H17392   6.151   5.709  12.040  0.3320 -0.3929  0.0178
  129MOL0     H17393   6.182   5.980  12.170  1.4853  0.2602 -3.2608
  129MOL0     H17394   6.210   5.826  12.242 -1.0667  1.6118  2.1832
  129MOL0     H17395   5.998   5.876  12.331 -1.4555  1.1349  0.2608
  129MOL0     H17396   5.954   5.780  12.189 -2.1030  0.0280  2.1172
  129MOL0     H17397   6.992   5.826  11.916  0.3768  0.1842 -0.7962
  129MOL0     H17398   7.233   5.876  11.901  0.9599  0.0570  0.0580
  129MOL0     H17399   7.564   6.059  11.804  0.0828  0.2096  0.1693
  129MOL0     H17400   7.804   6.011  11.767  2.3146  0.5175  0.2845
  129MOL0     H17401   6.882   5.753  11.301 -1.9540  0.0509 -1.2171
  129MOL0     H17402   6.691   5.669  11.168  1.9187  2.1479  0.0070
  129MOL0     H17403   6.497   5.389  10.806  0.3986  1.5610  0.5872
  129MOL0     H17404   6.310   5.279  10.712 -0.2322 -0.0888 -0.5153
  129MOL0     H17405   6.089   5.238  10.674  1.5004 -0.3612  0.6216
  129MOL0     H17406   6.158   5.072  10.672  0.1517  1.0468 -0.4394
  129MOL0     H17407   5.888   5.169  10.758  1.5349  1.1832 -2.5011
  129MOL0     H17408   5.932   4.999  10.801 -1.4383  0.7415  0.4315
  129MOL0     H17409   5.937   4.942  10.561 -2.9626 -2.8062  3.2691
  129MOL0     H17410   5.929   5.116  10.516  1.6493 -1.3140 -0.4946
  129MOL0     H17411   5.698   5.108  10.648  3.2543  0.0351  1.3469
  129MOL0     H17412   5.711   4.938  10.638  3.1707 -0.0425  0.6821
  129MOL0     H17413   5.662   5.062  10.222 -1.1276  1.2293  0.4943
  129MOL0     H17414   6.181   5.160  11.099 -1.8576  1.1157 -0.8322
  129MOL0     H17415   6.368   5.273  11.207 -0.8506 -1.3465 -0.3921
  130MOL0     O17416   3.301   0.765   7.035 -0.6237  0.6415  0.6878
  130MOL0     C17417   3.264   0.859   6.972 -0.7197 -0.2280  0.0829
  130MOL0     O17418   3.143   0.917   6.978  0.4009 -0.2552 -0.3074
  130MOL0     C17419   3.047   0.873   7.067  0.3990 -0.0772  0.3921
  130MOL0     C17420   2.908   0.902   7.035 -0.6359 -1.0534 -0.4301
  130MOL0     C17421   2.810   0.851   7.119  0.0336  0.4791  0.0777
  130MOL0     C17422   2.832   0.762   7.226 -0.2045  0.2911  0.0716
  130MOL0     O17423   2.726   0.705   7.283 -0.0119  0.5569 -0.1227
  130MOL0     C17424   2.740   0.628   7.404  0.8722 -0.4637 -0.2064
  130MOL0     C17425   2.632   0.673   7.496 -0.2446 -0.3298  0.7174
  130MOL0     C17426   2.493   0.640   7.426  0.0581 -0.0585 -0.7712
  130MOL0     C17427   2.370   0.654   7.516  0.2151 -0.9351  0.0019
  130MOL0     C17428   2.246   0.620   7.438  0.1862 -0.7583  0.2326
  130MOL0     C17429   2.124   0.648   7.523  0.0616 -0.1414  0.3938
  130MOL0     C17430   1.989   0.617   7.456 -0.1517  0.6310 -0.3955
  130MOL0     C17431   1.859   0.602   7.537  0.7198 -0.3932  0.4477
  130MOL0     N17432   1.813   0.467   7.555 -0.6095  0.0453 -0.0323
  130MOL0     C17433   1.780   0.404   7.671 -0.8933 -0.5782 -0.1489
  130MOL0     C17434   1.712   0.293   7.631 -0.0968  0.4172  0.1172
  130MOL0     C17435   1.643   0.210   7.739  0.5902 -0.0926 -0.3658
  130MOL0     C17436   1.508   0.275   7.785 -0.1071 -0.2786  0.9601
  130MOL0     C17437   1.407   0.279   7.668 -0.1221  0.1792 -0.1000
  130MOL0     C17438   1.269   0.318   7.727  0.1243 -0.4597  0.1045
  130MOL0     O17439   1.172   0.309   7.628  0.5415 -0.1258  0.3164
  130MOL0     C17440   1.061   0.395   7.628 -0.3436 -0.8544  0.5589
  130MOL0     C17441   0.955   0.371   7.542  0.7946  0.4213  0.1743
  130MOL0     C17442   0.830   0.443   7.544 -0.8167  0.5201 -0.3436
  130MOL0     C17443   0.729   0.381   7.449  0.2004 -0.0610  0.2020
  130MOL0     C17444   0.810   0.545   7.640 -0.4089 -0.0195 -0.0980
  130MOL0     C17445   0.684   0.625   7.648  0.7084  0.0663  0.4949
  130MOL0     O17446   0.564   0.568   7.601  0.7502 -0.5439 -0.2806
  130MOL0     C17447   0.449   0.648   7.612  0.7053  0.8503 -0.2861
  130MOL0     C17448   0.403   0.687   7.743 -0.0248  0.3024 -0.4295
  130MOL0     C17449   0.285   0.758   7.763  0.1604  0.0566 -0.0440
  130MOL0     C17450   0.207   0.794   7.651  0.2335 -1.0578 -0.9635
  130MOL0     O17451   0.084   0.848   7.666 -0.3967  0.0134  0.5053
  130MOL0     C17452   0.007   0.783   7.764  0.3101 -0.4272  0.5895
  130MOL0     C17453  -0.130   0.854   7.770 -0.5195 -0.5105  0.5558
  130MOL0     C17454  -0.215   0.833   7.649  0.4144 -0.0479  0.6314
  130MOL0     C17455  -0.331   0.918   7.652 -0.1790 -0.1464  0.3213
  130MOL0     C17456  -0.442   0.877   7.561 -0.3306 -0.1521  0.0872
  130MOL0     C17457  -0.400   0.837   7.415 -0.3595 -0.4898 -0.3564
  130MOL0     C17458  -0.339   0.950   7.330 -0.8537 -0.4539 -0.3619
  130MOL0     C17459  -0.308   0.905   7.182 -0.6534  0.5166  0.9836
  130MOL0    Cl17460  -0.240   0.732   7.172 -0.2063  0.1491  0.3380
  130MOL0     C17461   0.259   0.766   7.526  0.0449 -0.4730  0.2955
  130MOL0     C17462   0.384   0.701   7.504  0.7357  0.9089  0.2318
  130MOL0     O17463   0.696   0.740   7.684 -0.1848 -0.0777 -0.2444
  130MOL0     C17464   0.922   0.571   7.720 -0.1116  0.3058  0.3620
  130MOL0     C17465   1.034   0.500   7.716 -0.0579 -0.2006 -0.7133
  130MOL0     N17466   1.708   0.286   7.492 -0.4853 -0.3211 -0.2238
  130MOL0     N17467   1.769   0.392   7.448  0.2652 -0.2490 -0.0030
  130MOL0     C17468   2.972   0.742   7.254 -0.0419 -0.3263 -0.8791
  130MOL0     C17469   3.071   0.810   7.185  0.6546  0.0128  0.2805
  130MOL0     C17470   3.366   0.921   6.880 -0.8761  0.1123  0.0401
  130MOL0     C17471   3.318   1.008   6.780  0.0298 -0.5142  0.4087
  130MOL0     C17472   3.396   1.071   6.689 -1.0000 -0.1262 -0.1080
  130MOL0     C17473   3.531   1.044   6.688  0.0408 -0.2680 -0.3024
  130MOL0     O17474   3.604   1.097   6.580 -0.1258 -0.1799 -0.4402
  130MOL0     C17475   3.733   1.036   6.552 -0.1799 -0.4184  0.5608
  130MOL0     C17476   3.806   1.113   6.441  0.3232 -0.2846  0.6162
  130MOL0     C17477   3.926   1.052   6.390 -0.1877  0.1085  0.9931
  130MOL0     C17478   4.051   1.042   6.479 -0.2043  0.2333 -0.4815
  130MOL0     C17479   4.169   1.017   6.392 -0.0962 -1.0503  0.3619
  130MOL0     C17480   4.251   0.987   6.306 -0.0832 -0.4608  0.6824
  130MOL0     C17481   3.587   0.963   6.791 -0.0001  0.3804 -0.0108
  130MOL0     C17482   3.508   0.888   6.879  0.1017  0.8738 -0.5304
  130MOL0     H17483   2.882   0.958   6.946  0.2161 -0.7825 -0.5147
  130MOL0     H17484   2.708   0.872   7.090 -0.8112 -1.6291  1.2398
  130MOL0     H17485   2.737   0.521   7.384  1.2178 -0.4958 -0.0937
  130MOL0     H17486   2.830   0.662   7.455  1.0952  0.6409 -1.2991
  130MOL0     H17487   2.643   0.621   7.592 -0.8993 -1.3447  0.2557
  130MOL0     H17488   2.645   0.782   7.497 -2.7877  0.0337  1.7625
  130MOL0     H17489   2.480   0.710   7.343 -1.4775  1.2730  0.5231
  130MOL0     H17490   2.499   0.538   7.386  1.6982 -1.2446  2.1416
  130MOL0     H17491   2.376   0.602   7.612  0.9042 -1.3362 -0.2491
  130MOL0     H17492   2.371   0.762   7.537  1.9536 -0.9520  0.1497
  130MOL0     H17493   2.233   0.671   7.342 -3.6361 -0.9814  0.4521
  130MOL0     H17494   2.249   0.513   7.415  2.1121 -0.7684  0.4243
  130MOL0     H17495   2.133   0.576   7.606  3.1904 -1.5757 -0.9970
  130MOL0     H17496   2.128   0.751   7.559  1.4193 -0.4630  1.2348
  130MOL0     H17497   1.977   0.689   7.374  1.4727  0.0182 -1.2130
  130MOL0     H17498   2.000   0.524   7.399 -0.3674 -0.4140  1.2217
  130MOL0     H17499   1.784   0.654   7.477 -0.2227 -0.8325  1.2181
  130MOL0     H17500   1.876   0.656   7.631 -1.6100 -2.9928  2.5487
  130MOL0     H17501   1.802   0.449   7.767  1.4789  0.1964 -0.9755
  130MOL0     H17502   1.613   0.113   7.699 -3.0728  1.5772 -2.1392
  130MOL0     H17503   1.707   0.192   7.826 -0.9302  0.1579  0.8597
  130MOL0     H17504   1.527   0.377   7.820 -1.0737  0.7447 -1.2625
  130MOL0     H17505   1.453   0.218   7.861 -0.9807 -0.6518  0.0719
  130MOL0     H17506   1.406   0.188   7.607  3.9682  1.0947 -1.8425
  130MOL0     H17507   1.440   0.341   7.584 -0.0592 -2.4133 -2.1117
  130MOL0     H17508   1.287   0.421   7.762 -0.1557  0.2129 -1.6403
  130MOL0     H17509   1.244   0.248   7.807 -1.0250 -1.3657 -1.0082
  130MOL0     H17510   0.962   0.287   7.474  2.2189  1.1720 -0.6583
  130MOL0     H17511   0.767   0.302   7.384  2.1511  2.1270 -1.5338
  130MOL0     H17512   0.634   0.360   7.498  1.1224 -0.6859  1.7833
  130MOL0     H17513   0.696   0.458   7.378 -0.6576  0.5003  1.1917
  130MOL0     H17514   0.462   0.654   7.828 -0.0261  0.5770 -0.3214
  130MOL0     H17515   0.254   0.772   7.866  0.7630  0.6922  0.0583
  130MOL0     H17516  -0.019   0.685   7.724  1.6220  0.1753 -2.0042
  130MOL0     H17517   0.051   0.785   7.864  0.2344  0.4017  0.6168
  130MOL0     H17518  -0.186   0.816   7.856 -1.6217  0.3331  0.2335
  130MOL0     H17519  -0.117   0.961   7.788 -1.8042 -0.2681  0.1454
  130MOL0     H17520  -0.245   0.728   7.645  1.9692 -0.5124  0.3563
  130MOL0     H17521  -0.144   0.855   7.568  1.5128  1.4583  1.9418
  130MOL0     H17522  -0.380   0.912   7.749 -0.0818 -2.7000  0.2806
  130MOL0     H17523  -0.304   1.023   7.636 -1.6550  0.4056  1.3061
  130MOL0     H17524  -0.506   0.965   7.556  1.0353  0.8057 -2.1099
  130MOL0     H17525  -0.504   0.799   7.607  3.4070 -1.4742  3.4936
  130MOL0     H17526  -0.330   0.753   7.421 -0.4617 -0.4597  2.4384
  130MOL0     H17527  -0.496   0.811   7.371 -0.2944  0.4721 -1.1053
  130MOL0     H17528  -0.244   0.977   7.377  0.0623 -1.9471 -1.2410
  130MOL0     H17529  -0.390   1.046   7.330 -0.4418 -0.2259  0.7136
  130MOL0     H17530  -0.249   0.982   7.131  0.7087 -0.6893  0.6867
  130MOL0     H17531  -0.410   0.917   7.142  0.1992  1.3295 -1.0970
  130MOL0     H17532   0.205   0.789   7.435  0.1612 -0.8945  0.1172
  130MOL0     H17533   0.434   0.685   7.409 -0.7042  3.4864 -1.0788
  130MOL0     H17534   0.912   0.654   7.789  2.1280  0.0925  1.0482
  130MOL0     H17535   1.112   0.520   7.788  0.1744  1.1336 -1.3111
  130MOL0     H17536   3.000   0.680   7.339 -3.0343  1.6722  1.8221
  130MOL0     H17537   3.167   0.792   7.232  0.5753 -0.8315  0.1350
  130MOL0     H17538   3.214   1.038   6.784  0.9227  2.8582  1.3688
  130MOL0     H17539   3.348   1.129   6.612  0.1871  1.6990  0.4644
  130MOL0     H17540   3.805   1.042   6.635  0.6444  2.4597 -0.2247
  130MOL0     H17541   3.721   0.935   6.514 -0.4583  0.3484 -1.5150
  130MOL0     H17542   3.833   1.214   6.471  0.2270 -0.4030  1.0976
  130MOL0     H17543   3.732   1.126   6.360 -0.8550 -0.8651  1.5681
  130MOL0     H17544   3.962   1.112   6.306  1.2901  0.0072  1.5333
  130MOL0     H17545   3.904   0.953   6.348  1.2513  0.4691 -0.7766
  130MOL0     H17546   4.036   0.958   6.547 -4.9026  0.9933 -0.2320
  130MOL0     H17547   4.058   1.139   6.529  0.8537 -0.0273 -0.0983
  130MOL0     H17548   4.323   0.965   6.230 -2.5940  0.8074 -2.2573
  130MOL0     H17549   3.693   0.943   6.798 -0.0106 -0.6372 -1.9751
  130MOL0     H17550   3.551   0.820   6.951 -1.4293 -0.1969 -0.5801
  131MOL0     O17551  10.355   5.464   0.556  0.2848  0.0708 -0.3497
  131MOL0     C17552  10.349   5.475   0.438  0.2713 -0.5233  0.5249
  131MOL0     O17553  10.236   5.491   0.357  0.3254  0.4353 -0.2392
  131MOL0     C17554  10.104   5.487   0.409 -0.3774 -0.0098 -1.0894
  131MOL0     C17555  10.072   5.433   0.533 -0.8286 -0.0042 -0.3175
  131MOL0     C17556   9.939   5.452   0.566  0.0213  0.2460 -0.1350
  131MOL0     C17557   9.840   5.488   0.475  0.0686 -0.0906 -0.9163
  131MOL0     O17558   9.711   5.478   0.515 -0.2911  0.1578 -0.0604
  131MOL0     C17559   9.606   5.543   0.446 -0.1148 -0.1443 -0.4850
  131MOL0     C17560   9.487   5.531   0.533 -0.0877 -0.8275  0.6208
  131MOL0     C17561   9.393   5.635   0.488  0.1297 -0.3549  0.3016
  131MOL0     C17562   9.248   5.613   0.536  0.3152  0.1151  0.9151
  131MOL0     C17563   9.168   5.513   0.460  0.1316 -0.0546  0.0270
  131MOL0     C17564   9.096   5.559   0.329  0.0996  0.2680  0.7351
  131MOL0     C17565   8.988   5.674   0.346 -0.0540 -0.0127  0.0717
  131MOL0     C17566   8.895   5.662   0.460  0.8414 -0.2570 -0.3605
  131MOL0     N17567   8.785   5.767   0.439  0.6767 -0.7352 -0.7665
  131MOL0     C17568   8.797   5.904   0.459 -0.3720 -0.3759  0.2041
  131MOL0     C17569   8.670   5.950   0.467  0.7369  0.2491 -0.3327
  131MOL0     C17570   8.620   6.091   0.478 -0.1346  0.7808 -0.2769
  131MOL0     C17571   8.462   6.099   0.482 -0.1953 -0.3838 -0.1134
  131MOL0     C17572   8.413   6.244   0.489 -0.3775  0.4674 -0.2702
  131MOL0     C17573   8.256   6.255   0.493 -0.3464  0.1459 -1.2441
  131MOL0     O17574   8.214   6.209   0.370 -0.9896 -0.1172 -0.0445
  131MOL0     C17575   8.084   6.223   0.343 -0.4664 -0.2004  1.0706
  131MOL0     C17576   7.998   6.321   0.400 -0.6843  0.3311 -0.5915
  131MOL0     C17577   7.858   6.322   0.388 -0.2100  0.2592  0.1960
  131MOL0     C17578   7.790   6.429   0.463  0.1396  0.0703  0.7991
  131MOL0     C17579   7.800   6.229   0.297 -0.0100  0.1193 -0.2801
  131MOL0     C17580   7.654   6.235   0.263 -0.5065  0.6877  0.7805
  131MOL0     O17581   7.621   6.201   0.134 -0.5636  0.1414 -0.4024
  131MOL0     C17582   7.501   6.180   0.073 -0.6479 -0.5357 -0.2635
  131MOL0     C17583   7.378   6.179   0.135 -0.6711  0.8399  0.2357
  131MOL0     C17584   7.263   6.152   0.063 -0.9005 -0.4573 -0.5846
  131MOL0     C17585   7.263   6.133  -0.070 -0.3257 -0.2051 -0.1766
  131MOL0     O17586   7.148   6.124  -0.133 -0.3742 -0.0302  0.4945
  131MOL0     C17587   7.103   5.990  -0.129  0.0884 -0.3287 -0.0711
  131MOL0     C17588   6.954   5.978  -0.160 -0.3617 -1.3827  0.4397
  131MOL0     C17589   6.918   5.874  -0.262  0.4254  0.0335  0.3131
  131MOL0     C17590   6.954   5.923  -0.404  0.0777  0.2180 -0.6168
  131MOL0     C17591   6.942   5.815  -0.512 -0.6690  0.9862 -0.2239
  131MOL0     C17592   6.816   5.725  -0.509  0.4167 -0.1036 -0.0795
  131MOL0     C17593   6.685   5.804  -0.530 -0.3288  0.3993  0.0499
  131MOL0     C17594   6.567   5.708  -0.527 -0.3067 -0.5647 -0.0868
  131MOL0    Cl17595   6.424   5.790  -0.599  0.2129  0.1017  0.3648
  131MOL0     C17596   7.388   6.133  -0.131  0.1657  1.3792 -0.5016
  131MOL0     C17597   7.503   6.158  -0.062  0.3592 -0.2623  1.0741
  131MOL0     O17598   7.578   6.252   0.353  0.7918 -0.5530 -0.6881
  131MOL0     C17599   7.889   6.139   0.233 -0.7179  0.0044 -0.1573
  131MOL0     C17600   8.017   6.127   0.264  0.0849 -0.0254 -0.1522
  131MOL0     N17601   8.582   5.842   0.449 -0.4505  0.4766 -0.4813
  131MOL0     N17602   8.653   5.735   0.439  0.5133  0.4338  0.1360
  131MOL0     C17603   9.876   5.535   0.348  0.1811 -0.2096 -0.0126
  131MOL0     C17604  10.012   5.533   0.312  0.4390 -0.5472 -0.3193
  131MOL0     C17605  10.478   5.455   0.371  0.1792 -0.3279  0.0221
  131MOL0     C17606  10.480   5.408   0.240 -0.4568 -0.3046  0.1776
  131MOL0     C17607  10.598   5.369   0.171 -0.7532  0.2982 -0.3185
  131MOL0     C17608  10.717   5.371   0.240 -0.5953 -0.5738  0.6978
  131MOL0     O17609  10.826   5.311   0.176  0.6694 -0.2028 -0.8472
  131MOL0     C17610  10.954   5.337   0.230 -0.1312 -0.7363  0.0161
  131MOL0     C17611  11.055   5.260   0.138  0.1586 -0.4222  0.1086
  131MOL0     C17612  11.192   5.224   0.195 -0.3300 -0.0690 -0.0728
  131MOL0     C17613  11.288   5.185   0.083  0.8443 -0.6089  0.1758
  131MOL0     C17614  11.408   5.150   0.154 -0.8679 -0.5852 -0.2757
  131MOL0     C17615  11.500   5.121   0.225 -0.3864 -0.2098  0.4684
  131MOL0     C17616  10.721   5.426   0.372 -0.1567  0.4378 -0.0179
  131MOL0     C17617  10.602   5.451   0.438  0.8654 -0.0963 -0.0025
  131MOL0     H17618  10.141   5.394   0.607  0.0266 -1.6126 -1.9059
  131MOL0     H17619   9.906   5.430   0.667  0.0343  0.7101 -0.0264
  131MOL0     H17620   9.642   5.646   0.449  3.0752 -1.1647  1.4888
  131MOL0     H17621   9.591   5.505   0.344  0.4513  0.5974 -0.8500
  131MOL0     H17622   9.431   5.438   0.523 -0.7201 -0.2052 -3.4602
  131MOL0     H17623   9.515   5.555   0.636  1.6373 -3.0872  0.7731
  131MOL0     H17624   9.429   5.730   0.528  0.2654 -0.1311 -0.3462
  131MOL0     H17625   9.396   5.637   0.379 -1.6581 -1.0448  0.1965
  131MOL0     H17626   9.245   5.594   0.644 -0.9534 -3.0695  0.4340
  131MOL0     H17627   9.199   5.710   0.522  0.7304  0.5504  2.2927
  131MOL0     H17628   9.222   5.423   0.430 -2.7990 -1.7468 -0.5876
  131MOL0     H17629   9.089   5.479   0.526  0.8356 -0.5501  0.6226
  131MOL0     H17630   9.166   5.592   0.252 -0.5659  0.1485  0.0608
  131MOL0     H17631   9.047   5.471   0.286  2.6216  0.5906 -3.3656
  131MOL0     H17632   9.039   5.770   0.356  0.8553 -0.2267 -2.0397
  131MOL0     H17633   8.947   5.691   0.246  1.7877  0.6208 -0.6374
  131MOL0     H17634   8.950   5.675   0.553  1.1358 -0.1420 -0.5500
  131MOL0     H17635   8.851   5.562   0.469  1.1885 -0.4315 -0.5628
  131MOL0     H17636   8.893   5.954   0.460 -0.2724 -0.5771  0.5690
  131MOL0     H17637   8.650   6.143   0.570  1.0514  0.5640 -0.5251
  131MOL0     H17638   8.651   6.144   0.387  1.0298 -0.2732 -0.5237
  131MOL0     H17639   8.418   6.052   0.571 -1.6279 -2.8566 -1.9987
  131MOL0     H17640   8.423   6.057   0.389  2.9171  1.4681 -2.4587
  131MOL0     H17641   8.468   6.306   0.418  0.8699 -2.2167 -1.8200
  131MOL0     H17642   8.445   6.277   0.588 -1.8254  2.0873 -0.3005
  131MOL0     H17643   8.242   6.363   0.502 -0.3809 -0.0188  1.8512
  131MOL0     H17644   8.215   6.193   0.574 -1.4177 -0.1152 -1.9692
  131MOL0     H17645   8.052   6.388   0.466 -0.6009  2.0903 -2.3627
  131MOL0     H17646   7.716   6.389   0.532 -0.6947 -1.3433 -0.8711
  131MOL0     H17647   7.869   6.489   0.512  1.3021  1.3440 -2.3419
  131MOL0     H17648   7.739   6.483   0.383 -1.3019 -2.2196  0.0990
  131MOL0     H17649   7.377   6.178   0.244  0.2358  1.7071  0.2664
  131MOL0     H17650   7.170   6.153   0.120  0.0241  2.8112  1.1472
  131MOL0     H17651   7.159   5.937  -0.206  0.5625  0.1507 -0.0673
  131MOL0     H17652   7.130   5.943  -0.034 -0.6859 -0.3600  0.1397
  131MOL0     H17653   6.897   5.958  -0.069  3.4536 -1.8009  2.9618
  131MOL0     H17654   6.913   6.071  -0.199 -2.4873 -3.0196 -1.4402
  131MOL0     H17655   6.812   5.852  -0.247 -0.0989  2.8184  1.2133
  131MOL0     H17656   6.967   5.779  -0.240  0.7823 -0.1962 -1.3379
  131MOL0     H17657   6.890   6.011  -0.421  1.2205  1.2517  0.2742
  131MOL0     H17658   7.057   5.959  -0.404  0.2975 -0.2380 -2.9905
  131MOL0     H17659   7.033   5.756  -0.498  1.5665  3.6758 -2.1482
  131MOL0     H17660   6.957   5.866  -0.608 -0.4116  4.1360  1.3476
  131MOL0     H17661   6.831   5.648  -0.585  3.7514  0.1852  0.1408
  131MOL0     H17662   6.811   5.678  -0.411 -1.3263 -0.6465 -0.3988
  131MOL0     H17663   6.692   5.855  -0.626 -0.7297  0.5365  0.0889
  131MOL0     H17664   6.676   5.881  -0.452 -1.8348 -0.7216  1.0520
  131MOL0     H17665   6.541   5.686  -0.423  1.3007  0.1832  0.4982
  131MOL0     H17666   6.594   5.617  -0.582  1.5878 -0.5680  0.7724
  131MOL0     H17667   7.396   6.119  -0.238 -0.5879  2.4928 -0.7261
  131MOL0     H17668   7.598   6.159  -0.115 -0.5479  0.3230 -0.5975
  131MOL0     H17669   7.855   6.067   0.160 -0.5456 -1.3181  1.0236
  131MOL0     H17670   8.075   6.052   0.212 -0.0788  0.5375 -1.1852
  131MOL0     H17671   9.802   5.572   0.278  0.0446  0.7435  0.6184
  131MOL0     H17672  10.040   5.562   0.211 -0.7807 -3.9778 -1.7994
  131MOL0     H17673  10.385   5.403   0.187 -2.3076  3.3940  2.6685
  131MOL0     H17674  10.588   5.321   0.074 -2.9966 -0.9841  0.4682
  131MOL0     H17675  10.988   5.440   0.244  1.8534 -1.1126 -1.5192
  131MOL0     H17676  10.972   5.288   0.326  1.5522  1.3744  0.8672
  131MOL0     H17677  11.071   5.321   0.048  1.2292  1.0503  1.2552
  131MOL0     H17678  11.001   5.172   0.103 -1.8105  1.0562 -0.7850
  131MOL0     H17679  11.179   5.149   0.274 -1.5588 -0.2767 -0.4559
  131MOL0     H17680  11.234   5.311   0.246  0.2512  0.3241 -1.1849
  131MOL0     H17681  11.320   5.269   0.021  0.2080 -1.9203 -2.0748
  131MOL0     H17682  11.240   5.106   0.024  2.5649 -2.1129  0.6826
  131MOL0     H17683  11.586   5.095   0.284  0.4757  1.8016  0.1850
  131MOL0     H17684  10.809   5.411   0.434  0.3346  0.1693 -0.7600
  131MOL0     H17685  10.621   5.488   0.538 -1.5509  3.0900 -0.5461
  132MOL0     O17686   5.675   0.142   5.021  0.4941  0.2798  0.1387
  132MOL0     C17687   5.649   0.026   5.038  0.3994 -0.6578 -0.1263
  132MOL0     O17688   5.529  -0.017   5.067 -0.5638  0.2037  0.1071
  132MOL0     C17689   5.440   0.062   5.133 -0.0342 -0.8012 -0.6346
  132MOL0     C17690   5.471   0.178   5.202 -0.8149 -0.4298 -0.1234
  132MOL0     C17691   5.374   0.233   5.284 -0.1256 -0.6614  0.9145
  132MOL0     C17692   5.242   0.191   5.279 -0.0582  0.6502  0.4345
  132MOL0     O17693   5.153   0.266   5.351 -0.6599  0.5844  0.1405
  132MOL0     C17694   5.015   0.250   5.321 -0.0371 -0.3462  0.4612
  132MOL0     C17695   4.941   0.361   5.381 -0.0758  0.2692  0.1402
  132MOL0     C17696   4.789   0.346   5.385 -0.1809  0.1355 -0.2849
  132MOL0     C17697   4.718   0.477   5.413 -0.1776  0.3216 -0.6015
  132MOL0     C17698   4.573   0.462   5.407  0.2900 -0.4702  0.1240
  132MOL0     C17699   4.500   0.584   5.450 -0.2652  0.4232 -0.0543
  132MOL0     C17700   4.350   0.566   5.455  0.6103 -0.6846  0.0178
  132MOL0     C17701   4.296   0.701   5.493  0.6096  0.2171 -0.1325
  132MOL0     N17702   4.146   0.694   5.521  0.0624 -0.3625  0.5234
  132MOL0     C17703   4.081   0.781   5.601  0.6765 -0.5865  0.5337
  132MOL0     C17704   3.953   0.746   5.596  0.6816  0.2750 -0.1467
  132MOL0     C17705   3.845   0.798   5.679 -0.1592 -0.5850  0.2803
  132MOL0     C17706   3.736   0.693   5.688 -0.3156 -0.3356 -0.3784
  132MOL0     C17707   3.627   0.733   5.799 -1.1590 -0.5289  0.6371
  132MOL0     C17708   3.541   0.615   5.837  0.1821 -0.1061  0.3238
  132MOL0     O17709   3.448   0.668   5.931  0.1925 -0.2179  0.0505
  132MOL0     C17710   3.316   0.631   5.941 -0.5438 -0.4801 -0.1143
  132MOL0     C17711   3.263   0.666   6.066 -0.3155 -0.7168  0.2519
  132MOL0     C17712   3.137   0.633   6.105 -0.2019 -1.0926  0.6154
  132MOL0     C17713   3.106   0.657   6.255 -0.2258  0.3269  0.2564
  132MOL0     C17714   3.046   0.575   6.009  0.5007  0.3127 -0.5529
  132MOL0     C17715   2.904   0.537   6.042 -0.1539  0.4290 -0.2568
  132MOL0     O17716   2.839   0.465   5.954  0.1651  0.0413  0.0794
  132MOL0     C17717   2.737   0.380   5.990  0.5876  0.0221  1.0465
  132MOL0     C17718   2.650   0.347   5.881 -0.1531  0.3262  0.9164
  132MOL0     C17719   2.550   0.262   5.893  0.8253 -0.0020  0.3974
  132MOL0     C17720   2.507   0.221   6.018  0.2610  0.3948  1.1227
  132MOL0     O17721   2.396   0.138   6.037 -0.0752  0.4512 -0.0894
  132MOL0     C17722   2.280   0.189   5.986  1.2288  0.6650  0.4514
  132MOL0     C17723   2.160   0.084   5.987 -0.9391  0.1943  0.4877
  132MOL0     C17724   2.045   0.129   5.893  0.1831  0.2738  0.3327
  132MOL0     C17725   1.932   0.027   5.895  0.5084 -0.4851  0.6274
  132MOL0     C17726   1.805   0.053   5.824  0.1653 -0.9619  0.4425
  132MOL0     C17727   1.684  -0.031   5.876 -0.7705 -0.0758 -0.4327
  132MOL0     C17728   1.566  -0.016   5.781 -0.1159 -0.3086  0.5234
  132MOL0     C17729   1.448   0.064   5.843 -0.8048  0.0588  0.4389
  132MOL0    Cl17730   1.319   0.067   5.717 -0.1545 -0.0742  0.5724
  132MOL0     C17731   2.574   0.264   6.124 -0.8920 -0.9424  0.3459
  132MOL0     C17732   2.694   0.338   6.114  0.3733 -0.5634  0.3286
  132MOL0     O17733   2.866   0.564   6.158  0.2673  0.5652 -0.0519
  132MOL0     C17734   3.097   0.547   5.883 -0.6330  0.2609  0.6925
  132MOL0     C17735   3.231   0.567   5.853 -0.4319 -0.3438  0.4807
  132MOL0     N17736   3.939   0.646   5.502 -0.2717 -0.2774 -0.3082
  132MOL0     N17737   4.052   0.622   5.448 -0.5848 -0.0279  0.0740
  132MOL0     C17738   5.211   0.069   5.219 -0.3918  0.0112 -0.1021
  132MOL0     C17739   5.315   0.007   5.137  0.1500 -0.4151 -0.7522
  132MOL0     C17740   5.742  -0.080   5.006 -0.7421 -0.0261 -0.0092
  132MOL0     C17741   5.725  -0.210   5.055 -0.4034  0.9545  0.1375
  132MOL0     C17742   5.806  -0.316   5.009 -0.6732 -0.3386 -0.5023
  132MOL0     C17743   5.918  -0.294   4.930 -0.0125 -0.2780  0.9527
  132MOL0     O17744   5.997  -0.389   4.884  0.4552  0.0868 -0.3561
  132MOL0     C17745   5.957  -0.522   4.923 -0.5803 -0.2991  0.1136
  132MOL0     C17746   6.065  -0.617   4.868  0.6140 -0.2522 -0.7839
  132MOL0     C17747   6.199  -0.607   4.939 -0.5778 -0.8159  0.0173
  132MOL0     C17748   6.297  -0.717   4.900  0.3894  0.2917  0.0529
  132MOL0     C17749   6.427  -0.677   4.936  0.3852 -0.5338  0.1140
  132MOL0     C17750   6.535  -0.630   4.977 -0.5284 -0.3544  0.8802
  132MOL0     C17751   5.945  -0.161   4.890  0.7490 -1.3375  0.0551
  132MOL0     C17752   5.850  -0.053   4.920 -0.4485  0.3117  0.0539
  132MOL0     H17753   5.567   0.228   5.207 -2.4228  3.3482 -2.7535
  132MOL0     H17754   5.397   0.314   5.352  0.9587  2.4290 -2.7618
  132MOL0     H17755   4.987   0.245   5.215 -2.2400 -0.2798  0.9777
  132MOL0     H17756   4.974   0.158   5.363 -0.9813  0.7908  2.1646
  132MOL0     H17757   4.971   0.369   5.486 -0.9776  3.3695  0.2515
  132MOL0     H17758   4.971   0.453   5.329 -0.2044 -0.3779 -1.1108
  132MOL0     H17759   4.757   0.308   5.287  0.1043  1.1856 -0.7959
  132MOL0     H17760   4.760   0.271   5.460 -0.0754  0.4174  0.0410
  132MOL0     H17761   4.745   0.505   5.515  0.5514 -1.4454 -0.2754
  132MOL0     H17762   4.745   0.561   5.347 -0.9150 -0.7823 -2.3920
  132MOL0     H17763   4.541   0.429   5.308  2.1598 -0.7148 -0.4218
  132MOL0     H17764   4.546   0.390   5.485  0.5204 -0.8387 -0.1390
  132MOL0     H17765   4.546   0.631   5.538  1.0659  0.2767 -0.6451
  132MOL0     H17766   4.531   0.651   5.369  2.1341  0.4363  0.7999
  132MOL0     H17767   4.314   0.536   5.357  0.9789 -2.2742  0.3366
  132MOL0     H17768   4.317   0.500   5.536 -2.6310  2.1841  1.2589
  132MOL0     H17769   4.322   0.775   5.417 -0.8011  1.4239  0.5190
  132MOL0     H17770   4.341   0.724   5.590 -1.5509 -2.8933  1.7871
  132MOL0     H17771   4.134   0.850   5.667  1.2162 -0.8300  0.3652
  132MOL0     H17772   3.880   0.826   5.779 -3.3764  4.5555  0.3463
  132MOL0     H17773   3.794   0.887   5.640  0.6487  0.6469  1.9197
  132MOL0     H17774   3.773   0.594   5.717 -1.1175 -1.2704 -2.3558
  132MOL0     H17775   3.686   0.684   5.591  0.7372 -0.8935 -0.8856
  132MOL0     H17776   3.562   0.814   5.766  0.3947 -0.2135 -1.9258
  132MOL0     H17777   3.686   0.754   5.889  0.9862 -0.8828 -0.5924
  132MOL0     H17778   3.605   0.540   5.886 -1.0539 -1.0886  0.4715
  132MOL0     H17779   3.485   0.564   5.758  0.0949  2.8212 -1.6263
  132MOL0     H17780   3.339   0.717   6.125  0.8000  0.8900 -2.3906
  132MOL0     H17781   3.077   0.563   6.302  2.7933 -0.7787  0.0852
  132MOL0     H17782   3.188   0.695   6.316 -1.1239  0.1486  1.6232
  132MOL0     H17783   3.035   0.738   6.274 -1.7930 -1.2226  1.3313
  132MOL0     H17784   2.670   0.392   5.784 -1.6682 -0.7890  0.0486
  132MOL0     H17785   2.488   0.238   5.808  1.2491 -3.1552  0.8532
  132MOL0     H17786   2.249   0.263   6.060  1.3183  0.4777  0.6764
  132MOL0     H17787   2.285   0.218   5.880  0.1069 -1.4101 -0.2191
  132MOL0     H17788   2.199  -0.014   5.959 -2.0397 -0.2568  0.4914
  132MOL0     H17789   2.123   0.060   6.087  1.4017 -2.3350  0.8517
  132MOL0     H17790   2.082   0.140   5.791  3.1507 -4.3344  0.6146
  132MOL0     H17791   2.010   0.227   5.927  1.0581  0.5189  0.5547
  132MOL0     H17792   1.971  -0.068   5.856  1.5092  0.0334  0.3308
  132MOL0     H17793   1.909   0.013   6.001  1.1177 -0.9769  0.7082
  132MOL0     H17794   1.835   0.042   5.719 -2.3948  4.0591 -1.1390
  132MOL0     H17795   1.775   0.158   5.835  0.8155 -0.7290  0.0561
  132MOL0     H17796   1.726  -0.131   5.885  0.8325  0.3882 -2.1538
  132MOL0     H17797   1.664  -0.003   5.980  3.1407 -0.6571  0.6339
  132MOL0     H17798   1.524  -0.115   5.760  0.7013 -0.6840  0.6372
  132MOL0     H17799   1.598   0.028   5.686 -2.2838  1.0002  0.3315
  132MOL0     H17800   1.482   0.166   5.865  0.6188  0.1226 -1.6921
  132MOL0     H17801   1.405   0.017   5.931 -4.7163  2.6529  0.1752
  132MOL0     H17802   2.540   0.244   6.225 -2.6760  2.6620  0.6467
  132MOL0     H17803   2.746   0.356   6.208  0.0898  0.1510  0.3558
  132MOL0     H17804   3.035   0.496   5.810  0.2937 -0.7352  0.5742
  132MOL0     H17805   3.260   0.537   5.752  3.6788  0.9603  1.0974
  132MOL0     H17806   5.117   0.016   5.232  0.4264 -1.9072 -1.3776
  132MOL0     H17807   5.287  -0.076   5.073 -2.9718 -0.4954  0.5496
  132MOL0     H17808   5.636  -0.224   5.115 -0.6104  0.3456 -0.2989
  132MOL0     H17809   5.780  -0.414   5.047  1.3751 -0.3095  1.1503
  132MOL0     H17810   5.956  -0.542   5.030 -1.9545 -0.5285  0.0711
  132MOL0     H17811   5.859  -0.551   4.886 -1.8644  0.9444  2.3421
  132MOL0     H17812   6.068  -0.604   4.760 -1.0294 -3.4726 -1.3526
  132MOL0     H17813   6.030  -0.720   4.885 -0.5527  0.3710  0.8661
  132MOL0     H17814   6.186  -0.612   5.047 -0.8756 -3.0119 -0.0844
  132MOL0     H17815   6.245  -0.512   4.910 -0.2610 -0.8861  0.2912
  132MOL0     H17816   6.306  -0.731   4.792  0.5874 -0.7384  0.1995
  132MOL0     H17817   6.269  -0.811   4.946  0.6673 -0.1017 -0.5665
  132MOL0     H17818   6.621  -0.574   5.010 -0.7113  0.9263 -0.6832
  132MOL0     H17819   6.031  -0.145   4.826  0.5642 -0.8679 -0.0774
  132MOL0     H17820   5.874   0.046   4.882 -0.4312 -0.4316 -2.0407
  133MOL0     O17821   6.365  10.951   9.377 -0.0339  0.6661 -0.6166
  133MOL0     C17822   6.372  10.974   9.501  0.2878  0.3742  0.2161
  133MOL0     O17823   6.269  10.976   9.596 -0.7656 -0.0064 -0.5986
  133MOL0     C17824   6.140  10.934   9.571 -0.7015 -0.1785  0.4958
  133MOL0     C17825   6.098  10.853   9.468  0.2659  0.2287  0.1336
  133MOL0     C17826   5.961  10.822   9.457 -0.0744  1.0159 -0.9126
  133MOL0     C17827   5.872  10.863   9.561 -0.2444  0.0412  0.1497
  133MOL0     O17828   5.739  10.847   9.577  0.4416  0.7499  0.1721
  133MOL0     C17829   5.657  10.786   9.469 -0.8421  0.0207  0.1496
  133MOL0     C17830   5.526  10.853   9.497  0.3765  0.1874 -0.3682
  133MOL0     C17831   5.420  10.813   9.394  0.7470  0.4001 -0.4276
  133MOL0     C17832   5.283  10.869   9.424 -0.1915 -0.1208  0.0291
  133MOL0     C17833   5.176  10.808   9.334 -0.8765 -0.1551 -0.0273
  133MOL0     C17834   5.039  10.876   9.363 -0.5627  0.1743 -0.3001
  133MOL0     C17835   4.927  10.810   9.291 -0.2820 -0.0094 -0.1339
  133MOL0     C17836   4.791  10.884   9.311 -0.9195  0.2260  1.1920
  133MOL0     N17837   4.672  10.823   9.247 -0.7141 -0.1215  0.4413
  133MOL0     C17838   4.651  10.693   9.214  0.3899 -0.3690 -0.7242
  133MOL0     C17839   4.530  10.693   9.160  0.1522  0.0643  0.5195
  133MOL0     C17840   4.456  10.568   9.131 -0.3656  0.2705  0.8812
  133MOL0     C17841   4.450  10.532   8.983  0.0819 -0.6147 -0.3053
  133MOL0     C17842   4.365  10.411   8.961  0.2492  0.0049 -0.3419
  133MOL0     C17843   4.213  10.452   8.938  0.1758 -0.0429  0.2520
  133MOL0     O17844   4.127  10.341   8.965  0.0298  0.0016  0.0495
  133MOL0     C17845   4.008  10.349   8.892 -0.5286  0.4543 -0.1267
  133MOL0     C17846   3.940  10.230   8.838 -0.5906  0.2273 -0.3071
  133MOL0     C17847   3.809  10.235   8.784  0.4076  0.1333 -0.0944
  133MOL0     C17848   3.749  10.099   8.742 -0.4901 -0.1911 -0.5482
  133MOL0     C17849   3.736  10.353   8.782 -0.4475 -0.3531 -0.0118
  133MOL0     C17850   3.596  10.368   8.727 -0.4206 -1.0050 -0.2449
  133MOL0     O17851   3.562  10.495   8.691 -0.2282 -0.1345 -0.2063
  133MOL0     C17852   3.462  10.509   8.593  0.6042 -0.1512 -0.5328
  133MOL0     C17853   3.348  10.596   8.613  0.2803  0.0181  0.1255
  133MOL0     C17854   3.245  10.609   8.521 -0.5082  0.3911  1.2204
  133MOL0     C17855   3.251  10.545   8.400  0.4710  0.8910  0.5545
  133MOL0     O17856   3.156  10.557   8.293  0.3269 -0.3835  0.0281
  133MOL0     C17857   3.050  10.652   8.307 -0.4280  0.8404 -0.1819
  133MOL0     C17858   2.932  10.577   8.380 -0.5382  0.4300  0.2830
  133MOL0     C17859   2.825  10.672   8.420 -0.2862  0.5701  0.3832
  133MOL0     C17860   2.725  10.674   8.296 -0.1876 -0.1696 -0.4663
  133MOL0     C17861   2.599  10.756   8.333 -0.4552 -0.3505 -0.7827
  133MOL0     C17862   2.501  10.750   8.216 -0.1538 -0.3775  0.6926
  133MOL0     C17863   2.363  10.817   8.262  0.6340  0.2869 -0.9519
  133MOL0     C17864   2.354  10.961   8.221 -0.1628  0.9784  0.2490
  133MOL0    Cl17865   2.218  11.051   8.291  0.2963  0.1666  0.1248
  133MOL0     C17866   3.369  10.465   8.375  0.1520  0.1754 -0.2010
  133MOL0     C17867   3.468  10.438   8.473 -0.4948  0.0332 -0.5683
  133MOL0     O17868   3.517  10.275   8.744 -1.2236 -0.1008  0.0208
  133MOL0     C17869   3.797  10.467   8.833 -0.0870  0.0175 -0.1611
  133MOL0     C17870   3.931  10.465   8.886 -0.0025 -0.2572  0.5373
  133MOL0     N17871   4.478  10.817   9.154 -0.0645  0.0803 -0.1134
  133MOL0     N17872   4.565  10.895   9.206 -0.2632  0.4119  0.3324
  133MOL0     C17873   5.921  10.935   9.670 -0.4661  0.1875 -0.8063
  133MOL0     C17874   6.062  10.972   9.684  0.2717  1.1054  0.4475
  133MOL0     C17875   6.503  11.020   9.539 -0.9721  0.0169  0.4291
  133MOL0     C17876   6.532  11.061   9.675  0.2347  0.5502 -0.2205
  133MOL0     C17877   6.660  11.102   9.720  0.2237  0.3587 -0.1087
  133MOL0     C17878   6.770  11.093   9.632  0.4785 -0.3999  0.0248
  133MOL0     O17879   6.894  11.120   9.688  0.3647  0.7209  0.7851
  133MOL0     C17880   7.013  11.104   9.609 -0.5801 -0.3134 -0.3113
  133MOL0     C17881   7.138  11.143   9.693 -0.0949  0.0356 -0.1728
  133MOL0     C17882   7.190  11.278   9.674 -0.9331 -0.2223 -0.0263
  133MOL0     C17883   7.338  11.296   9.734 -1.0154 -0.0354 -0.2425
  133MOL0     C17884   7.447  11.230   9.647 -0.5605  0.3752 -0.8334
  133MOL0     C17885   7.513  11.154   9.572 -0.3581  0.5714 -0.5764
  133MOL0     C17886   6.741  11.067   9.494 -0.5937  0.2534  0.3062
  133MOL0     C17887   6.614  11.025   9.453  0.7087 -0.6726  0.0166
  133MOL0     H17888   6.155  10.804   9.390  2.0298 -1.5810  2.4117
  133MOL0     H17889   5.928  10.751   9.382  0.7143  1.3682 -1.6023
  133MOL0     H17890   5.687  10.814   9.368 -0.1368 -1.5566 -0.1071
  133MOL0     H17891   5.649  10.678   9.484 -1.1232  0.3271  2.6147
  133MOL0     H17892   5.486  10.837   9.597 -1.0980 -0.5682 -1.0303
  133MOL0     H17893   5.539  10.960   9.484 -0.4131  0.2856 -0.4304
  133MOL0     H17894   5.445  10.853   9.296 -3.3320  3.3016 -0.5277
  133MOL0     H17895   5.409  10.705   9.386  1.9145  0.1670  0.8102
  133MOL0     H17896   5.248  10.852   9.526  0.2093  1.0397  0.3672
  133MOL0     H17897   5.277  10.977   9.412 -2.8108 -0.0992  0.8389
  133MOL0     H17898   5.202  10.815   9.228 -1.9481 -1.3369 -0.4037
  133MOL0     H17899   5.172  10.700   9.351 -0.8378 -0.4638 -1.8074
  133MOL0     H17900   5.014  10.879   9.469  0.8851  0.6414  0.0460
  133MOL0     H17901   5.043  10.977   9.323  0.8190  1.3104  2.4575
  133MOL0     H17902   4.934  10.798   9.183  1.3341  1.4123 -0.2211
  133MOL0     H17903   4.925  10.711   9.336  2.8509  0.5075  1.4032
  133MOL0     H17904   4.799  10.985   9.270  0.2498 -0.5770 -0.6714
  133MOL0     H17905   4.757  10.900   9.414 -0.2759  2.0028  1.1653
  133MOL0     H17906   4.722  10.615   9.238  0.2947  0.6581  3.9520
  133MOL0     H17907   4.505  10.484   9.182 -1.0504 -0.1573  0.8511
  133MOL0     H17908   4.353  10.570   9.167 -1.4629  0.4406 -2.0872
  133MOL0     H17909   4.553  10.517   8.950  0.3574 -1.0707  0.7398
  133MOL0     H17910   4.410  10.622   8.935 -1.4874 -1.1284 -0.0177
  133MOL0     H17911   4.371  10.332   9.037  1.7286 -0.5556 -1.0146
  133MOL0     H17912   4.393  10.348   8.876 -0.9884 -0.0232 -0.7562
  133MOL0     H17913   4.202  10.478   8.833 -0.6815 -0.2646  0.2836
  133MOL0     H17914   4.184  10.542   8.994  1.1494  1.2384 -1.2371
  133MOL0     H17915   3.988  10.133   8.846 -0.9344  0.1749  1.9053
  133MOL0     H17916   3.714  10.115   8.640 -4.1566 -0.8404  0.4546
  133MOL0     H17917   3.826  10.022   8.749  0.6062  0.9685  0.8096
  133MOL0     H17918   3.658  10.076   8.799 -1.3471 -0.7285 -2.0860
  133MOL0     H17919   3.344  10.646   8.710 -0.1735 -0.4771  0.3691
  133MOL0     H17920   3.160  10.674   8.543 -2.7242 -1.3801 -1.4364
  133MOL0     H17921   3.085  10.737   8.366  1.7162  0.6126 -1.0272
  133MOL0     H17922   3.019  10.694   8.211  0.0316 -1.3857 -1.3804
  133MOL0     H17923   2.889  10.501   8.314 -1.9742 -0.6556  2.3499
  133MOL0     H17924   2.988  10.528   8.459  1.2520  0.5543 -0.8509
  133MOL0     H17925   2.871  10.769   8.442  0.3466  0.2461  0.5330
  133MOL0     H17926   2.783  10.632   8.512 -0.3440  0.8105  0.4639
  133MOL0     H17927   2.770  10.709   8.203 -0.6962  1.8768  0.0059
  133MOL0     H17928   2.686  10.573   8.280  0.1072 -0.2614 -0.6173
  133MOL0     H17929   2.645  10.854   8.354  1.8892 -1.8939  2.0838
  133MOL0     H17930   2.567  10.712   8.428  1.2679 -1.1355 -0.5096
  133MOL0     H17931   2.556  10.809   8.142  1.1838 -1.0049  1.1513
  133MOL0     H17932   2.492  10.649   8.176  1.2554 -0.1904 -0.1686
  133MOL0     H17933   2.358  10.819   8.372 -0.7238  1.4384 -1.0124
  133MOL0     H17934   2.288  10.752   8.217  2.2433  0.1542 -3.6543
  133MOL0     H17935   2.343  10.963   8.112 -1.9932  2.1225  0.4019
  133MOL0     H17936   2.449  11.013   8.238 -0.0586  1.2504 -1.0795
  133MOL0     H17937   3.377  10.416   8.279  1.0532 -2.3882  1.1059
  133MOL0     H17938   3.549  10.371   8.445  1.3607 -0.3972  4.7731
  133MOL0     H17939   3.750  10.565   8.828 -1.0826 -0.5068 -3.0252
  133MOL0     H17940   3.973  10.546   8.944  0.9546 -0.6966  0.4851
  133MOL0     H17941   5.856  10.962   9.752  0.4095  0.6299 -0.2388
  133MOL0     H17942   6.101  11.027   9.770  2.4406  0.0998  0.1867
  133MOL0     H17943   6.461  11.052   9.756  2.1013 -0.2386  1.4052
  133MOL0     H17944   6.667  11.108   9.828 -0.5958 -2.2412  0.1729
  133MOL0     H17945   7.017  11.002   9.571 -2.8147  0.1623 -2.0579
  133MOL0     H17946   7.009  11.177   9.528  2.7454  0.3606  0.0068
  133MOL0     H17947   7.210  11.064   9.672 -2.1230 -2.0753  0.4979
  133MOL0     H17948   7.120  11.132   9.800 -3.3397  2.1418 -0.3415
  133MOL0     H17949   7.119  11.337   9.733  0.5429 -0.3759  2.0162
  133MOL0     H17950   7.187  11.307   9.569 -0.1846  0.8035  0.2283
  133MOL0     H17951   7.335  11.259   9.837  3.7070 -0.9479 -0.1996
  133MOL0     H17952   7.355  11.402   9.754  0.5564 -0.7410  2.7351
  133MOL0     H17953   7.562  11.075   9.519  1.2755  0.5448  0.8999
  133MOL0     H17954   6.822  11.047   9.424 -1.4760 -0.3783 -0.5729
  133MOL0     H17955   6.603  10.989   9.352 -2.9999  2.1458 -0.8301
  134MOL0     O17956  10.118   9.035  10.435 -0.1511 -0.0743  0.0590
  134MOL0     C17957  10.174   9.097  10.346  0.2199  0.9870  0.1987
  134MOL0     O17958  10.123   9.102  10.218  0.2880 -0.0311  0.3481
  134MOL0     C17959   9.997   9.076  10.205  0.0137  0.7994  0.7588
  134MOL0     C17960   9.965   8.944  10.157  0.3700 -0.7954  0.5305
  134MOL0     C17961   9.833   8.917  10.129  0.0100 -0.0802 -0.8773
  134MOL0     C17962   9.728   8.994  10.179 -0.1196 -0.4349 -0.2984
  134MOL0     O17963   9.605   8.946  10.156  0.4196 -0.1181 -0.0779
  134MOL0     C17964   9.511   8.946  10.266 -0.7131 -0.1022 -0.0615
  134MOL0     C17965   9.371   8.910  10.219  0.3492  0.4303 -0.3137
  134MOL0     C17966   9.281   8.872  10.334 -0.3955  0.7948 -0.8436
  134MOL0     C17967   9.131   8.878  10.297 -0.6267  0.2126  0.8295
  134MOL0     C17968   9.078   8.758  10.218  0.4100  0.2023  1.2307
  134MOL0     C17969   8.931   8.794  10.176 -0.1501 -0.3705  0.4746
  134MOL0     C17970   8.864   8.678  10.089 -0.0624 -0.2775  0.8697
  134MOL0     C17971   8.813   8.572  10.175 -0.4642  0.4959  0.1205
  134MOL0     N17972   8.737   8.466  10.107  0.2801  0.1581 -0.5189
  134MOL0     C17973   8.786   8.375  10.012  0.2315  0.0991  0.7856
  134MOL0     C17974   8.680   8.317   9.958 -0.1405  1.2354  0.0093
  134MOL0     C17975   8.685   8.195   9.859  0.3810  0.3822  0.5704
  134MOL0     C17976   8.565   8.192   9.760  0.8917  0.3482 -0.3189
  134MOL0     C17977   8.557   8.081   9.650 -0.6739 -0.6137  0.6561
  134MOL0     C17978   8.420   8.054   9.594  0.3234 -0.3639 -0.2202
  134MOL0     O17979   8.429   7.939   9.502 -0.2370 -0.6745  0.2134
  134MOL0     C17980   8.322   7.909   9.427  0.3919 -0.1376 -0.3326
  134MOL0     C17981   8.346   7.821   9.326  0.5422 -0.1777  0.8538
  134MOL0     C17982   8.250   7.770   9.237 -0.6767 -0.7302  0.0240
  134MOL0     C17983   8.314   7.697   9.120 -0.1620 -0.3627  0.7529
  134MOL0     C17984   8.117   7.809   9.258  0.0821 -0.2460  0.9787
  134MOL0     C17985   8.001   7.772   9.173 -0.1693 -0.6624  0.2093
  134MOL0     O17986   7.872   7.786   9.228  0.1163  0.1603  0.0610
  134MOL0     C17987   7.754   7.757   9.167 -0.3348 -0.5182 -0.0993
  134MOL0     C17988   7.641   7.799   9.232  0.1570 -0.5143  0.0553
  134MOL0     C17989   7.518   7.771   9.178 -0.2451  0.6098 -0.1693
  134MOL0     C17990   7.515   7.698   9.059  0.5154 -0.0833  0.2066
  134MOL0     O17991   7.386   7.647   9.017 -0.5207 -0.1618  0.2828
  134MOL0     C17992   7.284   7.742   8.976  0.4245 -0.1891 -1.0206
  134MOL0     C17993   7.153   7.727   9.060  1.3301  0.1592 -0.2371
  134MOL0     C17994   7.076   7.611   9.003  0.4054 -0.0136  0.3773
  134MOL0     C17995   6.943   7.609   9.069 -0.4202 -0.4168  0.1815
  134MOL0     C17996   6.857   7.497   9.019  0.2000  1.0570  0.0919
  134MOL0     C17997   6.831   7.513   8.873  0.0844  0.6546  1.2617
  134MOL0     C17998   6.702   7.434   8.834 -0.3195  0.2303  0.6175
  134MOL0     C17999   6.576   7.515   8.841 -0.3623 -0.0119 -0.4681
  134MOL0    Cl18000   6.461   7.383   8.795 -0.3663  0.0527 -0.0700
  134MOL0     C18001   7.632   7.652   8.997  0.5097 -0.0441  0.4141
  134MOL0     C18002   7.749   7.689   9.052 -0.2635 -0.1752 -0.7979
  134MOL0     O18003   8.033   7.731   9.065  0.7377 -0.3475 -0.5824
  134MOL0     C18004   8.086   7.905   9.362  0.3213  0.0519 -0.1970
  134MOL0     C18005   8.189   7.953   9.441 -0.0899 -0.2218 -0.4726
  134MOL0     N18006   8.571   8.371  10.011  0.1515  0.4264 -0.0165
  134MOL0     N18007   8.609   8.466  10.093 -0.3703  0.3192 -0.3231
  134MOL0     C18008   9.756   9.124  10.228  0.0528 -0.3036 -0.3646
  134MOL0     C18009   9.888   9.163  10.238  0.5334 -0.9727  0.1430
  134MOL0     C18010  10.315   9.145  10.366 -0.2348  0.2536  0.4128
  134MOL0     C18011  10.392   9.144  10.480 -0.4866  0.1426 -0.0003
  134MOL0     C18012  10.519   9.186  10.492  0.5310 -0.6189  1.0517
  134MOL0     C18013  10.581   9.236  10.373  0.1202  0.4214  0.1981
  134MOL0     O18014  10.699   9.299  10.374 -0.7313 -0.2629  0.5651
  134MOL0     C18015  10.807   9.224  10.318  0.5114 -0.8717 -0.5429
  134MOL0     C18016  10.939   9.303  10.352 -0.5202 -0.9304 -0.1022
  134MOL0     C18017  10.960   9.426  10.263 -0.4122 -0.1119  0.1624
  134MOL0     C18018  11.053   9.396  10.148 -0.1962  0.5455 -0.1724
  134MOL0     C18019  10.986   9.315  10.050  0.3296  0.0456  0.1496
  134MOL0     C18020  10.918   9.260   9.965 -0.0369 -0.5435 -0.4787
  134MOL0     C18021  10.509   9.235  10.255 -0.0635 -1.0523  0.6579
  134MOL0     C18022  10.380   9.189  10.252 -0.1400 -0.5586  0.6243
  134MOL0     H18023  10.031   8.880  10.100 -0.3262 -1.5153  0.5165
  134MOL0     H18024   9.811   8.818  10.090  3.0216 -2.4980  2.7723
  134MOL0     H18025   9.553   8.877  10.339 -0.8861 -0.4152 -0.2552
  134MOL0     H18026   9.504   9.044  10.313 -0.4956 -0.3324  0.4533
  134MOL0     H18027   9.330   8.994  10.163 -2.3006 -0.6754 -0.1974
  134MOL0     H18028   9.380   8.822  10.154  0.8139  0.3055 -0.0864
  134MOL0     H18029   9.303   8.768  10.358  0.5969  1.4080  1.0505
  134MOL0     H18030   9.304   8.928  10.425  1.1586 -0.1303 -0.6367
  134MOL0     H18031   9.069   8.894  10.385 -1.1513  3.7472 -0.0217
  134MOL0     H18032   9.123   8.966  10.232 -0.7290 -1.9208 -2.2714
  134MOL0     H18033   9.156   8.740  10.143  1.0376 -1.0402  2.1593
  134MOL0     H18034   9.087   8.664  10.273  0.5445 -0.9812 -0.7049
  134MOL0     H18035   8.878   8.819  10.268  3.9922  2.9968  2.2453
  134MOL0     H18036   8.926   8.881  10.110  3.0490 -2.0171 -2.2064
  134MOL0     H18037   8.779   8.716  10.030 -0.5549 -0.6367  1.3372
  134MOL0     H18038   8.941   8.644  10.020 -0.3053  2.4134 -0.9105
  134MOL0     H18039   8.750   8.617  10.252 -2.0951 -3.7591  1.5988
  134MOL0     H18040   8.891   8.516  10.227 -0.7771 -0.4156 -0.3698
  134MOL0     H18041   8.891   8.365   9.985  0.4132  1.9443  0.7076
  134MOL0     H18042   8.779   8.190   9.802 -0.1767  1.2042 -0.4530
  134MOL0     H18043   8.684   8.105   9.921  0.2300  0.9387  1.3839
  134MOL0     H18044   8.570   8.289   9.710  2.5245 -0.7455 -2.5201
  134MOL0     H18045   8.474   8.187   9.820  0.9861 -1.4729 -0.2632
  134MOL0     H18046   8.590   7.985   9.692 -2.7848 -1.8969 -0.4591
  134MOL0     H18047   8.627   8.110   9.571 -0.9837  1.1662  0.9946
  134MOL0     H18048   8.374   8.134   9.536  2.6837  1.2653 -0.0017
  134MOL0     H18049   8.353   8.032   9.677 -1.4601  1.4463 -1.0808
  134MOL0     H18050   8.450   7.790   9.320  0.9087  1.1665 -0.4025
  134MOL0     H18051   8.308   7.754   9.027 -0.9972 -1.8742 -0.1575
  134MOL0     H18052   8.418   7.663   9.131 -0.0556 -0.3647 -0.1392
  134MOL0     H18053   8.248   7.612   9.102  0.9698 -1.2493  0.6864
  134MOL0     H18054   7.642   7.830   9.336 -3.2878 -0.0262  0.0506
  134MOL0     H18055   7.434   7.811   9.232  0.6848  0.8969  1.1138
  134MOL0     H18056   7.321   7.843   8.998 -0.1499 -0.9556  5.4285
  134MOL0     H18057   7.265   7.736   8.868 -1.0645 -3.8618 -0.6735
  134MOL0     H18058   7.165   7.699   9.165  1.7568  0.7738 -0.1166
  134MOL0     H18059   7.100   7.822   9.059 -0.7390 -0.9025  0.6879
  134MOL0     H18060   7.128   7.518   9.025 -2.4321 -1.5449  1.0526
  134MOL0     H18061   7.062   7.623   8.895  1.0699  1.3816  0.4224
  134MOL0     H18062   6.944   7.606   9.179  1.7259  0.5860  0.2371
  134MOL0     H18063   6.897   7.706   9.048 -0.0920  0.4722  3.0448
  134MOL0     H18064   6.764   7.504   9.076 -0.1743 -2.3362  0.0781
  134MOL0     H18065   6.905   7.402   9.045  1.1482  1.8679  1.4712
  134MOL0     H18066   6.830   7.615   8.835  4.0088 -0.5738 -3.0347
  134MOL0     H18067   6.906   7.453   8.819 -4.5942 -5.1367  0.1408
  134MOL0     H18068   6.701   7.341   8.891  1.0108 -1.0523 -1.3409
  134MOL0     H18069   6.706   7.412   8.727 -0.9970  3.5530 -0.1979
  134MOL0     H18070   6.562   7.599   8.773  0.9118 -0.1506 -0.9351
  134MOL0     H18071   6.548   7.550   8.941 -1.1992  1.1939 -1.1089
  134MOL0     H18072   7.628   7.590   8.908 -1.0426  0.6907 -0.0715
  134MOL0     H18073   7.836   7.654   8.997 -0.3616 -0.4447 -0.7789
  134MOL0     H18074   7.986   7.941   9.385  0.9975  0.6600  2.1196
  134MOL0     H18075   8.164   8.025   9.518  1.0811 -1.9959  1.6899
  134MOL0     H18076   9.671   9.189  10.247  0.2468 -0.2953  0.4966
  134MOL0     H18077   9.913   9.265  10.264  2.5340 -1.6376  1.0604
  134MOL0     H18078  10.355   9.115  10.578 -0.7470  0.2125 -0.0785
  134MOL0     H18079  10.577   9.183  10.584  0.0502  0.7933  1.4316
  134MOL0     H18080  10.820   9.123  10.357  1.4553 -0.0142  1.4949
  134MOL0     H18081  10.794   9.223  10.209 -2.3906 -2.4441 -0.2891
  134MOL0     H18082  11.024   9.234  10.342  0.1618 -0.2855  1.0831
  134MOL0     H18083  10.933   9.329  10.458  2.9762  2.6169 -0.5798
  134MOL0     H18084  11.004   9.511  10.316  0.5099  0.3438 -1.2868
  134MOL0     H18085  10.863   9.464  10.230  0.3977  1.7744 -0.1318
  134MOL0     H18086  11.141   9.340  10.181  0.0214  1.1820  0.3592
  134MOL0     H18087  11.094   9.486  10.102  0.8709 -0.0592 -0.4459
  134MOL0     H18088  10.865   9.214   9.885  0.0103  1.9210 -2.0213
  134MOL0     H18089  10.560   9.277  10.168  2.1400  1.9859  3.1856
  134MOL0     H18090  10.329   9.192  10.156 -2.0287  0.6280  1.6046
  135MOL0     O18091   9.694   6.490   0.870 -0.4584 -0.4873  0.5513
  135MOL0     C18092   9.674   6.378   0.898  0.0993  0.1274 -0.1892
  135MOL0     O18093   9.561   6.315   0.925  0.3984 -0.3861 -0.1344
  135MOL0     C18094   9.438   6.344   0.875 -0.4864  1.1644 -0.2990
  135MOL0     C18095   9.342   6.232   0.880 -1.0432  0.5958 -0.0029
  135MOL0     C18096   9.212   6.246   0.843 -0.2866 -0.4546 -0.2457
  135MOL0     C18097   9.169   6.370   0.791  0.6792  0.2633  0.6647
  135MOL0     O18098   9.044   6.397   0.745 -0.3756 -0.3748 -0.8781
  135MOL0     C18099   8.931   6.337   0.797 -0.2469  1.3905  0.2675
  135MOL0     C18100   8.814   6.430   0.780  0.2292 -0.7707 -0.3774
  135MOL0     C18101   8.682   6.362   0.837 -0.4016  0.4626 -0.2097
  135MOL0     C18102   8.672   6.380   0.989  0.0412  1.5668 -0.1483
  135MOL0     C18103   8.545   6.443   1.028 -0.0675  0.2732  0.4366
  135MOL0     C18104   8.555   6.599   1.032  0.0848  0.3031 -0.5444
  135MOL0     C18105   8.423   6.662   1.031 -0.4876  0.0783 -0.4879
  135MOL0     C18106   8.441   6.813   1.069 -0.1397  0.0552 -0.3653
  135MOL0     N18107   8.328   6.893   1.030  0.5045  0.0996  0.8335
  135MOL0     C18108   8.201   6.875   1.090 -0.2085 -0.1645 -0.7312
  135MOL0     C18109   8.131   6.968   1.020  0.1806 -0.2609 -0.7649
  135MOL0     C18110   7.996   7.009   1.056 -0.1958  0.5531 -0.6599
  135MOL0     C18111   7.983   7.163   1.062 -0.4321  0.7188  0.0926
  135MOL0     C18112   7.856   7.206   1.138  0.0710  0.6446  0.6857
  135MOL0     C18113   7.734   7.116   1.132 -0.0442 -0.3219 -0.0785
  135MOL0     O18114   7.694   7.107   0.992  0.2422  0.5869 -0.3199
  135MOL0     C18115   7.574   7.049   0.968 -0.4668  0.3053 -1.2045
  135MOL0     C18116   7.505   6.962   1.055 -0.0103  0.3461  0.4604
  135MOL0     C18117   7.378   6.909   1.017 -0.0342 -0.0012 -0.3566
  135MOL0     C18118   7.305   6.830   1.135 -0.3516  0.3376  0.5758
  135MOL0     C18119   7.333   6.917   0.881  0.5039 -0.0490  0.5627
  135MOL0     C18120   7.214   6.853   0.817  1.0054 -0.6651 -0.4781
  135MOL0     O18121   7.143   6.763   0.889  0.4332 -0.8854  0.0326
  135MOL0     C18122   7.052   6.677   0.831  0.2811  0.3635 -0.4526
  135MOL0     C18123   7.068   6.617   0.712  0.1955 -0.1163  0.5952
  135MOL0     C18124   6.968   6.536   0.657  0.2816 -0.0054  0.4899
  135MOL0     C18125   6.853   6.503   0.734  0.3449  0.0186 -0.8139
  135MOL0     O18126   6.748   6.421   0.696 -0.8549 -0.3222 -0.3305
  135MOL0     C18127   6.744   6.373   0.571  0.0771 -0.6253 -0.2540
  135MOL0     C18128   6.615   6.290   0.562  0.6165  0.7750 -0.2679
  135MOL0     C18129   6.578   6.288   0.413  0.1842 -0.3861 -0.5205
  135MOL0     C18130   6.490   6.171   0.363 -0.3300  0.7304 -0.0398
  135MOL0     C18131   6.360   6.161   0.430  0.5447  0.1206  0.1012
  135MOL0     C18132   6.274   6.055   0.383 -0.8607  0.4012  0.1981
  135MOL0     C18133   6.232   6.067   0.232  0.0172  0.2220  0.4951
  135MOL0     C18134   6.090   6.011   0.199 -0.4921 -0.5356  0.2036
  135MOL0    Cl18135   6.065   5.842   0.262 -0.0980 -0.3889  0.2031
  135MOL0     C18136   6.829   6.573   0.856 -0.5023  0.7379  0.0554
  135MOL0     C18137   6.930   6.659   0.901  0.2748 -0.7143 -0.1836
  135MOL0     O18138   7.184   6.891   0.703  0.3514 -0.3199 -0.1504
  135MOL0     C18139   7.409   6.998   0.796  0.5348 -0.9733  0.8121
  135MOL0     C18140   7.521   7.068   0.837  0.2861  0.2166 -1.1797
  135MOL0     N18141   8.199   7.037   0.923 -0.4349 -0.2779 -0.8230
  135MOL0     N18142   8.327   6.987   0.929  0.1217 -0.2274 -0.1950
  135MOL0     C18143   9.258   6.472   0.776 -0.1706  0.5344  0.8768
  135MOL0     C18144   9.393   6.461   0.814  0.0985 -0.2396  0.2615
  135MOL0     C18145   9.798   6.302   0.927 -0.1854  0.4046  0.1878
  135MOL0     C18146   9.809   6.168   0.902 -0.2616  0.4243  0.1667
  135MOL0     C18147   9.931   6.100   0.915 -0.3020  0.0458 -0.4981
  135MOL0     C18148  10.045   6.168   0.958 -0.1436  0.4081 -0.5927
  135MOL0     O18149  10.156   6.094   0.985 -0.3281 -0.2762 -0.0073
  135MOL0     C18150  10.269   6.159   1.047  0.1511  0.1048 -0.4102
  135MOL0     C18151  10.339   6.242   0.942 -0.4441 -0.7795 -0.1182
  135MOL0     C18152  10.454   6.328   1.005  0.0913 -0.1070 -0.2068
  135MOL0     C18153  10.518   6.424   0.906  0.2501  0.4881 -0.3295
  135MOL0     C18154  10.439   6.543   0.872  0.0058  0.3586 -0.6952
  135MOL0     C18155  10.373   6.641   0.839  0.2188  1.0103  0.3241
  135MOL0     C18156  10.030   6.301   0.987  0.3241 -0.6696 -0.0154
  135MOL0     C18157   9.911   6.368   0.965 -0.2973 -0.3954 -0.1061
  135MOL0     H18158   9.374   6.134   0.914 -1.1842  0.6470  0.2759
  135MOL0     H18159   9.142   6.163   0.849  0.6036 -1.3710 -1.7111
  135MOL0     H18160   8.926   6.238   0.750 -0.6173  0.7719  1.5640
  135MOL0     H18161   8.933   6.327   0.906  1.7993  1.8346  0.3221
  135MOL0     H18162   8.829   6.526   0.831 -1.0018  0.5270 -2.3382
  135MOL0     H18163   8.797   6.453   0.675  2.4218  3.2844 -0.0576
  135MOL0     H18164   8.594   6.400   0.785 -0.4575  0.2339 -0.2834
  135MOL0     H18165   8.686   6.254   0.822  1.2138  0.4060  0.3786
  135MOL0     H18166   8.670   6.284   1.041  0.6695  1.3822 -0.4575
  135MOL0     H18167   8.761   6.428   1.029  0.3766  1.6004 -0.9112
  135MOL0     H18168   8.467   6.403   0.962 -1.6581 -2.3165  3.6098
  135MOL0     H18169   8.513   6.403   1.124  2.4055 -2.0772  0.3979
  135MOL0     H18170   8.603   6.628   1.125 -1.3516 -0.2552  0.4106
  135MOL0     H18171   8.619   6.634   0.951 -1.6402 -0.0761 -2.1377
  135MOL0     H18172   8.385   6.650   0.929 -3.0202 -2.3864  0.6100
  135MOL0     H18173   8.349   6.622   1.100  1.6467  0.0353  1.8990
  135MOL0     H18174   8.532   6.861   1.034 -0.0107 -1.1661 -1.7672
  135MOL0     H18175   8.458   6.833   1.176  0.9307  0.2433 -0.5677
  135MOL0     H18176   8.167   6.809   1.169 -0.3780 -0.5082 -1.0882
  135MOL0     H18177   7.919   6.959   0.997 -0.2174 -0.8277  0.4916
  135MOL0     H18178   7.984   6.974   1.159 -0.4826 -0.3621 -0.9906
  135MOL0     H18179   7.983   7.207   0.962  0.5090  3.3838  1.1434
  135MOL0     H18180   8.076   7.200   1.108  1.1085 -1.6850 -0.9360
  135MOL0     H18181   7.830   7.300   1.088 -1.1832 -1.3902 -2.8375
  135MOL0     H18182   7.879   7.218   1.244  1.0227  2.3336  0.3255
  135MOL0     H18183   7.657   7.171   1.186  1.6209  0.3431  1.7401
  135MOL0     H18184   7.754   7.019   1.178  1.7493 -0.3181 -0.7568
  135MOL0     H18185   7.552   6.937   1.150 -0.2363  1.1129  0.7842
  135MOL0     H18186   7.201   6.815   1.106 -0.0218  1.6997 -1.5247
  135MOL0     H18187   7.359   6.735   1.139 -0.4456  0.0009 -3.2293
  135MOL0     H18188   7.312   6.894   1.224  0.7568 -1.8771  2.2057
  135MOL0     H18189   7.165   6.634   0.665 -1.4476  0.7792 -2.7424
  135MOL0     H18190   6.985   6.497   0.557  0.4782  0.8422  0.1796
  135MOL0     H18191   6.739   6.462   0.507  5.0260 -1.5747 -2.4319
  135MOL0     H18192   6.835   6.319   0.546  0.5063  0.2264 -0.5814
  135MOL0     H18193   6.642   6.191   0.599  1.0214  0.9001 -0.2264
  135MOL0     H18194   6.546   6.329   0.636  0.1532  2.8707 -1.7128
  135MOL0     H18195   6.679   6.274   0.372  0.8670 -2.5107  1.6432
  135MOL0     H18196   6.530   6.382   0.385  2.7055  1.4535  0.8541
  135MOL0     H18197   6.464   6.195   0.259 -3.5688 -0.0877  0.4574
  135MOL0     H18198   6.543   6.076   0.368 -1.7684 -0.0678  0.4016
  135MOL0     H18199   6.311   6.258   0.423 -0.2306 -0.1856  0.9928
  135MOL0     H18200   6.386   6.140   0.534  2.1341 -0.9624 -0.4741
  135MOL0     H18201   6.334   5.964   0.389 -0.1610  0.6621 -2.1274
  135MOL0     H18202   6.189   6.040   0.450 -0.0287 -0.3571  1.1230
  135MOL0     H18203   6.314   6.016   0.180  1.3482  1.3086  1.4317
  135MOL0     H18204   6.229   6.174   0.206 -0.4069 -0.1197 -0.9515
  135MOL0     H18205   6.059   6.024   0.095 -3.6617 -3.8258  0.5287
  135MOL0     H18206   6.026   6.070   0.265  1.5447  0.0563  1.7568
  135MOL0     H18207   6.742   6.559   0.919 -0.1830  0.4878  0.4481
  135MOL0     H18208   6.932   6.709   0.997  2.5229 -1.6023  0.2904
  135MOL0     H18209   7.395   7.010   0.689  1.7908  4.2719  0.9228
  135MOL0     H18210   7.585   7.122   0.768  0.7743  0.1598 -0.7789
  135MOL0     H18211   9.223   6.565   0.733 -1.2546 -0.9439 -1.6341
  135MOL0     H18212   9.446   6.554   0.798  0.8631 -0.4865  1.2699
  135MOL0     H18213   9.719   6.116   0.871 -0.3116  0.7886 -0.3106
  135MOL0     H18214   9.940   5.992   0.904 -1.7911 -0.2063  0.4866
  135MOL0     H18215  10.229   6.223   1.126  0.7607 -0.5537  0.4485
  135MOL0     H18216  10.340   6.086   1.086  0.1716 -0.3693 -1.2974
  135MOL0     H18217  10.259   6.299   0.894 -1.8858 -2.3473  0.3731
  135MOL0     H18218  10.390   6.177   0.870  0.9432  0.5370 -0.3898
  135MOL0     H18219  10.535   6.267   1.048  3.7299  4.0739 -0.3560
  135MOL0     H18220  10.417   6.391   1.086  0.8668 -1.4331  1.2438
  135MOL0     H18221  10.549   6.366   0.818  0.6690  0.2818 -0.0494
  135MOL0     H18222  10.613   6.458   0.949  2.0880 -0.8818 -2.9621
  135MOL0     H18223  10.312   6.723   0.809  0.4583  0.5570 -1.5029
  135MOL0     H18224  10.108   6.365   1.026  1.6084 -1.1589 -1.6986
  135MOL0     H18225   9.906   6.475   0.981 -2.9407  0.0134 -2.8514
  136MOL0     O18226   1.430   7.189   2.196  0.2532 -0.4801  0.8425
  136MOL0     C18227   1.383   7.301   2.158  0.1807 -0.0852 -0.7596
  136MOL0     O18228   1.258   7.324   2.139  0.7841 -0.3629  0.0114
  136MOL0     C18229   1.158   7.230   2.170  0.2186 -0.4675  0.3356
  136MOL0     C18230   1.070   7.180   2.075  0.1974  0.6949 -0.5889
  136MOL0     C18231   0.984   7.083   2.109  0.3747  0.3718 -0.3783
  136MOL0     C18232   0.975   7.031   2.238 -0.9697  0.1399 -0.3266
  136MOL0     O18233   0.879   6.935   2.281  0.4191  0.0479  1.2144
  136MOL0     C18234   0.817   6.863   2.175 -0.0780 -0.3979  0.5378
  136MOL0     C18235   0.740   6.743   2.224  0.2872  0.5042 -0.3486
  136MOL0     C18236   0.830   6.624   2.249 -0.4132 -0.0296  0.5616
  136MOL0     C18237   0.780   6.503   2.316  0.7077  0.1185 -0.0483
  136MOL0     C18238   0.801   6.528   2.464 -0.2478 -0.2298  1.0036
  136MOL0     C18239   0.770   6.410   2.551  0.8322  0.2798 -0.1708
  136MOL0     C18240   0.872   6.287   2.539 -0.1570 -0.1352 -0.5699
  136MOL0     C18241   0.821   6.167   2.607  0.6813  0.6189 -1.1358
  136MOL0     N18242   0.685   6.128   2.552  0.0743 -0.0321  0.1768
  136MOL0     C18243   0.572   6.107   2.620 -0.7311  0.7625 -0.1597
  136MOL0     C18244   0.488   6.043   2.534  0.0127 -0.4694  0.3254
  136MOL0     C18245   0.353   5.990   2.573  0.0325 -0.4609  0.3219
  136MOL0     C18246   0.245   6.088   2.533 -0.8019  0.0332 -0.0309
  136MOL0     C18247   0.133   6.115   2.640 -0.2330  0.9779 -0.3620
  136MOL0     C18248   0.066   5.984   2.696  0.0628  0.9644 -0.3961
  136MOL0     O18249  -0.027   6.016   2.803 -0.3419 -0.6236 -0.3476
  136MOL0     C18250  -0.156   6.045   2.770  0.3316  0.4811 -0.6689
  136MOL0     C18251  -0.246   6.041   2.876  0.9831 -0.8432 -0.5349
  136MOL0     C18252  -0.385   6.068   2.857 -0.6699  0.2731  0.6542
  136MOL0     C18253  -0.483   6.063   2.971 -0.2363  0.2886  0.3228
  136MOL0     C18254  -0.439   6.093   2.723 -0.4249 -0.4349 -0.0058
  136MOL0     C18255  -0.578   6.126   2.676  0.1302  0.6773 -0.1533
  136MOL0     O18256  -0.591   6.190   2.548  0.1699  0.0887  0.0317
  136MOL0     C18257  -0.720   6.232   2.516 -0.2072  0.4278  0.3207
  136MOL0     C18258  -0.763   6.363   2.532  0.7427 -0.9225 -0.1848
  136MOL0     C18259  -0.890   6.405   2.496 -0.2508 -0.6287 -0.2136
  136MOL0     C18260  -0.983   6.315   2.454  0.6990 -0.1939  0.1563
  136MOL0     O18261  -1.101   6.367   2.429  0.1629  0.8877 -0.0944
  136MOL0     C18262  -1.195   6.276   2.365 -0.4861  0.4529  0.3445
  136MOL0     C18263  -1.312   6.358   2.340  0.2343 -0.4416 -0.8886
  136MOL0     C18264  -1.429   6.273   2.286 -0.1203 -0.0441  0.3030
  136MOL0     C18265  -1.471   6.300   2.139 -0.1994 -0.4187  0.8209
  136MOL0     C18266  -1.541   6.175   2.081  0.4115  0.7098 -0.5712
  136MOL0     C18267  -1.685   6.148   2.135 -0.6705 -0.6867 -0.4644
  136MOL0     C18268  -1.745   6.028   2.058  0.4223 -0.9971  0.1318
  136MOL0     C18269  -1.799   6.079   1.926 -0.2220 -0.4024 -0.0477
  136MOL0    Cl18270  -1.934   6.189   1.956 -0.1400 -0.1026  0.4316
  136MOL0     C18271  -0.949   6.184   2.449 -0.2263  0.5836  0.6485
  136MOL0     C18272  -0.817   6.144   2.470 -0.6067 -0.1256  0.3462
  136MOL0     O18273  -0.668   6.117   2.757 -0.2764 -0.1630 -0.0468
  136MOL0     C18274  -0.342   6.082   2.618 -0.1208 -0.3943 -0.2624
  136MOL0     C18275  -0.206   6.058   2.638  0.7997 -0.1239 -0.0307
  136MOL0     N18276   0.548   6.043   2.413 -0.7780 -0.9011 -0.0451
  136MOL0     N18277   0.670   6.082   2.427  0.1980 -1.1468 -0.4563
  136MOL0     C18278   1.066   7.082   2.340  0.0656  0.0948  0.4211
  136MOL0     C18279   1.151   7.188   2.305  0.3916 -0.1202 -0.0852
  136MOL0     C18280   1.480   7.413   2.140  0.3620  0.8067 -0.1305
  136MOL0     C18281   1.615   7.404   2.187  0.0043 -0.3208 -0.1204
  136MOL0     C18282   1.709   7.499   2.154 -0.0754 -0.8755  0.5231
  136MOL0     C18283   1.680   7.611   2.074  0.6547 -0.3529  0.1948
  136MOL0     O18284   1.775   7.697   2.044 -0.5229 -0.4784 -0.6370
  136MOL0     C18285   1.748   7.790   1.937 -0.6567  0.3693  0.1360
  136MOL0     C18286   1.880   7.836   1.872 -0.2493 -0.1928 -0.3732
  136MOL0     C18287   1.979   7.723   1.846 -0.4338  0.3538  0.6079
  136MOL0     C18288   2.019   7.707   1.692 -0.6948  0.2279 -0.3527
  136MOL0     C18289   2.097   7.822   1.644 -0.5587  0.8018  0.4898
  136MOL0     C18290   2.155   7.919   1.596  0.2408 -0.0313  0.5790
  136MOL0     C18291   1.546   7.622   2.025  0.1858  1.2760  0.0269
  136MOL0     C18292   1.457   7.518   2.058  0.1042 -0.3160  0.0362
  136MOL0     H18293   1.073   7.207   1.970 -3.9242 -1.7639 -1.5457
  136MOL0     H18294   0.925   7.036   2.030 -0.9599 -0.1928  0.9037
  136MOL0     H18295   0.751   6.936   2.127  3.1148  2.3718  0.0256
  136MOL0     H18296   0.883   6.834   2.093 -1.4745  0.7242 -1.0495
  136MOL0     H18297   0.685   6.766   2.316 -3.7099  2.3274 -2.8970
  136MOL0     H18298   0.654   6.727   2.159 -1.1653 -1.3804  1.9003
  136MOL0     H18299   0.868   6.600   2.150  2.6771  2.7846  0.8973
  136MOL0     H18300   0.923   6.650   2.301 -0.4953 -3.0617  2.5451
  136MOL0     H18301   0.674   6.490   2.290  1.2366 -0.3862 -2.1130
  136MOL0     H18302   0.833   6.415   2.279 -0.1900 -0.0883 -0.9001
  136MOL0     H18303   0.905   6.561   2.469 -0.5433  1.8375 -2.9435
  136MOL0     H18304   0.740   6.615   2.488  0.1382  0.4114 -0.2586
  136MOL0     H18305   0.786   6.448   2.652 -0.3698  1.3264 -0.3464
  136MOL0     H18306   0.667   6.377   2.531  0.8198  0.4030 -0.3134
  136MOL0     H18307   0.894   6.260   2.435  1.1044 -0.9719 -0.1125
  136MOL0     H18308   0.969   6.313   2.584  0.1800  1.3027 -2.0513
  136MOL0     H18309   0.816   6.189   2.714 -0.6538  2.7167 -1.5700
  136MOL0     H18310   0.883   6.077   2.602 -0.5434 -0.3112 -0.3415
  136MOL0     H18311   0.557   6.116   2.727 -0.6900 -0.2075 -0.0651
  136MOL0     H18312   0.339   5.886   2.544 -2.7039 -0.8681  2.6185
  136MOL0     H18313   0.345   5.979   2.682 -0.3006  0.9595  0.4679
  136MOL0     H18314   0.202   6.041   2.444  0.9360 -3.1196  0.6349
  136MOL0     H18315   0.282   6.187   2.505 -4.2201  1.4016 -0.1298
  136MOL0     H18316   0.063   6.179   2.585  1.2746  2.1104 -1.0249
  136MOL0     H18317   0.185   6.166   2.722  2.0335 -2.6165  0.6465
  136MOL0     H18318   0.140   5.915   2.738 -0.0901 -0.9796 -3.0810
  136MOL0     H18319   0.016   5.929   2.616 -1.1485  1.6453 -0.1253
  136MOL0     H18320  -0.203   6.026   2.975 -2.3083 -0.7400  1.0236
  136MOL0     H18321  -0.427   6.081   3.063  0.3945 -1.6424  0.3532
  136MOL0     H18322  -0.550   6.150   2.963 -0.1418  0.3501  0.1987
  136MOL0     H18323  -0.525   5.963   2.964  0.4598  0.0982 -2.8949
  136MOL0     H18324  -0.693   6.439   2.566  0.5880 -1.8222  2.3365
  136MOL0     H18325  -0.921   6.509   2.498 -2.4469 -1.2563  0.5513
  136MOL0     H18326  -1.151   6.232   2.275  3.0143  1.4209  1.4477
  136MOL0     H18327  -1.212   6.198   2.440  1.9584  0.7673  1.3072
  136MOL0     H18328  -1.332   6.408   2.435  0.6195  1.7391 -1.8895
  136MOL0     H18329  -1.287   6.444   2.277  2.2317 -0.6636 -0.4615
  136MOL0     H18330  -1.505   6.292   2.363  1.6063 -0.0337  2.0996
  136MOL0     H18331  -1.408   6.167   2.304 -0.6421  0.2700  3.4208
  136MOL0     H18332  -1.529   6.393   2.140  2.5783  1.4440  0.1525
  136MOL0     H18333  -1.378   6.327   2.088 -0.6772  1.6187  0.9551
  136MOL0     H18334  -1.483   6.083   2.093  1.0267  1.0455 -0.8731
  136MOL0     H18335  -1.544   6.194   1.973  1.9069  4.1126 -0.1445
  136MOL0     H18336  -1.674   6.141   2.244 -1.3058  0.3491 -0.3258
  136MOL0     H18337  -1.746   6.237   2.121 -0.0622 -0.1143  0.4290
  136MOL0     H18338  -1.828   5.991   2.120 -0.9841  1.6162 -0.0569
  136MOL0     H18339  -1.670   5.949   2.051 -0.7952 -2.1190 -0.7877
  136MOL0     H18340  -1.829   5.988   1.872 -1.3121 -0.3356  0.4386
  136MOL0     H18341  -1.728   6.131   1.861  0.5667 -1.8084 -0.3531
  136MOL0     H18342  -1.019   6.110   2.411  1.5762 -0.7984 -0.1567
  136MOL0     H18343  -0.783   6.043   2.448 -0.6802 -0.0584 -0.0792
  136MOL0     H18344  -0.370   6.118   2.519  1.4265  1.0425 -0.2069
  136MOL0     H18345  -0.144   6.059   2.549 -0.1829  0.6054 -0.7322
  136MOL0     H18346   1.058   7.043   2.441  0.0893 -3.3356 -0.7735
  136MOL0     H18347   1.222   7.230   2.377  0.6335 -0.2762 -0.2335
  136MOL0     H18348   1.655   7.320   2.242 -0.8573 -0.4508  0.3135
  136MOL0     H18349   1.805   7.495   2.205  1.7786  2.1321 -2.3303
  136MOL0     H18350   1.689   7.746   1.855  0.9614  2.1581 -2.1282
  136MOL0     H18351   1.682   7.868   1.975 -0.3574  1.6129 -1.7307
  136MOL0     H18352   1.931   7.907   1.938  2.7528 -1.3165 -1.2937
  136MOL0     H18353   1.861   7.884   1.776 -1.7449 -0.1211 -0.0555
  136MOL0     H18354   1.941   7.624   1.872  1.2757 -0.6327 -0.4813
  136MOL0     H18355   2.070   7.745   1.903 -0.5742 -0.4614  1.1598
  136MOL0     H18356   1.930   7.693   1.631 -2.2453 -1.1847  2.0481
  136MOL0     H18357   2.072   7.611   1.685 -2.2425 -0.9179  2.0396
  136MOL0     H18358   2.202   8.008   1.559 -2.4752  1.7585  1.0942
  136MOL0     H18359   1.507   7.700   1.961  0.3240  0.0866 -1.5667
  136MOL0     H18360   1.357   7.532   2.017 -0.1873 -2.6179 -0.1783
  137MOL0     O18361   2.814   2.999   9.242 -0.6502 -0.4313 -0.5045
  137MOL0     C18362   2.819   3.059   9.132 -0.8614 -0.4161 -0.5526
  137MOL0     O18363   2.712   3.084   9.039 -0.2030  1.1541  0.0285
  137MOL0     C18364   2.587   3.068   9.092 -1.0497 -0.1437 -0.5804
  137MOL0     C18365   2.501   3.173   9.137 -0.2914  0.6765 -1.0757
  137MOL0     C18366   2.373   3.157   9.189  0.3577 -0.2256  0.2308
  137MOL0     C18367   2.327   3.027   9.205  0.1240 -0.2430  0.4164
  137MOL0     O18368   2.210   2.991   9.266 -0.2665  0.3151  0.2368
  137MOL0     C18369   2.101   3.085   9.291 -0.3834  0.6115 -0.2788
  137MOL0     C18370   1.966   3.012   9.322  0.8555  0.2556 -0.3896
  137MOL0     C18371   1.883   3.118   9.407  0.5912 -0.6947 -0.2187
  137MOL0     C18372   1.751   3.040   9.442  0.1676  0.9851  0.7643
  137MOL0     C18373   1.632   3.133   9.456  0.9717 -0.4564 -0.5234
  137MOL0     C18374   1.641   3.206   9.591 -0.5083 -0.4939  0.5554
  137MOL0     C18375   1.514   3.185   9.683 -0.0651 -0.1442  0.3300
  137MOL0     C18376   1.554   3.222   9.820 -1.0251 -0.1445 -0.0935
  137MOL0     N18377   1.562   3.368   9.834  0.4990  0.8226  0.4710
  137MOL0     C18378   1.476   3.450   9.912 -0.5281 -0.2125 -0.0065
  137MOL0     C18379   1.536   3.572   9.916  0.2952 -0.7846 -0.0404
  137MOL0     C18380   1.489   3.702   9.976  0.1003  0.0476  0.6149
  137MOL0     C18381   1.348   3.694  10.049  1.0106  0.6635 -0.1512
  137MOL0     C18382   1.370   3.631  10.189 -0.9824  0.9369 -0.1105
  137MOL0     C18383   1.242   3.603  10.263 -0.1867  0.5717 -1.0529
  137MOL0     O18384   1.267   3.561  10.400  0.3151 -0.0251 -0.2468
  137MOL0     C18385   1.169   3.522  10.481 -0.6509  0.0105  0.2681
  137MOL0     C18386   1.216   3.509  10.613 -0.6509 -0.2922 -0.6334
  137MOL0     C18387   1.124   3.470  10.717  0.2303  0.4337 -0.7866
  137MOL0     C18388   1.166   3.485  10.860  0.7953 -0.6596 -0.1040
  137MOL0     C18389   0.989   3.444  10.686 -0.8977 -0.8418  0.0012
  137MOL0     C18390   0.881   3.386  10.774 -0.2738  0.3299 -0.4361
  137MOL0     O18391   0.770   3.336  10.705 -0.1022 -0.4695  0.4235
  137MOL0     C18392   0.665   3.296  10.784  1.1803  0.1342  1.4208
  137MOL0     C18393   0.536   3.348  10.753 -0.4232  0.0621  0.2784
  137MOL0     C18394   0.425   3.291  10.826 -0.3891 -0.0937 -0.0022
  137MOL0     C18395   0.432   3.182  10.917 -0.1039 -0.5582  0.5096
  137MOL0     O18396   0.334   3.116  10.990 -0.1728 -0.3709  0.2426
  137MOL0     C18397   0.199   3.144  10.948  0.7064 -0.3001 -0.0003
  137MOL0     C18398   0.111   3.027  10.996 -0.1578  0.5163 -0.6171
  137MOL0     C18399  -0.026   3.044  10.932  0.5423 -0.4505  0.3106
  137MOL0     C18400  -0.115   3.161  10.979  0.5024 -0.4584  0.0980
  137MOL0     C18401  -0.250   3.160  10.910  0.4992  0.1147 -0.5203
  137MOL0     C18402  -0.264   3.212  10.765 -0.5830  0.2491  0.1764
  137MOL0     C18403  -0.399   3.266  10.711  0.2065  0.2599  0.5205
  137MOL0     C18404  -0.459   3.381  10.792 -0.7155  0.1942  0.0462
  137MOL0    Cl18405  -0.338   3.510  10.821  0.0014 -0.1244 -0.1456
  137MOL0     C18406   0.563   3.131  10.939  0.4918 -0.2780 -0.6718
  137MOL0     C18407   0.680   3.182  10.874  0.2357 -0.5743  0.3101
  137MOL0     O18408   0.892   3.386  10.897 -0.3736  0.5249  0.0500
  137MOL0     C18409   0.947   3.465  10.548 -0.9325  0.4899  0.1139
  137MOL0     C18410   1.031   3.511  10.453  0.2006 -0.6515  0.3189
  137MOL0     N18411   1.658   3.552   9.845  0.0664 -0.2106  0.4421
  137MOL0     N18412   1.672   3.440   9.796  0.4017  0.2476  0.3027
  137MOL0     C18413   2.401   2.918   9.166 -0.7814  0.7003  0.5052
  137MOL0     C18414   2.532   2.940   9.103 -0.3853  0.8834 -0.4666
  137MOL0     C18415   2.967   3.093   9.096  0.2757  0.4002 -0.1121
  137MOL0     C18416   3.075   3.068   9.183  0.0997  0.8661 -0.0700
  137MOL0     C18417   3.202   3.114   9.149  0.1825  0.0670  0.6531
  137MOL0     C18418   3.227   3.183   9.029  0.5525 -0.0445  0.1390
  137MOL0     O18419   3.351   3.222   8.984 -0.5087 -0.2483  0.0141
  137MOL0     C18420   3.468   3.164   9.036  0.3212 -0.3341 -0.5050
  137MOL0     C18421   3.587   3.201   8.947 -0.5594 -0.3504  0.1063
  137MOL0     C18422   3.710   3.154   9.015  0.5239  0.6974  0.6967
  137MOL0     C18423   3.832   3.210   8.937 -0.8122 -0.1355  0.0687
  137MOL0     C18424   3.941   3.124   8.937  0.0014 -0.5861  0.2158
  137MOL0     C18425   4.027   3.037   8.942 -0.0050 -0.2866 -0.1090
  137MOL0     C18426   3.116   3.208   8.948 -0.8751  0.5453  0.3951
  137MOL0     C18427   2.993   3.159   8.979 -0.3587 -0.0340  0.2195
  137MOL0     H18428   2.535   3.273   9.115  1.2308 -0.4108 -4.2896
  137MOL0     H18429   2.309   3.239   9.220  0.6656  0.0561  0.1324
  137MOL0     H18430   2.122   3.138   9.385 -3.6027  1.0816  0.2943
  137MOL0     H18431   2.095   3.168   9.220  1.5268  1.5354  0.5472
  137MOL0     H18432   1.910   2.983   9.233 -2.1171  0.5785  1.2348
  137MOL0     H18433   1.972   2.915   9.373 -1.6847 -1.3005 -2.8407
  137MOL0     H18434   1.944   3.150   9.491 -0.3067  3.3144 -0.9002
  137MOL0     H18435   1.851   3.209   9.355  3.5180  0.7931  0.4181
  137MOL0     H18436   1.715   2.977   9.360 -0.8024 -2.1646  3.4217
  137MOL0     H18437   1.771   2.971   9.524  0.6302  0.7832  0.4883
  137MOL0     H18438   1.624   3.205   9.373  3.1102 -0.2130 -0.5779
  137MOL0     H18439   1.550   3.061   9.457  1.1520 -0.6791 -0.9950
  137MOL0     H18440   1.736   3.174   9.633  1.9043 -0.1924 -4.0463
  137MOL0     H18441   1.654   3.313   9.569 -0.6201 -0.6224 -0.1412
  137MOL0     H18442   1.443   3.254   9.636  0.4487 -0.9416 -1.7130
  137MOL0     H18443   1.477   3.082   9.684  0.2454 -0.2895  2.8339
  137MOL0     H18444   1.649   3.174   9.842  0.0371  1.4371 -1.0568
  137MOL0     H18445   1.475   3.183   9.886 -0.1686 -1.1749  0.3470
  137MOL0     H18446   1.376   3.427   9.948 -0.2914  0.2651  0.9924
  137MOL0     H18447   1.567   3.732  10.047 -0.9189  0.6031  1.5303
  137MOL0     H18448   1.470   3.777   9.899 -2.7568 -0.1636  1.0053
  137MOL0     H18449   1.277   3.634   9.992  1.1716 -1.1194  1.4132
  137MOL0     H18450   1.309   3.794  10.069  0.0005  0.2688 -0.1076
  137MOL0     H18451   1.435   3.702  10.240  0.2042  0.4710 -0.9392
  137MOL0     H18452   1.420   3.533  10.187 -0.7984  0.9167 -4.4601
  137MOL0     H18453   1.194   3.521  10.209 -1.1066 -0.6178  1.4266
  137MOL0     H18454   1.172   3.687  10.268 -3.4608 -1.9488 -0.6420
  137MOL0     H18455   1.321   3.526  10.634 -0.1982 -2.8936 -0.5371
  137MOL0     H18456   1.254   3.549  10.868 -0.6871  1.7898 -2.0434
  137MOL0     H18457   1.080   3.532  10.908  0.1693 -0.3280 -1.4992
  137MOL0     H18458   1.172   3.383  10.901 -0.8648 -0.8145 -0.1723
  137MOL0     H18459   0.515   3.416  10.671  0.0247 -1.1752 -0.9150
  137MOL0     H18460   0.329   3.338  10.806 -0.9126 -1.6944 -1.4732
  137MOL0     H18461   0.157   3.237  10.987  0.3845 -0.5981  0.3704
  137MOL0     H18462   0.191   3.143  10.839 -0.2332 -0.2081  0.0582
  137MOL0     H18463   0.142   2.934  10.948  0.1078 -0.7261  1.8009
  137MOL0     H18464   0.099   3.012  11.103  1.4309  0.1523 -0.4690
  137MOL0     H18465  -0.077   2.952  10.961  1.4175 -1.2915 -0.7467
  137MOL0     H18466  -0.011   3.040  10.824 -2.3336 -1.9879 -0.1060
  137MOL0     H18467  -0.134   3.158  11.086 -0.5259  0.3753 -0.0521
  137MOL0     H18468  -0.064   3.255  10.954  1.0215 -0.7175  0.1697
  137MOL0     H18469  -0.314   3.219  10.977  1.3314 -0.5150  0.8726
  137MOL0     H18470  -0.295   3.060  10.910 -2.2958  1.2534 -1.3744
  137MOL0     H18471  -0.189   3.288  10.742 -0.9261 -0.2955 -3.1711
  137MOL0     H18472  -0.223   3.129  10.707  2.9975  0.5780  1.9653
  137MOL0     H18473  -0.469   3.183  10.712 -1.9480  1.9785  0.7990
  137MOL0     H18474  -0.386   3.303  10.609  0.4919  0.1507  0.5191
  137MOL0     H18475  -0.502   3.350  10.888 -1.6322  1.6845  0.1543
  137MOL0     H18476  -0.543   3.433  10.744  0.8721  3.1846  0.2773
  137MOL0     H18477   0.572   3.056  11.017  0.5992  2.7382  2.4723
  137MOL0     H18478   0.774   3.130  10.885 -0.1427 -1.5502 -0.8972
  137MOL0     H18479   0.845   3.455  10.513 -1.3554  1.1713  1.0911
  137MOL0     H18480   0.990   3.529  10.355 -2.9478 -0.5850  1.5448
  137MOL0     H18481   2.381   2.812   9.181 -1.5065  0.9149  1.1594
  137MOL0     H18482   2.588   2.858   9.061 -1.5876  0.0576 -0.5146
  137MOL0     H18483   3.077   3.019   9.280  1.2407  1.1655  0.0762
  137MOL0     H18484   3.286   3.099   9.216 -0.3001 -2.1177  0.8462
  137MOL0     H18485   3.480   3.188   9.142  4.1555 -1.5472 -0.5073
  137MOL0     H18486   3.459   3.056   9.047 -2.2199 -0.0782  0.7269
  137MOL0     H18487   3.590   3.310   8.936 -1.3917  0.3790  4.8928
  137MOL0     H18488   3.576   3.154   8.849 -1.4914  0.4547 -0.1931
  137MOL0     H18489   3.720   3.046   9.002 -0.4600  0.5743  0.8855
  137MOL0     H18490   3.715   3.188   9.119 -0.2980  0.3206  0.8691
  137MOL0     H18491   3.863   3.309   8.971 -1.1051  0.1226 -0.4075
  137MOL0     H18492   3.814   3.235   8.832 -1.3017 -1.5448 -0.2025
  137MOL0     H18493   4.095   2.955   8.956 -0.0469  0.0233  2.5387
  137MOL0     H18494   3.128   3.262   8.854 -2.7236  1.7759  0.7954
  137MOL0     H18495   2.908   3.180   8.914 -1.8405 -1.0599  1.7238
  138MOL0     O18496   4.315   3.369   2.086 -0.2432 -0.6539 -0.0940
  138MOL0     C18497   4.313   3.250   2.077  0.7540 -0.0230  0.3140
  138MOL0     O18498   4.199   3.173   2.099 -0.3862  0.3477 -0.1431
  138MOL0     C18499   4.098   3.244   2.173  0.7329  0.3671  0.2150
  138MOL0     C18500   3.973   3.277   2.114  0.0604  0.7062  0.4468
  138MOL0     C18501   3.869   3.335   2.192 -0.1968  0.4038 -0.9108
  138MOL0     C18502   3.878   3.359   2.332  0.4094 -0.0559  0.4312
  138MOL0     O18503   3.761   3.385   2.400 -0.8536 -0.6145 -0.3231
  138MOL0     C18504   3.767   3.372   2.545  0.1638 -0.2608 -0.1941
  138MOL0     C18505   3.627   3.367   2.599 -0.1633 -0.2292  0.3683
  138MOL0     C18506   3.540   3.256   2.539 -0.4879 -0.0814  0.4727
  138MOL0     C18507   3.443   3.198   2.644 -0.2196 -0.4178 -0.4838
  138MOL0     C18508   3.373   3.073   2.588  1.1105 -0.6833 -0.3624
  138MOL0     C18509   3.275   3.020   2.701 -0.2655 -0.1004  0.6456
  138MOL0     C18510   3.134   2.988   2.650  0.1543  0.9084  0.1752
  138MOL0     C18511   3.131   2.896   2.526  0.5829  0.3072 -0.1626
  138MOL0     N18512   2.998   2.855   2.471 -0.7177 -0.1287  0.2502
  138MOL0     C18513   2.883   2.847   2.546 -0.4823  0.1755 -0.1275
  138MOL0     C18514   2.789   2.821   2.459  0.1379 -1.2225 -0.0533
  138MOL0     C18515   2.653   2.779   2.490  0.1104 -0.3958  0.1116
  138MOL0     C18516   2.536   2.882   2.496 -0.1124  0.1859 -0.4593
  138MOL0     C18517   2.393   2.825   2.511  0.2849 -0.3421  0.1431
  138MOL0     C18518   2.365   2.774   2.653 -0.1193  0.3706  0.1286
  138MOL0     O18519   2.243   2.708   2.648  0.3179 -0.0619  0.1105
  138MOL0     C18520   2.130   2.738   2.720 -0.7496  0.9042  0.2367
  138MOL0     C18521   2.038   2.639   2.700  0.0306  0.9409 -0.3834
  138MOL0     C18522   1.912   2.651   2.760 -0.2322 -0.3199 -0.0402
  138MOL0     C18523   1.813   2.541   2.717  0.3525 -0.5679 -0.2841
  138MOL0     C18524   1.886   2.762   2.849 -0.8150  0.3424  0.0949
  138MOL0     C18525   1.760   2.781   2.911  0.5454 -0.4414  0.0078
  138MOL0     O18526   1.758   2.814   3.047 -0.4699  0.0346  0.2876
  138MOL0     C18527   1.631   2.821   3.109 -0.6766  0.4679 -0.0362
  138MOL0     C18528   1.531   2.722   3.097  0.4897  0.2169  0.6900
  138MOL0     C18529   1.397   2.739   3.151  0.5467 -0.6644  0.5226
  138MOL0     C18530   1.367   2.858   3.220  0.0221 -0.1692 -0.4302
  138MOL0     O18531   1.241   2.878   3.290 -0.5863 -0.6327  0.2553
  138MOL0     C18532   1.126   2.806   3.238 -0.2054  0.1639 -0.4043
  138MOL0     C18533   1.084   2.695   3.328 -0.1628  0.5849 -0.1856
  138MOL0     C18534   0.958   2.620   3.290  0.3125  0.8704 -0.2720
  138MOL0     C18535   0.944   2.492   3.366 -0.3183 -0.5458 -0.5305
  138MOL0     C18536   0.803   2.437   3.352 -0.3863 -0.5627  0.8101
  138MOL0     C18537   0.769   2.401   3.210 -0.1861  0.4689  0.5967
  138MOL0     C18538   0.634   2.333   3.204  0.0138  0.4019 -0.0105
  138MOL0     C18539   0.589   2.342   3.053 -0.7460 -0.1615  0.2853
  138MOL0    Cl18540   0.704   2.238   2.953  0.2508  0.6207 -0.0245
  138MOL0     C18541   1.470   2.950   3.228 -0.4799 -0.3161 -0.3627
  138MOL0     C18542   1.602   2.934   3.179 -0.7645 -0.4878 -0.0416
  138MOL0     O18543   1.657   2.779   2.835 -0.1648 -0.1792  0.1479
  138MOL0     C18544   1.985   2.855   2.873  0.4852 -0.7109  0.1944
  138MOL0     C18545   2.105   2.846   2.804  0.9649  0.3087 -0.0201
  138MOL0     N18546   2.847   2.809   2.334 -0.0977 -0.1274  0.5639
  138MOL0     N18547   2.969   2.835   2.341 -0.5517  0.6255  0.4849
  138MOL0     C18548   4.007   3.334   2.386  0.0746  0.9921 -0.0814
  138MOL0     C18549   4.115   3.270   2.312  0.2778  0.4486  0.4254
  138MOL0     C18550   4.436   3.174   2.039 -0.1869 -0.4186 -0.0779
  138MOL0     C18551   4.436   3.037   2.025  0.1592  0.2700 -0.1160
  138MOL0     C18552   4.545   2.964   1.972  0.0407  0.2803 -0.2006
  138MOL0     C18553   4.658   3.031   1.931  0.2508 -0.1493 -0.5911
  138MOL0     O18554   4.753   2.946   1.871 -0.7468 -0.5605 -0.3743
  138MOL0     C18555   4.875   2.993   1.807 -0.2297 -0.3168 -0.6423
  138MOL0     C18556   4.983   2.965   1.903  0.0237  0.4936  0.5650
  138MOL0     C18557   5.121   2.963   1.844  0.5593 -0.8034  0.6754
  138MOL0     C18558   5.227   2.899   1.926  0.1442 -0.1777  0.0727
  138MOL0     C18559   5.359   2.893   1.860 -0.1331 -0.3250 -0.7187
  138MOL0     C18560   5.478   2.899   1.825 -0.1777  0.3772 -0.4009
  138MOL0     C18561   4.666   3.169   1.945  0.0177 -0.8840 -0.6364
  138MOL0     C18562   4.556   3.240   1.999 -0.2527  0.5253 -0.5233
  138MOL0     H18563   3.948   3.238   2.016  1.9778 -2.1582  0.9602
  138MOL0     H18564   3.773   3.349   2.144 -1.2120  1.1871  1.2164
  138MOL0     H18565   3.807   3.273   2.571  1.2967 -0.5243 -2.7014
  138MOL0     H18566   3.825   3.451   2.593  0.4067 -0.5419 -0.0184
  138MOL0     H18567   3.643   3.339   2.703  0.3820 -2.1245 -0.1772
  138MOL0     H18568   3.565   3.457   2.598  2.0446  1.3822  1.7447
  138MOL0     H18569   3.481   3.293   2.454  0.2827  0.5020  0.1777
  138MOL0     H18570   3.605   3.183   2.490  1.0961  2.4284 -1.3667
  138MOL0     H18571   3.506   3.167   2.727  1.9734 -0.7448 -2.1710
  138MOL0     H18572   3.381   3.284   2.672  2.4135  0.5038  3.2528
  138MOL0     H18573   3.313   3.100   2.500  1.7498 -0.2948 -0.6873
  138MOL0     H18574   3.444   2.994   2.561 -0.8505 -1.6643 -3.0929
  138MOL0     H18575   3.325   2.934   2.746  2.5096  0.6413 -0.8009
  138MOL0     H18576   3.262   3.091   2.783 -0.4247  1.8378 -0.9827
  138MOL0     H18577   3.085   2.939   2.736 -1.3454  2.9097  0.5294
  138MOL0     H18578   3.077   3.080   2.639  1.5368  2.2429  2.9877
  138MOL0     H18579   3.175   2.802   2.561  1.8023  0.9253  0.0017
  138MOL0     H18580   3.186   2.948   2.448  0.2250  2.4237  0.9294
  138MOL0     H18581   2.850   2.844   2.650  1.6387 -1.5476  0.5789
  138MOL0     H18582   2.620   2.711   2.411  1.2293 -1.6923  0.7338
  138MOL0     H18583   2.663   2.719   2.581 -3.8633 -2.3089 -0.4909
  138MOL0     H18584   2.535   2.937   2.401  0.4576  1.5812  0.3159
  138MOL0     H18585   2.553   2.952   2.578  1.0452 -1.3901  0.7087
  138MOL0     H18586   2.380   2.748   2.434  0.4439  3.4739 -4.1169
  138MOL0     H18587   2.322   2.905   2.490  0.2734 -0.6959 -1.3192
  138MOL0     H18588   2.365   2.854   2.728  0.2347  0.0032  0.5247
  138MOL0     H18589   2.444   2.705   2.682 -1.6877 -0.9292  1.5084
  138MOL0     H18590   2.058   2.556   2.632 -2.5229  0.0848 -0.2030
  138MOL0     H18591   1.869   2.464   2.662  2.2345  2.5361 -3.0897
  138MOL0     H18592   1.750   2.503   2.798 -1.4571  0.1274 -1.3042
  138MOL0     H18593   1.748   2.589   2.644  0.6429  1.6006  0.8085
  138MOL0     H18594   1.558   2.632   3.044  0.6898  0.8019 -0.2168
  138MOL0     H18595   1.323   2.660   3.161 -1.2861  1.0024  0.6197
  138MOL0     H18596   1.039   2.872   3.231 -0.5642 -0.3282 -0.7307
  138MOL0     H18597   1.141   2.773   3.135 -2.0377 -1.0522 -0.3388
  138MOL0     H18598   1.171   2.629   3.325  0.0248  0.8073  0.3125
  138MOL0     H18599   1.083   2.724   3.433  1.7391 -1.6780  0.5387
  138MOL0     H18600   0.968   2.593   3.184 -2.1238  1.4990 -0.7330
  138MOL0     H18601   0.872   2.687   3.297 -1.6506 -1.4114 -0.9705
  138MOL0     H18602   1.009   2.411   3.332 -0.3898 -0.6868 -0.3294
  138MOL0     H18603   0.970   2.503   3.471 -1.1372 -1.8271 -0.1734
  138MOL0     H18604   0.735   2.516   3.385  0.6156  2.9223 -4.1365
  138MOL0     H18605   0.782   2.349   3.412 -1.9307 -0.6074  0.2489
  138MOL0     H18606   0.773   2.480   3.134  0.0032 -0.7854 -0.7511
  138MOL0     H18607   0.842   2.325   3.178  0.1146  1.5208 -1.4265
  138MOL0     H18608   0.560   2.382   3.267 -3.6751 -0.7090 -3.1075
  138MOL0     H18609   0.633   2.226   3.226  2.6079  0.1287 -0.8600
  138MOL0     H18610   0.600   2.448   3.030  1.1244 -0.2549  0.6309
  138MOL0     H18611   0.485   2.309   3.042 -1.6178  2.0779  1.1432
  138MOL0     H18612   1.455   3.046   3.277 -2.6141 -0.1723 -1.1917
  138MOL0     H18613   1.677   3.011   3.190 -0.3641 -0.8146 -0.4315
  138MOL0     H18614   1.959   2.936   2.940  0.5206 -1.5025  1.1792
  138MOL0     H18615   2.183   2.921   2.817  0.6792  0.9175 -1.5656
  138MOL0     H18616   4.033   3.342   2.492  0.6446 -0.4864 -0.0900
  138MOL0     H18617   4.203   3.240   2.369  1.6385  2.2571 -0.6199
  138MOL0     H18618   4.343   2.986   2.045  0.7114 -0.1089  1.6545
  138MOL0     H18619   4.543   2.859   1.948 -1.6774 -0.0305  1.0973
  138MOL0     H18620   4.893   2.933   1.718  1.5304  0.1141 -0.6136
  138MOL0     H18621   4.878   3.099   1.780 -1.1516  0.0971  0.7625
  138MOL0     H18622   4.974   2.860   1.934 -1.2383  0.1455 -0.8516
  138MOL0     H18623   4.980   3.035   1.987  1.7557  1.8446 -0.4451
  138MOL0     H18624   5.138   3.068   1.817 -0.0850 -0.6075  1.0155
  138MOL0     H18625   5.118   2.913   1.746 -1.8073 -2.2473  1.3974
  138MOL0     H18626   5.195   2.794   1.930  0.0632 -0.2256 -1.2898
  138MOL0     H18627   5.243   2.944   2.024  1.9463  0.4615 -0.4768
  138MOL0     H18628   5.578   2.884   1.790  0.0109  2.0590 -0.7081
  138MOL0     H18629   4.754   3.224   1.914  2.2070 -3.7813 -0.0477
  138MOL0     H18630   4.560   3.349   1.992 -3.2764  0.9092  1.7580
  139MOL0     O18631   0.101   7.828   7.165 -0.2884 -0.0043  0.2214
  139MOL0     C18632   0.130   7.929   7.094  0.2350  0.9901 -0.1944
  139MOL0     O18633   0.059   8.057   7.086  0.0787 -0.2227  0.3852
  139MOL0     C18634  -0.057   8.064   7.145 -0.1130 -0.3689 -0.1392
  139MOL0     C18635  -0.168   7.986   7.112 -0.4394 -0.4462 -0.0607
  139MOL0     C18636  -0.293   7.988   7.188 -0.3649 -0.8218  0.1253
  139MOL0     C18637  -0.314   8.094   7.283 -0.3175 -0.4199 -0.3830
  139MOL0     O18638  -0.420   8.123   7.354  0.7001  0.3890  0.1708
  139MOL0     C18639  -0.541   8.060   7.308 -0.2556  0.4938  0.6866
  139MOL0     C18640  -0.663   8.130   7.374 -0.5154  0.6682 -0.3131
  139MOL0     C18641  -0.793   8.051   7.374  0.1492  0.0868 -0.5504
  139MOL0     C18642  -0.893   8.126   7.453  0.6336 -1.2208 -0.8354
  139MOL0     C18643  -1.031   8.062   7.434  0.3530  0.0219  0.3340
  139MOL0     C18644  -1.123   8.089   7.556  0.2160 -0.2583 -0.5799
  139MOL0     C18645  -1.259   8.153   7.519  0.5730  0.4926  0.3237
  139MOL0     C18646  -1.343   8.043   7.455  0.1871 -0.0083  0.1953
  139MOL0     N18647  -1.469   8.104   7.411 -0.0149  0.3150  0.2857
  139MOL0     C18648  -1.513   8.151   7.286  0.1389  0.7538  0.6645
  139MOL0     C18649  -1.638   8.194   7.306 -0.2055 -0.6012 -0.1313
  139MOL0     C18650  -1.723   8.255   7.193 -0.9387 -0.1173 -0.6116
  139MOL0     C18651  -1.813   8.158   7.131  0.1372  0.9956  0.2494
  139MOL0     C18652  -1.910   8.227   7.040  0.7534 -1.0621 -0.4147
  139MOL0     C18653  -1.995   8.125   6.962 -0.6702  0.8259 -0.1323
  139MOL0     O18654  -2.128   8.169   6.938 -0.4869  0.2327  0.9661
  139MOL0     C18655  -2.198   8.083   6.859  0.2564  0.2733  0.2415
  139MOL0     C18656  -2.183   8.086   6.719  0.3802  0.5766 -0.4436
  139MOL0     C18657  -2.245   7.990   6.637  0.1030  0.1983  0.5348
  139MOL0     C18658  -2.222   8.012   6.490  0.3156 -0.5159 -0.2444
  139MOL0     C18659  -2.327   7.888   6.693 -0.4357 -0.3694 -0.0236
  139MOL0     C18660  -2.413   7.799   6.614 -0.3623 -0.0860  0.6811
  139MOL0     O18661  -2.431   7.675   6.658 -0.0247 -0.2192 -0.1857
  139MOL0     C18662  -2.522   7.593   6.595 -0.7160  0.7002  0.0435
  139MOL0     C18663  -2.470   7.496   6.517  0.6112 -0.0297  0.1502
  139MOL0     C18664  -2.556   7.417   6.441 -0.2067 -0.2160 -0.7498
  139MOL0     C18665  -2.696   7.426   6.447 -0.7613  1.4616  0.2313
  139MOL0     O18666  -2.773   7.358   6.351 -0.5346 -0.2023  0.3642
  139MOL0     C18667  -2.918   7.356   6.364  0.0888  0.4102  0.0065
  139MOL0     C18668  -2.976   7.269   6.251  0.5542 -0.2278 -0.6396
  139MOL0     C18669  -3.123   7.282   6.258  0.4896  0.5203  0.1085
  139MOL0     C18670  -3.197   7.192   6.352  0.0864  0.5491  0.0594
  139MOL0     C18671  -3.345   7.207   6.336 -0.4464 -0.0173  0.1464
  139MOL0     C18672  -3.396   7.346   6.371  1.1809  0.3104 -0.2457
  139MOL0     C18673  -3.553   7.356   6.363 -0.4225 -0.5599  0.7605
  139MOL0     C18674  -3.624   7.306   6.483  0.2742 -0.6248 -1.3508
  139MOL0    Cl18675  -3.628   7.434   6.606  0.1283 -0.4218  0.6001
  139MOL0     C18676  -2.745   7.525   6.529 -0.2907 -0.2766 -0.1887
  139MOL0     C18677  -2.661   7.609   6.599 -0.2992  0.3620 -0.1696
  139MOL0     O18678  -2.489   7.852   6.527  0.4169 -0.1484  0.8994
  139MOL0     C18679  -2.330   7.881   6.829  0.0554  0.9360  0.3019
  139MOL0     C18680  -2.276   7.979   6.911 -0.0723 -0.7370  0.7389
  139MOL0     N18681  -1.670   8.191   7.439  0.8387 -0.6849 -0.6504
  139MOL0     N18682  -1.569   8.138   7.500 -0.0120  0.2147  0.3499
  139MOL0     C18683  -0.202   8.169   7.298  0.0541 -0.4344 -0.1403
  139MOL0     C18684  -0.080   8.155   7.240  0.8119 -0.0274 -0.0266
  139MOL0     C18685   0.241   7.908   7.005  0.1639 -0.3069 -0.1038
  139MOL0     C18686   0.309   8.019   6.950  0.0013  0.3847 -0.5961
  139MOL0     C18687   0.429   7.999   6.872 -0.4384 -0.3481  0.0912
  139MOL0     C18688   0.473   7.871   6.838  0.8703  0.3999  0.0735
  139MOL0     O18689   0.579   7.847   6.756 -0.1692  0.9476  0.3442
  139MOL0     C18690   0.658   7.951   6.703 -0.1502  0.0636  0.5651
  139MOL0     C18691   0.761   7.898   6.608  0.1621  0.7616 -0.5443
  139MOL0     C18692   0.898   7.978   6.605  0.5676 -0.8365 -0.2155
  139MOL0     C18693   0.990   7.920   6.498 -0.1131  0.0047 -0.0585
  139MOL0     C18694   1.096   8.009   6.453 -0.4629 -0.1677  0.2762
  139MOL0     C18695   1.197   8.077   6.433  0.1256  0.6017  0.9787
  139MOL0     C18696   0.395   7.757   6.879 -0.4116 -0.4119  0.6501
  139MOL0     C18697   0.292   7.779   6.961  0.4489  0.2454 -0.6882
  139MOL0     H18698  -0.145   7.920   7.029  1.8182  2.9905 -2.4690
  139MOL0     H18699  -0.378   7.923   7.170 -1.0677  0.5851 -2.1988
  139MOL0     H18700  -0.544   8.064   7.199  1.2927  2.8285  0.6704
  139MOL0     H18701  -0.540   7.952   7.328  2.2577  0.2908 -0.1717
  139MOL0     H18702  -0.642   8.147   7.481  1.6266 -4.5189  0.3869
  139MOL0     H18703  -0.678   8.224   7.321 -0.7573 -0.0849 -1.6224
  139MOL0     H18704  -0.829   8.048   7.270 -0.2755  1.1182 -0.4436
  139MOL0     H18705  -0.771   7.950   7.411 -1.7734 -0.1580  0.0142
  139MOL0     H18706  -0.866   8.125   7.559 -1.9375 -2.1015 -0.1114
  139MOL0     H18707  -0.895   8.231   7.422  2.5749 -1.1645 -0.8731
  139MOL0     H18708  -1.080   8.106   7.346 -0.2444  2.7101  1.8797
  139MOL0     H18709  -1.017   7.954   7.427  0.5688  0.1450 -2.3144
  139MOL0     H18710  -1.138   7.998   7.616 -1.4048 -1.6849 -2.9865
  139MOL0     H18711  -1.074   8.160   7.624 -1.6980 -1.4079  2.1691
  139MOL0     H18712  -1.306   8.186   7.612  2.1816 -0.2099  1.4308
  139MOL0     H18713  -1.252   8.236   7.447  1.1156 -0.7712 -1.1516
  139MOL0     H18714  -1.363   7.973   7.537  3.4065  0.0847  1.2031
  139MOL0     H18715  -1.288   7.996   7.373  1.3159 -1.9348  1.9746
  139MOL0     H18716  -1.463   8.138   7.191  1.4245  0.4861  1.3622
  139MOL0     H18717  -1.789   8.333   7.231  1.2683  0.5998  2.1546
  139MOL0     H18718  -1.646   8.289   7.123  0.2919 -0.6029  0.4559
  139MOL0     H18719  -1.873   8.110   7.209 -2.0581  1.2066 -1.2134
  139MOL0     H18720  -1.757   8.074   7.089 -0.2462  0.2689  1.1679
  139MOL0     H18721  -1.859   8.296   6.972  0.4365 -0.1149  0.2919
  139MOL0     H18722  -1.973   8.280   7.112  1.1126  0.7695 -1.3792
  139MOL0     H18723  -1.994   8.032   7.019 -1.9252  0.3429 -0.8744
  139MOL0     H18724  -1.949   8.104   6.865  0.9505 -2.0397  1.1525
  139MOL0     H18725  -2.120   8.162   6.673  0.4671 -0.3207 -1.8619
  139MOL0     H18726  -2.124   8.059   6.474 -0.4483  1.2813  0.1280
  139MOL0     H18727  -2.224   7.920   6.431 -1.3492 -1.1419  0.7226
  139MOL0     H18728  -2.288   8.089   6.449 -0.4843  0.1072  2.0395
  139MOL0     H18729  -2.366   7.469   6.501  0.0188 -2.9179  0.6250
  139MOL0     H18730  -2.508   7.349   6.371 -2.5827 -2.7782 -0.1032
  139MOL0     H18731  -2.936   7.316   6.464  2.1660  1.7316  0.9836
  139MOL0     H18732  -2.963   7.456   6.366 -1.8156 -0.4066  1.5115
  139MOL0     H18733  -2.932   7.319   6.164  2.6710  0.4335  0.7356
  139MOL0     H18734  -2.943   7.165   6.264  2.5973  0.1939 -2.0232
  139MOL0     H18735  -3.158   7.252   6.159 -1.9191 -3.0640  1.8459
  139MOL0     H18736  -3.152   7.387   6.273  1.1134  0.7159 -0.0421
  139MOL0     H18737  -3.178   7.085   6.340 -0.7938 -0.1452  3.7616
  139MOL0     H18738  -3.172   7.213   6.456 -2.0886  0.0823  0.7222
  139MOL0     H18739  -3.387   7.136   6.409 -2.4315  0.2685 -0.6393
  139MOL0     H18740  -3.379   7.180   6.236 -3.2422  0.9548  0.7456
  139MOL0     H18741  -3.362   7.380   6.468 -3.4120 -0.7138  2.0232
  139MOL0     H18742  -3.356   7.408   6.290 -0.6915  0.3019 -1.2558
  139MOL0     H18743  -3.584   7.289   6.282  0.6852 -2.2427  1.6788
  139MOL0     H18744  -3.577   7.462   6.347 -0.9346 -0.7720  0.0712
  139MOL0     H18745  -3.572   7.215   6.515 -0.2675 -0.7191 -0.7210
  139MOL0     H18746  -3.726   7.285   6.452  0.8801 -2.2576 -2.3430
  139MOL0     H18747  -2.853   7.528   6.535 -0.4910 -2.0402 -1.9140
  139MOL0     H18748  -2.694   7.691   6.662  1.5787 -0.2177  1.6641
  139MOL0     H18749  -2.391   7.805   6.877  1.8007 -0.8158 -0.1203
  139MOL0     H18750  -2.294   7.963   7.017 -0.4281  0.1604  0.8228
  139MOL0     H18751  -0.202   8.248   7.372  1.1018  0.0946 -0.6714
  139MOL0     H18752   0.013   8.208   7.255  0.7308  0.2064 -0.3475
  139MOL0     H18753   0.271   8.118   6.976  0.3573 -0.1626  2.3290
  139MOL0     H18754   0.473   8.089   6.830 -1.2619 -0.3408 -0.7671
  139MOL0     H18755   0.599   8.017   6.639  0.2729 -0.0421  0.0611
  139MOL0     H18756   0.703   8.006   6.786  0.0003 -0.6781  0.9813
  139MOL0     H18757   0.720   7.902   6.507 -2.1545 -1.1650  0.2174
  139MOL0     H18758   0.770   7.791   6.630 -2.8632 -0.0197 -2.5298
  139MOL0     H18759   0.948   7.978   6.703 -2.2860 -0.2433  1.3727
  139MOL0     H18760   0.874   8.081   6.576  1.4161 -1.4269 -3.3348
  139MOL0     H18761   0.928   7.914   6.408  2.3956 -0.6651 -1.8391
  139MOL0     H18762   1.025   7.819   6.521 -2.0052 -0.8053 -0.5507
  139MOL0     H18763   1.277   8.143   6.407 -0.8768  0.9358 -1.5604
  139MOL0     H18764   0.419   7.654   6.856 -2.2210 -0.8117  0.3752
  139MOL0     H18765   0.246   7.690   7.001  1.9389 -0.4291 -0.4040
  140MOL0     O18766   0.717   9.090   8.849 -0.4466 -0.4584  0.1116
  140MOL0     C18767   0.749   9.037   8.746  0.1145  0.7759  0.0221
  140MOL0     O18768   0.675   9.021   8.638  0.5806  0.3603 -0.2963
  140MOL0     C18769   0.545   9.058   8.620 -0.2026 -0.6089 -0.4222
  140MOL0     C18770   0.445   9.037   8.709 -0.4275  0.1080 -0.4136
  140MOL0     C18771   0.314   9.069   8.686  0.3637  0.1536 -0.5453
  140MOL0     C18772   0.277   9.116   8.560 -0.0494  0.6533  0.3407
  140MOL0     O18773   0.148   9.145   8.529 -0.1363 -0.0547 -0.7985
  140MOL0     C18774   0.094   9.112   8.411  0.2959  0.4836  0.5180
  140MOL0     C18775  -0.063   9.088   8.414 -0.1375  0.1682  0.0974
  140MOL0     C18776  -0.118   9.039   8.277 -0.6904 -0.4060  0.1890
  140MOL0     C18777  -0.249   8.972   8.300 -0.3051  0.7363 -0.0538
  140MOL0     C18778  -0.313   8.943   8.163  0.1257 -0.0466  0.1826
  140MOL0     C18779  -0.431   8.848   8.161  0.1824  0.7132 -0.3599
  140MOL0     C18780  -0.541   8.872   8.264 -0.3565  0.0042  0.2744
  140MOL0     C18781  -0.639   8.754   8.240 -0.8738 -0.5863 -0.3871
  140MOL0     N18782  -0.769   8.768   8.315 -0.2396 -0.5044 -0.0926
  140MOL0     C18783  -0.789   8.806   8.448  0.3385  0.1436  0.7973
  140MOL0     C18784  -0.914   8.758   8.483 -0.1094  0.1677 -0.1202
  140MOL0     C18785  -0.959   8.755   8.627  0.4202  0.3339  0.2061
  140MOL0     C18786  -1.106   8.717   8.643  0.1828  0.6643 -0.3077
  140MOL0     C18787  -1.207   8.818   8.583  0.4768  0.2804  0.7126
  140MOL0     C18788  -1.354   8.791   8.581  0.1442  0.2860 -0.4126
  140MOL0     O18789  -1.415   8.904   8.520 -0.3748 -0.2682  0.2559
  140MOL0     C18790  -1.552   8.915   8.508  0.0933  0.5847  0.3035
  140MOL0     C18791  -1.643   8.807   8.526  0.1023 -0.1769  0.0596
  140MOL0     C18792  -1.778   8.820   8.511 -0.2618  1.0639  0.1200
  140MOL0     C18793  -1.862   8.697   8.532 -0.0962  0.4116 -0.3654
  140MOL0     C18794  -1.829   8.950   8.473 -0.8149  0.4691  0.3597
  140MOL0     C18795  -1.973   8.971   8.434  0.5862  0.9653 -0.0017
  140MOL0     O18796  -1.996   9.088   8.363  0.2204  0.7781  0.2949
  140MOL0     C18797  -2.121   9.106   8.308  0.6272  0.2431 -0.5452
  140MOL0     C18798  -2.140   9.104   8.168 -0.9678 -0.1524  0.6252
  140MOL0     C18799  -2.266   9.132   8.110  0.3972 -0.2806 -0.1726
  140MOL0     C18800  -2.376   9.146   8.191 -0.0821  0.5881 -0.1595
  140MOL0     O18801  -2.500   9.146   8.125 -0.3083  0.1895  0.0074
  140MOL0     C18802  -2.609   9.069   8.183 -0.4324  0.1755  0.3002
  140MOL0     C18803  -2.708   9.162   8.257 -1.2414  0.2911 -0.6553
  140MOL0     C18804  -2.827   9.088   8.315 -0.2283  0.1530  0.0963
  140MOL0     C18805  -2.937   9.185   8.364 -0.3326  0.1032  1.1356
  140MOL0     C18806  -3.049   9.100   8.419 -0.9220 -0.1138  0.3634
  140MOL0     C18807  -3.152   9.191   8.478  0.4264 -0.0289 -0.3566
  140MOL0     C18808  -3.270   9.119   8.540  0.1573  0.2692  0.4981
  140MOL0     C18809  -3.247   9.093   8.683 -0.1750 -0.4273 -0.0526
  140MOL0    Cl18810  -3.375   8.984   8.731 -0.3489  0.7487 -0.2289
  140MOL0     C18811  -2.363   9.149   8.333  0.2353  0.4451  0.2482
  140MOL0     C18812  -2.232   9.130   8.384  0.7781 -0.5747  0.0163
  140MOL0     O18813  -2.063   8.887   8.470 -0.1472 -0.3551  0.4097
  140MOL0     C18814  -1.739   9.052   8.450 -0.1231 -0.3983  0.6761
  140MOL0     C18815  -1.609   9.035   8.466 -1.1911  0.3245 -0.4172
  140MOL0     N18816  -0.982   8.721   8.369 -0.0698 -0.9023 -0.6980
  140MOL0     N18817  -0.893   8.730   8.274 -0.1927  0.1085  0.3129
  140MOL0     C18818   0.380   9.131   8.466 -0.3108 -0.3131 -0.1864
  140MOL0     C18819   0.510   9.102   8.501 -0.1038 -1.3753 -0.5831
  140MOL0     C18820   0.887   9.006   8.723 -0.0248  0.0564  0.2611
  140MOL0     C18821   0.964   8.972   8.839  0.4096  0.4639  0.2748
  140MOL0     C18822   1.098   8.938   8.819  0.5253  0.3955  0.9595
  140MOL0     C18823   1.160   8.948   8.688  0.4125  0.1647  0.2949
  140MOL0     O18824   1.294   8.918   8.689  0.3462  0.0411  0.4978
  140MOL0     C18825   1.375   8.946   8.570  0.7268 -0.8093 -0.5019
  140MOL0     C18826   1.523   8.897   8.587 -0.5003 -0.2561  0.3390
  140MOL0     C18827   1.613   8.984   8.681 -0.1208 -0.2118 -1.2803
  140MOL0     C18828   1.643   8.917   8.814 -0.3556 -1.5847  0.8084
  140MOL0     C18829   1.758   8.986   8.874  0.1619  0.4966  0.3866
  140MOL0     C18830   1.851   9.045   8.920  0.6954  0.7944  0.1363
  140MOL0     C18831   1.086   8.994   8.587 -0.4339  0.3381  0.1046
  140MOL0     C18832   0.944   9.007   8.599  0.0577 -0.4723 -0.5735
  140MOL0     H18833   0.479   8.984   8.797  0.2163  2.6812  0.9766
  140MOL0     H18834   0.235   9.064   8.760 -0.5017 -2.2120 -1.5289
  140MOL0     H18835   0.100   9.194   8.339 -1.7482 -0.6053 -1.0104
  140MOL0     H18836   0.150   9.027   8.372  1.0261 -0.0786  2.6295
  140MOL0     H18837  -0.087   9.021   8.497 -0.5553  0.6950  0.4107
  140MOL0     H18838  -0.110   9.183   8.440  1.6401  0.6830  1.5554
  140MOL0     H18839  -0.142   9.122   8.210 -0.7147  0.1746  0.9078
  140MOL0     H18840  -0.041   8.982   8.224 -0.7477 -0.2812 -0.0291
  140MOL0     H18841  -0.228   8.878   8.352  0.6254  1.8233  1.6044
  140MOL0     H18842  -0.315   9.032   8.363 -0.5524  0.7825 -0.3538
  140MOL0     H18843  -0.352   9.039   8.129 -1.1617  0.1855  2.1305
  140MOL0     H18844  -0.228   8.913   8.101  1.4608  3.0554  0.3117
  140MOL0     H18845  -0.466   8.845   8.057 -1.7277 -1.1481  0.2665
  140MOL0     H18846  -0.384   8.754   8.191  0.2773  0.9840  0.3613
  140MOL0     H18847  -0.501   8.874   8.366  1.2309 -0.8555 -0.2887
  140MOL0     H18848  -0.605   8.959   8.246 -1.4416 -0.7581  0.3877
  140MOL0     H18849  -0.590   8.661   8.268  2.3450  1.4391  1.3587
  140MOL0     H18850  -0.660   8.744   8.133 -0.3376 -0.8098 -0.4765
  140MOL0     H18851  -0.711   8.836   8.517  2.5505 -1.9220 -0.6298
  140MOL0     H18852  -0.899   8.688   8.690  0.2089 -0.7157 -0.7072
  140MOL0     H18853  -0.948   8.859   8.662 -1.2784  0.5707  0.0864
  140MOL0     H18854  -1.130   8.709   8.750 -0.1695  1.1543 -0.3435
  140MOL0     H18855  -1.123   8.624   8.588  2.1722  0.5703 -0.8354
  140MOL0     H18856  -1.175   8.833   8.479  0.8724 -1.0797  0.6152
  140MOL0     H18857  -1.211   8.906   8.647 -2.2685 -0.3952  1.6093
  140MOL0     H18858  -1.394   8.773   8.681 -4.3216 -0.2175 -2.0742
  140MOL0     H18859  -1.382   8.700   8.527 -1.9188  0.9087 -0.4559
  140MOL0     H18860  -1.597   8.712   8.551  1.8110 -0.3551 -3.2937
  140MOL0     H18861  -1.919   8.700   8.625 -0.2498 -0.3205 -0.4374
  140MOL0     H18862  -1.929   8.696   8.445  0.4681 -0.9822 -0.8109
  140MOL0     H18863  -1.797   8.610   8.522  2.7420  2.5252 -1.6347
  140MOL0     H18864  -2.055   9.081   8.104 -1.1387 -0.2217  0.4200
  140MOL0     H18865  -2.285   9.134   8.003 -1.6465  0.1111  0.1512
  140MOL0     H18866  -2.659   9.019   8.099  0.9827 -0.9430  0.0930
  140MOL0     H18867  -2.565   8.992   8.247  1.8327  2.1047  1.2254
  140MOL0     H18868  -2.657   9.203   8.344 -3.8407  0.2894  0.9732
  140MOL0     H18869  -2.735   9.239   8.183 -1.0629  1.2806  0.2789
  140MOL0     H18870  -2.795   9.032   8.404  2.8145  0.0745 -0.9333
  140MOL0     H18871  -2.877   9.017   8.249 -0.2040 -3.2794  3.4015
  140MOL0     H18872  -2.891   9.248   8.441  1.2400  0.7122 -0.2647
  140MOL0     H18873  -2.977   9.246   8.283  0.4163  0.3177  0.9251
  140MOL0     H18874  -3.007   9.040   8.501 -1.7031 -1.4590 -0.1777
  140MOL0     H18875  -3.103   9.039   8.345 -2.7331  1.2597  0.4910
  140MOL0     H18876  -3.113   9.262   8.552  1.4021 -0.7187 -0.1823
  140MOL0     H18877  -3.193   9.250   8.396  1.2477  2.1601  0.7233
  140MOL0     H18878  -3.282   9.022   8.490 -0.6662  1.7663 -2.4228
  140MOL0     H18879  -3.356   9.180   8.512  0.9225  1.5164  0.7961
  140MOL0     H18880  -3.238   9.182   8.747  3.0822 -1.3944  1.0501
  140MOL0     H18881  -3.153   9.039   8.701 -0.7054 -0.7788  1.8502
  140MOL0     H18882  -2.453   9.149   8.394 -0.4591 -1.6666 -0.6769
  140MOL0     H18883  -2.228   9.132   8.492 -1.7039  0.9697  0.1527
  140MOL0     H18884  -1.770   9.152   8.422  1.2692 -0.5804 -1.7855
  140MOL0     H18885  -1.544   9.120   8.447 -1.2208 -0.0244 -2.2621
  140MOL0     H18886   0.367   9.165   8.364  0.7928 -2.4759 -1.1119
  140MOL0     H18887   0.584   9.119   8.423 -0.6506 -0.7803 -0.9829
  140MOL0     H18888   0.935   8.957   8.942  2.1217  1.1062  0.8795
  140MOL0     H18889   1.162   8.903   8.899  0.2387 -2.6060  0.0177
  140MOL0     H18890   1.328   8.893   8.487 -0.6605  0.5296 -0.6188
  140MOL0     H18891   1.364   9.053   8.547 -0.1048 -0.9036 -0.5856
  140MOL0     H18892   1.571   8.891   8.489 -0.8338 -0.4342  0.1863
  140MOL0     H18893   1.523   8.795   8.625 -0.3245  0.6584  3.0042
  140MOL0     H18894   1.576   9.085   8.699  2.0141  0.3650  0.3013
  140MOL0     H18895   1.714   9.001   8.642  0.9055  1.9900  1.9284
  140MOL0     H18896   1.665   8.811   8.799 -2.4268 -1.6434 -3.1026
  140MOL0     H18897   1.553   8.929   8.875 -0.9168  0.3255 -0.3181
  140MOL0     H18898   1.942   9.092   8.952  1.4168 -0.6527  0.3089
  140MOL0     H18899   1.119   9.015   8.485  0.2545  0.8083  0.4115
  140MOL0     H18900   0.882   9.026   8.512  1.0550 -2.2613 -1.7533
  141MOL0     O18901   9.485   4.657   2.360  0.0175  0.5902  0.0316
  141MOL0     C18902   9.512   4.637   2.477  0.1010  0.6411 -0.4131
  141MOL0     O18903   9.425   4.628   2.574  0.1824  0.0212  0.4315
  141MOL0     C18904   9.291   4.655   2.553  0.5757 -0.1539 -0.8327
  141MOL0     C18905   9.210   4.592   2.450  0.5029 -0.8872 -0.2598
  141MOL0     C18906   9.081   4.624   2.426 -0.6681  0.6138  0.0506
  141MOL0     C18907   9.016   4.706   2.520 -0.4698 -0.3490  0.7783
  141MOL0     O18908   8.884   4.730   2.520 -0.0759  0.1163 -0.2270
  141MOL0     C18909   8.827   4.755   2.388 -0.3824  0.4372  0.1520
  141MOL0     C18910   8.688   4.823   2.382  0.6550 -0.4785  0.0035
  141MOL0     C18911   8.577   4.734   2.451  0.0794 -0.4495  0.1626
  141MOL0     C18912   8.451   4.807   2.480  0.4788  0.4346 -0.6261
  141MOL0     C18913   8.357   4.726   2.569 -0.5724 -1.0275  0.4372
  141MOL0     C18914   8.242   4.799   2.637 -0.0908 -0.1233 -0.4075
  141MOL0     C18915   8.120   4.720   2.645  0.2202 -0.6270  0.5825
  141MOL0     C18916   8.008   4.809   2.694  0.0815  0.6292  0.1514
  141MOL0     N18917   7.882   4.739   2.720  0.2712 -0.2098  0.6829
  141MOL0     C18918   7.852   4.698   2.842  0.1159  0.5880  0.2807
  141MOL0     C18919   7.732   4.637   2.823 -0.8078 -0.6921  0.0630
  141MOL0     C18920   7.645   4.570   2.922  0.1083  0.1141  1.2572
  141MOL0     C18921   7.490   4.571   2.901 -0.1571 -0.1817  0.2541
  141MOL0     C18922   7.423   4.464   2.983 -0.6746 -0.0296  0.0704
  141MOL0     C18923   7.281   4.491   3.009 -0.8411 -0.7656 -0.2314
  141MOL0     O18924   7.212   4.544   2.899 -0.1690 -0.0921 -0.3056
  141MOL0     C18925   7.075   4.563   2.906 -0.1170  0.0669 -0.3022
  141MOL0     C18926   6.985   4.529   3.006 -0.6647  0.2064 -0.2315
  141MOL0     C18927   6.842   4.554   2.997 -0.4382 -0.5104  1.0754
  141MOL0     C18928   6.758   4.509   3.108 -0.5242 -0.0470  0.1136
  141MOL0     C18929   6.795   4.629   2.887 -1.0848 -0.4793 -0.2119
  141MOL0     C18930   6.654   4.675   2.868  0.5193 -0.7398  0.5439
  141MOL0     O18931   6.564   4.666   2.971 -0.9887  0.5414  0.6619
  141MOL0     C18932   6.438   4.722   2.965 -0.1241 -0.4976  0.1286
  141MOL0     C18933   6.407   4.855   2.937  0.0854  0.1085  0.0321
  141MOL0     C18934   6.276   4.899   2.927  0.0733 -0.8922 -1.0979
  141MOL0     C18935   6.169   4.812   2.948  0.3575  0.6234 -0.1760
  141MOL0     O18936   6.039   4.858   2.960 -0.4345  0.0574  0.0426
  141MOL0     C18937   5.963   4.835   2.846  0.2671 -0.3769 -0.4940
  141MOL0     C18938   5.829   4.904   2.877  0.6546 -0.0909  0.9671
  141MOL0     C18939   5.750   4.912   2.753  0.4626  0.6551  0.4613
  141MOL0     C18940   5.603   4.938   2.759 -0.5389  0.1369  0.6631
  141MOL0     C18941   5.576   5.080   2.793  0.5626 -0.8734  0.4101
  141MOL0     C18942   5.588   5.180   2.672 -0.0940 -0.1295 -0.1313
  141MOL0     C18943   5.613   5.326   2.720  0.2566  0.2281  0.9422
  141MOL0     C18944   5.576   5.421   2.609  0.1176 -0.1145  0.6519
  141MOL0    Cl18945   5.675   5.393   2.463 -0.1197 -0.2623 -0.1100
  141MOL0     C18946   6.197   4.678   2.981 -0.3411  0.3941  0.4651
  141MOL0     C18947   6.331   4.629   2.986  0.0167 -0.8367  0.3728
  141MOL0     O18948   6.629   4.728   2.764 -0.3080 -0.6035  1.1934
  141MOL0     C18949   6.889   4.677   2.789  0.1128 -0.3178 -0.5723
  141MOL0     C18950   7.022   4.642   2.806 -0.5549  0.1231 -0.2210
  141MOL0     N18951   7.710   4.639   2.683  0.4649 -0.2994 -0.1988
  141MOL0     N18952   7.801   4.692   2.622 -0.0608  0.5305 -0.3580
  141MOL0     C18953   9.089   4.762   2.620  0.5331  0.3311 -0.0666
  141MOL0     C18954   9.221   4.733   2.639 -0.7098 -0.5253  0.8406
  141MOL0     C18955   9.653   4.612   2.520 -0.1900  0.1342  0.2569
  141MOL0     C18956   9.760   4.633   2.431 -0.3763 -0.3275  0.6519
  141MOL0     C18957   9.893   4.605   2.465  0.8774 -0.5092 -0.0985
  141MOL0     C18958   9.930   4.564   2.592 -0.3780 -0.3270  0.0043
  141MOL0     O18959  10.064   4.555   2.628  0.1759  1.1803  0.2323
  141MOL0     C18960  10.101   4.520   2.762  0.9565 -0.3056 -0.2479
  141MOL0     C18961  10.254   4.501   2.784  0.0960 -0.5329 -0.3915
  141MOL0     C18962  10.302   4.380   2.711  0.7781 -0.1381  1.0594
  141MOL0     C18963  10.444   4.404   2.649  0.1029 -0.1490  0.1315
  141MOL0     C18964  10.542   4.394   2.759  0.4069  0.1332  0.6296
  141MOL0     C18965  10.603   4.388   2.861 -0.1628 -0.0964 -0.0299
  141MOL0     C18966   9.825   4.536   2.678 -0.5425  0.0434 -0.2250
  141MOL0     C18967   9.687   4.561   2.647 -0.2337 -0.1708 -0.5902
  141MOL0     H18968   9.255   4.520   2.382  0.5562 -0.3469 -0.8057
  141MOL0     H18969   9.021   4.572   2.351 -3.2224  0.0141  2.3299
  141MOL0     H18970   8.897   4.817   2.331  2.8237 -1.0752  2.1362
  141MOL0     H18971   8.807   4.658   2.342  3.3908 -0.2960 -0.2062
  141MOL0     H18972   8.694   4.916   2.439  1.6483 -0.2440 -0.4533
  141MOL0     H18973   8.655   4.849   2.281 -0.9571 -3.3687 -0.3235
  141MOL0     H18974   8.551   4.662   2.373  1.7341  0.6888 -1.5338
  141MOL0     H18975   8.608   4.692   2.547  1.6094 -1.7616 -0.8438
  141MOL0     H18976   8.480   4.895   2.540  2.3392 -0.6435  0.1484
  141MOL0     H18977   8.400   4.846   2.391  0.2274  0.0509 -0.6515
  141MOL0     H18978   8.325   4.632   2.523 -2.1491  0.2028 -1.1059
  141MOL0     H18979   8.412   4.688   2.655  0.1304  1.0529  0.9671
  141MOL0     H18980   8.282   4.806   2.739  0.2452 -3.2186 -0.2431
  141MOL0     H18981   8.214   4.895   2.592  0.3928  1.0576  1.6461
  141MOL0     H18982   8.101   4.681   2.545 -0.6441 -1.7265  1.1444
  141MOL0     H18983   8.126   4.634   2.712 -1.5031 -1.7757 -0.6395
  141MOL0     H18984   7.988   4.891   2.625 -0.7320 -0.0903 -0.4874
  141MOL0     H18985   8.035   4.858   2.788 -0.4183  0.3007  0.4697
  141MOL0     H18986   7.902   4.718   2.936 -0.7896  0.5102  0.7932
  141MOL0     H18987   7.681   4.467   2.918 -1.7492 -0.5363 -0.9160
  141MOL0     H18988   7.665   4.615   3.020  2.9622  3.5698 -0.6614
  141MOL0     H18989   7.454   4.565   2.798 -2.3131  0.4240  0.9053
  141MOL0     H18990   7.453   4.668   2.938  0.2137  0.4019 -0.8544
  141MOL0     H18991   7.472   4.469   3.081 -1.9116 -0.1082  0.7209
  141MOL0     H18992   7.433   4.365   2.938  0.7909 -0.6176  1.5955
  141MOL0     H18993   7.280   4.557   3.096 -3.4491  1.4148 -1.7733
  141MOL0     H18994   7.238   4.396   3.041 -1.7771  0.0902  1.1462
  141MOL0     H18995   7.030   4.483   3.093  1.1459 -0.0946 -1.2959
  141MOL0     H18996   6.821   4.430   3.149 -0.0072 -0.6253 -1.7098
  141MOL0     H18997   6.740   4.594   3.175  0.2664 -0.1208  0.4246
  141MOL0     H18998   6.666   4.461   3.072 -0.3075  0.1876 -0.7603
  141MOL0     H18999   6.492   4.919   2.918  0.9290 -1.0971 -0.3863
  141MOL0     H19000   6.257   5.005   2.915 -2.2324 -0.5137  3.5455
  141MOL0     H19001   6.007   4.872   2.752 -1.6594 -0.2632 -1.4075
  141MOL0     H19002   5.954   4.727   2.836  1.1301 -0.5039  0.0452
  141MOL0     H19003   5.772   4.847   2.951 -2.1821  0.8813 -0.2922
  141MOL0     H19004   5.842   5.008   2.908  2.3068  0.5915 -1.6721
  141MOL0     H19005   5.758   4.808   2.722 -0.8293  1.1374 -1.6788
  141MOL0     H19006   5.800   4.975   2.678  0.8592  1.0358  1.0362
  141MOL0     H19007   5.562   4.914   2.661 -1.4582  1.2144  0.7685
  141MOL0     H19008   5.564   4.866   2.830 -0.0627  1.5564  2.4557
  141MOL0     H19009   5.647   5.104   2.873 -0.0949  1.4948  0.3573
  141MOL0     H19010   5.476   5.089   2.836  1.3605  1.7672  1.9938
  141MOL0     H19011   5.673   5.154   2.608  0.4131 -0.1241  0.5242
  141MOL0     H19012   5.498   5.179   2.611 -2.1499  0.9628  2.6354
  141MOL0     H19013   5.715   5.355   2.748 -0.0521  1.2838  1.0306
  141MOL0     H19014   5.553   5.343   2.811 -1.0595 -1.1557  0.3635
  141MOL0     H19015   5.597   5.524   2.638  0.6965 -0.2758  0.8157
  141MOL0     H19016   5.471   5.410   2.579  0.8948 -4.0350 -1.4031
  141MOL0     H19017   6.128   4.600   3.011  0.6607  0.3115  2.7914
  141MOL0     H19018   6.363   4.526   2.995  0.8238 -0.6275 -0.0186
  141MOL0     H19019   6.867   4.730   2.697  1.7451 -0.4753 -1.0906
  141MOL0     H19020   7.097   4.668   2.731  1.0120 -2.0368  0.4805
  141MOL0     H19021   9.035   4.831   2.685 -0.4046  0.2117 -0.7088
  141MOL0     H19022   9.269   4.777   2.725  0.1441 -2.1429  1.2112
  141MOL0     H19023   9.733   4.670   2.332  0.7634 -1.3016 -0.0523
  141MOL0     H19024   9.974   4.630   2.398 -0.6031  0.7149 -1.5257
  141MOL0     H19025  10.070   4.600   2.830 -1.1745 -2.1075  1.0593
  141MOL0     H19026  10.046   4.429   2.786 -1.1098  0.6808 -1.0235
  141MOL0     H19027  10.274   4.496   2.891  0.6296  1.7301 -0.3392
  141MOL0     H19028  10.304   4.592   2.752  1.1577 -1.3749 -1.2125
  141MOL0     H19029  10.232   4.362   2.628 -0.5169 -1.4496  2.3785
  141MOL0     H19030  10.313   4.289   2.770  1.4190 -3.5440 -3.7613
  141MOL0     H19031  10.456   4.499   2.596 -2.8158  0.1449 -0.1561
  141MOL0     H19032  10.461   4.320   2.581 -1.2296 -0.4624  0.1579
  141MOL0     H19033  10.635   4.396   2.963  1.4583  0.7745 -0.5775
  141MOL0     H19034   9.848   4.509   2.781 -1.1552  0.2178 -0.0408
  141MOL0     H19035   9.612   4.551   2.724 -0.4564  0.1077 -0.7721
  142MOL0     O19036  11.172   3.033   1.026  0.2099 -0.4210  1.0268
  142MOL0     C19037  11.257   3.081   1.094 -0.6955 -0.0925 -0.1259
  142MOL0     O19038  11.239   3.145   1.214 -0.1721 -0.5318 -0.7029
  142MOL0     C19039  11.111   3.146   1.259  0.4370 -0.2804  0.9159
  142MOL0     C19040  11.060   3.271   1.273 -0.3644  0.2867 -0.2839
  142MOL0     C19041  10.923   3.285   1.296 -0.5753  1.0008  0.2180
  142MOL0     C19042  10.846   3.168   1.328  0.4065  0.3166 -0.3917
  142MOL0     O19043  10.711   3.183   1.368 -0.1472  0.8847 -0.3965
  142MOL0     C19044  10.630   3.259   1.273 -0.1028 -0.5518 -0.2397
  142MOL0     C19045  10.650   3.213   1.130  0.4772 -0.8490 -0.7067
  142MOL0     C19046  10.542   3.287   1.051  0.2219 -0.1423 -0.5914
  142MOL0     C19047  10.559   3.254   0.904  0.2522 -0.0279 -0.4785
  142MOL0     C19048  10.439   3.319   0.831 -0.6573  0.7408 -0.9461
  142MOL0     C19049  10.455   3.313   0.681 -1.4043 -0.7542 -0.0158
  142MOL0     C19050  10.358   3.396   0.603 -0.5335  0.5798  0.1864
  142MOL0     C19051  10.361   3.364   0.452 -0.5461 -0.1108  0.9775
  142MOL0     N19052  10.223   3.347   0.393 -0.5594  0.4433 -0.6045
  142MOL0     C19053  10.149   3.233   0.381  0.3873  0.1351  0.0547
  142MOL0     C19054  10.038   3.272   0.302 -0.7112 -0.3247 -0.6576
  142MOL0     C19055   9.932   3.171   0.289  0.3782 -0.0620  0.2011
  142MOL0     C19056   9.975   3.060   0.194  0.0015 -0.2360 -0.0215
  142MOL0     C19057   9.856   2.974   0.163 -0.1240 -0.0969 -0.7153
  142MOL0     C19058   9.901   2.859   0.069 -0.0680 -0.0049 -0.0870
  142MOL0     O19059   9.787   2.784   0.025 -0.0749 -0.2297  0.5161
  142MOL0     C19060   9.797   2.669  -0.060  0.0028 -0.2723 -0.5328
  142MOL0     C19061   9.914   2.614  -0.109  0.3288  0.1246  0.1174
  142MOL0     C19062   9.920   2.501  -0.194 -0.3900  0.1129 -0.5237
  142MOL0     C19063  10.053   2.451  -0.250 -0.0346  0.8356  0.5318
  142MOL0     C19064   9.792   2.425  -0.214  0.9268 -0.1103  0.0152
  142MOL0     C19065   9.773   2.287  -0.270 -0.4213 -0.1476 -0.4092
  142MOL0     O19066   9.893   2.224  -0.302  0.4002  0.5483  0.3861
  142MOL0     C19067   9.912   2.092  -0.354  0.0846 -0.9709 -0.2008
  142MOL0     C19068  10.044   2.047  -0.353  0.4475  0.4981  0.4526
  142MOL0     C19069  10.074   1.924  -0.404 -0.5820 -0.2152  0.7295
  142MOL0     C19070   9.974   1.838  -0.438  0.2672 -0.0387 -0.8169
  142MOL0     O19071   9.998   1.712  -0.481  0.2014 -0.1060  0.3228
  142MOL0     C19072  10.062   1.634  -0.382  0.2135  0.4907  0.5795
  142MOL0     C19073  10.032   1.492  -0.438 -0.6103 -0.0102  0.4933
  142MOL0     C19074  10.100   1.383  -0.352  0.6474 -0.2585  0.4167
  142MOL0     C19075  10.056   1.241  -0.388  0.1418  0.5440  0.4656
  142MOL0     C19076  10.136   1.133  -0.335 -0.2349 -0.1414  0.3786
  142MOL0     C19077  10.101   1.099  -0.185 -0.3648 -0.9544  0.7215
  142MOL0     C19078  10.205   1.013  -0.114 -1.3389  0.4943  0.5566
  142MOL0     C19079  10.303   1.097  -0.037 -0.6165 -0.1911 -0.1045
  142MOL0    Cl19080  10.224   1.180   0.110 -0.2878 -0.0729 -0.4647
  142MOL0     C19081   9.838   1.875  -0.432 -0.0794  0.2348 -0.2952
  142MOL0     C19082   9.811   2.010  -0.395  0.4950 -0.0291  0.5778
  142MOL0     O19083   9.661   2.242  -0.279  0.0493  0.4282  0.0753
  142MOL0     C19084   9.676   2.493  -0.170 -0.1663  0.4707 -0.3325
  142MOL0     C19085   9.679   2.610  -0.100  0.0023 -0.1307  0.4435
  142MOL0     N19086  10.063   3.404   0.261  0.0941  0.5257 -0.0791
  142MOL0     N19087  10.166   3.442   0.318  0.3055  0.3164  0.2479
  142MOL0     C19088  10.904   3.043   1.325  0.4719 -0.0328  0.2544
  142MOL0     C19089  11.034   3.028   1.283 -0.5020  0.0566 -0.4513
  142MOL0     C19090  11.397   3.063   1.050  0.1148 -1.3103  0.5304
  142MOL0     C19091  11.434   2.977   0.947 -0.1893  0.1497 -0.9488
  142MOL0     C19092  11.569   2.948   0.915 -0.3602 -0.1388 -0.5533
  142MOL0     C19093  11.674   3.024   0.973  0.0575  0.3698  0.0319
  142MOL0     O19094  11.803   3.027   0.943 -0.0493  0.6078 -0.0080
  142MOL0     C19095  11.856   2.933   0.846  0.1184 -0.2310 -0.5085
  142MOL0     C19096  11.922   2.822   0.930  0.5753 -0.0505 -0.5011
  142MOL0     C19097  12.025   2.887   1.021  0.7255  1.4239 -0.5129
  142MOL0     C19098  12.103   2.797   1.108 -0.5987 -0.2285  0.4596
  142MOL0     C19099  12.198   2.889   1.168  0.4351  0.1676 -0.7979
  142MOL0     C19100  12.281   2.959   1.213  0.4928  0.8138  0.4428
  142MOL0     C19101  11.637   3.111   1.075 -0.1480 -1.0997  1.0398
  142MOL0     C19102  11.500   3.142   1.111  0.3049  0.1100 -0.3098
  142MOL0     H19103  11.129   3.355   1.275 -0.6220  0.4847  0.7567
  142MOL0     H19104  10.882   3.386   1.297  2.2805  2.2707  0.8596
  142MOL0     H19105  10.524   3.258   1.302 -1.8803  2.2295 -5.3829
  142MOL0     H19106  10.658   3.364   1.284 -1.4652 -0.3206  1.5578
  142MOL0     H19107  10.753   3.234   1.099  1.0655  0.0458  1.6206
  142MOL0     H19108  10.623   3.108   1.119 -1.8707 -0.3151 -0.5882
  142MOL0     H19109  10.442   3.257   1.084 -0.0125  0.0044 -1.1685
  142MOL0     H19110  10.562   3.394   1.061  2.8191 -0.6571  0.5035
  142MOL0     H19111  10.658   3.270   0.861  1.3848 -3.9501  0.2351
  142MOL0     H19112  10.538   3.146   0.899 -0.1031  0.0297 -0.2857
  142MOL0     H19113  10.341   3.274   0.854  0.1812 -1.6124 -1.6791
  142MOL0     H19114  10.456   3.423   0.859 -1.0987  0.5914 -0.0862
  142MOL0     H19115  10.547   3.363   0.650 -2.6989 -0.0126 -3.1009
  142MOL0     H19116  10.467   3.208   0.653  0.0271 -0.9657  1.3048
  142MOL0     H19117  10.260   3.357   0.632  0.8939 -2.3846  1.5445
  142MOL0     H19118  10.364   3.501   0.630  0.9236  1.0974 -1.9332
  142MOL0     H19119  10.416   3.275   0.419 -3.0308 -1.3227 -0.1123
  142MOL0     H19120  10.412   3.447   0.403 -0.4678 -0.9446 -0.3995
  142MOL0     H19121  10.164   3.141   0.436  0.0467 -0.0965 -0.2339
  142MOL0     H19122   9.908   3.131   0.388  0.8179 -1.4851 -0.2496
  142MOL0     H19123   9.839   3.216   0.253  0.3493 -0.3559 -0.0913
  142MOL0     H19124  10.049   2.999   0.247  0.8222  1.1262  0.4562
  142MOL0     H19125  10.011   3.104   0.101 -0.1654 -2.8102 -1.4080
  142MOL0     H19126   9.783   3.031   0.105  0.8996 -0.3105 -2.2887
  142MOL0     H19127   9.811   2.936   0.255  0.6487  1.2894  0.2757
  142MOL0     H19128   9.969   2.798   0.131  1.1742  1.4978  0.0711
  142MOL0     H19129   9.952   2.889  -0.023  1.1366  2.1710  1.2085
  142MOL0     H19130  10.010   2.656  -0.080 -0.4778  0.4624  2.5462
  142MOL0     H19131  10.086   2.362  -0.196  0.0329  0.0942 -0.6977
  142MOL0     H19132  10.040   2.426  -0.355 -0.3763  0.1322  0.7380
  142MOL0     H19133  10.135   2.523  -0.239 -0.6436  1.3309  2.3188
  142MOL0     H19134  10.115   2.127  -0.337 -0.6925  1.5779  0.2471
  142MOL0     H19135  10.181   1.907  -0.412 -0.9786 -2.2486 -2.2050
  142MOL0     H19136  10.171   1.641  -0.390  0.2392 -1.2547 -2.2567
  142MOL0     H19137  10.017   1.639  -0.283 -1.8218  0.2429 -0.2819
  142MOL0     H19138   9.924   1.476  -0.429 -0.4471 -2.2394 -0.7046
  142MOL0     H19139  10.051   1.483  -0.545 -1.8520  3.7325 -0.1708
  142MOL0     H19140  10.080   1.404  -0.247  3.5810 -0.2109  1.0518
  142MOL0     H19141  10.207   1.388  -0.370  0.7077 -1.6491  0.2371
  142MOL0     H19142   9.954   1.224  -0.352  0.4063 -3.4843 -0.2363
  142MOL0     H19143  10.069   1.235  -0.497 -2.2472 -2.2914  0.2257
  142MOL0     H19144  10.240   1.167  -0.340 -0.5069  0.8978  1.3301
  142MOL0     H19145  10.135   1.035  -0.383  4.0640  0.3354 -1.1593
  142MOL0     H19146  10.084   1.185  -0.119  2.6514  0.8148 -0.5897
  142MOL0     H19147  10.014   1.035  -0.171 -0.1702 -1.4585 -0.3357
  142MOL0     H19148  10.269   0.968  -0.190  0.0602 -1.0688  2.5308
  142MOL0     H19149  10.153   0.945  -0.046 -1.0725  0.2913  0.5578
  142MOL0     H19150  10.349   1.170  -0.103  1.5714 -0.8009  0.6483
  142MOL0     H19151  10.378   1.027   0.002 -0.3739 -0.8377 -1.6659
  142MOL0     H19152   9.765   1.801  -0.460 -0.8773  1.5383 -1.8147
  142MOL0     H19153   9.708   2.041  -0.400 -1.1665 -4.3085  2.6842
  142MOL0     H19154   9.582   2.444  -0.191  1.3908 -2.5213 -0.9496
  142MOL0     H19155   9.583   2.651  -0.071 -1.8258 -4.5160  1.4411
  142MOL0     H19156  10.845   2.958   1.356  3.0356 -1.5956  1.1310
  142MOL0     H19157  11.080   2.932   1.262 -0.6893 -0.2374  0.4591
  142MOL0     H19158  11.365   2.910   0.896  2.1720 -1.7950 -1.7922
  142MOL0     H19159  11.581   2.875   0.835  0.9720 -0.6001  0.0441
  142MOL0     H19160  11.775   2.886   0.789 -0.9499  0.3700  0.4740
  142MOL0     H19161  11.921   2.984   0.774 -0.0362  0.5863 -0.0825
  142MOL0     H19162  11.960   2.748   0.859  1.1743  0.9586 -1.2677
  142MOL0     H19163  11.839   2.787   0.992 -0.2774  1.1374 -0.9166
  142MOL0     H19164  11.978   2.955   1.093  2.1959 -1.5487  3.6111
  142MOL0     H19165  12.089   2.948   0.956  0.7138  0.5955 -1.3249
  142MOL0     H19166  12.150   2.722   1.043  1.6913  2.1689 -0.8821
  142MOL0     H19167  12.037   2.756   1.184 -3.0281  0.9745 -0.8958
  142MOL0     H19168  12.363   3.019   1.250  2.6038 -1.2392 -0.6366
  142MOL0     H19169  11.705   3.178   1.127 -0.8109  1.1225 -0.8047
  142MOL0     H19170  11.477   3.223   1.180 -0.5176  0.3281 -0.8311
  143MOL0     O19171   5.079   0.107   1.651  0.2723 -0.4770  0.1392
  143MOL0     C19172   5.144   0.065   1.552 -0.3284 -0.4675  0.3817
  143MOL0     O19173   5.087   0.015   1.435  0.0539 -0.0013  0.4538
  143MOL0     C19174   4.949  -0.019   1.434  0.3959  0.5370  0.2586
  143MOL0     C19175   4.840   0.057   1.487 -0.1349 -0.3806  0.3701
  143MOL0     C19176   4.709   0.009   1.479  0.4088  0.1363  0.0811
  143MOL0     C19177   4.686  -0.113   1.425  0.6840  0.3166 -0.1338
  143MOL0     O19178   4.555  -0.147   1.417 -0.0313 -0.1860  0.0704
  143MOL0     C19179   4.523  -0.282   1.376 -0.4010 -0.1140  0.4690
  143MOL0     C19180   4.401  -0.342   1.443 -0.2858 -0.1070  1.0054
  143MOL0     C19181   4.275  -0.252   1.417 -0.3522 -0.3749  0.8783
  143MOL0     C19182   4.159  -0.298   1.505  0.8542  0.0377 -0.2774
  143MOL0     C19183   4.028  -0.223   1.463  0.0687  0.3484  0.1753
  143MOL0     C19184   3.897  -0.300   1.503 -0.0626 -0.0683 -0.7817
  143MOL0     C19185   3.773  -0.217   1.482 -0.2702  0.5186 -0.8910
  143MOL0     C19186   3.656  -0.315   1.502  0.0073 -0.5708  0.3837
  143MOL0     N19187   3.534  -0.255   1.447 -1.0026  0.9001  0.0502
  143MOL0     C19188   3.413  -0.239   1.513  0.3453 -0.9544  0.0363
  143MOL0     C19189   3.329  -0.184   1.419  0.3214  0.0709 -0.1384
  143MOL0     C19190   3.191  -0.145   1.467 -0.5598  0.3803  0.0699
  143MOL0     C19191   3.086  -0.251   1.456  0.1337 -0.5012  0.1190
  143MOL0     C19192   2.955  -0.179   1.469  0.5859 -0.4838 -0.1638
  143MOL0     C19193   2.833  -0.269   1.485 -1.0473  0.1629 -0.2392
  143MOL0     O19194   2.717  -0.189   1.486  0.4760 -0.1000 -0.5635
  143MOL0     C19195   2.594  -0.254   1.493 -0.2270 -0.0559 -0.2554
  143MOL0     C19196   2.476  -0.177   1.478  0.7151 -0.5160  0.2239
  143MOL0     C19197   2.347  -0.221   1.489  0.1529  0.2368  0.2934
  143MOL0     C19198   2.239  -0.115   1.468  0.3961  0.7317  0.3229
  143MOL0     C19199   2.329  -0.359   1.518  0.4847 -0.1636 -1.0523
  143MOL0     C19200   2.189  -0.418   1.536 -0.4941  0.5219 -1.4922
  143MOL0     O19201   2.183  -0.557   1.541 -0.7422 -0.1083 -0.8913
  143MOL0     C19202   2.063  -0.608   1.529 -0.1456 -0.4877 -0.2525
  143MOL0     C19203   1.981  -0.635   1.630 -0.2422 -1.0492 -1.0761
  143MOL0     C19204   1.851  -0.681   1.616  0.6610 -0.0264  0.0864
  143MOL0     C19205   1.795  -0.705   1.485 -1.2089  0.2208 -0.0961
  143MOL0     O19206   1.669  -0.752   1.463 -0.3977 -0.5642  0.0430
  143MOL0     C19207   1.561  -0.694   1.558  0.3118  0.5022  0.5572
  143MOL0     C19208   1.421  -0.742   1.499 -0.0452  0.2027  0.2210
  143MOL0     C19209   1.394  -0.887   1.473 -0.7157 -0.2823  0.1135
  143MOL0     C19210   1.251  -0.923   1.429 -0.3590 -0.7268  0.3120
  143MOL0     C19211   1.236  -1.064   1.390  0.9578 -0.1216 -0.1420
  143MOL0     C19212   1.097  -1.112   1.365  0.1751  0.1428 -0.2585
  143MOL0     C19213   1.104  -1.249   1.287 -0.1372 -0.1349 -0.2223
  143MOL0     C19214   1.155  -1.358   1.382  0.8578 -0.1035  1.2787
  143MOL0    Cl19215   1.048  -1.376   1.517 -0.2260  0.4397  0.1276
  143MOL0     C19216   1.886  -0.684   1.379  0.5153 -0.1156  0.4146
  143MOL0     C19217   2.017  -0.636   1.401  0.1121  0.2592  0.2852
  143MOL0     O19218   2.097  -0.340   1.563  0.1400 -0.2014  0.1797
  143MOL0     C19219   2.443  -0.445   1.526 -0.1554 -0.7121 -0.0100
  143MOL0     C19220   2.576  -0.388   1.515 -0.3425 -0.3903 -0.7065
  143MOL0     N19221   3.394  -0.176   1.295  0.1855 -0.6736 -0.7992
  143MOL0     N19222   3.507  -0.241   1.313 -0.1698  0.8665  0.0393
  143MOL0     C19223   4.790  -0.182   1.369  0.0945 -1.0901  0.0182
  143MOL0     C19224   4.919  -0.132   1.363 -0.1693  0.6189 -0.2161
  143MOL0     C19225   5.292   0.068   1.559 -0.1936 -0.5440 -0.1563
  143MOL0     C19226   5.364   0.074   1.684 -0.3001  0.1328  1.4084
  143MOL0     C19227   5.504   0.089   1.685  0.6011 -0.3556  0.8345
  143MOL0     C19228   5.580   0.085   1.572 -0.0460 -0.7144 -0.2044
  143MOL0     O19229   5.715   0.090   1.596  0.0265  0.7452  0.7082
  143MOL0     C19230   5.807   0.087   1.493 -0.2239 -0.2956  0.7494
  143MOL0     C19231   5.945   0.074   1.556  0.7030  1.1708 -0.3450
  143MOL0     C19232   6.060   0.029   1.473 -0.2056 -0.3242 -0.1786
  143MOL0     C19233   6.184   0.035   1.556  1.0785  0.8593 -0.1353
  143MOL0     C19234   6.198  -0.057   1.661  0.2747  0.4040 -0.0912
  143MOL0     C19235   6.199  -0.139   1.752  0.2620 -0.4086  0.7417
  143MOL0     C19236   5.513   0.073   1.448 -0.0424 -0.7606 -0.3351
  143MOL0     C19237   5.373   0.066   1.446 -0.3378  0.3369  0.7267
  143MOL0     H19238   4.856   0.154   1.533 -2.2067  1.9686 -3.4221
  143MOL0     H19239   4.627   0.062   1.526  0.7031  1.3151 -0.7018
  143MOL0     H19240   4.515  -0.287   1.267 -0.4157  3.6428  0.1826
  143MOL0     H19241   4.606  -0.347   1.404  2.1982  3.2447  1.2343
  143MOL0     H19242   4.385  -0.437   1.390 -1.3894  0.3403  0.5157
  143MOL0     H19243   4.427  -0.360   1.548  2.9843  1.0067  0.5034
  143MOL0     H19244   4.282  -0.146   1.443  1.0980 -0.9339  3.0517
  143MOL0     H19245   4.261  -0.269   1.310  1.6321  1.9519  0.1576
  143MOL0     H19246   4.143  -0.404   1.485  2.7843 -0.3287 -0.0192
  143MOL0     H19247   4.175  -0.278   1.611  1.0187 -1.0658 -0.0780
  143MOL0     H19248   4.028  -0.124   1.507 -1.0950 -0.2275  1.5524
  143MOL0     H19249   4.040  -0.211   1.355  0.8120  2.5445  0.4679
  143MOL0     H19250   3.901  -0.387   1.436  1.9096  1.5021 -2.8183
  143MOL0     H19251   3.908  -0.323   1.609 -0.2267 -0.8340 -0.9209
  143MOL0     H19252   3.756  -0.131   1.547 -0.1454 -1.8895  2.6171
  143MOL0     H19253   3.778  -0.187   1.377 -1.7116  0.0480 -1.1048
  143MOL0     H19254   3.643  -0.330   1.610 -0.1318 -1.4882  0.2502
  143MOL0     H19255   3.674  -0.404   1.442  0.5053 -0.1951 -0.0372
  143MOL0     H19256   3.386  -0.252   1.617  1.5355 -0.5296  0.4146
  143MOL0     H19257   3.199  -0.113   1.571 -2.2331  0.7738  0.1036
  143MOL0     H19258   3.158  -0.055   1.414  1.4389  0.6737 -0.7865
  143MOL0     H19259   3.088  -0.320   1.541 -1.7463 -1.1233 -0.2950
  143MOL0     H19260   3.107  -0.312   1.367  1.3391 -0.0371  0.0575
  143MOL0     H19261   2.936  -0.131   1.372 -0.0333  0.1153  0.2523
  143MOL0     H19262   2.957  -0.109   1.552  0.4737  0.0373 -0.5930
  143MOL0     H19263   2.841  -0.310   1.586 -1.2974 -0.9504 -0.6597
  143MOL0     H19264   2.831  -0.348   1.410 -2.2088 -0.1124  0.0619
  143MOL0     H19265   2.503  -0.074   1.456  1.5933 -1.1887 -2.2240
  143MOL0     H19266   2.191  -0.085   1.562 -1.4136  0.3580 -0.4420
  143MOL0     H19267   2.270  -0.023   1.418 -2.1798  2.1495  1.1271
  143MOL0     H19268   2.151  -0.154   1.416  0.4111  1.8225 -0.5547
  143MOL0     H19269   2.012  -0.610   1.731 -2.2667  0.3180 -0.7151
  143MOL0     H19270   1.793  -0.686   1.707  2.3670 -1.7274  1.1558
  143MOL0     H19271   1.562  -0.741   1.657 -3.6387 -1.8409 -0.3063
  143MOL0     H19272   1.563  -0.586   1.570 -3.3678  0.8141 -0.5509
  143MOL0     H19273   1.348  -0.701   1.569  0.6902  3.3934 -0.7109
  143MOL0     H19274   1.407  -0.680   1.410  0.7789  0.7708  0.4651
  143MOL0     H19275   1.413  -0.945   1.564  0.2471  1.5065  1.0971
  143MOL0     H19276   1.473  -0.913   1.402  0.7014  1.6641  0.8807
  143MOL0     H19277   1.179  -0.893   1.506  1.8721  1.5969  1.6530
  143MOL0     H19278   1.225  -0.863   1.341 -1.5518 -0.9982  0.4628
  143MOL0     H19279   1.278  -1.125   1.471  0.5625 -0.2877 -0.0602
  143MOL0     H19280   1.303  -1.072   1.305  0.2200 -1.5383 -0.6164
  143MOL0     H19281   1.046  -1.127   1.460  1.1028 -2.1156 -0.0475
  143MOL0     H19282   1.047  -1.042   1.298  1.0037 -0.7009 -1.8200
  143MOL0     H19283   1.172  -1.232   1.203 -1.7019  0.6471 -1.3829
  143MOL0     H19284   1.005  -1.271   1.246 -0.3768 -1.6761  1.0976
  143MOL0     H19285   1.258  -1.342   1.417  1.5124  0.0196 -0.6111
  143MOL0     H19286   1.156  -1.450   1.323  0.9988  3.6531 -5.5743
  143MOL0     H19287   1.841  -0.696   1.281 -3.1098 -0.0944  1.9302
  143MOL0     H19288   2.088  -0.613   1.322 -0.1286 -1.2765 -0.4182
  143MOL0     H19289   2.430  -0.552   1.534 -0.9558 -0.7728 -1.8411
  143MOL0     H19290   2.666  -0.449   1.505 -0.9367 -1.1347 -1.6349
  143MOL0     H19291   4.763  -0.266   1.306 -0.1199 -1.3367  0.4402
  143MOL0     H19292   4.997  -0.182   1.307 -1.9840  1.3100 -3.6441
  143MOL0     H19293   5.298   0.074   1.770 -2.6602 -0.5322 -0.2799
  143MOL0     H19294   5.549   0.120   1.779 -0.7427  4.5633  0.0938
  143MOL0     H19295   5.779  -0.004   1.439 -3.5336  0.4372  0.9847
  143MOL0     H19296   5.800   0.170   1.422  2.2565 -0.5070  0.1726
  143MOL0     H19297   5.937   0.007   1.643  2.0337  2.4323  0.8032
  143MOL0     H19298   5.967   0.169   1.606  0.1082  0.4905  1.3080
  143MOL0     H19299   6.072   0.100   1.390 -0.0994 -0.9354 -0.6947
  143MOL0     H19300   6.039  -0.065   1.421  3.0914 -0.9304 -0.6660
  143MOL0     H19301   6.196   0.134   1.600  2.7694 -0.4538  2.6687
  143MOL0     H19302   6.269   0.024   1.488  1.4956  1.2640  0.3082
  143MOL0     H19303   6.214  -0.210   1.831 -0.5127  2.8747  4.1220
  143MOL0     H19304   5.578   0.068   1.361  1.7725  2.7454  0.6278
  143MOL0     H19305   5.321   0.040   1.354  1.3044 -3.8155  0.7603
  144MOL0     O19306   0.373   6.914  10.825 -0.3812  0.3766  0.5721
  144MOL0     C19307   0.372   6.986  10.922  0.6628 -0.4931 -0.8158
  144MOL0     O19308   0.261   7.045  10.981  0.1312 -0.6973  0.7808
  144MOL0     C19309   0.130   7.026  10.925  0.0994 -0.1646  0.6550
  144MOL0     C19310   0.036   7.128  10.959 -0.0193 -0.2747 -0.0661
  144MOL0     C19311  -0.100   7.117  10.927 -0.2126  0.0016 -0.5515
  144MOL0     C19312  -0.143   6.994  10.869 -0.5043 -0.5036 -0.2689
  144MOL0     O19313  -0.268   6.968  10.836 -0.3256  0.0715 -0.2538
  144MOL0     C19314  -0.355   7.081  10.826  0.4325 -0.2654 -0.1116
  144MOL0     C19315  -0.486   7.036  10.770  0.5919 -0.4451  0.8008
  144MOL0     C19316  -0.585   7.157  10.724  1.0785 -0.2802 -0.5439
  144MOL0     C19317  -0.722   7.103  10.673 -0.2088 -1.3051 -0.4649
  144MOL0     C19318  -0.711   6.992  10.559  0.4149 -0.3740  0.2775
  144MOL0     C19319  -0.855   6.956  10.519 -0.4578 -0.6099 -0.2564
  144MOL0     C19320  -0.928   7.058  10.431  0.2442 -0.3249  0.0952
  144MOL0     C19321  -1.068   6.991  10.415 -0.7970 -0.0396 -1.0263
  144MOL0     N19322  -1.154   7.070  10.326  0.1951 -0.0945 -1.3438
  144MOL0     C19323  -1.265   7.140  10.367 -0.3275  0.2400  0.2441
  144MOL0     C19324  -1.323   7.193  10.256  0.3655  0.7768  0.6019
  144MOL0     C19325  -1.445   7.282  10.238  0.0047  0.0041 -0.0639
  144MOL0     C19326  -1.578   7.224  10.200  0.4153  0.6058  0.5890
  144MOL0     C19327  -1.693   7.322  10.177 -0.8134  0.6479 -0.3238
  144MOL0     C19328  -1.822   7.247  10.161 -0.9036 -0.7647 -0.1240
  144MOL0     O19329  -1.891   7.214  10.293  0.4723  0.2430  0.4878
  144MOL0     C19330  -2.023   7.179  10.268 -0.8413 -1.1625 -0.5839
  144MOL0     C19331  -2.123   7.214  10.361 -0.4396  0.1655 -0.1831
  144MOL0     C19332  -2.258   7.190  10.336  0.2581  0.2038 -0.3805
  144MOL0     C19333  -2.356   7.228  10.445 -0.3333 -0.0845  0.7231
  144MOL0     C19334  -2.299   7.123  10.219  0.4977 -0.1036  1.3526
  144MOL0     C19335  -2.439   7.120  10.172 -0.3395 -0.3661  0.4082
  144MOL0     O19336  -2.524   7.223  10.213  0.2381 -0.1340 -0.6238
  144MOL0     C19337  -2.658   7.200  10.183 -0.0415  0.1592 -0.2487
  144MOL0     C19338  -2.725   7.123  10.279  1.0060 -0.4107  0.2225
  144MOL0     C19339  -2.864   7.101  10.253 -0.2435  0.1096 -0.4706
  144MOL0     C19340  -2.934   7.165  10.150  0.0768 -0.6169  0.3255
  144MOL0     O19341  -3.075   7.150  10.145 -0.1649 -0.5289  0.2903
  144MOL0     C19342  -3.146   7.161  10.016 -0.7830 -0.5207 -1.3179
  144MOL0     C19343  -3.289   7.121  10.027 -0.5749  0.5076 -0.5276
  144MOL0     C19344  -3.374   7.160   9.915  0.1249  0.0540 -0.0468
  144MOL0     C19345  -3.356   7.068   9.793 -0.0468 -0.9213  0.1896
  144MOL0     C19346  -3.462   7.101   9.684 -0.3135  1.1627 -0.2005
  144MOL0     C19347  -3.612   7.083   9.722 -0.8274  0.0508 -0.4430
  144MOL0     C19348  -3.653   6.935   9.734 -0.4462 -0.2272  0.2124
  144MOL0     C19349  -3.749   6.895   9.857 -0.0027 -0.5622 -0.3866
  144MOL0    Cl19350  -3.890   7.014   9.859  0.1287 -0.7329 -0.2865
  144MOL0     C19351  -2.866   7.247  10.062 -0.2657  0.1337  0.2385
  144MOL0     C19352  -2.729   7.260  10.078 -0.3808 -0.1316  0.0096
  144MOL0     O19353  -2.471   7.023  10.108  0.2114 -0.2251  0.1572
  144MOL0     C19354  -2.194   7.082  10.130  0.1509 -0.0765 -0.6007
  144MOL0     C19355  -2.061   7.103  10.163 -0.2268  0.2473 -0.2700
  144MOL0     N19356  -1.237   7.160  10.149  0.3789  0.4019  0.3203
  144MOL0     N19357  -1.141   7.088  10.191  0.1825  1.0231  0.3639
  144MOL0     C19358  -0.049   6.893  10.840 -0.0489  0.0431 -0.2036
  144MOL0     C19359   0.092   6.905  10.858  0.5022 -0.6500  0.5481
  144MOL0     C19360   0.502   7.004  10.981 -0.5810 -0.1192  0.0488
  144MOL0     C19361   0.513   7.086  11.100 -0.1604  0.5222  0.5484
  144MOL0     C19362   0.640   7.121  11.146 -0.1020  0.4189  0.2252
  144MOL0     C19363   0.761   7.064  11.096  0.3743 -0.1285  0.6335
  144MOL0     O19364   0.883   7.105  11.129 -0.3234  0.3347 -0.6820
  144MOL0     C19365   0.899   7.172  11.257  1.3202  0.5652 -0.2238
  144MOL0     C19366   1.037   7.243  11.278 -0.1451 -0.3371  0.8250
  144MOL0     C19367   1.059   7.297  11.420  0.4101  1.1195  0.3947
  144MOL0     C19368   0.978   7.417  11.461 -0.1281 -0.3555  0.4083
  144MOL0     C19369   0.990   7.441  11.609  0.3270  0.2372  1.2499
  144MOL0     C19370   0.999   7.435  11.725  0.2597  0.4463  0.3228
  144MOL0     C19371   0.747   6.971  10.996 -0.7857 -0.0663 -0.1684
  144MOL0     C19372   0.621   6.939  10.937  0.0997  0.0195 -0.9917
  144MOL0     H19373   0.064   7.218  11.013 -1.0326  0.4107 -0.6514
  144MOL0     H19374  -0.163   7.192  10.974 -0.0043 -0.5507  0.6599
  144MOL0     H19375  -0.385   7.128  10.920 -1.1242  0.3667 -0.8788
  144MOL0     H19376  -0.314   7.154  10.755 -1.3642  2.3600  1.3594
  144MOL0     H19377  -0.471   6.974  10.682 -0.1684 -0.7080  0.8511
  144MOL0     H19378  -0.534   6.962  10.834 -0.1565 -0.6800 -0.0266
  144MOL0     H19379  -0.603   7.229  10.804 -3.1099 -0.8213 -0.8002
  144MOL0     H19380  -0.546   7.212  10.638 -0.3690  0.1775 -0.9340
  144MOL0     H19381  -0.780   7.071  10.760  0.2793  0.0811  0.4128
  144MOL0     H19382  -0.772   7.190  10.629  0.0189  0.1928  2.0082
  144MOL0     H19383  -0.670   7.047  10.474 -1.0916  1.6135  0.7597
  144MOL0     H19384  -0.648   6.905  10.581  1.2624  0.6121  2.0420
  144MOL0     H19385  -0.849   6.865  10.458 -1.2269 -0.3178 -0.7749
  144MOL0     H19386  -0.913   6.936  10.609 -2.0034  1.4736 -0.7145
  144MOL0     H19387  -0.933   7.158  10.477  1.3782 -0.3002  0.1908
  144MOL0     H19388  -0.873   7.064  10.336  1.1128 -1.5561  0.5017
  144MOL0     H19389  -1.114   6.992  10.514  1.9278  2.1243  0.3743
  144MOL0     H19390  -1.055   6.889  10.379 -1.3509 -0.1114 -1.0320
  144MOL0     H19391  -1.301   7.142  10.469 -1.7298  1.4674 -0.2309
  144MOL0     H19392  -1.459   7.339  10.330  0.0201  1.7534 -1.0807
  144MOL0     H19393  -1.418   7.353  10.159 -2.3336  1.1460  0.0927
  144MOL0     H19394  -1.608   7.151  10.276 -0.5418  0.9801  0.5938
  144MOL0     H19395  -1.568   7.175  10.103  0.8527  0.4913  0.6932
  144MOL0     H19396  -1.671   7.376  10.084  3.1760 -0.8046 -0.4413
  144MOL0     H19397  -1.702   7.390  10.262 -1.4158 -0.0208  0.1555
  144MOL0     H19398  -1.805   7.148  10.116  3.9956 -1.7426  3.0547
  144MOL0     H19399  -1.888   7.309  10.101 -1.3609 -1.3772 -0.2604
  144MOL0     H19400  -2.088   7.257  10.454  0.6835  1.0248 -0.9864
  144MOL0     H19401  -2.397   7.329  10.431  1.4542  0.7337  1.1760
  144MOL0     H19402  -2.437   7.155  10.455  0.6228 -1.1153  0.9972
  144MOL0     H19403  -2.313   7.230  10.545 -2.3155  0.2047  1.6152
  144MOL0     H19404  -2.676   7.066  10.358  0.0647 -1.0946  0.3313
  144MOL0     H19405  -2.900   7.030  10.327  3.7378 -2.1980 -0.4800
  144MOL0     H19406  -3.147   7.267   9.988  0.2450  0.0478  0.6167
  144MOL0     H19407  -3.092   7.101   9.942 -0.8830 -2.6161  0.2274
  144MOL0     H19408  -3.303   7.013  10.040  0.5131  0.2321 -1.4318
  144MOL0     H19409  -3.329   7.172  10.114 -1.5513 -4.0654  2.0596
  144MOL0     H19410  -3.352   7.266   9.903 -0.7325  0.4464  1.5084
  144MOL0     H19411  -3.480   7.157   9.944 -0.1528 -4.4059 -0.8059
  144MOL0     H19412  -3.256   7.085   9.751 -0.3878  0.9371  0.0098
  144MOL0     H19413  -3.354   6.963   9.820  1.9083 -1.2994 -1.1986
  144MOL0     H19414  -3.431   7.040   9.598  0.8295 -1.3156  1.8466
  144MOL0     H19415  -3.437   7.205   9.660  0.1633  0.7687 -1.5341
  144MOL0     H19416  -3.640   7.133   9.815 -2.1947 -1.1830 -0.1474
  144MOL0     H19417  -3.674   7.122   9.641  0.2433 -0.9979 -1.8132
  144MOL0     H19418  -3.564   6.871   9.731 -0.4490 -0.4058  2.6727
  144MOL0     H19419  -3.713   6.921   9.643  0.1195 -2.9829  0.1716
  144MOL0     H19420  -3.709   6.882   9.958  0.8113 -0.6949 -0.7196
  144MOL0     H19421  -3.789   6.798   9.827 -0.7195  0.5541 -3.3818
  144MOL0     H19422  -2.914   7.296   9.978  2.1345  0.3050 -1.1251
  144MOL0     H19423  -2.683   7.326  10.005 -0.9991 -1.0467 -1.2292
  144MOL0     H19424  -2.215   7.041  10.032  0.3039 -1.8154  0.0570
  144MOL0     H19425  -1.983   7.054  10.105  0.5649 -1.5685  2.1323
  144MOL0     H19426  -0.093   6.806  10.792 -2.0149  0.0596  1.4358
  144MOL0     H19427   0.164   6.826  10.842  0.6624 -0.3580 -0.2064
  144MOL0     H19428   0.425   7.128  11.148  0.7975  1.4760  1.5353
  144MOL0     H19429   0.640   7.193  11.227  0.3647 -0.3387  0.9168
  144MOL0     H19430   0.835   7.260  11.263  0.8329  0.2374 -0.6272
  144MOL0     H19431   0.884   7.099  11.338 -1.4056  1.1534 -0.1299
  144MOL0     H19432   1.047   7.326  11.208 -0.0116 -0.9833  0.0526
  144MOL0     H19433   1.117   7.170  11.257 -1.6433 -1.7419 -0.2787
  144MOL0     H19434   1.166   7.319  11.418  1.6199 -3.2817  2.8877
  144MOL0     H19435   1.056   7.214  11.491  2.0723 -0.8592 -1.6916
  144MOL0     H19436   0.872   7.398  11.443  0.3292 -2.2276 -0.5401
  144MOL0     H19437   1.014   7.508  11.411  0.0718 -0.0987  1.0082
  144MOL0     H19438   1.025   7.434  11.829  0.2947  0.5670  0.3148
  144MOL0     H19439   0.838   6.931  10.952 -0.3598  0.6467  0.0432
  144MOL0     H19440   0.611   6.876  10.849 -2.2661 -0.9205 -0.1222
  145MOL0     O19441   5.930   7.453   1.540 -0.1403  0.1486  0.1647
  145MOL0     C19442   6.006   7.454   1.629  0.1700 -0.2991  0.3849
  145MOL0     O19443   5.993   7.378   1.740  0.2304  0.1281  0.4786
  145MOL0     C19444   5.907   7.276   1.741  0.1082 -0.7511  0.1121
  145MOL0     C19445   5.772   7.303   1.766  0.4128  0.0168 -0.3113
  145MOL0     C19446   5.678   7.202   1.768  0.2682  0.6580  0.7092
  145MOL0     C19447   5.724   7.068   1.747  0.2478 -0.5717  0.1437
  145MOL0     O19448   5.630   6.966   1.749 -0.0995 -0.6386  0.4456
  145MOL0     C19449   5.630   6.866   1.644 -0.2124  0.2549 -0.2240
  145MOL0     C19450   5.605   6.918   1.497  0.4709  0.2682  1.1833
  145MOL0     C19451   5.465   6.975   1.463 -0.2297 -1.0890  0.3837
  145MOL0     C19452   5.351   6.875   1.466  0.6103  0.0637  0.4485
  145MOL0     C19453   5.207   6.927   1.433  0.3457  0.8191 -0.0782
  145MOL0     C19454   5.096   6.820   1.396  0.1606 -0.2607 -0.9498
  145MOL0     C19455   4.965   6.913   1.374  0.1084 -0.6146  0.6445
  145MOL0     C19456   4.862   6.841   1.287 -0.1420  0.1709 -0.6815
  145MOL0     N19457   4.786   6.733   1.363 -0.5346 -1.0479 -0.2077
  145MOL0     C19458   4.690   6.741   1.461  0.2939 -0.6912 -0.0072
  145MOL0     C19459   4.639   6.615   1.474  0.7077 -0.7697  0.0453
  145MOL0     C19460   4.524   6.563   1.566 -0.3099 -0.0852 -0.8603
  145MOL0     C19461   4.391   6.588   1.504 -0.3896  0.8331 -0.2518
  145MOL0     C19462   4.291   6.522   1.593 -0.0327  0.7696  0.1460
  145MOL0     C19463   4.158   6.548   1.537 -0.2073  0.5937  0.0994
  145MOL0     O19464   4.059   6.496   1.623 -0.0763  0.5215 -0.0805
  145MOL0     C19465   3.942   6.573   1.629 -0.0546  0.0276  0.2248
  145MOL0     C19466   3.854   6.522   1.727  0.9476  0.4315  0.1199
  145MOL0     C19467   3.728   6.585   1.753  0.2159 -0.1522 -0.0181
  145MOL0     C19468   3.655   6.520   1.872  0.0839 -0.4083  0.4696
  145MOL0     C19469   3.690   6.703   1.680  0.0172 -0.0861 -0.3993
  145MOL0     C19470   3.560   6.777   1.690 -0.5408 -0.6276  0.1220
  145MOL0     O19471   3.542   6.898   1.621  0.3257 -0.1664 -0.1469
  145MOL0     C19472   3.416   6.942   1.629  0.0163  0.5475  0.1809
  145MOL0     C19473   3.311   6.888   1.549 -0.2787 -0.1031 -0.5722
  145MOL0     C19474   3.180   6.927   1.573  0.7612  0.0313  0.4970
  145MOL0     C19475   3.148   7.037   1.666  0.4854 -0.0120  0.6946
  145MOL0     O19476   3.019   7.076   1.676  0.2061  0.3317 -0.3788
  145MOL0     C19477   2.984   7.206   1.717  0.5579 -0.5872 -0.6006
  145MOL0     C19478   2.834   7.245   1.699  0.7283  0.0132  0.4444
  145MOL0     C19479   2.816   7.399   1.705 -0.8291  0.2305  0.2177
  145MOL0     C19480   2.669   7.434   1.693 -0.3476  0.0997  0.3645
  145MOL0     C19481   2.600   7.440   1.821  0.4386 -0.2427 -0.7676
  145MOL0     C19482   2.445   7.470   1.818  0.4266  0.6795 -1.0991
  145MOL0     C19483   2.370   7.431   1.950  0.4676  0.6877 -0.4373
  145MOL0     C19484   2.229   7.481   1.970 -0.4130 -0.5326  0.4266
  145MOL0    Cl19485   2.148   7.411   2.101 -0.0813 -0.1632  0.0745
  145MOL0     C19486   3.252   7.101   1.729 -0.0843 -0.2699 -0.2074
  145MOL0     C19487   3.384   7.053   1.713  0.8727 -0.0039 -0.6517
  145MOL0     O19488   3.485   6.749   1.785 -0.2777 -0.2155  0.6203
  145MOL0     C19489   3.772   6.740   1.575 -0.1721 -0.4711 -0.0184
  145MOL0     C19490   3.906   6.681   1.558  0.3590  0.0633  0.1766
  145MOL0     N19491   4.690   6.539   1.375 -0.6265 -0.7792  0.4143
  145MOL0     N19492   4.784   6.603   1.318 -0.7068 -0.2494 -0.5705
  145MOL0     C19493   5.861   7.039   1.722 -0.6566  0.2819  0.0294
  145MOL0     C19494   5.947   7.150   1.719 -1.3744  0.2725 -0.1361
  145MOL0     C19495   6.121   7.544   1.621 -0.0416 -0.4324  0.0948
  145MOL0     C19496   6.223   7.542   1.723  0.6046  0.7505  0.2323
  145MOL0     C19497   6.343   7.623   1.703  0.9241 -0.1367  0.7090
  145MOL0     C19498   6.362   7.710   1.594 -1.2598 -0.0461  0.0030
  145MOL0     O19499   6.489   7.775   1.584 -0.4944 -0.2973  0.4022
  145MOL0     C19500   6.520   7.855   1.468  0.4674 -0.4734  0.2886
  145MOL0     C19501   6.672   7.883   1.476  1.0010  0.3470 -0.1223
  145MOL0     C19502   6.710   7.959   1.606  0.1936  0.9565 -0.0690
  145MOL0     C19503   6.858   8.007   1.601 -0.1594 -0.0437 -0.5381
  145MOL0     C19504   6.873   8.107   1.715 -0.2307  0.2984  0.4255
  145MOL0     C19505   6.887   8.196   1.797 -0.3844 -0.1004  0.3080
  145MOL0     C19506   6.259   7.721   1.501  0.4904 -0.5040 -0.0585
  145MOL0     C19507   6.139   7.644   1.517 -1.1505  0.3676 -0.1542
  145MOL0     H19508   5.746   7.408   1.766 -1.1233 -0.3425 -0.1072
  145MOL0     H19509   5.570   7.215   1.768  0.3755  1.6968 -0.0218
  145MOL0     H19510   5.733   6.830   1.636  0.4045  2.1289 -2.0131
  145MOL0     H19511   5.552   6.794   1.666  0.0486  0.5245  1.7748
  145MOL0     H19512   5.667   7.003   1.469 -0.0589 -0.2004 -1.7680
  145MOL0     H19513   5.625   6.839   1.424 -1.1615 -0.3062  1.3127
  145MOL0     H19514   5.454   7.064   1.526  1.4079  1.1115 -2.2132
  145MOL0     H19515   5.464   7.024   1.366 -1.7682 -1.8704 -0.0198
  145MOL0     H19516   5.376   6.794   1.396 -1.6212 -0.7462  0.4887
  145MOL0     H19517   5.353   6.815   1.557  0.3903 -1.7115 -0.6536
  145MOL0     H19518   5.183   6.978   1.527  0.4111  1.3689 -0.3560
  145MOL0     H19519   5.216   7.003   1.355  1.4010  0.9736  0.1749
  145MOL0     H19520   5.114   6.766   1.303 -2.3183 -0.4434 -1.3709
  145MOL0     H19521   5.095   6.739   1.469 -0.5355  1.4110  1.0144
  145MOL0     H19522   4.925   6.948   1.469 -0.7770  1.7209 -0.5063
  145MOL0     H19523   5.001   7.002   1.321  0.9602 -0.8911  0.7495
  145MOL0     H19524   4.900   6.824   1.185 -0.6423  1.7215 -1.1552
  145MOL0     H19525   4.792   6.924   1.272  1.9464  1.8575 -1.7126
  145MOL0     H19526   4.685   6.821   1.535  0.2423  0.0985 -0.8562
  145MOL0     H19527   4.537   6.455   1.581  0.7443  0.1041 -0.2687
  145MOL0     H19528   4.535   6.606   1.666  1.6808 -0.4320 -0.8824
  145MOL0     H19529   4.389   6.549   1.402  1.4091  1.8878 -0.7297
  145MOL0     H19530   4.383   6.696   1.492  1.5848  1.0290 -0.1543
  145MOL0     H19531   4.283   6.575   1.688 -0.0894 -0.3236  0.7689
  145MOL0     H19532   4.318   6.417   1.606  1.6855  1.4700  2.9873
  145MOL0     H19533   4.158   6.505   1.437 -1.0577  0.6700  0.0542
  145MOL0     H19534   4.154   6.657   1.527  1.2733  0.9265  2.4100
  145MOL0     H19535   3.893   6.445   1.793  2.5804  2.0864  1.1905
  145MOL0     H19536   3.667   6.413   1.852  0.0156  0.0091 -2.1921
  145MOL0     H19537   3.683   6.545   1.975 -2.6866  2.5920  0.6559
  145MOL0     H19538   3.546   6.526   1.865  0.0420 -1.6261 -0.1663
  145MOL0     H19539   3.322   6.814   1.470 -1.7151 -1.3036  0.2969
  145MOL0     H19540   3.101   6.889   1.510  0.8504 -1.5632  1.2889
  145MOL0     H19541   3.010   7.217   1.823 -1.5828 -3.9525  0.4453
  145MOL0     H19542   3.042   7.276   1.657  2.6743 -1.3616  0.3955
  145MOL0     H19543   2.807   7.210   1.599  0.3762  1.1754  0.1228
  145MOL0     H19544   2.769   7.203   1.777 -0.6506  0.5354 -0.3810
  145MOL0     H19545   2.885   7.439   1.631  0.0908 -1.1726  0.2993
  145MOL0     H19546   2.849   7.432   1.804 -3.0615 -1.0384  1.4744
  145MOL0     H19547   2.662   7.529   1.638 -0.4775 -0.9844 -1.5714
  145MOL0     H19548   2.620   7.366   1.624  1.7993 -0.4603 -0.6835
  145MOL0     H19549   2.648   7.510   1.890 -2.5216 -1.5249  2.9013
  145MOL0     H19550   2.617   7.345   1.872 -0.1626  0.5306  0.9516
  145MOL0     H19551   2.421   7.574   1.792 -0.5145  0.7142 -0.1764
  145MOL0     H19552   2.408   7.409   1.735  0.2609  0.8282 -1.1374
  145MOL0     H19553   2.430   7.479   2.027 -0.0771  0.3834  0.1861
  145MOL0     H19554   2.363   7.322   1.956  0.5790  0.7506  1.7071
  145MOL0     H19555   2.161   7.457   1.888  0.1988  4.3092 -1.8881
  145MOL0     H19556   2.232   7.590   1.977 -3.1301 -0.4286  1.2958
  145MOL0     H19557   3.239   7.180   1.803  2.2094 -0.6043  0.6472
  145MOL0     H19558   3.462   7.100   1.772  1.1844 -2.4723  1.0917
  145MOL0     H19559   3.752   6.822   1.507  3.6029 -0.8218 -1.7773
  145MOL0     H19560   3.962   6.709   1.469  0.5094 -1.6884 -0.3051
  145MOL0     H19561   5.897   6.941   1.691  0.2420  0.8830 -0.8627
  145MOL0     H19562   6.052   7.137   1.695 -1.5772  0.9814 -1.5475
  145MOL0     H19563   6.214   7.491   1.818  1.6821 -0.2660 -0.2011
  145MOL0     H19564   6.418   7.609   1.780  1.8317  1.4056  0.1416
  145MOL0     H19565   6.504   7.814   1.368  1.9664  0.6021 -0.4504
  145MOL0     H19566   6.476   7.955   1.482  1.2441 -0.2399  1.1920
  145MOL0     H19567   6.704   7.948   1.394  0.0320 -1.5371 -2.0659
  145MOL0     H19568   6.730   7.792   1.461  1.1998  0.5267 -0.4532
  145MOL0     H19569   6.694   7.892   1.692  0.0439  0.7564 -0.2500
  145MOL0     H19570   6.641   8.043   1.606 -1.4114 -0.2839 -1.4483
  145MOL0     H19571   6.864   8.054   1.503 -1.0825 -0.3178 -0.7312
  145MOL0     H19572   6.929   7.924   1.599 -1.5586 -1.2678 -2.4563
  145MOL0     H19573   6.886   8.281   1.862  1.3471 -0.0814  0.3312
  145MOL0     H19574   6.251   7.791   1.418 -1.8345 -1.9054 -1.1185
  145MOL0     H19575   6.051   7.648   1.452 -1.4017 -0.3662  0.1217
  146MOL0     O19576   1.763   5.443  11.125  0.3110 -0.3638  0.6452
  146MOL0     C19577   1.786   5.415  11.010 -0.3303  0.7066  0.3531
  146MOL0     O19578   1.706   5.421  10.906  0.8658  0.4795  0.0615
  146MOL0     C19579   1.579   5.463  10.934  0.4252  0.3112  0.8387
  146MOL0     C19580   1.481   5.363  10.971  0.1488  0.0790 -0.7577
  146MOL0     C19581   1.345   5.398  10.981  0.4892 -1.1666  0.3609
  146MOL0     C19582   1.307   5.534  10.966 -0.9613 -0.2843  0.3058
  146MOL0     O19583   1.182   5.575  11.009  0.0583  0.0873 -0.2454
  146MOL0     C19584   1.069   5.483  10.998  0.0215  0.7653  0.7244
  146MOL0     C19585   0.942   5.546  11.067  0.7049  0.3209 -0.2065
  146MOL0     C19586   0.806   5.464  11.060  0.0594 -0.6928  0.3844
  146MOL0     C19587   0.818   5.338  11.137  0.5289  0.2570  0.0102
  146MOL0     C19588   0.672   5.294  11.178 -0.2217  0.4303  0.5233
  146MOL0     C19589   0.616   5.369  11.300  1.0344 -0.7431  0.1073
  146MOL0     C19590   0.461   5.390  11.287 -0.3918 -0.0028  0.2688
  146MOL0     C19591   0.434   5.528  11.218 -0.2557  0.9505  0.0049
  146MOL0     N19592   0.301   5.522  11.159  0.3025  0.5388  0.7826
  146MOL0     C19593   0.190   5.500  11.240  0.4277 -0.3569  0.1261
  146MOL0     C19594   0.087   5.513  11.149 -0.0613 -0.2066  0.2009
  146MOL0     C19595  -0.062   5.499  11.168 -0.7853 -0.2420 -0.4072
  146MOL0     C19596  -0.143   5.599  11.088 -0.0238 -0.7517 -0.1266
  146MOL0     C19597  -0.109   5.744  11.116 -0.4440 -0.1319  0.0739
  146MOL0     C19598  -0.213   5.829  11.032 -0.7578 -0.3929  0.2156
  146MOL0     O19599  -0.342   5.834  11.093 -0.3104  0.1999 -0.8796
  146MOL0     C19600  -0.440   5.902  11.030 -0.4201  0.2799  0.5696
  146MOL0     C19601  -0.567   5.891  11.074 -0.0099  0.7884 -0.1362
  146MOL0     C19602  -0.682   5.930  11.009 -0.0300 -0.3059 -0.2101
  146MOL0     C19603  -0.810   5.892  11.074  0.5418  0.2964  0.0750
  146MOL0     C19604  -0.668   5.994  10.888  0.6575 -0.5679  0.6745
  146MOL0     C19605  -0.780   6.039  10.813  0.6189  0.3114  0.5724
  146MOL0     O19606  -0.791   6.166  10.772  0.3036  0.1262 -0.0481
  146MOL0     C19607  -0.912   6.194  10.712  0.3527  0.4657  0.5020
  146MOL0     C19608  -0.913   6.198  10.568 -0.0856 -0.4554  0.1112
  146MOL0     C19609  -1.038   6.212  10.503 -0.1383  0.4622  0.6377
  146MOL0     C19610  -1.152   6.231  10.574  0.2501  0.1060 -1.1561
  146MOL0     O19611  -1.254   6.239  10.492  0.4335 -0.1601  0.5369
  146MOL0     C19612  -1.385   6.226  10.548  0.9542  0.2337 -0.2664
  146MOL0     C19613  -1.500   6.219  10.440 -0.8342 -0.6434  0.6916
  146MOL0     C19614  -1.625   6.152  10.488 -0.0417  0.6598  0.4513
  146MOL0     C19615  -1.731   6.153  10.374 -0.6593 -0.5099 -0.2616
  146MOL0     C19616  -1.809   6.286  10.380  0.4585 -0.0796  0.3049
  146MOL0     C19617  -1.915   6.290  10.272  0.0517  0.5311  0.4153
  146MOL0     C19618  -2.014   6.190  10.301  0.9489  1.0106 -0.4975
  146MOL0     C19619  -2.143   6.197  10.221  0.4562  1.2169  0.2797
  146MOL0    Cl19620  -2.233   6.344  10.213 -0.1252 -0.3720 -0.4370
  146MOL0     C19621  -1.152   6.246  10.718  0.7806  0.0827 -0.0552
  146MOL0     C19622  -1.032   6.220  10.786  0.4212 -0.1563  0.2740
  146MOL0     O19623  -0.870   5.955  10.808 -0.0349  0.0618 -0.7266
  146MOL0     C19624  -0.540   6.019  10.839 -1.0310 -0.2770  0.0695
  146MOL0     C19625  -0.425   5.972  10.909  0.0462 -0.6785  0.2460
  146MOL0     N19626   0.134   5.541  11.026  0.2980 -0.0223 -0.0870
  146MOL0     N19627   0.264   5.554  11.034  0.7368 -0.0656  0.4446
  146MOL0     C19628   1.408   5.635  10.955  0.0492 -0.2985 -0.4484
  146MOL0     C19629   1.543   5.597  10.934 -0.2654  0.7319  0.1928
  146MOL0     C19630   1.930   5.378  10.975  0.5278  0.9424  0.2113
  146MOL0     C19631   2.018   5.319  11.069 -0.1504  0.2725 -0.1685
  146MOL0     C19632   2.147   5.262  11.029 -0.0093 -0.4163 -0.4255
  146MOL0     C19633   2.184   5.262  10.895  0.0709  1.1477  0.1169
  146MOL0     O19634   2.310   5.218  10.860  0.0487 -0.3644 -0.1969
  146MOL0     C19635   2.354   5.211  10.721  0.5366  0.2169 -0.5605
  146MOL0     C19636   2.504   5.181  10.698 -0.5604 -0.3963 -0.2149
  146MOL0     C19637   2.531   5.030  10.703  0.0627 -0.4572  0.1249
  146MOL0     C19638   2.538   4.976  10.849 -0.0095  0.5096  0.7677
  146MOL0     C19639   2.583   4.836  10.859 -0.0959 -0.4553 -0.6634
  146MOL0     C19640   2.634   4.730  10.867 -0.3547  0.3306 -0.4191
  146MOL0     C19641   2.087   5.310  10.800  0.2352 -0.3930  0.3867
  146MOL0     C19642   1.972   5.370  10.837  0.3321 -0.0903 -0.4982
  146MOL0     H19643   1.514   5.262  10.993 -0.9478 -0.0542  0.3630
  146MOL0     H19644   1.281   5.316  11.014 -1.1485  0.8967  2.6442
  146MOL0     H19645   1.043   5.460  10.894  1.2270 -1.4763  0.8541
  146MOL0     H19646   1.088   5.385  11.043  0.5040  0.1932 -0.6525
  146MOL0     H19647   0.973   5.558  11.172  0.6083 -2.0987  0.1629
  146MOL0     H19648   0.917   5.644  11.026 -0.1807  0.0965 -0.2160
  146MOL0     H19649   0.723   5.526  11.095  1.5657  1.9297 -0.3654
  146MOL0     H19650   0.776   5.458  10.955  1.2858 -1.7783  0.0786
  146MOL0     H19651   0.857   5.260  11.070 -2.8121  1.0301 -3.1130
  146MOL0     H19652   0.876   5.360  11.227  0.1997  0.7723  0.0989
  146MOL0     H19653   0.613   5.299  11.086 -0.0910  0.1823  0.4246
  146MOL0     H19654   0.677   5.191  11.216 -2.4477 -0.7725 -2.1206
  146MOL0     H19655   0.645   5.300  11.379 -0.3433 -0.9730  0.4425
  146MOL0     H19656   0.673   5.458  11.327 -1.5850  0.9194  0.5487
  146MOL0     H19657   0.405   5.307  11.243  0.2612  0.3250 -1.2170
  146MOL0     H19658   0.432   5.402  11.392  1.7767 -0.1675  0.9364
  146MOL0     H19659   0.511   5.552  11.144  1.2866 -1.9566  0.4993
  146MOL0     H19660   0.436   5.603  11.297 -0.1201  1.0585 -0.1026
  146MOL0     H19661   0.174   5.486  11.346 -1.7650 -0.7842 -0.2074
  146MOL0     H19662  -0.093   5.399  11.137 -0.6088 -0.1078 -1.0325
  146MOL0     H19663  -0.084   5.513  11.274 -0.0960  0.9755 -0.4049
  146MOL0     H19664  -0.247   5.589  11.121  0.8532 -2.0501  2.5525
  146MOL0     H19665  -0.135   5.586  10.980  0.2939  2.1985 -0.5386
  146MOL0     H19666  -0.008   5.759  11.078 -0.6624 -0.3563 -0.6164
  146MOL0     H19667  -0.120   5.765  11.222 -0.4152 -0.4839  0.1475
  146MOL0     H19668  -0.234   5.790  10.932 -0.5936 -0.6295  0.2729
  146MOL0     H19669  -0.167   5.927  11.020  2.9556 -2.1549 -1.6316
  146MOL0     H19670  -0.583   5.829  11.162 -1.4016  1.7379  0.3319
  146MOL0     H19671  -0.858   5.806  11.026  0.5315  1.3814 -1.9676
  146MOL0     H19672  -0.784   5.869  11.178  2.8405  0.6062 -0.3808
  146MOL0     H19673  -0.881   5.975  11.066  1.1525  0.7436 -0.8018
  146MOL0     H19674  -0.824   6.168  10.512 -0.5964 -3.2489  0.6572
  146MOL0     H19675  -1.051   6.205  10.396 -1.8298 -2.4836  0.9015
  146MOL0     H19676  -1.374   6.127  10.594  0.7182 -0.9625 -2.6426
  146MOL0     H19677  -1.402   6.293  10.633  1.9648 -1.3303  1.2375
  146MOL0     H19678  -1.518   6.322  10.411 -0.6257 -1.3005 -1.9744
  146MOL0     H19679  -1.468   6.158  10.355  1.8107 -0.6781  1.6310
  146MOL0     H19680  -1.667   6.198  10.578 -0.1854  0.9501  0.2375
  146MOL0     H19681  -1.605   6.048  10.516  0.3973  0.5704 -0.1754
  146MOL0     H19682  -1.688   6.145  10.274  1.9370  0.9398  0.6540
  146MOL0     H19683  -1.798   6.068  10.388 -1.5400 -0.2355 -2.4633
  146MOL0     H19684  -1.745   6.372  10.356  0.2213  0.2596  0.8746
  146MOL0     H19685  -1.860   6.305  10.475 -0.0172 -1.6359  0.3836
  146MOL0     H19686  -1.959   6.390  10.277 -0.3686  0.3729 -0.0028
  146MOL0     H19687  -1.871   6.263  10.176  0.2144  0.6547  0.4554
  146MOL0     H19688  -2.048   6.207  10.403  0.0307 -1.7572 -0.2578
  146MOL0     H19689  -1.970   6.094  10.272 -1.7755  0.3764 -2.9714
  146MOL0     H19690  -2.208   6.118  10.262  1.1523  1.3506  1.7110
  146MOL0     H19691  -2.113   6.179  10.117 -1.8720 -0.7432 -0.1638
  146MOL0     H19692  -1.242   6.279  10.769 -0.6561 -0.6583 -1.9924
  146MOL0     H19693  -1.030   6.228  10.895 -1.7570  2.8160  0.2287
  146MOL0     H19694  -0.527   6.064  10.741  2.4438  0.4486  0.7327
  146MOL0     H19695  -0.331   5.970  10.854 -0.5191 -0.2126 -0.7748
  146MOL0     H19696   1.371   5.736  10.965 -0.8223 -0.6636  0.0725
  146MOL0     H19697   1.628   5.664  10.930  2.7255 -2.6477  1.0967
  146MOL0     H19698   1.993   5.306  11.173 -1.5858  0.5487 -0.4579
  146MOL0     H19699   2.207   5.200  11.094 -0.2172 -1.0151 -0.7984
  146MOL0     H19700   2.300   5.129  10.673 -0.7618  2.2289 -2.7879
  146MOL0     H19701   2.327   5.300  10.663 -1.6883  0.3590  0.5807
  146MOL0     H19702   2.552   5.229  10.784 -1.9052  1.8135 -0.6219
  146MOL0     H19703   2.544   5.222  10.606 -2.2634 -1.9797 -1.7553
  146MOL0     H19704   2.632   5.011  10.665  0.1108 -1.2923  0.6323
  146MOL0     H19705   2.450   4.974  10.655  1.0192 -2.6680  0.9536
  146MOL0     H19706   2.441   4.979  10.899  0.3079 -2.3154  1.7093
  146MOL0     H19707   2.606   5.037  10.909  1.1258 -0.0590  0.0872
  146MOL0     H19708   2.680   4.633  10.873  0.5192  0.8358  2.5805
  146MOL0     H19709   2.111   5.299  10.695 -1.4007  0.8587 -0.1524
  146MOL0     H19710   1.900   5.405  10.764  0.3818 -0.1677 -0.5838
  147MOL0     O19711   9.568   7.838  10.922 -0.5380 -0.6820 -0.5402
  147MOL0     C19712   9.628   7.902  10.838 -0.2899  0.0700  0.1504
  147MOL0     O19713   9.581   7.999  10.752 -0.4407  0.3529 -0.3977
  147MOL0     C19714   9.455   8.044  10.769 -0.0534 -0.6017  0.7998
  147MOL0     C19715   9.367   8.017  10.657 -0.7790  0.5254  0.7174
  147MOL0     C19716   9.237   8.058  10.669 -0.3406  0.0688  0.7187
  147MOL0     C19717   9.204   8.152  10.771  0.2182 -0.1589  0.1284
  147MOL0     O19718   9.071   8.180  10.786 -0.8369  0.3779  0.6859
  147MOL0     C19719   9.014   8.155  10.917 -0.1889 -0.3593  0.4177
  147MOL0     C19720   8.872   8.209  10.911 -0.2719  0.0389 -0.7677
  147MOL0     C19721   8.774   8.127  10.822  0.3173 -0.2242  0.2981
  147MOL0     C19722   8.633   8.192  10.820 -0.4021  0.2596 -0.4382
  147MOL0     C19723   8.547   8.123  10.720  0.2143  0.2138 -0.0508
  147MOL0     C19724   8.492   7.981  10.766 -0.6688 -0.0857 -0.1251
  147MOL0     C19725   8.382   7.915  10.685 -0.2062  0.1831  0.0046
  147MOL0     C19726   8.266   8.009  10.667 -0.1983  0.1928 -0.0100
  147MOL0     N19727   8.161   7.949  10.594  0.2357  0.8122 -0.8470
  147MOL0     C19728   8.079   7.846  10.640  0.1576 -0.5278 -0.4604
  147MOL0     C19729   8.007   7.813  10.537  0.4106  0.0411  0.7233
  147MOL0     C19730   7.898   7.703  10.538  0.0067  0.4716 -0.0231
  147MOL0     C19731   7.774   7.754  10.607 -0.1468 -0.6584 -0.2028
  147MOL0     C19732   7.678   7.640  10.621 -0.2266  0.2505 -0.6534
  147MOL0     C19733   7.544   7.691  10.672  0.4579  0.1597  0.0082
  147MOL0     O19734   7.541   7.730  10.815 -0.0048  0.0666  0.0337
  147MOL0     C19735   7.444   7.819  10.857 -0.2774 -0.0060  0.5633
  147MOL0     C19736   7.462   7.901  10.967 -0.2114  0.0678  0.7345
  147MOL0     C19737   7.364   7.986  11.023 -0.5689 -0.1157  0.1374
  147MOL0     C19738   7.406   8.068  11.148  0.8284  0.0065 -0.0042
  147MOL0     C19739   7.238   7.987  10.966 -0.2840 -1.1657  0.2836
  147MOL0     C19740   7.113   8.053  11.023 -0.3205 -0.3501 -0.0862
  147MOL0     O19741   7.008   8.089  10.942  0.1812 -0.3342  0.1087
  147MOL0     C19742   6.911   8.167  10.993  0.2590 -0.6497  0.5159
  147MOL0     C19743   6.928   8.270  11.090 -0.0539 -0.5422  0.4554
  147MOL0     C19744   6.827   8.364  11.133 -0.2956 -0.2094  0.0019
  147MOL0     C19745   6.698   8.360  11.055  0.1842  0.2783 -0.1896
  147MOL0     O19746   6.606   8.452  11.090 -0.2678  0.4451  0.3229
  147MOL0     C19747   6.469   8.438  11.044 -0.7675 -0.5757 -0.3715
  147MOL0     C19748   6.397   8.577  11.067  0.7832 -0.3502  0.6227
  147MOL0     C19749   6.351   8.594  11.211  0.0214 -0.0779  0.4687
  147MOL0     C19750   6.247   8.703  11.215  0.1246 -0.3371  0.8000
  147MOL0     C19751   6.182   8.701  11.350  0.2135 -0.2372 -0.7199
  147MOL0     C19752   6.126   8.844  11.394  0.2792  0.1600 -1.1076
  147MOL0     C19753   6.197   8.890  11.526  0.9840 -0.8358  0.7447
  147MOL0     C19754   6.122   9.017  11.584  0.7130 -0.1118 -0.6330
  147MOL0    Cl19755   6.226   9.095  11.705 -0.3683  0.0974  0.2277
  147MOL0     C19756   6.687   8.261  10.958  0.3958  0.1515  0.4909
  147MOL0     C19757   6.787   8.172  10.922  0.4818  0.2588  0.4644
  147MOL0     O19758   7.108   8.052  11.148 -0.8889  0.1205  0.0684
  147MOL0     C19759   7.217   7.911  10.847  0.0604 -0.3166 -0.0744
  147MOL0     C19760   7.313   7.826  10.795 -0.5012  0.3936 -0.3841
  147MOL0     N19761   8.033   7.892  10.427  0.1813 -0.1846 -0.2734
  147MOL0     N19762   8.121   7.978  10.461 -0.1378  0.0743  0.1153
  147MOL0     C19763   9.292   8.193  10.876 -1.0736 -0.2689  0.4944
  147MOL0     C19764   9.420   8.136  10.873 -0.4178 -0.3856 -0.8559
  147MOL0     C19765   9.772   7.859  10.825  0.1705  0.0275  0.8105
  147MOL0     C19766   9.856   7.929  10.740 -0.4027  0.1085 -1.1866
  147MOL0     C19767   9.982   7.876  10.714 -0.0455  1.1001  0.7655
  147MOL0     C19768  10.033   7.759  10.774 -0.3240 -0.0866 -0.1797
  147MOL0     O19769  10.150   7.712  10.735  0.0304 -1.1446 -0.5621
  147MOL0     C19770  10.194   7.583  10.776  0.2576 -0.3449  0.5268
  147MOL0     C19771  10.121   7.477  10.695 -0.7135  0.1537  0.6197
  147MOL0     C19772  10.166   7.337  10.707  0.2076  0.1511 -0.1661
  147MOL0     C19773  10.120   7.273  10.836  0.1789  0.6126 -0.0687
  147MOL0     C19774  10.172   7.136  10.841 -0.1224 -0.0455  0.4929
  147MOL0     C19775  10.201   7.017  10.861 -0.5309 -0.3129 -0.0586
  147MOL0     C19776   9.951   7.697  10.870 -0.1768 -0.3431 -0.0920
  147MOL0     C19777   9.825   7.748  10.892  0.9902  0.1790 -0.6605
  147MOL0     H19778   9.402   7.955  10.576  1.6792  2.1846  0.3903
  147MOL0     H19779   9.152   8.023  10.612 -3.2525  3.1485  2.7608
  147MOL0     H19780   9.020   8.046  10.932 -3.0221 -0.7288 -0.5395
  147MOL0     H19781   9.058   8.207  11.002 -1.0033  1.3662 -0.1721
  147MOL0     H19782   8.829   8.213  11.012 -1.6545 -2.3442 -1.1830
  147MOL0     H19783   8.881   8.310  10.871  0.4148  0.5004  0.4933
  147MOL0     H19784   8.825   8.133  10.725 -0.2306  4.7563  0.0587
  147MOL0     H19785   8.780   8.024  10.860  3.9762  0.2092  1.3014
  147MOL0     H19786   8.589   8.187  10.920  0.4205 -0.4692 -0.1035
  147MOL0     H19787   8.644   8.299  10.802  0.1572  0.8370  2.7987
  147MOL0     H19788   8.462   8.182  10.686  1.1615  1.0417 -1.0821
  147MOL0     H19789   8.605   8.106  10.628  0.3425 -0.8346  0.2156
  147MOL0     H19790   8.587   7.926  10.772  0.2941  1.0883 -2.7116
  147MOL0     H19791   8.445   7.994  10.864  0.8219  0.1517  0.5909
  147MOL0     H19792   8.424   7.890  10.587  2.6065  0.5960  1.0168
  147MOL0     H19793   8.346   7.821  10.728  2.9642 -2.2160 -2.1275
  147MOL0     H19794   8.292   8.096  10.606 -2.6316  1.5902  0.7987
  147MOL0     H19795   8.224   8.038  10.764  1.4443 -1.0103  1.1305
  147MOL0     H19796   8.081   7.802  10.739  1.3463 -0.8159 -0.5987
  147MOL0     H19797   7.882   7.672  10.434 -0.9863 -0.9342  0.5173
  147MOL0     H19798   7.940   7.615  10.587  1.9070  0.6479 -1.2373
  147MOL0     H19799   7.728   7.833  10.548  1.9793 -0.6308 -1.9212
  147MOL0     H19800   7.796   7.792  10.707 -3.4186  0.3449  0.2586
  147MOL0     H19801   7.717   7.563  10.688 -2.4235 -0.9509 -0.6665
  147MOL0     H19802   7.652   7.591  10.527 -2.6033 -1.6116  0.8733
  147MOL0     H19803   7.471   7.611  10.658  0.6611  0.3714 -2.7300
  147MOL0     H19804   7.517   7.777  10.609  1.1573 -0.4645 -1.1787
  147MOL0     H19805   7.559   7.892  11.014  1.8648  1.6772 -2.8806
  147MOL0     H19806   7.374   8.173  11.145  1.6809  0.2524 -1.2040
  147MOL0     H19807   7.356   8.027  11.236  2.0787 -0.5732  0.4525
  147MOL0     H19808   7.512   8.070  11.174  1.0428  3.5326 -0.5874
  147MOL0     H19809   7.021   8.281  11.146 -0.7690  2.2105  1.2362
  147MOL0     H19810   6.840   8.440  11.209  2.1907  0.6183 -1.1480
  147MOL0     H19811   6.457   8.410  10.939  1.1639 -2.2089 -0.2149
  147MOL0     H19812   6.423   8.362  11.106 -2.0852  1.1883  0.9086
  147MOL0     H19813   6.466   8.657  11.038 -1.7741  0.8840 -2.7681
  147MOL0     H19814   6.302   8.587  11.013  0.4173  2.0530  1.5793
  147MOL0     H19815   6.433   8.600  11.284 -0.1684 -2.5106  0.9568
  147MOL0     H19816   6.292   8.504  11.231  0.5006 -1.4373 -3.4237
  147MOL0     H19817   6.297   8.800  11.220 -0.6931  0.0779  5.5931
  147MOL0     H19818   6.171   8.698  11.136  2.2542  0.2832 -1.4246
  147MOL0     H19819   6.257   8.677  11.425 -0.4219 -0.5877 -0.1803
  147MOL0     H19820   6.105   8.624  11.367  0.1365  0.0360  0.2232
  147MOL0     H19821   6.126   8.906  11.304 -0.4452  3.2384  0.8618
  147MOL0     H19822   6.022   8.824  11.422  0.1314  1.1136 -0.9596
  147MOL0     H19823   6.301   8.916  11.505  1.3801 -2.6900  0.2882
  147MOL0     H19824   6.200   8.816  11.607  1.6154 -0.7969  0.7616
  147MOL0     H19825   6.031   8.988  11.636  1.3189  0.7371  0.9646
  147MOL0     H19826   6.089   9.091  11.510  0.5188 -0.1273 -0.5596
  147MOL0     H19827   6.592   8.258  10.905  0.3236  0.1370  0.6228
  147MOL0     H19828   6.770   8.106  10.838  0.0026  0.8471  0.0924
  147MOL0     H19829   7.120   7.916  10.797 -0.2283 -1.0378  0.4038
  147MOL0     H19830   7.292   7.760  10.712  1.3834  0.9092 -1.3204
  147MOL0     H19831   9.266   8.251  10.964  1.0130  1.6479 -0.0918
  147MOL0     H19832   9.485   8.171  10.953  0.2668 -1.1045 -1.0932
  147MOL0     H19833   9.827   8.022  10.694 -0.7931  1.1548  1.0344
  147MOL0     H19834  10.059   7.916  10.649 -0.6439  0.7187 -0.1889
  147MOL0     H19835  10.300   7.587  10.752  0.4026 -0.4727  1.1454
  147MOL0     H19836  10.192   7.560  10.883 -0.9742 -2.0495  0.1916
  147MOL0     H19837  10.126   7.499  10.588 -2.4625 -2.3401 -0.0791
  147MOL0     H19838  10.013   7.486  10.713 -0.8234  1.5379 -0.5275
  147MOL0     H19839  10.275   7.336  10.698  0.0587 -2.1445 -3.3546
  147MOL0     H19840  10.127   7.285  10.619 -1.3766  2.8762 -1.1958
  147MOL0     H19841  10.013   7.266  10.857  0.0491  0.0294 -0.9084
  147MOL0     H19842  10.159   7.332  10.920 -1.0694  0.6971  0.4799
  147MOL0     H19843  10.230   6.913  10.861 -0.9305 -0.4246 -0.4114
  147MOL0     H19844   9.983   7.606  10.918  2.7195  0.5838 -0.0274
  147MOL0     H19845   9.750   7.694  10.949 -1.4472  2.1264 -1.8749
  148MOL0     O19846   1.970   9.116   4.334  0.4144 -0.2243 -0.0176
  148MOL0     C19847   2.014   9.015   4.288  0.2515 -0.3649  0.1734
  148MOL0     O19848   1.938   8.925   4.225  0.5268 -0.0922  0.5932
  148MOL0     C19849   1.802   8.936   4.246 -0.6327 -0.6610 -0.1064
  148MOL0     C19850   1.731   8.859   4.336  0.6165 -1.1411  0.0343
  148MOL0     C19851   1.592   8.861   4.336 -0.1947  0.6311 -0.6138
  148MOL0     C19852   1.510   8.941   4.246 -0.7051  1.1295  0.0391
  148MOL0     O19853   1.379   8.941   4.224 -0.9947  0.7970  0.6148
  148MOL0     C19854   1.299   8.950   4.345  0.2669  0.3777  0.0452
  148MOL0     C19855   1.153   8.905   4.304 -1.1984  0.7518  0.3576
  148MOL0     C19856   1.051   8.923   4.411 -0.3934  0.7350 -0.0012
  148MOL0     C19857   0.913   8.877   4.376  0.3823 -0.2311 -0.6413
  148MOL0     C19858   0.797   8.949   4.456  0.3356 -0.1467 -0.2277
  148MOL0     C19859   0.656   8.902   4.408  0.2585 -0.5228  0.1558
  148MOL0     C19860   0.539   8.970   4.479 -0.0951 -0.5291 -0.0292
  148MOL0     C19861   0.542   9.121   4.454  0.3709 -0.7042  0.7187
  148MOL0     N19862   0.412   9.187   4.479 -0.9240  0.2891  0.1338
  148MOL0     C19863   0.304   9.178   4.401 -0.2127 -0.4419  0.0915
  148MOL0     C19864   0.209   9.240   4.476 -0.9074 -0.6054  0.2178
  148MOL0     C19865   0.070   9.274   4.415 -0.7630  1.1201 -0.4217
  148MOL0     C19866  -0.038   9.237   4.515 -0.4086  0.1468  0.0814
  148MOL0     C19867  -0.171   9.254   4.444 -0.2279 -0.6685 -0.6131
  148MOL0     C19868  -0.294   9.236   4.538  0.0196  0.7208  0.0358
  148MOL0     O19869  -0.280   9.098   4.580 -0.1803  0.2741  0.1566
  148MOL0     C19870  -0.373   9.047   4.671 -0.5714 -0.8780 -0.0125
  148MOL0     C19871  -0.326   9.030   4.804  0.1750  0.4752 -0.2847
  148MOL0     C19872  -0.409   9.002   4.908  0.3861  0.3205 -0.9601
  148MOL0     C19873  -0.365   8.973   5.051 -0.1541  0.3025 -0.0477
  148MOL0     C19874  -0.548   8.984   4.881 -0.0780  0.2803  0.7746
  148MOL0     C19875  -0.665   8.952   4.982 -0.5061  0.0950  0.5496
  148MOL0     O19876  -0.773   8.903   4.920  0.6969  0.9726  0.0048
  148MOL0     C19877  -0.874   8.863   4.998  0.0088 -1.1776 -0.5283
  148MOL0     C19878  -0.997   8.919   4.977  0.6889  0.1395  0.1045
  148MOL0     C19879  -1.114   8.868   5.045  0.1159  0.3135 -0.1568
  148MOL0     C19880  -1.112   8.759   5.133  0.3792 -0.7450 -0.0857
  148MOL0     O19881  -1.218   8.703   5.195 -0.0652  0.6513  0.2824
  148MOL0     C19882  -1.331   8.789   5.233 -0.7115  0.2343  0.4752
  148MOL0     C19883  -1.410   8.723   5.342  0.0275 -0.0609  0.5148
  148MOL0     C19884  -1.492   8.602   5.296  1.5728  0.5232  0.0584
  148MOL0     C19885  -1.563   8.545   5.424 -0.7964 -0.6678 -0.2622
  148MOL0     C19886  -1.660   8.442   5.387  0.0995 -0.4142  0.3574
  148MOL0     C19887  -1.692   8.346   5.499 -0.4168 -1.0059  0.1676
  148MOL0     C19888  -1.813   8.254   5.474 -0.4513  0.6235  0.7045
  148MOL0     C19889  -1.944   8.322   5.478  0.3790 -0.2574  0.0869
  148MOL0    Cl19890  -2.073   8.196   5.481  0.0488 -0.5099 -0.2806
  148MOL0     C19891  -0.985   8.704   5.158 -0.5944 -0.7526  0.2839
  148MOL0     C19892  -0.870   8.759   5.090 -0.7259 -0.8788 -0.1870
  148MOL0     O19893  -0.659   8.982   5.099  0.2703  0.9520 -0.4901
  148MOL0     C19894  -0.592   8.998   4.741 -0.6863  0.9165 -0.4589
  148MOL0     C19895  -0.504   9.029   4.636  0.4935 -0.6329  0.2829
  148MOL0     N19896   0.264   9.287   4.594 -0.1286 -0.7128 -0.3665
  148MOL0     N19897   0.389   9.261   4.590  0.0188 -0.5769  0.7165
  148MOL0     C19898   1.584   9.018   4.157  0.1837 -0.6019 -0.5630
  148MOL0     C19899   1.726   9.008   4.151 -1.2043 -0.4134 -0.7164
  148MOL0     C19900   2.157   9.004   4.266 -0.8767  0.3720 -0.0955
  148MOL0     C19901   2.209   8.939   4.151  0.9784  0.6070 -0.5944
  148MOL0     C19902   2.347   8.943   4.131 -0.6658  0.3519 -0.5456
  148MOL0     C19903   2.438   8.990   4.227  0.6095  1.3581 -0.3644
  148MOL0     O19904   2.576   9.001   4.204  0.3597  0.5819  0.1424
  148MOL0     C19905   2.640   8.921   4.102 -0.0763 -1.0018  0.4627
  148MOL0     C19906   2.793   8.917   4.121 -0.3620 -0.2727 -1.1457
  148MOL0     C19907   2.825   8.814   4.232  0.5455 -0.6750 -0.2819
  148MOL0     C19908   2.965   8.809   4.286 -0.7659 -0.4252  0.7475
  148MOL0     C19909   3.046   8.734   4.184 -0.7699 -0.0235  0.0371
  148MOL0     C19910   3.103   8.663   4.106 -0.6143  0.1820  0.0001
  148MOL0     C19911   2.382   9.047   4.345  0.7821  0.8995 -0.0991
  148MOL0     C19912   2.239   9.062   4.357 -0.1609 -0.2996  0.1563
  148MOL0     H19913   1.778   8.791   4.406  1.0997 -0.6210  0.2284
  148MOL0     H19914   1.541   8.798   4.408  1.4475 -0.4696 -0.3514
  148MOL0     H19915   1.331   8.883   4.426 -3.9146 -1.0191  0.7530
  148MOL0     H19916   1.287   9.053   4.380  0.2049 -0.7551  3.7913
  148MOL0     H19917   1.129   8.979   4.227  2.5694  1.2662 -0.5207
  148MOL0     H19918   1.154   8.803   4.264 -2.1484  0.2458  1.5429
  148MOL0     H19919   1.081   8.875   4.505 -3.7148  1.8219  1.7597
  148MOL0     H19920   1.059   9.030   4.434  1.3349  0.8123 -0.7484
  148MOL0     H19921   0.881   8.877   4.271 -2.5597  1.1901  0.1638
  148MOL0     H19922   0.906   8.771   4.404 -2.1778 -0.1213 -0.5966
  148MOL0     H19923   0.804   8.921   4.562 -1.2921 -2.0295 -0.5610
  148MOL0     H19924   0.811   9.056   4.444  2.2283 -0.5221 -1.9282
  148MOL0     H19925   0.648   8.921   4.300  1.8426 -1.7892 -0.2259
  148MOL0     H19926   0.645   8.794   4.416 -3.0790 -0.1609  3.2593
  148MOL0     H19927   0.454   8.930   4.423  0.0174  0.5278 -0.9951
  148MOL0     H19928   0.536   8.949   4.586  1.5936  0.9744  0.3555
  148MOL0     H19929   0.570   9.137   4.350  2.7460 -0.6128  1.3137
  148MOL0     H19930   0.614   9.170   4.521 -1.9731 -0.5528  3.3202
  148MOL0     H19931   0.278   9.143   4.301 -5.0867  1.7239  0.2905
  148MOL0     H19932   0.085   9.380   4.396  4.6084  1.1478  2.0852
  148MOL0     H19933   0.054   9.208   4.328  0.3781 -0.3292  0.4165
  148MOL0     H19934  -0.034   9.309   4.598 -2.2215  1.5489 -0.9718
  148MOL0     H19935  -0.028   9.136   4.556  0.9993  0.9548  1.8772
  148MOL0     H19936  -0.177   9.193   4.353 -0.0782  0.4270 -1.3922
  148MOL0     H19937  -0.172   9.361   4.420 -0.6349 -0.5184  0.0526
  148MOL0     H19938  -0.387   9.261   4.487 -0.1105  1.4286  0.6045
  148MOL0     H19939  -0.276   9.303   4.623 -0.6989  0.0642  0.7207
  148MOL0     H19940  -0.220   9.041   4.822 -0.3390  1.6582  2.6405
  148MOL0     H19941  -0.257   8.988   5.053 -0.0540 -0.3764 -0.0953
  148MOL0     H19942  -0.411   9.039   5.125  1.4711 -1.7234  3.0016
  148MOL0     H19943  -0.385   8.871   5.085 -0.4016 -0.9179 -3.4544
  148MOL0     H19944  -1.008   9.004   4.910 -0.1793  1.0786  1.3878
  148MOL0     H19945  -1.204   8.928   5.032  0.6690  1.3044  0.4996
  148MOL0     H19946  -1.289   8.884   5.267  0.8232  0.4191 -1.7235
  148MOL0     H19947  -1.392   8.815   5.146  0.4133 -1.1931 -0.8004
  148MOL0     H19948  -1.340   8.692   5.420  1.4381 -0.1138 -0.6988
  148MOL0     H19949  -1.481   8.800   5.373 -0.5257  0.0956 -1.0240
  148MOL0     H19950  -1.428   8.523   5.253 -1.7288 -1.1289 -2.2285
  148MOL0     H19951  -1.563   8.628   5.217  0.3719 -1.5736  0.3555
  148MOL0     H19952  -1.480   8.508   5.485 -1.1981  1.3346  1.6381
  148MOL0     H19953  -1.607   8.627   5.482 -0.0604 -1.2172  1.1227
  148MOL0     H19954  -1.612   8.378   5.312  1.5436  1.8369 -0.7349
  148MOL0     H19955  -1.749   8.485   5.342 -0.3793 -0.0417  1.6191
  148MOL0     H19956  -1.611   8.275   5.516  0.5063  0.0930  0.4263
  148MOL0     H19957  -1.697   8.404   5.592 -0.8406  0.4375 -0.7124
  148MOL0     H19958  -1.807   8.173   5.548  1.1627  0.6551  0.6630
  148MOL0     H19959  -1.792   8.201   5.380 -1.6916  1.5855 -0.1376
  148MOL0     H19960  -1.962   8.381   5.388 -2.0444 -1.3394 -0.2015
  148MOL0     H19961  -1.940   8.391   5.563 -1.6307  2.5369 -1.9215
  148MOL0     H19962  -0.979   8.618   5.223  1.2366 -1.9819 -1.4016
  148MOL0     H19963  -0.775   8.713   5.112 -0.3838 -0.0700  0.0772
  148MOL0     H19964  -0.697   9.002   4.713 -1.1326  1.2894  1.1417
  148MOL0     H19965  -0.537   9.051   4.535 -0.4644  1.1329  0.9462
  148MOL0     H19966   1.527   9.075   4.085  0.0954  0.3027  0.2010
  148MOL0     H19967   1.774   9.063   4.071  2.0420 -1.3610  0.4373
  148MOL0     H19968   2.141   8.890   4.082  0.0642  5.1403 -3.3052
  148MOL0     H19969   2.383   8.896   4.040  0.3114  1.9274 -1.0094
  148MOL0     H19970   2.600   8.820   4.105 -2.6809 -0.0909 -0.6000
  148MOL0     H19971   2.606   8.961   4.006 -3.4502  1.4160  2.4516
  148MOL0     H19972   2.834   9.016   4.142  2.7876 -1.8948  1.2076
  148MOL0     H19973   2.835   8.882   4.026  3.7958 -2.4352  1.2119
  148MOL0     H19974   2.797   8.718   4.188  1.4656 -0.7585 -0.7195
  148MOL0     H19975   2.757   8.846   4.312  2.4906  0.8591  0.8607
  148MOL0     H19976   2.971   8.760   4.383 -0.5598 -2.1497 -0.0820
  148MOL0     H19977   3.010   8.906   4.308  2.9899 -1.8311  0.0887
  148MOL0     H19978   3.163   8.598   4.046  0.3933  0.3145  0.8313
  148MOL0     H19979   2.442   9.093   4.422 -1.2160  2.1014  0.7996
  148MOL0     H19980   2.203   9.108   4.448  0.8160  1.7763 -0.4539
  149MOL0     O19981   9.352   2.898   9.808  0.4721  0.4193  0.1610
  149MOL0     C19982   9.422   2.874   9.906  0.3413 -0.2536 -0.4221
  149MOL0     O19983   9.378   2.882  10.040  0.4017  0.3512  0.4292
  149MOL0     C19984   9.245   2.871  10.066 -0.2450 -0.1473  0.1615
  149MOL0     C19985   9.215   2.914  10.196  0.7802  0.0320 -0.9917
  149MOL0     C19986   9.078   2.922  10.236  0.1294  0.4366  0.1791
  149MOL0     C19987   8.975   2.887  10.143 -0.8562  0.4528  0.1543
  149MOL0     O19988   8.850   2.896  10.188 -0.0930  0.3608  0.2290
  149MOL0     C19989   8.737   2.840  10.111  0.4732  0.7571 -0.7924
  149MOL0     C19990   8.603   2.891  10.164  0.2227 -0.0494 -0.5016
  149MOL0     C19991   8.480   2.825  10.097  0.2898 -0.5240 -0.4308
  149MOL0     C19992   8.357   2.919  10.115 -0.0435 -0.9001  0.1646
  149MOL0     C19993   8.217   2.868  10.073  0.0918 -0.0590  0.1870
  149MOL0     C19994   8.108   2.974  10.064 -0.1874 -0.4892 -0.1847
  149MOL0     C19995   7.974   2.902  10.060  0.4990 -0.4773 -0.1354
  149MOL0     C19996   7.858   3.002  10.039 -0.7093  0.3812 -0.4298
  149MOL0     N19997   7.739   2.944   9.985 -0.4949  0.9276 -0.3311
  149MOL0     C19998   7.617   2.941  10.051  0.0820 -0.3426 -0.7499
  149MOL0     C19999   7.514   2.927   9.964  0.2625 -0.2624 -0.1449
  149MOL0     C20000   7.374   2.905  10.002  0.3534  0.8039  0.8675
  149MOL0     C20001   7.365   2.769  10.072  0.8083 -0.5457  0.4436
  149MOL0     C20002   7.344   2.659   9.977 -0.5030 -0.1269 -0.8058
  149MOL0     C20003   7.209   2.639   9.912  0.4312  0.9323  1.2643
  149MOL0     O20004   7.096   2.674   9.995  0.5697  0.1311  0.2710
  149MOL0     C20005   6.969   2.627   9.957  0.1248 -1.1784  0.4340
  149MOL0     C20006   6.933   2.578   9.833  0.2000 -0.2896  0.2087
  149MOL0     C20007   6.798   2.549   9.804  0.5585  0.0427 -0.3398
  149MOL0     C20008   6.767   2.515   9.666 -0.2059  0.5925 -0.3273
  149MOL0     C20009   6.708   2.534   9.917  0.2907  0.2834  0.2843
  149MOL0     C20010   6.572   2.480   9.903 -0.1677 -0.1579 -0.2511
  149MOL0     O20011   6.486   2.507  10.012  0.0409  0.5312  0.1275
  149MOL0     C20012   6.376   2.422  10.022  0.7804  0.4608  0.2506
  149MOL0     C20013   6.271   2.420   9.930  0.7407 -0.3853  0.2246
  149MOL0     C20014   6.157   2.337   9.956  0.3443  0.1034 -0.6990
  149MOL0     C20015   6.153   2.257  10.065 -0.3334 -0.2115 -0.5387
  149MOL0     O20016   6.056   2.172  10.107 -0.5607  0.0687  0.2187
  149MOL0     C20017   5.991   2.099  10.000  0.2336  0.3616 -0.1571
  149MOL0     C20018   5.911   1.989  10.053 -0.0871  0.0772  1.1774
  149MOL0     C20019   5.853   1.901   9.938  0.3734  0.0710 -0.5433
  149MOL0     C20020   5.752   1.973   9.848  0.2632  0.3466  0.7224
  149MOL0     C20021   5.654   1.881   9.768 -0.1595  0.6466 -0.7906
  149MOL0     C20022   5.727   1.792   9.668  0.2473 -0.0949  0.4781
  149MOL0     C20023   5.780   1.874   9.544  0.3969 -0.1369 -0.0119
  149MOL0     C20024   5.842   1.783   9.447 -0.5679  1.1259  0.4073
  149MOL0    Cl20025   5.904   1.887   9.320 -0.1370 -0.0811  0.3487
  149MOL0     C20026   6.261   2.255  10.156 -0.7907 -0.5293  0.5395
  149MOL0     C20027   6.371   2.342  10.140 -0.1396 -0.5575  0.3148
  149MOL0     O20028   6.544   2.416   9.805 -0.1121 -0.1487 -0.2671
  149MOL0     C20029   6.746   2.572  10.044  0.0124  0.4618 -0.1896
  149MOL0     C20030   6.873   2.630  10.057 -0.3624 -0.1442  0.6127
  149MOL0     N20031   7.567   2.946   9.833 -0.8686  0.4739  0.1820
  149MOL0     N20032   7.698   2.946   9.851  0.6396  0.2150  0.2282
  149MOL0     C20033   9.007   2.828  10.021  0.6588 -0.6004  0.2501
  149MOL0     C20034   9.137   2.833   9.982 -0.2384 -0.6350 -0.2263
  149MOL0     C20035   9.568   2.847   9.881  0.9414  0.0939 -0.9743
  149MOL0     C20036   9.609   2.814   9.754  0.0122  0.2184 -0.0250
  149MOL0     C20037   9.744   2.793   9.719  1.4102 -1.1804  1.0094
  149MOL0     C20038   9.839   2.779   9.819  0.8717 -0.0783  0.0219
  149MOL0     O20039   9.962   2.754   9.775 -0.9309  0.4324 -0.9136
  149MOL0     C20040  10.070   2.727   9.867  0.0069  0.2315 -0.0832
  149MOL0     C20041  10.191   2.800   9.813 -0.4095  0.2593  0.7384
  149MOL0     C20042  10.244   2.746   9.681 -0.2806 -0.0613  0.4820
  149MOL0     C20043  10.400   2.752   9.661  0.2465  0.2808  0.0855
  149MOL0     C20044  10.481   2.649   9.727 -0.0255  0.0933 -0.4752
  149MOL0     C20045  10.561   2.575   9.772 -0.5854  0.8420 -0.3677
  149MOL0     C20046   9.792   2.807   9.956 -0.7239  0.6616  0.1011
  149MOL0     C20047   9.660   2.842   9.984  0.8095  0.1444  0.2129
  149MOL0     H20048   9.285   2.956  10.267 -1.4874  0.4959  1.1141
  149MOL0     H20049   9.056   2.975  10.329 -0.4141 -0.2396  0.4492
  149MOL0     H20050   8.748   2.865  10.005  2.4662 -1.4594 -1.2085
  149MOL0     H20051   8.750   2.734  10.135  0.3181  1.2438  1.6371
  149MOL0     H20052   8.594   2.875  10.272  1.0809 -0.4927 -0.4880
  149MOL0     H20053   8.606   2.999  10.145 -3.2747  0.3649  0.5721
  149MOL0     H20054   8.497   2.807   9.990  0.3964  0.3783 -0.5717
  149MOL0     H20055   8.469   2.727  10.145  0.7193  0.1047  1.0166
  149MOL0     H20056   8.344   2.952  10.219  1.6156  1.0776 -0.1848
  149MOL0     H20057   8.384   3.011  10.062 -0.7155 -1.0690 -0.4836
  149MOL0     H20058   8.222   2.833   9.970 -1.9389  0.3646 -0.0909
  149MOL0     H20059   8.188   2.782  10.134 -0.9942 -0.0819 -0.3438
  149MOL0     H20060   8.117   3.044  10.147  1.5331 -0.0259 -0.7137
  149MOL0     H20061   8.107   3.034   9.973  0.8900  3.0130  1.9002
  149MOL0     H20062   7.978   2.835   9.974 -0.6353 -1.9445  0.9063
  149MOL0     H20063   7.974   2.841  10.151  1.5650  1.9099  1.5679
  149MOL0     H20064   7.884   3.078   9.965 -0.9936  0.2206 -0.6937
  149MOL0     H20065   7.848   3.057  10.133  4.1215  0.0395  0.5404
  149MOL0     H20066   7.600   2.968  10.155 -1.7266  1.3894 -1.4218
  149MOL0     H20067   7.338   2.988  10.065 -0.2066  3.5993 -2.8095
  149MOL0     H20068   7.316   2.908   9.910 -0.7319  1.5749  1.5471
  149MOL0     H20069   7.275   2.784  10.132 -0.1607  0.3298 -1.1759
  149MOL0     H20070   7.451   2.746  10.137 -0.5612 -1.4465  2.0154
  149MOL0     H20071   7.357   2.568  10.036 -1.0218 -1.0488 -2.0534
  149MOL0     H20072   7.428   2.649   9.907  0.2774 -1.0908  0.2267
  149MOL0     H20073   7.198   2.536   9.877 -3.9525  2.6418 -3.7730
  149MOL0     H20074   7.209   2.705   9.824  1.5584  0.4624  0.9001
  149MOL0     H20075   7.005   2.573   9.753 -0.4353 -1.0262 -0.3303
  149MOL0     H20076   6.833   2.559   9.591  0.1771 -0.6543 -0.7285
  149MOL0     H20077   6.768   2.407   9.652  0.0005  0.6351 -0.6503
  149MOL0     H20078   6.669   2.560   9.644 -0.0635  0.5310 -1.1055
  149MOL0     H20079   6.270   2.484   9.843 -3.1905 -0.4801  0.0443
  149MOL0     H20080   6.077   2.343   9.883  0.6493  0.4443 -1.0133
  149MOL0     H20081   5.925   2.163   9.940  1.1580 -0.3368 -2.0180
  149MOL0     H20082   6.065   2.070   9.924  1.4525  3.5804 -0.3830
  149MOL0     H20083   5.977   1.930  10.116 -1.3011 -2.6849  0.0378
  149MOL0     H20084   5.829   2.027  10.114  0.3268  0.4510  1.5086
  149MOL0     H20085   5.801   1.827  10.000  1.1191  1.0911  1.3747
  149MOL0     H20086   5.933   1.852   9.881 -0.4763  1.2514 -2.8990
  149MOL0     H20087   5.686   2.038   9.906 -1.3891  0.5103 -1.2551
  149MOL0     H20088   5.801   2.032   9.770 -3.4823  0.4262 -1.7845
  149MOL0     H20089   5.582   1.951   9.723 -0.8093  2.9029  3.2817
  149MOL0     H20090   5.603   1.818   9.841 -1.9569  1.5813 -1.1678
  149MOL0     H20091   5.808   1.730   9.710 -0.9564 -3.4106 -1.6796
  149MOL0     H20092   5.652   1.722   9.630 -0.8724  0.2418  1.9725
  149MOL0     H20093   5.858   1.941   9.581  0.9646 -0.0726 -1.2794
  149MOL0     H20094   5.713   1.946   9.497  1.5166  1.2087  0.3793
  149MOL0     H20095   5.773   1.712   9.403 -0.5861  0.9619  0.7006
  149MOL0     H20096   5.921   1.727   9.497 -1.0086  2.1631  2.3778
  149MOL0     H20097   6.244   2.194  10.245 -2.4056 -0.4784  0.3006
  149MOL0     H20098   6.453   2.352  10.211  0.5262 -1.4154 -0.3168
  149MOL0     H20099   6.689   2.563  10.135 -1.4289  2.0568 -0.8824
  149MOL0     H20100   6.899   2.668  10.155 -0.1666  1.8062 -0.1496
  149MOL0     H20101   8.919   2.813   9.960 -1.4745  3.3020  1.9754
  149MOL0     H20102   9.151   2.806   9.877 -0.7522  0.9551 -0.7338
  149MOL0     H20103   9.536   2.803   9.675  0.9326 -1.6486 -0.6930
  149MOL0     H20104   9.772   2.764   9.618 -2.0094  0.7926 -0.6711
  149MOL0     H20105  10.051   2.767   9.967  0.4397 -1.7987  0.8572
  149MOL0     H20106  10.088   2.620   9.880 -0.9006  0.2944  2.0469
  149MOL0     H20107  10.277   2.777   9.876  1.3352 -1.0402 -1.8903
  149MOL0     H20108  10.178   2.908   9.803 -0.2111  0.1102 -2.3275
  149MOL0     H20109  10.200   2.808   9.602 -2.9240 -1.5770  0.6457
  149MOL0     H20110  10.200   2.647   9.668 -0.9857  0.1019  1.4719
  149MOL0     H20111  10.421   2.854   9.693  0.9880 -0.1778  1.1201
  149MOL0     H20112  10.437   2.749   9.558  2.2105 -0.2695  0.7614
  149MOL0     H20113  10.645   2.519   9.807 -0.5990  1.2919  0.4164
  149MOL0     H20114   9.861   2.779  10.036  0.4550 -4.5187 -2.2749
  149MOL0     H20115   9.635   2.863  10.087 -0.1733  2.1790 -0.4043
  150MOL0     O20116  10.504   1.770  10.736  0.2246  0.6121  0.0805
  150MOL0     C20117  10.491   1.729  10.627 -0.1567  0.7547  0.4539
  150MOL0     O20118  10.384   1.760  10.545 -0.6886 -0.4848  0.0500
  150MOL0     C20119  10.306   1.867  10.564  0.8178 -0.3733 -0.3264
  150MOL0     C20120  10.341   1.993  10.625 -0.4988  0.9184 -0.0101
  150MOL0     C20121  10.254   2.098  10.646  0.0066  0.1430  0.0253
  150MOL0     C20122  10.119   2.076  10.596 -0.2523  0.0752 -0.2553
  150MOL0     O20123  10.027   2.180  10.578 -0.2664  0.4053 -0.9324
  150MOL0     C20124  10.064   2.311  10.621  0.4973  0.0348  0.8094
  150MOL0     C20125   9.955   2.407  10.571 -0.0472  0.0372 -0.1392
  150MOL0     C20126   9.846   2.420  10.679  0.4479 -0.0050  0.3621
  150MOL0     C20127   9.717   2.478  10.619 -0.1193  0.2355 -0.4288
  150MOL0     C20128   9.612   2.508  10.736 -0.1631 -0.0208  0.2740
  150MOL0     C20129   9.489   2.585  10.695  0.4901 -0.8812 -0.1783
  150MOL0     C20130   9.399   2.629  10.810  0.1337 -0.1882 -0.0037
  150MOL0     C20131   9.459   2.740  10.907  0.0268 -0.0277 -0.0190
  150MOL0     N20132   9.353   2.771  11.005  0.4592  0.8204 -0.5072
  150MOL0     C20133   9.243   2.853  10.972  0.0264  0.7394  0.3237
  150MOL0     C20134   9.174   2.867  11.090 -0.1063 -0.0908 -0.0104
  150MOL0     C20135   9.059   2.959  11.101  0.7524 -0.0454 -0.2070
  150MOL0     C20136   9.095   3.092  11.176  0.7456  0.6596  0.4263
  150MOL0     C20137   9.001   3.205  11.135  0.0254 -0.4799  0.1589
  150MOL0     C20138   8.857   3.160  11.141 -0.0809  0.0143  0.4943
  150MOL0     O20139   8.770   3.267  11.106  0.8599  1.1176 -0.4404
  150MOL0     C20140   8.645   3.227  11.048  0.6785  0.0265  0.6904
  150MOL0     C20141   8.595   3.302  10.944  0.4632 -0.0353 -0.8912
  150MOL0     C20142   8.466   3.285  10.889 -0.8575  1.5745  0.5216
  150MOL0     C20143   8.444   3.363  10.763  0.5090  0.3242  0.3061
  150MOL0     C20144   8.394   3.169  10.924 -0.5067 -0.1893  0.3102
  150MOL0     C20145   8.249   3.152  10.894 -0.3297 -0.0673  0.7445
  150MOL0     O20146   8.174   3.264  10.889  0.0026 -0.6978 -0.1941
  150MOL0     C20147   8.039   3.254  10.863 -0.0852 -0.3167 -1.3957
  150MOL0     C20148   7.984   3.163  10.776  0.1741  0.2696 -0.5037
  150MOL0     C20149   7.842   3.155  10.767  0.2603  0.7739 -0.2067
  150MOL0     C20150   7.755   3.247  10.835 -0.3099  0.0217 -0.7816
  150MOL0     O20151   7.617   3.250  10.806  0.0938 -0.0482  0.2792
  150MOL0     C20152   7.534   3.351  10.872  0.3131  0.7227 -0.6651
  150MOL0     C20153   7.391   3.354  10.825 -0.0658 -0.2885 -0.8088
  150MOL0     C20154   7.307   3.235  10.869  0.0793 -0.5041 -0.1067
  150MOL0     C20155   7.265   3.223  11.014  0.6686  0.1443  0.1324
  150MOL0     C20156   7.206   3.087  11.038 -0.2024  0.0593 -0.8299
  150MOL0     C20157   7.177   3.067  11.188  0.0729  0.2039  0.8719
  150MOL0     C20158   7.302   3.064  11.276  0.0040 -0.3226  0.7780
  150MOL0     C20159   7.272   2.987  11.412 -0.5994  0.4281  0.8121
  150MOL0    Cl20160   7.158   3.063  11.527  0.2768 -0.4039  0.4407
  150MOL0     C20161   7.824   3.343  10.916  0.9838 -0.1950 -0.0266
  150MOL0     C20162   7.960   3.332  10.943 -0.2870 -0.7153 -0.1000
  150MOL0     O20163   8.208   3.041  10.907  0.4678 -0.0518  0.0599
  150MOL0     C20164   8.448   3.091  11.022 -0.7456 -0.1243 -0.3704
  150MOL0     C20165   8.569   3.124  11.088  0.2251  1.3259 -0.4542
  150MOL0     N20166   9.235   2.786  11.186 -0.1879 -0.8004  0.2572
  150MOL0     N20167   9.341   2.743  11.141 -0.4700  0.0534  0.3197
  150MOL0     C20168  10.082   1.951  10.557 -0.3747 -0.1992  0.5170
  150MOL0     C20169  10.165   1.842  10.542 -0.2943 -0.4367 -0.4228
  150MOL0     C20170  10.587   1.633  10.576  0.2109 -0.1285 -0.0579
  150MOL0     C20171  10.700   1.600  10.651  0.1190  0.0337  0.0163
  150MOL0     C20172  10.788   1.497  10.605 -0.4414  0.5369  0.1836
  150MOL0     C20173  10.778   1.443  10.481 -0.2020  0.4267 -0.2943
  150MOL0     O20174  10.855   1.338  10.426 -0.4779  0.4667  0.0560
  150MOL0     C20175  10.995   1.348  10.457  0.5824  0.7429  0.1869
  150MOL0     C20176  11.095   1.339  10.346  0.8196 -1.0841 -0.1221
  150MOL0     C20177  11.131   1.195  10.311  0.5916  0.3738  0.1737
  150MOL0     C20178  11.248   1.195  10.207 -0.5066 -1.2941 -0.5641
  150MOL0     C20179  11.353   1.295  10.255 -0.0493 -0.0001  0.2653
  150MOL0     C20180  11.418   1.385  10.292 -0.2831  0.1268 -0.3033
  150MOL0     C20181  10.674   1.482  10.406 -0.1908 -0.0860  0.8123
  150MOL0     C20182  10.580   1.576  10.452 -0.0755 -0.2794 -0.5940
  150MOL0     H20183  10.442   2.000  10.664  0.0572 -1.7760 -0.7480
  150MOL0     H20184  10.291   2.190  10.691  1.1193  0.4446 -1.4232
  150MOL0     H20185  10.069   2.302  10.729 -0.6349  0.9531  0.9625
  150MOL0     H20186  10.163   2.332  10.580  0.0342  0.5738 -0.0591
  150MOL0     H20187  10.000   2.505  10.553  2.2540 -1.0685 -0.7558
  150MOL0     H20188   9.911   2.385  10.474 -0.8047  0.7229  0.0352
  150MOL0     H20189   9.827   2.325  10.730 -1.3818  0.1997  0.1336
  150MOL0     H20190   9.883   2.502  10.741  1.6811  0.8252 -1.3743
  150MOL0     H20191   9.741   2.582  10.596  0.1259  0.8724  2.3305
  150MOL0     H20192   9.670   2.415  10.542  0.4640 -0.0958 -0.5172
  150MOL0     H20193   9.566   2.419  10.782  4.2485 -2.6979  0.0809
  150MOL0     H20194   9.669   2.560  10.814 -0.6650 -0.7225  1.1392
  150MOL0     H20195   9.511   2.673  10.633 -3.1892  1.4061  1.3915
  150MOL0     H20196   9.433   2.514  10.635 -1.4647  0.8991 -0.5999
  150MOL0     H20197   9.301   2.659  10.772 -1.4331 -1.8823  2.3623
  150MOL0     H20198   9.396   2.544  10.880  2.4379 -0.2840  0.0694
  150MOL0     H20199   9.472   2.832  10.849  1.2757 -1.0428 -1.4245
  150MOL0     H20200   9.554   2.712  10.952  1.4967  1.4839 -2.0297
  150MOL0     H20201   9.215   2.900  10.879  1.6034  1.3441  0.1277
  150MOL0     H20202   9.006   2.973  11.006  0.7383 -0.4433 -0.2575
  150MOL0     H20203   8.980   2.908  11.158  1.7830 -1.5023 -0.0430
  150MOL0     H20204   9.197   3.126  11.160  0.1794  2.0916 -0.2457
  150MOL0     H20205   9.085   3.073  11.283  0.3820  0.7778  0.4155
  150MOL0     H20206   9.028   3.234  11.033  0.7602 -0.6027  0.3078
  150MOL0     H20207   9.022   3.284  11.208  0.6527 -1.1197  0.6826
  150MOL0     H20208   8.836   3.118  11.240  0.7588 -3.3061 -0.5898
  150MOL0     H20209   8.834   3.079  11.070 -2.5836 -0.9301  2.2400
  150MOL0     H20210   8.652   3.387  10.906 -0.9132  1.9197  1.1117
  150MOL0     H20211   8.429   3.468  10.792  0.7303  0.0517  1.4264
  150MOL0     H20212   8.523   3.346  10.690 -0.4494 -1.4428 -0.3785
  150MOL0     H20213   8.357   3.334  10.704  0.5680 -3.1477  1.7122
  150MOL0     H20214   8.053   3.104  10.717 -0.2939 -0.0446 -0.7482
  150MOL0     H20215   7.806   3.073  10.706  1.3156  0.2914 -0.2055
  150MOL0     H20216   7.538   3.333  10.980  0.8853  0.6049 -0.7012
  150MOL0     H20217   7.578   3.448  10.845  0.4287  0.3353 -1.9285
  150MOL0     H20218   7.341   3.446  10.855 -0.1223 -0.9163  1.1034
  150MOL0     H20219   7.396   3.363  10.716 -1.1469  0.2765 -0.8236
  150MOL0     H20220   7.361   3.145  10.840  0.8519 -0.3973  0.9348
  150MOL0     H20221   7.212   3.232  10.816  0.0960  2.2321 -0.4235
  150MOL0     H20222   7.346   3.244  11.084  3.3204 -3.0638 -1.6837
  150MOL0     H20223   7.188   3.298  11.034  0.7619  0.0192  0.9918
  150MOL0     H20224   7.273   3.010  11.000  0.1987 -0.4577  0.8282
  150MOL0     H20225   7.115   3.077  10.977 -0.1709  0.6186 -0.9733
  150MOL0     H20226   7.099   3.134  11.225 -1.4690 -1.0611  0.0213
  150MOL0     H20227   7.131   2.968  11.183  1.2344 -0.3064 -0.2370
  150MOL0     H20228   7.334   3.164  11.304  3.7056 -0.7625 -1.3133
  150MOL0     H20229   7.381   3.018  11.216  0.9980 -0.4691  2.1475
  150MOL0     H20230   7.360   2.961  11.472 -2.1147 -2.6132  1.9251
  150MOL0     H20231   7.229   2.891  11.383  0.8906  0.2450 -1.0270
  150MOL0     H20232   7.772   3.422  10.970  2.1008 -1.7574  3.6285
  150MOL0     H20233   7.995   3.412  11.008 -1.8593  0.6614 -0.8523
  150MOL0     H20234   8.410   2.995  11.055  1.4364 -1.6400 -2.0132
  150MOL0     H20235   8.602   3.054  11.165  0.2486 -2.6051 -3.6963
  150MOL0     H20236   9.974   1.941  10.547 -1.1951  1.7855  4.9195
  150MOL0     H20237  10.124   1.746  10.510 -0.5293  0.3523 -2.6582
  150MOL0     H20238  10.700   1.627  10.756 -1.8318 -0.0825  0.0926
  150MOL0     H20239  10.867   1.471  10.674  1.8133 -1.0560 -2.7327
  150MOL0     H20240  11.020   1.440  10.510  1.4542 -0.7603  2.5159
  150MOL0     H20241  11.024   1.273  10.530  1.9682  1.6672  0.6286
  150MOL0     H20242  11.179   1.387  10.398  0.5440  0.0022 -0.6481
  150MOL0     H20243  11.071   1.406  10.262  2.7734 -2.3480 -1.8022
  150MOL0     H20244  11.044   1.147  10.266  1.0682 -3.3258  2.6702
  150MOL0     H20245  11.166   1.132  10.394  0.9966  1.8138  1.1352
  150MOL0     H20246  11.223   1.241  10.111 -1.1205 -0.6445 -0.1044
  150MOL0     H20247  11.275   1.092  10.182 -1.2228 -0.9502 -2.9575
  150MOL0     H20248  11.494   1.459  10.307  0.7523 -0.3421 -2.7774
  150MOL0     H20249  10.642   1.430  10.316 -2.4176  0.8526  0.9982
  150MOL0     H20250  10.486   1.579  10.397  0.6062 -1.9803 -1.9492
  151MOL0     O20251   5.890   7.566   3.013 -0.3809 -0.4799 -0.5554
  151MOL0     C20252   5.929   7.625   3.116  0.4192  1.1473  0.8979
  151MOL0     O20253   5.841   7.667   3.217  0.1458 -0.1171  0.5456
  151MOL0     C20254   5.710   7.625   3.216  0.3363  0.0359  0.4310
  151MOL0     C20255   5.629   7.698   3.291 -0.3763 -0.5119 -0.7355
  151MOL0     C20256   5.497   7.672   3.311  0.7629  0.4035 -0.2306
  151MOL0     C20257   5.453   7.559   3.249 -0.3350  0.2612 -0.3896
  151MOL0     O20258   5.324   7.516   3.271 -0.2555 -0.3947 -0.2211
  151MOL0     C20259   5.217   7.609   3.260  0.3524 -0.6462  0.2592
  151MOL0     C20260   5.086   7.524   3.251 -0.3207  0.0851 -0.1540
  151MOL0     C20261   4.975   7.628   3.211  0.2286  0.1975  0.2330
  151MOL0     C20262   4.853   7.559   3.144  0.6480 -0.3218  0.8980
  151MOL0     C20263   4.739   7.657   3.113  0.5352  0.7835  0.4765
  151MOL0     C20264   4.622   7.599   3.040 -0.5717  0.6061  0.5825
  151MOL0     C20265   4.497   7.695   3.035 -0.8519  0.2455 -0.2145
  151MOL0     C20266   4.376   7.636   2.962  1.0202 -1.3409 -0.4336
  151MOL0     N20267   4.250   7.718   2.988 -0.7321 -0.2477 -0.1169
  151MOL0     C20268   4.179   7.706   3.105 -0.0170  0.4267 -0.3023
  151MOL0     C20269   4.086   7.805   3.091 -0.3437 -0.0507 -0.4753
  151MOL0     C20270   3.973   7.832   3.191  0.0637  0.6757  0.0375
  151MOL0     C20271   3.862   7.722   3.199 -0.3066 -0.5966 -0.5923
  151MOL0     C20272   3.759   7.772   3.307 -0.9524 -0.1918  0.2849
  151MOL0     C20273   3.665   7.664   3.343  0.3066 -0.1988 -0.4276
  151MOL0     O20274   3.597   7.609   3.231 -0.1413  0.1314 -0.1395
  151MOL0     C20275   3.464   7.597   3.232  0.9574  0.0557 -0.1517
  151MOL0     C20276   3.381   7.622   3.346 -0.3643 -0.3020  0.3029
  151MOL0     C20277   3.245   7.618   3.337  0.0457  0.3590 -0.7628
  151MOL0     C20278   3.163   7.624   3.467  0.4364  0.4170  0.1299
  151MOL0     C20279   3.182   7.577   3.219 -0.0410  0.9236  0.4660
  151MOL0     C20280   3.031   7.581   3.195 -0.6031  0.2455 -0.5577
  151MOL0     O20281   2.987   7.493   3.096 -0.3507 -0.2740 -0.3604
  151MOL0     C20282   2.853   7.480   3.060  0.3955 -1.0541 -0.0492
  151MOL0     C20283   2.753   7.578   3.073 -1.0155 -0.5154 -1.3160
  151MOL0     C20284   2.624   7.556   3.043 -0.4227 -0.5123 -1.4720
  151MOL0     C20285   2.584   7.433   2.987  0.2150 -0.3792  1.2431
  151MOL0     O20286   2.448   7.425   2.954  0.0133  0.8945 -0.2984
  151MOL0     C20287   2.414   7.323   2.852 -0.4915  0.5392  0.3858
  151MOL0     C20288   2.259   7.316   2.833 -0.4284  1.4673 -0.3106
  151MOL0     C20289   2.182   7.295   2.962 -0.9707  0.2723 -0.2577
  151MOL0     C20290   2.042   7.274   2.936  0.6360  0.5313 -0.1616
  151MOL0     C20291   1.971   7.259   3.076 -0.4549 -0.4345  0.5319
  151MOL0     C20292   1.835   7.204   3.051  0.9651  0.6075 -0.4152
  151MOL0     C20293   1.753   7.185   3.180  0.1028  0.4393  0.3530
  151MOL0     C20294   1.691   7.309   3.237 -0.0657 -0.1794 -0.1633
  151MOL0    Cl20295   1.794   7.365   3.363 -0.0482  0.1502 -0.4265
  151MOL0     C20296   2.679   7.336   2.958 -0.1552 -0.6616 -0.3757
  151MOL0     C20297   2.812   7.359   3.005  0.8906  1.2312 -0.0358
  151MOL0     O20298   2.969   7.673   3.247 -0.1849  0.0219  0.3568
  151MOL0     C20299   3.261   7.531   3.111 -0.1881  0.4197  0.0227
  151MOL0     C20300   3.398   7.541   3.118 -0.8315  0.7413 -0.3049
  151MOL0     N20301   4.096   7.874   2.967 -0.1728 -0.3116 -0.0010
  151MOL0     N20302   4.195   7.814   2.911  0.2250  0.0357  0.1743
  151MOL0     C20303   5.526   7.468   3.178 -0.1691  0.5534  0.4334
  151MOL0     C20304   5.659   7.506   3.162 -0.3753  0.6540  0.1492
  151MOL0     C20305   6.065   7.632   3.146 -0.0761  0.4594 -0.4325
  151MOL0     C20306   6.160   7.613   3.043  0.0960  0.5974 -0.1647
  151MOL0     C20307   6.293   7.631   3.077 -0.7287 -0.4217  0.3024
  151MOL0     C20308   6.334   7.682   3.206 -0.2202  0.3359 -0.0547
  151MOL0     O20309   6.461   7.713   3.245 -0.1665  0.9354  0.6316
  151MOL0     C20310   6.569   7.708   3.151  0.6590 -0.4573 -0.2644
  151MOL0     C20311   6.576   7.830   3.050 -0.1124  0.0826 -0.5577
  151MOL0     C20312   6.549   7.964   3.117  0.1165 -0.5255 -0.5585
  151MOL0     C20313   6.569   8.084   3.023  0.6043  0.2237 -0.7085
  151MOL0     C20314   6.468   8.075   2.914 -0.0037  0.3945  0.6454
  151MOL0     C20315   6.380   8.043   2.835 -0.1166 -0.3971 -0.1667
  151MOL0     C20316   6.242   7.677   3.305 -0.9038  0.6560  0.3375
  151MOL0     C20317   6.111   7.662   3.277  0.3389  0.3975 -0.5133
  151MOL0     H20318   5.673   7.783   3.343 -0.5772 -0.2691 -0.9612
  151MOL0     H20319   5.435   7.738   3.370  0.8453  0.7602 -0.5413
  151MOL0     H20320   5.217   7.684   3.339 -1.4339 -2.3442  1.9655
  151MOL0     H20321   5.242   7.656   3.164  0.9006 -2.2223 -0.4114
  151MOL0     H20322   5.094   7.437   3.185 -1.6395 -0.3712  0.2576
  151MOL0     H20323   5.052   7.476   3.343 -0.5061 -0.5478 -0.5457
  151MOL0     H20324   4.955   7.689   3.299  1.9329  0.1805  0.6561
  151MOL0     H20325   5.013   7.691   3.130  0.9272  2.5239  2.2434
  151MOL0     H20326   4.893   7.527   3.047  0.2129  3.5156 -0.7185
  151MOL0     H20327   4.806   7.481   3.204 -0.9521 -0.9172 -1.0216
  151MOL0     H20328   4.702   7.706   3.204 -2.1438  3.0350 -1.6431
  151MOL0     H20329   4.762   7.733   3.037  2.0574  0.4308  0.5454
  151MOL0     H20330   4.659   7.581   2.938  0.9577  0.8729  1.0718
  151MOL0     H20331   4.609   7.497   3.075  1.3172 -0.6099 -1.9848
  151MOL0     H20332   4.466   7.729   3.134  2.2748  4.1395 -0.3253
  151MOL0     H20333   4.520   7.797   3.001  1.1106  0.1951  0.7905
  151MOL0     H20334   4.337   7.543   3.005 -3.2778  1.3161  2.1185
  151MOL0     H20335   4.400   7.624   2.856 -0.6924 -0.7889 -0.9208
  151MOL0     H20336   4.195   7.638   3.187  0.7367  0.0413 -0.7650
  151MOL0     H20337   4.026   7.841   3.286  2.2811 -2.5215 -0.7284
  151MOL0     H20338   3.921   7.919   3.150 -1.0521  0.0322  0.0333
  151MOL0     H20339   3.913   7.628   3.225  0.1554  0.2540  1.8897
  151MOL0     H20340   3.809   7.713   3.104  0.1798 -2.9360 -0.7088
  151MOL0     H20341   3.707   7.863   3.275 -1.0700  0.4165  2.1009
  151MOL0     H20342   3.825   7.803   3.388  2.3574 -3.9514 -0.6747
  151MOL0     H20343   3.603   7.704   3.424  0.6079 -0.6822  0.0458
  151MOL0     H20344   3.729   7.587   3.386 -0.0594  0.7600  2.0193
  151MOL0     H20345   3.417   7.666   3.439  0.7395  2.4919 -1.2909
  151MOL0     H20346   3.118   7.528   3.495  2.6963 -0.3684  1.4068
  151MOL0     H20347   3.212   7.668   3.554 -2.4778  0.4186  1.8987
  151MOL0     H20348   3.072   7.680   3.447 -1.8247 -1.7840  3.2177
  151MOL0     H20349   2.786   7.678   3.100  0.5577 -1.3811  0.1488
  151MOL0     H20350   2.552   7.637   3.053 -0.0041 -0.0550 -2.0636
  151MOL0     H20351   2.455   7.345   2.753  0.7185 -1.5900  0.3514
  151MOL0     H20352   2.453   7.226   2.884  0.8415  0.7723 -0.4512
  151MOL0     H20353   2.221   7.410   2.791 -0.4127  0.9801 -1.4708
  151MOL0     H20354   2.243   7.235   2.760  1.9445  2.1298 -1.6675
  151MOL0     H20355   2.197   7.385   3.024  0.2306 -0.2703  0.2813
  151MOL0     H20356   2.232   7.215   3.018  4.1119  1.8166 -1.9901
  151MOL0     H20357   2.002   7.346   2.865 -2.6932 -1.2864 -0.3250
  151MOL0     H20358   2.035   7.172   2.895  2.1469  0.7476 -1.0455
  151MOL0     H20359   1.977   7.352   3.133  2.6138  0.8037 -1.5596
  151MOL0     H20360   2.032   7.181   3.123  1.4524 -0.7593 -2.2697
  151MOL0     H20361   1.783   7.257   2.971  0.0082 -0.6984 -0.6801
  151MOL0     H20362   1.848   7.109   3.000 -3.6367 -0.2002 -0.4937
  151MOL0     H20363   1.803   7.136   3.264  1.7623  1.0146 -0.2469
  151MOL0     H20364   1.680   7.106   3.160 -0.1823  1.0618 -1.2912
  151MOL0     H20365   1.593   7.278   3.274 -0.3259  2.2761  1.4634
  151MOL0     H20366   1.670   7.382   3.158 -1.0022  0.6040  0.7683
  151MOL0     H20367   2.656   7.246   2.901 -2.6324  0.5146 -1.3952
  151MOL0     H20368   2.883   7.278   2.989 -2.1943 -1.5157 -0.8967
  151MOL0     H20369   3.207   7.488   3.027 -1.4013  2.4325 -0.2989
  151MOL0     H20370   3.453   7.505   3.031 -0.6191  0.0536  0.1139
  151MOL0     H20371   5.475   7.381   3.141 -1.3350  1.4626 -0.1586
  151MOL0     H20372   5.723   7.431   3.116  3.1062  0.0437  5.1927
  151MOL0     H20373   6.127   7.577   2.946 -2.3997 -3.7791  2.0018
  151MOL0     H20374   6.354   7.616   2.989 -1.6880  1.3689 -0.7248
  151MOL0     H20375   6.658   7.714   3.215  1.4730  0.6890 -1.4500
  151MOL0     H20376   6.573   7.610   3.102 -1.6344 -1.6555  1.7297
  151MOL0     H20377   6.513   7.810   2.962  2.0097  0.1916 -2.1777
  151MOL0     H20378   6.680   7.827   3.016  0.2403 -1.1312  0.5538
  151MOL0     H20379   6.604   7.973   3.211 -0.4505  0.6827 -0.3190
  151MOL0     H20380   6.444   7.968   3.147 -0.0313  0.3320 -1.1394
  151MOL0     H20381   6.668   8.087   2.978  0.4130  2.4797 -1.0592
  151MOL0     H20382   6.550   8.180   3.072  0.0391  0.1170 -0.7046
  151MOL0     H20383   6.296   8.022   2.772 -0.4464  0.9065 -0.1883
  151MOL0     H20384   6.284   7.695   3.404 -0.4170  3.0048 -0.2330
  151MOL0     H20385   6.043   7.678   3.360 -0.9278  0.3478 -1.5074
  152MOL0     O20386   5.704   6.694  10.353 -0.1922 -0.2614  0.3746
  152MOL0     C20387   5.686   6.752  10.461 -0.5696  0.1095  0.7637
  152MOL0     O20388   5.578   6.739  10.537 -0.4624  0.0932 -0.3110
  152MOL0     C20389   5.489   6.648  10.503  0.4422  0.6054 -0.4505
  152MOL0     C20390   5.357   6.694  10.497 -0.2970 -0.0731  1.0024
  152MOL0     C20391   5.259   6.606  10.459 -0.5704  1.1919  0.0729
  152MOL0     C20392   5.284   6.472  10.435  0.0634 -0.2891  0.1043
  152MOL0     O20393   5.185   6.388  10.404 -0.0520 -0.0191 -0.1652
  152MOL0     C20394   5.066   6.384  10.491  0.8457  0.5169 -0.0020
  152MOL0     C20395   5.094   6.279  10.589 -0.1976  0.2791 -0.6080
  152MOL0     C20396   4.986   6.244  10.693  0.1647 -0.7991  0.7235
  152MOL0     C20397   4.857   6.172  10.622 -0.1194  0.0755  0.8314
  152MOL0     C20398   4.795   6.057  10.709  0.0505  0.7362  1.2301
  152MOL0     C20399   4.757   6.101  10.845 -0.7013  0.0024 -0.1420
  152MOL0     C20400   4.661   6.002  10.918  0.2341 -0.5665 -0.3634
  152MOL0     C20401   4.515   6.015  10.866 -0.5921 -0.1128  0.3332
  152MOL0     N20402   4.427   5.941  10.954  1.0243  0.0014  0.9487
  152MOL0     C20403   4.437   5.813  11.015  0.2378 -0.3566 -1.1307
  152MOL0     C20404   4.311   5.792  11.076 -0.9151 -0.0105  0.5527
  152MOL0     C20405   4.267   5.667  11.145 -0.6523  0.2325 -0.3226
  152MOL0     C20406   4.114   5.646  11.149  0.2844  0.1849 -0.4507
  152MOL0     C20407   4.088   5.507  11.209  0.5365 -0.3467 -0.9581
  152MOL0     C20408   3.947   5.455  11.189  0.0456  0.7552 -0.0968
  152MOL0     O20409   3.863   5.557  11.254 -0.2388  1.3657 -0.0118
  152MOL0     C20410   3.727   5.541  11.233  0.3714 -0.7582  0.6968
  152MOL0     C20411   3.662   5.414  11.220  0.0921  0.4369 -0.2074
  152MOL0     C20412   3.522   5.417  11.215 -0.7344  0.3885  0.1396
  152MOL0     C20413   3.462   5.279  11.213 -0.4399  0.8273 -0.7253
  152MOL0     C20414   3.445   5.537  11.221  0.2273  0.2683  0.6618
  152MOL0     C20415   3.298   5.536  11.229  0.4911  0.6685 -0.7961
  152MOL0     O20416   3.229   5.640  11.297  0.3698  0.7771 -0.1002
  152MOL0     C20417   3.095   5.649  11.311  0.1167  0.4252  0.6119
  152MOL0     C20418   3.035   5.548  11.390  0.5544  0.5478  0.1094
  152MOL0     C20419   2.892   5.565  11.419 -0.2706 -0.0712 -0.3725
  152MOL0     C20420   2.823   5.678  11.379  0.1227 -0.2865 -0.2530
  152MOL0     O20421   2.696   5.677  11.418 -0.3503 -0.4234 -0.6760
  152MOL0     C20422   2.608   5.771  11.376 -0.7141 -0.2575 -0.5892
  152MOL0     C20423   2.485   5.728  11.456  0.2367  0.7839  0.2177
  152MOL0     C20424   2.507   5.786  11.604  0.0714  0.4885  0.0962
  152MOL0     C20425   2.379   5.765  11.687 -0.4009  0.6996  0.4701
  152MOL0     C20426   2.416   5.786  11.830  0.7515  0.3783 -1.0446
  152MOL0     C20427   2.303   5.843  11.916  0.9348  0.8141 -0.1775
  152MOL0     C20428   2.210   5.723  11.963 -0.8181 -0.0408  0.3797
  152MOL0     C20429   2.109   5.663  11.861 -0.3314 -0.2389 -0.4419
  152MOL0    Cl20430   1.989   5.790  11.836 -0.2558  0.1439 -0.1616
  152MOL0     C20431   2.886   5.776  11.311  0.4124  0.3890 -0.2952
  152MOL0     C20432   3.020   5.762  11.273  0.3973  0.0513  0.8425
  152MOL0     O20433   3.241   5.449  11.168 -0.1187 -0.0797  0.1395
  152MOL0     C20434   3.517   5.661  11.219  0.1789  0.3459  0.3271
  152MOL0     C20435   3.657   5.655  11.224  0.7968  0.1366 -0.1849
  152MOL0     N20436   4.240   5.907  11.063 -0.3481 -0.1995 -0.4456
  152MOL0     N20437   4.310   5.997  11.000 -0.2077 -0.1961 -0.0474
  152MOL0     C20438   5.411   6.427  10.447  0.2777  1.2668 -0.4473
  152MOL0     C20439   5.519   6.512  10.482  0.0321 -0.2379  0.4192
  152MOL0     C20440   5.793   6.830  10.513  0.8104 -0.4567  0.1691
  152MOL0     C20441   5.782   6.904  10.633  0.2164 -0.1481 -0.3481
  152MOL0     C20442   5.900   6.962  10.685 -0.5915 -0.3707 -0.9929
  152MOL0     C20443   6.019   6.965  10.612  0.0854  0.8642  0.0125
  152MOL0     O20444   6.128   7.018  10.675 -0.2275  0.7263 -0.3197
  152MOL0     C20445   6.267   6.999  10.623  0.1284 -0.0117 -0.2576
  152MOL0     C20446   6.350   7.113  10.688  0.9016 -0.1114  0.3709
  152MOL0     C20447   6.385   7.087  10.825 -0.2554 -0.3121 -0.1444
  152MOL0     C20448   6.508   7.160  10.879  0.1014  0.3076  0.2415
  152MOL0     C20449   6.488   7.300  10.856 -0.4926  0.1995 -0.7368
  152MOL0     C20450   6.472   7.417  10.823 -0.1600 -0.2721  0.2002
  152MOL0     C20451   6.024   6.889  10.499 -0.2812  0.3583  0.4812
  152MOL0     C20452   5.912   6.830  10.450  0.5544  0.3429  0.2763
  152MOL0     H20453   5.341   6.801  10.510  2.5205  0.5636 -0.0463
  152MOL0     H20454   5.157   6.641  10.441 -1.1274 -0.4748 -0.1382
  152MOL0     H20455   5.035   6.479  10.534 -2.7071 -0.4336 -0.1753
  152MOL0     H20456   4.980   6.343  10.439  0.7011  1.1301 -0.2485
  152MOL0     H20457   5.104   6.182  10.538 -3.4478  0.3553 -1.5854
  152MOL0     H20458   5.189   6.298  10.641 -0.5921  1.0936 -0.1637
  152MOL0     H20459   5.034   6.173  10.761  0.2415 -2.1795 -0.6972
  152MOL0     H20460   4.960   6.325  10.762  0.5537  0.2022 -0.2777
  152MOL0     H20461   4.778   6.244  10.598  0.1927 -0.2747 -1.4794
  152MOL0     H20462   4.880   6.122  10.527 -0.7339  1.6374 -0.1899
  152MOL0     H20463   4.706   6.022  10.657  0.0195 -1.0093  2.3752
  152MOL0     H20464   4.870   5.978  10.723 -0.1099  0.4341  0.4260
  152MOL0     H20465   4.841   6.127  10.910 -1.1535  1.9755 -0.2785
  152MOL0     H20466   4.706   6.198  10.850 -0.7267 -0.0607  2.2017
  152MOL0     H20467   4.701   5.900  10.926 -0.1718 -0.5927  2.2580
  152MOL0     H20468   4.649   6.043  11.019 -2.3978 -2.7543  0.3292
  152MOL0     H20469   4.519   5.985  10.761 -2.1003  2.2882 -0.4912
  152MOL0     H20470   4.474   6.116  10.857 -1.4449 -0.2335  2.2759
  152MOL0     H20471   4.522   5.746  11.006 -0.9034 -2.0245 -0.0408
  152MOL0     H20472   4.306   5.587  11.082 -0.8850  0.4523 -0.7537
  152MOL0     H20473   4.309   5.654  11.245  1.0957 -2.3347 -1.2860
  152MOL0     H20474   4.073   5.650  11.048 -1.9031 -0.5362  0.3673
  152MOL0     H20475   4.067   5.723  11.211  0.6776 -1.0936  1.5121
  152MOL0     H20476   4.117   5.510  11.315 -1.5225 -2.5785 -0.2374
  152MOL0     H20477   4.154   5.435  11.161 -0.5300 -1.6442 -0.5275
  152MOL0     H20478   3.931   5.354  11.227 -0.2787  0.6238 -0.5789
  152MOL0     H20479   3.925   5.455  11.082  1.7016  4.0030 -0.5675
  152MOL0     H20480   3.723   5.325  11.211  0.3982  0.7060 -0.8348
  152MOL0     H20481   3.540   5.203  11.207 -1.3599 -0.2290  0.1784
  152MOL0     H20482   3.401   5.247  11.298 -0.7904  1.8204 -0.5955
  152MOL0     H20483   3.398   5.273  11.124 -0.5022 -0.5920 -0.6148
  152MOL0     H20484   3.090   5.458  11.413 -1.7062 -1.2032 -0.9646
  152MOL0     H20485   2.829   5.493  11.471 -0.5979 -0.4504 -1.2722
  152MOL0     H20486   2.648   5.869  11.403  2.9242 -1.7255 -0.0107
  152MOL0     H20487   2.583   5.758  11.270 -0.6204  0.3651 -0.6922
  152MOL0     H20488   2.393   5.761  11.408  1.7101 -0.1516 -3.5588
  152MOL0     H20489   2.473   5.620  11.466  0.3414  0.9656  3.7200
  152MOL0     H20490   2.533   5.892  11.601  0.5417  0.5758  3.6171
  152MOL0     H20491   2.592   5.735  11.650  1.3562  1.7317 -0.7928
  152MOL0     H20492   2.296   5.826  11.651 -0.1399  1.5311  1.2527
  152MOL0     H20493   2.347   5.661  11.674 -0.1356  0.7654 -0.9273
  152MOL0     H20494   2.494   5.862  11.843 -1.1292  1.9402  2.5871
  152MOL0     H20495   2.445   5.689  11.871 -0.4089  0.8584  1.0810
  152MOL0     H20496   2.357   5.883  12.003  1.1320  1.8454 -0.7553
  152MOL0     H20497   2.245   5.924  11.870  0.5427  0.8298  0.3251
  152MOL0     H20498   2.153   5.768  12.044 -0.2888  2.5524 -0.5841
  152MOL0     H20499   2.271   5.636  11.992  1.2293  0.2437 -2.5823
  152MOL0     H20500   2.065   5.572  11.902  0.9307 -1.0558 -0.8446
  152MOL0     H20501   2.160   5.635  11.768  2.1995  2.1804  0.0692
  152MOL0     H20502   2.836   5.872  11.308  1.2930  0.9510  1.5341
  152MOL0     H20503   3.077   5.834  11.215 -0.3803  2.0714  2.4608
  152MOL0     H20504   3.454   5.749  11.215 -0.0766  0.2166  1.2464
  152MOL0     H20505   3.707   5.747  11.251 -0.8540  0.3594  2.5177
  152MOL0     H20506   5.430   6.321  10.429 -1.7290  0.5491  1.2762
  152MOL0     H20507   5.620   6.473  10.491  0.5149  1.4806  4.5314
  152MOL0     H20508   5.690   6.912  10.689  0.1801 -2.6317  0.0516
  152MOL0     H20509   5.900   7.013  10.781 -2.2486 -0.5396 -0.8883
  152MOL0     H20510   6.299   6.896  10.645 -2.5704 -0.9943 -0.6041
  152MOL0     H20511   6.267   7.013  10.515  0.4470 -1.0415 -0.4114
  152MOL0     H20512   6.289   7.204  10.680 -2.6509 -2.3788 -0.8481
  152MOL0     H20513   6.444   7.115  10.632  1.5346 -0.4307  1.4145
  152MOL0     H20514   6.407   6.981  10.839  1.8698 -0.0231 -0.9000
  152MOL0     H20515   6.299   7.100  10.890  0.2803 -3.7265  1.4688
  152MOL0     H20516   6.596   7.134  10.819 -0.7386 -2.9732  0.2801
  152MOL0     H20517   6.532   7.134  10.982  2.1418  4.7134  1.1366
  152MOL0     H20518   6.464   7.520  10.796 -0.5629 -0.5661 -0.8571
  152MOL0     H20519   6.119   6.874  10.449 -0.9558 -3.5905  0.0370
  152MOL0     H20520   5.922   6.775  10.358  2.0330  1.4947 -0.2872
  153MOL0     O20521   0.599   6.447   0.376  0.3551 -0.4216  0.7376
  153MOL0     C20522   0.637   6.472   0.486 -0.2144  0.3650  0.0006
  153MOL0     O20523   0.554   6.505   0.594  0.3910  0.1270 -0.1634
  153MOL0     C20524   0.418   6.512   0.582 -0.1060 -1.0673  0.2023
  153MOL0     C20525   0.349   6.487   0.701  0.3982 -0.5452 -0.9410
  153MOL0     C20526   0.209   6.479   0.704 -0.4309 -0.1707  0.3738
  153MOL0     C20527   0.138   6.512   0.582  0.0927 -0.0087  0.8109
  153MOL0     O20528  -0.001   6.513   0.571 -0.3447  0.2963 -0.6212
  153MOL0     C20529  -0.072   6.472   0.685  0.1461  0.5548 -0.7179
  153MOL0     C20530  -0.218   6.427   0.645  0.0983 -0.5048  0.5222
  153MOL0     C20531  -0.315   6.376   0.744 -0.7600  0.4294 -0.9299
  153MOL0     C20532  -0.455   6.365   0.689 -0.4779 -0.4148  0.4860
  153MOL0     C20533  -0.475   6.258   0.575 -0.6587  0.2799  0.0988
  153MOL0     C20534  -0.595   6.311   0.496 -1.2823  0.2951 -0.1308
  153MOL0     C20535  -0.650   6.219   0.387  0.2438  0.0211 -0.6095
  153MOL0     C20536  -0.727   6.305   0.284  0.0219  0.3697 -0.4946
  153MOL0     N20537  -0.849   6.367   0.348 -0.7949  0.7690 -0.0375
  153MOL0     C20538  -0.923   6.290   0.436 -0.2015 -0.8931  0.2017
  153MOL0     C20539  -1.008   6.385   0.488 -0.4562  0.2990  0.1433
  153MOL0     C20540  -1.112   6.362   0.582  0.0373  0.3751 -0.8846
  153MOL0     C20541  -1.245   6.364   0.508  0.3440  0.4965  0.7050
  153MOL0     C20542  -1.347   6.319   0.606 -0.1636  0.7076  0.0439
  153MOL0     C20543  -1.486   6.327   0.534  0.3709 -0.0065  0.8344
  153MOL0     O20544  -1.603   6.291   0.619 -0.1127  0.3516  0.1844
  153MOL0     C20545  -1.723   6.284   0.554  0.4028  0.1207  0.1067
  153MOL0     C20546  -1.796   6.173   0.590  0.7142 -0.2927 -0.6701
  153MOL0     C20547  -1.936   6.154   0.549  0.3803 -0.1181 -0.0891
  153MOL0     C20548  -1.999   6.024   0.579  0.1210 -0.3634  0.5190
  153MOL0     C20549  -1.990   6.259   0.469 -0.2373 -0.7977 -0.0904
  153MOL0     C20550  -2.131   6.263   0.426  0.4133 -0.3938 -0.5419
  153MOL0     O20551  -2.176   6.383   0.362 -0.3805 -0.0649 -0.0856
  153MOL0     C20552  -2.307   6.399   0.340  0.0206  0.3861  0.0385
  153MOL0     C20553  -2.384   6.494   0.409  0.1141  1.0113 -0.2431
  153MOL0     C20554  -2.517   6.506   0.373  0.9905 -0.5302 -0.0441
  153MOL0     C20555  -2.574   6.424   0.274  0.2089  0.4273  0.0657
  153MOL0     O20556  -2.701   6.435   0.230 -0.0546 -0.5534  0.1648
  153MOL0     C20557  -2.781   6.553   0.246  0.3551 -0.7691  0.5404
  153MOL0     C20558  -2.924   6.508   0.228 -0.2955  1.1810  0.3592
  153MOL0     C20559  -3.025   6.610   0.169 -0.0850  0.1095 -0.3542
  153MOL0     C20560  -3.169   6.561   0.176  0.8689  0.0517 -0.7396
  153MOL0     C20561  -3.265   6.642   0.086  0.4180 -0.0487 -1.0044
  153MOL0     C20562  -3.410   6.606   0.114  0.1192 -0.2835 -0.6629
  153MOL0     C20563  -3.461   6.478   0.047 -0.1494 -0.4259  0.1432
  153MOL0     C20564  -3.468   6.500  -0.104 -0.7537 -0.1700  0.1098
  153MOL0    Cl20565  -3.552   6.385  -0.191  0.8493 -0.1235 -0.0762
  153MOL0     C20566  -2.502   6.329   0.223  0.9283  0.3084  0.3087
  153MOL0     C20567  -2.371   6.315   0.252  0.0398  0.0926  0.1098
  153MOL0     O20568  -2.212   6.165   0.450  0.2587 -0.4202  0.5120
  153MOL0     C20569  -1.907   6.356   0.424 -0.2236  0.0064  0.3521
  153MOL0     C20570  -1.771   6.369   0.462  0.3574  0.0111  0.2822
  153MOL0     N20571  -0.974   6.508   0.436 -0.0316 -0.0511 -0.3096
  153MOL0     N20572  -0.884   6.494   0.351 -0.5880 -0.2293  0.7534
  153MOL0     C20573   0.211   6.550   0.468 -0.5785  0.4685 -0.5278
  153MOL0     C20574   0.351   6.556   0.472 -0.2257 -0.6381  0.5871
  153MOL0     C20575   0.777   6.439   0.521 -0.0449 -0.3256 -0.3158
  153MOL0     C20576   0.880   6.389   0.432 -0.1784 -0.0465  0.1137
  153MOL0     C20577   1.011   6.363   0.474  0.8532 -0.2461 -0.6072
  153MOL0     C20578   1.044   6.383   0.610 -0.5242 -0.6427  0.5858
  153MOL0     O20579   1.169   6.361   0.661 -0.0080 -0.0205  0.3624
  153MOL0     C20580   1.269   6.301   0.572 -0.1267 -0.3215 -0.5830
  153MOL0     C20581   1.413   6.307   0.622 -0.4041 -0.1836  0.6805
  153MOL0     C20582   1.531   6.267   0.522  0.0181  0.6997 -0.4499
  153MOL0     C20583   1.647   6.179   0.595 -0.0787 -0.6530  0.0355
  153MOL0     C20584   1.725   6.264   0.689 -0.2839 -0.1497  0.3159
  153MOL0     C20585   1.788   6.338   0.765 -0.6064  0.1805 -0.4388
  153MOL0     C20586   0.951   6.435   0.699  0.2487  0.3655  0.3259
  153MOL0     C20587   0.821   6.470   0.653 -0.0722  0.1493 -1.4466
  153MOL0     H20588   0.408   6.468   0.790  0.6810 -3.7706 -1.6981
  153MOL0     H20589   0.150   6.464   0.794 -1.5128  3.4850  0.4143
  153MOL0     H20590  -0.028   6.386   0.737  1.6925  2.6287  1.6250
  153MOL0     H20591  -0.066   6.552   0.758  0.7247  0.5949 -0.8032
  153MOL0     H20592  -0.260   6.516   0.598  2.2238  0.8829  1.0919
  153MOL0     H20593  -0.203   6.354   0.564  1.5150  0.1703  0.1471
  153MOL0     H20594  -0.285   6.277   0.779 -1.4535  0.6062  0.2281
  153MOL0     H20595  -0.329   6.441   0.832 -2.3856 -1.5748  0.3818
  153MOL0     H20596  -0.520   6.336   0.772 -4.3043 -1.6750 -2.6807
  153MOL0     H20597  -0.499   6.460   0.659  0.2034 -0.4719 -0.7619
  153MOL0     H20598  -0.399   6.242   0.498 -0.9977 -0.7119 -0.0385
  153MOL0     H20599  -0.489   6.161   0.622 -0.4471  0.3382  0.2850
  153MOL0     H20600  -0.676   6.338   0.564 -0.6798 -0.9889  1.1512
  153MOL0     H20601  -0.551   6.398   0.446 -1.4377  0.1220 -0.5731
  153MOL0     H20602  -0.567   6.174   0.332  1.0727  1.3210 -0.4593
  153MOL0     H20603  -0.709   6.136   0.426  0.0852 -0.5122 -1.9029
  153MOL0     H20604  -0.755   6.234   0.206  1.4566 -0.9155  0.0976
  153MOL0     H20605  -0.664   6.383   0.241 -1.0404  1.3561 -0.2989
  153MOL0     H20606  -0.924   6.184   0.457 -0.8588 -1.1798 -1.1659
  153MOL0     H20607  -1.087   6.279   0.648  0.8001  1.1168 -0.2111
  153MOL0     H20608  -1.110   6.434   0.665  1.7942 -1.3091  0.6251
  153MOL0     H20609  -1.234   6.300   0.420  0.1778  2.7534 -1.0520
  153MOL0     H20610  -1.267   6.463   0.466 -0.9757 -0.4227 -0.8969
  153MOL0     H20611  -1.337   6.380   0.696 -1.6407  0.5832  0.3244
  153MOL0     H20612  -1.328   6.217   0.640  1.5366  0.6819 -0.8702
  153MOL0     H20613  -1.494   6.278   0.436 -2.6453  0.4823  0.7448
  153MOL0     H20614  -1.499   6.433   0.512 -2.1155  0.1994  2.8801
  153MOL0     H20615  -1.754   6.110   0.668  0.0170 -1.2799 -1.0793
  153MOL0     H20616  -2.034   5.975   0.488 -1.5802 -0.5483  1.2297
  153MOL0     H20617  -1.930   5.959   0.634  0.4099 -1.3534 -0.9614
  153MOL0     H20618  -2.083   6.046   0.646 -0.7583  1.9690 -1.2275
  153MOL0     H20619  -2.342   6.547   0.494 -2.3231  1.0749  1.0178
  153MOL0     H20620  -2.578   6.582   0.420  0.9779  1.0883 -2.4637
  153MOL0     H20621  -2.770   6.590   0.349  3.4929 -1.1013  0.4067
  153MOL0     H20622  -2.758   6.637   0.181  0.6012 -0.0764  1.5001
  153MOL0     H20623  -2.922   6.420   0.163 -1.5129  1.5585 -0.2145
  153MOL0     H20624  -2.968   6.481   0.324  1.0574  0.1553  0.7201
  153MOL0     H20625  -2.997   6.626   0.064 -0.2721 -0.2267 -0.4583
  153MOL0     H20626  -3.007   6.705   0.221  0.9016 -0.7521  0.9313
  153MOL0     H20627  -3.172   6.458   0.139  4.0883 -0.4520  0.1568
  153MOL0     H20628  -3.206   6.564   0.278  1.6873 -1.2994 -0.3814
  153MOL0     H20629  -3.250   6.623  -0.021 -0.7737 -2.9403 -0.7603
  153MOL0     H20630  -3.247   6.748   0.109  4.5016 -0.4319 -1.6030
  153MOL0     H20631  -3.428   6.591   0.221  0.1016  1.1559 -0.4389
  153MOL0     H20632  -3.483   6.683   0.086 -0.2513 -0.6365 -0.6725
  153MOL0     H20633  -3.562   6.448   0.076 -1.3935 -1.2743 -4.2746
  153MOL0     H20634  -3.400   6.389   0.061  1.6033  0.7842  0.4774
  153MOL0     H20635  -3.369   6.508  -0.150 -1.9925  1.9610 -2.4765
  153MOL0     H20636  -3.509   6.600  -0.125  0.6081  0.6590  1.1715
  153MOL0     H20637  -2.550   6.252   0.163  2.0511 -0.6316  0.5745
  153MOL0     H20638  -2.311   6.231   0.215  1.7110  0.3393  2.1110
  153MOL0     H20639  -1.950   6.422   0.350 -1.3853 -2.0108 -0.8688
  153MOL0     H20640  -1.708   6.448   0.421  0.9200 -1.1004 -1.0771
  153MOL0     H20641   0.158   6.579   0.378 -2.3435 -1.7588 -0.2827
  153MOL0     H20642   0.410   6.589   0.387 -1.2885 -0.7561 -0.2332
  153MOL0     H20643   0.860   6.396   0.326  0.1249  2.5117  0.1600
  153MOL0     H20644   1.079   6.322   0.400  2.2357 -0.7781  0.9070
  153MOL0     H20645   1.225   6.201   0.562 -1.8417  0.5656 -2.6569
  153MOL0     H20646   1.274   6.353   0.476 -0.6901  0.4018 -0.2345
  153MOL0     H20647   1.422   6.242   0.710  0.1668 -3.6763 -1.7901
  153MOL0     H20648   1.426   6.415   0.636 -1.5857  0.0281  0.2693
  153MOL0     H20649   1.568   6.362   0.481  0.0040  0.9013  0.0075
  153MOL0     H20650   1.482   6.206   0.445 -2.0607 -0.8883  1.9572
  153MOL0     H20651   1.714   6.139   0.519 -0.7057 -1.0238 -0.3351
  153MOL0     H20652   1.607   6.093   0.650 -1.2024 -0.2381 -0.1127
  153MOL0     H20653   1.833   6.409   0.832  0.9960  0.2344 -1.5296
  153MOL0     H20654   0.966   6.451   0.805 -1.8064  0.2705  0.6825
  153MOL0     H20655   0.748   6.503   0.727  0.8018 -0.5942 -0.1978
  154MOL0     O20656   2.811  10.265   8.242  0.1474 -0.6554  1.1475
  154MOL0     C20657   2.792  10.179   8.325 -0.5874  0.1543  0.6622
  154MOL0     O20658   2.674  10.117   8.338 -0.1538  0.3535 -0.2276
  154MOL0     C20659   2.556  10.170   8.289  0.2853 -0.4046  0.0212
  154MOL0     C20660   2.529  10.307   8.279 -0.4876  0.4748 -0.2635
  154MOL0     C20661   2.411  10.351   8.238  0.7963 -0.4660  0.2239
  154MOL0     C20662   2.304  10.271   8.203  0.0890  0.4017  0.3686
  154MOL0     O20663   2.186  10.337   8.165  0.0764 -0.3749 -0.0303
  154MOL0     C20664   2.086  10.263   8.100  0.4746 -0.2917 -0.5458
  154MOL0     C20665   1.960  10.350   8.081  0.8299  0.2252 -0.1388
  154MOL0     C20666   1.858  10.262   8.004  0.4462  0.6425  0.2216
  154MOL0     C20667   1.719  10.312   8.015  0.6351 -0.3176 -0.9172
  154MOL0     C20668   1.624  10.240   7.917 -0.1102  0.8033 -0.7809
  154MOL0     C20669   1.491  10.316   7.912  0.3301  0.0636 -0.4100
  154MOL0     C20670   1.418  10.325   8.055 -0.6956  0.2865  0.6407
  154MOL0     C20671   1.263  10.354   8.031 -0.2935 -0.2579 -0.2029
  154MOL0     N20672   1.231  10.494   7.983  0.3472  0.2648  0.2364
  154MOL0     C20673   1.217  10.604   8.056  0.2740  0.3498 -0.1211
  154MOL0     C20674   1.159  10.701   7.974 -0.0309 -0.3594  0.3858
  154MOL0     C20675   1.155  10.847   8.007  0.3987  0.6976  0.2299
  154MOL0     C20676   1.006  10.891   7.991  0.2804 -0.1796 -0.2244
  154MOL0     C20677   0.985  11.036   8.029 -0.0817 -0.9090 -1.1731
  154MOL0     C20678   0.836  11.065   8.060 -0.3745  0.5984  0.0084
  154MOL0     O20679   0.809  11.014   8.188 -0.1290  0.0891 -0.0186
  154MOL0     C20680   0.685  11.040   8.234 -0.7013  0.0734 -1.3180
  154MOL0     C20681   0.674  11.055   8.370  0.0660  0.5659  0.0095
  154MOL0     C20682   0.554  11.091   8.433  0.7552 -0.3036 -0.6604
  154MOL0     C20683   0.559  11.122   8.587  0.7205 -0.0743  0.1803
  154MOL0     C20684   0.437  11.104   8.354 -0.5207  0.7119 -0.0377
  154MOL0     C20685   0.307  11.160   8.401  0.5379 -0.5418  0.4977
  154MOL0     O20686   0.209  11.169   8.305  0.7723 -0.9739  0.4692
  154MOL0     C20687   0.082  11.215   8.341 -0.6376  0.6916  0.7850
  154MOL0     C20688  -0.032  11.143   8.301  0.4907  0.0546 -0.8360
  154MOL0     C20689  -0.162  11.182   8.337  0.0689  0.9351 -0.5836
  154MOL0     C20690  -0.183  11.283   8.426 -0.9037  0.0971  0.4687
  154MOL0     O20691  -0.315  11.315   8.458 -0.6885 -0.6538 -0.3900
  154MOL0     C20692  -0.336  11.458   8.496  0.1838 -0.0345  0.3720
  154MOL0     C20693  -0.482  11.498   8.471 -0.6750  0.5277  0.0885
  154MOL0     C20694  -0.514  11.523   8.327  0.7122 -0.1117  0.2165
  154MOL0     C20695  -0.660  11.522   8.298  0.1647 -0.9766  0.2530
  154MOL0     C20696  -0.737  11.632   8.388  0.6231 -0.4230  0.1514
  154MOL0     C20697  -0.681  11.777   8.394 -0.5268  0.5009  1.0708
  154MOL0     C20698  -0.773  11.883   8.438  0.2188  0.2194 -0.1713
  154MOL0     C20699  -0.805  11.877   8.585 -0.5878  0.2788 -0.0579
  154MOL0    Cl20700  -0.662  11.928   8.693  0.3112 -0.2134 -0.2292
  154MOL0     C20701  -0.071  11.353   8.468  0.2745  1.1120 -0.4718
  154MOL0     C20702   0.058  11.327   8.420  0.6422  0.1127  0.4035
  154MOL0     O20703   0.288  11.172   8.525 -0.2962 -0.1451  0.3811
  154MOL0     C20704   0.451  11.065   8.212 -0.6124  0.2821  1.4889
  154MOL0     C20705   0.575  11.043   8.155  0.0961  0.1275 -0.5164
  154MOL0     N20706   1.136  10.643   7.853 -0.2663 -0.0401  0.2897
  154MOL0     N20707   1.164  10.521   7.868 -0.1734  0.2260 -0.3148
  154MOL0     C20708   2.333  10.132   8.196 -0.0289 -0.4216 -0.6779
  154MOL0     C20709   2.456  10.083   8.247  0.7958  0.8577  0.4327
  154MOL0     C20710   2.907  10.123   8.404  0.4749  0.5679  0.8765
  154MOL0     C20711   3.028  10.185   8.405 -0.1745 -0.4141 -0.3140
  154MOL0     C20712   3.145  10.131   8.466  0.3556 -0.2868 -0.4601
  154MOL0     C20713   3.137  10.012   8.529  0.6037 -0.1886 -0.3974
  154MOL0     O20714   3.244   9.950   8.583 -0.0213 -0.0227  0.2523
  154MOL0     C20715   3.378   9.998   8.586  0.2970 -0.3136 -0.1592
  154MOL0     C20716   3.453   9.902   8.686  0.5240  0.3809 -0.4159
  154MOL0     C20717   3.388   9.923   8.826 -0.0554 -0.4104 -0.2161
  154MOL0     C20718   3.461   9.857   8.950  0.3756  0.6986 -0.9805
  154MOL0     C20719   3.372   9.844   9.062  0.2513  0.0299 -0.1224
  154MOL0     C20720   3.285   9.837   9.149 -1.0569 -0.4299  0.3412
  154MOL0     C20721   3.011   9.948   8.539  0.5451  0.7142  0.6782
  154MOL0     C20722   2.897  10.006   8.476  0.1142  0.6546 -0.3520
  154MOL0     H20723   2.595  10.383   8.319 -0.5919  0.8014 -0.7040
  154MOL0     H20724   2.403  10.459   8.232 -0.1962 -0.6097 -1.6087
  154MOL0     H20725   2.120  10.236   8.000  2.0721  1.3571 -0.4914
  154MOL0     H20726   2.060  10.177   8.163  3.3174 -0.8097  0.0664
  154MOL0     H20727   1.912  10.386   8.173 -0.8344  1.9058 -1.5720
  154MOL0     H20728   1.985  10.439   8.024  0.6387  1.0175  0.9932
  154MOL0     H20729   1.893  10.260   7.901  1.7463  0.1045  0.6505
  154MOL0     H20730   1.845  10.157   8.031 -4.7722  0.8164 -0.6521
  154MOL0     H20731   1.687  10.302   8.119  0.7835 -0.6300 -0.8995
  154MOL0     H20732   1.707  10.417   7.990 -1.1185 -0.6740 -1.7005
  154MOL0     H20733   1.667  10.240   7.816  0.8285  1.9006 -0.4061
  154MOL0     H20734   1.608  10.136   7.947 -2.4889  0.8448 -1.6906
  154MOL0     H20735   1.510  10.418   7.876  3.1618 -0.0791  0.4000
  154MOL0     H20736   1.424  10.262   7.845 -2.2161  2.8876 -0.3836
  154MOL0     H20737   1.431  10.223   8.094 -0.1379  0.0566 -0.1128
  154MOL0     H20738   1.469  10.385   8.129 -0.4597 -1.7271  2.2026
  154MOL0     H20739   1.205  10.340   8.123  1.5900 -0.9396  0.9512
  154MOL0     H20740   1.220  10.278   7.964 -1.6522 -0.2270  0.5844
  154MOL0     H20741   1.259  10.626   8.154 -0.5091 -2.3457  0.9187
  154MOL0     H20742   1.199  10.844   8.108 -2.2882  0.0726  1.4628
  154MOL0     H20743   1.218  10.899   7.934 -1.0571  1.4165 -0.5545
  154MOL0     H20744   0.948  10.838   8.067  1.1823 -1.2229 -0.2267
  154MOL0     H20745   0.970  10.872   7.889 -3.2590  2.3004  0.3600
  154MOL0     H20746   1.012  11.096   7.942  0.1722  0.8141  0.0621
  154MOL0     H20747   1.046  11.063   8.115  1.2907 -0.8480 -2.1364
  154MOL0     H20748   0.778  11.021   7.978  0.5413 -0.7774  0.0528
  154MOL0     H20749   0.820  11.173   8.063 -1.5516  0.4256  0.2221
  154MOL0     H20750   0.756  11.062   8.441 -1.9637 -2.7222  3.0156
  154MOL0     H20751   0.661  11.124   8.626  1.5752 -0.9574 -1.8788
  154MOL0     H20752   0.505  11.217   8.599 -4.4318 -2.5660 -0.3102
  154MOL0     H20753   0.518  11.032   8.633  0.0609  0.1173 -0.0225
  154MOL0     H20754  -0.021  11.054   8.240 -2.5136  0.1321 -1.6452
  154MOL0     H20755  -0.255  11.140   8.301  0.2705 -0.3004  0.2884
  154MOL0     H20756  -0.317  11.476   8.602 -1.8548 -2.3597  1.2222
  154MOL0     H20757  -0.282  11.517   8.421 -0.2274  0.1377  0.2115
  154MOL0     H20758  -0.551  11.423   8.511 -1.7083  0.8529 -1.0042
  154MOL0     H20759  -0.498  11.588   8.530  1.2304  0.1110  1.3402
  154MOL0     H20760  -0.470  11.448   8.260 -2.9624  1.2934 -4.2966
  154MOL0     H20761  -0.467  11.615   8.292  1.0858  0.0123  1.0168
  154MOL0     H20762  -0.682  11.529   8.191 -2.0034 -1.8996  0.5879
  154MOL0     H20763  -0.703  11.425   8.324  1.3768 -1.3382  0.9791
  154MOL0     H20764  -0.743  11.596   8.491  3.4740 -1.9758 -0.1441
  154MOL0     H20765  -0.842  11.638   8.358 -0.0408 -2.1297  1.9747
  154MOL0     H20766  -0.587  11.778   8.449  0.4968 -1.3822 -0.5142
  154MOL0     H20767  -0.661  11.796   8.288 -0.3013  1.3975  1.2655
  154MOL0     H20768  -0.866  11.873   8.381 -2.3895  1.9129  3.4131
  154MOL0     H20769  -0.724  11.977   8.413 -2.5586  2.0784  0.8076
  154MOL0     H20770  -0.830  11.778   8.625 -0.4949  1.3960  3.0382
  154MOL0     H20771  -0.895  11.936   8.603 -0.5310  0.5236 -0.5652
  154MOL0     H20772  -0.081  11.430   8.543  0.0405  0.4234  0.2109
  154MOL0     H20773   0.136  11.398   8.445  2.3279 -1.1590 -1.0670
  154MOL0     H20774   0.371  11.074   8.140 -0.1783  1.3065  1.1223
  154MOL0     H20775   0.589  11.033   8.048  1.1495 -0.1778 -0.3594
  154MOL0     H20776   2.262  10.058   8.159 -0.2538 -0.8571  0.5756
  154MOL0     H20777   2.475   9.976   8.251  0.6561  0.7046 -1.8137
  154MOL0     H20778   3.037  10.276   8.347 -0.1704  0.8350  1.5500
  154MOL0     H20779   3.242  10.176   8.479  0.7935 -1.3893  0.2611
  154MOL0     H20780   3.427   9.972   8.492  1.4796 -2.0625  0.8739
  154MOL0     H20781   3.380  10.101   8.623 -2.0847 -0.1179 -0.4119
  154MOL0     H20782   3.563   9.907   8.682  0.8142  1.3973  3.8320
  154MOL0     H20783   3.427   9.799   8.664  0.4968 -0.5050  3.1523
  154MOL0     H20784   3.281   9.901   8.831 -0.5453  1.4850 -1.3366
  154MOL0     H20785   3.389  10.031   8.845 -1.6294 -0.7001  1.9584
  154MOL0     H20786   3.538   9.923   8.992 -0.5142  1.3507 -0.3431
  154MOL0     H20787   3.508   9.766   8.913  1.5559  1.1844 -0.7270
  154MOL0     H20788   3.219   9.828   9.233  1.6099 -2.2660  2.4543
  154MOL0     H20789   3.009   9.852   8.590  1.8154  0.4681  0.2908
  154MOL0     H20790   2.801   9.957   8.479 -0.4403  1.6898 -0.7238
  155MOL0     O20791   2.792   6.997   2.853 -0.1377 -0.2750  0.0222
  155MOL0     C20792   2.813   6.978   2.971  0.0307 -0.3900 -0.0634
  155MOL0     O20793   2.725   6.939   3.068  0.1643  0.5384 -0.0418
  155MOL0     C20794   2.594   6.908   3.039 -0.5778 -0.7478  0.7442
  155MOL0     C20795   2.494   6.990   3.087 -0.0910 -0.5817 -0.5505
  155MOL0     C20796   2.362   6.955   3.062  0.1635  0.7532 -0.2282
  155MOL0     C20797   2.324   6.844   2.995 -0.1540  0.3337  0.3480
  155MOL0     O20798   2.190   6.830   2.967 -0.0949  1.2696 -0.0173
  155MOL0     C20799   2.148   6.703   2.928 -0.1500 -0.0070  0.0159
  155MOL0     C20800   1.995   6.694   2.943  0.5122  0.5617  0.4350
  155MOL0     C20801   1.946   6.689   3.091 -0.0201 -0.3380  0.1155
  155MOL0     C20802   1.797   6.648   3.107 -0.0773 -0.1429 -0.2219
  155MOL0     C20803   1.769   6.651   3.260  0.0558  0.3226  0.0724
  155MOL0     C20804   1.623   6.614   3.285 -0.3039 -0.4984  0.3003
  155MOL0     C20805   1.570   6.631   3.430 -0.4951  0.5309  0.3642
  155MOL0     C20806   1.416   6.641   3.429 -0.2958  0.5548 -0.5851
  155MOL0     N20807   1.386   6.776   3.381 -0.4111  0.4165  0.4030
  155MOL0     C20808   1.408   6.892   3.452  0.8098 -0.5234  0.1053
  155MOL0     C20809   1.363   6.990   3.369  0.0613 -0.2652 -0.3783
  155MOL0     C20810   1.374   7.143   3.397  0.4726 -0.1130 -0.0733
  155MOL0     C20811   1.285   7.171   3.518 -0.2147  0.3767  0.4518
  155MOL0     C20812   1.306   7.310   3.567 -0.2911 -0.7738  0.7988
  155MOL0     C20813   1.203   7.340   3.678 -0.4150 -0.1330  0.4954
  155MOL0     O20814   1.070   7.327   3.641 -0.5029  0.7227 -0.3530
  155MOL0     C20815   0.978   7.364   3.735  0.3884 -0.2411  0.1166
  155MOL0     C20816   0.846   7.335   3.710  0.8979  0.2416  0.0152
  155MOL0     C20817   0.745   7.350   3.802 -0.0648  0.1804 -0.2659
  155MOL0     C20818   0.607   7.325   3.746 -0.4057  0.7132  0.4428
  155MOL0     C20819   0.770   7.403   3.936 -0.3051  0.5080 -0.7431
  155MOL0     C20820   0.666   7.404   4.045 -0.1549  0.2054  0.1488
  155MOL0     O20821   0.536   7.376   4.018 -0.0415 -0.8076 -0.4341
  155MOL0     C20822   0.433   7.402   4.100 -0.1848 -0.5192 -0.6180
  155MOL0     C20823   0.320   7.325   4.093  0.3137  0.2356  0.0277
  155MOL0     C20824   0.206   7.347   4.176  0.2676 -0.1832 -0.3469
  155MOL0     C20825   0.205   7.448   4.272 -0.3647 -0.2735  0.2245
  155MOL0     O20826   0.116   7.471   4.373 -0.2397 -0.3258 -0.3407
  155MOL0     C20827   0.040   7.359   4.406  1.1143  0.1710 -0.7726
  155MOL0     C20828  -0.050   7.393   4.523 -0.7311  0.3744 -0.4883
  155MOL0     C20829  -0.152   7.502   4.482  0.3125  0.1407 -0.5573
  155MOL0     C20830  -0.258   7.517   4.592 -0.1786  0.2878  0.2393
  155MOL0     C20831  -0.331   7.645   4.578  0.1912 -0.6069  0.1660
  155MOL0     C20832  -0.441   7.652   4.683  0.8275 -0.3981  0.6738
  155MOL0     C20833  -0.531   7.771   4.660  0.1507 -0.3288  0.3795
  155MOL0     C20834  -0.665   7.748   4.737 -0.0057  0.0664  1.2865
  155MOL0    Cl20835  -0.745   7.898   4.741 -0.3037  0.0968 -0.2371
  155MOL0     C20836   0.311   7.538   4.267 -0.7199  0.7605 -0.2984
  155MOL0     C20837   0.418   7.512   4.185  0.0911  0.3649  0.0457
  155MOL0     O20838   0.708   7.433   4.151 -0.2837 -0.6203  0.0089
  155MOL0     C20839   0.895   7.456   3.947 -0.1202 -0.1520 -0.0862
  155MOL0     C20840   1.000   7.418   3.859 -0.1761 -0.2526 -0.2274
  155MOL0     N20841   1.311   6.927   3.256  0.4481 -1.5501  0.7090
  155MOL0     N20842   1.312   6.805   3.272  0.2202 -0.4586  0.1183
  155MOL0     C20843   2.431   6.753   2.949 -0.1508  0.2404  0.4021
  155MOL0     C20844   2.562   6.788   2.963 -0.6120 -0.5178 -0.8278
  155MOL0     C20845   2.947   7.024   3.009 -0.6755  0.2353  0.5522
  155MOL0     C20846   3.047   7.058   2.922  0.2564  0.5348 -0.3535
  155MOL0     C20847   3.178   7.095   2.956  0.0459  0.8448 -0.6021
  155MOL0     C20848   3.210   7.097   3.093 -1.1658 -0.4930 -0.0082
  155MOL0     O20849   3.337   7.134   3.136  0.2072  0.2955  0.0391
  155MOL0     C20850   3.380   7.118   3.282  0.2966 -0.6163  0.7141
  155MOL0     C20851   3.523   7.095   3.307 -0.8591 -0.5905 -0.1709
  155MOL0     C20852   3.620   7.204   3.255 -0.6370  0.0896  0.5006
  155MOL0     C20853   3.767   7.176   3.296  0.1749  0.3187  0.3446
  155MOL0     C20854   3.809   7.044   3.256 -0.2941 -0.6080  1.1391
  155MOL0     C20855   3.861   6.938   3.226 -0.2752  0.2933  1.1769
  155MOL0     C20856   3.105   7.066   3.187 -0.7561 -0.1619 -0.6005
  155MOL0     C20857   2.973   7.035   3.143 -0.3062 -0.1768 -0.2562
  155MOL0     H20858   2.524   7.074   3.149 -0.1076  0.6781 -2.1916
  155MOL0     H20859   2.282   7.013   3.107  0.8984  0.4713  1.5402
  155MOL0     H20860   2.178   6.700   2.823  0.8717  2.6537  0.1614
  155MOL0     H20861   2.204   6.636   2.995  2.1402  0.6583 -1.1154
  155MOL0     H20862   1.940   6.777   2.896 -1.9678 -2.9029 -3.5135
  155MOL0     H20863   1.965   6.601   2.894  1.8324  1.1435 -1.6210
  155MOL0     H20864   2.007   6.611   3.138  0.8785 -1.7725 -3.1438
  155MOL0     H20865   1.974   6.788   3.127  4.6634 -0.5360 -2.3363
  155MOL0     H20866   1.739   6.716   3.044  0.3234  3.0729  2.6039
  155MOL0     H20867   1.785   6.547   3.067 -0.6010 -0.2828  0.2818
  155MOL0     H20868   1.830   6.584   3.322 -0.1479 -1.3954 -1.4758
  155MOL0     H20869   1.777   6.755   3.292 -2.2801  0.6989 -0.3987
  155MOL0     H20870   1.565   6.675   3.214 -0.4459 -0.1155  0.7419
  155MOL0     H20871   1.614   6.509   3.257 -2.4038 -0.5483  0.9978
  155MOL0     H20872   1.609   6.545   3.485  1.1581 -0.0822 -1.5964
  155MOL0     H20873   1.616   6.721   3.472  1.4382  0.3142 -1.1426
  155MOL0     H20874   1.395   6.629   3.535  2.2989 -1.8076 -0.2183
  155MOL0     H20875   1.366   6.562   3.371 -2.4385  0.4646  1.2585
  155MOL0     H20876   1.450   6.890   3.552 -0.4514 -3.8688  0.7232
  155MOL0     H20877   1.478   7.165   3.423 -0.2531  0.6809  2.4546
  155MOL0     H20878   1.343   7.207   3.314 -0.4871 -1.0782 -0.4931
  155MOL0     H20879   1.313   7.102   3.598 -1.0444  0.4180  0.7834
  155MOL0     H20880   1.185   7.158   3.477  0.1691 -1.5362  0.0019
  155MOL0     H20881   1.280   7.386   3.493 -0.7052 -1.9575 -0.3320
  155MOL0     H20882   1.411   7.322   3.593  0.3080 -1.9554 -0.8485
  155MOL0     H20883   1.219   7.441   3.714 -2.4474  0.7348 -0.8447
  155MOL0     H20884   1.223   7.277   3.765  1.7136  1.5856  1.3490
  155MOL0     H20885   0.822   7.292   3.613  1.9409 -0.2571 -0.0378
  155MOL0     H20886   0.611   7.317   3.637  2.2983  1.8932  0.3700
  155MOL0     H20887   0.562   7.238   3.793  2.9791 -0.4001  1.9296
  155MOL0     H20888   0.540   7.409   3.766 -1.5438 -0.6360  2.6979
  155MOL0     H20889   0.319   7.234   4.033  2.0065  0.6480 -0.6837
  155MOL0     H20890   0.125   7.275   4.179 -0.5734  0.7281 -0.6981
  155MOL0     H20891  -0.030   7.331   4.327  1.3095 -1.3552 -0.4231
  155MOL0     H20892   0.096   7.276   4.449 -3.1706 -0.9688  3.4835
  155MOL0     H20893  -0.099   7.298   4.548  0.2842 -0.9939 -3.3574
  155MOL0     H20894   0.018   7.427   4.602  1.3997  1.1228 -2.5334
  155MOL0     H20895  -0.198   7.454   4.395  2.5903  0.7594 -2.2130
  155MOL0     H20896  -0.101   7.594   4.452  2.8355 -0.9471  0.1249
  155MOL0     H20897  -0.326   7.432   4.585 -0.3014  0.4483 -0.7219
  155MOL0     H20898  -0.203   7.514   4.686 -0.4815 -0.7971  0.3969
  155MOL0     H20899  -0.375   7.644   4.478  0.3810  0.2604  0.0658
  155MOL0     H20900  -0.262   7.730   4.587 -0.1897 -0.3519  0.7220
  155MOL0     H20901  -0.490   7.554   4.674  0.0654 -0.0239  0.6872
  155MOL0     H20902  -0.404   7.659   4.786  1.9236  5.2416  0.1816
  155MOL0     H20903  -0.556   7.790   4.555 -1.8280 -2.7165  0.3206
  155MOL0     H20904  -0.494   7.864   4.704 -0.2572 -0.8675  1.9242
  155MOL0     H20905  -0.643   7.729   4.843  2.4658 -1.1747  0.6328
  155MOL0     H20906  -0.719   7.663   4.694 -0.1509  1.5919 -1.7741
  155MOL0     H20907   0.316   7.621   4.337 -0.5009 -0.2381  0.9017
  155MOL0     H20908   0.500   7.582   4.199 -0.4937  0.4548  4.0354
  155MOL0     H20909   0.932   7.516   4.029 -0.9846  0.4547 -0.1254
  155MOL0     H20910   1.102   7.451   3.877  0.1927 -1.8850  0.8762
  155MOL0     H20911   2.407   6.657   2.904 -1.3102 -0.3129  2.1176
  155MOL0     H20912   2.635   6.715   2.931 -3.4307 -2.8352 -2.4073
  155MOL0     H20913   3.019   7.043   2.818  0.9912 -1.4902 -0.3118
  155MOL0     H20914   3.249   7.130   2.882 -1.1158  4.5106 -0.1963
  155MOL0     H20915   3.345   7.208   3.333  0.5140 -0.5415  0.7300
  155MOL0     H20916   3.324   7.038   3.331 -1.5165 -0.3901 -0.8553
  155MOL0     H20917   3.547   6.997   3.263 -1.3846 -0.9313  0.2846
  155MOL0     H20918   3.535   7.082   3.415 -2.2215  1.6104  0.3172
  155MOL0     H20919   3.579   7.297   3.294 -1.0357  0.6077 -1.0719
  155MOL0     H20920   3.613   7.199   3.146  1.7607  1.5716  0.2158
  155MOL0     H20921   3.768   7.185   3.405 -3.6886 -1.5277  0.7057
  155MOL0     H20922   3.842   7.248   3.262  0.0543  0.9852  1.4603
  155MOL0     H20923   3.904   6.844   3.200 -1.4650  0.1190 -0.3264
  155MOL0     H20924   3.121   7.080   3.293 -1.3770 -1.8671 -0.2517
  155MOL0     H20925   2.902   7.010   3.220 -0.3258 -1.6708 -0.7086
  156MOL0     O20926   4.222   6.093   3.136 -0.2130 -0.5027  0.3443
  156MOL0     C20927   4.314   6.165   3.183  0.2651 -0.4013  0.4936
  156MOL0     O20928   4.301   6.297   3.224 -0.1285  0.3473 -0.1398
  156MOL0     C20929   4.179   6.351   3.184 -0.1030 -0.9329  0.4668
  156MOL0     C20930   4.118   6.343   3.056  0.2412 -0.8154 -0.9296
  156MOL0     C20931   3.996   6.411   3.036  0.1548 -1.0063 -0.4181
  156MOL0     C20932   3.940   6.491   3.139 -0.3858 -0.4841 -0.4141
  156MOL0     O20933   3.839   6.576   3.119 -0.8084 -0.6219 -0.2806
  156MOL0     C20934   3.721   6.532   3.057  0.0557  0.5449 -0.3887
  156MOL0     C20935   3.706   6.600   2.920  0.2322 -0.1503 -0.2747
  156MOL0     C20936   3.725   6.751   2.933 -0.0252  0.0458 -0.2498
  156MOL0     C20937   3.605   6.828   2.999  0.2345  0.3178  0.3524
  156MOL0     C20938   3.598   6.977   2.959  0.6859 -0.0080 -0.5102
  156MOL0     C20939   3.531   6.992   2.813 -0.0049  0.1079 -0.2969
  156MOL0     C20940   3.536   7.137   2.762 -0.2734  0.2945  0.0721
  156MOL0     C20941   3.454   7.167   2.631 -0.2236 -0.0033  0.1240
  156MOL0     N20942   3.485   7.070   2.524 -0.3422  0.3871  0.4119
  156MOL0     C20943   3.434   6.942   2.520  0.2307 -0.6569  0.2757
  156MOL0     C20944   3.491   6.898   2.400  1.1276  0.9869  0.7447
  156MOL0     C20945   3.474   6.775   2.326  0.1177 -1.2875 -0.1958
  156MOL0     C20946   3.327   6.780   2.263  0.0777 -0.4895 -0.7563
  156MOL0     C20947   3.332   6.839   2.120 -0.1575 -0.1409 -0.6741
  156MOL0     C20948   3.203   6.854   2.039 -1.1406  1.1936 -0.6441
  156MOL0     O20949   3.107   6.927   2.110 -0.2999  0.3770  0.1143
  156MOL0     C20950   2.972   6.933   2.076  0.7359 -0.5818 -0.0171
  156MOL0     C20951   2.918   6.898   1.954 -0.2065  0.1899  0.0027
  156MOL0     C20952   2.782   6.896   1.929  1.1670 -0.1466 -0.5223
  156MOL0     C20953   2.744   6.845   1.794  1.0485  0.2740  0.1127
  156MOL0     C20954   2.696   6.932   2.037  0.6428  0.5737 -0.8458
  156MOL0     C20955   2.552   6.923   2.028  0.3575 -0.0579 -0.0221
  156MOL0     O20956   2.480   6.999   2.122 -0.3779  0.6285  0.1863
  156MOL0     C20957   2.346   6.982   2.132  0.6867  0.3682  0.3703
  156MOL0     C20958   2.259   7.086   2.133 -0.4076 -0.5359  0.2848
  156MOL0     C20959   2.119   7.057   2.146  0.2752 -0.7662 -0.2649
  156MOL0     C20960   2.072   6.929   2.163  0.2452 -0.2169 -1.5712
  156MOL0     O20961   1.940   6.906   2.200 -1.0260 -0.3338 -0.4361
  156MOL0     C20962   1.845   7.004   2.182  0.2502 -0.6895  0.1580
  156MOL0     C20963   1.705   6.963   2.199 -0.0109 -0.0032 -0.2441
  156MOL0     C20964   1.691   6.944   2.352  0.5744  0.3307  0.2742
  156MOL0     C20965   1.579   6.850   2.384 -0.5908  0.1838 -1.0315
  156MOL0     C20966   1.444   6.899   2.330 -0.1932 -0.7723  0.7397
  156MOL0     C20967   1.329   6.807   2.365 -0.0038  0.0641  0.3791
  156MOL0     C20968   1.296   6.821   2.515  0.2815  1.1075  0.6102
  156MOL0     C20969   1.189   6.716   2.553 -0.1442 -0.3643  0.6648
  156MOL0    Cl20970   1.247   6.544   2.513 -0.3163 -0.5549 -0.1798
  156MOL0     C20971   2.161   6.828   2.171 -0.4457 -0.1304 -0.8101
  156MOL0     C20972   2.298   6.848   2.153 -0.1819 -1.3655 -1.5241
  156MOL0     O20973   2.503   6.846   1.940 -0.3980  0.0634  0.5890
  156MOL0     C20974   2.750   6.979   2.164  0.1856  0.1139  0.6417
  156MOL0     C20975   2.892   6.974   2.184 -0.1220  0.2102  0.3963
  156MOL0     N20976   3.559   7.000   2.336  0.2767  0.3738  0.1957
  156MOL0     N20977   3.569   7.100   2.421 -0.0463 -0.0881  0.4432
  156MOL0     C20978   4.004   6.508   3.262 -0.1706  0.5400 -0.1225
  156MOL0     C20979   4.121   6.436   3.282 -0.5356  0.1699 -0.3514
  156MOL0     C20980   4.446   6.100   3.200  0.0235 -0.8156  0.3894
  156MOL0     C20981   4.458   5.960   3.204  0.0060  0.3775 -0.6486
  156MOL0     C20982   4.586   5.918   3.251 -0.6307 -0.1140  0.0007
  156MOL0     C20983   4.694   6.004   3.264 -0.4217  0.2350 -0.2195
  156MOL0     O20984   4.813   5.970   3.317 -0.1855  1.2716 -0.2798
  156MOL0     C20985   4.826   5.823   3.355 -0.3560 -0.3221 -0.1154
  156MOL0     C20986   4.957   5.817   3.429  0.3633  0.0169  0.9023
  156MOL0     C20987   4.971   5.688   3.520  0.4289 -0.4008  0.8143
  156MOL0     C20988   5.100   5.681   3.592 -0.1803 -0.6217 -0.1431
  156MOL0     C20989   5.199   5.625   3.498  0.2119 -0.3337 -0.5214
  156MOL0     C20990   5.285   5.607   3.419 -0.0982  1.0871  1.6177
  156MOL0     C20991   4.680   6.143   3.245  0.2333  0.4227 -0.5691
  156MOL0     C20992   4.556   6.191   3.211  0.4055 -0.4074 -0.8247
  156MOL0     H20993   4.146   6.282   2.970 -0.3562 -1.3575 -0.7492
  156MOL0     H20994   3.951   6.418   2.938  1.4693 -0.8837 -1.0369
  156MOL0     H20995   3.703   6.425   3.045  1.1464  0.4042 -0.8321
  156MOL0     H20996   3.629   6.558   3.112 -1.0745 -1.9772 -0.9655
  156MOL0     H20997   3.781   6.558   2.852 -0.0863  0.3376 -0.9466
  156MOL0     H20998   3.604   6.577   2.886  0.3507 -1.6792  0.3185
  156MOL0     H20999   3.820   6.779   2.980 -0.6169  0.7275  0.5623
  156MOL0     H21000   3.729   6.789   2.830 -3.9156 -1.3190 -1.0553
  156MOL0     H21001   3.510   6.779   2.975  1.2716 -0.5597 -2.3249
  156MOL0     H21002   3.619   6.827   3.108 -3.3294  0.0329  0.9250
  156MOL0     H21003   3.547   7.038   3.034  0.5750  1.4210 -1.6875
  156MOL0     H21004   3.701   7.014   2.946  0.3548  0.8000 -0.9023
  156MOL0     H21005   3.593   6.924   2.755 -0.0925 -2.4679  2.3512
  156MOL0     H21006   3.428   6.956   2.813  0.5313 -1.5590 -1.5811
  156MOL0     H21007   3.522   7.204   2.847  4.1002 -1.1809  2.2768
  156MOL0     H21008   3.640   7.160   2.735  0.9778  0.0390  4.0173
  156MOL0     H21009   3.482   7.266   2.594 -0.1986 -0.3180 -0.7226
  156MOL0     H21010   3.344   7.170   2.635 -0.5910  0.0766 -4.5700
  156MOL0     H21011   3.372   6.889   2.591 -1.6852 -1.9666 -2.1876
  156MOL0     H21012   3.552   6.768   2.250  0.4327 -1.6716  0.1567
  156MOL0     H21013   3.472   6.689   2.394 -2.1486 -1.8462 -0.8703
  156MOL0     H21014   3.257   6.848   2.313 -1.6012 -1.5351 -1.6143
  156MOL0     H21015   3.286   6.678   2.260 -1.3476 -0.0417  1.2622
  156MOL0     H21016   3.397   6.778   2.057 -1.4458 -2.0298 -0.2496
  156MOL0     H21017   3.366   6.942   2.137  0.9160 -0.4719 -0.7279
  156MOL0     H21018   3.161   6.758   2.010 -0.3787 -0.1898  2.4097
  156MOL0     H21019   3.231   6.901   1.945  1.9384 -0.1625 -0.5220
  156MOL0     H21020   2.989   6.878   1.876  1.2012  0.9264  1.0492
  156MOL0     H21021   2.670   6.916   1.755  1.0505  0.6874  0.8471
  156MOL0     H21022   2.823   6.843   1.718  1.8480  1.0903  0.9071
  156MOL0     H21023   2.699   6.745   1.796 -1.0605  1.0875 -2.0822
  156MOL0     H21024   2.283   7.191   2.128 -2.3566 -0.0842 -1.2668
  156MOL0     H21025   2.051   7.142   2.142  0.4892 -0.5371  0.6599
  156MOL0     H21026   1.875   7.091   2.242 -3.2581  2.9347 -2.7448
  156MOL0     H21027   1.860   7.047   2.082 -1.7082 -1.0170 -0.3331
  156MOL0     H21028   1.636   7.041   2.166 -2.3923 -2.2468 -0.9019
  156MOL0     H21029   1.685   6.870   2.144  1.2207 -0.3811 -0.0772
  156MOL0     H21030   1.669   7.040   2.401 -1.3858 -0.1798  0.4900
  156MOL0     H21031   1.786   6.908   2.392 -0.4163  0.0298  2.5491
  156MOL0     H21032   1.601   6.757   2.332  0.1557  0.6355 -1.5477
  156MOL0     H21033   1.574   6.829   2.491  1.1945  0.5565 -0.8389
  156MOL0     H21034   1.449   6.895   2.221  2.2098 -1.3115  0.8124
  156MOL0     H21035   1.421   7.000   2.364  0.0287  0.2987 -2.0684
  156MOL0     H21036   1.239   6.827   2.306 -1.1468 -2.6669  1.0136
  156MOL0     H21037   1.358   6.706   2.333 -0.7405  0.3690 -1.3900
  156MOL0     H21038   1.255   6.918   2.542  0.1426  0.7199  1.8303
  156MOL0     H21039   1.379   6.793   2.579 -1.9460 -1.8747  2.4579
  156MOL0     H21040   1.090   6.734   2.510  0.0960  0.0259  0.2652
  156MOL0     H21041   1.164   6.713   2.659 -2.0198  2.4415  0.3923
  156MOL0     H21042   2.129   6.725   2.181 -0.1889 -0.0744  0.7600
  156MOL0     H21043   2.374   6.773   2.174 -0.0931 -0.1484  3.6014
  156MOL0     H21044   2.690   7.013   2.248 -1.8695  0.6772 -0.9776
  156MOL0     H21045   2.936   7.013   2.275 -0.4954  2.4131 -0.2904
  156MOL0     H21046   3.970   6.568   3.345 -1.3751  1.7781 -1.4456
  156MOL0     H21047   4.170   6.428   3.379 -0.8446 -1.5436 -0.3125
  156MOL0     H21048   4.375   5.893   3.185  0.4216 -0.3702  0.1396
  156MOL0     H21049   4.588   5.815   3.286 -2.5184 -0.2174 -0.0655
  156MOL0     H21050   4.750   5.779   3.421 -0.7347 -1.1294 -1.0691
  156MOL0     H21051   4.831   5.756   3.269 -3.0503 -0.8156  0.0163
  156MOL0     H21052   4.964   5.904   3.495  1.9629  1.2733 -0.8361
  156MOL0     H21053   5.033   5.819   3.351  1.0049  0.6843  1.5359
  156MOL0     H21054   4.958   5.607   3.448 -1.6444  1.6419 -1.3021
  156MOL0     H21055   4.884   5.695   3.586 -2.3860  0.0266 -2.6330
  156MOL0     H21056   5.103   5.613   3.677  1.0655 -0.7115 -0.2460
  156MOL0     H21057   5.124   5.782   3.627  0.2322 -1.0555  0.8687
  156MOL0     H21058   5.360   5.581   3.346 -0.0569  2.0619  1.3025
  156MOL0     H21059   4.763   6.203   3.278  0.3073 -0.4211  0.8421
  156MOL0     H21060   4.552   6.299   3.203  1.1438 -0.3754 -0.8776
  157MOL0     O21061   8.548   3.055   7.403  0.3971 -0.0051 -0.1890
  157MOL0     C21062   8.534   3.062   7.523  0.0344 -1.2163 -0.7026
  157MOL0     O21063   8.414   3.062   7.590 -0.4034  0.7651 -0.0852
  157MOL0     C21064   8.288   3.036   7.540  0.0966  0.6586  0.4955
  157MOL0     C21065   8.193   3.027   7.635 -0.2619  0.4642  0.2696
  157MOL0     C21066   8.059   3.040   7.594 -0.4896  0.7185 -0.9381
  157MOL0     C21067   8.016   3.042   7.462  0.1644 -0.3382 -0.2076
  157MOL0     O21068   7.882   3.053   7.437  0.2859  0.2800 -0.4329
  157MOL0     C21069   7.826   2.992   7.314 -0.6577  0.3575 -0.7889
  157MOL0     C21070   7.674   3.019   7.311 -0.2908 -0.4546  0.3188
  157MOL0     C21071   7.604   2.984   7.183 -0.1791  0.8233 -1.0442
  157MOL0     C21072   7.452   2.961   7.196  0.6517  0.6888 -0.2263
  157MOL0     C21073   7.371   2.935   7.066 -0.6537  0.0047 -0.2872
  157MOL0     C21074   7.386   2.801   7.005 -0.6055 -0.7699 -0.3195
  157MOL0     C21075   7.329   2.695   7.099  0.8610  0.2090  0.6441
  157MOL0     C21076   7.285   2.561   7.044 -0.4494 -0.3464 -0.7296
  157MOL0     N21077   7.194   2.571   6.932 -0.2194  0.7370 -0.6956
  157MOL0     C21078   7.067   2.628   6.933 -0.2685  0.5207  0.1590
  157MOL0     C21079   7.022   2.596   6.809  0.3882  0.2364  1.1426
  157MOL0     C21080   6.883   2.606   6.758  0.3391  0.6559  0.6688
  157MOL0     C21081   6.808   2.719   6.805  0.6694 -1.1035 -0.4394
  157MOL0     C21082   6.675   2.715   6.740  0.3849  0.3060  0.0371
  157MOL0     C21083   6.601   2.853   6.760  0.1426 -0.0472 -0.1343
  157MOL0     O21084   6.472   2.846   6.702 -0.1720 -0.1571 -0.7771
  157MOL0     C21085   6.406   2.968   6.676  0.6827 -0.3691 -0.8336
  157MOL0     C21086   6.442   3.092   6.730 -0.2747 -0.5141 -0.0172
  157MOL0     C21087   6.357   3.209   6.722  0.7332 -0.4018 -0.2008
  157MOL0     C21088   6.406   3.343   6.786 -0.6724  0.3590  0.4782
  157MOL0     C21089   6.236   3.200   6.648  0.0483 -0.5891  0.1041
  157MOL0     C21090   6.124   3.306   6.646 -0.8289 -0.1493 -0.5489
  157MOL0     O21091   6.127   3.400   6.742 -0.3905 -0.6073 -0.8810
  157MOL0     C21092   6.021   3.489   6.766  0.5224 -0.0175  1.2096
  157MOL0     C21093   6.040   3.605   6.849 -0.4653  0.2732 -0.3452
  157MOL0     C21094   5.949   3.700   6.863 -1.1964  0.4203  1.1207
  157MOL0     C21095   5.820   3.682   6.815  0.0310  0.4251  1.0327
  157MOL0     O21096   5.729   3.776   6.848 -0.0454  0.8581 -0.3784
  157MOL0     C21097   5.640   3.744   6.956 -1.1597  0.3134 -0.0485
  157MOL0     C21098   5.537   3.854   6.955 -0.3076 -0.2025  0.0950
  157MOL0     C21099   5.441   3.839   7.074  0.4123 -0.3183 -0.3060
  157MOL0     C21100   5.316   3.927   7.033  0.0377 -0.8071 -0.2190
  157MOL0     C21101   5.346   4.077   7.033  0.6892  0.5634  0.3365
  157MOL0     C21102   5.209   4.153   7.006  0.2642  0.0990 -0.4164
  157MOL0     C21103   5.136   4.169   7.147 -0.1858 -0.0992  0.3293
  157MOL0     C21104   5.012   4.250   7.130  0.0686 -0.1602  0.8857
  157MOL0    Cl21105   4.938   4.282   7.281 -0.0312  0.2645 -0.0841
  157MOL0     C21106   5.788   3.566   6.748 -0.1629 -0.3475  0.6718
  157MOL0     C21107   5.883   3.474   6.712  0.1304  0.1383  0.5708
  157MOL0     O21108   6.051   3.303   6.548 -0.1648 -0.4252 -0.1964
  157MOL0     C21109   6.212   3.086   6.573  0.5597 -0.0366  0.2207
  157MOL0     C21110   6.296   2.981   6.583 -0.1997  0.8948 -0.5873
  157MOL0     N21111   7.114   2.542   6.728 -0.4818  0.4433 -0.3546
  157MOL0     N21112   7.218   2.513   6.802 -0.0081  0.0593  0.1001
  157MOL0     C21113   8.112   3.048   7.367  0.0904 -0.1028 -0.3986
  157MOL0     C21114   8.246   3.043   7.401 -0.1061  0.5329  0.1849
  157MOL0     C21115   8.659   3.076   7.601  0.0163  0.8523  0.2562
  157MOL0     C21116   8.646   3.086   7.740 -0.6697 -0.4312 -1.0284
  157MOL0     C21117   8.764   3.089   7.818  0.5791 -0.4149 -0.2430
  157MOL0     C21118   8.895   3.075   7.767  0.3265 -0.0550  0.1404
  157MOL0     O21119   9.006   3.071   7.852 -0.3773  0.3482 -0.4005
  157MOL0     C21120   9.136   3.070   7.799 -0.1135 -0.0809 -0.3198
  157MOL0     C21121   9.250   3.099   7.902  0.8555  0.3751  0.3203
  157MOL0     C21122   9.241   3.003   8.023 -0.2777 -0.3338 -0.3822
  157MOL0     C21123   9.326   3.056   8.138 -0.6099  0.1007 -0.2279
  157MOL0     C21124   9.338   2.955   8.248 -0.1488  0.0582  0.1246
  157MOL0     C21125   9.364   2.857   8.321 -0.1178 -0.5917 -0.3108
  157MOL0     C21126   8.906   3.068   7.626  0.5792 -0.2887 -0.1664
  157MOL0     C21127   8.792   3.067   7.549  0.4892  0.5714  0.5534
  157MOL0     H21128   8.215   3.029   7.741  0.7175 -0.5494  0.1079
  157MOL0     H21129   7.981   3.049   7.668 -0.1103 -0.8908 -0.3029
  157MOL0     H21130   7.872   3.036   7.226  2.0863  2.2028  1.3945
  157MOL0     H21131   7.856   2.886   7.316 -1.4374  0.1159 -1.4348
  157MOL0     H21132   7.630   2.960   7.391  0.0428 -1.3500 -0.1396
  157MOL0     H21133   7.648   3.122   7.337 -1.9287 -1.2761  2.1728
  157MOL0     H21134   7.621   3.060   7.105  0.8146  0.2627 -1.3942
  157MOL0     H21135   7.654   2.890   7.157  2.1456  0.6301  3.2771
  157MOL0     H21136   7.423   2.887   7.270  1.2792  0.5334 -0.1259
  157MOL0     H21137   7.417   3.059   7.229 -1.4743  0.3368 -1.2921
  157MOL0     H21138   7.267   2.963   7.085  0.0676  2.1611  0.8769
  157MOL0     H21139   7.403   3.010   6.992  1.4438  1.5715  2.0391
  157MOL0     H21140   7.343   2.794   6.904  1.3263 -0.6613 -1.1948
  157MOL0     H21141   7.489   2.778   6.978 -0.1868  0.4556  0.2039
  157MOL0     H21142   7.411   2.671   7.168 -0.3543 -1.9512  1.4433
  157MOL0     H21143   7.242   2.731   7.156 -0.6973 -0.7781 -1.0224
  157MOL0     H21144   7.237   2.508   7.126  2.9508 -0.6751  1.2090
  157MOL0     H21145   7.372   2.505   7.008  2.3283  0.5203  3.8563
  157MOL0     H21146   7.012   2.670   7.017 -0.4604 -2.0237  1.4071
  157MOL0     H21147   6.888   2.598   6.649  0.6354 -1.9861  0.8191
  157MOL0     H21148   6.830   2.513   6.783  0.7044  0.6996  1.6304
  157MOL0     H21149   6.862   2.813   6.791 -0.9024 -0.1644 -0.4571
  157MOL0     H21150   6.792   2.709   6.913 -2.3287 -0.2339 -0.7056
  157MOL0     H21151   6.625   2.627   6.783  0.0661 -0.1625 -1.2637
  157MOL0     H21152   6.690   2.698   6.633 -0.1254 -0.5972  0.0914
  157MOL0     H21153   6.661   2.929   6.708 -1.0746  1.5005  0.6555
  157MOL0     H21154   6.603   2.877   6.867  0.6216  0.1273 -0.1791
  157MOL0     H21155   6.529   3.099   6.795 -1.1264 -3.0227  1.5779
  157MOL0     H21156   6.333   3.381   6.859 -0.5640  1.7403 -0.0999
  157MOL0     H21157   6.506   3.326   6.827 -0.0021  0.6594 -0.9700
  157MOL0     H21158   6.428   3.418   6.710  0.3468 -1.5000 -1.1316
  157MOL0     H21159   6.138   3.609   6.895  0.2663 -1.0353 -1.7035
  157MOL0     H21160   5.975   3.788   6.921 -0.7610  1.3582 -0.4585
  157MOL0     H21161   5.602   3.642   6.945  0.5031 -0.8830  3.7180
  157MOL0     H21162   5.687   3.741   7.055 -1.0094 -3.7893 -0.0743
  157MOL0     H21163   5.591   3.948   6.970  2.2852 -1.5718 -0.1179
  157MOL0     H21164   5.488   3.857   6.858  1.7268  0.9798 -0.9599
  157MOL0     H21165   5.479   3.866   7.172 -1.9790 -2.6519  1.4287
  157MOL0     H21166   5.409   3.735   7.087  0.2518 -0.1063  1.1665
  157MOL0     H21167   5.259   3.900   6.944 -0.9381 -0.7179  0.3692
  157MOL0     H21168   5.241   3.910   7.111  1.5660 -3.2789  0.8398
  157MOL0     H21169   5.405   4.117   6.950  0.0137  0.6207 -0.1250
  157MOL0     H21170   5.392   4.112   7.125  2.2021 -1.0345  0.2404
  157MOL0     H21171   5.221   4.254   6.966  1.5375  0.6987  1.3617
  157MOL0     H21172   5.141   4.097   6.941 -1.0846 -0.9185  1.7480
  157MOL0     H21173   5.204   4.211   7.221 -1.0682 -1.0003  1.6876
  157MOL0     H21174   5.103   4.068   7.172  2.4798 -1.9979 -2.9394
  157MOL0     H21175   4.939   4.207   7.061  0.0164 -0.5422  1.1809
  157MOL0     H21176   5.043   4.347   7.089  0.2084 -1.0111 -1.1619
  157MOL0     H21177   5.684   3.542   6.728 -0.1575 -0.6034  0.9485
  157MOL0     H21178   5.847   3.385   6.661 -0.4179 -0.8420  2.5491
  157MOL0     H21179   6.135   3.084   6.497  2.4001 -3.5455 -1.8075
  157MOL0     H21180   6.264   2.894   6.525  1.7567 -1.6957  1.9166
  157MOL0     H21181   8.086   3.049   7.261  1.2443 -1.5889 -0.7377
  157MOL0     H21182   8.324   3.064   7.328 -0.7362  1.0362 -0.3564
  157MOL0     H21183   8.549   3.096   7.789 -0.4747 -0.7029 -0.5810
  157MOL0     H21184   8.771   3.111   7.924  3.0376 -1.3074 -0.1755
  157MOL0     H21185   9.156   2.967   7.771 -2.3219 -0.3152 -1.2214
  157MOL0     H21186   9.144   3.141   7.716  1.8982 -1.0417 -0.9972
  157MOL0     H21187   9.233   3.203   7.934  0.7107  0.5993 -0.4604
  157MOL0     H21188   9.343   3.085   7.848  0.3685 -5.7114  0.3498
  157MOL0     H21189   9.285   2.914   7.978 -0.4177  0.1888 -1.6118
  157MOL0     H21190   9.137   2.981   8.050 -1.0467  1.2008 -1.8730
  157MOL0     H21191   9.307   3.157   8.176  2.6979  0.6382  0.3220
  157MOL0     H21192   9.425   3.083   8.101 -1.0231  1.9775 -0.0813
  157MOL0     H21193   9.390   2.776   8.387 -0.2451 -1.1436 -0.9310
  157MOL0     H21194   8.994   3.070   7.562  1.4700 -1.0612  0.9939
  157MOL0     H21195   8.799   3.038   7.444  0.9947  0.6595  0.5598
  158MOL0     O21196   6.739   9.824   7.745 -0.3652  0.5268  0.2856
  158MOL0     C21197   6.753   9.766   7.635  0.5050 -0.7083  0.0959
  158MOL0     O21198   6.653   9.753   7.539  0.1675  0.2519 -0.3446
  158MOL0     C21199   6.537   9.815   7.573  0.0386 -0.2803 -0.8808
  158MOL0     C21200   6.423   9.744   7.600  0.3102  0.4680  0.4362
  158MOL0     C21201   6.309   9.812   7.631  0.0813 -0.1780 -0.4018
  158MOL0     C21202   6.299   9.953   7.634 -0.0542 -0.0338  0.0608
  158MOL0     O21203   6.186  10.026   7.664 -0.7100 -0.5703 -0.2185
  158MOL0     C21204   6.065   9.947   7.664  0.3884 -0.4277 -0.3117
  158MOL0     C21205   5.949  10.033   7.692  0.0337  0.8610 -0.4335
  158MOL0     C21206   5.806   9.966   7.709  0.4786 -0.0558 -1.0492
  158MOL0     C21207   5.696  10.065   7.753 -0.5152 -0.8960 -0.1859
  158MOL0     C21208   5.645  10.137   7.633  0.4776 -0.6828  0.7551
  158MOL0     C21209   5.560  10.256   7.674 -0.2605  0.2942 -0.4953
  158MOL0     C21210   5.494  10.327   7.555  0.4763  0.3316  0.7183
  158MOL0     C21211   5.575  10.419   7.470 -0.1244 -0.3636 -0.0289
  158MOL0     N21212   5.514  10.447   7.343 -0.2856 -0.5481  0.2576
  158MOL0     C21213   5.376  10.483   7.323  0.8419  0.1957 -0.5804
  158MOL0     C21214   5.361  10.470   7.186 -0.1032 -0.5375  0.7258
  158MOL0     C21215   5.231  10.478   7.114 -0.7300  0.9053  0.1808
  158MOL0     C21216   5.175  10.622   7.108 -0.6715  0.9213  0.9203
  158MOL0     C21217   5.032  10.616   7.049 -0.1558  1.0129  0.4234
  158MOL0     C21218   4.986  10.759   7.005 -0.4355 -0.2114 -0.5607
  158MOL0     O21219   4.956  10.847   7.115  0.3288 -0.1237  0.0412
  158MOL0     C21220   4.900  10.966   7.089  0.4628  0.0569  0.2771
  158MOL0     C21221   4.843  11.001   6.971  0.0302  0.2109  0.6601
  158MOL0     C21222   4.786  11.121   6.942 -0.7569 -0.4316  0.1361
  158MOL0     C21223   4.733  11.152   6.807 -0.6625 -0.7554  0.9986
  158MOL0     C21224   4.804  11.229   7.038  0.1953  0.5645 -0.0344
  158MOL0     C21225   4.757  11.364   7.030  0.9376 -0.4710  0.0816
  158MOL0     O21226   4.807  11.445   7.121  0.7114  0.5660  0.8445
  158MOL0     C21227   4.745  11.564   7.134 -0.5921 -0.2909  0.7169
  158MOL0     C21228   4.773  11.666   7.042 -0.5177 -0.2497 -0.5233
  158MOL0     C21229   4.728  11.793   7.052 -0.4333 -0.9713  0.0441
  158MOL0     C21230   4.630  11.819   7.147 -0.3754  0.2161  0.0139
  158MOL0     O21231   4.576  11.942   7.127  0.0250 -0.1396 -0.4200
  158MOL0     C21232   4.435  11.960   7.145 -0.2624  0.0919  0.1243
  158MOL0     C21233   4.361  11.982   7.013  0.4244 -0.2494  0.2573
  158MOL0     C21234   4.376  11.871   6.915 -0.2361  0.0662 -0.0005
  158MOL0     C21235   4.258  11.775   6.925  0.0683  0.2708 -0.0755
  158MOL0     C21236   4.284  11.629   6.863  0.8330 -1.0863 -0.5868
  158MOL0     C21237   4.321  11.630   6.720  0.4650  0.0973  0.1763
  158MOL0     C21238   4.377  11.489   6.683 -0.2761 -0.1094  0.6081
  158MOL0     C21239   4.403  11.471   6.533  0.1090  0.5094  0.2454
  158MOL0    Cl21240   4.411  11.298   6.497  0.1311 -0.5426  0.5949
  158MOL0     C21241   4.593  11.715   7.243 -0.3008 -0.2453 -0.4322
  158MOL0     C21242   4.667  11.593   7.243 -0.6469 -0.0675  0.5603
  158MOL0     O21243   4.668  11.391   6.948  0.0737 -0.2739  0.5755
  158MOL0     C21244   4.862  11.183   7.159  0.3159 -0.8300 -0.6273
  158MOL0     C21245   4.911  11.057   7.186  0.5304 -0.3962 -0.2750
  158MOL0     N21246   5.484  10.441   7.131 -0.1223  0.4492 -0.0357
  158MOL0     N21247   5.571  10.415   7.223 -0.0438 -0.1534  0.7339
  158MOL0     C21248   6.414  10.029   7.608  0.0005 -0.7588  0.0294
  158MOL0     C21249   6.528   9.958   7.572 -1.1908 -0.1926 -0.3535
  158MOL0     C21250   6.889   9.722   7.593  0.2946  0.1198  0.6478
  158MOL0     C21251   7.004   9.767   7.658 -0.0926  1.0123  0.1385
  158MOL0     C21252   7.125   9.721   7.618  0.2701 -0.0936  0.4882
  158MOL0     C21253   7.141   9.649   7.501 -0.1546 -0.0729  0.4056
  158MOL0     O21254   7.259   9.622   7.446 -0.5613 -0.3137  0.8408
  158MOL0     C21255   7.376   9.619   7.524 -0.6407  0.0744 -0.6250
  158MOL0     C21256   7.492   9.568   7.444  0.0252  0.0197  0.4615
  158MOL0     C21257   7.611   9.544   7.538  0.3701 -1.2136 -1.6393
  158MOL0     C21258   7.722   9.486   7.456  0.6103 -0.4274 -0.2264
  158MOL0     C21259   7.691   9.356   7.426  0.1443  0.4732 -0.3502
  158MOL0     C21260   7.661   9.254   7.373  0.6423 -0.1860  0.6760
  158MOL0     C21261   7.030   9.607   7.426 -0.6985  0.3449 -0.0673
  158MOL0     C21262   6.903   9.639   7.471  1.4503 -0.2499 -0.5359
  158MOL0     H21263   6.423   9.635   7.600  0.8352  0.3484  3.9728
  158MOL0     H21264   6.229   9.742   7.652  1.7645 -2.0240  0.1514
  158MOL0     H21265   6.037   9.903   7.568 -3.0415 -0.7174  0.6999
  158MOL0     H21266   6.073   9.863   7.734 -0.5952  0.9601  1.5691
  158MOL0     H21267   5.971  10.095   7.779 -2.9853  2.0255 -0.3933
  158MOL0     H21268   5.931  10.098   7.606 -2.8850  2.0705  0.9473
  158MOL0     H21269   5.774   9.916   7.617  2.3239 -3.0588 -0.1868
  158MOL0     H21270   5.822   9.880   7.775 -0.2641 -0.1872 -1.0267
  158MOL0     H21271   5.615  10.004   7.795 -3.5713 -0.5375 -4.8314
  158MOL0     H21272   5.743  10.139   7.818  0.3113 -0.6214 -1.0674
  158MOL0     H21273   5.722  10.184   7.570  0.9687 -0.2925  1.6269
  158MOL0     H21274   5.579  10.073   7.573  2.6778 -0.1131 -2.5957
  158MOL0     H21275   5.480  10.236   7.746  0.0800  3.3869  0.8824
  158MOL0     H21276   5.620  10.335   7.721 -0.1700  0.9586 -1.6846
  158MOL0     H21277   5.448  10.251   7.491 -0.3296 -0.1160  1.8004
  158MOL0     H21278   5.419  10.393   7.599 -0.7776 -0.5533 -0.0244
  158MOL0     H21279   5.678  10.382   7.468  1.0241  2.3804  1.7920
  158MOL0     H21280   5.588  10.514   7.524  1.2625 -0.6877  0.2358
  158MOL0     H21281   5.302  10.498   7.401  0.8266  0.9196 -0.7224
  158MOL0     H21282   5.255  10.439   7.015  1.9372 -1.8150  1.7161
  158MOL0     H21283   5.159  10.408   7.159  0.6791  0.4585  1.8849
  158MOL0     H21284   5.247  10.681   7.051 -0.5209 -0.5397 -0.4787
  158MOL0     H21285   5.180  10.672   7.206 -1.8345  0.3175  1.3009
  158MOL0     H21286   4.957  10.580   7.120  0.3137 -1.1152 -0.1099
  158MOL0     H21287   5.027  10.548   6.963 -0.4602  2.0679 -0.4150
  158MOL0     H21288   4.910  10.751   6.927  0.0031  0.0180 -1.0161
  158MOL0     H21289   5.073  10.806   6.958 -0.0580 -0.9490 -0.6069
  158MOL0     H21290   4.819  10.924   6.898 -1.4589  2.5370 -1.4576
  158MOL0     H21291   4.748  11.061   6.748 -0.5581  0.0757 -0.2840
  158MOL0     H21292   4.627  11.173   6.820  0.0171  2.5433  2.0583
  158MOL0     H21293   4.787  11.237   6.764  1.1170 -1.8268  0.9891
  158MOL0     H21294   4.838  11.649   6.956 -1.8422  0.2321 -1.6689
  158MOL0     H21295   4.756  11.870   6.981 -2.0859  0.4969  0.9140
  158MOL0     H21296   4.396  11.865   7.182  2.1392 -1.4309 -1.0669
  158MOL0     H21297   4.410  12.039   7.217  1.1023 -1.3214  2.2419
  158MOL0     H21298   4.255  12.002   7.034 -0.0374 -1.1284 -1.1001
  158MOL0     H21299   4.397  12.080   6.981 -2.4988  1.7952  2.6818
  158MOL0     H21300   4.468  11.813   6.928 -0.2511 -0.4603 -1.9899
  158MOL0     H21301   4.380  11.903   6.810  0.6801  0.7763  0.2365
  158MOL0     H21302   4.240  11.764   7.032  0.6493 -0.0601 -0.0102
  158MOL0     H21303   4.168  11.819   6.880 -0.9314  0.6384  2.1700
  158MOL0     H21304   4.187  11.579   6.868  0.2173  0.1644  0.8160
  158MOL0     H21305   4.353  11.570   6.925  0.6599 -0.7817 -0.0956
  158MOL0     H21306   4.241  11.665   6.653  0.8724  0.8178  0.0554
  158MOL0     H21307   4.406  11.697   6.708 -0.2641  1.2830  1.3135
  158MOL0     H21308   4.306  11.411   6.713 -0.9305  1.6334  4.0437
  158MOL0     H21309   4.467  11.475   6.743 -0.1847 -2.8021 -0.0159
  158MOL0     H21310   4.491  11.519   6.490  1.1641 -0.2135  1.5046
  158MOL0     H21311   4.319  11.499   6.470 -1.9575 -4.2075  0.5004
  158MOL0     H21312   4.509  11.733   7.309  1.2646  0.7482  1.3931
  158MOL0     H21313   4.652  11.522   7.325 -3.4510  0.5123  0.6215
  158MOL0     H21314   4.874  11.254   7.241  0.3943 -1.2403 -0.2771
  158MOL0     H21315   4.941  11.044   7.289  1.2283 -0.0821 -0.4304
  158MOL0     H21316   6.402  10.137   7.613 -3.6474 -1.0828  1.6021
  158MOL0     H21317   6.617  10.014   7.544 -2.0341  0.6196 -1.5056
  158MOL0     H21318   6.999   9.828   7.748 -0.3626  0.0032  0.8218
  158MOL0     H21319   7.216   9.739   7.675 -0.5278  1.1186  1.4500
  158MOL0     H21320   7.408   9.719   7.556 -2.8968 -0.2908  3.4646
  158MOL0     H21321   7.367   9.562   7.616  1.3038  1.5384  0.5504
  158MOL0     H21322   7.523   9.645   7.372  0.9933 -0.7927 -0.0328
  158MOL0     H21323   7.475   9.477   7.384  0.1994 -0.6644  1.4261
  158MOL0     H21324   7.582   9.485   7.625  1.8535 -1.1869 -1.0842
  158MOL0     H21325   7.639   9.644   7.572  2.4675 -2.0059 -0.8687
  158MOL0     H21326   7.817   9.498   7.510  1.1723  1.4999 -1.5501
  158MOL0     H21327   7.741   9.538   7.362 -0.0408  1.4230  0.6021
  158MOL0     H21328   7.630   9.168   7.317  0.5532 -0.0805  0.5617
  158MOL0     H21329   7.048   9.546   7.338  1.8712  0.7944  0.0753
  158MOL0     H21330   6.822   9.610   7.404  0.4385 -0.3340  0.6699
  159MOL0     O21331   0.247   3.948   8.031 -1.0909  0.9714  0.2014
  159MOL0     C21332   0.311   3.874   8.103  0.2026 -0.3306 -0.0223
  159MOL0     O21333   0.271   3.815   8.218  0.2745 -0.5611 -0.3988
  159MOL0     C21334   0.138   3.813   8.249 -0.2823 -0.1210 -0.2308
  159MOL0     C21335   0.036   3.799   8.144 -0.4434 -0.3518 -0.1501
  159MOL0     C21336  -0.095   3.798   8.182  0.1014  0.6465  0.3706
  159MOL0     C21337  -0.126   3.800   8.323 -0.4534  0.4881  0.8747
  159MOL0     O21338  -0.253   3.782   8.372  0.4086  0.1162  0.5823
  159MOL0     C21339  -0.354   3.724   8.282 -0.6343 -0.4005 -0.4124
  159MOL0     C21340  -0.453   3.652   8.371  0.0489  0.5237  0.1642
  159MOL0     C21341  -0.548   3.580   8.285 -0.1980  0.4011  0.8353
  159MOL0     C21342  -0.631   3.463   8.353  0.5504  0.5059  0.2060
  159MOL0     C21343  -0.733   3.407   8.255 -0.7422  0.6264 -0.7878
  159MOL0     C21344  -0.857   3.489   8.230 -0.9605  0.2809 -0.1192
  159MOL0     C21345  -0.962   3.456   8.337 -0.4121 -0.3478 -0.3521
  159MOL0     C21346  -1.105   3.505   8.298 -0.2641  0.4372 -1.0381
  159MOL0     N21347  -1.182   3.472   8.421  0.0850 -0.0037  0.2949
  159MOL0     C21348  -1.216   3.554   8.527  0.2741  0.1269 -0.1237
  159MOL0     C21349  -1.300   3.474   8.603  0.2003 -0.2307  0.5633
  159MOL0     C21350  -1.401   3.528   8.707  0.4912 -0.6574 -0.6265
  159MOL0     C21351  -1.545   3.510   8.660 -0.4001  0.4264 -0.0505
  159MOL0     C21352  -1.646   3.481   8.779 -0.1030 -0.4040 -0.3855
  159MOL0     C21353  -1.785   3.509   8.734  0.6276 -0.2469 -0.0787
  159MOL0     O21354  -1.877   3.514   8.841 -0.0326  0.5955  0.3864
  159MOL0     C21355  -2.006   3.517   8.807 -0.4262 -0.3330  0.5885
  159MOL0     C21356  -2.092   3.499   8.909 -0.1616 -0.1021  0.3368
  159MOL0     C21357  -2.232   3.491   8.901 -0.3029 -0.3607 -0.2855
  159MOL0     C21358  -2.313   3.464   9.025  0.1641 -0.0732 -0.0749
  159MOL0     C21359  -2.290   3.501   8.769 -0.4726 -0.6534  0.4463
  159MOL0     C21360  -2.429   3.474   8.737 -0.5000  0.0891 -0.3356
  159MOL0     O21361  -2.520   3.523   8.830 -0.0362 -0.9443 -0.0213
  159MOL0     C21362  -2.649   3.476   8.810 -0.5974 -0.1096  0.3418
  159MOL0     C21363  -2.682   3.342   8.795  0.2942  0.3526  0.1448
  159MOL0     C21364  -2.821   3.296   8.788 -0.2040 -0.1807 -0.4451
  159MOL0     C21365  -2.921   3.389   8.774  1.1501 -0.5426 -0.0755
  159MOL0     O21366  -3.050   3.349   8.776 -0.6177  0.9185 -0.6230
  159MOL0     C21367  -3.148   3.421   8.696 -0.6451 -0.7326 -0.1143
  159MOL0     C21368  -3.187   3.329   8.585  0.5867  0.4164 -0.1800
  159MOL0     C21369  -3.303   3.390   8.509  0.6153  0.4190 -0.0617
  159MOL0     C21370  -3.391   3.281   8.441 -0.1775  0.6638 -0.0686
  159MOL0     C21371  -3.506   3.343   8.367 -0.3558  0.1268  0.3509
  159MOL0     C21372  -3.602   3.244   8.312  0.3125 -0.0836  0.1640
  159MOL0     C21373  -3.722   3.330   8.246 -0.1950 -0.4541 -0.0411
  159MOL0     C21374  -3.844   3.244   8.220  0.3166 -0.3699 -0.4742
  159MOL0    Cl21375  -3.797   3.118   8.106  0.3199  0.0436 -0.0345
  159MOL0     C21376  -2.883   3.525   8.773 -0.8835  0.3398  0.5281
  159MOL0     C21377  -2.746   3.567   8.791 -0.4124  0.2031 -0.5079
  159MOL0     O21378  -2.454   3.409   8.637  0.3671  0.2351 -0.3785
  159MOL0     C21379  -2.202   3.503   8.656  0.1449 -0.8339 -0.4539
  159MOL0     C21380  -2.062   3.517   8.673 -0.3731  0.7887  0.3400
  159MOL0     N21381  -1.305   3.351   8.541 -0.4552 -0.2101 -0.3931
  159MOL0     N21382  -1.235   3.349   8.437 -0.3145  0.3375  0.0062
  159MOL0     C21383  -0.033   3.805   8.419 -0.6283  0.2488  0.0860
  159MOL0     C21384   0.101   3.814   8.385  0.7669 -0.3611 -0.2593
  159MOL0     C21385   0.451   3.871   8.074  0.1379  0.1844 -0.4804
  159MOL0     C21386   0.514   3.979   8.009 -0.3426  0.5380  0.1520
  159MOL0     C21387   0.654   3.976   7.986  0.4479  0.5702  0.6711
  159MOL0     C21388   0.733   3.864   8.038  0.8702  0.3711  0.4141
  159MOL0     O21389   0.864   3.869   8.003  0.6294  0.3746  0.0426
  159MOL0     C21390   0.957   3.786   8.075  0.1256 -0.1880 -0.4128
  159MOL0     C21391   1.082   3.862   8.080  0.2173 -0.3232 -0.4027
  159MOL0     C21392   1.169   3.876   7.958 -0.0776  0.0363 -1.4328
  159MOL0     C21393   1.317   3.913   7.973  0.3337  0.6642  0.0021
  159MOL0     C21394   1.387   3.810   8.051 -1.0900  0.2566 -0.0558
  159MOL0     C21395   1.458   3.734   8.121  0.1258 -0.3749  0.0994
  159MOL0     C21396   0.669   3.759   8.105 -0.3668 -0.0212  0.5863
  159MOL0     C21397   0.531   3.766   8.123  0.3529 -0.3405  0.4355
  159MOL0     H21398   0.061   3.801   8.039 -0.2268  0.7178 -0.0962
  159MOL0     H21399  -0.175   3.791   8.110  1.0411 -1.1649 -0.5883
  159MOL0     H21400  -0.405   3.804   8.226 -2.9388 -1.0364  0.6588
  159MOL0     H21401  -0.303   3.653   8.217  0.9433  0.5806 -0.2829
  159MOL0     H21402  -0.399   3.583   8.438 -0.7150  0.3525  0.6167
  159MOL0     H21403  -0.501   3.733   8.426 -1.6217  1.0116 -1.8891
  159MOL0     H21404  -0.618   3.653   8.244 -0.3632  1.4270  2.8672
  159MOL0     H21405  -0.495   3.539   8.198 -1.6632  2.1711 -0.9795
  159MOL0     H21406  -0.564   3.382   8.382 -1.4683 -0.4513  2.5247
  159MOL0     H21407  -0.673   3.506   8.445  0.9350  2.3897 -0.4530
  159MOL0     H21408  -0.693   3.373   8.159 -0.2257 -0.2614 -0.2717
  159MOL0     H21409  -0.759   3.311   8.300 -0.2248  0.3190 -1.1351
  159MOL0     H21410  -0.829   3.594   8.221 -2.0866  0.7827  1.6936
  159MOL0     H21411  -0.895   3.463   8.130  3.5596  0.1532 -2.0260
  159MOL0     H21412  -0.982   3.349   8.349  1.9004 -0.7085  0.8121
  159MOL0     H21413  -0.929   3.495   8.434  3.3218 -0.4155 -1.4547
  159MOL0     H21414  -1.141   3.455   8.208  0.6832 -1.4343 -0.4420
  159MOL0     H21415  -1.114   3.613   8.280 -0.1702  0.6483  0.1065
  159MOL0     H21416  -1.200   3.661   8.536  0.0637  0.2202 -0.8340
  159MOL0     H21417  -1.386   3.484   8.806 -3.0616  0.4654  0.5788
  159MOL0     H21418  -1.387   3.633   8.732  2.1171 -0.8367 -0.7038
  159MOL0     H21419  -1.552   3.427   8.589  0.0592  0.6804 -0.4021
  159MOL0     H21420  -1.575   3.603   8.610 -1.7930 -0.9250 -1.8547
  159MOL0     H21421  -1.616   3.541   8.866  0.2594 -1.8391  0.5040
  159MOL0     H21422  -1.648   3.380   8.821 -1.6259 -0.2816 -0.1148
  159MOL0     H21423  -1.804   3.441   8.650  1.2941 -0.1081 -0.3526
  159MOL0     H21424  -1.787   3.613   8.700 -3.0335 -0.8346 -2.1807
  159MOL0     H21425  -2.052   3.496   9.010 -3.2307  2.0782  1.8017
  159MOL0     H21426  -2.346   3.555   9.074 -1.1334  1.2043 -3.0577
  159MOL0     H21427  -2.399   3.400   9.002 -0.2264  0.1454  0.7585
  159MOL0     H21428  -2.250   3.408   9.095 -0.9439  1.0276  1.8826
  159MOL0     H21429  -2.604   3.267   8.796 -2.6859 -3.0885  2.2128
  159MOL0     H21430  -2.856   3.194   8.780  0.9863 -0.5427 -1.3882
  159MOL0     H21431  -3.233   3.453   8.758 -0.2121  0.0865  0.0804
  159MOL0     H21432  -3.106   3.513   8.655  2.4552 -1.3948  1.2755
  159MOL0     H21433  -3.104   3.308   8.517  1.5885 -2.3687  1.7349
  159MOL0     H21434  -3.218   3.232   8.626  1.1392  0.6413  0.7991
  159MOL0     H21435  -3.273   3.461   8.432 -0.5861  2.0315  0.8768
  159MOL0     H21436  -3.364   3.447   8.580  1.4660  1.5979 -0.2562
  159MOL0     H21437  -3.332   3.225   8.367 -0.9024  0.4929 -0.5279
  159MOL0     H21438  -3.426   3.213   8.519  0.3681 -1.6666 -1.7357
  159MOL0     H21439  -3.480   3.401   8.277 -0.8237 -0.0587  0.0957
  159MOL0     H21440  -3.550   3.405   8.446  0.1501 -0.8333  1.4129
  159MOL0     H21441  -3.548   3.180   8.242  0.3306 -2.0012  1.8431
  159MOL0     H21442  -3.644   3.182   8.392 -0.5443 -0.8501 -0.8535
  159MOL0     H21443  -3.691   3.366   8.148  1.1414 -1.0984  0.1257
  159MOL0     H21444  -3.748   3.412   8.314  0.1523 -0.1061 -0.3295
  159MOL0     H21445  -3.927   3.308   8.189  0.0111  0.9351  2.6572
  159MOL0     H21446  -3.876   3.186   8.307  0.4673 -1.7257 -1.2930
  159MOL0     H21447  -2.959   3.602   8.781 -0.5390  0.6438  0.9484
  159MOL0     H21448  -2.713   3.670   8.791  1.1029 -0.2632 -0.8983
  159MOL0     H21449  -2.239   3.500   8.554 -2.6634  2.8108  0.2463
  159MOL0     H21450  -1.997   3.515   8.587  1.0148 -0.6077  1.3773
  159MOL0     H21451  -0.075   3.807   8.519 -5.2283 -0.2074 -1.5832
  159MOL0     H21452   0.170   3.812   8.469 -1.0393 -3.2868  1.3619
  159MOL0     H21453   0.450   4.060   7.974 -0.4650  0.1271 -0.5915
  159MOL0     H21454   0.711   4.056   7.939  1.3787  0.5852  1.7727
  159MOL0     H21455   0.945   3.787   8.184  2.8377  1.4439 -0.0289
  159MOL0     H21456   0.969   3.683   8.041  1.4343 -0.4360  0.7096
  159MOL0     H21457   1.147   3.826   8.161  1.1539 -2.2866 -1.9346
  159MOL0     H21458   1.054   3.963   8.111 -0.4283  0.8364 -4.2459
  159MOL0     H21459   1.119   3.947   7.891 -1.8001 -1.4496 -1.7990
  159MOL0     H21460   1.167   3.780   7.906 -0.6379  0.4344 -2.1748
  159MOL0     H21461   1.333   4.012   8.017  2.4115  0.4989 -0.3164
  159MOL0     H21462   1.354   3.924   7.871  1.1902  2.3762  0.4717
  159MOL0     H21463   1.511   3.666   8.185  1.1375  0.8961  0.6451
  159MOL0     H21464   0.715   3.671   8.148 -1.2851 -0.1488  1.3312
  159MOL0     H21465   0.500   3.679   8.179 -1.2061  0.0633  0.2458
  160MOL0     O21466   4.608   6.819  10.709 -0.7166  0.0842  0.7468
  160MOL0     C21467   4.681   6.726  10.739 -0.3007 -0.3803 -0.3938
  160MOL0     O21468   4.647   6.589  10.726 -0.4387 -0.4370  0.6519
  160MOL0     C21469   4.514   6.563  10.704  0.1558  0.6935 -0.1456
  160MOL0     C21470   4.451   6.473  10.784 -0.2230 -1.0091 -0.6470
  160MOL0     C21471   4.320   6.424  10.749 -0.4931 -0.3395 -0.4115
  160MOL0     C21472   4.258   6.476  10.638  0.0899  0.1349  0.1634
  160MOL0     O21473   4.137   6.422  10.613 -0.0422 -0.3894 -0.0479
  160MOL0     C21474   4.083   6.411  10.482 -0.0631 -0.6635 -0.2657
  160MOL0     C21475   3.935   6.462  10.474 -0.8731 -0.1085  0.1160
  160MOL0     C21476   3.933   6.615  10.525  0.1527 -0.1015  0.3698
  160MOL0     C21477   3.864   6.697  10.411  0.1662  0.2269 -0.0554
  160MOL0     C21478   3.828   6.833  10.450  0.1584 -0.5908 -0.5094
  160MOL0     C21479   3.706   6.821  10.547  0.2681 -0.2506  0.1137
  160MOL0     C21480   3.661   6.952  10.606 -1.0750 -0.0422  0.2922
  160MOL0     C21481   3.581   7.033  10.501  0.7608 -0.4354 -0.5335
  160MOL0     N21482   3.461   6.973  10.431  0.4385 -0.5793 -0.2738
  160MOL0     C21483   3.330   6.971  10.488 -0.0584 -0.5112  0.1796
  160MOL0     C21484   3.255   6.891  10.407 -0.3870 -0.5815 -0.4468
  160MOL0     C21485   3.109   6.860  10.425 -0.5407 -0.0829 -0.1574
  160MOL0     C21486   3.015   6.984  10.415 -0.2960 -0.5168 -0.4580
  160MOL0     C21487   2.886   6.975  10.496 -0.2073  0.3743 -0.7199
  160MOL0     C21488   2.804   7.101  10.464  1.0023 -0.7724  0.4397
  160MOL0     O21489   2.751   7.095  10.327  0.2735  0.3152 -0.0043
  160MOL0     C21490   2.644   7.174  10.299  0.3190 -0.0257 -0.1707
  160MOL0     C21491   2.568   7.143  10.183  0.9488 -0.8508  0.6776
  160MOL0     C21492   2.452   7.200  10.148  0.2847 -0.1729  0.1136
  160MOL0     C21493   2.371   7.143  10.030 -0.0888  0.2102 -0.1881
  160MOL0     C21494   2.416   7.316  10.225 -0.4872 -0.5850  0.0665
  160MOL0     C21495   2.296   7.397  10.191 -0.3450  0.3333  0.5338
  160MOL0     O21496   2.252   7.481  10.290  0.5146 -0.2788  0.1055
  160MOL0     C21497   2.141   7.557  10.261 -0.8764 -0.5432  0.6655
  160MOL0     C21498   2.141   7.662  10.165  0.4504  1.0077 -0.0954
  160MOL0     C21499   2.027   7.748  10.148  0.3778  0.7115 -0.2344
  160MOL0     C21500   1.905   7.712  10.213 -0.0281 -0.6151 -0.5699
  160MOL0     O21501   1.795   7.785  10.207 -0.1813 -0.4179  0.2303
  160MOL0     C21502   1.816   7.911  10.270 -0.1225 -0.5892  0.3636
  160MOL0     C21503   1.742   8.020  10.194 -0.5750 -0.0127  0.1849
  160MOL0     C21504   1.600   8.005  10.216  0.5303  0.2867 -0.4319
  160MOL0     C21505   1.516   8.131  10.196  0.4361  0.2017 -0.0644
  160MOL0     C21506   1.371   8.109  10.125 -0.1489  0.0640  0.1423
  160MOL0     C21507   1.307   8.243  10.079 -0.5589 -0.0405  0.0293
  160MOL0     C21508   1.281   8.330  10.200  0.2171  0.8425  0.3077
  160MOL0     C21509   1.232   8.467  10.148  0.2331  0.5215 -1.2423
  160MOL0    Cl21510   1.355   8.562  10.054 -0.0462  0.3733  0.3426
  160MOL0     C21511   1.910   7.618  10.322 -0.4400  0.4137  0.3598
  160MOL0     C21512   2.034   7.549  10.351 -0.8168  1.0015  1.0597
  160MOL0     O21513   2.238   7.393  10.081 -0.6955  0.6557  0.0645
  160MOL0     C21514   2.493   7.357  10.339  0.5261  0.8664  0.1687
  160MOL0     C21515   2.602   7.275  10.377  0.2529  0.3901 -0.4663
  160MOL0     N21516   3.345   6.857  10.303  0.3468 -0.7907 -0.1269
  160MOL0     N21517   3.468   6.902  10.315  0.5299  0.4283  0.0116
  160MOL0     C21518   4.317   6.571  10.557 -1.4064 -0.2150  0.0742
  160MOL0     C21519   4.451   6.611  10.587  0.6725  0.0044 -0.4296
  160MOL0     C21520   4.820   6.776  10.772 -0.1341 -0.2918  0.3692
  160MOL0     C21521   4.847   6.914  10.779  1.4329 -0.2355 -0.3639
  160MOL0     C21522   4.978   6.968  10.817 -0.3921 -0.2887  0.2792
  160MOL0     C21523   5.071   6.873  10.851 -0.3832  0.4740  0.8225
  160MOL0     O21524   5.194   6.918  10.890 -0.6562 -0.5234  0.2856
  160MOL0     C21525   5.302   6.824  10.852 -0.4292 -1.2522  0.0893
  160MOL0     C21526   5.432   6.900  10.837  0.0898 -0.6818 -0.6337
  160MOL0     C21527   5.492   6.933  10.979  0.3930 -0.1552 -0.1163
  160MOL0     C21528   5.595   7.044  10.972 -0.2449  0.1990  0.0432
  160MOL0     C21529   5.630   7.074  11.109  0.1449 -0.6527 -0.4456
  160MOL0     C21530   5.663   7.103  11.219  0.2529 -0.0672  0.0461
  160MOL0     C21531   5.044   6.741  10.834  0.3106  0.4206 -0.8280
  160MOL0     C21532   4.922   6.685  10.798  0.5940 -0.3151  0.3209
  160MOL0     H21533   4.489   6.434  10.878 -1.5942 -1.7077 -0.3404
  160MOL0     H21534   4.271   6.357  10.819 -0.6110  1.5611  1.4265
  160MOL0     H21535   4.142   6.484  10.425 -0.0610  0.3541  1.0154
  160MOL0     H21536   4.089   6.309  10.444 -0.2689 -1.2821  1.3012
  160MOL0     H21537   3.889   6.448  10.376 -0.0566 -4.4322  0.1194
  160MOL0     H21538   3.886   6.387  10.538  0.5692 -2.0693 -0.9468
  160MOL0     H21539   3.881   6.621  10.621  0.1465 -1.4715  0.4761
  160MOL0     H21540   4.028   6.662  10.551 -0.7025  1.5925  0.5484
  160MOL0     H21541   3.937   6.693  10.330 -0.7784  0.0717 -0.9055
  160MOL0     H21542   3.779   6.637  10.379 -0.7840  0.5806  1.6628
  160MOL0     H21543   3.909   6.883  10.504 -0.1091 -0.9895  0.2682
  160MOL0     H21544   3.807   6.887  10.357  0.9307 -1.8427 -1.4529
  160MOL0     H21545   3.627   6.773  10.489  0.6722 -1.6669  0.6893
  160MOL0     H21546   3.737   6.754  10.628  1.1731 -1.5759 -1.2679
  160MOL0     H21547   3.607   6.944  10.701 -0.2095 -0.2890  0.7777
  160MOL0     H21548   3.755   7.000  10.636 -1.4668 -0.3464  2.1588
  160MOL0     H21549   3.653   7.063  10.424 -0.5275 -0.6330 -1.8700
  160MOL0     H21550   3.544   7.118  10.558  1.5078 -0.0981 -0.5477
  160MOL0     H21551   3.296   7.037  10.567  1.7355 -0.6426  1.1217
  160MOL0     H21552   3.096   6.787  10.345 -0.8000 -0.4969  0.2634
  160MOL0     H21553   3.095   6.805  10.518  1.4697 -0.8292 -0.2423
  160MOL0     H21554   2.990   6.997  10.309  3.5321 -0.0050 -1.4694
  160MOL0     H21555   3.061   7.079  10.444 -1.4291  0.1268 -0.7230
  160MOL0     H21556   2.909   6.978  10.603  1.9092 -0.7011 -1.0948
  160MOL0     H21557   2.830   6.886  10.466 -0.4793  0.7127 -1.2344
  160MOL0     H21558   2.858   7.194  10.484 -0.0738 -0.2870  1.2317
  160MOL0     H21559   2.715   7.101  10.528  0.6381  1.0365 -0.0243
  160MOL0     H21560   2.611   7.062  10.124 -1.5971 -1.8367  0.0313
  160MOL0     H21561   2.422   7.057   9.986 -0.7285  0.5533 -1.6326
  160MOL0     H21562   2.271   7.112  10.060 -0.7976  4.5628  3.0033
  160MOL0     H21563   2.358   7.223   9.957  4.7913  1.4688 -0.0630
  160MOL0     H21564   2.238   7.671  10.117  1.0040  0.5816  0.9207
  160MOL0     H21565   2.037   7.836  10.085 -2.3750  1.3238  0.0572
  160MOL0     H21566   1.781   7.904  10.373 -1.7257 -0.4441 -0.1458
  160MOL0     H21567   1.922   7.934  10.276 -0.1168  0.0761 -1.6361
  160MOL0     H21568   1.781   8.113  10.238  0.5610 -1.1131  1.6291
  160MOL0     H21569   1.770   8.025  10.089 -0.4356 -2.3370  0.0678
  160MOL0     H21570   1.584   7.984  10.322  0.6715  2.6649  0.1075
  160MOL0     H21571   1.545   7.929  10.160  0.7181  0.0328 -0.2777
  160MOL0     H21572   1.501   8.175  10.295 -0.4451  0.3974 -0.2750
  160MOL0     H21573   1.582   8.204  10.149 -0.3422  0.8476 -0.1805
  160MOL0     H21574   1.300   8.056  10.189 -1.0821  1.2148  0.0934
  160MOL0     H21575   1.390   8.050  10.035  0.9523 -0.9220  0.9884
  160MOL0     H21576   1.375   8.292  10.008  1.0192  0.3664  1.7596
  160MOL0     H21577   1.215   8.225  10.021 -0.2800 -0.6671 -0.2326
  160MOL0     H21578   1.369   8.350  10.261 -1.0024  0.4724  2.2881
  160MOL0     H21579   1.203   8.287  10.264 -0.2510  2.4717  0.8829
  160MOL0     H21580   1.194   8.530  10.229 -0.5001 -0.3580 -0.8824
  160MOL0     H21581   1.153   8.464  10.072 -2.3117  2.5675  1.1015
  160MOL0     H21582   1.829   7.612  10.395  1.7223  1.1910  3.0075
  160MOL0     H21583   2.052   7.493  10.443 -1.9846  2.9437  2.5538
  160MOL0     H21584   2.473   7.448  10.395 -1.0970  1.1550 -0.8273
  160MOL0     H21585   2.665   7.305  10.460 -2.8675  2.3719  1.3796
  160MOL0     H21586   4.269   6.623  10.475 -1.8065 -0.3159  0.2409
  160MOL0     H21587   4.504   6.684  10.527 -1.1264  4.7128  3.0782
  160MOL0     H21588   4.776   6.994  10.762  4.1053  1.9429 -2.1795
  160MOL0     H21589   5.001   7.069  10.849 -0.6526  0.0805 -0.6557
  160MOL0     H21590   5.308   6.749  10.932 -0.0264 -0.0825  1.1910
  160MOL0     H21591   5.282   6.779  10.755  2.7063  0.4220 -1.4915
  160MOL0     H21592   5.433   6.991  10.776  2.0590  1.2373  1.9505
  160MOL0     H21593   5.501   6.836  10.782  0.5510 -0.6893 -0.0649
  160MOL0     H21594   5.526   6.844  11.033 -1.3447 -0.5614  0.3862
  160MOL0     H21595   5.421   6.976  11.050 -0.7426 -1.4187 -0.4215
  160MOL0     H21596   5.561   7.130  10.914  0.8886  1.5933  1.3401
  160MOL0     H21597   5.682   7.003  10.920 -2.8229 -0.5093 -4.1494
  160MOL0     H21598   5.706   7.117  11.316  0.2304 -1.3259  0.2478
  160MOL0     H21599   5.108   6.673  10.890 -1.2160  0.0888  0.5803
  160MOL0     H21600   4.901   6.578  10.801 -0.3506 -0.5808 -5.3248
  161MOL0     O21601  10.482  10.857  11.083 -0.8459 -0.2695 -0.7692
  161MOL0     C21602  10.515  10.976  11.090  0.0575 -0.1037 -0.0214
  161MOL0     O21603  10.426  11.080  11.118 -0.6735 -0.5810  0.0959
  161MOL0     C21604  10.289  11.062  11.142 -0.2455 -0.4500  0.3273
  161MOL0     C21605  10.222  11.175  11.164 -0.7305 -0.4456  0.1061
  161MOL0     C21606  10.087  11.179  11.191 -0.3140  0.7571 -0.3448
  161MOL0     C21607  10.015  11.060  11.215 -0.4745 -0.2157 -0.0723
  161MOL0     O21608   9.888  11.076  11.248 -0.3388 -0.0583  0.1828
  161MOL0     C21609   9.828  10.970  11.326 -0.3612 -0.9342 -0.1744
  161MOL0     C21610   9.706  11.026  11.395 -0.3702 -1.0280 -0.8598
  161MOL0     C21611   9.605  11.087  11.305 -0.2119  0.6517 -0.7532
  161MOL0     C21612   9.499  11.148  11.392  0.8024 -0.2575  0.3375
  161MOL0     C21613   9.377  11.166  11.305  0.5333 -0.2529  0.6694
  161MOL0     C21614   9.393  11.284  11.201 -0.2403 -0.3962 -0.3563
  161MOL0     C21615   9.260  11.339  11.149 -0.4591  0.2510 -0.2679
  161MOL0     C21616   9.200  11.229  11.065 -0.4846 -0.2861 -0.2296
  161MOL0     N21617   9.071  11.269  11.014 -0.2535 -1.2811  0.0558
  161MOL0     C21618   9.049  11.352  10.908  0.5802 -0.3266 -0.4852
  161MOL0     C21619   8.914  11.350  10.893  0.8437  0.7610 -0.7859
  161MOL0     C21620   8.855  11.410  10.775  0.3596 -0.2690  0.1062
  161MOL0     C21621   8.719  11.481  10.794  0.8125 -0.8583  0.2445
  161MOL0     C21622   8.666  11.564  10.672 -0.1648  0.0358 -0.3689
  161MOL0     C21623   8.546  11.650  10.708  0.2994 -0.3959  0.0905
  161MOL0     O21624   8.474  11.670  10.580  0.8733 -0.1450 -0.1463
  161MOL0     C21625   8.336  11.694  10.575  0.5616 -0.1180  0.2449
  161MOL0     C21626   8.271  11.649  10.457 -0.0262  0.5836  0.5623
  161MOL0     C21627   8.131  11.666  10.427  0.0218 -0.5602 -0.2185
  161MOL0     C21628   8.071  11.621  10.293 -0.3408  0.9736  0.7609
  161MOL0     C21629   8.051  11.722  10.539 -0.3563 -0.2399 -0.7285
  161MOL0     C21630   7.912  11.746  10.539 -0.0580  0.7133 -0.1171
  161MOL0     O21631   7.849  11.776  10.417  0.6286 -0.5885 -0.0804
  161MOL0     C21632   7.709  11.798  10.398 -1.1670 -0.8376 -0.1872
  161MOL0     C21633   7.668  11.820  10.264  0.7561 -0.2239 -0.7169
  161MOL0     C21634   7.528  11.837  10.235 -0.8007 -0.4480  0.3433
  161MOL0     C21635   7.438  11.836  10.341 -0.0078  0.5128 -0.5675
  161MOL0     O21636   7.307  11.877  10.316 -0.1974  0.0222  0.3299
  161MOL0     C21637   7.233  11.780  10.241 -0.7911  0.2079  0.1650
  161MOL0     C21638   7.095  11.830  10.215  0.9200 -0.3942 -0.2529
  161MOL0     C21639   7.100  11.942  10.118  1.1875 -0.0210 -0.9756
  161MOL0     C21640   6.961  12.004  10.084  0.0577  0.1615  0.1480
  161MOL0     C21641   6.867  11.897  10.043  0.4729  0.2373  0.3205
  161MOL0     C21642   6.731  11.955  10.003 -0.1498  0.0427 -0.1750
  161MOL0     C21643   6.637  11.847   9.963 -0.3143  0.2481 -0.3477
  161MOL0     C21644   6.489  11.893   9.956 -0.0379 -0.5687  0.4636
  161MOL0    Cl21645   6.422  11.948  10.105 -0.1439 -0.4768 -0.1949
  161MOL0     C21646   7.478  11.813  10.474  0.0814 -0.4819 -0.7283
  161MOL0     C21647   7.611  11.794  10.504 -0.4721 -0.3705  0.3224
  161MOL0     O21648   7.858  11.758  10.648 -0.1455  0.2138 -0.4418
  161MOL0     C21649   8.118  11.759  10.663  1.1736  0.1201 -0.7203
  161MOL0     C21650   8.259  11.746  10.674  0.0932 -0.0256 -0.7715
  161MOL0     N21651   8.855  11.270  10.989  0.1687 -0.4619  0.0323
  161MOL0     N21652   8.948  11.218  11.057 -0.0409 -0.1569 -0.3405
  161MOL0     C21653  10.087  10.940  11.197 -0.8876  0.1639 -1.1202
  161MOL0     C21654  10.223  10.938  11.157 -0.2858 -0.5365 -0.4511
  161MOL0     C21655  10.658  11.027  11.087 -0.4509 -0.4582 -0.2233
  161MOL0     C21656  10.770  10.943  11.088 -0.1669  0.5248  0.6973
  161MOL0     C21657  10.907  10.987  11.088  0.7362  0.6253  0.4153
  161MOL0     C21658  10.931  11.120  11.074  0.8397 -0.8577 -0.1269
  161MOL0     O21659  11.055  11.184  11.054  0.1837  0.2857 -0.2615
  161MOL0     C21660  11.178  11.116  11.093  0.3815 -0.4754  1.1481
  161MOL0     C21661  11.184  11.073  11.236  0.3048  0.6028 -0.3984
  161MOL0     C21662  11.150  11.182  11.339  0.1285 -0.3627  0.9353
  161MOL0     C21663  11.254  11.293  11.362 -0.0843  0.8960 -0.4008
  161MOL0     C21664  11.376  11.228  11.413  0.4367  1.0095  1.7606
  161MOL0     C21665  11.464  11.161  11.453 -0.6505 -0.2453 -1.2721
  161MOL0     C21666  10.820  11.207  11.077 -0.0066 -0.5012 -0.3134
  161MOL0     C21667  10.689  11.164  11.086 -0.2333 -0.0404 -0.4604
  161MOL0     H21668  10.274  11.269  11.148 -0.7802 -0.3007  0.7720
  161MOL0     H21669  10.046  11.279  11.201 -0.4249  0.5893  1.0636
  161MOL0     H21670   9.798  10.895  11.251  1.4421 -0.4619 -1.4304
  161MOL0     H21671   9.882  10.921  11.408 -2.0935 -0.1624  1.5109
  161MOL0     H21672   9.670  10.950  11.465  0.3596 -2.5596 -2.0833
  161MOL0     H21673   9.746  11.106  11.458  0.7169 -0.1769 -2.5374
  161MOL0     H21674   9.644  11.159  11.233 -0.3032  0.8117 -0.6433
  161MOL0     H21675   9.555  11.005  11.252 -1.1236 -0.3369  1.4692
  161MOL0     H21676   9.464  11.072  11.462 -0.5503 -0.0158 -0.0467
  161MOL0     H21677   9.527  11.248  11.426 -1.1025  1.0599 -1.6707
  161MOL0     H21678   9.343  11.074  11.256  3.3039 -2.0629  1.8817
  161MOL0     H21679   9.288  11.184  11.366 -1.1399 -2.2688 -1.0134
  161MOL0     H21680   9.444  11.368  11.249  0.4066 -0.3434 -1.1076
  161MOL0     H21681   9.457  11.250  11.118 -0.7701 -4.2803  0.6085
  161MOL0     H21682   9.198  11.372  11.232 -1.6404 -2.3170 -0.0345
  161MOL0     H21683   9.270  11.421  11.078 -1.8452 -1.7236 -2.9016
  161MOL0     H21684   9.178  11.142  11.128 -1.8614  2.3831  3.2469
  161MOL0     H21685   9.273  11.201  10.988 -0.7646  1.0393 -1.0095
  161MOL0     H21686   9.120  11.410  10.851  0.9911 -0.6181 -0.2757
  161MOL0     H21687   8.932  11.482  10.742 -0.2977  0.8782  0.9975
  161MOL0     H21688   8.838  11.337  10.696 -4.4684  1.1207 -0.4570
  161MOL0     H21689   8.739  11.560  10.866  2.9150  1.0510 -2.2383
  161MOL0     H21690   8.642  11.412  10.830  0.8696 -1.4151 -0.6588
  161MOL0     H21691   8.648  11.493  10.590 -2.3811  0.6265 -0.4491
  161MOL0     H21692   8.746  11.634  10.645  0.0371 -0.4772 -1.1254
  161MOL0     H21693   8.578  11.748  10.747  0.6714  0.2605 -1.7239
  161MOL0     H21694   8.486  11.602  10.785 -0.6448 -1.8065 -1.4604
  161MOL0     H21695   8.332  11.603  10.380  0.0416 -1.4754  1.7870
  161MOL0     H21696   7.987  11.553  10.310  0.9695 -0.7216  0.6578
  161MOL0     H21697   8.040  11.704  10.228  0.6363 -0.5994 -1.8545
  161MOL0     H21698   8.149  11.564  10.242  0.4328  0.3170  2.5929
  161MOL0     H21699   7.746  11.804  10.190  1.2847 -1.1513  0.0145
  161MOL0     H21700   7.476  11.860  10.143 -2.2430 -0.4399  1.1311
  161MOL0     H21701   7.290  11.760  10.150  0.2552 -0.1438  0.8773
  161MOL0     H21702   7.227  11.691  10.305 -0.2478 -1.5209 -2.0714
  161MOL0     H21703   7.035  11.747  10.177 -0.3101  0.6342 -0.6300
  161MOL0     H21704   7.047  11.864  10.307 -2.2117  1.6503 -2.4266
  161MOL0     H21705   7.135  11.902  10.022 -2.5456 -2.5591 -1.5059
  161MOL0     H21706   7.175  12.015  10.149 -0.9211  2.1924 -0.7452
  161MOL0     H21707   6.918  12.048  10.174  0.3346 -2.7379  1.8245
  161MOL0     H21708   6.970  12.077  10.003 -2.5786  0.1419 -0.2404
  161MOL0     H21709   6.849  11.820  10.120  0.0852  1.3542  1.3745
  161MOL0     H21710   6.899  11.842   9.954 -1.4120  0.1923 -0.3618
  161MOL0     H21711   6.690  11.997  10.096  0.1137 -1.9388  0.8785
  161MOL0     H21712   6.740  12.031   9.924  0.7427 -0.8067 -0.9095
  161MOL0     H21713   6.649  11.763  10.032 -0.5342 -0.5082 -1.2134
  161MOL0     H21714   6.671  11.820   9.863  2.2726 -1.2597  0.8338
  161MOL0     H21715   6.434  11.808   9.914 -2.3460  0.8175  0.5218
  161MOL0     H21716   6.495  11.980   9.889 -0.0408 -1.2741 -0.4771
  161MOL0     H21717   7.408  11.838  10.553  1.4254  0.8432  0.0893
  161MOL0     H21718   7.643  11.780  10.607 -0.8585  1.6135  0.7587
  161MOL0     H21719   8.065  11.782  10.754 -0.1470 -5.5826  0.3936
  161MOL0     H21720   8.318  11.795  10.751  1.2068 -2.2155 -0.1659
  161MOL0     H21721  10.040  10.845  11.219  0.2907 -0.1121  0.3529
  161MOL0     H21722  10.268  10.839  11.154  0.4443 -0.1955 -1.2820
  161MOL0     H21723  10.762  10.834  11.087 -0.8777  0.5568  1.4813
  161MOL0     H21724  10.986  10.914  11.081 -0.9412 -1.2315 -0.1828
  161MOL0     H21725  11.192  11.029  11.029  2.3885  1.2455 -0.9555
  161MOL0     H21726  11.262  11.183  11.075 -0.1030 -0.3924 -1.1658
  161MOL0     H21727  11.282  11.026  11.252 -1.5957 -3.7733 -0.0849
  161MOL0     H21728  11.124  10.983  11.255  1.7478 -0.8891 -2.5038
  161MOL0     H21729  11.137  11.124  11.431 -0.3707  0.1260  1.1815
  161MOL0     H21730  11.052  11.222  11.311  0.1473  0.1790  1.6267
  161MOL0     H21731  11.212  11.363  11.435  1.4587  0.6170  0.7844
  161MOL0     H21732  11.273  11.346  11.268 -0.0296 -1.3714 -1.7315
  161MOL0     H21733  11.546  11.115  11.505 -1.6461 -1.3803 -0.6471
  161MOL0     H21734  10.853  11.311  11.072  3.3613 -1.5202 -3.0561
  161MOL0     H21735  10.605  11.233  11.082  0.0113  0.2262 -1.0938
  162MOL0     O21736   3.776   6.071   3.813 -0.0773  0.2629 -0.3012
  162MOL0     C21737   3.779   5.947   3.835 -0.8510 -1.4673 -0.2016
  162MOL0     O21738   3.675   5.865   3.834  0.5187 -0.7243  0.0667
  162MOL0     C21739   3.554   5.925   3.810 -0.1569 -0.3853 -0.5443
  162MOL0     C21740   3.501   5.932   3.675 -0.9574  0.6697  0.0550
  162MOL0     C21741   3.372   5.993   3.656  0.3725 -0.5545  0.0636
  162MOL0     C21742   3.301   6.044   3.764 -0.2131 -0.1824 -0.3915
  162MOL0     O21743   3.176   6.103   3.749  0.6943 -0.3416 -0.3699
  162MOL0     C21744   3.066   6.015   3.719 -0.8743  0.0794 -0.5969
  162MOL0     C21745   2.944   6.101   3.725  0.2088 -0.0917  0.3957
  162MOL0     C21746   2.818   6.016   3.669 -0.0361 -0.5208 -0.0197
  162MOL0     C21747   2.705   6.120   3.643  0.8533 -0.8480 -0.0422
  162MOL0     C21748   2.567   6.067   3.650 -0.6440 -0.2813 -0.4602
  162MOL0     C21749   2.471   6.176   3.633  0.4257  0.3219  0.3469
  162MOL0     C21750   2.334   6.116   3.604 -0.7635 -0.9024  0.5132
  162MOL0     C21751   2.306   6.086   3.459 -0.2981 -0.1197 -0.4097
  162MOL0     N21752   2.163   6.040   3.444 -0.6369  0.0456  0.1372
  162MOL0     C21753   2.069   6.115   3.380  0.6439  0.2949  0.2377
  162MOL0     C21754   1.952   6.045   3.404 -0.8086 -0.5231  0.0697
  162MOL0     C21755   1.825   6.077   3.336 -0.0491  0.0085  0.2691
  162MOL0     C21756   1.724   6.147   3.430 -0.4319  0.0469  0.2258
  162MOL0     C21757   1.594   6.190   3.358  1.2334 -0.0248  0.3338
  162MOL0     C21758   1.487   6.239   3.449 -0.4979 -0.9863  0.3444
  162MOL0     O21759   1.383   6.299   3.375 -0.1819  0.2919 -0.3268
  162MOL0     C21760   1.269   6.337   3.441  0.4307 -0.0203  0.2267
  162MOL0     C21761   1.161   6.379   3.368 -0.6240  0.1083  1.1638
  162MOL0     C21762   1.040   6.423   3.421 -0.4831  0.3558 -0.0819
  162MOL0     C21763   0.940   6.472   3.313 -0.1174  0.7338 -0.3160
  162MOL0     C21764   1.024   6.429   3.559  0.6348 -0.5090  0.2931
  162MOL0     C21765   0.901   6.461   3.626  0.7408 -0.0301  0.1820
  162MOL0     O21766   0.878   6.415   3.751  0.1481 -0.8209  0.3529
  162MOL0     C21767   0.760   6.452   3.812 -0.3414 -0.3341 -0.9130
  162MOL0     C21768   0.662   6.360   3.841  0.0007  0.7005  0.0185
  162MOL0     C21769   0.543   6.389   3.902 -0.2827 -0.2332 -0.8386
  162MOL0     C21770   0.520   6.522   3.943  0.5928 -0.5249 -0.1905
  162MOL0     O21771   0.424   6.574   4.029  0.4031 -0.0446 -0.0866
  162MOL0     C21772   0.318   6.487   4.073  0.6408 -0.1601 -0.9902
  162MOL0     C21773   0.234   6.571   4.173  0.3526 -0.6101 -0.3683
  162MOL0     C21774   0.129   6.488   4.248  1.2070  0.3933 -0.4333
  162MOL0     C21775   0.026   6.588   4.304 -0.0145 -0.1692  0.4930
  162MOL0     C21776  -0.088   6.537   4.386  1.1995  0.0801  0.1066
  162MOL0     C21777  -0.166   6.431   4.314  0.1154  0.4332 -0.5291
  162MOL0     C21778  -0.306   6.399   4.378 -0.0296  0.2966 -0.9359
  162MOL0     C21779  -0.383   6.306   4.280 -0.4489 -0.0220  0.0362
  162MOL0    Cl21780  -0.548   6.284   4.345 -0.0909 -0.3172 -0.4241
  162MOL0     C21781   0.611   6.619   3.912 -0.6377 -0.6227 -0.7447
  162MOL0     C21782   0.733   6.586   3.851  1.1432  0.0606  0.2965
  162MOL0     O21783   0.836   6.552   3.574  0.5303  0.0379 -0.1634
  162MOL0     C21784   1.132   6.382   3.636  0.2824  0.7279 -0.3358
  162MOL0     C21785   1.252   6.339   3.578  0.0619 -0.0762  0.1998
  162MOL0     N21786   1.963   5.940   3.490 -0.8103 -0.1694  0.2865
  162MOL0     N21787   2.102   5.932   3.502 -0.4066  0.1454 -0.5695
  162MOL0     C21788   3.355   6.041   3.893  0.5170 -0.8889  0.4866
  162MOL0     C21789   3.481   5.979   3.914  0.4187  0.1022 -0.3001
  162MOL0     C21790   3.904   5.888   3.885 -0.0784 -0.1612 -0.4690
  162MOL0     C21791   3.900   5.768   3.946 -0.6157 -0.8700 -0.7460
  162MOL0     C21792   4.021   5.703   3.983 -0.2877 -0.6640 -0.4945
  162MOL0     C21793   4.143   5.765   3.966  0.4637 -0.1865  0.1908
  162MOL0     O21794   4.257   5.703   4.010  0.5062 -0.4633  0.0966
  162MOL0     C21795   4.357   5.675   3.905 -0.0908 -0.0828 -1.4172
  162MOL0     C21796   4.390   5.535   3.910  0.4559 -0.7079  0.4097
  162MOL0     C21797   4.506   5.515   4.021 -0.2564 -0.4732 -0.2061
  162MOL0     C21798   4.619   5.412   3.979  0.4306 -0.2866 -0.5413
  162MOL0     C21799   4.737   5.419   4.060  0.3869 -0.0104 -0.4417
  162MOL0     C21800   4.844   5.427   4.122 -0.0195 -0.4219 -0.1790
  162MOL0     C21801   4.146   5.893   3.910  0.3950 -0.1683  0.2366
  162MOL0     C21802   4.029   5.951   3.871  0.2533 -0.2343 -0.8118
  162MOL0     H21803   3.557   5.887   3.593 -1.8006 -0.5007  0.0921
  162MOL0     H21804   3.326   5.996   3.558  1.2761 -1.2352 -0.3885
  162MOL0     H21805   3.083   5.982   3.616 -1.3223 -1.3016 -0.2477
  162MOL0     H21806   3.062   5.930   3.788  1.4171  1.8876  2.0243
  162MOL0     H21807   2.916   6.137   3.825  0.1078  0.5546  0.1367
  162MOL0     H21808   2.960   6.187   3.659  4.2089 -2.0313 -1.5305
  162MOL0     H21809   2.844   5.957   3.580 -0.4218  1.6831 -1.7016
  162MOL0     H21810   2.794   5.937   3.740  2.4281 -0.5836  0.8320
  162MOL0     H21811   2.712   6.200   3.717 -4.2124  0.2015 -0.3609
  162MOL0     H21812   2.737   6.165   3.549  4.0896 -0.5523  1.0600
  162MOL0     H21813   2.565   5.985   3.578  0.5844 -0.8671  0.1472
  162MOL0     H21814   2.545   6.021   3.747 -0.3460 -0.6315 -0.5573
  162MOL0     H21815   2.452   6.238   3.721 -1.0186 -0.3089  0.4990
  162MOL0     H21816   2.503   6.245   3.554  0.0894  2.6410  2.1370
  162MOL0     H21817   2.319   6.027   3.666 -0.1522 -1.8488 -0.6639
  162MOL0     H21818   2.263   6.191   3.642 -0.5343 -1.5085  2.2684
  162MOL0     H21819   2.367   6.006   3.416 -0.3486 -0.7336  0.6113
  162MOL0     H21820   2.320   6.177   3.401  0.5389 -0.6387 -1.0584
  162MOL0     H21821   2.089   6.204   3.322  0.9593  0.2506  0.2769
  162MOL0     H21822   1.850   6.158   3.266  1.2563  0.0970  0.7977
  162MOL0     H21823   1.782   5.987   3.293  1.2177 -0.3496 -0.2896
  162MOL0     H21824   1.776   6.227   3.484 -1.9744  2.4737 -1.6743
  162MOL0     H21825   1.700   6.065   3.499 -0.9539  0.0908  0.0952
  162MOL0     H21826   1.542   6.101   3.322 -2.7531  1.2558  2.3377
  162MOL0     H21827   1.622   6.265   3.284  0.0548  1.1223  0.9944
  162MOL0     H21828   1.527   6.309   3.523 -1.5364 -0.4017  0.3593
  162MOL0     H21829   1.433   6.157   3.498 -6.3714  1.6649 -0.8664
  162MOL0     H21830   1.167   6.384   3.259 -0.5759 -2.6628  0.9587
  162MOL0     H21831   0.940   6.582   3.307  0.1516  0.7728  0.2759
  162MOL0     H21832   0.977   6.442   3.215  3.9589  0.6181  1.0646
  162MOL0     H21833   0.839   6.435   3.332 -0.5071  0.2473 -3.0361
  162MOL0     H21834   0.673   6.256   3.815 -3.4850  0.1637  0.2058
  162MOL0     H21835   0.467   6.312   3.911  0.0091 -0.2709  2.3615
  162MOL0     H21836   0.268   6.455   3.982 -0.4585 -1.6045  0.0763
  162MOL0     H21837   0.350   6.394   4.121  0.1948 -1.3066 -2.8155
  162MOL0     H21838   0.302   6.618   4.246  0.4177  0.7799 -1.2887
  162MOL0     H21839   0.185   6.656   4.125  0.0558 -1.2348 -1.1819
  162MOL0     H21840   0.177   6.434   4.329 -0.1962 -1.3605 -0.7088
  162MOL0     H21841   0.081   6.412   4.185 -2.0733 -0.9986  3.3440
  162MOL0     H21842   0.092   6.651   4.364  2.2859 -2.1409  0.1869
  162MOL0     H21843  -0.015   6.637   4.215  1.9461  0.0081 -0.3645
  162MOL0     H21844  -0.158   6.612   4.424  0.4842 -0.9900  0.9371
  162MOL0     H21845  -0.059   6.488   4.479 -0.2848 -4.3837 -1.5049
  162MOL0     H21846  -0.185   6.462   4.210  1.4823 -0.0266 -0.9373
  162MOL0     H21847  -0.102   6.343   4.324 -1.4350 -0.9241 -1.9682
  162MOL0     H21848  -0.367   6.488   4.395  0.0819 -0.0672  1.6787
  162MOL0     H21849  -0.286   6.343   4.469  1.8618  1.5718 -0.5227
  162MOL0     H21850  -0.337   6.212   4.251  1.0181 -0.4039  3.1881
  162MOL0     H21851  -0.401   6.367   4.191  1.0729  0.2870 -0.0816
  162MOL0     H21852   0.590   6.715   3.957  0.9703 -0.2012 -0.8400
  162MOL0     H21853   0.818   6.652   3.841  0.3457  0.9095 -1.3062
  162MOL0     H21854   1.117   6.374   3.744 -1.9548  2.9420 -0.3752
  162MOL0     H21855   1.343   6.316   3.632 -0.8695  0.9905  2.3426
  162MOL0     H21856   3.297   6.067   3.980  0.8079  0.6357  0.2449
  162MOL0     H21857   3.527   5.964   4.011 -0.3922 -0.6094 -0.0151
  162MOL0     H21858   3.804   5.723   3.965 -2.9738  4.1181  0.7113
  162MOL0     H21859   4.025   5.603   4.025  1.3876 -0.3992  0.0412
  162MOL0     H21860   4.321   5.696   3.804  0.7846  4.2040 -1.0017
  162MOL0     H21861   4.451   5.730   3.917 -0.3348 -0.2726  3.8400
  162MOL0     H21862   4.435   5.514   3.812  3.4014  1.7163  1.0703
  162MOL0     H21863   4.305   5.469   3.925 -0.5842 -0.0028 -1.8976
  162MOL0     H21864   4.455   5.493   4.115 -0.0499 -4.9976 -0.9197
  162MOL0     H21865   4.564   5.606   4.039  2.4500 -2.1801  0.1939
  162MOL0     H21866   4.662   5.429   3.879  1.4891 -0.8919 -0.2104
  162MOL0     H21867   4.582   5.309   3.977 -0.2074 -0.0889  0.6043
  162MOL0     H21868   4.944   5.420   4.160 -0.0108 -0.0380 -0.1289
  162MOL0     H21869   4.241   5.945   3.902  0.6907 -0.7743 -0.3402
  162MOL0     H21870   4.036   6.049   3.826 -2.5455 -0.0730 -1.0660
  163MOL0     O21871   9.666   1.153   8.297  0.5641  0.4555 -0.6828
  163MOL0     C21872   9.748   1.222   8.241  0.0490 -0.1315  0.2158
  163MOL0     O21873   9.739   1.354   8.209  0.4243 -0.1116 -0.0067
  163MOL0     C21874   9.606   1.404   8.205 -0.6150 -0.6334 -0.3678
  163MOL0     C21875   9.568   1.508   8.295  0.8807  0.0640  0.8518
  163MOL0     C21876   9.437   1.559   8.294 -0.0067  0.8305  0.2057
  163MOL0     C21877   9.335   1.500   8.209 -0.2180 -0.0937 -0.8408
  163MOL0     O21878   9.207   1.545   8.193  0.1739 -0.0390  0.1595
  163MOL0     C21879   9.164   1.676   8.244 -0.4336  0.0344 -0.2960
  163MOL0     C21880   9.010   1.698   8.233  0.2009 -0.2346  0.8173
  163MOL0     C21881   8.945   1.671   8.099 -0.6264 -0.4076  0.1604
  163MOL0     C21882   8.799   1.678   8.135  0.4595  0.6148  0.0645
  163MOL0     C21883   8.733   1.669   8.001  0.3412 -0.7952  0.8424
  163MOL0     C21884   8.575   1.673   8.013  0.6768 -0.7150 -0.4141
  163MOL0     C21885   8.527   1.814   8.066 -0.9849  0.9046  0.6800
  163MOL0     C21886   8.387   1.846   8.041 -0.1085 -0.2041 -0.0465
  163MOL0     N21887   8.353   1.963   8.115  0.5427 -0.4691  0.8172
  163MOL0     C21888   8.271   1.977   8.223 -1.2924  0.2177  0.8122
  163MOL0     C21889   8.289   2.106   8.270  0.7550 -0.4899 -0.3518
  163MOL0     C21890   8.213   2.181   8.379  0.9562  0.0335  0.0567
  163MOL0     C21891   8.101   2.266   8.328  0.8321  0.2010 -0.1786
  163MOL0     C21892   8.051   2.369   8.430  1.7757  0.1261 -0.4415
  163MOL0     C21893   7.995   2.289   8.558  0.2251 -0.1810  0.2064
  163MOL0     O21894   7.916   2.172   8.523  0.1276  0.1622 -0.0384
  163MOL0     C21895   7.791   2.186   8.483 -0.3500  0.3274  0.0290
  163MOL0     C21896   7.721   2.070   8.437  0.1326  0.1071  0.6564
  163MOL0     C21897   7.585   2.079   8.387  0.2930 -0.1381 -0.0364
  163MOL0     C21898   7.528   1.951   8.329 -0.0843 -1.0650  0.7215
  163MOL0     C21899   7.510   2.204   8.400  0.3649 -0.1366 -0.0374
  163MOL0     C21900   7.365   2.218   8.375 -0.0056 -0.3005 -0.1843
  163MOL0     O21901   7.323   2.352   8.364  0.3099 -0.3196 -0.4220
  163MOL0     C21902   7.185   2.373   8.367 -0.9068 -0.2122  0.7165
  163MOL0     C21903   7.094   2.331   8.465  0.1796 -0.6035 -0.4125
  163MOL0     C21904   6.953   2.339   8.443  0.5712 -0.0982 -0.1607
  163MOL0     C21905   6.908   2.400   8.330 -0.0950 -0.2539  0.1803
  163MOL0     O21906   6.775   2.405   8.307  0.3231  0.0401 -0.2389
  163MOL0     C21907   6.721   2.467   8.193 -0.8427 -0.7099  1.4622
  163MOL0     C21908   6.570   2.458   8.201 -0.3789 -0.4788 -0.2402
  163MOL0     C21909   6.493   2.529   8.086 -0.6380  0.1717 -0.1489
  163MOL0     C21910   6.338   2.507   8.101  1.0229 -0.3380  0.6831
  163MOL0     C21911   6.255   2.591   7.992 -0.2739 -0.5100  0.1311
  163MOL0     C21912   6.105   2.594   8.014 -0.5722 -0.3499 -0.2238
  163MOL0     C21913   6.030   2.650   7.893 -0.6339  0.4982  0.3623
  163MOL0     C21914   5.911   2.562   7.856 -0.0995 -0.3676  0.1323
  163MOL0    Cl21915   5.815   2.632   7.714  0.0235  0.1632 -0.1153
  163MOL0     C21916   6.997   2.459   8.237  0.0424  0.0808  0.9122
  163MOL0     C21917   7.133   2.438   8.257  0.7841 -0.0452  0.4537
  163MOL0     O21918   7.293   2.121   8.362  1.1105  0.1010 -0.1925
  163MOL0     C21919   7.588   2.317   8.438  0.9143 -0.2307  0.2117
  163MOL0     C21920   7.720   2.307   8.480 -0.5527 -0.1017 -0.1498
  163MOL0     N21921   8.365   2.169   8.175  0.4337 -0.2735 -0.2389
  163MOL0     N21922   8.406   2.086   8.085 -0.2847 -0.2804  0.3663
  163MOL0     C21923   9.380   1.400   8.114  0.2583  0.0501 -0.4055
  163MOL0     C21924   9.512   1.352   8.113  0.3461  0.6809  0.2736
  163MOL0     C21925   9.882   1.161   8.235  0.1372 -0.5812  0.7093
  163MOL0     C21926   9.901   1.032   8.287 -0.1835  0.0714  0.1183
  163MOL0     C21927  10.014   0.956   8.265 -0.8415 -0.6009  0.1536
  163MOL0     C21928  10.120   1.018   8.195  0.4268 -0.3107 -0.4730
  163MOL0     O21929  10.244   0.967   8.173  0.4495  0.3214  0.6420
  163MOL0     C21930  10.284   0.855   8.253 -0.1357  0.6330  0.4028
  163MOL0     C21931  10.404   0.803   8.171 -0.1160 -0.2358 -0.2216
  163MOL0     C21932  10.371   0.780   8.020 -0.3330  0.3830  0.3532
  163MOL0     C21933  10.458   0.683   7.947  0.0675  0.1429  0.7396
  163MOL0     C21934  10.589   0.743   7.942  0.1722  0.6031  0.4546
  163MOL0     C21935  10.712   0.766   7.939 -0.1969 -0.0805  0.1469
  163MOL0     C21936  10.104   1.145   8.141  0.8185 -0.0956  0.1430
  163MOL0     C21937   9.985   1.215   8.150 -0.4361  1.2862  0.0065
  163MOL0     H21938   9.639   1.557   8.360  1.0940  1.0945 -0.1183
  163MOL0     H21939   9.423   1.646   8.356 -0.9450  1.5580 -0.9718
  163MOL0     H21940   9.201   1.686   8.346 -2.7474  0.7726  0.5282
  163MOL0     H21941   9.218   1.756   8.192  0.4728 -0.3621  0.0148
  163MOL0     H21942   8.951   1.637   8.302 -1.8335 -0.2643 -0.8834
  163MOL0     H21943   8.984   1.799   8.267 -3.2974 -1.2427  1.5393
  163MOL0     H21944   8.975   1.741   8.020  1.0413 -3.4160 -2.0910
  163MOL0     H21945   8.974   1.572   8.064 -0.0061  0.2287 -1.1975
  163MOL0     H21946   8.777   1.589   8.194  0.6930 -0.5993 -1.5877
  163MOL0     H21947   8.765   1.769   8.185 -3.4124  0.4384 -1.8727
  163MOL0     H21948   8.775   1.748   7.939 -1.0679 -1.3988 -0.9790
  163MOL0     H21949   8.760   1.577   7.947  1.2437 -0.2931  0.4203
  163MOL0     H21950   8.535   1.650   7.913  0.8048  0.5608 -0.7706
  163MOL0     H21951   8.534   1.602   8.085 -0.3292  0.3820  0.1311
  163MOL0     H21952   8.542   1.810   8.174  1.7686 -1.0825  0.3379
  163MOL0     H21953   8.593   1.892   8.026 -0.7276 -0.8112 -2.6100
  163MOL0     H21954   8.327   1.768   8.089  0.5414  0.0472  1.1869
  163MOL0     H21955   8.379   1.855   7.932  0.0242 -0.6829 -0.1011
  163MOL0     H21956   8.203   1.901   8.261 -3.0375  1.6771  0.7436
  163MOL0     H21957   8.169   2.117   8.456 -1.4222  0.6771 -0.6629
  163MOL0     H21958   8.289   2.249   8.417  0.8223  0.6740 -0.7794
  163MOL0     H21959   8.020   2.201   8.295 -0.2011  1.4870 -0.2079
  163MOL0     H21960   8.141   2.318   8.241  1.2248 -1.6861 -1.1914
  163MOL0     H21961   7.973   2.426   8.379 -1.3694 -4.5949 -1.6501
  163MOL0     H21962   8.129   2.440   8.456  1.0286  2.1994 -3.4531
  163MOL0     H21963   7.940   2.348   8.632  1.7581 -0.5815  1.7409
  163MOL0     H21964   8.076   2.253   8.623  0.7049 -1.2287 -0.9440
  163MOL0     H21965   7.771   1.974   8.444 -0.5380 -0.3131 -0.1227
  163MOL0     H21966   7.475   1.888   8.400 -2.9122  2.0029  1.5899
  163MOL0     H21967   7.458   1.967   8.246  1.7418 -0.6795 -0.8333
  163MOL0     H21968   7.610   1.896   8.282 -1.2856  0.0732 -3.1163
  163MOL0     H21969   7.139   2.293   8.557 -0.2165  1.7183  0.8220
  163MOL0     H21970   6.881   2.302   8.515  1.9096  0.1280  1.3582
  163MOL0     H21971   6.760   2.569   8.188 -1.1323 -0.6468 -1.0774
  163MOL0     H21972   6.755   2.411   8.106  0.1625  1.4911  0.3610
  163MOL0     H21973   6.538   2.353   8.207 -1.8297 -0.0641 -0.3137
  163MOL0     H21974   6.549   2.510   8.295 -2.4533  1.3804 -1.6302
  163MOL0     H21975   6.527   2.487   7.991 -0.1274 -0.3302  0.2527
  163MOL0     H21976   6.509   2.637   8.079  0.9244 -0.1331 -1.9897
  163MOL0     H21977   6.301   2.404   8.091 -2.5163  0.8143  0.3983
  163MOL0     H21978   6.308   2.536   8.202  1.3680 -0.9050  0.9567
  163MOL0     H21979   6.265   2.546   7.893  0.2734 -0.0955 -0.0046
  163MOL0     H21980   6.291   2.694   7.997 -3.5670  0.8157 -0.6148
  163MOL0     H21981   6.077   2.490   8.033  0.2268 -0.4040  0.7593
  163MOL0     H21982   6.081   2.651   8.105 -2.9076 -3.1039  1.0145
  163MOL0     H21983   6.083   2.667   7.799 -1.1714  1.5430  0.2281
  163MOL0     H21984   5.988   2.743   7.934 -1.1097  1.5705 -2.3522
  163MOL0     H21985   5.840   2.542   7.937  0.6491 -3.8362  0.0740
  163MOL0     H21986   5.948   2.462   7.832  0.2076 -0.3551  0.5324
  163MOL0     H21987   6.967   2.507   8.145  0.5498 -1.9447 -0.3819
  163MOL0     H21988   7.205   2.488   8.192 -0.7064  1.9789  0.2519
  163MOL0     H21989   7.546   2.415   8.416 -2.5547 -2.0820 -2.5001
  163MOL0     H21990   7.777   2.397   8.497 -2.1886  0.9200  0.1500
  163MOL0     H21991   9.309   1.359   8.043  1.9159  1.0498 -2.7526
  163MOL0     H21992   9.543   1.267   8.052 -0.8255  0.6482 -0.3008
  163MOL0     H21993   9.818   0.984   8.338 -1.6683  1.5602 -0.8252
  163MOL0     H21994  10.016   0.855   8.306 -0.1647 -1.3775 -1.6741
  163MOL0     H21995  10.314   0.875   8.356  3.3479 -2.3890  0.1773
  163MOL0     H21996  10.198   0.786   8.255  0.2669 -0.1775 -3.2694
  163MOL0     H21997  10.439   0.704   8.203 -0.7667 -1.1465 -2.1714
  163MOL0     H21998  10.482   0.880   8.175  0.9890 -1.3598  1.5083
  163MOL0     H21999  10.373   0.878   7.973 -3.7628  1.3603  1.8920
  163MOL0     H22000  10.264   0.754   8.016 -1.2329  3.7280 -2.2720
  163MOL0     H22001  10.426   0.664   7.844  3.5982 -4.1873  0.1560
  163MOL0     H22002  10.472   0.585   7.993  1.9455 -1.9699 -3.6879
  163MOL0     H22003  10.816   0.790   7.937  0.7587 -3.5583  0.3241
  163MOL0     H22004  10.193   1.175   8.086  1.0795 -3.5303 -1.5435
  163MOL0     H22005   9.962   1.307   8.096 -1.4728 -0.3816 -2.5415
  164MOL0     O22006  10.193   6.623   9.295 -0.1033 -0.4102 -0.5518
  164MOL0     C22007  10.180   6.502   9.309  0.7844  0.1687 -0.2650
  164MOL0     O22008  10.084   6.434   9.385 -0.0893  0.9126  0.1007
  164MOL0     C22009   9.964   6.469   9.432  0.0125  0.3192  0.3540
  164MOL0     C22010   9.921   6.430   9.565 -0.4165 -0.0526 -0.1961
  164MOL0     C22011   9.802   6.475   9.622 -0.2410  0.2903 -0.4649
  164MOL0     C22012   9.718   6.561   9.549  0.0748 -0.7404 -0.1286
  164MOL0     O22013   9.599   6.615   9.594  0.2028 -0.3177 -0.0219
  164MOL0     C22014   9.517   6.526   9.675 -0.0856  0.1372 -0.4143
  164MOL0     C22015   9.423   6.440   9.592 -0.1807 -0.5539  0.1270
  164MOL0     C22016   9.328   6.521   9.500  0.4460  0.2021 -0.3927
  164MOL0     C22017   9.199   6.561   9.574 -0.0732  0.3742 -0.4575
  164MOL0     C22018   9.087   6.632   9.492 -1.0036 -0.9227  0.2075
  164MOL0     C22019   8.970   6.661   9.580  0.5640  0.9863 -0.9847
  164MOL0     C22020   8.863   6.748   9.511 -0.7317 -0.1204 -0.0390
  164MOL0     C22021   8.789   6.660   9.404  0.3175  0.1951  0.3127
  164MOL0     N22022   8.669   6.739   9.358 -0.3063 -0.2339 -0.5900
  164MOL0     C22023   8.540   6.690   9.372 -0.7883 -0.8907 -0.0386
  164MOL0     C22024   8.471   6.800   9.322  0.0731 -0.0777  0.3956
  164MOL0     C22025   8.317   6.814   9.328  0.0851 -0.0188  0.0556
  164MOL0     C22026   8.286   6.926   9.429  0.1719  0.2447  0.2938
  164MOL0     C22027   8.133   6.956   9.451  0.5258 -0.0710 -0.0969
  164MOL0     C22028   8.041   6.961   9.325 -0.1041 -0.0809 -0.5156
  164MOL0     O22029   8.090   7.061   9.232  0.2545  0.1226 -0.2344
  164MOL0     C22030   8.018   7.089   9.120 -0.2315  0.5519 -0.5523
  164MOL0     C22031   8.081   7.154   9.018 -0.2786  0.5729  0.1198
  164MOL0     C22032   8.013   7.222   8.919  0.3389  0.1291  0.1233
  164MOL0     C22033   8.091   7.321   8.836  0.0130  0.3969 -0.1111
  164MOL0     C22034   7.865   7.203   8.915  0.0959 -0.0010  0.5710
  164MOL0     C22035   7.774   7.291   8.838  0.0603 -0.2713 -0.2835
  164MOL0     O22036   7.651   7.242   8.811 -0.1339 -0.1241 -0.6069
  164MOL0     C22037   7.569   7.297   8.718 -0.0314  0.7752 -0.6400
  164MOL0     C22038   7.617   7.371   8.610  0.1827 -0.1063 -0.0589
  164MOL0     C22039   7.534   7.401   8.503  0.2082  0.4432 -0.1678
  164MOL0     C22040   7.403   7.347   8.496  0.2696 -0.7432 -0.1097
  164MOL0     O22041   7.314   7.372   8.398 -0.0041 -0.3090  0.0093
  164MOL0     C22042   7.366   7.425   8.280 -0.1925 -0.3736  0.4567
  164MOL0     C22043   7.259   7.437   8.172  0.5416  0.4448 -0.6420
  164MOL0     C22044   7.216   7.303   8.117  0.7879  0.3822  0.2978
  164MOL0     C22045   7.139   7.207   8.209  0.5397  0.8484  0.6024
  164MOL0     C22046   7.078   7.090   8.135 -0.8376 -0.0489 -1.0623
  164MOL0     C22047   6.942   7.132   8.071 -0.3114  0.4214  1.1479
  164MOL0     C22048   6.827   7.151   8.167  0.2157  0.0350 -0.0638
  164MOL0     C22049   6.783   7.022   8.234 -0.5586 -0.0031 -0.0107
  164MOL0    Cl22050   6.744   6.892   8.117  0.0986 -0.3224  0.5899
  164MOL0     C22051   7.357   7.266   8.609  0.6367 -0.2149 -0.0250
  164MOL0     C22052   7.443   7.250   8.718 -0.0772  0.4117  0.1311
  164MOL0     O22053   7.813   7.407   8.822  0.2017 -0.8623  0.6900
  164MOL0     C22054   7.802   7.108   9.004  0.2029 -0.0502  0.0540
  164MOL0     C22055   7.877   7.063   9.111  0.0992  0.2534  0.1216
  164MOL0     N22056   8.552   6.903   9.282  0.3800  0.3856 -0.0744
  164MOL0     N22057   8.667   6.856   9.296  0.4338  0.1612 -0.5916
  164MOL0     C22058   9.766   6.605   9.424  0.1122 -0.0912 -0.2730
  164MOL0     C22059   9.885   6.560   9.365 -0.2873  0.3609  0.2882
  164MOL0     C22060  10.286   6.407   9.263 -0.6821 -0.6362  0.3678
  164MOL0     C22061  10.263   6.270   9.245  0.9038  0.8637  0.5600
  164MOL0     C22062  10.365   6.188   9.201  0.9770 -0.7335  0.2261
  164MOL0     C22063  10.490   6.237   9.170 -0.2144  0.2710 -0.0238
  164MOL0     O22064  10.585   6.159   9.110  0.1197 -1.0248  0.0378
  164MOL0     C22065  10.602   6.028   9.167  0.9484 -0.1695  0.6896
  164MOL0     C22066  10.746   5.999   9.199  0.2824  0.6193  0.3669
  164MOL0     C22067  10.801   6.100   9.302 -0.3777  0.0819 -0.0452
  164MOL0     C22068  10.935   6.047   9.359 -0.8121 -0.4305  0.2081
  164MOL0     C22069  11.052   6.037   9.263  0.8697 -0.8133 -0.2095
  164MOL0     C22070  11.142   6.033   9.182  0.3363 -0.0400  0.1225
  164MOL0     C22071  10.511   6.378   9.184 -0.0735 -0.0809 -0.5237
  164MOL0     C22072  10.407   6.460   9.230 -0.4814  0.2194  0.1763
  164MOL0     H22073   9.976   6.347   9.609  0.0445  1.0228  1.3164
  164MOL0     H22074   9.776   6.445   9.723 -2.2307  0.5859 -0.8532
  164MOL0     H22075   9.575   6.463   9.742 -2.0004 -2.2246 -0.8321
  164MOL0     H22076   9.474   6.596   9.747  2.3054  0.5187  0.7311
  164MOL0     H22077   9.487   6.385   9.523  2.2042 -0.1911  1.9179
  164MOL0     H22078   9.368   6.371   9.657 -2.5027  1.5927  0.6394
  164MOL0     H22079   9.381   6.612   9.472 -0.8530  0.7950 -1.0262
  164MOL0     H22080   9.295   6.449   9.425 -2.4482 -1.3547  2.1292
  164MOL0     H22081   9.148   6.467   9.599 -0.6760  1.0393  0.9326
  164MOL0     H22082   9.229   6.616   9.663 -0.1068 -0.8870  0.3564
  164MOL0     H22083   9.130   6.727   9.457 -2.8550  0.9715  2.6796
  164MOL0     H22084   9.063   6.575   9.402 -0.7128  0.7868 -1.0165
  164MOL0     H22085   8.922   6.567   9.608  1.0146  0.6456 -1.3281
  164MOL0     H22086   9.000   6.708   9.674 -1.9978  3.1583 -1.1355
  164MOL0     H22087   8.798   6.780   9.592 -0.3241 -2.9477  1.5536
  164MOL0     H22088   8.916   6.833   9.466  2.9518 -0.1970  3.5707
  164MOL0     H22089   8.752   6.564   9.442 -2.7763  0.2574 -2.2000
  164MOL0     H22090   8.857   6.650   9.319 -0.6363 -0.8429 -0.3475
  164MOL0     H22091   8.485   6.605   9.411 -0.6912 -2.6503 -3.3879
  164MOL0     H22092   8.289   6.838   9.225  1.2782 -0.5931 -0.4282
  164MOL0     H22093   8.275   6.718   9.358  1.8441 -1.2097 -1.0726
  164MOL0     H22094   8.335   7.015   9.389  3.3942 -1.5015  0.0308
  164MOL0     H22095   8.338   6.907   9.524  2.3900  3.0849 -0.2206
  164MOL0     H22096   8.129   7.054   9.499 -0.5806 -1.3029  2.5246
  164MOL0     H22097   8.086   6.893   9.527  0.1269 -0.3509 -0.5685
  164MOL0     H22098   7.940   6.988   9.356 -0.1726 -1.6143  0.7277
  164MOL0     H22099   8.033   6.859   9.286 -0.4993 -1.0039  1.8176
  164MOL0     H22100   8.188   7.169   9.019 -0.3866  1.4485 -0.5585
  164MOL0     H22101   8.057   7.334   8.733 -1.5636  3.8998  0.7017
  164MOL0     H22102   8.084   7.422   8.878 -2.4632  0.7913 -1.3046
  164MOL0     H22103   8.195   7.287   8.823  0.2117  1.2971 -1.0122
  164MOL0     H22104   7.716   7.410   8.588  0.5253 -1.0732 -0.3182
  164MOL0     H22105   7.569   7.464   8.422 -0.8139  0.8720 -0.2915
  164MOL0     H22106   7.421   7.519   8.290  0.4954 -0.8045  0.8201
  164MOL0     H22107   7.441   7.351   8.250  0.1066  0.4016 -0.7717
  164MOL0     H22108   7.168   7.480   8.214  0.2408  2.1673 -2.8241
  164MOL0     H22109   7.297   7.497   8.089  2.2259 -1.6678 -1.5027
  164MOL0     H22110   7.304   7.253   8.075 -0.7002 -0.2867 -2.2656
  164MOL0     H22111   7.148   7.317   8.033 -0.1856 -1.2244  0.7728
  164MOL0     H22112   7.210   7.169   8.283  0.9001  2.3623  1.0568
  164MOL0     H22113   7.068   7.258   8.274 -1.1967  0.7163 -1.0910
  164MOL0     H22114   7.061   6.999   8.194 -2.1227  0.5421 -0.4866
  164MOL0     H22115   7.155   7.062   8.063  0.9473  0.0297  0.7235
  164MOL0     H22116   6.971   7.222   8.017  3.5714  0.6131  3.1695
  164MOL0     H22117   6.929   7.052   7.997  3.3636  1.7247 -1.1990
  164MOL0     H22118   6.739   7.190   8.114  1.4567  0.4671 -1.9024
  164MOL0     H22119   6.861   7.226   8.239  1.5176  1.9967 -2.5572
  164MOL0     H22120   6.695   7.036   8.298 -3.3122 -3.2957 -2.6707
  164MOL0     H22121   6.871   6.995   8.292 -2.0703 -1.0449  1.9135
  164MOL0     H22122   7.263   7.213   8.596 -0.0350  0.2456  2.4178
  164MOL0     H22123   7.414   7.181   8.797 -2.5904 -1.2176 -2.0706
  164MOL0     H22124   7.694   7.110   9.005  0.0631  3.9584 -1.8162
  164MOL0     H22125   7.820   7.025   9.196  0.0472 -0.1077 -0.0700
  164MOL0     H22126   9.706   6.678   9.371 -2.3727  1.5484  4.2274
  164MOL0     H22127   9.898   6.573   9.258 -3.7525 -2.8504 -0.7186
  164MOL0     H22128  10.163   6.230   9.259  0.5876  0.9632 -1.1179
  164MOL0     H22129  10.351   6.081   9.185  0.0763 -0.0845 -5.8756
  164MOL0     H22130  10.540   6.014   9.256 -0.2141 -0.3825 -0.1180
  164MOL0     H22131  10.558   5.948   9.106 -0.9800  2.0488 -1.0461
  164MOL0     H22132  10.801   6.018   9.107  0.1337 -0.1044  0.1242
  164MOL0     H22133  10.752   5.896   9.236  1.8467 -0.0888 -1.7159
  164MOL0     H22134  10.726   6.123   9.377  0.9235  1.6308  0.8206
  164MOL0     H22135  10.820   6.201   9.264  0.4102 -0.0367  0.0272
  164MOL0     H22136  10.902   5.951   9.399 -3.0333  0.1129 -0.1775
  164MOL0     H22137  10.973   6.113   9.438  0.3491 -1.3831  0.4744
  164MOL0     H22138  11.217   6.028   9.106 -0.3791 -2.1794 -0.4985
  164MOL0     H22139  10.607   6.422   9.158  0.2922 -1.0607 -0.8618
  164MOL0     H22140  10.434   6.563   9.252 -0.9551  0.1837  0.9648
  165MOL0     O22141   1.769   5.903   8.505 -0.3326  0.2216 -0.1637
  165MOL0     C22142   1.690   5.839   8.441 -0.1840 -0.6176 -0.5855
  165MOL0     O22143   1.711   5.773   8.333 -0.0434 -0.3765 -0.3435
  165MOL0     C22144   1.838   5.785   8.273 -0.3293 -0.3072  0.5606
  165MOL0     C22145   1.875   5.897   8.196 -0.1656 -0.7678  0.3613
  165MOL0     C22146   1.989   5.905   8.121 -0.3739  0.1531  0.5610
  165MOL0     C22147   2.082   5.796   8.125  0.7335  0.3533 -0.3023
  165MOL0     O22148   2.191   5.813   8.051 -0.6958  0.0191  0.0222
  165MOL0     C22149   2.301   5.749   8.111 -0.1836  0.1323 -0.5328
  165MOL0     C22150   2.421   5.810   8.042  0.5526 -0.6053 -0.8864
  165MOL0     C22151   2.554   5.783   8.105  0.1793  0.3752 -0.4759
  165MOL0     C22152   2.660   5.846   8.021 -0.7117 -0.0964  0.2745
  165MOL0     C22153   2.806   5.806   8.043 -0.3253 -0.4207  0.0518
  165MOL0     C22154   2.896   5.862   7.938 -0.7877 -0.0389  0.6291
  165MOL0     C22155   3.044   5.819   7.952 -0.4520 -0.2514  1.1731
  165MOL0     C22156   3.112   5.865   7.815  0.4261 -0.8222  0.0289
  165MOL0     N22157   3.263   5.859   7.807  0.3877  0.2217  0.1898
  165MOL0     C22158   3.349   5.770   7.862  0.6962 -0.2897  0.3310
  165MOL0     C22159   3.469   5.803   7.815 -0.3387 -0.1316  1.1123
  165MOL0     C22160   3.601   5.736   7.850  0.7105 -0.4090 -0.3191
  165MOL0     C22161   3.685   5.704   7.726 -0.3296  0.3070 -0.0352
  165MOL0     C22162   3.634   5.580   7.639 -0.3505  0.8926  0.0457
  165MOL0     C22163   3.489   5.570   7.614 -0.0835  0.6076  0.5581
  165MOL0     O22164   3.424   5.509   7.724  0.4153 -0.6119  0.5449
  165MOL0     C22165   3.288   5.506   7.722 -0.3166 -0.1108  0.3577
  165MOL0     C22166   3.226   5.455   7.827  0.4768  0.0267 -0.2599
  165MOL0     C22167   3.080   5.452   7.825  0.3222  0.1124  0.1112
  165MOL0     C22168   3.014   5.377   7.939  0.3553 -0.0130 -0.1871
  165MOL0     C22169   3.001   5.501   7.723  0.1084 -0.2023 -0.1229
  165MOL0     C22170   2.853   5.498   7.722  0.6628 -0.2654 -0.5532
  165MOL0     O22171   2.793   5.536   7.840 -0.1590 -0.1240 -0.0769
  165MOL0     C22172   2.659   5.516   7.862 -0.2079  0.1823  0.2874
  165MOL0     C22173   2.631   5.416   7.959 -0.1969  0.0687  0.0425
  165MOL0     C22174   2.497   5.375   7.978  0.3585 -0.4284  0.3440
  165MOL0     C22175   2.394   5.431   7.897  0.1630  0.6469  0.2073
  165MOL0     O22176   2.268   5.388   7.936  1.0987 -0.2580 -0.6219
  165MOL0     C22177   2.175   5.427   7.839  0.4725  0.6733  0.1372
  165MOL0     C22178   2.040   5.372   7.897 -0.0471  0.4024  1.1437
  165MOL0     C22179   1.916   5.439   7.827 -0.4644  1.0048 -0.2104
  165MOL0     C22180   1.897   5.575   7.881  0.7467  0.0422  0.1225
  165MOL0     C22181   1.779   5.645   7.802  0.3666 -0.1126  0.7690
  165MOL0     C22182   1.767   5.783   7.860 -0.7080 -1.0507  0.1059
  165MOL0     C22183   1.637   5.851   7.801  0.1236 -0.0124  0.4783
  165MOL0     C22184   1.626   5.987   7.865  0.5733 -0.6564 -0.8623
  165MOL0    Cl22185   1.455   6.053   7.831 -0.1975  0.1252 -0.6269
  165MOL0     C22186   2.427   5.521   7.803  0.1801 -0.8492  0.1350
  165MOL0     C22187   2.558   5.564   7.782  0.5673 -1.0349 -0.1873
  165MOL0     O22188   2.798   5.480   7.614  0.6751 -0.2134 -0.3567
  165MOL0     C22189   3.068   5.551   7.615  0.0601  0.0220  0.5326
  165MOL0     C22190   3.210   5.552   7.613  0.6183  0.7147 -0.5815
  165MOL0     N22191   3.444   5.904   7.713  0.2359  0.1063  0.0212
  165MOL0     N22192   3.324   5.934   7.719  0.0416 -0.5650  0.0339
  165MOL0     C22193   2.047   5.674   8.191  0.1698  0.6636 -0.0814
  165MOL0     C22194   1.925   5.671   8.270  0.0963 -1.0859 -0.2737
  165MOL0     C22195   1.550   5.850   8.497 -0.7423  0.1778 -0.6771
  165MOL0     C22196   1.523   5.909   8.622 -0.1562 -0.3532 -0.1591
  165MOL0     C22197   1.394   5.917   8.675  0.0220  0.0546 -0.8136
  165MOL0     C22198   1.286   5.877   8.596 -0.0001  0.5164  0.5492
  165MOL0     O22199   1.169   5.905   8.657 -0.5438  0.1589 -0.1917
  165MOL0     C22200   1.053   5.896   8.569  0.1120 -0.1383  0.3143
  165MOL0     C22201   0.938   5.951   8.658 -0.6754 -0.0505  0.3314
  165MOL0     C22202   0.914   5.884   8.794 -0.9054  0.0230  0.1252
  165MOL0     C22203   0.929   5.729   8.797 -0.7763 -0.4033  0.1664
  165MOL0     C22204   0.914   5.681   8.933 -0.1300 -0.3753  0.8713
  165MOL0     C22205   0.916   5.620   9.031  0.6535  0.2370 -0.1336
  165MOL0     C22206   1.311   5.803   8.479 -0.4526  0.0558 -1.0413
  165MOL0     C22207   1.448   5.776   8.434  0.8951 -0.4885  0.0998
  165MOL0     H22208   1.813   5.985   8.181 -1.2256 -1.7290 -1.3280
  165MOL0     H22209   2.011   6.001   8.074  1.3155 -0.1866  0.5926
  165MOL0     H22210   2.302   5.746   8.220 -1.5235  0.8429 -0.4804
  165MOL0     H22211   2.303   5.644   8.081 -0.6275 -0.1139  0.2874
  165MOL0     H22212   2.401   5.770   7.942 -1.6144  2.0588 -1.6587
  165MOL0     H22213   2.414   5.919   8.034 -0.0751 -0.5062  0.6916
  165MOL0     H22214   2.548   5.826   8.205  2.9927 -1.0605  0.4080
  165MOL0     H22215   2.571   5.675   8.109  1.7759  0.5188 -2.3511
  165MOL0     H22216   2.640   5.805   7.921 -2.8963  2.2171 -0.3363
  165MOL0     H22217   2.649   5.954   8.026  0.3679  0.0717 -0.5397
  165MOL0     H22218   2.841   5.844   8.139  2.6256 -1.8645 -0.3507
  165MOL0     H22219   2.812   5.697   8.044 -1.3628 -0.4943 -0.4551
  165MOL0     H22220   2.854   5.819   7.846  2.7077 -0.1644 -1.0778
  165MOL0     H22221   2.900   5.972   7.931  0.6723 -0.0353  1.1825
  165MOL0     H22222   3.089   5.857   8.044  1.4406 -3.2086  1.6086
  165MOL0     H22223   3.042   5.710   7.964  4.1655 -0.5372  1.4107
  165MOL0     H22224   3.086   5.970   7.797  1.0482 -0.5549  0.6419
  165MOL0     H22225   3.067   5.807   7.734 -1.1189  0.7373 -0.2979
  165MOL0     H22226   3.326   5.695   7.937 -1.6231 -1.5338 -1.4820
  165MOL0     H22227   3.650   5.805   7.920 -0.1167  0.1677 -0.2941
  165MOL0     H22228   3.589   5.640   7.902  0.5491 -0.7707 -1.0200
  165MOL0     H22229   3.780   5.661   7.758  0.5949  1.4033 -1.1689
  165MOL0     H22230   3.702   5.791   7.662 -1.8081  0.4967 -0.2144
  165MOL0     H22231   3.665   5.483   7.679 -2.0986  0.8350  1.3915
  165MOL0     H22232   3.689   5.587   7.545  1.9667 -0.6651  1.1943
  165MOL0     H22233   3.471   5.501   7.530  1.4710  1.8409 -0.8512
  165MOL0     H22234   3.455   5.671   7.589 -1.6432 -0.6156 -2.9280
  165MOL0     H22235   3.293   5.411   7.901  2.3921  2.3119 -0.4806
  165MOL0     H22236   3.086   5.349   8.017 -0.7522 -2.0238  0.1739
  165MOL0     H22237   2.947   5.451   7.986 -0.2285 -1.1761  0.8750
  165MOL0     H22238   2.960   5.289   7.904  3.3346 -2.7010  1.4860
  165MOL0     H22239   2.706   5.362   8.016  0.0080 -1.6180 -1.7345
  165MOL0     H22240   2.483   5.308   8.062  2.6154 -1.6936 -0.2141
  165MOL0     H22241   2.159   5.534   7.820  0.4042  0.2696 -2.5407
  165MOL0     H22242   2.192   5.381   7.741  0.5114  1.9167 -0.4629
  165MOL0     H22243   2.035   5.263   7.887 -0.4093  0.6051 -1.7307
  165MOL0     H22244   2.040   5.397   8.003  4.3907  0.5369  1.3170
  165MOL0     H22245   1.830   5.375   7.849  1.6591 -1.6976  0.9441
  165MOL0     H22246   1.929   5.454   7.719 -2.7402  1.0939 -0.5120
  165MOL0     H22247   1.865   5.572   7.986 -1.4606  1.5780 -0.4458
  165MOL0     H22248   1.988   5.635   7.870  0.9902 -0.2931  0.2901
  165MOL0     H22249   1.688   5.586   7.812  1.2978 -1.8388 -0.5186
  165MOL0     H22250   1.800   5.645   7.695 -2.3418  0.3514  0.1667
  165MOL0     H22251   1.761   5.776   7.969 -1.4188 -2.6681 -0.0124
  165MOL0     H22252   1.861   5.835   7.837 -2.4009  1.5899 -1.3151
  165MOL0     H22253   1.546   5.794   7.822 -0.2531  0.3761 -0.0587
  165MOL0     H22254   1.646   5.864   7.693  0.1808 -0.1439  0.4671
  165MOL0     H22255   1.699   6.059   7.826 -0.8012  1.2832  0.0498
  165MOL0     H22256   1.646   5.975   7.972 -1.4954  1.2496 -0.2120
  165MOL0     H22257   2.345   5.567   7.749  1.2271 -1.1758 -1.8432
  165MOL0     H22258   2.572   5.641   7.707  0.2968 -0.0930  0.7088
  165MOL0     H22259   3.020   5.610   7.537  0.3520 -0.6757 -0.1887
  165MOL0     H22260   3.260   5.605   7.533  2.1300  0.3520  0.0822
  165MOL0     H22261   2.108   5.584   8.193 -0.0704  0.4305 -1.6629
  165MOL0     H22262   1.890   5.591   8.334 -1.6484  1.5885  2.3662
  165MOL0     H22263   1.598   5.949   8.690 -0.0410 -0.1889 -0.3818
  165MOL0     H22264   1.372   5.961   8.771 -0.1815  1.6502 -1.5606
  165MOL0     H22265   1.063   5.957   8.479 -0.6314 -1.5094 -0.7407
  165MOL0     H22266   1.038   5.793   8.535 -1.2081  0.6609 -1.7220
  165MOL0     H22267   0.848   5.937   8.599 -1.4402  0.2292  1.3972
  165MOL0     H22268   0.958   6.058   8.675  2.0164  0.3374 -3.9126
  165MOL0     H22269   0.813   5.916   8.821 -0.5723  1.3500 -0.1236
  165MOL0     H22270   0.991   5.935   8.853  0.5889 -2.5263  0.4989
  165MOL0     H22271   1.026   5.699   8.758 -0.6401  0.9550 -0.5837
  165MOL0     H22272   0.857   5.673   8.736  0.9013 -1.0582 -1.2755
  165MOL0     H22273   0.944   5.567   9.120  1.4814  1.4440  0.3447
  165MOL0     H22274   1.222   5.761   8.433  0.2515  0.2151 -2.6136
  165MOL0     H22275   1.459   5.701   8.356  2.1192 -1.8070  1.4746
  166MOL0     O22276   4.612   7.016   4.106  0.5007  0.3083 -0.3580
  166MOL0     C22277   4.634   6.917   4.175  0.2961 -0.1713 -0.2875
  166MOL0     O22278   4.543   6.845   4.255 -0.0694 -0.2816  0.4692
  166MOL0     C22279   4.415   6.898   4.266  0.0277 -0.5716 -0.1233
  166MOL0     C22280   4.317   6.807   4.274  1.3157 -0.8408  1.4382
  166MOL0     C22281   4.173   6.845   4.282 -0.0030 -0.5082 -0.5919
  166MOL0     C22282   4.148   6.973   4.310 -0.0190  0.3640  0.5499
  166MOL0     O22283   4.021   7.000   4.342  0.5998  0.1157 -0.0485
  166MOL0     C22284   3.987   7.130   4.398  0.4645  0.6241  0.1092
  166MOL0     C22285   3.833   7.132   4.416 -0.4627 -0.2992 -0.1168
  166MOL0     C22286   3.759   7.087   4.291  0.5167  0.1177  0.0260
  166MOL0     C22287   3.604   7.089   4.313 -0.9182 -0.0183  0.4921
  166MOL0     C22288   3.519   7.032   4.199 -0.3000 -0.1193  0.7079
  166MOL0     C22289   3.511   6.879   4.180 -0.1075  0.5415  0.4812
  166MOL0     C22290   3.477   6.799   4.307  0.2722 -0.1044  0.1433
  166MOL0     C22291   3.345   6.841   4.377 -0.6492 -0.6222  0.5484
  166MOL0     N22292   3.248   6.836   4.270 -0.0811  0.3519  0.4314
  166MOL0     C22293   3.173   6.944   4.224  0.7729 -0.3085  0.1694
  166MOL0     C22294   3.091   6.890   4.124  0.2859  0.0268  0.3933
  166MOL0     C22295   2.983   6.963   4.055 -0.5731 -0.6671  0.2771
  166MOL0     C22296   2.853   6.910   4.103  1.0050  1.0834 -0.8824
  166MOL0     C22297   2.827   6.944   4.250 -0.7058  0.5410  0.2696
  166MOL0     C22298   2.684   6.914   4.288  0.2931  0.4431 -0.2717
  166MOL0     O22299   2.639   6.785   4.226 -0.5503 -0.5905  0.2710
  166MOL0     C22300   2.513   6.742   4.252  0.5660 -0.7057 -0.6033
  166MOL0     C22301   2.476   6.632   4.178 -0.4792 -0.0376 -0.4856
  166MOL0     C22302   2.349   6.570   4.192  0.8815 -0.3628  0.5510
  166MOL0     C22303   2.329   6.434   4.122  0.1017  0.5691  0.0451
  166MOL0     C22304   2.253   6.633   4.278  0.5541 -0.1311  0.3834
  166MOL0     C22305   2.109   6.596   4.274  0.2140 -0.7458 -0.1063
  166MOL0     O22306   2.028   6.660   4.363  0.2307  0.4793  0.1557
  166MOL0     C22307   1.897   6.636   4.353 -0.2308 -0.0248  0.0627
  166MOL0     C22308   1.833   6.553   4.446  0.2136  0.0204  0.3631
  166MOL0     C22309   1.689   6.556   4.447  0.0062 -0.4408  0.8457
  166MOL0     C22310   1.615   6.632   4.354 -0.7435  0.5409 -0.5466
  166MOL0     O22311   1.476   6.643   4.341 -0.1750 -0.0286 -0.0142
  166MOL0     C22312   1.383   6.601   4.443 -0.5723 -0.3340 -0.9806
  166MOL0     C22313   1.322   6.466   4.401 -0.5860  0.2295 -0.6399
  166MOL0     C22314   1.242   6.390   4.507 -0.3796  0.6424  0.4664
  166MOL0     C22315   1.135   6.465   4.579  0.2494  0.3840  1.0340
  166MOL0     C22316   1.043   6.368   4.660 -0.3685  0.4066 -0.2072
  166MOL0     C22317   0.916   6.431   4.729 -0.1414  0.1791  0.3093
  166MOL0     C22318   0.793   6.430   4.622 -0.9286 -0.4746 -0.2856
  166MOL0     C22319   0.662   6.473   4.681  0.0499  0.2154  0.0060
  166MOL0    Cl22320   0.622   6.381   4.835 -0.5563  0.6393 -0.0794
  166MOL0     C22321   1.683   6.705   4.263  1.3222 -0.0245 -0.3949
  166MOL0     C22322   1.821   6.699   4.251 -0.9380  0.1497 -0.7852
  166MOL0     O22323   2.074   6.520   4.187  0.1904 -0.1469 -0.2977
  166MOL0     C22324   2.294   6.736   4.363 -0.4376 -1.0037 -0.3549
  166MOL0     C22325   2.425   6.791   4.349 -0.5349  0.0124  0.0792
  166MOL0     N22326   3.128   6.750   4.117 -1.0539  0.2669  0.5801
  166MOL0     N22327   3.211   6.720   4.214  0.5921 -0.0956  0.0778
  166MOL0     C22328   4.247   7.068   4.313  0.0943 -0.2815  0.5422
  166MOL0     C22329   4.384   7.036   4.293  0.6249  0.5171  0.3129
  166MOL0     C22330   4.770   6.876   4.179  0.7259  0.1925 -0.0017
  166MOL0     C22331   4.875   6.964   4.172 -0.1814 -0.1297 -0.1127
  166MOL0     C22332   5.007   6.918   4.183 -0.1045  1.0663 -0.2510
  166MOL0     C22333   5.030   6.782   4.183  0.3497 -0.2300 -0.3105
  166MOL0     O22334   5.152   6.721   4.185 -0.4369 -0.2435  0.2699
  166MOL0     C22335   5.269   6.791   4.135 -0.1736  0.3086  1.0472
  166MOL0     C22336   5.382   6.702   4.105  0.3316 -0.6538 -0.3616
  166MOL0     C22337   5.414   6.619   4.233  0.2964 -0.5556 -0.3982
  166MOL0     C22338   5.518   6.510   4.209  0.7188 -1.2617  0.0368
  166MOL0     C22339   5.655   6.554   4.162 -0.7464 -0.0947  0.5720
  166MOL0     C22340   5.765   6.571   4.120  0.2271  0.5348 -0.1676
  166MOL0     C22341   4.924   6.690   4.187  0.0580  0.5466  0.5102
  166MOL0     C22342   4.793   6.736   4.178 -0.1861  0.6475  0.1027
  166MOL0     H22343   4.347   6.703   4.263  0.3897 -1.0690  0.9475
  166MOL0     H22344   4.092   6.773   4.294  0.9810 -1.3623  1.3410
  166MOL0     H22345   4.037   7.167   4.488 -0.6435  2.2250  0.0913
  166MOL0     H22346   4.007   7.201   4.318 -0.9695  0.3336 -0.5496
  166MOL0     H22347   3.828   7.055   4.493  3.4904 -0.9889 -0.3136
  166MOL0     H22348   3.797   7.228   4.454 -1.4710 -1.1257  1.0561
  166MOL0     H22349   3.776   7.144   4.199 -0.5533 -2.1797 -1.7206
  166MOL0     H22350   3.788   6.983   4.269  3.0524 -0.0094  3.2701
  166MOL0     H22351   3.581   7.039   4.407  2.3827  1.2705  2.1426
  166MOL0     H22352   3.582   7.195   4.331  0.9990  0.2873  1.2550
  166MOL0     H22353   3.417   7.070   4.207 -0.5655 -0.3126 -1.3115
  166MOL0     H22354   3.567   7.068   4.107 -2.9108  0.7623 -0.4209
  166MOL0     H22355   3.431   6.853   4.109 -0.8408 -0.0177  1.4801
  166MOL0     H22356   3.611   6.855   4.144 -0.9558  0.2910 -1.8939
  166MOL0     H22357   3.470   6.696   4.270  2.9764  0.4290 -2.0884
  166MOL0     H22358   3.553   6.811   4.385 -0.7375 -1.6544  1.4388
  166MOL0     H22359   3.374   6.943   4.402 -0.8007 -1.1989  3.3977
  166MOL0     H22360   3.312   6.787   4.466 -2.1361 -0.1053  0.3249
  166MOL0     H22361   3.175   7.047   4.259  0.4022  0.9396 -3.2003
  166MOL0     H22362   2.991   7.071   4.064  0.8309 -0.7037 -0.2653
  166MOL0     H22363   2.989   6.939   3.948 -0.4465  1.2219 -0.1777
  166MOL0     H22364   2.860   6.802   4.094  0.8954  0.7440  2.1858
  166MOL0     H22365   2.771   6.953   4.044  0.7286 -1.8872 -2.9029
  166MOL0     H22366   2.847   7.047   4.282  2.3475 -0.0154  0.4544
  166MOL0     H22367   2.895   6.887   4.314  2.0229  4.1695  0.9355
  166MOL0     H22368   2.617   6.992   4.248 -2.0480 -1.1941  0.2567
  166MOL0     H22369   2.674   6.912   4.397 -1.2913  2.1619 -0.3173
  166MOL0     H22370   2.546   6.593   4.104 -0.1652  0.4440 -0.4431
  166MOL0     H22371   2.275   6.357   4.177  0.7412  1.2443  1.6854
  166MOL0     H22372   2.288   6.452   4.022 -1.6792 -1.0480  0.4162
  166MOL0     H22373   2.427   6.387   4.107  0.2599  0.0440  2.3865
  166MOL0     H22374   1.899   6.496   4.510  0.9297 -1.2147 -1.3980
  166MOL0     H22375   1.642   6.487   4.516 -0.6564 -0.6393  0.2013
  166MOL0     H22376   1.428   6.588   4.542  0.4173 -1.4544 -1.5456
  166MOL0     H22377   1.315   6.684   4.459 -1.4735 -1.2981  0.4802
  166MOL0     H22378   1.250   6.493   4.324 -1.4810  1.2282  0.5144
  166MOL0     H22379   1.402   6.408   4.355 -1.9099 -0.6490 -1.9180
  166MOL0     H22380   1.315   6.340   4.571 -0.4990 -2.2248 -1.4918
  166MOL0     H22381   1.210   6.298   4.458  2.6392 -0.0268 -0.4629
  166MOL0     H22382   1.175   6.543   4.644  2.2737  2.2346 -2.1725
  166MOL0     H22383   1.079   6.513   4.498 -0.5336  0.4333  1.5853
  166MOL0     H22384   1.103   6.310   4.731  0.8245  1.4395 -0.3401
  166MOL0     H22385   1.010   6.296   4.585  0.5165  3.0187 -3.3237
  166MOL0     H22386   0.890   6.371   4.816 -1.6488  1.3469  0.7001
  166MOL0     H22387   0.940   6.534   4.758  2.2915 -0.9178  2.6255
  166MOL0     H22388   0.782   6.324   4.595  0.3131 -0.6889 -0.0144
  166MOL0     H22389   0.810   6.489   4.532  0.4238  0.2211  0.3859
  166MOL0     H22390   0.582   6.445   4.613 -0.0102 -1.8912  0.8552
  166MOL0     H22391   0.658   6.581   4.696  0.3374  0.1341  0.7332
  166MOL0     H22392   1.623   6.760   4.192 -0.7396  0.1581  1.3650
  166MOL0     H22393   1.865   6.759   4.172  0.6851 -2.3105 -1.8485
  166MOL0     H22394   2.229   6.764   4.446 -1.8700  0.8467 -1.9900
  166MOL0     H22395   2.464   6.858   4.425 -1.4024  2.0090 -1.1597
  166MOL0     H22396   4.221   7.171   4.331  2.0099  0.2810  0.2712
  166MOL0     H22397   4.459   7.115   4.299  0.5209  1.0655 -3.1933
  166MOL0     H22398   4.852   7.069   4.155 -1.7484 -0.4370 -0.0723
  166MOL0     H22399   5.096   6.976   4.161  0.1640  1.5170  1.8121
  166MOL0     H22400   5.237   6.845   4.046 -0.0958 -0.4062  0.5820
  166MOL0     H22401   5.294   6.871   4.205  4.0841  0.6846 -0.6351
  166MOL0     H22402   5.472   6.759   4.080 -0.1240  0.7719  1.0721
  166MOL0     H22403   5.355   6.643   4.017  0.7808  0.4715 -1.2658
  166MOL0     H22404   5.332   6.557   4.269  2.1931 -3.2247 -0.4032
  166MOL0     H22405   5.447   6.684   4.315 -0.5915 -1.1623  0.4543
  166MOL0     H22406   5.484   6.448   4.126  0.8832 -1.6176  0.2344
  166MOL0     H22407   5.524   6.443   4.295 -0.3004 -1.3578  0.0441
  166MOL0     H22408   5.866   6.579   4.084  1.0185  2.0519  2.1946
  166MOL0     H22409   4.941   6.583   4.177 -3.0414 -0.0386  0.4290
  166MOL0     H22410   4.718   6.657   4.173  1.2910 -0.7406 -1.3476
  167MOL0     O22411   0.559  10.881   1.346 -0.4718 -0.2970 -0.9616
  167MOL0     C22412   0.554  10.974   1.423 -0.2065 -0.7069 -0.9221
  167MOL0     O22413   0.459  10.983   1.526  0.4939  0.1311 -0.0273
  167MOL0     C22414   0.335  10.927   1.524 -0.2900  0.5253  0.3950
  167MOL0     C22415   0.262  10.917   1.404  0.8030  1.0096 -0.5090
  167MOL0     C22416   0.141  10.848   1.417 -0.7270  0.5451  0.4212
  167MOL0     C22417   0.080  10.808   1.539  0.2468 -0.2497  0.5603
  167MOL0     O22418  -0.044  10.744   1.556 -0.7352  0.4376  0.5931
  167MOL0     C22419  -0.118  10.710   1.440 -0.4217  0.2232 -0.0933
  167MOL0     C22420  -0.193  10.830   1.382  0.7694  0.5701  0.0231
  167MOL0     C22421  -0.299  10.885   1.493 -1.1336  0.4661 -0.5890
  167MOL0     C22422  -0.380  10.998   1.439  0.2890 -0.6089  0.1337
  167MOL0     C22423  -0.532  10.981   1.472 -0.4172  0.0864  0.8457
  167MOL0     C22424  -0.617  10.867   1.418  0.0189  0.2877  0.4865
  167MOL0     C22425  -0.654  10.879   1.266 -0.4157 -0.6494 -0.0552
  167MOL0     C22426  -0.768  10.776   1.232  0.5994 -0.0834  0.1268
  167MOL0     N22427  -0.818  10.798   1.100 -0.0651  0.2535 -0.1000
  167MOL0     C22428  -0.742  10.829   0.994 -1.0242  0.7294  0.8061
  167MOL0     C22429  -0.832  10.822   0.882 -0.8804 -0.5998 -0.5501
  167MOL0     C22430  -0.790  10.860   0.737  0.4035 -0.5518 -0.1857
  167MOL0     C22431  -0.766  11.013   0.717  0.4516  0.0869  0.1219
  167MOL0     C22432  -0.701  11.038   0.586  0.4092  0.4402 -0.7035
  167MOL0     C22433  -0.635  11.174   0.587 -0.5636 -0.0516  0.2492
  167MOL0     O22434  -0.711  11.288   0.618  0.1296  0.4093 -0.0075
  167MOL0     C22435  -0.790  11.336   0.510  0.4687 -0.0814  0.3462
  167MOL0     C22436  -0.794  11.297   0.376  0.2670 -0.2740  0.3576
  167MOL0     C22437  -0.869  11.360   0.276 -0.2403 -0.2511 -0.4639
  167MOL0     C22438  -0.883  11.296   0.142  0.2558  0.2131 -0.5204
  167MOL0     C22439  -0.944  11.473   0.319  0.6316  0.4681 -0.3864
  167MOL0     C22440  -1.043  11.539   0.230  0.9631 -0.3117 -0.4814
  167MOL0     O22441  -1.113  11.466   0.141 -0.0130  0.6525  0.0510
  167MOL0     C22442  -1.225  11.515   0.080  0.3644 -0.5778 -0.0295
  167MOL0     C22443  -1.242  11.653   0.038 -0.0585  0.1602 -0.4843
  167MOL0     C22444  -1.368  11.695  -0.020 -0.6934 -0.5259 -0.8292
  167MOL0     C22445  -1.474  11.604  -0.022  0.3183  0.8663 -0.0215
  167MOL0     O22446  -1.599  11.642  -0.071 -0.3061  0.7501 -0.7182
  167MOL0     C22447  -1.638  11.785  -0.080  0.3319 -0.2193  0.5072
  167MOL0     C22448  -1.780  11.794  -0.122  0.5870 -0.2850 -0.0537
  167MOL0     C22449  -1.886  11.704  -0.061  0.2317  0.3409 -0.5151
  167MOL0     C22450  -1.904  11.733   0.081  0.0157  0.1356  0.4538
  167MOL0     C22451  -1.987  11.616   0.143  0.6408  0.2314 -0.2579
  167MOL0     C22452  -2.005  11.649   0.298  0.2042  0.1752 -0.7112
  167MOL0     C22453  -2.062  11.541   0.385  0.3486 -0.4065  0.0851
  167MOL0     C22454  -2.192  11.467   0.343 -1.3301 -0.3474  0.3342
  167MOL0    Cl22455  -2.312  11.588   0.307  0.5577 -0.2846 -0.3346
  167MOL0     C22456  -1.457  11.478   0.025 -0.0135  1.2110  0.4955
  167MOL0     C22457  -1.339  11.429   0.078  0.0034  0.4016 -0.4609
  167MOL0     O22458  -1.068  11.659   0.260  0.6358  0.3134 -0.3601
  167MOL0     C22459  -0.936  11.528   0.451 -0.0685  0.1495  0.5003
  167MOL0     C22460  -0.858  11.456   0.546  1.3282  0.0609 -0.3286
  167MOL0     N22461  -0.952  10.792   0.931  0.2793  0.0829 -0.0916
  167MOL0     N22462  -0.944  10.770   1.058 -0.0558 -0.7858  0.4296
  167MOL0     C22463   0.152  10.831   1.651  0.0326  0.1950  0.1151
  167MOL0     C22464   0.277  10.887   1.649 -1.2271  0.0109 -0.1085
  167MOL0     C22465   0.667  11.064   1.430  0.1259  0.0472 -0.7534
  167MOL0     C22466   0.670  11.164   1.528  0.8537  0.0682  0.2973
  167MOL0     C22467   0.776  11.256   1.523 -0.5096  0.2206  0.7934
  167MOL0     C22468   0.889  11.233   1.447  0.1647 -0.9021  0.5988
  167MOL0     O22469   0.998  11.318   1.447  0.7047  0.5409  0.1034
  167MOL0     C22470   1.033  11.395   1.562  0.4680  0.4483 -0.3734
  167MOL0     C22471   1.141  11.493   1.529  0.9955 -0.6099 -0.4495
  167MOL0     C22472   1.253  11.429   1.437  0.4670  0.0009 -0.0364
  167MOL0     C22473   1.321  11.310   1.505  0.4910  0.0047  0.0561
  167MOL0     C22474   1.406  11.331   1.615  0.3711 -0.7507  0.3381
  167MOL0     C22475   1.472  11.340   1.715  0.8785  0.5196  0.3484
  167MOL0     C22476   0.884  11.135   1.348  0.4099 -0.2137  0.6837
  167MOL0     C22477   0.772  11.041   1.349 -0.1532  0.6372  0.8041
  167MOL0     H22478   0.299  10.961   1.312 -0.5426  3.2893 -0.0280
  167MOL0     H22479   0.091  10.837   1.321 -0.5499 -1.0915  0.4938
  167MOL0     H22480  -0.051  10.667   1.365 -2.4347  0.5861 -2.2258
  167MOL0     H22481  -0.190  10.631   1.464  2.5814 -2.4770  0.7063
  167MOL0     H22482  -0.123  10.911   1.361 -0.8158  1.4168 -2.3868
  167MOL0     H22483  -0.239  10.803   1.287  0.1806 -0.7639  0.6446
  167MOL0     H22484  -0.359  10.804   1.534  2.3977 -0.5620  3.1874
  167MOL0     H22485  -0.236  10.910   1.579  0.1139 -0.9205 -1.0461
  167MOL0     H22486  -0.331  11.087   1.480  2.2712 -1.2030 -0.8205
  167MOL0     H22487  -0.372  11.007   1.330  0.1294 -1.5939  0.0316
  167MOL0     H22488  -0.537  10.983   1.581  3.1741  1.2104  1.1386
  167MOL0     H22489  -0.583  11.069   1.432  0.6400 -0.2035 -1.3001
  167MOL0     H22490  -0.559  10.776   1.435 -0.6446  0.1946  2.4789
  167MOL0     H22491  -0.708  10.860   1.479 -0.5550 -0.2323 -0.4093
  167MOL0     H22492  -0.697  10.979   1.254  0.4917 -0.2446  0.0234
  167MOL0     H22493  -0.577  10.860   1.191  0.0158  4.5934 -1.3309
  167MOL0     H22494  -0.857  10.788   1.295 -1.6984 -3.2785 -2.1724
  167MOL0     H22495  -0.738  10.670   1.230 -4.0017 -1.7933  3.6468
  167MOL0     H22496  -0.636  10.850   0.991 -0.5467 -1.0008  2.7255
  167MOL0     H22497  -0.693  10.811   0.723  0.4472 -1.0836  1.7035
  167MOL0     H22498  -0.860  10.825   0.661 -0.8545  3.0635 -0.8495
  167MOL0     H22499  -0.709  11.051   0.802 -4.2095  0.1558  3.5868
  167MOL0     H22500  -0.861  11.067   0.722  2.2470  3.5893 -0.2718
  167MOL0     H22501  -0.778  11.048   0.509  2.4220 -2.1523 -3.2441
  167MOL0     H22502  -0.634  10.955   0.561  0.1435  0.9042 -3.1864
  167MOL0     H22503  -0.590  11.186   0.488 -1.4803 -1.8762 -0.4434
  167MOL0     H22504  -0.562  11.184   0.668  1.5868 -3.3705 -1.0383
  167MOL0     H22505  -0.733  11.213   0.346 -1.1344 -1.0537 -0.4306
  167MOL0     H22506  -0.851  11.360   0.060  4.3748 -0.8599  0.0351
  167MOL0     H22507  -0.824  11.205   0.135  1.7354  1.2482 -2.3148
  167MOL0     H22508  -0.988  11.268   0.126  0.6272 -1.8289  0.3164
  167MOL0     H22509  -1.157  11.720   0.027  2.0836 -1.5937  3.3743
  167MOL0     H22510  -1.384  11.788  -0.074 -3.5205 -0.0984  0.5546
  167MOL0     H22511  -1.639  11.839   0.015  1.0168  0.8496 -0.0627
  167MOL0     H22512  -1.576  11.835  -0.155  1.9051 -1.2380  1.0725
  167MOL0     H22513  -1.814  11.898  -0.122 -1.3534 -0.8855 -0.0322
  167MOL0     H22514  -1.783  11.759  -0.226 -0.2654 -1.8027  0.4408
  167MOL0     H22515  -1.866  11.599  -0.087  0.9162  0.5472 -0.8676
  167MOL0     H22516  -1.982  11.724  -0.110 -1.6748 -0.8977  2.4450
  167MOL0     H22517  -1.802  11.726   0.121  0.2635 -1.6471 -0.3979
  167MOL0     H22518  -1.950  11.831   0.096  1.9503  1.1450  0.1008
  167MOL0     H22519  -1.938  11.520   0.126 -0.1643 -0.0888 -0.8351
  167MOL0     H22520  -2.091  11.608   0.109  0.4980 -0.6437  0.3566
  167MOL0     H22521  -1.900  11.668   0.324  0.9497 -1.1277 -2.5808
  167MOL0     H22522  -2.060  11.740   0.327 -4.4104 -2.2488 -1.0207
  167MOL0     H22523  -2.064  11.579   0.488 -0.6446 -0.2560  0.0164
  167MOL0     H22524  -1.989  11.459   0.380 -0.2533 -1.1817  2.4804
  167MOL0     H22525  -2.223  11.397   0.422 -2.4016  2.7295  2.8298
  167MOL0     H22526  -2.179  11.415   0.247 -0.9136 -0.6952  0.5761
  167MOL0     H22527  -1.541  11.410   0.014  0.3431  0.3471  2.5983
  167MOL0     H22528  -1.319  11.327   0.111 -1.5965 -1.3349 -4.2724
  167MOL0     H22529  -0.969  11.629   0.473  2.1762  0.2984  3.8669
  167MOL0     H22530  -0.839  11.492   0.647 -1.6770  0.8615  0.0486
  167MOL0     H22531   0.115  10.803   1.749 -1.4354  0.7706 -0.2486
  167MOL0     H22532   0.330  10.914   1.739  0.5654  0.9720 -1.3794
  167MOL0     H22533   0.585  11.177   1.594 -2.6490  4.1733 -4.2494
  167MOL0     H22534   0.771  11.336   1.597  0.3184  0.6031  0.4472
  167MOL0     H22535   0.951  11.450   1.608  1.1441  0.0392  1.3726
  167MOL0     H22536   1.067  11.316   1.630 -0.4116 -2.3476 -2.9271
  167MOL0     H22537   1.176  11.535   1.624 -1.6660 -1.8645  1.2102
  167MOL0     H22538   1.093  11.576   1.476 -1.6358 -1.5998  0.2331
  167MOL0     H22539   1.339  11.497   1.432  0.9001 -0.6083 -1.6260
  167MOL0     H22540   1.211  11.402   1.340 -0.4466 -2.0873  0.8758
  167MOL0     H22541   1.377  11.277   1.416 -2.1891 -1.2239 -1.3011
  167MOL0     H22542   1.247  11.232   1.527  0.5914 -0.8093 -2.1373
  167MOL0     H22543   1.539  11.328   1.798  1.1238  1.6363  0.3246
  167MOL0     H22544   0.972  11.147   1.286  1.9601  0.0191  2.8085
  167MOL0     H22545   0.766  10.960   1.277  0.0529  2.1965 -1.0564
  168MOL0     O22546   4.454   2.416   9.785 -0.1225 -0.0966  0.4876
  168MOL0     C22547   4.580   2.409   9.772  0.4606  0.7192  0.5721
  168MOL0     O22548   4.672   2.438   9.869 -0.9571 -0.0596 -0.2702
  168MOL0     C22549   4.630   2.496   9.986 -0.0029 -0.9201  0.1982
  168MOL0     C22550   4.521   2.445  10.072 -0.0115  0.3687 -0.0450
  168MOL0     C22551   4.505   2.503  10.198  0.6772  0.0657  1.0266
  168MOL0     C22552   4.589   2.608  10.250 -0.3251  1.1465  0.1478
  168MOL0     O22553   4.562   2.643  10.375 -0.0083 -0.1281 -0.1372
  168MOL0     C22554   4.633   2.758  10.420  0.4671 -0.7137 -1.0451
  168MOL0     C22555   4.582   2.812  10.558  0.7869 -1.4020 -0.2671
  168MOL0     C22556   4.427   2.847  10.559  0.3879 -0.2630  0.9831
  168MOL0     C22557   4.365   2.864  10.699 -0.3096 -0.0508 -0.0553
  168MOL0     C22558   4.225   2.934  10.695  0.2550 -0.5937 -0.2178
  168MOL0     C22559   4.099   2.846  10.655  0.3101 -0.2183  0.8585
  168MOL0     C22560   3.969   2.926  10.650 -0.0489  0.1034  0.7606
  168MOL0     C22561   3.874   2.887  10.765 -0.1649 -0.1281 -0.0090
  168MOL0     N22562   3.747   2.960  10.761  0.1082 -0.4691  0.2200
  168MOL0     C22563   3.632   2.923  10.827  0.9548 -0.6351 -0.5389
  168MOL0     C22564   3.545   3.030  10.827 -0.7211  0.2770 -0.0980
  168MOL0     C22565   3.402   3.056  10.869 -0.3899 -0.1888  0.5323
  168MOL0     C22566   3.333   2.921  10.901  0.3303 -0.0061 -0.3750
  168MOL0     C22567   3.185   2.932  10.922 -0.7969 -0.6192  0.8448
  168MOL0     C22568   3.123   2.796  10.971 -0.1727 -1.3308  0.2243
  168MOL0     O22569   2.982   2.797  10.956  0.1434  0.5548 -0.4111
  168MOL0     C22570   2.916   2.681  10.999 -0.3447 -0.0632 -0.0966
  168MOL0     C22571   2.984   2.557  11.041  0.3392  0.3589  0.0351
  168MOL0     C22572   2.911   2.446  11.078 -0.9410 -0.1685 -0.5936
  168MOL0     C22573   2.990   2.328  11.118 -0.4708 -0.2215  1.1989
  168MOL0     C22574   2.768   2.457  11.087 -0.4687  0.6620 -0.0872
  168MOL0     C22575   2.668   2.344  11.127 -0.3494  0.1000  0.0541
  168MOL0     O22576   2.551   2.390  11.174  0.4538  0.2383 -0.5577
  168MOL0     C22577   2.460   2.301  11.230 -0.2823 -0.2518 -0.4432
  168MOL0     C22578   2.330   2.346  11.223 -0.3150  0.8925  0.2767
  168MOL0     C22579   2.231   2.265  11.280  0.2383  1.6488 -0.8158
  168MOL0     C22580   2.259   2.143  11.351  0.2266 -0.5571 -0.4857
  168MOL0     O22581   2.168   2.060  11.409 -0.7808  0.0705 -0.2102
  168MOL0     C22582   2.031   2.095  11.374  0.0279  0.7579 -0.2316
  168MOL0     C22583   1.941   1.972  11.412 -0.4577  0.4448  0.3986
  168MOL0     C22584   1.959   1.929  11.559  0.7396  0.0547  0.7692
  168MOL0     C22585   1.894   1.788  11.568 -0.8646  0.0518  0.3146
  168MOL0     C22586   1.880   1.729  11.708  0.4739 -0.5297  0.2230
  168MOL0     C22587   1.774   1.800  11.786 -0.2938  0.1223  0.5031
  168MOL0     C22588   1.827   1.904  11.880 -0.2784  0.5401  0.4904
  168MOL0     C22589   1.716   1.998  11.920  0.3119 -0.4657  0.6131
  168MOL0    Cl22590   1.573   1.922  12.003  0.3816  0.0820 -0.0653
  168MOL0     C22591   2.389   2.102  11.361 -0.5642 -1.3606 -0.1776
  168MOL0     C22592   2.493   2.184  11.302 -0.1558 -0.0916 -0.5730
  168MOL0     O22593   2.700   2.232  11.087  0.7577  0.5643 -0.7944
  168MOL0     C22594   2.705   2.576  11.046  0.1066  0.5572  0.2714
  168MOL0     C22595   2.777   2.681  10.992  0.1254  0.0799  0.2799
  168MOL0     N22596   3.615   3.122  10.755  0.5310  0.2216  0.2053
  168MOL0     N22597   3.733   3.088  10.727 -0.0579  0.2708 -0.2299
  168MOL0     C22598   4.692   2.654  10.161 -0.0487  0.9178  0.3620
  168MOL0     C22599   4.705   2.603  10.029 -0.1641 -0.1161 -0.3268
  168MOL0     C22600   4.636   2.377   9.636  0.9277  0.1159 -0.8320
  168MOL0     C22601   4.547   2.332   9.534  0.3109  0.2393 -0.4519
  168MOL0     C22602   4.602   2.309   9.410 -0.4224 -0.4290 -0.8084
  168MOL0     C22603   4.745   2.303   9.382  0.8419 -0.6389  0.2408
  168MOL0     O22604   4.809   2.269   9.266  0.4903 -0.2032 -0.9217
  168MOL0     C22605   4.776   2.133   9.230  0.6717 -0.5151 -0.2222
  168MOL0     C22606   4.881   2.039   9.295 -0.6145  0.0211 -0.5499
  168MOL0     C22607   4.916   1.924   9.210 -0.2058  0.2636  0.4784
  168MOL0     C22608   5.037   1.934   9.121 -0.4594  0.5472  0.2990
  168MOL0     C22609   5.085   1.800   9.077 -0.3412 -0.3940  0.6851
  168MOL0     C22610   5.123   1.693   9.042  0.7602  0.2032 -1.0051
  168MOL0     C22611   4.825   2.348   9.489  0.7208 -0.4996  0.9436
  168MOL0     C22612   4.772   2.388   9.609  0.0675  0.2854  0.1480
  168MOL0     H22613   4.456   2.367  10.034  0.9309  0.7865 -2.7254
  168MOL0     H22614   4.429   2.462  10.262 -2.0992 -1.9715 -3.1038
  168MOL0     H22615   4.737   2.730  10.440  0.9719  2.2702  1.2929
  168MOL0     H22616   4.627   2.846  10.355 -1.0649 -0.4050 -0.5094
  168MOL0     H22617   4.602   2.734  10.632  1.7664 -0.5445  0.4168
  168MOL0     H22618   4.637   2.903  10.585  0.0448 -1.3635  1.2230
  168MOL0     H22619   4.408   2.939  10.502 -0.1692 -0.7536  0.3731
  168MOL0     H22620   4.386   2.773  10.491  3.6272 -2.0905  0.7855
  168MOL0     H22621   4.361   2.770  10.756  0.9184  0.8823  1.6840
  168MOL0     H22622   4.435   2.922  10.760 -3.3885  1.6504  2.1306
  168MOL0     H22623   4.198   2.962  10.798 -0.3478 -0.4149 -0.4230
  168MOL0     H22624   4.238   3.028  10.641  3.3761 -0.9408 -0.2716
  168MOL0     H22625   4.118   2.830  10.548 -1.7366  2.6386 -0.0648
  168MOL0     H22626   4.081   2.754  10.710  0.5217  0.2855  1.7898
  168MOL0     H22627   3.992   3.032  10.641 -0.0853  0.0555  0.1003
  168MOL0     H22628   3.912   2.898  10.561 -0.0394 -2.8243  1.5412
  168MOL0     H22629   3.933   2.878  10.857 -0.2549  1.1376  0.1892
  168MOL0     H22630   3.852   2.782  10.742  1.7093 -0.7608  0.8459
  168MOL0     H22631   3.605   2.828  10.872 -0.1227  0.1606  0.5765
  168MOL0     H22632   3.399   3.104  10.967  1.0170 -0.9337  0.9686
  168MOL0     H22633   3.354   3.116  10.792  0.1304  2.9014  2.4363
  168MOL0     H22634   3.379   2.877  10.990 -0.9843 -1.6602 -0.4655
  168MOL0     H22635   3.347   2.851  10.818 -2.1213 -0.7685 -0.2294
  168MOL0     H22636   3.133   2.964  10.831  0.2072 -4.0492 -1.1321
  168MOL0     H22637   3.162   3.013  10.991 -0.2122  0.0588  0.2679
  168MOL0     H22638   3.155   2.779  11.074  2.0624  1.3808  0.0796
  168MOL0     H22639   3.161   2.717  10.905  2.4298  1.4614 -1.8790
  168MOL0     H22640   3.093   2.556  11.043  0.3901  0.1093 -1.8482
  168MOL0     H22641   3.095   2.353  11.137 -0.1242 -0.6680 -0.0794
  168MOL0     H22642   2.948   2.270  11.201 -1.5918  0.5788  1.2121
  168MOL0     H22643   2.995   2.256  11.036 -1.2372  0.0436  0.9088
  168MOL0     H22644   2.312   2.446  11.184  0.0453  1.0836  0.5942
  168MOL0     H22645   2.131   2.307  11.280  0.0505  1.3715  1.8682
  168MOL0     H22646   1.984   2.173  11.434 -0.5576  1.4179 -1.4929
  168MOL0     H22647   2.015   2.133  11.273 -0.2196  0.1850 -0.4130
  168MOL0     H22648   1.835   1.999  11.403 -0.4334  0.9902  1.6291
  168MOL0     H22649   1.963   1.888  11.345  2.9200  0.0815  1.7851
  168MOL0     H22650   1.907   2.002  11.622  1.8350 -1.8816  4.1465
  168MOL0     H22651   2.064   1.913  11.583  0.6785 -0.4336  0.7206
  168MOL0     H22652   1.793   1.779  11.529 -0.9688 -2.3275  1.0175
  168MOL0     H22653   1.952   1.717  11.509 -1.3552 -1.0016  1.0710
  168MOL0     H22654   1.977   1.740  11.757  0.6392  1.1739 -0.4101
  168MOL0     H22655   1.850   1.625  11.696 -0.1933 -0.0979 -2.6504
  168MOL0     H22656   1.697   1.840  11.719 -1.0524  2.1498  2.4811
  168MOL0     H22657   1.720   1.721  11.838 -2.8158  1.6146  0.3412
  168MOL0     H22658   1.904   1.963  11.831 -1.9889  0.0823 -3.0338
  168MOL0     H22659   1.877   1.867  11.970  1.4286  0.2936 -0.5293
  168MOL0     H22660   1.690   2.044  11.824  0.1322 -1.9004 -0.0537
  168MOL0     H22661   1.753   2.081  11.981 -1.1772  1.7497 -1.3194
  168MOL0     H22662   2.412   2.007  11.408 -0.1033 -1.5190 -0.7169
  168MOL0     H22663   2.600   2.162  11.305 -0.2221 -0.2825  1.0972
  168MOL0     H22664   2.598   2.596  11.042  0.2431  1.2555 -3.2126
  168MOL0     H22665   2.727   2.764  10.944 -1.8632 -0.5573  1.1652
  168MOL0     H22666   4.761   2.730  10.195  0.7040 -0.2373  1.4721
  168MOL0     H22667   4.778   2.646   9.961 -1.0883 -0.7062 -1.7458
  168MOL0     H22668   4.442   2.330   9.564  0.6313 -1.4790  0.7477
  168MOL0     H22669   4.534   2.290   9.327  0.1764 -2.7310 -0.8611
  168MOL0     H22670   4.673   2.105   9.253  0.3828 -0.4006 -1.3133
  168MOL0     H22671   4.803   2.126   9.124  0.5699 -0.2916 -0.2645
  168MOL0     H22672   4.848   2.002   9.392  2.3361 -3.5818 -0.7495
  168MOL0     H22673   4.977   2.088   9.311  2.0733 -4.9725  0.5650
  168MOL0     H22674   4.829   1.889   9.153 -1.0462  2.9084 -0.0286
  168MOL0     H22675   4.945   1.840   9.273  1.9447 -0.0966 -0.8862
  168MOL0     H22676   5.121   1.985   9.168 -1.1207 -0.2088  2.4128
  168MOL0     H22677   5.007   2.002   9.040 -0.8052  0.6341  0.4970
  168MOL0     H22678   5.164   1.595   9.030  2.1791  0.3824  1.6939
  168MOL0     H22679   4.933   2.346   9.482  0.8041 -0.9962  2.1717
  168MOL0     H22680   4.847   2.424   9.678  0.8493 -0.2466 -0.4135
  169MOL0     O22681   4.124   9.801   1.567  0.7470  0.1925 -0.3036
  169MOL0     C22682   4.063   9.781   1.670  0.3975  0.4612  0.0971
  169MOL0     O22683   4.119   9.764   1.797 -0.4401 -0.1260  0.5334
  169MOL0     C22684   4.255   9.781   1.810  1.2028  0.2501  0.5514
  169MOL0     C22685   4.317   9.699   1.908  0.5958  0.4612 -0.0283
  169MOL0     C22686   4.458   9.706   1.936  0.5606 -0.1059 -0.0970
  169MOL0     C22687   4.535   9.791   1.861  0.1905  0.1204 -0.4522
  169MOL0     O22688   4.663   9.809   1.917  0.5541  1.2369  0.5133
  169MOL0     C22689   4.750   9.899   1.853  0.7079 -0.4460 -0.2809
  169MOL0     C22690   4.873   9.911   1.942  0.4934 -0.0482  0.6891
  169MOL0     C22691   4.973  10.008   1.880  0.2853  0.5225 -0.7668
  169MOL0     C22692   5.086  10.044   1.974  0.4412  0.8239 -0.1962
  169MOL0     C22693   5.208  10.106   1.918 -0.8069 -0.2779 -0.4045
  169MOL0     C22694   5.298  10.147   2.038  0.4864  0.2030 -0.1269
  169MOL0     C22695   5.260  10.280   2.108  0.0696  0.5974 -0.2859
  169MOL0     C22696   5.391  10.369   2.135 -0.2043  0.3025  0.8938
  169MOL0     N22697   5.355  10.506   2.187  0.6208  0.1115  0.1171
  169MOL0     C22698   5.268  10.518   2.297 -0.0239  0.2709  0.0367
  169MOL0     C22699   5.277  10.642   2.346 -0.5503 -0.6231  0.0841
  169MOL0     C22700   5.193  10.676   2.472  0.4659 -0.1116  0.4378
  169MOL0     C22701   5.044  10.651   2.434 -0.2555 -0.6174  0.2154
  169MOL0     C22702   4.956  10.668   2.555 -0.1053 -1.0547 -0.3882
  169MOL0     C22703   4.810  10.693   2.519 -0.0129  0.2154  0.0469
  169MOL0     O22704   4.741  10.572   2.475 -0.0402 -0.1744  0.2556
  169MOL0     C22705   4.612  10.588   2.426  0.5784 -0.6255 -0.0788
  169MOL0     C22706   4.567  10.479   2.346  0.0138  0.0992  0.6341
  169MOL0     C22707   4.438  10.484   2.287 -0.5401  0.0900 -0.0474
  169MOL0     C22708   4.402  10.373   2.204  0.1570 -0.2817 -0.1311
  169MOL0     C22709   4.347  10.595   2.310 -0.1927 -0.4294  1.3124
  169MOL0     C22710   4.218  10.608   2.243  0.9039  0.4259  1.1258
  169MOL0     O22711   4.134  10.690   2.305  0.2245 -0.8104  0.7114
  169MOL0     C22712   3.999  10.682   2.272 -0.2155  0.2127 -0.5442
  169MOL0     C22713   3.923  10.785   2.315 -0.5774  0.0081  0.9752
  169MOL0     C22714   3.786  10.782   2.306  0.2089  0.6585  0.3325
  169MOL0     C22715   3.713  10.676   2.257  0.2107  0.3570  0.3152
  169MOL0     O22716   3.575  10.675   2.246 -0.2281 -0.2244  0.5878
  169MOL0     C22717   3.514  10.807   2.234  0.8801  1.2624  1.0691
  169MOL0     C22718   3.377  10.790   2.177 -0.1664 -0.1601 -0.4821
  169MOL0     C22719   3.262  10.768   2.282  0.0325  0.3044 -0.1278
  169MOL0     C22720   3.129  10.775   2.194 -0.2904 -0.2809  0.3927
  169MOL0     C22721   3.014  10.728   2.287 -0.7514  0.1088  0.0497
  169MOL0     C22722   2.893  10.703   2.203 -0.3044  0.4674 -0.5224
  169MOL0     C22723   2.789  10.616   2.273  0.4120 -0.0917  0.6697
  169MOL0     C22724   2.655  10.610   2.204  0.0993 -0.8876 -0.3984
  169MOL0    Cl22725   2.537  10.578   2.330 -0.4386 -0.2001  0.0531
  169MOL0     C22726   3.791  10.567   2.220 -0.2178  0.0054  0.4730
  169MOL0     C22727   3.928  10.573   2.227 -0.1301 -0.2873 -0.6027
  169MOL0     O22728   4.207  10.571   2.123 -0.0575 -0.1800 -0.3263
  169MOL0     C22729   4.387  10.693   2.402  0.1327 -0.0247 -1.2797
  169MOL0     C22730   4.519  10.696   2.451  0.0325  0.7173  0.7154
  169MOL0     N22731   5.381  10.709   2.278  0.2122  0.5662  0.4334
  169MOL0     N22732   5.429  10.625   2.193  0.1084  0.8714  0.5703
  169MOL0     C22733   4.475   9.875   1.774  0.7109 -0.2069  0.9312
  169MOL0     C22734   4.336   9.867   1.742 -0.1843  0.2789 -0.3999
  169MOL0     C22735   3.920   9.764   1.668  0.5477 -0.6242  0.4228
  169MOL0     C22736   3.851   9.766   1.543  1.3338 -0.0297 -0.8013
  169MOL0     C22737   3.707   9.781   1.540 -0.4736 -0.8845 -0.4948
  169MOL0     C22738   3.634   9.773   1.660  0.1445  0.5438  0.4018
  169MOL0     O22739   3.497   9.772   1.649  0.6376  0.0002 -0.4127
  169MOL0     C22740   3.429   9.877   1.722 -0.7122 -0.4261  0.0421
  169MOL0     C22741   3.320   9.939   1.622  0.0180 -0.2860 -0.0648
  169MOL0     C22742   3.210   9.841   1.573 -0.3204  0.4636  1.2896
  169MOL0     C22743   3.258   9.744   1.472 -0.1050  0.4401 -0.3215
  169MOL0     C22744   3.135   9.679   1.419  0.0129  1.2246 -0.0751
  169MOL0     C22745   3.027   9.631   1.381  0.9717 -0.7020  0.1629
  169MOL0     C22746   3.701   9.774   1.780  0.2052  1.1420  0.2264
  169MOL0     C22747   3.845   9.768   1.789  0.7087 -1.0174 -0.6144
  169MOL0     H22748   4.260   9.620   1.957  0.2031 -1.0222 -2.6786
  169MOL0     H22749   4.506   9.653   2.018  3.0924  3.5744  1.0914
  169MOL0     H22750   4.793   9.859   1.760  2.2217  0.6499 -0.0933
  169MOL0     H22751   4.704   9.998   1.847 -0.8581 -0.8464  3.1115
  169MOL0     H22752   4.834   9.959   2.033 -1.0904  1.3019 -0.6549
  169MOL0     H22753   4.921   9.817   1.972 -1.5086 -1.0174  1.0328
  169MOL0     H22754   5.019   9.977   1.785 -0.4475  0.8582 -1.2422
  169MOL0     H22755   4.918  10.102   1.867 -0.4451  0.0603 -1.1392
  169MOL0     H22756   5.046  10.098   2.060 -1.1925 -2.4641  1.3113
  169MOL0     H22757   5.126   9.950   2.015  0.4655 -0.5229 -3.0474
  169MOL0     H22758   5.255  10.041   1.844  1.2863  1.1319 -0.4256
  169MOL0     H22759   5.189  10.199   1.863 -0.4259  0.9007  1.3617
  169MOL0     H22760   5.294  10.063   2.108 -1.5549  0.6070  0.3055
  169MOL0     H22761   5.392  10.167   1.985 -0.2719  1.6029 -0.9993
  169MOL0     H22762   5.180  10.328   2.051 -0.7734 -0.1489  0.2312
  169MOL0     H22763   5.226  10.247   2.207 -1.4679 -0.4754 -1.1186
  169MOL0     H22764   5.435  10.396   2.039 -3.8472  1.1307 -0.6841
  169MOL0     H22765   5.468  10.313   2.190  1.4574  1.7390  0.1340
  169MOL0     H22766   5.212  10.440   2.348 -0.3598  0.7226  0.3678
  169MOL0     H22767   5.227  10.600   2.543  1.8810  0.7074  0.6801
  169MOL0     H22768   5.226  10.770   2.517  3.1963 -1.7305  2.0976
  169MOL0     H22769   5.031  10.551   2.391 -0.4566 -0.6933  0.4483
  169MOL0     H22770   5.023  10.721   2.352  1.2296 -0.9443 -0.4779
  169MOL0     H22771   4.993  10.756   2.610 -0.4635 -0.6759 -0.7529
  169MOL0     H22772   4.960  10.581   2.621 -2.3361 -0.7275  0.2421
  169MOL0     H22773   4.793  10.765   2.439  1.0234  0.0272 -0.3702
  169MOL0     H22774   4.755  10.723   2.608 -0.0595  0.9028 -0.2059
  169MOL0     H22775   4.630  10.392   2.333 -0.0929  0.2519 -1.0581
  169MOL0     H22776   4.429  10.396   2.101  1.2001  2.9387  0.7451
  169MOL0     H22777   4.460  10.284   2.231  0.1777 -0.6019 -1.2085
  169MOL0     H22778   4.296  10.348   2.221 -0.8068  1.6950 -2.6161
  169MOL0     H22779   3.971  10.880   2.337  0.4594  0.5893 -3.0200
  169MOL0     H22780   3.739  10.878   2.328  0.4197  0.4942  1.5251
  169MOL0     H22781   3.507  10.847   2.336  2.0038  0.4606  1.4914
  169MOL0     H22782   3.572  10.866   2.163  1.1358 -2.1918 -1.8972
  169MOL0     H22783   3.353  10.883   2.124  0.9337  0.4866  0.1116
  169MOL0     H22784   3.377  10.708   2.104 -0.8626 -0.7135  0.1325
  169MOL0     H22785   3.258  10.844   2.361 -0.8162 -0.7257  0.8664
  169MOL0     H22786   3.274  10.671   2.330  2.5709  0.7447  0.2549
  169MOL0     H22787   3.107  10.873   2.150  1.4860 -1.5597 -3.8679
  169MOL0     H22788   3.140  10.709   2.107 -1.3245  1.8975 -1.4874
  169MOL0     H22789   2.985  10.795   2.368 -1.7729 -0.6211  0.3089
  169MOL0     H22790   3.051  10.640   2.341 -2.4139 -0.7609 -0.1722
  169MOL0     H22791   2.856  10.802   2.177 -2.0048 -0.0525 -0.1594
  169MOL0     H22792   2.921  10.648   2.112 -1.5695  0.5770 -0.9947
  169MOL0     H22793   2.776  10.659   2.373 -0.6984 -0.4154  0.6739
  169MOL0     H22794   2.824  10.513   2.277 -2.6303 -1.2796 -0.5180
  169MOL0     H22795   2.649  10.533   2.126  0.6587  1.2303 -2.6527
  169MOL0     H22796   2.633  10.704   2.153 -1.9127 -1.1443 -0.0757
  169MOL0     H22797   3.736  10.476   2.199  1.2767 -0.9153  0.4090
  169MOL0     H22798   3.966  10.475   2.201 -2.5737 -0.3731 -4.8868
  169MOL0     H22799   4.323  10.780   2.415  0.6888  1.1239 -4.8807
  169MOL0     H22800   4.552  10.782   2.509  0.2519  1.5856 -0.6524
  169MOL0     H22801   4.523   9.959   1.725 -0.8393  0.7272  0.9276
  169MOL0     H22802   4.295   9.945   1.679  2.7143  1.8598 -0.4888
  169MOL0     H22803   3.911   9.756   1.453  4.7206 -0.6790  1.3095
  169MOL0     H22804   3.665   9.773   1.440  0.6135 -0.4138 -1.0145
  169MOL0     H22805   3.382   9.842   1.815  1.4863 -3.7721  0.0862
  169MOL0     H22806   3.502   9.951   1.755  0.4754 -1.7649  0.5606
  169MOL0     H22807   3.377   9.983   1.539 -0.9962 -0.9403 -1.1315
  169MOL0     H22808   3.271  10.024   1.670  1.8788  0.5314  0.4744
  169MOL0     H22809   3.123   9.888   1.525 -0.3052  0.5851  1.3832
  169MOL0     H22810   3.174   9.778   1.655  0.6521 -0.6143  0.9207
  169MOL0     H22811   3.323   9.672   1.524  1.9067  1.1011 -1.7773
  169MOL0     H22812   3.310   9.797   1.391 -2.1937 -0.4251 -2.3464
  169MOL0     H22813   2.933   9.595   1.344 -0.1767  1.6027  0.6578
  169MOL0     H22814   3.648   9.764   1.875  0.4524 -0.2464  0.2434
  169MOL0     H22815   3.890   9.780   1.887  3.0417 -1.0484 -1.6078
  170MOL0     O22816   9.471   2.082   4.085 -0.4418 -0.0747  0.3846
  170MOL0     C22817   9.439   2.083   3.964 -0.4665 -0.2840 -0.4641
  170MOL0     O22818   9.313   2.091   3.912  0.3190 -0.7743  0.2287
  170MOL0     C22819   9.204   2.086   4.000  0.0462  0.4385  0.7038
  170MOL0     C22820   9.091   2.155   3.951  0.7615  0.2357 -0.2232
  170MOL0     C22821   8.963   2.130   4.010  0.2274 -0.1214  0.2457
  170MOL0     C22822   8.960   2.043   4.121 -0.6090 -0.2101  0.4654
  170MOL0     O22823   8.846   2.015   4.184 -0.0056 -0.5513  0.1254
  170MOL0     C22824   8.719   2.048   4.133  0.5419 -0.0860  0.3299
  170MOL0     C22825   8.624   1.977   4.225  0.0480  0.7417 -0.8957
  170MOL0     C22826   8.479   1.971   4.174 -0.6607  0.9342  0.2494
  170MOL0     C22827   8.387   2.082   4.232 -0.5465 -0.1971 -0.1226
  170MOL0     C22828   8.239   2.062   4.201 -0.6949  0.2136 -0.4960
  170MOL0     C22829   8.151   2.179   4.245 -0.7599  0.6202  0.2660
  170MOL0     C22830   8.006   2.168   4.212 -1.0694  0.0487  0.6755
  170MOL0     C22831   7.946   2.025   4.254  0.8609 -0.8742 -0.0085
  170MOL0     N22832   7.803   2.030   4.242 -0.5889 -0.5798  0.0014
  170MOL0     C22833   7.714   1.977   4.330 -0.6674  0.4928 -0.0337
  170MOL0     C22834   7.591   2.009   4.296  0.2820  0.0195  0.9058
  170MOL0     C22835   7.460   1.985   4.360 -0.1680  0.3745  0.5758
  170MOL0     C22836   7.387   2.126   4.379  0.1225  0.3875 -0.3366
  170MOL0     C22837   7.234   2.113   4.411  0.3133  0.0137  0.6060
  170MOL0     C22838   7.226   2.089   4.561  0.8310  0.4090  0.0889
  170MOL0     O22839   7.096   2.036   4.580 -0.2059 -0.3169  0.0269
  170MOL0     C22840   6.994   2.133   4.566 -0.1052  0.7174 -0.0706
  170MOL0     C22841   6.996   2.265   4.604  0.3567  0.4370 -0.0724
  170MOL0     C22842   6.893   2.351   4.576  0.2061  0.2346 -0.5202
  170MOL0     C22843   6.894   2.484   4.646 -0.3035  0.7864  0.3335
  170MOL0     C22844   6.783   2.296   4.503 -0.3309 -0.1897  0.0316
  170MOL0     C22845   6.656   2.378   4.484  0.2426  0.2243 -0.3041
  170MOL0     O22846   6.549   2.307   4.496  0.5770  0.1752  0.6090
  170MOL0     C22847   6.424   2.349   4.504  0.2604  0.9558 -0.6327
  170MOL0     C22848   6.322   2.256   4.462 -0.3066 -0.3786 -0.2093
  170MOL0     C22849   6.191   2.304   4.431 -0.5194 -0.2609 -0.2896
  170MOL0     C22850   6.154   2.441   4.463  0.1471 -0.9584 -0.3618
  170MOL0     O22851   6.027   2.483   4.439 -0.3616  1.1789 -0.6074
  170MOL0     C22852   5.922   2.389   4.397  0.7022  0.3557 -0.3067
  170MOL0     C22853   5.785   2.467   4.381  0.3818  0.5966  0.7528
  170MOL0     C22854   5.709   2.470   4.516 -0.2889  0.8844 -0.2345
  170MOL0     C22855   5.603   2.582   4.510  0.4212  0.9039 -0.1573
  170MOL0     C22856   5.497   2.576   4.623 -0.9743  0.5592  0.1612
  170MOL0     C22857   5.380   2.676   4.603 -0.2818 -0.0847 -0.0389
  170MOL0     C22858   5.404   2.808   4.671  0.0680  0.8489 -0.6371
  170MOL0     C22859   5.321   2.923   4.623  0.9572 -0.8235 -0.4637
  170MOL0    Cl22860   5.139   2.907   4.638 -0.0747  0.1734  0.0179
  170MOL0     C22861   6.256   2.533   4.497  0.3055  0.8833 -0.5603
  170MOL0     C22862   6.383   2.484   4.522  0.0222  0.4885 -0.3337
  170MOL0     O22863   6.663   2.494   4.450  0.2616  0.2302  0.0604
  170MOL0     C22864   6.779   2.163   4.480 -0.8269 -0.0722  0.7743
  170MOL0     C22865   6.880   2.077   4.516 -0.1360  0.5286  0.4270
  170MOL0     N22866   7.605   2.073   4.173  0.5605  0.1065 -0.0769
  170MOL0     N22867   7.728   2.078   4.142  0.6696  0.4227 -0.4171
  170MOL0     C22868   9.073   1.973   4.161  0.0927 -0.6248  0.5690
  170MOL0     C22869   9.197   1.990   4.106  0.6096  0.4395  0.3490
  170MOL0     C22870   9.551   2.053   3.867 -0.0471  0.0556  0.6541
  170MOL0     C22871   9.524   2.060   3.729  0.0681  0.2514  0.3182
  170MOL0     C22872   9.624   2.018   3.643 -0.4868  0.9064 -0.0789
  170MOL0     C22873   9.755   1.987   3.686  1.4608 -0.2786  0.3577
  170MOL0     O22874   9.850   1.933   3.599  0.4715  0.2283  0.3505
  170MOL0     C22875   9.811   1.889   3.468  0.4428 -0.5489  0.3961
  170MOL0     C22876   9.909   1.778   3.428  0.0887  0.4368 -0.5965
  170MOL0     C22877  10.050   1.830   3.410 -1.2952  0.5769 -0.1431
  170MOL0     C22878  10.083   1.914   3.280 -0.8771  0.1849 -0.4073
  170MOL0     C22879  10.221   1.955   3.297 -0.6899 -0.0043  0.6917
  170MOL0     C22880  10.333   2.005   3.298  0.3995 -0.4721 -0.3495
  170MOL0     C22881   9.784   1.987   3.823  0.4697  0.4046  0.2528
  170MOL0     C22882   9.679   2.012   3.909  0.5893 -0.2708 -0.1073
  170MOL0     H22883   9.104   2.220   3.865 -0.5828 -1.2778 -1.6415
  170MOL0     H22884   8.870   2.183   3.992 -0.0761 -1.0879 -1.2449
  170MOL0     H22885   8.704   2.156   4.138 -0.2512 -0.1852  0.2551
  170MOL0     H22886   8.711   2.027   4.026  0.2698 -2.3410  0.7254
  170MOL0     H22887   8.667   1.878   4.242  0.2913  1.1107  0.8250
  170MOL0     H22888   8.618   2.028   4.322 -0.6502  0.9754 -1.0551
  170MOL0     H22889   8.470   1.957   4.066  0.9896 -0.2423  0.2327
  170MOL0     H22890   8.452   1.874   4.215  2.5971 -1.6817 -3.1239
  170MOL0     H22891   8.402   2.076   4.340 -0.3328 -2.1170 -0.2317
  170MOL0     H22892   8.425   2.181   4.202 -0.1324 -0.9433 -2.2208
  170MOL0     H22893   8.228   2.049   4.093 -1.9423  0.1353 -0.3785
  170MOL0     H22894   8.212   1.964   4.243  0.2599  0.0262 -0.3032
  170MOL0     H22895   8.156   2.182   4.354 -1.4589 -1.0344  0.3709
  170MOL0     H22896   8.188   2.272   4.199 -4.1241  2.5780  1.2323
  170MOL0     H22897   7.949   2.253   4.251 -3.2906  0.9988 -3.9231
  170MOL0     H22898   8.001   2.169   4.103  1.6384  1.8507  0.4787
  170MOL0     H22899   7.978   2.012   4.358  1.0665 -0.0348  0.0417
  170MOL0     H22900   7.985   1.946   4.189  0.2287 -1.6465  0.5322
  170MOL0     H22901   7.742   1.912   4.413 -0.2918  0.9938  0.2352
  170MOL0     H22902   7.401   1.926   4.289 -0.3963 -0.7581  1.6796
  170MOL0     H22903   7.471   1.929   4.453 -0.9841 -1.0134 -0.1266
  170MOL0     H22904   7.387   2.165   4.276  1.1809 -0.3502 -0.6253
  170MOL0     H22905   7.431   2.198   4.448 -1.7467 -0.6353  2.0696
  170MOL0     H22906   7.192   2.024   4.364  2.3301 -0.4590 -0.4049
  170MOL0     H22907   7.192   2.206   4.372  1.4858 -0.3866 -1.7681
  170MOL0     H22908   7.264   2.178   4.613  3.2943 -1.5077  1.8585
  170MOL0     H22909   7.297   2.010   4.586 -1.3775 -1.3014  1.1965
  170MOL0     H22910   7.081   2.297   4.664  1.0583 -1.3746 -0.0403
  170MOL0     H22911   6.983   2.486   4.710 -1.6685  1.0221  2.3241
  170MOL0     H22912   6.906   2.564   4.572 -0.0859 -1.1045 -1.7895
  170MOL0     H22913   6.807   2.502   4.711  0.0421 -0.4897  1.1875
  170MOL0     H22914   6.355   2.156   4.438 -0.0756 -1.1915  3.0694
  170MOL0     H22915   6.118   2.238   4.385 -0.3314  0.2045 -1.3056
  170MOL0     H22916   5.952   2.334   4.307 -0.7605  0.5910 -0.9675
  170MOL0     H22917   5.912   2.306   4.467  1.5899  1.0874  0.7303
  170MOL0     H22918   5.819   2.564   4.342 -0.9962  0.4950 -0.7946
  170MOL0     H22919   5.714   2.431   4.306 -0.0850 -0.7958  1.8145
  170MOL0     H22920   5.776   2.494   4.599  0.3237 -1.3834 -0.0069
  170MOL0     H22921   5.671   2.370   4.538  0.8539  0.3903 -0.4590
  170MOL0     H22922   5.641   2.683   4.492  1.4884  0.2334 -2.0723
  170MOL0     H22923   5.543   2.549   4.424  1.9961 -3.8071  0.2522
  170MOL0     H22924   5.539   2.602   4.720 -0.6432 -1.3376  0.5626
  170MOL0     H22925   5.451   2.478   4.641 -1.1914  1.0035  2.2407
  170MOL0     H22926   5.369   2.693   4.496 -3.2197  1.4091  0.4005
  170MOL0     H22927   5.296   2.626   4.653  1.0615 -1.3469  1.0368
  170MOL0     H22928   5.509   2.839   4.672 -0.4501  2.7551 -1.1126
  170MOL0     H22929   5.385   2.794   4.778 -2.4337 -0.9696 -1.2342
  170MOL0     H22930   5.344   2.944   4.518  0.7746  2.4905  0.0443
  170MOL0     H22931   5.356   3.015   4.673 -1.9082  1.0571 -1.6587
  170MOL0     H22932   6.224   2.636   4.510 -2.0564  0.2470 -0.8388
  170MOL0     H22933   6.456   2.560   4.546 -1.4986  1.5933  1.0746
  170MOL0     H22934   6.691   2.125   4.429 -0.4300 -0.6923  0.5357
  170MOL0     H22935   6.878   1.970   4.495  0.5089  0.1129  2.2900
  170MOL0     H22936   9.071   1.900   4.241 -1.8128 -2.3299 -0.8936
  170MOL0     H22937   9.282   1.930   4.135  1.4449  2.7824  3.2872
  170MOL0     H22938   9.431   2.085   3.680  1.0714  2.1030 -0.7065
  170MOL0     H22939   9.603   2.033   3.537  1.7740 -1.3841 -0.9589
  170MOL0     H22940   9.709   1.849   3.469  0.2559 -0.0982  1.5889
  170MOL0     H22941   9.810   1.974   3.398 -0.5658  0.6305  1.7716
  170MOL0     H22942   9.876   1.739   3.331  2.4589 -2.1956 -0.4610
  170MOL0     H22943   9.908   1.692   3.495  4.2771  2.2392  2.2066
  170MOL0     H22944  10.111   1.740   3.401 -0.4402  1.0379  0.7770
  170MOL0     H22945  10.085   1.883   3.499 -0.4892 -2.0883  1.2392
  170MOL0     H22946  10.026   2.007   3.276 -0.0445  0.6738 -3.2795
  170MOL0     H22947  10.062   1.852   3.192 -2.4299  1.1238 -0.7355
  170MOL0     H22948  10.430   2.049   3.300  0.2561  0.1010 -2.5562
  170MOL0     H22949   9.886   1.961   3.851  0.5505 -0.3968 -0.7101
  170MOL0     H22950   9.709   2.007   4.013  2.1519  1.0681 -0.4460
  171MOL0     O22951   2.531   9.502   8.872 -0.5023 -0.4504  0.2864
  171MOL0     C22952   2.604   9.600   8.897  0.5058  0.0473  0.2726
  171MOL0     O22953   2.603   9.714   8.822  0.3055  0.1468  0.4136
  171MOL0     C22954   2.535   9.724   8.702  0.3559  0.6284  0.3294
  171MOL0     C22955   2.605   9.758   8.585 -0.1264  0.4827 -0.3633
  171MOL0     C22956   2.548   9.743   8.461  1.0499  0.6177 -0.5274
  171MOL0     C22957   2.405   9.711   8.451 -0.0551  0.8094  0.2723
  171MOL0     O22958   2.336   9.688   8.334  0.1099  0.2783 -0.1177
  171MOL0     C22959   2.409   9.699   8.215  0.0223  0.6898  0.8113
  171MOL0     C22960   2.319   9.700   8.090  0.1144 -0.3052 -0.3569
  171MOL0     C22961   2.326   9.570   8.015  0.4638  0.5548 -0.5760
  171MOL0     C22962   2.270   9.581   7.870  0.2288 -0.9793 -0.0728
  171MOL0     C22963   2.249   9.449   7.797  0.3073 -0.3244 -0.0337
  171MOL0     C22964   2.213   9.475   7.651 -0.5451 -1.0604 -0.5760
  171MOL0     C22965   2.251   9.360   7.564 -0.3882 -0.1264 -0.1830
  171MOL0     C22966   2.227   9.388   7.420  0.0206 -0.8626 -0.6235
  171MOL0     N22967   2.260   9.277   7.338  0.0080 -0.3220  0.2315
  171MOL0     C22968   2.385   9.227   7.304  0.5321  0.4717 -0.7989
  171MOL0     C22969   2.364   9.119   7.223 -0.1412 -1.0351 -0.5846
  171MOL0     C22970   2.477   9.030   7.168  0.0696 -0.0208 -0.4623
  171MOL0     C22971   2.497   9.059   7.019  0.2897 -1.1153  0.8041
  171MOL0     C22972   2.628   8.999   6.972  0.4986 -0.1449 -0.6214
  171MOL0     C22973   2.747   9.092   6.997  0.2994 -0.6418  0.4506
  171MOL0     O22974   2.783   9.105   7.136  0.1779 -0.8315  0.0566
  171MOL0     C22975   2.905   9.158   7.169 -0.9845 -1.0276 -0.1949
  171MOL0     C22976   2.909   9.273   7.246  0.5259  0.6629  0.4120
  171MOL0     C22977   3.029   9.329   7.288 -0.0451 -0.1130 -0.1961
  171MOL0     C22978   3.006   9.454   7.369 -1.1169 -0.4034 -0.5522
  171MOL0     C22979   3.152   9.278   7.256 -1.1785  0.0841 -0.2185
  171MOL0     C22980   3.285   9.347   7.276  0.0260 -0.0698 -0.0757
  171MOL0     O22981   3.388   9.282   7.220 -0.0570 -0.3448  0.4626
  171MOL0     C22982   3.512   9.341   7.239  0.2792 -0.2156  0.0087
  171MOL0     C22983   3.555   9.462   7.176 -0.5472 -0.4243  0.2349
  171MOL0     C22984   3.673   9.523   7.204  0.1884 -0.4375  0.3095
  171MOL0     C22985   3.771   9.458   7.284 -0.3965  0.3523  0.4279
  171MOL0     O22986   3.895   9.513   7.319 -0.1784  0.2811 -0.2901
  171MOL0     C22987   4.007   9.426   7.319 -0.3869  1.1522 -0.2275
  171MOL0     C22988   4.066   9.403   7.466 -0.4650  0.0729 -0.0103
  171MOL0     C22989   4.146   9.282   7.479  0.0721  0.2166  0.6995
  171MOL0     C22990   4.220   9.280   7.617  0.9811 -0.4567  1.0531
  171MOL0     C22991   4.333   9.175   7.637  0.5600  1.1330 -0.8888
  171MOL0     C22992   4.411   9.202   7.766 -0.2042 -0.3032 -0.0071
  171MOL0     C22993   4.519   9.091   7.796  1.0385 -0.9697  0.4173
  171MOL0     C22994   4.481   9.025   7.932 -0.0008 -0.0420 -0.8780
  171MOL0    Cl22995   4.620   8.916   7.984  0.7103  0.5306 -0.1355
  171MOL0     C22996   3.733   9.336   7.337  0.7726 -0.0433  0.1363
  171MOL0     C22997   3.607   9.282   7.320 -0.4259 -0.0335 -0.0281
  171MOL0     O22998   3.293   9.458   7.337  0.3012  0.3372  0.4280
  171MOL0     C22999   3.144   9.151   7.192  0.2622 -0.1118  0.1682
  171MOL0     C23000   3.028   9.095   7.151 -0.3955  0.5178 -0.1334
  171MOL0     N23001   2.220   9.109   7.210 -0.4773  0.1889  0.2224
  171MOL0     N23002   2.162   9.202   7.279 -0.4447  0.2495  0.2061
  171MOL0     C23003   2.341   9.672   8.569  0.1979  0.3129  0.3289
  171MOL0     C23004   2.401   9.686   8.687 -0.3883 -0.1920 -0.1091
  171MOL0     C23005   2.689   9.586   9.013  0.4081  0.6665 -0.7314
  171MOL0     C23006   2.656   9.496   9.110 -0.2543  0.2842 -0.5116
  171MOL0     C23007   2.753   9.464   9.205  0.8712  0.2383  0.6391
  171MOL0     C23008   2.872   9.532   9.218 -0.7056  0.8959  0.1020
  171MOL0     O23009   2.958   9.479   9.314 -0.0125  0.2001 -0.1243
  171MOL0     C23010   3.091   9.522   9.312  0.1316  0.2809 -0.5243
  171MOL0     C23011   3.177   9.437   9.210  0.3435 -0.6776  0.3523
  171MOL0     C23012   3.164   9.288   9.235 -0.0285  0.1097 -0.0944
  171MOL0     C23013   3.209   9.248   9.371  0.1782  0.1763 -0.5416
  171MOL0     C23014   3.352   9.275   9.390  0.3619 -0.2644  0.2302
  171MOL0     C23015   3.465   9.297   9.407 -1.3965 -0.4491  0.0328
  171MOL0     C23016   2.899   9.625   9.119 -0.6683  0.4326 -0.2530
  171MOL0     C23017   2.809   9.657   9.019 -0.2458  0.0157  0.1416
  171MOL0     H23018   2.711   9.778   8.591  0.8523 -3.9366  4.9005
  171MOL0     H23019   2.596   9.776   8.370 -0.9877  0.4042 -1.7327
  171MOL0     H23020   2.469   9.791   8.212 -0.1812  0.7988 -0.4353
  171MOL0     H23021   2.482   9.620   8.193  0.4228  1.8920 -3.0931
  171MOL0     H23022   2.221   9.741   8.118 -0.5172 -1.4822 -0.7601
  171MOL0     H23023   2.352   9.778   8.022 -0.5008  0.5114  0.2582
  171MOL0     H23024   2.426   9.527   8.009 -0.0800 -2.0663  4.0763
  171MOL0     H23025   2.265   9.489   8.057  1.8069  1.1343  2.7779
  171MOL0     H23026   2.173   9.633   7.869  0.2921 -0.8643 -0.2026
  171MOL0     H23027   2.341   9.645   7.817 -2.4571  0.3875 -2.3307
  171MOL0     H23028   2.342   9.397   7.823  0.2728 -0.8456 -0.9297
  171MOL0     H23029   2.163   9.403   7.847 -0.4510  3.2284  2.3884
  171MOL0     H23030   2.110   9.511   7.649  0.3786  1.8219 -2.0606
  171MOL0     H23031   2.279   9.555   7.615 -0.0897 -0.2342  1.9546
  171MOL0     H23032   2.357   9.334   7.570  0.3767  2.2515 -1.8973
  171MOL0     H23033   2.187   9.275   7.592 -2.5288  1.4777  0.0849
  171MOL0     H23034   2.282   9.478   7.391 -1.5284  0.1458 -0.5411
  171MOL0     H23035   2.123   9.420   7.406  0.5117  0.1162 -2.3311
  171MOL0     H23036   2.481   9.268   7.331  0.2754 -0.1028  1.0917
  171MOL0     H23037   2.570   9.055   7.220  1.2088  2.1380 -3.3280
  171MOL0     H23038   2.439   8.929   7.188  0.0085 -0.5858 -3.1070
  171MOL0     H23039   2.491   9.166   6.997  2.7040 -0.9721  0.5407
  171MOL0     H23040   2.418   9.016   6.957 -0.2286  0.5227  0.2467
  171MOL0     H23041   2.625   8.988   6.863  3.6280  0.4681 -0.8603
  171MOL0     H23042   2.633   8.901   7.021  0.1188  1.1765  2.3000
  171MOL0     H23043   2.706   9.188   6.964  2.3800 -0.2475 -1.2051
  171MOL0     H23044   2.832   9.065   6.934  1.3584 -2.8243  2.6110
  171MOL0     H23045   2.809   9.308   7.272  0.0128 -0.9337  0.6876
  171MOL0     H23046   3.065   9.447   7.460  0.7385 -1.2144 -1.7508
  171MOL0     H23047   3.036   9.539   7.307  0.3965  0.2743  1.0486
  171MOL0     H23048   2.902   9.467   7.399 -0.5252  0.6800  1.2083
  171MOL0     H23049   3.497   9.520   7.105  1.2212 -0.7468 -1.5661
  171MOL0     H23050   3.677   9.625   7.168  0.9934 -0.1725  1.1254
  171MOL0     H23051   3.978   9.327   7.282 -0.2828  0.1830  2.1015
  171MOL0     H23052   4.089   9.463   7.258  0.5373  0.0442  0.3114
  171MOL0     H23053   4.110   9.500   7.492 -2.1403  0.9316 -0.1756
  171MOL0     H23054   3.981   9.380   7.530  0.5993  0.7666  1.7144
  171MOL0     H23055   4.216   9.290   7.395 -0.4336  1.9010  0.4033
  171MOL0     H23056   4.090   9.188   7.476  0.5797 -0.2389  3.2257
  171MOL0     H23057   4.256   9.379   7.643 -0.2376  0.3275 -0.1381
  171MOL0     H23058   4.144   9.251   7.691 -0.5607 -0.6469 -0.5266
  171MOL0     H23059   4.403   9.176   7.553 -0.1315  2.2998 -1.4926
  171MOL0     H23060   4.284   9.078   7.652 -1.1870  1.2782 -4.5193
  171MOL0     H23061   4.463   9.298   7.768 -1.5440  0.5378  3.9092
  171MOL0     H23062   4.335   9.198   7.845  0.2625 -1.6971  0.3992
  171MOL0     H23063   4.618   9.137   7.808  1.0284 -1.2054  1.4354
  171MOL0     H23064   4.523   9.026   7.708  1.9884  0.7292 -0.8677
  171MOL0     H23065   4.390   8.965   7.923  0.5325 -1.1480  0.5891
  171MOL0     H23066   4.467   9.097   8.013  1.1037 -0.4899 -0.2712
  171MOL0     H23067   3.801   9.279   7.400  0.1102 -2.1338 -0.9196
  171MOL0     H23068   3.581   9.188   7.369 -1.0389  1.3143  2.4198
  171MOL0     H23069   3.232   9.094   7.166  1.0296  1.0627  0.1439
  171MOL0     H23070   3.014   9.000   7.102  0.2859  0.7595 -0.8170
  171MOL0     H23071   2.242   9.628   8.565  0.1927 -0.0748  2.8451
  171MOL0     H23072   2.347   9.660   8.778  0.3515 -0.6201  0.2271
  171MOL0     H23073   2.559   9.452   9.127 -1.0165  1.9291 -0.3932
  171MOL0     H23074   2.727   9.388   9.277  0.5305 -0.1810  0.0866
  171MOL0     H23075   3.097   9.629   9.293 -2.9284  1.0970  2.1828
  171MOL0     H23076   3.134   9.520   9.413 -0.8109  0.6593 -0.1043
  171MOL0     H23077   3.285   9.455   9.210  1.0548 -4.1958  1.1746
  171MOL0     H23078   3.142   9.449   9.107  0.0078 -1.4341  0.3755
  171MOL0     H23079   3.213   9.230   9.156 -1.2442 -0.8149 -0.1966
  171MOL0     H23080   3.060   9.255   9.234  0.1313 -0.4146  0.4665
  171MOL0     H23081   3.185   9.142   9.384  0.9892  0.0384 -0.0746
  171MOL0     H23082   3.151   9.302   9.446  0.2545 -0.0596 -0.3129
  171MOL0     H23083   3.569   9.312   9.431 -2.1745  3.8488  1.6585
  171MOL0     H23084   2.998   9.669   9.111  0.1716 -0.8182  2.1531
  171MOL0     H23085   2.834   9.732   8.944  0.2590 -0.9392 -0.6897
  172MOL0     O23086  10.274   4.773   8.582  0.0884  0.3977  0.7100
  172MOL0     C23087  10.344   4.769   8.680 -0.9197  0.2579  0.3475
  172MOL0     O23088  10.305   4.734   8.807  0.2472 -0.1734 -1.0954
  172MOL0     C23089  10.169   4.745   8.843 -0.1212  0.0236 -0.0835
  172MOL0     C23090  10.116   4.668   8.946 -0.8542 -0.1184  0.9168
  172MOL0     C23091   9.987   4.684   8.997 -0.7770  0.1874 -0.6335
  172MOL0     C23092   9.901   4.777   8.943 -0.0348 -0.2105  0.6956
  172MOL0     O23093   9.773   4.787   8.988 -0.2685  0.0988 -0.3034
  172MOL0     C23094   9.670   4.799   8.886  0.3909  1.4971  0.1131
  172MOL0     C23095   9.540   4.780   8.957 -0.0098  0.0707 -0.2229
  172MOL0     C23096   9.435   4.760   8.846  0.3184 -0.4385 -0.3521
  172MOL0     C23097   9.298   4.751   8.907 -0.2126 -0.1731  0.1113
  172MOL0     C23098   9.198   4.709   8.801 -0.2361 -0.4476 -0.0518
  172MOL0     C23099   9.221   4.569   8.739 -0.4986 -0.0786  0.2152
  172MOL0     C23100   9.099   4.522   8.675 -0.1672 -0.7295 -0.0458
  172MOL0     C23101   9.124   4.409   8.566  0.5322  0.3535 -0.3954
  172MOL0     N23102   9.002   4.376   8.504  0.2953  0.1657  0.7416
  172MOL0     C23103   8.953   4.249   8.479  0.1667  1.2342  0.2382
  172MOL0     C23104   8.856   4.257   8.385  0.3367 -0.7329 -0.2265
  172MOL0     C23105   8.790   4.135   8.323 -0.6074 -0.6716  0.9358
  172MOL0     C23106   8.662   4.165   8.254  0.3385 -0.4220  0.1620
  172MOL0     C23107   8.556   4.209   8.351 -1.3498  0.1452  0.2602
  172MOL0     C23108   8.433   4.240   8.275  0.0779 -0.0741 -0.3093
  172MOL0     O23109   8.325   4.257   8.371  0.4090  0.1691 -0.0997
  172MOL0     C23110   8.200   4.238   8.321 -0.5116  0.4243  0.2669
  172MOL0     C23111   8.103   4.176   8.399  0.8714  0.1562  0.0598
  172MOL0     C23112   7.970   4.162   8.358  0.6918  0.3363 -0.0467
  172MOL0     C23113   7.885   4.094   8.461  0.4413 -0.0047 -0.0911
  172MOL0     C23114   7.930   4.200   8.232  0.0868  1.0072  0.1574
  172MOL0     C23115   7.794   4.177   8.171  1.2868  0.2339  0.0899
  172MOL0     O23116   7.706   4.105   8.242  0.3899 -0.5239 -0.1097
  172MOL0     C23117   7.579   4.092   8.188 -0.4643 -0.1172  0.7020
  172MOL0     C23118   7.553   4.058   8.055  0.3635 -0.0585  0.4049
  172MOL0     C23119   7.418   4.042   8.012  0.3315 -0.1186  0.3912
  172MOL0     C23120   7.314   4.039   8.100  0.3524 -0.7694  0.1206
  172MOL0     O23121   7.182   4.008   8.070  0.2678 -0.0204  0.0024
  172MOL0     C23122   7.152   3.981   7.933  0.4735  0.3565  0.4827
  172MOL0     C23123   7.004   3.989   7.915 -0.2981  0.0323 -0.3293
  172MOL0     C23124   6.967   3.971   7.770  0.0767 -0.5504  0.3357
  172MOL0     C23125   6.813   3.984   7.764  0.1925  0.1473  0.7605
  172MOL0     C23126   6.754   3.955   7.630 -0.1048  1.1124 -0.0303
  172MOL0     C23127   6.596   3.963   7.606 -0.1133  0.5431  0.6478
  172MOL0     C23128   6.538   4.098   7.641 -0.4359  0.1769 -0.3082
  172MOL0     C23129   6.390   4.110   7.616  0.2820  0.4825  0.2622
  172MOL0    Cl23130   6.318   4.052   7.765 -0.0432  0.0653 -0.2757
  172MOL0     C23131   7.336   4.074   8.227 -0.8039 -0.0998 -0.0402
  172MOL0     C23132   7.466   4.106   8.272  0.4027 -0.5008  0.4367
  172MOL0     O23133   7.779   4.219   8.060  0.3137 -0.4031  0.1275
  172MOL0     C23134   8.032   4.249   8.144 -0.2859  1.3509  0.1513
  172MOL0     C23135   8.159   4.266   8.192 -0.3364  0.3985 -1.2265
  172MOL0     N23136   8.844   4.396   8.352 -0.6943  0.5058 -0.2282
  172MOL0     N23137   8.921   4.458   8.435  0.6741  0.3130 -0.5942
  172MOL0     C23138   9.955   4.869   8.847  0.4133 -1.2060  0.3393
  172MOL0     C23139  10.080   4.838   8.789 -0.4938  0.9297 -1.1456
  172MOL0     C23140  10.485   4.785   8.657  0.6205  0.6760  0.5422
  172MOL0     C23141  10.548   4.767   8.534  0.2918  0.6365  0.0897
  172MOL0     C23142  10.682   4.771   8.508 -0.9377 -0.5332 -0.1140
  172MOL0     C23143  10.768   4.785   8.620  0.0373 -0.6675  0.4588
  172MOL0     O23144  10.905   4.796   8.612 -0.5546 -0.0737  0.0636
  172MOL0     C23145  10.961   4.789   8.486  0.4086 -0.3005  0.5621
  172MOL0     C23146  11.111   4.794   8.475  0.3084  0.7741 -0.0344
  172MOL0     C23147  11.176   4.914   8.546  0.0864  0.3387  0.3245
  172MOL0     C23148  11.205   4.874   8.693  0.5580  0.1584 -0.3975
  172MOL0     C23149  11.299   4.982   8.734  0.0214  0.0224  0.3309
  172MOL0     C23150  11.389   5.066   8.759  0.5352  0.1920  0.2613
  172MOL0     C23151  10.708   4.810   8.746  0.0580 -1.1939 -0.5475
  172MOL0     C23152  10.567   4.814   8.765  0.4452 -0.2260  0.6459
  172MOL0     H23153  10.190   4.604   8.993 -2.3378 -0.2533  3.1887
  172MOL0     H23154   9.962   4.613   9.075  3.2417 -1.5163 -0.6302
  172MOL0     H23155   9.669   4.895   8.833  0.0317  1.0895 -0.6383
  172MOL0     H23156   9.691   4.721   8.812  1.3668  0.2931  1.5821
  172MOL0     H23157   9.545   4.702   9.033  2.9262  0.8428  0.5146
  172MOL0     H23158   9.520   4.871   9.015  2.2060 -0.2091  1.0904
  172MOL0     H23159   9.445   4.831   8.764  0.2968  2.7370  2.1873
  172MOL0     H23160   9.461   4.666   8.796  0.2397 -1.4992  1.4964
  172MOL0     H23161   9.313   4.677   8.987 -1.1711 -1.3870 -0.7891
  172MOL0     H23162   9.269   4.846   8.952  0.6678  0.9461 -1.5757
  172MOL0     H23163   9.100   4.720   8.849  0.0145  0.9953  0.1946
  172MOL0     H23164   9.198   4.786   8.722 -0.8160 -0.4854 -0.0951
  172MOL0     H23165   9.303   4.573   8.667  1.0772 -2.3968  1.7379
  172MOL0     H23166   9.253   4.493   8.812  1.7702  0.6675  0.0751
  172MOL0     H23167   9.018   4.497   8.744 -0.3558  1.9854  0.8276
  172MOL0     H23168   9.063   4.607   8.615  0.6304 -0.3524  0.0018
  172MOL0     H23169   9.154   4.317   8.617 -0.8978  0.4226  0.6377
  172MOL0     H23170   9.191   4.431   8.482  2.7725 -1.7029  0.7122
  172MOL0     H23171   8.990   4.155   8.517 -0.1033  1.6233  1.5115
  172MOL0     H23172   8.858   4.088   8.251 -2.6343 -0.7389 -1.0258
  172MOL0     H23173   8.780   4.057   8.399 -0.6147  0.1227  1.7605
  172MOL0     H23174   8.639   4.067   8.212 -0.9095 -0.8400  1.7311
  172MOL0     H23175   8.672   4.241   8.176 -2.2014  2.3260  2.2941
  172MOL0     H23176   8.595   4.297   8.404 -0.2127 -1.0456  1.5034
  172MOL0     H23177   8.531   4.134   8.427  0.5671  1.4873  2.3741
  172MOL0     H23178   8.404   4.161   8.206  1.4769  0.2234 -1.2900
  172MOL0     H23179   8.443   4.337   8.226  0.3761  0.2132  0.2948
  172MOL0     H23180   8.128   4.155   8.502  0.8735 -1.2833 -0.2226
  172MOL0     H23181   7.929   4.095   8.562 -3.3217  0.4985  1.7006
  172MOL0     H23182   7.783   4.130   8.472 -0.9636 -3.9683  1.9134
  172MOL0     H23183   7.882   3.986   8.445  1.1467  0.0314 -0.5606
  172MOL0     H23184   7.620   4.047   7.971 -1.2443 -1.1366 -0.7818
  172MOL0     H23185   7.415   4.008   7.909  1.7390  2.0226 -0.4115
  172MOL0     H23186   7.213   4.044   7.867  1.4357 -0.8104  0.2242
  172MOL0     H23187   7.186   3.882   7.902 -2.3065 -0.3486 -0.5410
  172MOL0     H23188   6.966   3.903   7.971  1.3263 -0.7293 -0.3610
  172MOL0     H23189   6.962   4.076   7.967 -0.5898 -1.6659  2.4768
  172MOL0     H23190   6.997   3.874   7.730 -1.0978  0.0131 -2.1051
  172MOL0     H23191   7.021   4.040   7.705  1.3316  0.0055  1.8935
  172MOL0     H23192   6.767   3.925   7.843  0.2722 -2.2013 -0.8586
  172MOL0     H23193   6.789   4.088   7.788 -3.1890 -0.7483  1.8201
  172MOL0     H23194   6.788   3.856   7.599  1.5932  1.7817 -0.3832
  172MOL0     H23195   6.806   4.015   7.555  0.5422  1.6402  0.8268
  172MOL0     H23196   6.575   3.938   7.502  3.4578 -1.6820  0.3169
  172MOL0     H23197   6.554   3.892   7.678  0.8241 -1.2212 -0.4782
  172MOL0     H23198   6.579   4.168   7.568 -2.4540 -1.6991 -3.4723
  172MOL0     H23199   6.564   4.129   7.743  2.5582 -1.0847 -0.5706
  172MOL0     H23200   6.361   4.048   7.531  1.9585 -0.4939  0.3532
  172MOL0     H23201   6.374   4.216   7.596  0.5214  0.2178 -1.4789
  172MOL0     H23202   7.259   4.066   8.303  1.6401 -2.3190  2.3823
  172MOL0     H23203   7.478   4.135   8.376 -0.5240  0.1832  0.3652
  172MOL0     H23204   8.010   4.264   8.039 -1.0274 -1.6913 -0.2173
  172MOL0     H23205   8.236   4.311   8.130  1.9412 -1.2204  0.2634
  172MOL0     H23206   9.900   4.959   8.824  0.6709 -0.9814  0.6021
  172MOL0     H23207  10.110   4.908   8.711  0.7922  1.2910 -0.3622
  172MOL0     H23208  10.488   4.738   8.449  0.9601 -0.4678 -0.0225
  172MOL0     H23209  10.713   4.751   8.406 -0.7258  0.0004 -0.1571
  172MOL0     H23210  10.931   4.692   8.448 -0.3791  1.2073 -3.0856
  172MOL0     H23211  10.915   4.863   8.420 -1.5254  0.3536  2.5203
  172MOL0     H23212  11.131   4.801   8.367  0.9604 -2.6111 -0.2217
  172MOL0     H23213  11.157   4.702   8.510 -0.6356  0.1333 -0.4159
  172MOL0     H23214  11.105   4.997   8.536 -0.6203 -0.3667 -0.7075
  172MOL0     H23215  11.265   4.943   8.489 -0.7576 -0.5428 -1.5371
  172MOL0     H23216  11.258   4.779   8.702  0.8090  0.4568  1.6558
  172MOL0     H23217  11.112   4.880   8.750  1.1045 -0.8974  0.6419
  172MOL0     H23218  11.468   5.138   8.748  0.7496  0.0189  0.6808
  172MOL0     H23219  10.769   4.836   8.832  0.6450 -3.0670 -0.3536
  172MOL0     H23220  10.528   4.811   8.867  0.3952  1.0776  0.6764
  173MOL0     O23221   4.998   8.268   2.887 -0.7578  0.9082 -0.4518
  173MOL0     C23222   5.096   8.343   2.919 -0.4144 -0.4126  0.1806
  173MOL0     O23223   5.083   8.462   2.984  0.3017  0.1034 -0.0877
  173MOL0     C23224   4.955   8.493   3.023  0.6603 -0.7390 -0.3272
  173MOL0     C23225   4.888   8.615   2.985  0.2729  0.4005  0.4338
  173MOL0     C23226   4.762   8.645   3.046  0.8325 -0.4438 -0.0814
  173MOL0     C23227   4.699   8.556   3.136  0.4617  0.3560 -0.7975
  173MOL0     O23228   4.572   8.570   3.192  0.1416 -0.2882 -0.5988
  173MOL0     C23229   4.470   8.637   3.114 -0.2314 -0.5025  0.4480
  173MOL0     C23230   4.339   8.607   3.184  0.0849 -0.7412 -0.1051
  173MOL0     C23231   4.212   8.656   3.105  0.1903 -0.1281  0.9439
  173MOL0     C23232   4.087   8.641   3.192 -0.1835  0.1727  0.6101
  173MOL0     C23233   3.986   8.738   3.145  0.3225  0.0434 -0.1978
  173MOL0     C23234   3.864   8.734   3.232  0.2918 -0.0339 -0.4451
  173MOL0     C23235   3.762   8.837   3.173  0.0538  0.6157 -0.0701
  173MOL0     C23236   3.641   8.857   3.269  0.5853  0.8490  0.3884
  173MOL0     N23237   3.575   8.727   3.305  0.6283  0.2898 -0.1755
  173MOL0     C23238   3.504   8.637   3.229 -0.8569 -0.0775  0.0108
  173MOL0     C23239   3.447   8.554   3.323 -0.0570 -0.7009  0.3016
  173MOL0     C23240   3.343   8.453   3.293 -1.2999 -0.9714 -0.1461
  173MOL0     C23241   3.208   8.508   3.308  0.2731  0.4153  0.3456
  173MOL0     C23242   3.105   8.403   3.258 -0.0715 -0.0881 -0.1931
  173MOL0     C23243   2.969   8.468   3.273  0.4407  1.4240 -0.2419
  173MOL0     O23244   2.954   8.469   3.424  0.1110  0.3421  0.8042
  173MOL0     C23245   2.836   8.520   3.480 -0.3988 -0.2196 -0.1680
  173MOL0     C23246   2.838   8.555   3.615 -0.0706  1.0856  0.4379
  173MOL0     C23247   2.729   8.611   3.679 -0.7063  0.6190 -0.0917
  173MOL0     C23248   2.760   8.665   3.817  0.3058  0.5080 -0.9031
  173MOL0     C23249   2.606   8.620   3.614 -0.3269  0.6320  0.6116
  173MOL0     C23250   2.473   8.659   3.678  0.1908 -0.0064 -0.8448
  173MOL0     O23251   2.364   8.645   3.601 -0.6795 -0.3625 -0.4831
  173MOL0     C23252   2.237   8.676   3.633  0.2641  0.2901  0.3444
  173MOL0     C23253   2.202   8.791   3.702  0.1489 -0.4077 -0.0438
  173MOL0     C23254   2.063   8.824   3.720  0.0879 -0.2702 -0.2521
  173MOL0     C23255   1.959   8.744   3.667 -0.1755 -0.3153 -0.7585
  173MOL0     O23256   1.829   8.773   3.684  0.0172 -0.7397 -0.6611
  173MOL0     C23257   1.788   8.897   3.753 -0.3281  0.2735  0.2263
  173MOL0     C23258   1.636   8.916   3.767 -1.3526 -0.5022  0.7737
  173MOL0     C23259   1.567   8.902   3.630  0.5231  0.6504 -0.2354
  173MOL0     C23260   1.414   8.912   3.654  0.1689  0.2307  0.2678
  173MOL0     C23261   1.351   9.037   3.604  0.4059  0.6449  0.3317
  173MOL0     C23262   1.201   9.013   3.587  1.0334 -0.2687 -0.3553
  173MOL0     C23263   1.125   9.021   3.726 -0.5496 -0.6605  0.2042
  173MOL0     C23264   0.982   9.058   3.709  0.5151 -0.2190  0.6874
  173MOL0    Cl23265   0.957   9.229   3.762 -0.4186  0.3431  0.0481
  173MOL0     C23266   2.000   8.630   3.602  1.0452  0.2369 -0.3658
  173MOL0     C23267   2.137   8.592   3.588 -0.5100  0.8120  0.5012
  173MOL0     O23268   2.479   8.718   3.787 -0.3377 -0.2851 -0.1259
  173MOL0     C23269   2.603   8.595   3.474 -1.1470 -0.6764  0.1672
  173MOL0     C23270   2.714   8.543   3.413 -0.2561 -0.4303 -0.4315
  173MOL0     N23271   3.485   8.591   3.448 -0.5728  0.3017  0.5141
  173MOL0     N23272   3.555   8.698   3.434 -0.1566  0.3384 -0.5739
  173MOL0     C23273   4.771   8.446   3.176 -0.0836  0.1002 -0.5045
  173MOL0     C23274   4.891   8.412   3.121 -0.4202  0.3969  0.4208
  173MOL0     C23275   5.242   8.316   2.898 -0.1342  0.0401 -0.3550
  173MOL0     C23276   5.341   8.403   2.957  0.5431  0.5193  0.5323
  173MOL0     C23277   5.475   8.374   2.935 -0.6234 -0.3874  0.6255
  173MOL0     C23278   5.527   8.264   2.864  0.1778 -0.1628  0.2810
  173MOL0     O23279   5.660   8.277   2.841 -0.6522  0.5382 -0.3012
  173MOL0     C23280   5.725   8.169   2.767 -0.2244 -0.1041  0.5323
  173MOL0     C23281   5.869   8.204   2.750  0.6983  0.3420  0.1803
  173MOL0     C23282   5.907   8.330   2.678 -0.5031  0.0122 -0.1004
  173MOL0     C23283   5.856   8.340   2.528  0.1573  0.5299  0.3699
  173MOL0     C23284   5.963   8.418   2.451 -0.7394  1.1497  0.0116
  173MOL0     C23285   6.045   8.472   2.389 -0.3119 -0.4787  0.9216
  173MOL0     C23286   5.429   8.172   2.815  0.6477 -0.1808  0.2382
  173MOL0     C23287   5.288   8.198   2.841  0.1648  0.2806 -0.5819
  173MOL0     H23288   4.939   8.683   2.918  2.8183 -0.3967  1.4394
  173MOL0     H23289   4.719   8.744   3.042  0.7674 -0.4166  1.0767
  173MOL0     H23290   4.481   8.745   3.104  2.1447 -0.8276 -1.1745
  173MOL0     H23291   4.460   8.592   3.015  1.2294 -2.0058  0.9314
  173MOL0     H23292   4.325   8.503   3.213 -3.3018 -1.2400 -2.9351
  173MOL0     H23293   4.336   8.666   3.276  0.0439 -0.1796 -0.4576
  173MOL0     H23294   4.216   8.764   3.093  0.2152 -0.1855  0.4333
  173MOL0     H23295   4.202   8.604   3.009 -0.2314  3.1847 -0.9308
  173MOL0     H23296   4.051   8.538   3.185  0.9931 -0.1487 -2.1225
  173MOL0     H23297   4.114   8.664   3.295  0.2747 -1.7724  0.9559
  173MOL0     H23298   4.029   8.837   3.161  2.4586 -1.2138  2.8222
  173MOL0     H23299   3.955   8.728   3.041 -0.4932  2.0844 -0.2077
  173MOL0     H23300   3.817   8.636   3.243  1.6565 -1.0268 -2.7996
  173MOL0     H23301   3.894   8.767   3.332 -1.4379 -0.3516  0.2091
  173MOL0     H23302   3.807   8.936   3.159  1.0554 -0.0069 -1.4496
  173MOL0     H23303   3.718   8.804   3.078 -0.0212  2.8235 -0.8743
  173MOL0     H23304   3.556   8.916   3.234 -0.1516 -0.1046  0.5363
  173MOL0     H23305   3.671   8.904   3.363  1.2320  2.1166 -0.4295
  173MOL0     H23306   3.491   8.639   3.121 -0.4271  1.5621 -0.0277
  173MOL0     H23307   3.341   8.427   3.187 -1.3176 -1.6256  0.0105
  173MOL0     H23308   3.358   8.363   3.354 -4.0781 -0.8044  0.9614
  173MOL0     H23309   3.206   8.603   3.254 -1.9392 -0.5581 -1.4579
  173MOL0     H23310   3.190   8.517   3.416  1.5657 -3.2905  1.0042
  173MOL0     H23311   3.113   8.305   3.304  0.1349 -0.5341 -1.1475
  173MOL0     H23312   3.118   8.384   3.151  0.4326  0.8371 -0.3103
  173MOL0     H23313   2.898   8.394   3.234  0.5874  0.1696  1.7239
  173MOL0     H23314   2.962   8.569   3.231  0.4535  0.5484 -2.4606
  173MOL0     H23315   2.934   8.549   3.667  0.9888 -1.0325 -1.5656
  173MOL0     H23316   2.765   8.587   3.893  0.7785 -1.0955 -2.5150
  173MOL0     H23317   2.862   8.705   3.817  1.1973 -1.4312  1.7817
  173MOL0     H23318   2.698   8.747   3.855  2.4618  2.3914 -1.2205
  173MOL0     H23319   2.281   8.860   3.731 -0.0887  0.7085 -1.9199
  173MOL0     H23320   2.037   8.908   3.783  0.1365 -1.1974  1.0475
  173MOL0     H23321   1.834   8.889   3.851  0.0961 -2.9528 -0.1305
  173MOL0     H23322   1.829   8.978   3.692  1.9993 -0.3448  0.8980
  173MOL0     H23323   1.600   8.836   3.832 -0.1156 -1.3406  0.4428
  173MOL0     H23324   1.614   9.013   3.814 -1.5556 -0.7722  1.2495
  173MOL0     H23325   1.582   8.802   3.588  3.2025  0.9860 -0.2279
  173MOL0     H23326   1.591   8.984   3.562  0.6984  1.2740  0.5737
  173MOL0     H23327   1.373   8.823   3.605  1.3453 -1.9256  2.8892
  173MOL0     H23328   1.383   8.906   3.759 -1.3921  1.1384 -0.1199
  173MOL0     H23329   1.387   9.056   3.502 -2.7757  0.9715 -0.8395
  173MOL0     H23330   1.376   9.116   3.676 -0.3542  0.8655  0.3629
  173MOL0     H23331   1.174   9.101   3.527  1.6649  0.9923  1.1518
  173MOL0     H23332   1.180   8.931   3.518  0.9450 -0.7850  0.2702
  173MOL0     H23333   1.170   9.096   3.792  1.6086  0.2435 -2.1347
  173MOL0     H23334   1.134   8.923   3.774  0.2201  0.2648  2.0370
  173MOL0     H23335   0.927   8.995   3.780 -1.0208  1.5572  1.1372
  173MOL0     H23336   0.947   9.037   3.608  1.7651 -4.4331  0.9284
  173MOL0     H23337   1.926   8.574   3.545 -0.7076  1.5033  0.5798
  173MOL0     H23338   2.159   8.496   3.543 -1.5771  0.1300  1.4050
  173MOL0     H23339   2.512   8.595   3.415 -0.3798  1.9679 -1.1591
  173MOL0     H23340   2.703   8.514   3.309 -0.5834  1.7875 -1.0573
  173MOL0     H23341   4.722   8.384   3.251 -1.9479  1.1246 -0.8134
  173MOL0     H23342   4.946   8.327   3.159 -0.4373  0.8602  1.5191
  173MOL0     H23343   5.316   8.498   3.002 -0.1172  1.3775 -1.5227
  173MOL0     H23344   5.538   8.455   2.969  2.5330 -1.6241 -1.8337
  173MOL0     H23345   5.720   8.078   2.828 -1.7222  0.2098  0.9132
  173MOL0     H23346   5.683   8.147   2.669 -0.7974 -2.4408  1.2370
  173MOL0     H23347   5.912   8.123   2.692  0.4669 -0.5020  1.1529
  173MOL0     H23348   5.914   8.201   2.850  2.5983 -0.2057 -0.6364
  173MOL0     H23349   6.016   8.328   2.678 -0.4673  0.6880 -1.8029
  173MOL0     H23350   5.871   8.419   2.731 -1.2223 -0.0717 -0.4350
  173MOL0     H23351   5.765   8.400   2.537  1.3794  2.6836 -0.7652
  173MOL0     H23352   5.836   8.242   2.485 -1.8235  1.4445 -0.9325
  173MOL0     H23353   6.124   8.511   2.328 -2.5902  3.0519 -0.0646
  173MOL0     H23354   5.457   8.103   2.735 -0.5852  1.5969 -1.8233
  173MOL0     H23355   5.223   8.119   2.804  0.9783 -0.4995 -0.3928
  174MOL0     O23356   8.906   6.491   1.560 -0.5954 -0.0437 -0.6872
  174MOL0     C23357   8.991   6.582   1.559  0.6271  0.1286  0.1882
  174MOL0     O23358   8.964   6.720   1.562  0.1677 -0.0549 -0.1327
  174MOL0     C23359   8.830   6.750   1.581  0.5836  0.2756 -0.9666
  174MOL0     C23360   8.735   6.753   1.478 -0.0138 -0.8170 -0.1212
  174MOL0     C23361   8.613   6.806   1.498 -0.1999 -0.1208 -0.1152
  174MOL0     C23362   8.572   6.862   1.612  0.8247 -0.1418  0.0292
  174MOL0     O23363   8.447   6.908   1.644 -0.6487  0.3731 -0.1661
  174MOL0     C23364   8.339   6.856   1.572  1.5038  0.1219 -0.9815
  174MOL0     C23365   8.204   6.910   1.630  0.4453  0.2967  0.9241
  174MOL0     C23366   8.088   6.825   1.566  1.0856  0.7307 -0.5854
  174MOL0     C23367   7.952   6.833   1.645  0.0480  0.5623  0.6748
  174MOL0     C23368   7.840   6.739   1.592  0.4760  0.9203 -0.4113
  174MOL0     C23369   7.785   6.779   1.457 -0.1161 -0.1198  0.2247
  174MOL0     C23370   7.643   6.726   1.431 -0.0505  0.1603  0.4714
  174MOL0     C23371   7.626   6.580   1.463  0.3146  0.3724 -0.3702
  174MOL0     N23372   7.498   6.538   1.408  0.1839 -0.1755 -0.3727
  174MOL0     C23373   7.477   6.455   1.297 -0.3532 -0.4237  0.1521
  174MOL0     C23374   7.344   6.477   1.258  0.2133  0.6027 -0.3481
  174MOL0     C23375   7.276   6.407   1.141  0.5791 -0.5408  0.4595
  174MOL0     C23376   7.159   6.317   1.171  0.0702  0.0669 -0.0595
  174MOL0     C23377   7.204   6.199   1.257 -0.8796  0.1645 -0.5172
  174MOL0     C23378   7.086   6.091   1.273  0.2590 -0.1835  0.1566
  174MOL0     O23379   7.123   5.982   1.364 -1.0257  0.0369  0.3064
  174MOL0     C23380   7.025   5.913   1.435  0.2928 -0.0859 -0.0181
  174MOL0     C23381   7.058   5.832   1.545  0.4915 -0.9746  0.7621
  174MOL0     C23382   6.963   5.761   1.623 -0.0791  0.0783  0.5342
  174MOL0     C23383   7.018   5.687   1.744 -0.1955  0.4236 -0.0855
  174MOL0     C23384   6.829   5.774   1.580  0.1529  0.7124  1.0751
  174MOL0     C23385   6.711   5.736   1.663 -0.4508  0.0052  0.0923
  174MOL0     O23386   6.588   5.768   1.610  0.0480 -0.7460 -0.5700
  174MOL0     C23387   6.463   5.724   1.669 -0.0800  0.2325  0.6194
  174MOL0     C23388   6.444   5.615   1.749  0.5370  0.1189  0.5581
  174MOL0     C23389   6.320   5.580   1.798 -0.0935  0.1187 -0.7147
  174MOL0     C23390   6.212   5.658   1.761  0.8829  0.2313 -0.4240
  174MOL0     O23391   6.094   5.598   1.801 -0.5361  0.8146 -0.0451
  174MOL0     C23392   5.981   5.594   1.714  0.6201 -0.6913 -0.2484
  174MOL0     C23393   5.885   5.714   1.736  0.7462  0.9592 -0.2144
  174MOL0     C23394   5.762   5.697   1.642 -0.8515 -0.1753  0.1557
  174MOL0     C23395   5.663   5.822   1.658  0.1646  0.1266 -0.7395
  174MOL0     C23396   5.532   5.793   1.584  0.3674  0.4501 -0.0898
  174MOL0     C23397   5.447   5.930   1.589 -0.0467 -0.0391 -1.0075
  174MOL0     C23398   5.304   5.899   1.604  0.3540  0.3152  0.0902
  174MOL0     C23399   5.230   6.024   1.576 -0.3332 -0.0134  0.9651
  174MOL0    Cl23400   5.252   6.146   1.702 -0.0138  0.1448  0.3937
  174MOL0     C23401   6.231   5.764   1.673  0.0758 -0.1697  0.2575
  174MOL0     C23402   6.352   5.801   1.628 -0.6898  0.1691  0.1660
  174MOL0     O23403   6.728   5.670   1.768  0.4947 -0.2978  0.1360
  174MOL0     C23404   6.795   5.850   1.465 -0.0344  0.3601  0.0906
  174MOL0     C23405   6.898   5.910   1.389 -0.3123  0.1744  0.0746
  174MOL0     N23406   7.285   6.558   1.350 -0.0639  0.3122  0.3357
  174MOL0     N23407   7.376   6.588   1.445  0.0130  0.3675  0.4637
  174MOL0     C23408   8.663   6.860   1.714 -0.3973  0.4047 -0.6328
  174MOL0     C23409   8.790   6.804   1.704 -0.2272 -0.0641  0.4433
  174MOL0     C23410   9.137   6.542   1.582  0.6428  0.1160 -0.5434
  174MOL0     C23411   9.178   6.408   1.612  0.2097 -0.4919  0.5015
  174MOL0     C23412   9.311   6.383   1.649  0.4420  0.4919  0.0514
  174MOL0     C23413   9.399   6.485   1.662  0.6403  0.2989  0.8082
  174MOL0     O23414   9.519   6.458   1.707  0.1244  0.3961 -1.0680
  174MOL0     C23415   9.585   6.554   1.789  0.6001 -0.3625  0.4808
  174MOL0     C23416   9.697   6.513   1.886  0.0269  0.8918  0.6080
  174MOL0     C23417   9.835   6.467   1.819  0.2362 -0.1286  1.3282
  174MOL0     C23418   9.826   6.342   1.722  0.4225 -0.0720  0.5578
  174MOL0     C23419   9.952   6.263   1.718  0.1524 -0.4447  0.7264
  174MOL0     C23420  10.051   6.188   1.700  0.4890 -0.4230  0.6139
  174MOL0     C23421   9.366   6.609   1.629  0.3623 -0.6039  0.6122
  174MOL0     C23422   9.240   6.639   1.581  0.3721 -0.3921  0.1361
  174MOL0     H23423   8.754   6.707   1.382 -2.2723 -0.9580 -0.5686
  174MOL0     H23424   8.540   6.801   1.417  1.1843 -1.0249 -1.3567
  174MOL0     H23425   8.341   6.886   1.467 -1.3700 -0.4296 -1.2853
  174MOL0     H23426   8.347   6.747   1.582 -1.1917  0.0040  1.4513
  174MOL0     H23427   8.212   6.900   1.739  3.1262 -2.9862  0.5621
  174MOL0     H23428   8.188   7.016   1.605  0.5866 -0.5576 -3.6859
  174MOL0     H23429   8.065   6.876   1.471 -2.0502  1.8924  0.6608
  174MOL0     H23430   8.113   6.721   1.545  1.3639  0.7927 -0.5614
  174MOL0     H23431   7.986   6.801   1.744  3.5273  0.3143 -0.4706
  174MOL0     H23432   7.912   6.935   1.650 -2.8228 -0.1909 -2.8479
  174MOL0     H23433   7.861   6.632   1.599  0.2337  0.8832 -0.2397
  174MOL0     H23434   7.760   6.749   1.666  0.6908 -2.9328  0.5647
  174MOL0     H23435   7.765   6.886   1.445 -1.4932 -0.3685  0.0506
  174MOL0     H23436   7.840   6.736   1.373 -3.0394 -2.4157 -0.7038
  174MOL0     H23437   7.564   6.781   1.484 -0.1370 -0.5639  1.1095
  174MOL0     H23438   7.624   6.743   1.325 -2.8078  0.5219  0.9430
  174MOL0     H23439   7.625   6.562   1.571 -0.8439 -3.8331 -0.8948
  174MOL0     H23440   7.714   6.526   1.428  0.1669  0.3012 -0.6366
  174MOL0     H23441   7.556   6.394   1.255 -1.5689 -1.3498 -0.8532
  174MOL0     H23442   7.240   6.488   1.077 -0.7978 -0.6186  1.1067
  174MOL0     H23443   7.349   6.353   1.079 -1.9582 -0.2198 -3.1409
  174MOL0     H23444   7.118   6.281   1.076 -1.4506 -0.7592  0.8760
  174MOL0     H23445   7.084   6.381   1.215  0.6004  1.0159 -0.5031
  174MOL0     H23446   7.212   6.238   1.359  0.3290  1.7912 -1.1676
  174MOL0     H23447   7.298   6.148   1.232 -0.5914 -0.6262  1.8703
  174MOL0     H23448   7.060   6.051   1.174  1.7361  0.9143 -0.7262
  174MOL0     H23449   7.000   6.139   1.320 -1.5307 -1.8205 -1.3069
  174MOL0     H23450   7.159   5.837   1.583  1.1055 -1.3245 -0.7748
  174MOL0     H23451   6.973   5.587   1.750  1.9111 -0.5981 -0.5374
  174MOL0     H23452   7.126   5.674   1.745 -0.3184 -0.7501 -0.7270
  174MOL0     H23453   7.002   5.746   1.835  0.1583 -0.6945  0.7166
  174MOL0     H23454   6.526   5.551   1.782  1.5583  1.6800  1.1543
  174MOL0     H23455   6.314   5.495   1.866  1.2519  0.1878 -0.4938
  174MOL0     H23456   6.017   5.587   1.610 -0.0584  1.1977 -0.6543
  174MOL0     H23457   5.940   5.495   1.735  2.7214 -1.4283  0.7173
  174MOL0     H23458   5.847   5.709   1.838 -2.1241 -0.0658 -1.2499
  174MOL0     H23459   5.942   5.807   1.723  0.8597  0.9376  0.1318
  174MOL0     H23460   5.718   5.603   1.675 -0.9633 -0.8854 -1.8927
  174MOL0     H23461   5.783   5.681   1.536 -2.6419  1.7462 -0.5567
  174MOL0     H23462   5.633   5.825   1.763  2.4260  0.6392 -0.0530
  174MOL0     H23463   5.717   5.915   1.637 -0.1114  0.6269  0.6388
  174MOL0     H23464   5.484   5.713   1.641  2.2841 -1.0752 -0.5178
  174MOL0     H23465   5.548   5.761   1.481  0.0629 -0.7019  0.2076
  174MOL0     H23466   5.478   5.988   1.676  2.1853 -1.8446 -0.5058
  174MOL0     H23467   5.480   5.980   1.497  1.0482  1.3987  0.1200
  174MOL0     H23468   5.269   5.857   1.699 -1.0058 -3.0951 -1.7167
  174MOL0     H23469   5.269   5.822   1.534  0.8726  0.8968 -0.8214
  174MOL0     H23470   5.125   5.994   1.583 -1.1484  2.0971 -0.7786
  174MOL0     H23471   5.233   6.061   1.473 -4.3266  1.4503  1.1749
  174MOL0     H23472   6.151   5.830   1.642 -0.0187 -0.4987 -0.2065
  174MOL0     H23473   6.359   5.885   1.560 -5.6958  2.0874  1.5752
  174MOL0     H23474   6.692   5.859   1.432 -0.2704 -2.2141 -0.0673
  174MOL0     H23475   6.866   5.970   1.305 -0.1486 -0.4435 -0.4419
  174MOL0     H23476   8.630   6.912   1.803  0.7759  0.9450 -0.4926
  174MOL0     H23477   8.861   6.800   1.786  1.9503 -1.1784 -1.3618
  174MOL0     H23478   9.103   6.331   1.600  1.5820 -1.7656 -0.3984
  174MOL0     H23479   9.342   6.283   1.678 -0.2674  0.4749  0.8225
  174MOL0     H23480   9.627   6.638   1.732  3.1059 -0.9037  1.3957
  174MOL0     H23481   9.499   6.591   1.846  0.0220 -1.4134  0.3105
  174MOL0     H23482   9.651   6.430   1.940  1.7524  0.1507  0.9890
  174MOL0     H23483   9.709   6.596   1.957  0.8345  1.2945  0.0132
  174MOL0     H23484   9.903   6.437   1.899  0.2670  1.4799  1.9268
  174MOL0     H23485   9.885   6.549   1.766  0.9673 -2.2965 -1.6220
  174MOL0     H23486   9.812   6.371   1.617  3.2236  1.0555  0.4249
  174MOL0     H23487   9.742   6.280   1.754  0.2214 -0.1899 -0.1599
  174MOL0     H23488  10.138   6.132   1.675  0.1784 -1.3435  1.4713
  174MOL0     H23489   9.441   6.687   1.638  0.1232 -0.0071 -1.8665
  174MOL0     H23490   9.222   6.746   1.575 -0.2864 -0.5737 -2.9231
  175MOL0     O23491   5.383   6.807   0.472 -0.2012 -0.4182  0.5783
  175MOL0     C23492   5.332   6.735   0.556 -0.3737 -0.0071 -0.3165
  175MOL0     O23493   5.195   6.733   0.572  0.0731 -0.0375 -0.6247
  175MOL0     C23494   5.093   6.783   0.494 -0.5985 -0.7033  0.7858
  175MOL0     C23495   4.980   6.840   0.554  1.4422 -0.1010 -0.1351
  175MOL0     C23496   4.884   6.910   0.487 -0.7202 -0.6272  0.1117
  175MOL0     C23497   4.884   6.931   0.358 -0.0686 -0.0220  0.1899
  175MOL0     O23498   4.779   7.001   0.302  0.3301  0.4175 -0.1528
  175MOL0     C23499   4.803   7.064   0.172  0.3187 -0.8383 -1.2749
  175MOL0     C23500   4.689   7.157   0.144 -0.1142 -0.6757  0.0867
  175MOL0     C23501   4.672   7.210  -0.001 -0.2564  0.1689 -0.6065
  175MOL0     C23502   4.807   7.269  -0.049 -0.0471  0.3625 -0.1158
  175MOL0     C23503   4.805   7.350  -0.182 -0.4102  0.1709 -0.9248
  175MOL0     C23504   4.782   7.253  -0.290  0.1502 -0.0926  0.0993
  175MOL0     C23505   4.779   7.308  -0.431  0.4265  0.5586  0.6158
  175MOL0     C23506   4.914   7.347  -0.484 -0.9708 -0.0230 -0.6939
  175MOL0     N23507   4.939   7.393  -0.625 -0.5191  0.3004 -0.5787
  175MOL0     C23508   4.910   7.307  -0.728 -0.8231  0.7212 -0.9127
  175MOL0     C23509   4.973   7.361  -0.832  0.1186 -0.5624 -0.1604
  175MOL0     C23510   4.948   7.334  -0.975 -0.6655 -0.0696  0.7190
  175MOL0     C23511   4.800   7.327  -1.023 -0.4138  0.1368 -0.0305
  175MOL0     C23512   4.728   7.463  -0.992  0.0223  0.8754  0.4339
  175MOL0     C23513   4.587   7.484  -1.034 -0.8201  0.3907 -0.1737
  175MOL0     O23514   4.498   7.382  -0.990  0.3360 -0.0106  0.0081
  175MOL0     C23515   4.493   7.364  -0.852 -0.2139 -0.3707  0.6892
  175MOL0     C23516   4.440   7.240  -0.815  0.3554  0.3781  0.1491
  175MOL0     C23517   4.412   7.207  -0.682 -0.1537 -0.2756 -0.8654
  175MOL0     C23518   4.374   7.065  -0.644 -0.2389  0.3997  0.3943
  175MOL0     C23519   4.430   7.306  -0.583  0.0330 -0.8373 -0.5279
  175MOL0     C23520   4.396   7.287  -0.445 -0.7629 -0.2306 -0.2543
  175MOL0     O23521   4.456   7.362  -0.347 -0.0411 -0.0273  0.0241
  175MOL0     C23522   4.378   7.393  -0.244 -0.1172 -0.4953 -0.1271
  175MOL0     C23523   4.366   7.313  -0.133  1.0774 -0.5097  0.2881
  175MOL0     C23524   4.292   7.357  -0.027  0.1510 -0.3515 -0.2682
  175MOL0     C23525   4.238   7.488  -0.035 -0.2024  0.5416 -0.4164
  175MOL0     O23526   4.157   7.547   0.064  0.3606  0.0235 -0.6606
  175MOL0     C23527   4.090   7.459   0.157 -0.4032 -0.6499  0.4022
  175MOL0     C23528   3.968   7.518   0.218 -0.0141 -0.4280  0.2627
  175MOL0     C23529   3.968   7.669   0.265  0.5027  0.8213  0.0396
  175MOL0     C23530   3.916   7.777   0.169  0.4003  0.4005 -0.5580
  175MOL0     C23531   3.915   7.911   0.243  0.6737 -0.0493  0.3270
  175MOL0     C23532   3.856   8.023   0.162  0.0678  0.0875 -0.2506
  175MOL0     C23533   3.704   8.028   0.174  0.2442 -0.0891 -0.6381
  175MOL0     C23534   3.620   7.961   0.061 -0.0641  0.9001  0.1215
  175MOL0    Cl23535   3.674   7.997  -0.101 -0.0207 -0.0650 -0.1721
  175MOL0     C23536   4.252   7.563  -0.147 -0.1988  0.5904  0.2039
  175MOL0     C23537   4.328   7.517  -0.250  0.7687 -0.3037  0.0120
  175MOL0     O23538   4.304   7.212  -0.424  0.2038  0.1206  0.2885
  175MOL0     C23539   4.486   7.427  -0.621 -0.0750  0.0989  0.0631
  175MOL0     C23540   4.520   7.455  -0.750  0.8545  0.6103  0.4450
  175MOL0     N23541   5.061   7.463  -0.786  0.2461  0.4854 -0.1863
  175MOL0     N23542   5.038   7.472  -0.659  0.7450 -0.5342 -0.3145
  175MOL0     C23543   4.996   6.875   0.288 -0.7745  0.4589 -0.2854
  175MOL0     C23544   5.096   6.792   0.351  0.1065 -0.4910  0.7830
  175MOL0     C23545   5.425   6.660   0.647  0.3521  0.8791 -0.0548
  175MOL0     C23546   5.568   6.643   0.635 -0.0849  0.2880  0.0528
  175MOL0     C23547   5.631   6.549   0.725  0.0731  0.7582 -0.3700
  175MOL0     C23548   5.563   6.474   0.816  0.0116 -0.6064 -0.4877
  175MOL0     O23549   5.619   6.383   0.895  0.1903  0.0903  0.2778
  175MOL0     C23550   5.768   6.374   0.908 -0.5346  0.4201  0.3452
  175MOL0     C23551   5.837   6.492   0.967 -0.4640  0.2133 -0.2528
  175MOL0     C23552   5.797   6.503   1.111  0.9277  0.2264  0.3339
  175MOL0     C23553   5.905   6.564   1.194  0.8593 -0.5781  0.7492
  175MOL0     C23554   6.022   6.479   1.205  0.5474 -0.0592 -0.0090
  175MOL0     C23555   6.124   6.410   1.200 -0.0842 -0.5121 -0.3039
  175MOL0     C23556   5.424   6.493   0.832 -0.4575 -0.3354  0.9722
  175MOL0     C23557   5.357   6.579   0.746  0.1051  0.2027  0.6417
  175MOL0     H23558   4.961   6.821   0.659 -0.8849  2.4002  0.0018
  175MOL0     H23559   4.792   6.944   0.533  0.2677 -1.4947  2.9163
  175MOL0     H23560   4.902   7.110   0.170  1.1226 -2.4525 -0.8265
  175MOL0     H23561   4.794   6.989   0.093  0.9093  0.4417 -2.5895
  175MOL0     H23562   4.597   7.113   0.184  0.9399 -1.1839  2.1020
  175MOL0     H23563   4.693   7.248   0.204 -2.6130  0.0998 -0.8071
  175MOL0     H23564   4.649   7.127  -0.068 -2.1906  2.2229 -2.6769
  175MOL0     H23565   4.595   7.286  -0.017  1.2609  1.5156 -1.8964
  175MOL0     H23566   4.845   7.336   0.028  0.4779  0.4769 -0.4708
  175MOL0     H23567   4.880   7.187  -0.053 -0.9600 -0.4289 -2.0000
  175MOL0     H23568   4.733   7.431  -0.190 -0.8196 -0.2645 -1.8605
  175MOL0     H23569   4.905   7.391  -0.194 -1.4591  3.4402  0.5774
  175MOL0     H23570   4.851   7.168  -0.287  0.1615 -0.0805  0.1952
  175MOL0     H23571   4.677   7.226  -0.271  0.3615 -0.5495  0.6364
  175MOL0     H23572   4.739   7.234  -0.501 -0.7552  2.1215 -0.4587
  175MOL0     H23573   4.708   7.390  -0.445 -0.2083 -0.3396 -2.1895
  175MOL0     H23574   4.980   7.263  -0.460 -1.9720  0.0525  2.8143
  175MOL0     H23575   4.942   7.435  -0.426  3.1891 -0.8942 -1.0670
  175MOL0     H23576   4.830   7.235  -0.714 -1.5891  1.6147 -0.5619
  175MOL0     H23577   4.994   7.415  -1.033 -0.1963  0.6983  2.1172
  175MOL0     H23578   4.998   7.241  -1.002  1.4760  1.3243 -0.3777
  175MOL0     H23579   4.747   7.247  -0.970 -0.9163 -0.0348 -0.7775
  175MOL0     H23580   4.791   7.309  -1.130  1.9228 -0.5015 -0.1864
  175MOL0     H23581   4.784   7.543  -1.041 -1.9177  1.1942 -1.4526
  175MOL0     H23582   4.726   7.476  -0.884 -1.6502  1.6736  0.3389
  175MOL0     H23583   4.577   7.491  -1.143 -3.0023  0.7232  0.0112
  175MOL0     H23584   4.552   7.584  -1.004 -3.3715  0.1012 -1.8860
  175MOL0     H23585   4.423   7.162  -0.888 -0.1895  1.5456 -1.0025
  175MOL0     H23586   4.379   6.993  -0.727  0.6872  2.8188 -1.7627
  175MOL0     H23587   4.452   7.024  -0.579 -0.2606 -0.9774 -0.3882
  175MOL0     H23588   4.274   7.059  -0.600  0.1153 -2.8098  1.0196
  175MOL0     H23589   4.389   7.207  -0.142 -0.4216 -0.8613  0.2643
  175MOL0     H23590   4.283   7.290   0.058  0.4389  1.2567  1.0771
  175MOL0     H23591   4.069   7.362   0.111 -2.1447 -0.4743  0.7563
  175MOL0     H23592   4.166   7.443   0.234  1.7264 -1.1156 -1.6638
  175MOL0     H23593   3.883   7.502   0.151  0.2672  0.1529 -0.2396
  175MOL0     H23594   3.934   7.456   0.302 -2.4952 -0.8034 -0.9209
  175MOL0     H23595   4.064   7.695   0.309  0.6670 -2.5198  1.9997
  175MOL0     H23596   3.894   7.677   0.346 -1.5905 -1.3177 -1.5471
  175MOL0     H23597   3.987   7.787   0.086  0.4451  2.1296 -0.3500
  175MOL0     H23598   3.818   7.755   0.124  0.1767  0.4762 -0.1116
  175MOL0     H23599   4.022   7.927   0.261  0.4515  0.9736  0.7881
  175MOL0     H23600   3.882   7.901   0.347 -0.6508  0.8954  0.0184
  175MOL0     H23601   3.897   8.118   0.196  0.7485 -0.5765  0.8558
  175MOL0     H23602   3.881   8.004   0.057 -0.8557  0.9345 -0.6399
  175MOL0     H23603   3.672   8.133   0.170  1.2777  0.4102  2.1547
  175MOL0     H23604   3.672   7.982   0.268  0.7886 -1.4220 -1.0792
  175MOL0     H23605   3.516   7.991   0.078  0.1521  2.0217 -0.5074
  175MOL0     H23606   3.628   7.852   0.076  0.5789  0.6882 -1.5719
  175MOL0     H23607   4.200   7.659  -0.142 -0.6397  0.4192 -0.6938
  175MOL0     H23608   4.353   7.589  -0.328 -0.8910  4.6411  3.5513
  175MOL0     H23609   4.495   7.505  -0.546 -1.5655 -2.0380  2.6583
  175MOL0     H23610   4.562   7.552  -0.774 -1.2482  1.1831 -1.1963
  175MOL0     H23611   5.000   6.886   0.181  0.2602 -1.6288 -0.5034
  175MOL0     H23612   5.173   6.742   0.293  1.1548  0.3814  1.3744
  175MOL0     H23613   5.627   6.691   0.557  1.0668  0.0683  0.7551
  175MOL0     H23614   5.733   6.518   0.705  0.5953  1.6741  0.7588
  175MOL0     H23615   5.803   6.289   0.967 -2.5756 -0.9705 -0.3227
  175MOL0     H23616   5.816   6.366   0.810 -1.8024  1.0583 -0.3570
  175MOL0     H23617   5.819   6.583   0.908  0.3323  0.3720 -0.2581
  175MOL0     H23618   5.944   6.477   0.955 -0.2185  2.0555 -0.7642
  175MOL0     H23619   5.761   6.410   1.156 -1.6820  0.7697 -0.4580
  175MOL0     H23620   5.705   6.562   1.107  0.9363  0.3339  1.3629
  175MOL0     H23621   5.880   6.592   1.297  2.7945  0.8482  0.8906
  175MOL0     H23622   5.938   6.653   1.139  3.6052 -2.3762 -0.7629
  175MOL0     H23623   6.219   6.360   1.201 -2.2529 -5.1482 -0.7450
  175MOL0     H23624   5.382   6.448   0.921  0.9798 -3.3506  0.2745
  175MOL0     H23625   5.251   6.595   0.762 -0.2728  1.6735 -2.6023
  176MOL0     O23626   5.196  10.635   2.850  0.0597  0.5204  0.2965
  176MOL0     C23627   5.218  10.621   2.965  0.3974 -0.0942  0.5299
  176MOL0     O23628   5.117  10.611   3.063 -0.1178  0.3081 -0.2862
  176MOL0     C23629   4.983  10.608   3.025 -0.0474 -0.3017  0.0700
  176MOL0     C23630   4.899  10.519   3.099 -0.1385  0.2309  0.9592
  176MOL0     C23631   4.774  10.490   3.060  0.0857 -0.4737 -0.5812
  176MOL0     C23632   4.724  10.552   2.939 -0.0356  0.6788 -0.1045
  176MOL0     O23633   4.598  10.532   2.890 -0.5202  0.6243  0.1798
  176MOL0     C23634   4.484  10.531   2.979  0.1043 -0.2768 -0.7756
  176MOL0     C23635   4.363  10.501   2.888 -0.4271  0.1643  0.6746
  176MOL0     C23636   4.228  10.488   2.967 -0.6599 -0.2912  0.6157
  176MOL0     C23637   4.120  10.403   2.898  0.3269 -0.7700 -0.1155
  176MOL0     C23638   3.982  10.402   2.969 -0.4964 -0.7393 -0.0774
  176MOL0     C23639   3.886  10.312   2.887  1.0473  0.6920 -0.1197
  176MOL0     C23640   3.755  10.318   2.963 -0.3706  0.5320 -0.0371
  176MOL0     C23641   3.653  10.226   2.896  0.2547  0.4506 -0.4946
  176MOL0     N23642   3.526  10.242   2.967  0.4590  0.3504  0.1328
  176MOL0     C23643   3.491  10.180   3.084  0.5280  0.5160  0.1094
  176MOL0     C23644   3.380  10.248   3.119  0.1066 -0.0554  0.8341
  176MOL0     C23645   3.330  10.225   3.259  0.2136  0.8396  0.7363
  176MOL0     C23646   3.233  10.330   3.307 -0.9845 -0.5411 -0.6702
  176MOL0     C23647   3.099  10.317   3.246 -0.2385 -0.3243  0.3918
  176MOL0     C23648   3.002  10.417   3.301 -0.2620  0.5520 -1.0886
  176MOL0     O23649   2.947  10.376   3.424  0.7324 -0.4327 -0.3721
  176MOL0     C23650   2.822  10.425   3.455 -0.7719 -0.3101  0.3304
  176MOL0     C23651   2.737  10.326   3.505  0.1313 -0.7741  0.7451
  176MOL0     C23652   2.621  10.367   3.560  0.6781 -0.0551 -0.1897
  176MOL0     C23653   2.535  10.255   3.613  0.3236  0.5436  0.7750
  176MOL0     C23654   2.577  10.505   3.563 -1.0818 -0.1838 -0.2504
  176MOL0     C23655   2.452  10.554   3.621 -0.0943 -0.0835  0.3247
  176MOL0     O23656   2.361  10.462   3.673 -0.1072  1.1945  0.2685
  176MOL0     C23657   2.251  10.510   3.729  0.2014  0.3361 -0.4196
  176MOL0     C23658   2.122  10.501   3.670  0.1683  0.7983 -0.5263
  176MOL0     C23659   2.014  10.562   3.732  0.1184  0.3428 -0.2711
  176MOL0     C23660   2.025  10.610   3.864  0.7188  0.1523 -0.8225
  176MOL0     O23661   1.921  10.657   3.939  0.2739 -0.0279  0.2508
  176MOL0     C23662   1.792  10.604   3.935  0.3164  0.0793 -0.6439
  176MOL0     C23663   1.680  10.701   3.980 -0.0464  0.4729  0.2095
  176MOL0     C23664   1.545  10.633   4.020 -0.3991 -0.7046  0.4580
  176MOL0     C23665   1.454  10.736   4.093  0.5715  0.4876  0.0527
  176MOL0     C23666   1.314  10.675   4.115 -0.3266 -0.2342 -0.4085
  176MOL0     C23667   1.218  10.793   4.154  0.7451  0.2486  1.0131
  176MOL0     C23668   1.078  10.740   4.201 -0.7519 -0.5036 -0.1369
  176MOL0     C23669   0.995  10.855   4.258 -0.4091 -0.0928  0.6901
  176MOL0    Cl23670   0.998  11.000   4.150  0.0201 -0.2582 -0.0689
  176MOL0     C23671   2.149  10.607   3.925 -0.8387 -0.5899 -0.0664
  176MOL0     C23672   2.259  10.557   3.859  0.1918  0.3148 -0.1151
  176MOL0     O23673   2.431  10.674   3.598 -1.2995 -0.1540  0.2682
  176MOL0     C23674   2.676  10.601   3.504 -0.4608 -0.2587 -0.9193
  176MOL0     C23675   2.798  10.562   3.459  0.5293  0.0320  0.4506
  176MOL0     N23676   3.342  10.333   3.018 -0.4004  1.0133 -0.1813
  176MOL0     N23677   3.426  10.331   2.926  0.0456  0.7828  0.0937
  176MOL0     C23678   4.797  10.655   2.878 -0.7172 -0.6640 -0.9120
  176MOL0     C23679   4.927  10.684   2.923 -0.2875 -0.3537  0.2747
  176MOL0     C23680   5.362  10.617   2.998  0.0848  0.1038  0.0410
  176MOL0     C23681   5.398  10.625   3.132  0.5922 -0.9070  0.8130
  176MOL0     C23682   5.525  10.619   3.183  0.7455  0.4597  0.0329
  176MOL0     C23683   5.625  10.587   3.084 -0.4174 -0.4120 -0.7081
  176MOL0     O23684   5.758  10.557   3.128  0.7131 -0.0488  0.6491
  176MOL0     C23685   5.781  10.533   3.273 -0.0241  0.6386  1.1051
  176MOL0     C23686   5.930  10.496   3.296  0.2843  0.1368 -0.6817
  176MOL0     C23687   6.028  10.614   3.293 -0.0036  0.4641  0.0235
  176MOL0     C23688   6.164  10.598   3.365  0.1879  0.4889 -0.5343
  176MOL0     C23689   6.220  10.461   3.331  0.9113  0.3997 -0.1434
  176MOL0     C23690   6.255  10.349   3.295 -0.2346  0.0468 -0.3053
  176MOL0     C23691   5.596  10.588   2.952 -0.4020  0.5437  0.5967
  176MOL0     C23692   5.463  10.605   2.902 -0.6123 -0.4446  0.0387
  176MOL0     H23693   4.933  10.477   3.193 -0.9290  1.7094  1.9472
  176MOL0     H23694   4.724  10.420   3.126  3.7548  1.2133  4.6224
  176MOL0     H23695   4.486  10.453   3.055  2.1749 -0.8721 -1.3563
  176MOL0     H23696   4.471  10.628   3.027  2.8494 -0.5673  0.7495
  176MOL0     H23697   4.353  10.583   2.816  1.3081  1.8959  2.2937
  176MOL0     H23698   4.381  10.412   2.827 -1.9049 -0.4685  1.1096
  176MOL0     H23699   4.256  10.441   3.061 -0.4285 -0.5329  0.4254
  176MOL0     H23700   4.179  10.585   2.982 -0.2914 -0.2987  1.9265
  176MOL0     H23701   4.122  10.443   2.796  0.8257  3.8010  1.4578
  176MOL0     H23702   4.159  10.301   2.895 -0.0140 -0.9081  0.0336
  176MOL0     H23703   3.996  10.368   3.072  0.1385  1.0728  0.4726
  176MOL0     H23704   3.945  10.503   2.990  0.4014 -0.1751 -1.0837
  176MOL0     H23705   3.875  10.346   2.783  1.7287  0.0272 -0.4183
  176MOL0     H23706   3.919  10.208   2.881 -0.7109  0.1134 -0.3939
  176MOL0     H23707   3.761  10.286   3.067  0.0699  0.8887  0.0522
  176MOL0     H23708   3.718  10.421   2.960  0.0749  0.6754 -1.3978
  176MOL0     H23709   3.683  10.121   2.897 -1.0602  0.0108  2.4653
  176MOL0     H23710   3.631  10.256   2.793 -4.7803  0.3758  0.3181
  176MOL0     H23711   3.554  10.107   3.133  1.3078  0.2913 -1.1754
  176MOL0     H23712   3.278  10.128   3.259 -1.2298  1.5760  0.2688
  176MOL0     H23713   3.417  10.216   3.324 -0.1416 -1.4433  0.9786
  176MOL0     H23714   3.274  10.430   3.291  2.5331 -1.3954  1.7303
  176MOL0     H23715   3.225  10.319   3.416  0.0056 -3.2634 -0.8028
  176MOL0     H23716   3.067  10.213   3.260 -2.0264  0.3243  1.3449
  176MOL0     H23717   3.108  10.334   3.138 -2.2366 -0.4504  0.1723
  176MOL0     H23718   2.932  10.422   3.217 -0.7419 -2.1423 -0.9422
  176MOL0     H23719   3.045  10.518   3.302  0.3797  0.2954  0.9462
  176MOL0     H23720   2.773  10.224   3.512  0.2183 -0.9289 -1.3327
  176MOL0     H23721   2.597  10.167   3.631 -1.7379 -1.0403  0.5213
  176MOL0     H23722   2.494  10.268   3.714  1.5953 -0.7787  1.5100
  176MOL0     H23723   2.461  10.229   3.537 -0.0742 -0.1298  1.3777
  176MOL0     H23724   2.112  10.460   3.570  0.9036  1.7459 -1.0046
  176MOL0     H23725   1.919  10.579   3.682  0.3578  1.7068 -0.3009
  176MOL0     H23726   1.767  10.574   3.833  0.2117  2.0007 -1.2218
  176MOL0     H23727   1.779  10.521   4.006  0.2047  0.3805 -0.3112
  176MOL0     H23728   1.725  10.764   4.058 -1.5481  0.7098  0.9342
  176MOL0     H23729   1.665  10.773   3.899 -1.9076 -0.7566 -0.6161
  176MOL0     H23730   1.572  10.562   4.099 -0.0148 -0.7241  0.3150
  176MOL0     H23731   1.494  10.584   3.936  1.0475 -2.2952  0.4360
  176MOL0     H23732   1.498  10.771   4.186 -0.6973 -2.8741  2.1128
  176MOL0     H23733   1.449  10.814   4.016 -0.6481 -0.0866 -0.4774
  176MOL0     H23734   1.321  10.594   4.188  0.0002 -1.6506 -1.9391
  176MOL0     H23735   1.268  10.634   4.024 -1.4636  0.9993 -0.4189
  176MOL0     H23736   1.265  10.844   4.239  0.0249 -0.7202  2.0075
  176MOL0     H23737   1.204  10.865   4.072  2.2394 -2.1058 -1.4479
  176MOL0     H23738   1.099  10.657   4.270  3.7010 -0.0702 -0.6774
  176MOL0     H23739   1.029  10.703   4.111  4.1867 -0.8447 -3.0448
  176MOL0     H23740   1.041  10.877   4.354 -3.1011 -1.1777  2.3466
  176MOL0     H23741   0.894  10.818   4.277  0.1819 -1.7967  0.7279
  176MOL0     H23742   2.175  10.640   4.025 -0.5469 -0.6251 -0.1299
  176MOL0     H23743   2.349  10.563   3.920  0.4492 -0.4645 -0.3960
  176MOL0     H23744   2.655  10.707   3.506  1.2899  0.1552 -2.5006
  176MOL0     H23745   2.874  10.628   3.418  1.9678 -0.7913  1.6767
  176MOL0     H23746   4.754  10.707   2.793 -0.2778 -1.0457 -1.3724
  176MOL0     H23747   4.982  10.762   2.873 -0.7288  0.9875  1.8067
  176MOL0     H23748   5.322  10.644   3.207 -0.7771 -0.8307 -0.5395
  176MOL0     H23749   5.549  10.611   3.288  3.7272 -1.5363 -0.6603
  176MOL0     H23750   5.761  10.626   3.328  0.5188  1.7905 -0.5703
  176MOL0     H23751   5.719  10.450   3.309  2.0035 -2.3171 -1.6503
  176MOL0     H23752   5.965  10.414   3.233 -0.4742  0.5579 -1.6752
  176MOL0     H23753   5.920  10.461   3.399 -0.5882  0.0016 -0.8050
  176MOL0     H23754   5.975  10.697   3.340 -2.4190 -0.4495 -0.9457
  176MOL0     H23755   6.041  10.637   3.186  0.8955 -3.6005 -0.9349
  176MOL0     H23756   6.145  10.610   3.472  2.1683 -1.4480  0.1047
  176MOL0     H23757   6.223  10.684   3.333  0.2140  1.0025  0.8398
  176MOL0     H23758   6.297  10.253   3.277 -0.3147 -0.1701  0.5957
  176MOL0     H23759   5.683  10.569   2.889  1.1850 -0.0897  2.8377
  176MOL0     H23760   5.448  10.600   2.795 -1.2622 -2.7022  0.1990
  177MOL0     O23761   5.531   0.622   3.124 -0.1945 -0.3996 -0.1349
  177MOL0     C23762   5.582   0.575   3.223 -0.0537  0.2478  0.5740
  177MOL0     O23763   5.528   0.546   3.346 -0.0054 -0.2057  0.8050
  177MOL0     C23764   5.391   0.564   3.352  0.3729 -0.5117  0.4059
  177MOL0     C23765   5.316   0.681   3.320  0.0029  0.0164  0.3241
  177MOL0     C23766   5.181   0.688   3.357  0.3112 -0.4375  0.2631
  177MOL0     C23767   5.112   0.591   3.414 -0.3299  0.7793  0.0975
  177MOL0     O23768   4.977   0.608   3.424 -0.2978 -0.1807 -0.0409
  177MOL0     C23769   4.900   0.504   3.478 -0.0648  0.6107  0.7091
  177MOL0     C23770   4.756   0.551   3.525  0.1578  0.9915  0.0150
  177MOL0     C23771   4.687   0.421   3.586 -0.3105 -0.3140  0.4431
  177MOL0     C23772   4.575   0.464   3.672  0.1757 -0.4846  0.3257
  177MOL0     C23773   4.482   0.562   3.612  0.2280 -0.4576 -0.5543
  177MOL0     C23774   4.359   0.576   3.710 -0.3853 -0.3750  0.8103
  177MOL0     C23775   4.265   0.684   3.670  0.2979  0.1019  0.8332
  177MOL0     C23776   4.196   0.665   3.528 -0.0775  0.4961 -0.8575
  177MOL0     N23777   4.073   0.740   3.521  0.3077 -0.0959  0.0438
  177MOL0     C23778   4.052   0.856   3.451 -0.4538 -0.2849 -0.2010
  177MOL0     C23779   3.919   0.878   3.462 -0.7037  0.1393  0.3984
  177MOL0     C23780   3.835   0.972   3.375 -1.2441 -0.3673  0.6874
  177MOL0     C23781   3.717   0.899   3.307 -0.1034  0.1930 -0.4757
  177MOL0     C23782   3.593   0.929   3.393  0.4283 -0.6868  0.0519
  177MOL0     C23783   3.492   0.818   3.367 -0.0375 -0.2404 -0.1919
  177MOL0     O23784   3.373   0.862   3.431  0.1759 -0.3075 -0.3273
  177MOL0     C23785   3.249   0.796   3.405  0.0888  0.7672  0.6060
  177MOL0     C23786   3.136   0.855   3.452 -0.7522 -0.0786  0.1922
  177MOL0     C23787   3.010   0.797   3.432 -0.6408 -0.0489  0.0148
  177MOL0     C23788   2.898   0.885   3.478  0.0241  0.6076 -0.3188
  177MOL0     C23789   2.999   0.679   3.355  0.0089  0.1584 -0.0445
  177MOL0     C23790   2.859   0.618   3.325 -0.0542 -0.0245 -0.2461
  177MOL0     O23791   2.762   0.648   3.418 -0.3265  0.0998 -0.6767
  177MOL0     C23792   2.636   0.588   3.416  0.0965  0.2679  0.3692
  177MOL0     C23793   2.616   0.454   3.425  0.5519 -0.4606 -0.5698
  177MOL0     C23794   2.481   0.403   3.422 -1.4132  0.2309 -0.0360
  177MOL0     C23795   2.369   0.486   3.416  0.2066 -0.2815 -0.1102
  177MOL0     O23796   2.246   0.434   3.415 -0.0357  0.2068 -0.5791
  177MOL0     C23797   2.127   0.516   3.424  0.6975 -0.2854 -0.4667
  177MOL0     C23798   2.006   0.423   3.448 -0.9640  0.2862 -0.4330
  177MOL0     C23799   1.880   0.490   3.392 -0.7787 -0.4729 -0.3122
  177MOL0     C23800   1.756   0.404   3.407 -1.0763  0.1444 -0.0168
  177MOL0     C23801   1.642   0.488   3.355 -0.5007  0.3258  0.8432
  177MOL0     C23802   1.506   0.425   3.373 -0.6141 -0.2153  0.2017
  177MOL0     C23803   1.391   0.513   3.312  0.1518  0.7383  0.2405
  177MOL0     C23804   1.265   0.446   3.346  0.5756 -0.2478 -0.0877
  177MOL0    Cl23805   1.226   0.466   3.515  0.0641 -0.3923 -0.0948
  177MOL0     C23806   2.396   0.627   3.413 -0.4792 -0.2910 -0.3898
  177MOL0     C23807   2.527   0.671   3.412 -0.3570  0.2069 -0.9460
  177MOL0     O23808   2.841   0.561   3.220  0.5454  0.0005 -1.1395
  177MOL0     C23809   3.113   0.611   3.316  0.4126 -0.5075 -0.7574
  177MOL0     C23810   3.237   0.674   3.340  0.5034 -0.2590  0.7328
  177MOL0     N23811   3.869   0.793   3.561  0.7257  0.1116 -0.2315
  177MOL0     N23812   3.963   0.706   3.586 -0.4710 -0.1763  0.1621
  177MOL0     C23813   5.186   0.479   3.452 -0.4078  1.0121  0.5078
  177MOL0     C23814   5.322   0.469   3.425  0.1603 -0.1925 -0.3629
  177MOL0     C23815   5.725   0.535   3.202  0.1962  1.1576 -0.1097
  177MOL0     C23816   5.780   0.529   3.074 -0.4753 -0.3418  0.3433
  177MOL0     C23817   5.908   0.482   3.044 -0.3770  0.3989  0.0717
  177MOL0     C23818   5.990   0.432   3.143 -0.7128 -0.6383 -0.3505
  177MOL0     O23819   6.115   0.379   3.121  0.3145 -0.1577  0.4747
  177MOL0     C23820   6.168   0.357   2.992 -0.5706 -0.0303  0.1350
  177MOL0     C23821   6.306   0.276   3.004  0.2075 -0.6097  0.6983
  177MOL0     C23822   6.299   0.146   3.085  0.8107 -0.0323 -0.2789
  177MOL0     C23823   6.418   0.061   3.085  0.4528  0.8555  0.1485
  177MOL0     C23824   6.398  -0.062   3.160  0.9758 -0.1635 -0.4166
  177MOL0     C23825   6.384  -0.174   3.206 -0.1788  0.8565  0.3134
  177MOL0     C23826   5.940   0.442   3.278 -0.6364  0.4054 -0.0964
  177MOL0     C23827   5.809   0.490   3.303  0.6048 -0.5157  0.4341
  177MOL0     H23828   5.363   0.767   3.273 -1.3912 -0.0734 -1.3591
  177MOL0     H23829   5.132   0.782   3.334 -1.9380 -1.6472 -0.2474
  177MOL0     H23830   4.885   0.432   3.396 -0.1428  0.4112  0.8991
  177MOL0     H23831   4.952   0.460   3.563  0.4009 -1.1984 -0.4556
  177MOL0     H23832   4.766   0.635   3.594  1.3220 -0.5187  1.8031
  177MOL0     H23833   4.700   0.575   3.434 -0.9529 -0.1533  0.3670
  177MOL0     H23834   4.654   0.360   3.501  0.1930  2.9195 -2.2756
  177MOL0     H23835   4.748   0.366   3.658 -1.3262  2.2788  3.5522
  177MOL0     H23836   4.524   0.371   3.698  1.7402 -1.1328  1.2315
  177MOL0     H23837   4.616   0.498   3.768  0.8279 -1.0893  0.2690
  177MOL0     H23838   4.529   0.659   3.592  0.9033 -0.7418 -0.3691
  177MOL0     H23839   4.448   0.522   3.515 -0.5587 -0.8104 -0.1429
  177MOL0     H23840   4.299   0.484   3.715  0.7167 -1.3252 -1.6907
  177MOL0     H23841   4.399   0.592   3.810  1.5374 -1.5151  0.2722
  177MOL0     H23842   4.190   0.682   3.750  1.1021 -1.5203  1.5881
  177MOL0     H23843   4.312   0.783   3.667 -0.1471  0.3839  2.1475
  177MOL0     H23844   4.190   0.558   3.506  2.6503 -0.5544  2.5584
  177MOL0     H23845   4.262   0.698   3.448 -0.6388 -2.5519 -2.7250
  177MOL0     H23846   4.129   0.903   3.391  0.5345  1.7740  2.4934
  177MOL0     H23847   3.802   1.054   3.440 -3.0700 -0.0770 -0.5381
  177MOL0     H23848   3.904   1.024   3.308  1.1467 -2.0140  1.7325
  177MOL0     H23849   3.737   0.792   3.318 -1.3253 -0.1923 -1.7548
  177MOL0     H23850   3.713   0.931   3.203  0.3444 -0.9023 -0.8421
  177MOL0     H23851   3.549   1.024   3.360  3.0498  1.1185  1.3019
  177MOL0     H23852   3.604   0.941   3.501  0.7458  1.1909 -0.1375
  177MOL0     H23853   3.518   0.722   3.413  2.3313 -0.5763 -2.0468
  177MOL0     H23854   3.479   0.801   3.260  1.6410 -2.7807 -0.0904
  177MOL0     H23855   3.144   0.946   3.511 -0.9707 -0.1833  0.3861
  177MOL0     H23856   2.819   0.894   3.402 -0.4307  0.0729  0.0900
  177MOL0     H23857   2.846   0.848   3.566 -2.4707  1.4013 -1.3417
  177MOL0     H23858   2.933   0.988   3.489 -0.9948  0.9524 -0.1578
  177MOL0     H23859   2.708   0.396   3.431  0.0966 -1.0751  1.4783
  177MOL0     H23860   2.463   0.296   3.424 -0.2450 -0.1433 -3.6770
  177MOL0     H23861   2.144   0.579   3.512  1.7470 -0.8930 -0.2106
  177MOL0     H23862   2.116   0.576   3.333 -0.6031  0.8015  0.3602
  177MOL0     H23863   2.015   0.331   3.390  0.3697  0.6419 -0.8284
  177MOL0     H23864   2.000   0.383   3.550  0.9610 -3.5966 -1.6546
  177MOL0     H23865   1.888   0.518   3.287 -1.2021  1.0599  0.0360
  177MOL0     H23866   1.864   0.579   3.453  4.1552  0.1860  0.4780
  177MOL0     H23867   1.785   0.319   3.344  2.8265  0.2644  1.3801
  177MOL0     H23868   1.738   0.375   3.511 -1.2422  3.8055  1.1050
  177MOL0     H23869   1.656   0.522   3.252  1.4248 -1.5494  0.4129
  177MOL0     H23870   1.630   0.580   3.412 -0.8135  0.9204 -0.1710
  177MOL0     H23871   1.515   0.326   3.327  2.5639  0.5557 -1.0923
  177MOL0     H23872   1.476   0.407   3.476 -0.8030  3.0796  0.8363
  177MOL0     H23873   1.391   0.498   3.203  1.1362 -1.0672  0.4451
  177MOL0     H23874   1.407   0.619   3.332  0.9970  0.4867  0.9802
  177MOL0     H23875   1.270   0.340   3.319  1.8965 -1.4903  4.1527
  177MOL0     H23876   1.184   0.501   3.298  0.2654  1.0905  1.8299
  177MOL0     H23877   2.318   0.702   3.418  0.6149  0.8533 -0.0150
  177MOL0     H23878   2.536   0.778   3.430 -2.7463  0.1122  1.6210
  177MOL0     H23879   3.093   0.528   3.250  0.4364 -0.8858 -0.2905
  177MOL0     H23880   3.323   0.619   3.302  1.1078 -0.1698  1.9185
  177MOL0     H23881   5.147   0.396   3.509 -2.9797  0.4782 -1.7857
  177MOL0     H23882   5.361   0.372   3.456 -2.3641 -1.2597 -0.2113
  177MOL0     H23883   5.713   0.560   2.995 -0.6988 -0.8730  0.3195
  177MOL0     H23884   5.934   0.478   2.939 -1.4278 -1.8948 -0.1683
  177MOL0     H23885   6.099   0.286   2.945 -3.2719  0.8390  2.5179
  177MOL0     H23886   6.166   0.456   2.944  0.0586  0.3335  0.8534
  177MOL0     H23887   6.383   0.340   3.047  0.2894 -0.0521 -0.2516
  177MOL0     H23888   6.334   0.249   2.901 -2.2648  0.0717 -0.2250
  177MOL0     H23889   6.218   0.081   3.051  1.4637 -1.5615  0.9600
  177MOL0     H23890   6.273   0.180   3.186  1.6154  1.1242 -0.4427
  177MOL0     H23891   6.507   0.112   3.123  1.6359 -1.2213  0.3422
  177MOL0     H23892   6.449   0.035   2.983  0.4075 -0.8853  0.5500
  177MOL0     H23893   6.373  -0.269   3.254  1.6574  0.7399  0.5741
  177MOL0     H23894   6.002   0.406   3.359  1.7423 -3.3055 -3.2402
  177MOL0     H23895   5.772   0.494   3.405 -2.3175 -0.2011 -0.5548
  178MOL0     O23896   6.889   3.694   2.844 -0.3449  0.7571  0.4440
  178MOL0     C23897   6.880   3.808   2.798 -0.1432 -0.9101 -0.7536
  178MOL0     O23898   6.764   3.863   2.741  0.6656 -0.2949  0.4568
  178MOL0     C23899   6.649   3.798   2.720  0.3948  0.1062  0.1758
  178MOL0     C23900   6.614   3.671   2.766 -0.2453  1.0548  0.9835
  178MOL0     C23901   6.497   3.614   2.735  0.6359 -0.0191 -0.0887
  178MOL0     C23902   6.405   3.691   2.657  0.0661 -0.5563  0.1410
  178MOL0     O23903   6.283   3.624   2.634  0.0346  0.0263 -0.5401
  178MOL0     C23904   6.244   3.624   2.493  0.8118 -1.3822 -0.0905
  178MOL0     C23905   6.117   3.711   2.458 -0.7372  0.5690 -0.5675
  178MOL0     C23906   6.002   3.699   2.562  0.0381 -0.5983  0.5672
  178MOL0     C23907   5.893   3.796   2.506 -0.0291  0.4224  0.8922
  178MOL0     C23908   5.765   3.784   2.587 -0.2888 -0.6846  0.0563
  178MOL0     C23909   5.653   3.879   2.533 -0.0550 -0.7968  0.3353
  178MOL0     C23910   5.590   3.823   2.408 -0.0583  0.4928  0.3771
  178MOL0     C23911   5.475   3.921   2.370 -1.0852  0.2116  0.3206
  178MOL0     N23912   5.360   3.909   2.462 -0.7385  0.4084  0.6407
  178MOL0     C23913   5.252   3.823   2.450 -0.2187  0.1954  0.7120
  178MOL0     C23914   5.162   3.866   2.544 -0.4124  0.5479  0.1912
  178MOL0     C23915   5.023   3.816   2.559 -0.4822 -0.0006 -1.3180
  178MOL0     C23916   4.930   3.828   2.434 -0.5551  0.3220  0.1267
  178MOL0     C23917   4.889   3.978   2.425  0.3859  0.2519  1.2955
  178MOL0     C23918   4.814   3.990   2.291 -0.1842  0.6956 -0.4523
  178MOL0     O23919   4.746   4.113   2.283 -0.5571  0.8047 -0.2740
  178MOL0     C23920   4.613   4.132   2.319 -0.1824 -0.1770  0.7899
  178MOL0     C23921   4.560   4.248   2.275  0.5130 -0.3242  0.0098
  178MOL0     C23922   4.421   4.283   2.306 -0.0607 -0.7462 -0.1055
  178MOL0     C23923   4.372   4.425   2.273  0.0698  0.0556  0.2819
  178MOL0     C23924   4.335   4.197   2.385  0.8839  0.4629 -0.0497
  178MOL0     C23925   4.187   4.227   2.416 -0.0993 -1.2708 -0.4628
  178MOL0     O23926   4.138   4.355   2.404  0.2258 -0.0965  0.3163
  178MOL0     C23927   4.027   4.406   2.476 -0.6261 -0.7137  0.0727
  178MOL0     C23928   4.041   4.547   2.501 -0.4880 -0.4888 -0.0994
  178MOL0     C23929   3.933   4.621   2.547  0.6842 -0.9736 -0.2808
  178MOL0     C23930   3.809   4.563   2.569 -0.7157  1.0011 -0.4032
  178MOL0     O23931   3.690   4.628   2.602  0.1264 -0.1862 -0.3476
  178MOL0     C23932   3.693   4.774   2.635 -0.4586  0.8690  0.9446
  178MOL0     C23933   3.546   4.821   2.629  0.1392 -0.9567 -0.0179
  178MOL0     C23934   3.460   4.751   2.722 -0.1992  0.9345 -0.1635
  178MOL0     C23935   3.313   4.785   2.719 -0.2301 -0.2661 -0.1380
  178MOL0     C23936   3.223   4.693   2.808  0.1792 -0.2235 -0.2220
  178MOL0     C23937   3.088   4.760   2.832  0.4872 -0.1559  1.2007
  178MOL0     C23938   3.014   4.794   2.695  0.2926 -0.3532 -0.3239
  178MOL0     C23939   2.869   4.828   2.715  0.4739  1.0810  0.3564
  178MOL0    Cl23940   2.823   4.957   2.829  0.3143 -0.3855 -0.0647
  178MOL0     C23941   3.788   4.423   2.533 -0.5523 -0.5391  0.4876
  178MOL0     C23942   3.901   4.349   2.485 -0.2638 -0.3596 -0.6477
  178MOL0     O23943   4.129   4.129   2.463  0.0435 -0.6560 -0.0489
  178MOL0     C23944   4.395   4.071   2.423 -0.1695  0.0164  0.1708
  178MOL0     C23945   4.528   4.040   2.386 -0.4188 -0.2580  0.8685
  178MOL0     N23946   5.214   3.978   2.606 -0.5284  0.0848 -0.9272
  178MOL0     N23947   5.336   4.000   2.559  0.4826  0.1302 -0.2289
  178MOL0     C23948   6.437   3.823   2.614  0.5963  0.0544  0.3101
  178MOL0     C23949   6.558   3.878   2.652 -0.1615  1.1573  0.4556
  178MOL0     C23950   6.999   3.901   2.800  0.6227 -0.3234  0.2631
  178MOL0     C23951   6.991   4.029   2.741  0.2781  0.1989  0.3629
  178MOL0     C23952   7.100   4.119   2.725 -0.2881 -0.2096  0.7106
  178MOL0     C23953   7.227   4.076   2.760 -0.0376 -0.1625 -0.4614
  178MOL0     O23954   7.336   4.159   2.735 -0.2736  0.2183  0.0666
  178MOL0     C23955   7.467   4.097   2.746 -0.1031 -0.3079  0.1063
  178MOL0     C23956   7.577   4.192   2.697  0.4089 -0.5267 -0.5015
  178MOL0     C23957   7.546   4.250   2.561  0.0585 -0.5581  0.2738
  178MOL0     C23958   7.674   4.307   2.487  0.5320 -0.6583 -0.1636
  178MOL0     C23959   7.787   4.208   2.476 -0.1648  1.2767 -0.1454
  178MOL0     C23960   7.881   4.129   2.482  0.6220 -0.2015  0.0021
  178MOL0     C23961   7.237   3.950   2.827 -0.1141  0.6073 -0.5145
  178MOL0     C23962   7.129   3.864   2.843  0.2639  0.0824  0.0477
  178MOL0     H23963   6.680   3.602   2.817 -1.9050 -2.0121 -0.7392
  178MOL0     H23964   6.472   3.513   2.767 -1.0519 -0.2795 -1.9719
  178MOL0     H23965   6.324   3.651   2.424 -0.5845 -0.1306 -1.2871
  178MOL0     H23966   6.228   3.520   2.466  2.8263 -1.8259  0.2513
  178MOL0     H23967   6.147   3.815   2.446 -2.1198  1.8791  4.6703
  178MOL0     H23968   6.078   3.667   2.366 -0.4716  0.2278 -0.5175
  178MOL0     H23969   5.971   3.594   2.562 -1.1061 -0.2721  0.1755
  178MOL0     H23970   6.042   3.739   2.656  2.3544  2.9737 -1.6520
  178MOL0     H23971   5.921   3.901   2.501 -0.1827  0.4665 -3.9874
  178MOL0     H23972   5.869   3.762   2.405 -1.7229 -0.5523  1.5848
  178MOL0     H23973   5.736   3.678   2.584 -1.9359 -0.2982  0.8516
  178MOL0     H23974   5.797   3.816   2.687  3.0608  2.8788 -1.8767
  178MOL0     H23975   5.576   3.877   2.611  0.2129 -0.3332  0.6151
  178MOL0     H23976   5.691   3.979   2.508  0.0966 -0.7606  0.6958
  178MOL0     H23977   5.664   3.808   2.329  2.0637 -1.5816  2.6284
  178MOL0     H23978   5.554   3.721   2.424  1.0576  0.0828  0.3590
  178MOL0     H23979   5.430   3.897   2.273  0.8900 -2.8919  0.0324
  178MOL0     H23980   5.522   4.021   2.372  1.0366 -0.7397  1.2109
  178MOL0     H23981   5.240   3.730   2.394 -1.9442  1.1527 -0.6425
  178MOL0     H23982   5.033   3.713   2.594  2.2189  1.7111  4.1650
  178MOL0     H23983   4.963   3.861   2.640 -4.4705 -3.0303 -2.2915
  178MOL0     H23984   4.844   3.762   2.445  0.6214 -1.3768 -0.3894
  178MOL0     H23985   4.991   3.794   2.350  0.1596  2.1193 -0.1228
  178MOL0     H23986   4.978   4.041   2.432 -0.1095  1.6000 -2.4788
  178MOL0     H23987   4.814   3.991   2.504  0.9958  0.9801  1.7771
  178MOL0     H23988   4.748   3.903   2.288  0.8909 -0.1314 -0.5286
  178MOL0     H23989   4.885   3.969   2.210 -2.1648 -0.0337 -2.0969
  178MOL0     H23990   4.616   4.308   2.204 -1.6770 -0.8613 -2.3106
  178MOL0     H23991   4.459   4.477   2.230 -0.2175  0.5678  0.3110
  178MOL0     H23992   4.296   4.428   2.195 -0.3678  3.6103  0.6946
  178MOL0     H23993   4.341   4.482   2.361 -0.0504  3.4547 -1.7654
  178MOL0     H23994   4.131   4.603   2.480 -1.2109  0.0449 -1.9140
  178MOL0     H23995   3.950   4.725   2.572 -2.6531 -0.5251  0.5915
  178MOL0     H23996   3.745   4.797   2.728  2.7030 -0.4681 -0.3355
  178MOL0     H23997   3.753   4.825   2.558 -0.2249 -2.4637 -1.2838
  178MOL0     H23998   3.528   4.928   2.645  0.6785 -0.8440 -0.1179
  178MOL0     H23999   3.506   4.817   2.528 -0.3350  0.8328  0.0570
  178MOL0     H24000   3.490   4.771   2.825  3.6640 -1.4880 -0.6241
  178MOL0     H24001   3.477   4.644   2.712  5.1115  1.6959 -2.9601
  178MOL0     H24002   3.311   4.890   2.749 -0.3628 -0.3022 -0.0228
  178MOL0     H24003   3.276   4.782   2.616 -0.2817  2.4134 -0.2673
  178MOL0     H24004   3.267   4.680   2.907  1.9660 -2.8162 -1.2640
  178MOL0     H24005   3.196   4.596   2.766 -2.7342  1.0065 -1.4994
  178MOL0     H24006   3.021   4.694   2.887 -1.9853  2.8474  2.0638
  178MOL0     H24007   3.106   4.855   2.882  0.3816  0.6841 -0.2805
  178MOL0     H24008   3.035   4.710   2.628 -0.7480 -1.4503  0.6755
  178MOL0     H24009   3.062   4.879   2.646 -1.7834 -0.6519 -3.1387
  178MOL0     H24010   2.828   4.731   2.744  1.2072  0.5827 -0.2140
  178MOL0     H24011   2.834   4.871   2.621  1.6893  2.6010  0.5576
  178MOL0     H24012   3.689   4.380   2.527 -0.6201 -0.2077 -2.6600
  178MOL0     H24013   3.893   4.249   2.444 -1.3249 -1.1196  1.2575
  178MOL0     H24014   4.340   4.002   2.486 -1.3513 -0.5986 -1.4694
  178MOL0     H24015   4.567   3.943   2.416 -1.2705 -1.4354 -1.5745
  178MOL0     H24016   6.365   3.879   2.555  0.0940 -0.1449  0.7239
  178MOL0     H24017   6.592   3.967   2.601  0.7131 -0.0596 -1.1848
  178MOL0     H24018   6.904   4.055   2.681  1.4271 -0.7392 -1.8374
  178MOL0     H24019   7.089   4.213   2.671 -0.7462 -1.0017 -0.6181
  178MOL0     H24020   7.482   4.067   2.850  0.2792  1.5245  0.6223
  178MOL0     H24021   7.470   4.001   2.694  1.6921 -0.1052 -0.2222
  178MOL0     H24022   7.672   4.137   2.696  1.3947  1.0368 -3.0043
  178MOL0     H24023   7.583   4.275   2.768  2.4277 -1.9189  1.0952
  178MOL0     H24024   7.481   4.334   2.582  0.7038  0.2407 -0.7927
  178MOL0     H24025   7.506   4.171   2.496  3.9727 -1.0355 -1.8768
  178MOL0     H24026   7.719   4.390   2.542  0.8201  0.3739 -1.8861
  178MOL0     H24027   7.649   4.343   2.387 -1.8378  0.8221  0.8820
  178MOL0     H24028   7.970   4.068   2.487  0.0877 -0.8936  1.6379
  178MOL0     H24029   7.328   3.898   2.857 -0.8525  0.0858  0.9071
  178MOL0     H24030   7.151   3.768   2.890 -0.7210 -0.9056 -1.3901
  179MOL0     O24031  10.459   8.493   4.514 -0.4153 -0.6258 -0.4052
  179MOL0     C24032  10.524   8.542   4.605  0.0550 -0.7787 -0.6232
  179MOL0     O24033  10.467   8.580   4.730  0.1604 -0.1577 -0.4897
  179MOL0     C24034  10.350   8.516   4.769  0.1819  0.3207  0.9118
  179MOL0     C24035  10.244   8.583   4.815 -0.3491  0.3116  0.4310
  179MOL0     C24036  10.125   8.515   4.854  0.6355 -0.1922  0.1778
  179MOL0     C24037  10.119   8.376   4.847 -0.5642  0.0773 -0.0847
  179MOL0     O24038  10.008   8.320   4.904 -0.0202  0.8376  0.1968
  179MOL0     C24039  10.026   8.199   4.971 -0.4375  0.0688 -1.1273
  179MOL0     C24040   9.938   8.206   5.094 -0.0363  0.4271  0.0454
  179MOL0     C24041  10.017   8.262   5.212  0.2681  0.5722 -0.8534
  179MOL0     C24042   9.956   8.215   5.347  0.0740  0.2232 -0.9345
  179MOL0     C24043  10.062   8.219   5.459 -0.7378 -0.4888 -0.6045
  179MOL0     C24044  10.017   8.137   5.575 -0.1969  0.1646 -0.1694
  179MOL0     C24045  10.129   8.135   5.677  0.5541  0.4131  0.1835
  179MOL0     C24046  10.084   8.077   5.814 -0.0565  0.4332  0.7032
  179MOL0     N24047   9.969   8.147   5.876  0.5156 -0.4609 -0.2111
  179MOL0     C24048   9.961   8.283   5.907 -1.2742 -0.3305 -0.1382
  179MOL0     C24049   9.842   8.293   5.967  0.5256 -0.1299 -0.1955
  179MOL0     C24050   9.791   8.427   6.011  0.3723  0.1005 -1.0708
  179MOL0     C24051   9.638   8.439   6.003  0.6061  0.3543 -0.2538
  179MOL0     C24052   9.584   8.443   5.863 -0.2943 -0.4258 -0.3605
  179MOL0     C24053   9.431   8.455   5.860 -0.2039 -0.0079  0.4363
  179MOL0     O24054   9.368   8.330   5.894  0.4332 -0.0018  0.5070
  179MOL0     C24055   9.232   8.325   5.893 -0.3597  0.9451 -0.0490
  179MOL0     C24056   9.176   8.208   5.835  0.0140  0.0749  0.0428
  179MOL0     C24057   9.040   8.179   5.828 -0.1648  0.2622 -0.4904
  179MOL0     C24058   9.003   8.051   5.765 -0.8655 -0.0101  0.3993
  179MOL0     C24059   8.947   8.264   5.886  0.2946  0.4635  1.0579
  179MOL0     C24060   8.794   8.239   5.896 -0.2402 -0.1339 -0.1320
  179MOL0     O24061   8.740   8.140   5.818 -0.3054 -0.6919 -0.1777
  179MOL0     C24062   8.608   8.125   5.786  0.0161 -0.2131  1.2251
  179MOL0     C24063   8.519   8.239   5.787 -0.5379  0.7333  0.0786
  179MOL0     C24064   8.377   8.219   5.744 -0.6077 -0.1782 -0.2344
  179MOL0     C24065   8.330   8.085   5.716 -0.7733  0.1067  0.5464
  179MOL0     O24066   8.198   8.057   5.692  0.3766 -0.0366 -0.3700
  179MOL0     C24067   8.110   8.161   5.653  0.4572 -0.1299 -0.2630
  179MOL0     C24068   7.975   8.109   5.595 -0.3704 -0.1037  0.2884
  179MOL0     C24069   7.909   8.004   5.681 -0.2853 -0.4481  0.2991
  179MOL0     C24070   7.809   7.928   5.594 -1.1068  0.0973 -0.2562
  179MOL0     C24071   7.710   7.857   5.685 -0.1478  0.1675 -0.6468
  179MOL0     C24072   7.661   7.721   5.620  0.6966  0.0113  0.2318
  179MOL0     C24073   7.536   7.665   5.703  0.3546 -1.3481  0.8337
  179MOL0     C24074   7.450   7.580   5.612 -1.2386  0.0286 -0.9682
  179MOL0    Cl24075   7.554   7.461   5.548  0.0587  0.1808 -0.1599
  179MOL0     C24076   8.421   7.983   5.729  0.1738  0.3222  0.4338
  179MOL0     C24077   8.553   7.998   5.755 -0.5353  0.2859 -0.3302
  179MOL0     O24078   8.737   8.300   5.984  0.2333 -0.3847 -0.2716
  179MOL0     C24079   9.003   8.382   5.941  0.6098 -0.6660  1.1992
  179MOL0     C24080   9.142   8.413   5.937  0.6582 -0.8043  0.7806
  179MOL0     N24081   9.779   8.170   5.956  0.2669  0.3141  0.0120
  179MOL0     N24082   9.864   8.077   5.925  0.5019  0.3273 -0.3146
  179MOL0     C24083  10.229   8.304   4.799 -0.2293  0.1517 -0.4231
  179MOL0     C24084  10.343   8.373   4.760 -0.3463  0.3908 -0.1534
  179MOL0     C24085  10.669   8.565   4.587  0.3681  0.4526 -0.7484
  179MOL0     C24086  10.736   8.503   4.480 -0.5582  0.5838  0.5931
  179MOL0     C24087  10.866   8.542   4.458  0.6721  0.5394 -0.0976
  179MOL0     C24088  10.935   8.626   4.544  0.4087 -0.3892  0.6735
  179MOL0     O24089  11.062   8.665   4.505 -0.4548  0.2396  0.3026
  179MOL0     C24090  11.131   8.745   4.601 -1.3293  0.6063 -0.3611
  179MOL0     C24091  11.273   8.785   4.547 -0.0423  0.2570 -1.1496
  179MOL0     C24092  11.359   8.870   4.641 -0.4941  0.0779  0.2727
  179MOL0     C24093  11.442   8.782   4.729 -0.8572  0.0314  0.0796
  179MOL0     C24094  11.568   8.736   4.663  0.8481 -0.2196  0.5511
  179MOL0     C24095  11.668   8.694   4.612 -0.2466 -0.1237  0.6064
  179MOL0     C24096  10.870   8.673   4.661  0.5554 -0.3432 -0.0769
  179MOL0     C24097  10.733   8.640   4.684  0.0399  0.1143  0.4916
  179MOL0     H24098  10.251   8.691   4.815  3.5165  0.2082  0.1162
  179MOL0     H24099  10.035   8.565   4.890  2.5751  2.4431  1.7348
  179MOL0     H24100   9.984   8.119   4.910 -0.1387 -0.5710 -0.5068
  179MOL0     H24101  10.127   8.164   4.994  0.3335  0.2446 -3.8691
  179MOL0     H24102   9.855   8.271   5.064 -0.4524  0.6018  1.5042
  179MOL0     H24103   9.891   8.110   5.119 -0.2982  0.5118 -0.1185
  179MOL0     H24104  10.119   8.224   5.207  0.2785  0.5482 -0.4225
  179MOL0     H24105  10.030   8.370   5.200 -0.2005  0.8870  1.1219
  179MOL0     H24106   9.873   8.283   5.367  1.1332  1.2767  0.0857
  179MOL0     H24107   9.930   8.109   5.334 -1.3682  0.3786  0.4117
  179MOL0     H24108  10.155   8.172   5.427  0.2259  0.4973  0.6150
  179MOL0     H24109  10.080   8.324   5.486 -1.1426 -0.8160  1.0585
  179MOL0     H24110   9.925   8.181   5.615  0.4350 -0.5680  2.2308
  179MOL0     H24111   9.990   8.037   5.540 -1.9762  0.7921 -0.6973
  179MOL0     H24112  10.201   8.070   5.627  0.0387 -0.0279  0.0030
  179MOL0     H24113  10.168   8.234   5.703  0.7223  1.0474 -2.2627
  179MOL0     H24114  10.177   8.082   5.871 -0.2613 -1.6569  1.3137
  179MOL0     H24115  10.062   7.969   5.814 -0.4825  0.5205  0.7914
  179MOL0     H24116  10.038   8.358   5.890  1.2528 -2.4999  1.1448
  179MOL0     H24117   9.808   8.436   6.119 -1.4346  3.0072 -0.9086
  179MOL0     H24118   9.837   8.515   5.964  1.6097  0.5825  0.8980
  179MOL0     H24119   9.603   8.526   6.060  2.4000  0.4027  0.8263
  179MOL0     H24120   9.592   8.347   6.039 -1.1461 -0.2954 -3.6858
  179MOL0     H24121   9.605   8.354   5.802 -3.0393  1.7947 -5.1196
  179MOL0     H24122   9.624   8.532   5.815  1.8463  0.0660  2.1313
  179MOL0     H24123   9.392   8.497   5.766 -1.2207  0.1919  0.9370
  179MOL0     H24124   9.403   8.525   5.939 -2.8363 -2.1737  1.5877
  179MOL0     H24125   9.246   8.139   5.789  0.5289  0.6443 -0.0386
  179MOL0     H24126   8.950   7.994   5.843 -0.9098 -2.3743 -1.2709
  179MOL0     H24127   8.947   8.064   5.672 -0.4177 -3.3317 -0.4723
  179MOL0     H24128   9.088   7.988   5.739 -1.2410 -0.2383 -0.2856
  179MOL0     H24129   8.549   8.339   5.815  0.7632  1.2012 -2.6246
  179MOL0     H24130   8.311   8.305   5.746 -1.3638 -0.7126 -1.2036
  179MOL0     H24131   8.078   8.223   5.737 -0.4456 -0.9028 -0.0154
  179MOL0     H24132   8.161   8.226   5.582 -0.0933  2.2944  1.4643
  179MOL0     H24133   7.907   8.194   5.595  3.7456  3.5396  0.3233
  179MOL0     H24134   7.991   8.072   5.493  2.8622 -0.7277  0.9317
  179MOL0     H24135   7.857   8.052   5.764  1.6411  3.8277 -0.6837
  179MOL0     H24136   7.981   7.930   5.716  0.2221  0.8255  2.0992
  179MOL0     H24137   7.754   7.996   5.528 -3.3906 -2.1320 -0.7800
  179MOL0     H24138   7.863   7.854   5.535  0.3941 -0.7118  2.0042
  179MOL0     H24139   7.637   7.934   5.713 -0.8069 -1.4889  2.6412
  179MOL0     H24140   7.746   7.828   5.784 -0.7510 -0.2049 -0.5257
  179MOL0     H24141   7.644   7.743   5.514  1.8512  3.4365  0.6031
  179MOL0     H24142   7.743   7.650   5.632  0.5640 -0.0602  0.7067
  179MOL0     H24143   7.471   7.743   5.744  0.7120 -1.1641  1.0557
  179MOL0     H24144   7.586   7.614   5.785  0.3640  3.1277  3.9735
  179MOL0     H24145   7.418   7.650   5.535 -0.0536  2.5560  0.7004
  179MOL0     H24146   7.369   7.535   5.670  1.6523 -1.0135  2.6196
  179MOL0     H24147   8.392   7.880   5.712  2.3771 -0.3291  0.3176
  179MOL0     H24148   8.620   7.915   5.774  0.3363  1.2840  1.2397
  179MOL0     H24149   8.932   8.454   5.981 -0.8784 -1.7248  0.5708
  179MOL0     H24150   9.161   8.519   5.952 -1.6790 -0.4379  1.5422
  179MOL0     H24151  10.224   8.195   4.800 -0.7342  0.1536 -1.3934
  179MOL0     H24152  10.420   8.310   4.717 -0.5411 -1.2480  1.7678
  179MOL0     H24153  10.691   8.430   4.414 -0.5644  0.8417  0.3102
  179MOL0     H24154  10.926   8.491   4.384 -1.3077  0.2254 -1.5687
  179MOL0     H24155  11.076   8.834   4.634 -1.3542  0.1747  0.8177
  179MOL0     H24156  11.139   8.683   4.691 -0.9037  1.0692 -0.0727
  179MOL0     H24157  11.252   8.842   4.456 -0.8263  1.1720 -0.4245
  179MOL0     H24158  11.333   8.696   4.525 -2.9000 -1.8040 -1.1005
  179MOL0     H24159  11.295   8.933   4.704 -1.9767 -0.5794 -0.5246
  179MOL0     H24160  11.416   8.937   4.576 -2.6931  1.9575  0.1312
  179MOL0     H24161  11.384   8.693   4.753  0.5083 -1.0858 -0.6253
  179MOL0     H24162  11.472   8.829   4.823 -0.1656  0.3849 -0.3064
  179MOL0     H24163  11.762   8.663   4.571 -0.4727 -1.6372  1.1514
  179MOL0     H24164  10.924   8.730   4.736 -0.2427 -0.8396  0.9051
  179MOL0     H24165  10.676   8.682   4.766 -0.3352 -0.2369  0.4140
  180MOL0     O24166   5.561   8.744   4.331  0.3857  0.0503 -0.6625
  180MOL0     C24167   5.653   8.821   4.299  0.1678 -1.0270 -0.0205
  180MOL0     O24168   5.721   8.818   4.178 -0.2088  0.6689 -0.5699
  180MOL0     C24169   5.697   8.704   4.109  0.4556  0.5498  0.1917
  180MOL0     C24170   5.590   8.698   4.014  0.2835 -0.4666  0.9501
  180MOL0     C24171   5.549   8.574   3.967  0.3369  0.3219  0.3920
  180MOL0     C24172   5.624   8.470   3.982  1.2044  1.2538 -0.1318
  180MOL0     O24173   5.575   8.358   3.924  0.2791 -0.5455 -0.0140
  180MOL0     C24174   5.617   8.226   3.967 -0.6870  0.1849  0.5606
  180MOL0     C24175   5.567   8.116   3.872 -0.7584 -0.4118  0.3816
  180MOL0     C24176   5.415   8.091   3.855  0.2002 -0.4759 -0.2774
  180MOL0     C24177   5.342   8.197   3.765 -0.1677  0.4866 -0.3387
  180MOL0     C24178   5.184   8.177   3.760 -0.6419  0.7322 -0.3907
  180MOL0     C24179   5.117   8.174   3.900  0.1020  0.1582 -0.3393
  180MOL0     C24180   4.962   8.165   3.883 -0.0210  0.1346 -0.6277
  180MOL0     C24181   4.896   8.265   3.777 -0.6170  0.3334  0.4106
  180MOL0     N24182   4.757   8.263   3.812  0.4214  0.0242 -0.1809
  180MOL0     C24183   4.698   8.313   3.923  0.2848 -0.4066  0.0209
  180MOL0     C24184   4.563   8.280   3.921 -0.2437  0.6332  0.0917
  180MOL0     C24185   4.464   8.305   4.031 -0.3633  0.7533  0.0496
  180MOL0     C24186   4.315   8.298   3.987  0.1692 -1.0151  0.6500
  180MOL0     C24187   4.259   8.159   3.970 -0.2997 -0.3163  0.1781
  180MOL0     C24188   4.106   8.163   3.963  0.3946 -0.1290  0.6965
  180MOL0     O24189   4.079   8.098   3.834  0.4620 -0.4965 -0.9452
  180MOL0     C24190   3.954   8.047   3.823  0.0501 -0.3998 -0.5546
  180MOL0     C24191   3.938   7.914   3.779  0.1586  0.8727  1.1259
  180MOL0     C24192   3.817   7.847   3.758  0.2844 -0.3753 -0.4459
  180MOL0     C24193   3.823   7.713   3.706  0.6856  0.2385  0.5600
  180MOL0     C24194   3.693   7.922   3.779 -0.0325  0.2948  0.4312
  180MOL0     C24195   3.569   7.864   3.764  1.0285 -0.3876 -0.5709
  180MOL0     O24196   3.469   7.901   3.848  0.5363  0.2188  0.6894
  180MOL0     C24197   3.347   7.839   3.828 -0.0584 -0.1363  0.1539
  180MOL0     C24198   3.328   7.699   3.812 -0.6032  0.9448  0.3355
  180MOL0     C24199   3.201   7.647   3.808 -0.4474  0.4421 -0.0314
  180MOL0     C24200   3.084   7.724   3.803 -0.1933 -0.0723  0.0248
  180MOL0     O24201   2.958   7.666   3.792  0.1897 -0.6026  0.5726
  180MOL0     C24202   2.856   7.740   3.717 -0.2363  0.7685 -0.8988
  180MOL0     C24203   2.724   7.663   3.702  0.1631  0.2538  0.1003
  180MOL0     C24204   2.745   7.533   3.627 -0.2302  0.4227  0.2377
  180MOL0     C24205   2.609   7.470   3.596  0.4698 -0.8302  0.5406
  180MOL0     C24206   2.549   7.527   3.471  0.1764 -0.2931  1.2072
  180MOL0     C24207   2.427   7.453   3.421  0.1153  0.5998  0.6288
  180MOL0     C24208   2.349   7.527   3.310  0.1922  0.2601  0.1383
  180MOL0     C24209   2.200   7.480   3.294  0.0679  0.3183 -0.3776
  180MOL0    Cl24210   2.125   7.411   3.440 -0.2407 -0.3387  0.2435
  180MOL0     C24211   3.102   7.859   3.818  0.6835 -0.6092  0.1281
  180MOL0     C24212   3.232   7.918   3.836  0.3820  0.3050  0.7942
  180MOL0     O24213   3.564   7.785   3.668 -0.1408 -0.2109  0.3700
  180MOL0     C24214   3.707   8.055   3.832  0.5284  0.0294  0.3055
  180MOL0     C24215   3.834   8.117   3.854  0.2145 -0.1907 -0.7941
  180MOL0     N24216   4.546   8.223   3.794  0.1779 -0.0084 -0.0013
  180MOL0     N24217   4.663   8.199   3.736  0.0716  0.3877  0.9726
  180MOL0     C24218   5.738   8.476   4.065  0.1761 -0.5374 -0.1619
  180MOL0     C24219   5.782   8.591   4.133  0.0805 -0.0520 -0.2914
  180MOL0     C24220   5.664   8.939   4.392  0.2225 -0.2420  0.0006
  180MOL0     C24221   5.738   9.052   4.350  1.8018 -0.3448 -0.2962
  180MOL0     C24222   5.742   9.164   4.426 -0.7121  0.0650 -0.2526
  180MOL0     C24223   5.688   9.171   4.558  0.2845  0.1001  0.8122
  180MOL0     O24224   5.694   9.285   4.639 -0.8883  0.2684  0.3970
  180MOL0     C24225   5.737   9.412   4.577 -0.1425 -0.1466 -0.0288
  180MOL0     C24226   5.720   9.512   4.692  0.3753  0.4522 -0.0555
  180MOL0     C24227   5.735   9.662   4.649  0.2433  0.5830  0.1753
  180MOL0     C24228   5.750   9.745   4.775  0.4440 -0.2945 -0.8180
  180MOL0     C24229   5.756   9.882   4.752  0.5713 -0.5609  0.4778
  180MOL0     C24230   5.756  10.002   4.726 -0.0823 -0.4648  1.0636
  180MOL0     C24231   5.613   9.061   4.596 -0.0842 -0.0542 -0.7827
  180MOL0     C24232   5.600   8.956   4.518 -0.1433  0.2987  0.4253
  180MOL0     H24233   5.519   8.778   3.996 -1.2913 -2.4957 -2.9476
  180MOL0     H24234   5.460   8.564   3.905 -0.1780 -4.3776  1.5347
  180MOL0     H24235   5.726   8.217   3.976 -0.5260  1.1971 -0.1677
  180MOL0     H24236   5.566   8.216   4.063 -0.7835  0.3555  0.5276
  180MOL0     H24237   5.599   8.134   3.769  5.2514 -0.1337  1.9265
  180MOL0     H24238   5.617   8.022   3.899  0.9968  0.1287 -0.7561
  180MOL0     H24239   5.391   7.995   3.809 -1.1571 -0.6289  0.7038
  180MOL0     H24240   5.378   8.092   3.958  0.5219  1.5359 -0.1461
  180MOL0     H24241   5.365   8.298   3.797 -1.1159  1.1719 -1.6781
  180MOL0     H24242   5.383   8.182   3.664  1.5867 -0.3618  0.4616
  180MOL0     H24243   5.143   8.250   3.689 -0.8666  0.5071 -0.4903
  180MOL0     H24244   5.176   8.073   3.729 -1.5231 -0.3726  3.0945
  180MOL0     H24245   5.150   8.095   3.968 -0.9435 -0.4339 -0.5038
  180MOL0     H24246   5.148   8.270   3.944  2.6206 -0.5730 -0.3593
  180MOL0     H24247   4.940   8.060   3.860 -1.9969 -0.7092  3.8752
  180MOL0     H24248   4.922   8.182   3.984 -1.5020 -0.1980 -1.1309
  180MOL0     H24249   4.915   8.234   3.674 -0.3995 -0.2652  0.6256
  180MOL0     H24250   4.937   8.366   3.780  0.4299 -0.0930  1.1221
  180MOL0     H24251   4.741   8.356   4.013 -1.4236 -0.9183  1.1271
  180MOL0     H24252   4.492   8.229   4.104  1.6033  3.2311  2.0464
  180MOL0     H24253   4.487   8.403   4.073 -0.8808  0.5383  0.8388
  180MOL0     H24254   4.304   8.356   3.895  1.4134  0.3895  1.3474
  180MOL0     H24255   4.260   8.349   4.067 -0.5684  0.9100 -0.9997
  180MOL0     H24256   4.269   8.105   4.065  0.7346  0.4536  0.5314
  180MOL0     H24257   4.311   8.115   3.885 -0.9108 -1.4825  0.3849
  180MOL0     H24258   4.070   8.266   3.966  0.5905 -0.0148 -0.5606
  180MOL0     H24259   4.059   8.102   4.040  0.6067 -0.7864  0.3119
  180MOL0     H24260   4.027   7.864   3.744 -1.4130 -1.6335  0.4362
  180MOL0     H24261   3.795   7.716   3.600  0.5640  1.1684  0.6110
  180MOL0     H24262   3.921   7.665   3.706  0.6794  0.2002  1.9116
  180MOL0     H24263   3.752   7.647   3.757  2.2207 -1.1946  0.9144
  180MOL0     H24264   3.411   7.633   3.793 -1.3493  0.0294  0.1716
  180MOL0     H24265   3.184   7.543   3.784  0.9764  0.5863 -1.8452
  180MOL0     H24266   2.833   7.835   3.768 -0.0097  0.8364 -0.9233
  180MOL0     H24267   2.899   7.769   3.620 -2.7533 -1.2720 -2.7567
  180MOL0     H24268   2.693   7.641   3.805  0.9194  0.1083  0.3019
  180MOL0     H24269   2.647   7.734   3.669 -1.0668 -0.1928  1.8874
  180MOL0     H24270   2.800   7.463   3.690 -0.4691  1.1265  1.2488
  180MOL0     H24271   2.807   7.561   3.541  1.8111 -0.9230  1.2065
  180MOL0     H24272   2.626   7.362   3.585  0.7458 -1.1745  3.3540
  180MOL0     H24273   2.534   7.480   3.676  1.4558 -1.2314  1.5504
  180MOL0     H24274   2.630   7.524   3.397 -1.4736 -0.6213 -0.6907
  180MOL0     H24275   2.523   7.632   3.482 -0.9834 -0.4281  0.0181
  180MOL0     H24276   2.469   7.361   3.379  0.0346  0.4683  0.8344
  180MOL0     H24277   2.360   7.433   3.505 -0.4621  1.8733  0.4982
  180MOL0     H24278   2.406   7.514   3.217 -0.4866 -0.3576 -0.1989
  180MOL0     H24279   2.363   7.630   3.343  1.6104 -0.8183  3.3997
  180MOL0     H24280   2.187   7.396   3.224  1.1596 -1.9707  1.9906
  180MOL0     H24281   2.134   7.564   3.270 -0.3006  0.2756  0.4518
  180MOL0     H24282   3.020   7.926   3.791  0.0874 -0.3671  2.3533
  180MOL0     H24283   3.251   8.024   3.852  0.2076  0.7238 -1.5049
  180MOL0     H24284   3.619   8.115   3.853 -1.4973 -2.2573 -1.1822
  180MOL0     H24285   3.836   8.221   3.883 -0.2033 -0.8397  1.7774
  180MOL0     H24286   5.797   8.386   4.080 -0.0918 -0.4429  1.7779
  180MOL0     H24287   5.868   8.594   4.199 -1.0566 -0.6405  1.2769
  180MOL0     H24288   5.774   9.058   4.248  2.0121 -0.2331 -0.2149
  180MOL0     H24289   5.804   9.246   4.391 -1.0860  0.6045  0.3246
  180MOL0     H24290   5.842   9.423   4.549  0.9618 -0.8934  3.2971
  180MOL0     H24291   5.674   9.452   4.497  0.7206  0.7235 -0.2950
  180MOL0     H24292   5.783   9.486   4.778 -0.3299  2.0135  0.9796
  180MOL0     H24293   5.619   9.496   4.732  0.7180  2.1360  1.6418
  180MOL0     H24294   5.649   9.684   4.585  0.5874 -1.5722 -1.1270
  180MOL0     H24295   5.819   9.677   4.580  0.4072 -0.2014  0.1939
  180MOL0     H24296   5.839   9.718   4.833 -0.6760 -2.0890  0.1391
  180MOL0     H24297   5.666   9.728   4.842  0.5662  3.3284  0.5127
  180MOL0     H24298   5.742  10.107   4.705 -1.8498 -0.8346  0.2431
  180MOL0     H24299   5.572   9.061   4.697  0.1811 -1.1569 -0.6626
  180MOL0     H24300   5.534   8.874   4.545  0.6347 -1.1978 -1.9244
  181MOL0     O24301  10.739   1.099   6.672  0.6579 -0.3639 -0.0700
  181MOL0     C24302  10.724   1.114   6.795 -0.4820 -0.4891  0.1229
  181MOL0     O24303  10.612   1.086   6.867  1.1860  0.1742  0.1786
  181MOL0     C24304  10.497   1.042   6.792 -0.5595 -0.3573 -0.4083
  181MOL0     C24305  10.497   0.917   6.731  0.2758 -0.6522 -0.4407
  181MOL0     C24306  10.386   0.870   6.668  1.7959 -0.2039  0.2182
  181MOL0     C24307  10.267   0.948   6.661 -0.2960  0.2701  0.3897
  181MOL0     O24308  10.160   0.891   6.592 -0.3338 -0.1054  0.1965
  181MOL0     C24309  10.042   0.970   6.570  0.6136  0.4314  0.8661
  181MOL0     C24310   9.939   0.883   6.507  0.6852 -0.6322 -0.1997
  181MOL0     C24311   9.815   0.964   6.469  0.1493 -0.4664 -0.6805
  181MOL0     C24312   9.834   1.026   6.332 -0.4136 -0.1429 -0.7189
  181MOL0     C24313   9.702   1.084   6.287  0.4048  0.2548  0.3389
  181MOL0     C24314   9.619   0.963   6.215  0.1373 -0.0328 -0.3593
  181MOL0     C24315   9.472   0.987   6.194 -0.6041 -0.3637 -0.3090
  181MOL0     C24316   9.407   0.874   6.119 -0.3698 -0.0982  0.0698
  181MOL0     N24317   9.271   0.861   6.141  0.2893 -0.4050 -0.0736
  181MOL0     C24318   9.182   0.938   6.068  0.5150  0.7477 -0.2207
  181MOL0     C24319   9.061   0.881   6.083  0.1926 -0.9159 -0.3859
  181MOL0     C24320   8.938   0.929   6.014 -0.3446 -0.1819  0.0535
  181MOL0     C24321   8.943   0.903   5.866  0.0418  0.1512 -0.4298
  181MOL0     C24322   8.909   0.753   5.837 -0.6793 -0.3864 -0.2956
  181MOL0     C24323   8.887   0.715   5.686 -0.4219  0.2965 -0.8598
  181MOL0     O24324   8.809   0.812   5.615 -0.1942  0.4489 -0.2894
  181MOL0     C24325   8.672   0.803   5.621 -0.5390 -0.4713  0.4435
  181MOL0     C24326   8.596   0.910   5.580  0.6243 -0.2765 -0.1291
  181MOL0     C24327   8.453   0.910   5.587 -0.4410  0.2248 -0.7920
  181MOL0     C24328   8.384   1.033   5.528  0.9708  1.8306 -0.3768
  181MOL0     C24329   8.392   0.803   5.649  0.0481  0.2017  0.2749
  181MOL0     C24330   8.244   0.794   5.667  0.3409 -0.2369  0.3496
  181MOL0     O24331   8.194   0.683   5.722 -0.0305 -0.0030  0.4994
  181MOL0     C24332   8.065   0.685   5.791  0.0301  0.6854 -0.1459
  181MOL0     C24333   7.996   0.796   5.845 -0.6634 -0.0754  0.7505
  181MOL0     C24334   7.865   0.777   5.880 -0.2123 -0.7818  0.4056
  181MOL0     C24335   7.805   0.652   5.881 -0.2036  0.0494  0.7192
  181MOL0     O24336   7.676   0.621   5.917 -0.3682  0.2448  0.2802
  181MOL0     C24337   7.612   0.712   6.011 -0.0335 -0.2812 -0.1609
  181MOL0     C24338   7.469   0.679   6.037 -0.3045 -0.0203  0.4300
  181MOL0     C24339   7.415   0.765   6.146  0.0451 -0.4953  0.5668
  181MOL0     C24340   7.468   0.748   6.292  0.2278  0.5712  0.0594
  181MOL0     C24341   7.430   0.605   6.337 -0.4847 -0.1112  0.5026
  181MOL0     C24342   7.279   0.583   6.355  0.7137  0.2596  0.9286
  181MOL0     C24343   7.257   0.475   6.460 -0.4786 -0.6319 -0.4340
  181MOL0     C24344   7.304   0.345   6.408  0.0888 -0.1105 -0.4914
  181MOL0    Cl24345   7.254   0.232   6.540 -0.2600 -0.1853 -0.2745
  181MOL0     C24346   7.874   0.549   5.820 -0.8534 -0.1644 -0.3854
  181MOL0     C24347   8.003   0.560   5.781 -1.3626 -0.8104  0.1328
  181MOL0     O24348   8.180   0.904   5.653 -0.3194  0.4560  0.0931
  181MOL0     C24349   8.467   0.695   5.678 -1.2323  0.5392  0.4457
  181MOL0     C24350   8.608   0.695   5.670  0.4229 -0.0558 -0.2706
  181MOL0     N24351   9.071   0.778   6.171  0.3584  0.3305 -0.1766
  181MOL0     N24352   9.198   0.767   6.205  0.1328  0.5980  0.5920
  181MOL0     C24353  10.268   1.077   6.712  0.4868  0.4318  0.1509
  181MOL0     C24354  10.383   1.129   6.780 -0.6178  0.4434 -0.6199
  181MOL0     C24355  10.832   1.169   6.877 -0.1772 -0.5316  0.1422
  181MOL0     C24356  10.822   1.197   7.012  0.3749  0.0277 -0.2028
  181MOL0     C24357  10.930   1.238   7.081 -1.0505 -0.0605 -0.1754
  181MOL0     C24358  11.052   1.257   7.023  0.5485 -0.9958  0.2898
  181MOL0     O24359  11.150   1.302   7.105 -0.1586  0.4232  0.1569
  181MOL0     C24360  11.280   1.254   7.084  0.3899 -0.3341 -0.2134
  181MOL0     C24361  11.353   1.235   7.217 -0.5734  0.6930  0.7350
  181MOL0     C24362  11.283   1.126   7.302  0.9633 -0.2968 -0.0691
  181MOL0     C24363  11.341   1.105   7.441  0.0523  1.0289 -0.0999
  181MOL0     C24364  11.291   1.200   7.538  0.7328  0.3592  0.3047
  181MOL0     C24365  11.250   1.293   7.605  0.0678  0.5141  0.6795
  181MOL0     C24366  11.068   1.222   6.887 -1.2153  0.0076  0.5383
  181MOL0     C24367  10.954   1.179   6.822 -0.7234  0.2104  0.0376
  181MOL0     H24368  10.582   0.854   6.757  0.0069 -0.4432  1.0082
  181MOL0     H24369  10.393   0.763   6.653  0.7884 -0.1202 -1.0493
  181MOL0     H24370  10.008   0.995   6.670 -0.5378 -1.5730  1.0201
  181MOL0     H24371  10.060   1.058   6.507 -0.5881 -0.3384 -0.6115
  181MOL0     H24372   9.990   0.830   6.425  0.3178 -1.4242  0.0704
  181MOL0     H24373   9.909   0.812   6.585 -0.1846 -0.6611 -0.5512
  181MOL0     H24374   9.725   0.902   6.482  0.0022  0.3918  4.6864
  181MOL0     H24375   9.798   1.043   6.542 -3.0444 -0.4204 -1.3009
  181MOL0     H24376   9.915   1.100   6.335 -0.1843 -0.4104 -0.1835
  181MOL0     H24377   9.868   0.953   6.258  0.0194 -0.7894  0.1018
  181MOL0     H24378   9.648   1.137   6.367  0.5054  3.2443 -1.4369
  181MOL0     H24379   9.721   1.150   6.203  1.0533 -0.0272  0.2617
  181MOL0     H24380   9.677   0.943   6.124  1.3204 -0.3200  0.4348
  181MOL0     H24381   9.639   0.877   6.279 -0.2355 -1.7954 -2.4943
  181MOL0     H24382   9.433   0.992   6.296 -0.8526  0.4875 -0.4350
  181MOL0     H24383   9.461   1.087   6.150  1.6473  0.7859  1.5484
  181MOL0     H24384   9.456   0.783   6.154  1.0696 -0.2351 -2.0708
  181MOL0     H24385   9.426   0.882   6.011  1.9176 -0.1495  0.4092
  181MOL0     H24386   9.202   1.020   6.000  0.1859 -1.4307 -3.1315
  181MOL0     H24387   8.850   0.882   6.057 -1.4225 -0.0310 -1.8770
  181MOL0     H24388   8.935   1.034   6.045  1.0927  0.3397 -1.4463
  181MOL0     H24389   9.048   0.913   5.834 -0.0405 -0.2314 -0.8304
  181MOL0     H24390   8.886   0.982   5.817  0.4359  0.5055 -0.3234
  181MOL0     H24391   8.818   0.719   5.889 -1.5963  2.0666 -0.1532
  181MOL0     H24392   8.990   0.687   5.868 -1.9051 -2.2012 -0.8222
  181MOL0     H24393   8.852   0.612   5.688  2.3929 -0.7342  1.5035
  181MOL0     H24394   8.985   0.711   5.636  1.9649  1.5177  3.2702
  181MOL0     H24395   8.650   0.992   5.532 -0.0247  0.5921  0.5950
  181MOL0     H24396   8.325   1.090   5.600 -1.3837 -2.5047  1.4781
  181MOL0     H24397   8.452   1.096   5.469  2.8711  0.9173  0.7107
  181MOL0     H24398   8.315   0.992   5.455 -0.2844  1.8212  0.7798
  181MOL0     H24399   8.039   0.895   5.858  0.8120 -0.5954  0.1329
  181MOL0     H24400   7.810   0.865   5.913  0.6182 -0.3664  0.7018
  181MOL0     H24401   7.667   0.707   6.105  1.5951  0.9893 -0.9896
  181MOL0     H24402   7.625   0.814   5.976  0.4364  0.8334  2.9416
  181MOL0     H24403   7.409   0.701   5.948 -0.1436  3.0616  0.9814
  181MOL0     H24404   7.442   0.574   6.052  1.5653 -0.5527  0.3059
  181MOL0     H24405   7.307   0.750   6.145 -0.1348  0.5528  1.8255
  181MOL0     H24406   7.429   0.870   6.121 -1.4456 -0.3512  0.2963
  181MOL0     H24407   7.573   0.773   6.313  0.1258  1.0171  0.0628
  181MOL0     H24408   7.405   0.824   6.340  1.0638  0.9002  0.6616
  181MOL0     H24409   7.474   0.581   6.434  0.3400 -1.2515 -0.1224
  181MOL0     H24410   7.480   0.526   6.280  0.7204 -0.9674  2.6200
  181MOL0     H24411   7.230   0.671   6.398 -0.6564  0.4044 -0.7995
  181MOL0     H24412   7.227   0.560   6.261  1.3927 -0.5396  0.7333
  181MOL0     H24413   7.151   0.471   6.485 -0.2732 -0.8642  0.4506
  181MOL0     H24414   7.305   0.501   6.556 -2.0598 -1.9434  0.7699
  181MOL0     H24415   7.407   0.336   6.373  0.1741  1.7166 -0.7970
  181MOL0     H24416   7.244   0.326   6.318  1.3413  2.2922 -1.9251
  181MOL0     H24417   7.819   0.455   5.819 -2.5203  0.7609 -0.6247
  181MOL0     H24418   8.060   0.480   5.737  0.6059 -0.8127  2.4794
  181MOL0     H24419   8.409   0.607   5.705 -0.4799  0.3560  1.5828
  181MOL0     H24420   8.666   0.608   5.699  2.5481  2.0273  2.2786
  181MOL0     H24421  10.188   1.143   6.683  1.6932  1.8991  0.0152
  181MOL0     H24422  10.395   1.227   6.824  0.7479  1.0369 -2.1791
  181MOL0     H24423  10.729   1.189   7.068 -0.5456  2.0689 -1.3267
  181MOL0     H24424  10.924   1.277   7.182 -1.7599 -0.4599 -0.0588
  181MOL0     H24425  11.274   1.153   7.043  0.3064 -0.9100  1.1630
  181MOL0     H24426  11.328   1.311   7.003 -1.7940  1.6658 -0.2031
  181MOL0     H24427  11.365   1.333   7.264 -0.9462  1.9430 -1.6508
  181MOL0     H24428  11.448   1.182   7.201 -1.3484 -1.6610  3.0933
  181MOL0     H24429  11.287   1.032   7.246 -1.2477 -0.0238 -0.7804
  181MOL0     H24430  11.178   1.151   7.318  1.4850  2.4921 -0.3744
  181MOL0     H24431  11.451   1.110   7.439  0.0164  3.5811  0.9697
  181MOL0     H24432  11.318   1.003   7.473  1.3521  1.5765  2.8898
  181MOL0     H24433  11.211   1.384   7.646  0.2130  0.0305  1.9518
  181MOL0     H24434  11.167   1.225   6.844 -2.0056  0.9304 -1.2991
  181MOL0     H24435  10.957   1.172   6.714 -2.2247  0.3662 -0.0315
  182MOL0     O24436   8.204   7.486   1.023 -0.1693  0.0691  0.1199
  182MOL0     C24437   8.298   7.538   0.961  0.7653 -0.0282 -0.5947
  182MOL0     O24438   8.303   7.674   0.916 -0.0077  0.4996 -0.2026
  182MOL0     C24439   8.192   7.753   0.939 -0.1241  0.5023  0.3075
  182MOL0     C24440   8.213   7.864   1.020 -0.0742 -0.0969  0.2802
  182MOL0     C24441   8.110   7.944   1.044  0.4433  0.6634  0.6101
  182MOL0     C24442   7.986   7.929   0.988  0.7391  0.0151  0.7505
  182MOL0     O24443   7.880   8.018   1.018  0.3581  0.1691 -0.1226
  182MOL0     C24444   7.887   8.084   1.142  0.3709  0.0277 -0.4642
  182MOL0     C24445   7.767   8.173   1.174  0.0883  0.3032  0.0959
  182MOL0     C24446   7.638   8.091   1.160 -0.7514 -0.5400  0.4384
  182MOL0     C24447   7.514   8.184   1.162  0.0117  1.0256  0.3395
  182MOL0     C24448   7.383   8.106   1.166  0.7423 -0.3476 -0.7260
  182MOL0     C24449   7.374   7.989   1.066 -0.4622  0.8368  0.8399
  182MOL0     C24450   7.220   7.952   1.060 -0.4121  1.0174  0.6296
  182MOL0     C24451   7.151   7.929   1.185  0.0210 -0.1319 -0.3583
  182MOL0     N24452   7.015   7.875   1.164 -0.3079  0.0399  1.0352
  182MOL0     C24453   6.992   7.742   1.133  0.3844 -0.1758 -0.6337
  182MOL0     C24454   6.855   7.736   1.108  0.2824  0.1248  0.6330
  182MOL0     C24455   6.788   7.613   1.058 -0.3685 -0.2298 -0.2075
  182MOL0     C24456   6.650   7.580   1.121 -0.5406  0.0856 -0.8817
  182MOL0     C24457   6.532   7.654   1.048 -0.3180 -0.3066 -0.4676
  182MOL0     C24458   6.403   7.617   1.110  0.1761  0.0848  0.2038
  182MOL0     O24459   6.297   7.699   1.059 -0.3243 -0.0979 -0.1408
  182MOL0     C24460   6.165   7.654   1.066  0.0297  0.7264 -0.1547
  182MOL0     C24461   6.068   7.717   0.985  0.1704  0.4841 -0.5665
  182MOL0     C24462   5.927   7.686   0.991 -0.2789  0.5077 -0.1082
  182MOL0     C24463   5.835   7.750   0.894  0.3816 -0.2559  0.8392
  182MOL0     C24464   5.884   7.590   1.089  0.2429  0.1664  0.2927
  182MOL0     C24465   5.738   7.549   1.105 -0.7787  0.0516 -0.3115
  182MOL0     O24466   5.721   7.451   1.203  0.2077 -0.2852 -0.1544
  182MOL0     C24467   5.589   7.428   1.236 -0.0331  0.9833  0.1070
  182MOL0     C24468   5.564   7.435   1.373  0.5651 -0.6035  0.0271
  182MOL0     C24469   5.432   7.398   1.417  0.1994 -0.1715 -0.2515
  182MOL0     C24470   5.330   7.344   1.339  0.3495 -1.2249  0.3189
  182MOL0     O24471   5.216   7.313   1.413 -0.3499  0.6178  0.0836
  182MOL0     C24472   5.100   7.287   1.336  0.4752  0.3172  0.1819
  182MOL0     C24473   4.979   7.253   1.422 -0.8020  0.3034  0.3864
  182MOL0     C24474   4.933   7.390   1.478 -0.8831  0.4584 -0.1283
  182MOL0     C24475   4.782   7.424   1.448  0.3723 -0.0684  0.1333
  182MOL0     C24476   4.692   7.302   1.499 -0.7266  0.7104 -0.1735
  182MOL0     C24477   4.550   7.337   1.508 -0.2782  0.3841  0.2818
  182MOL0     C24478   4.456   7.230   1.527  0.7036 -0.0222  0.6057
  182MOL0     C24479   4.466   7.152   1.655 -0.6387  0.1776  0.5395
  182MOL0    Cl24480   4.611   7.033   1.639  0.5358  0.2230  0.5765
  182MOL0     C24481   5.350   7.347   1.199 -0.8745  0.2359  0.2735
  182MOL0     C24482   5.484   7.375   1.148 -0.4961 -0.1922  0.3607
  182MOL0     O24483   5.645   7.611   1.052  0.7232  0.1621  0.8716
  182MOL0     C24484   5.977   7.532   1.181  0.1030  0.2247  1.0484
  182MOL0     C24485   6.118   7.560   1.164  0.8537  0.2028 -0.5203
  182MOL0     N24486   6.805   7.865   1.128 -0.3794  0.0720  0.1197
  182MOL0     N24487   6.902   7.946   1.163  0.2103  0.3177 -0.6951
  182MOL0     C24488   7.968   7.821   0.896 -0.2601  0.6336 -0.6264
  182MOL0     C24489   8.072   7.728   0.874 -0.3029 -1.0000 -0.3886
  182MOL0     C24490   8.425   7.456   0.951 -1.0571  0.4144  0.3115
  182MOL0     C24491   8.549   7.525   0.934  0.3287 -0.2035  0.3716
  182MOL0     C24492   8.671   7.456   0.933 -0.7885  0.0094  0.3472
  182MOL0     C24493   8.673   7.315   0.946 -0.0806 -0.3555 -0.2337
  182MOL0     O24494   8.794   7.247   0.936  0.1178  0.1892  0.0613
  182MOL0     C24495   8.800   7.110   0.983  0.0441  0.4260  0.4556
  182MOL0     C24496   8.944   7.059   1.012  0.4053 -0.7494 -0.2955
  182MOL0     C24497   8.941   6.927   1.099  0.5551 -0.5391  0.7201
  182MOL0     C24498   8.907   6.803   1.019 -0.0769  0.0677 -1.0890
  182MOL0     C24499   8.907   6.679   1.108  1.0814 -0.0378  0.2038
  182MOL0     C24500   8.900   6.581   1.180 -0.0294 -1.2289  0.0923
  182MOL0     C24501   8.550   7.249   0.959  0.3107  0.0342 -0.0691
  182MOL0     C24502   8.426   7.319   0.966 -1.1826  0.6153  0.5111
  182MOL0     H24503   8.307   7.890   1.068 -0.5887  0.8539  0.8247
  182MOL0     H24504   8.130   8.021   1.117 -0.1527  1.5851 -0.1833
  182MOL0     H24505   7.904   8.014   1.225 -2.8685  2.9732  3.0341
  182MOL0     H24506   7.977   8.145   1.131 -0.0542  0.8837  0.5896
  182MOL0     H24507   7.776   8.216   1.274  1.1807 -1.7037  0.9184
  182MOL0     H24508   7.767   8.252   1.098 -2.4155  0.5752  0.2806
  182MOL0     H24509   7.638   8.034   1.066  1.2283 -0.0986  0.1326
  182MOL0     H24510   7.633   8.007   1.231  0.2013  0.5380  1.8201
  182MOL0     H24511   7.526   8.244   1.253  1.9361 -2.3325  2.5483
  182MOL0     H24512   7.513   8.245   1.072 -0.8995 -0.6890 -0.8604
  182MOL0     H24513   7.366   8.058   1.263  0.8290 -1.9144 -1.4560
  182MOL0     H24514   7.305   8.180   1.147  1.2173  0.4757  0.4666
  182MOL0     H24515   7.418   8.012   0.968 -0.0154  0.3467  0.9217
  182MOL0     H24516   7.428   7.902   1.105  0.4876  0.5508 -1.0027
  182MOL0     H24517   7.172   8.021   0.991  0.0281 -0.2476 -1.0332
  182MOL0     H24518   7.212   7.855   1.009 -0.7648 -0.8839  3.9621
  182MOL0     H24519   7.140   8.031   1.224 -1.2438  1.2882 -4.0157
  182MOL0     H24520   7.204   7.872   1.261  2.4602  1.3523 -0.8430
  182MOL0     H24521   7.058   7.657   1.121 -0.3297 -0.7403 -0.6345
  182MOL0     H24522   6.776   7.615   0.949  1.0204  0.8966 -0.3637
  182MOL0     H24523   6.854   7.531   1.088 -0.4635 -0.3764 -0.3933
  182MOL0     H24524   6.666   7.611   1.225 -1.0118 -1.8472 -0.1965
  182MOL0     H24525   6.624   7.474   1.127  2.4483 -0.8823 -2.6956
  182MOL0     H24526   6.533   7.625   0.942  1.3319 -0.9046 -0.3120
  182MOL0     H24527   6.538   7.763   1.051  0.0664 -0.3170 -0.7932
  182MOL0     H24528   6.410   7.633   1.218  2.6187  1.0724 -0.0410
  182MOL0     H24529   6.387   7.510   1.091  0.5313  0.2823 -1.3824
  182MOL0     H24530   6.096   7.788   0.907  2.5364 -0.0338 -0.2698
  182MOL0     H24531   5.885   7.770   0.799 -2.2576 -3.4282 -1.4211
  182MOL0     H24532   5.739   7.706   0.868 -0.1738  1.4554 -0.1355
  182MOL0     H24533   5.811   7.845   0.943 -1.2907  1.4112 -2.8657
  182MOL0     H24534   5.646   7.460   1.439 -0.0261 -0.2363  0.6328
  182MOL0     H24535   5.420   7.393   1.525  2.5961 -2.8476  0.0107
  182MOL0     H24536   5.075   7.352   1.251  1.0339 -1.2147 -1.2235
  182MOL0     H24537   5.116   7.189   1.288  0.7138  0.2174  0.4655
  182MOL0     H24538   4.896   7.207   1.368 -0.1917 -1.5124  0.9423
  182MOL0     H24539   4.992   7.192   1.512 -1.8861  0.1141  0.4236
  182MOL0     H24540   4.982   7.478   1.435 -1.4928 -0.7564 -3.6274
  182MOL0     H24541   4.953   7.397   1.586  0.6809 -1.3068 -0.2508
  182MOL0     H24542   4.742   7.502   1.515 -2.0000 -1.7159  0.7659
  182MOL0     H24543   4.761   7.458   1.347  0.4431  2.4196  0.8833
  182MOL0     H24544   4.731   7.274   1.597 -1.3851  2.7156  0.7073
  182MOL0     H24545   4.694   7.214   1.434 -1.0350  1.3549 -1.0813
  182MOL0     H24546   4.548   7.405   1.593  1.6302  0.0104  0.6620
  182MOL0     H24547   4.514   7.398   1.424 -0.2861  0.6902  0.5040
  182MOL0     H24548   4.468   7.171   1.436 -0.0577  1.2855 -0.3854
  182MOL0     H24549   4.354   7.269   1.521  0.4974 -0.3763  1.7123
  182MOL0     H24550   4.373   7.095   1.671 -0.0032 -0.9321  0.4083
  182MOL0     H24551   4.486   7.226   1.733  0.0687  1.5276 -0.8804
  182MOL0     H24552   5.267   7.320   1.134 -1.8114  3.0239  0.1877
  182MOL0     H24553   5.501   7.357   1.042 -0.2297  0.8421  0.2181
  182MOL0     H24554   5.960   7.467   1.266 -2.2378 -0.1721  0.3598
  182MOL0     H24555   6.181   7.516   1.241 -0.3006 -0.2639  0.1943
  182MOL0     H24556   7.869   7.807   0.853 -0.0939  1.1018 -1.1834
  182MOL0     H24557   8.052   7.648   0.803  0.2358  0.5525 -2.3644
  182MOL0     H24558   8.564   7.630   0.912  2.1661 -0.6824 -0.9349
  182MOL0     H24559   8.755   7.519   0.905 -1.7796  0.6711 -1.3266
  182MOL0     H24560   8.745   7.112   1.077 -1.5300  3.0684 -0.4256
  182MOL0     H24561   8.753   7.056   0.900 -0.4650 -0.0212  1.0298
  182MOL0     H24562   8.997   7.139   1.063  1.2341 -0.8188 -1.0174
  182MOL0     H24563   9.000   7.046   0.918  0.5255  0.6246 -0.4308
  182MOL0     H24564   8.861   6.944   1.172  0.4224 -4.5367  1.7647
  182MOL0     H24565   9.032   6.923   1.159  0.5995  3.7567  1.2453
  182MOL0     H24566   8.988   6.796   0.946  0.2157 -2.2851 -0.5931
  182MOL0     H24567   8.807   6.816   0.976 -1.1042  1.8294  1.5870
  182MOL0     H24568   8.880   6.519   1.265  1.1892 -2.7584 -0.6959
  182MOL0     H24569   8.547   7.141   0.967  0.5869  0.0247 -0.0676
  182MOL0     H24570   8.328   7.271   0.966 -0.9045  0.0399  0.3812
  183MOL0     O24571   8.720   0.438   4.744 -0.1144 -0.3387  0.0800
  183MOL0     C24572   8.775   0.454   4.637  0.5722 -0.1701 -0.2793
  183MOL0     O24573   8.729   0.414   4.525 -0.0388  0.6078  0.4960
  183MOL0     C24574   8.601   0.371   4.510  0.5013  0.6155 -0.2407
  183MOL0     C24575   8.565   0.256   4.432  0.4129 -0.8649  0.0240
  183MOL0     C24576   8.432   0.215   4.408 -1.5245 -0.6093  0.5896
  183MOL0     C24577   8.328   0.294   4.451  0.7786 -1.3004 -0.3303
  183MOL0     O24578   8.213   0.256   4.404 -0.7560  0.4718  0.1517
  183MOL0     C24579   8.105   0.234   4.497  0.0591 -0.3226  0.0591
  183MOL0     C24580   8.037   0.107   4.464 -0.4696  0.9957  0.2764
  183MOL0     C24581   7.911   0.100   4.545  0.0060 -0.2978  0.1423
  183MOL0     C24582   7.855  -0.043   4.530  0.0533  0.0941 -0.5296
  183MOL0     C24583   7.721  -0.058   4.464 -0.0635 -1.0339 -0.5690
  183MOL0     C24584   7.673  -0.208   4.448  0.0387 -0.5518 -0.9624
  183MOL0     C24585   7.569  -0.213   4.335 -0.1238 -0.5842 -0.1411
  183MOL0     C24586   7.518  -0.351   4.319 -0.1467  0.4020  0.5062
  183MOL0     N24587   7.441  -0.393   4.437 -0.9156  0.5473  0.3206
  183MOL0     C24588   7.313  -0.362   4.466 -0.0765  0.5907  0.3754
  183MOL0     C24589   7.283  -0.448   4.569  0.0581 -0.2338 -0.4704
  183MOL0     C24590   7.160  -0.449   4.655  0.1043 -0.1234  0.5106
  183MOL0     C24591   7.036  -0.491   4.575  0.5079 -0.7659  0.2643
  183MOL0     C24592   6.930  -0.512   4.688 -0.7921 -0.1131  0.0704
  183MOL0     C24593   6.845  -0.392   4.731  0.0675  0.1720 -1.0384
  183MOL0     O24594   6.767  -0.351   4.621 -0.0489  0.4352  0.0121
  183MOL0     C24595   6.663  -0.274   4.660 -0.4650 -0.8569  0.1262
  183MOL0     C24596   6.535  -0.319   4.683  0.3489 -0.7720  1.0080
  183MOL0     C24597   6.434  -0.228   4.730  0.0337  0.8688 -0.1392
  183MOL0     C24598   6.290  -0.295   4.737 -0.4839  0.1366  1.3463
  183MOL0     C24599   6.464  -0.097   4.767  0.7780  0.9694  0.0744
  183MOL0     C24600   6.366  -0.002   4.825  1.0238  0.2614 -0.1018
  183MOL0     O24601   6.413   0.082   4.925 -0.0852 -0.4431 -0.3291
  183MOL0     C24602   6.311   0.151   4.989  0.0586  0.6343  0.7446
  183MOL0     C24603   6.196   0.090   5.039 -0.2181  0.3119  0.0455
  183MOL0     C24604   6.095   0.162   5.100  0.0567  0.1107 -0.2539
  183MOL0     C24605   6.099   0.304   5.110  0.3562 -0.0913  0.1602
  183MOL0     O24606   5.995   0.354   5.179 -0.3291 -0.8649 -0.2762
  183MOL0     C24607   5.993   0.494   5.202  0.5533  0.9983  0.1836
  183MOL0     C24608   5.871   0.536   5.283 -0.9814  0.1419 -0.7843
  183MOL0     C24609   5.739   0.513   5.207 -0.2033 -0.4326 -0.0631
  183MOL0     C24610   5.619   0.573   5.277 -0.6830  0.6767  0.2221
  183MOL0     C24611   5.503   0.572   5.179  0.3096 -1.0211 -0.6675
  183MOL0     C24612   5.388   0.652   5.249  0.2070 -0.0514 -0.1350
  183MOL0     C24613   5.245   0.637   5.189 -0.8592  0.1161 -0.6706
  183MOL0     C24614   5.141   0.692   5.289 -0.8176 -0.4665  0.4726
  183MOL0    Cl24615   4.983   0.680   5.202  0.0277  0.1292  0.0023
  183MOL0     C24616   6.216   0.361   5.061 -1.0197  0.1292  0.3581
  183MOL0     C24617   6.317   0.289   4.997  0.6248  0.0646  0.0976
  183MOL0     O24618   6.249  -0.008   4.783 -0.2292 -0.1163 -0.3453
  183MOL0     C24619   6.594  -0.056   4.750  1.0873 -0.2283  0.5488
  183MOL0     C24620   6.683  -0.138   4.691  0.1118  0.4352 -0.8224
  183MOL0     N24621   7.399  -0.519   4.606 -0.0562  0.0031  0.0400
  183MOL0     N24622   7.495  -0.478   4.529  0.3260 -0.2200  0.1376
  183MOL0     C24623   8.356   0.402   4.538 -0.3851  0.0061  0.2777
  183MOL0     C24624   8.489   0.442   4.562  0.3444 -0.0287 -0.2624
  183MOL0     C24625   8.905   0.530   4.624 -0.0388 -0.2702  0.3411
  183MOL0     C24626   8.965   0.550   4.492  0.0285  0.7770 -0.4538
  183MOL0     C24627   9.094   0.612   4.483  1.1616 -0.3340 -0.2499
  183MOL0     C24628   9.167   0.637   4.604 -0.2125 -0.2715 -0.6843
  183MOL0     O24629   9.291   0.674   4.611  0.5804 -0.1720 -0.2568
  183MOL0     C24630   9.377   0.712   4.499 -0.1709  0.4777 -0.5627
  183MOL0     C24631   9.443   0.601   4.412 -0.1971  0.7260 -0.2219
  183MOL0     C24632   9.513   0.507   4.513  0.4381 -0.3592 -0.0733
  183MOL0     C24633   9.577   0.395   4.432 -0.3842 -1.0205  0.1721
  183MOL0     C24634   9.660   0.308   4.519  0.3896 -0.6020 -0.4769
  183MOL0     C24635   9.729   0.240   4.589 -0.0205 -0.2287 -0.1150
  183MOL0     C24636   9.104   0.618   4.729 -0.0878 -0.2026  0.4073
  183MOL0     C24637   8.979   0.568   4.733  0.0178 -0.0609 -0.5863
  183MOL0     H24638   8.649   0.204   4.388  1.2804  1.8614 -1.8131
  183MOL0     H24639   8.402   0.127   4.353 -2.2236  0.2445 -0.4577
  183MOL0     H24640   8.146   0.237   4.598 -1.4247  2.3687  0.6819
  183MOL0     H24641   8.037   0.319   4.486  2.6816  1.7434 -1.7146
  183MOL0     H24642   8.015   0.100   4.357  1.2652 -2.5511  0.0207
  183MOL0     H24643   8.107   0.027   4.489  0.5591  1.1991 -1.7173
  183MOL0     H24644   7.927   0.122   4.651 -0.2375  1.8805 -0.2358
  183MOL0     H24645   7.834   0.172   4.517 -0.3003 -0.0473  1.5684
  183MOL0     H24646   7.915  -0.121   4.483  0.6478 -1.1886  2.1819
  183MOL0     H24647   7.836  -0.078   4.632 -4.7006 -0.3457 -1.3725
  183MOL0     H24648   7.644  -0.001   4.516  0.9903 -0.7380  0.7120
  183MOL0     H24649   7.729  -0.007   4.367  2.4899  0.0216  0.1271
  183MOL0     H24650   7.750  -0.280   4.418 -0.1297 -0.6503 -1.1597
  183MOL0     H24651   7.632  -0.237   4.545  1.3840 -0.8031 -0.4462
  183MOL0     H24652   7.479  -0.155   4.357 -1.8172 -2.3119 -2.1076
  183MOL0     H24653   7.604  -0.192   4.234  1.0850  1.6079  0.6481
  183MOL0     H24654   7.587  -0.423   4.274  0.2001  1.0936 -0.0847
  183MOL0     H24655   7.443  -0.328   4.243  1.0337  4.0104  0.2548
  183MOL0     H24656   7.243  -0.299   4.411 -0.3756 -1.0382 -1.2142
  183MOL0     H24657   7.186  -0.517   4.736  0.9307 -0.5585 -0.1006
  183MOL0     H24658   7.153  -0.353   4.707  2.1057 -1.4041  3.4171
  183MOL0     H24659   7.054  -0.587   4.525 -0.0202 -0.6246 -0.2035
  183MOL0     H24660   7.006  -0.413   4.505  1.7936  1.1577  1.7533
  183MOL0     H24661   6.979  -0.551   4.778 -1.4235  2.9889  1.8915
  183MOL0     H24662   6.864  -0.590   4.650 -0.4395  0.9995 -3.1837
  183MOL0     H24663   6.913  -0.314   4.765  0.1825  0.1337 -1.1793
  183MOL0     H24664   6.778  -0.429   4.809  0.8200 -1.0887 -0.9547
  183MOL0     H24665   6.502  -0.418   4.652 -0.7540 -0.7314  1.9940
  183MOL0     H24666   6.244  -0.299   4.836 -0.8793  1.1878  1.2202
  183MOL0     H24667   6.216  -0.245   4.674  0.2908  3.0692  2.5699
  183MOL0     H24668   6.293  -0.396   4.696  2.0527  1.3655 -1.8428
  183MOL0     H24669   6.173  -0.016   5.030  1.0098 -0.2061  2.2930
  183MOL0     H24670   6.002   0.118   5.135 -1.7292  3.3387 -0.5248
  183MOL0     H24671   6.082   0.516   5.261  0.0657  0.1853  1.2514
  183MOL0     H24672   5.997   0.558   5.113  0.4898 -0.2617 -0.7518
  183MOL0     H24673   5.871   0.484   5.378  1.1413 -2.3736 -2.0399
  183MOL0     H24674   5.895   0.638   5.315  2.8196 -0.6334 -0.6433
  183MOL0     H24675   5.732   0.405   5.189 -3.2456 -0.3470  0.1099
  183MOL0     H24676   5.746   0.543   5.102 -2.3783 -1.1938 -0.4741
  183MOL0     H24677   5.592   0.510   5.362 -2.7683 -0.9296 -1.5148
  183MOL0     H24678   5.644   0.677   5.300 -0.6694  0.6180  0.4727
  183MOL0     H24679   5.476   0.466   5.184 -0.5464 -0.8089  3.9428
  183MOL0     H24680   5.531   0.625   5.087 -0.4201 -0.2060 -0.4366
  183MOL0     H24681   5.376   0.609   5.349 -2.3971  0.5631 -0.0993
  183MOL0     H24682   5.417   0.757   5.256  2.2233 -0.4823 -1.2697
  183MOL0     H24683   5.220   0.531   5.176 -3.7745  0.4585  1.0540
  183MOL0     H24684   5.251   0.692   5.095 -0.2104 -2.2965 -2.1429
  183MOL0     H24685   5.178   0.791   5.317 -0.9092  0.4325 -2.2761
  183MOL0     H24686   5.144   0.628   5.378 -0.4581 -3.2959 -1.4505
  183MOL0     H24687   6.233   0.468   5.066  0.2709  0.0869 -1.9439
  183MOL0     H24688   6.406   0.336   4.956 -0.9278  1.6812 -1.5717
  183MOL0     H24689   6.625   0.046   4.773 -2.0409  0.4389  2.4260
  183MOL0     H24690   6.775  -0.086   4.670  0.0451  0.5224 -0.8996
  183MOL0     H24691   8.273   0.459   4.579 -0.4632  0.3301 -0.3160
  183MOL0     H24692   8.502   0.540   4.607 -0.9414 -0.5734  1.3691
  183MOL0     H24693   8.911   0.520   4.403 -0.1882 -0.1557 -0.0301
  183MOL0     H24694   9.142   0.619   4.386  3.5076 -2.8007  0.6035
  183MOL0     H24695   9.322   0.785   4.438 -0.8821  0.9784  0.6323
  183MOL0     H24696   9.471   0.754   4.536  0.7811 -3.4228  1.9808
  183MOL0     H24697   9.516   0.643   4.342 -1.9461  1.4477 -1.6927
  183MOL0     H24698   9.366   0.541   4.364  1.0304 -0.0277 -1.3047
  183MOL0     H24699   9.439   0.467   4.584 -0.8878  0.9794 -0.6410
  183MOL0     H24700   9.585   0.564   4.573 -1.6202  0.5178  1.7103
  183MOL0     H24701   9.641   0.433   4.353 -1.0684 -0.2057 -0.0051
  183MOL0     H24702   9.500   0.340   4.378 -1.4564  1.7174 -1.2745
  183MOL0     H24703   9.801   0.193   4.653  0.8468  0.9715 -0.1662
  183MOL0     H24704   9.159   0.631   4.822  3.4439 -2.5912 -1.1338
  183MOL0     H24705   8.940   0.552   4.833  0.1598  0.4124 -0.4520
  184MOL0     O24706   6.808  11.237   8.707  0.2139 -0.9152 -0.1643
  184MOL0     C24707   6.832  11.346   8.766  0.5723  0.1602  0.0945
  184MOL0     O24708   6.739  11.416   8.836  0.2343  0.5545  0.0117
  184MOL0     C24709   6.602  11.379   8.840 -0.9775  0.2177  0.0535
  184MOL0     C24710   6.506  11.485   8.836  0.3078  0.5352 -0.6586
  184MOL0     C24711   6.371  11.459   8.852  0.4945  0.5557 -0.0938
  184MOL0     C24712   6.324  11.325   8.878 -0.1817 -0.7672  0.0881
  184MOL0     O24713   6.193  11.288   8.897 -0.1317  0.4542  0.2654
  184MOL0     C24714   6.099  11.336   8.798  0.4834  0.2995 -0.3211
  184MOL0     C24715   5.955  11.303   8.860  0.1865 -1.0436 -0.3388
  184MOL0     C24716   5.850  11.333   8.756  0.7617  0.0618  0.3535
  184MOL0     C24717   5.713  11.260   8.788 -0.4709 -0.4326 -1.1042
  184MOL0     C24718   5.598  11.293   8.694  1.1346  0.3597  0.3628
  184MOL0     C24719   5.467  11.219   8.736  0.4808 -0.6561  0.8805
  184MOL0     C24720   5.350  11.254   8.635 -0.4909  0.9336  0.1122
  184MOL0     C24721   5.243  11.140   8.637  0.4917 -0.3161  0.6049
  184MOL0     N24722   5.137  11.168   8.535  0.0616 -0.5998 -0.5698
  184MOL0     C24723   5.014  11.238   8.553 -0.6970  0.2481  0.6413
  184MOL0     C24724   4.954  11.237   8.433 -0.3702 -0.6673  0.0056
  184MOL0     C24725   4.822  11.310   8.410  0.5856 -0.3561 -0.7031
  184MOL0     C24726   4.783  11.321   8.262 -0.1134 -0.3957 -0.1876
  184MOL0     C24727   4.687  11.430   8.252  0.2452 -0.6361 -0.4042
  184MOL0     C24728   4.604  11.433   8.116  0.2092 -0.3595 -1.0953
  184MOL0     O24729   4.548  11.297   8.101  0.5203 -0.0046 -0.1396
  184MOL0     C24730   4.462  11.272   7.991  0.3506 -0.7140 -0.1740
  184MOL0     C24731   4.415  11.137   7.970 -0.0192  0.7645 -0.6823
  184MOL0     C24732   4.315  11.096   7.885  0.8106  0.1306 -0.3392
  184MOL0     C24733   4.262  10.952   7.890  0.2027  0.0168  0.6190
  184MOL0     C24734   4.260  11.203   7.802 -0.5038  0.2981 -0.6076
  184MOL0     C24735   4.154  11.180   7.705 -0.4308  0.2586 -0.1021
  184MOL0     O24736   4.091  11.293   7.654 -0.1867 -0.0616 -0.3723
  184MOL0     C24737   3.964  11.277   7.617 -0.2761 -0.8404  0.2296
  184MOL0     C24738   3.874  11.199   7.680  0.3325  0.6932 -0.4840
  184MOL0     C24739   3.740  11.197   7.660  0.3219  0.3107  0.3522
  184MOL0     C24740   3.679  11.289   7.572  0.2700 -0.4414  0.1083
  184MOL0     O24741   3.541  11.288   7.571  0.2095  0.2660 -0.3544
  184MOL0     C24742   3.474  11.399   7.522  0.4041  0.0652 -0.4031
  184MOL0     C24743   3.332  11.371   7.548  0.0822  0.3054 -0.1151
  184MOL0     C24744   3.270  11.253   7.477  0.2613 -0.1914 -0.0654
  184MOL0     C24745   3.128  11.287   7.411 -0.1096  0.2771  0.1734
  184MOL0     C24746   3.048  11.159   7.382  0.1854 -0.3141 -0.4764
  184MOL0     C24747   2.917  11.180   7.303  0.8304  0.2268  0.0887
  184MOL0     C24748   2.804  11.247   7.383 -0.1008 -0.1210  0.1045
  184MOL0     C24749   2.678  11.258   7.297  0.6615  0.2534  0.1356
  184MOL0    Cl24750   2.554  11.289   7.416  0.1111 -0.1276 -0.4336
  184MOL0     C24751   3.768  11.381   7.510 -0.0409  0.2924 -0.1916
  184MOL0     C24752   3.907  11.370   7.533  0.0372  0.3185  0.2353
  184MOL0     O24753   4.138  11.065   7.671  0.3528  0.8710 -0.2581
  184MOL0     C24754   4.305  11.339   7.823  0.4184 -0.1382  0.3655
  184MOL0     C24755   4.401  11.379   7.914  0.2874 -0.5285  0.1036
  184MOL0     N24756   5.037  11.174   8.351 -0.1796 -0.0532 -0.4849
  184MOL0     N24757   5.139  11.123   8.407  0.1687 -0.2704 -0.1014
  184MOL0     C24758   6.422  11.224   8.888 -0.6191  0.5239 -0.1165
  184MOL0     C24759   6.560  11.250   8.863  0.6006 -0.2322 -0.0358
  184MOL0     C24760   6.969  11.387   8.755  0.2792 -0.4957 -0.0284
  184MOL0     C24761   7.065  11.306   8.687 -0.6838  0.4651 -0.4426
  184MOL0     C24762   7.200  11.343   8.683  0.0557 -0.1347 -0.6533
  184MOL0     C24763   7.250  11.466   8.739  0.3121 -0.3681  0.0848
  184MOL0     O24764   7.379  11.496   8.756 -0.3404 -0.6822  0.4054
  184MOL0     C24765   7.480  11.420   8.702 -0.3729  0.3892 -0.4965
  184MOL0     C24766   7.617  11.473   8.732 -0.1672 -0.1956  0.1130
  184MOL0     C24767   7.632  11.621   8.698 -0.0560 -0.1001  0.0196
  184MOL0     C24768   7.762  11.680   8.737 -0.2588 -1.1090 -0.1006
  184MOL0     C24769   7.776  11.824   8.708 -0.3063 -0.6837  1.1788
  184MOL0     C24770   7.768  11.945   8.682  0.9655  0.3569  0.8897
  184MOL0     C24771   7.147  11.550   8.789  0.0303  0.0089 -0.2985
  184MOL0     C24772   7.013  11.509   8.802 -0.0309  0.0092  0.9000
  184MOL0     H24773   6.544  11.583   8.811  0.0049  1.0005  0.6224
  184MOL0     H24774   6.297  11.538   8.839 -2.7848 -2.0277  1.3769
  184MOL0     H24775   6.104  11.443   8.777  0.4992  1.2007  3.4313
  184MOL0     H24776   6.108  11.274   8.709 -0.1970 -0.1594 -0.0767
  184MOL0     H24777   5.950  11.196   8.882 -2.9440 -0.9134  0.0903
  184MOL0     H24778   5.936  11.372   8.943  1.5978  0.9310 -1.5657
  184MOL0     H24779   5.826  11.439   8.772  0.1276 -0.1254  0.6700
  184MOL0     H24780   5.880  11.322   8.651 -2.2267  2.0277 -0.8634
  184MOL0     H24781   5.731  11.152   8.789 -0.3236 -0.4060 -0.7781
  184MOL0     H24782   5.686  11.293   8.889  1.2795  2.2328 -1.4144
  184MOL0     H24783   5.576  11.401   8.697 -2.9281 -0.3063  0.2722
  184MOL0     H24784   5.618  11.270   8.589 -0.1383 -2.0555  0.5923
  184MOL0     H24785   5.487  11.112   8.723 -4.2176 -1.4809 -1.6286
  184MOL0     H24786   5.433  11.243   8.837 -3.9417  0.0139 -0.5664
  184MOL0     H24787   5.307  11.353   8.655  2.6507  2.7067 -1.2158
  184MOL0     H24788   5.397  11.247   8.537  0.6458 -2.1203  0.7676
  184MOL0     H24789   5.195  11.128   8.735 -0.3366 -0.7828  0.1548
  184MOL0     H24790   5.287  11.041   8.622  1.1612 -0.0034  0.4583
  184MOL0     H24791   4.972  11.285   8.641 -0.3217  0.0189  0.9461
  184MOL0     H24792   4.739  11.261   8.461  0.1607 -0.6670 -1.6775
  184MOL0     H24793   4.835  11.408   8.456  0.8949 -0.2988 -0.9059
  184MOL0     H24794   4.738  11.228   8.226  0.6158 -0.2362 -1.5706
  184MOL0     H24795   4.869  11.351   8.201  0.3316 -0.0538  0.5933
  184MOL0     H24796   4.744  11.523   8.256 -1.8049  0.6905 -0.1552
  184MOL0     H24797   4.616  11.427   8.335  1.2589 -0.3530  0.4999
  184MOL0     H24798   4.674  11.459   8.037  0.0351 -1.0585 -1.4922
  184MOL0     H24799   4.528  11.510   8.122  0.3608 -0.1698 -1.6268
  184MOL0     H24800   4.466  11.059   8.026 -1.3135 -1.3665 -2.3132
  184MOL0     H24801   4.317  10.888   7.960 -0.8921 -2.2999 -0.5368
  184MOL0     H24802   4.159  10.952   7.925 -0.0338 -0.6807 -0.0581
  184MOL0     H24803   4.266  10.899   7.794  1.1870  1.4370 -0.1613
  184MOL0     H24804   3.907  11.133   7.759 -1.5363 -1.7459 -1.5873
  184MOL0     H24805   3.679  11.128   7.717  2.2490 -0.4094  1.6575
  184MOL0     H24806   3.498  11.490   7.578 -1.2888 -1.3266  2.8704
  184MOL0     H24807   3.471  11.418   7.414 -2.5902  2.0914 -0.0930
  184MOL0     H24808   3.320  11.365   7.656  2.3771  0.6794  0.1997
  184MOL0     H24809   3.279  11.463   7.519 -1.7268 -1.0970 -1.4922
  184MOL0     H24810   3.265  11.177   7.555  0.5627  2.5582  2.8264
  184MOL0     H24811   3.349  11.222   7.407 -1.0513 -0.0647 -1.6442
  184MOL0     H24812   3.066  11.351   7.475 -1.7756 -2.5751  1.5895
  184MOL0     H24813   3.158  11.345   7.323 -0.7195  0.0395 -0.1949
  184MOL0     H24814   3.034  11.098   7.472 -0.3983 -1.2694 -1.1890
  184MOL0     H24815   3.114  11.098   7.319 -1.4826 -1.8103 -0.8457
  184MOL0     H24816   2.948  11.236   7.214 -1.5687 -2.9183 -2.9920
  184MOL0     H24817   2.881  11.081   7.273  1.4454  0.2972 -0.9312
  184MOL0     H24818   2.832  11.346   7.423  1.4007 -1.5105  2.7703
  184MOL0     H24819   2.776  11.192   7.473 -2.0035 -1.6830 -1.3694
  184MOL0     H24820   2.657  11.165   7.245  1.6682 -0.1455  0.4098
  184MOL0     H24821   2.683  11.331   7.216 -2.2350 -0.9677 -1.2588
  184MOL0     H24822   3.732  11.453   7.437 -1.2652 -1.3023 -1.2378
  184MOL0     H24823   3.978  11.435   7.482 -0.0176  0.6697  0.5997
  184MOL0     H24824   4.265  11.423   7.766  2.1040  0.1602 -0.4426
  184MOL0     H24825   4.428  11.484   7.922  1.8368 -1.0222  1.9549
  184MOL0     H24826   6.391  11.125   8.916  0.7016 -0.1278 -0.8610
  184MOL0     H24827   6.628  11.166   8.871  1.6688  0.5243 -0.8218
  184MOL0     H24828   7.039  11.205   8.657  1.2436 -0.6647  1.4100
  184MOL0     H24829   7.263  11.263   8.648  1.8650 -0.9664  3.8197
  184MOL0     H24830   7.466  11.317   8.735 -2.0061  0.7101 -0.1085
  184MOL0     H24831   7.472  11.417   8.593  0.2514 -1.4139 -0.5222
  184MOL0     H24832   7.691  11.412   8.680  0.8674  0.4518  0.7911
  184MOL0     H24833   7.628  11.453   8.839  0.0556 -4.0017 -0.4794
  184MOL0     H24834   7.554  11.678   8.750 -0.3980  0.2897 -0.8964
  184MOL0     H24835   7.615  11.641   8.591 -0.5156 -0.9909 -0.0840
  184MOL0     H24836   7.835  11.631   8.671  1.0471  0.6183 -0.0112
  184MOL0     H24837   7.787  11.656   8.841 -1.2048 -0.7793  0.2105
  184MOL0     H24838   7.750  12.046   8.654 -1.5532 -0.7069 -1.7545
  184MOL0     H24839   7.168  11.642   8.843  0.0097 -1.4850  2.4348
  184MOL0     H24840   6.937  11.579   8.837  1.4126  1.7822  0.6292
  185MOL0     O24841   2.332   0.098  11.041 -0.0376  0.2071 -0.1278
  185MOL0     C24842   2.393   0.169  10.958 -0.4741  0.6258 -0.4821
  185MOL0     O24843   2.329   0.231  10.857 -0.5717 -0.0429  0.1558
  185MOL0     C24844   2.198   0.197  10.839  0.1698  0.0032 -0.4951
  185MOL0     C24845   2.097   0.213  10.938  0.0993 -0.8345  0.0359
  185MOL0     C24846   1.966   0.194  10.901  1.0331  0.3284  0.4865
  185MOL0     C24847   1.933   0.154  10.770  0.0158  1.0532 -0.2502
  185MOL0     O24848   1.803   0.142  10.736  0.2388  0.3538 -0.4065
  185MOL0     C24849   1.710   0.133  10.843 -0.0910 -0.0355 -0.4526
  185MOL0     C24850   1.573   0.089  10.797  0.6399 -0.1657  0.2774
  185MOL0     C24851   1.504   0.026  10.921  1.0131 -0.6814  0.2115
  185MOL0     C24852   1.365  -0.029  10.876  0.4392 -0.1924  0.0038
  185MOL0     C24853   1.289  -0.082  11.001  0.6670  0.3399  0.1126
  185MOL0     C24854   1.154  -0.153  10.971 -0.0018  0.1349 -0.0265
  185MOL0     C24855   1.080  -0.213  11.090  0.4118  0.4494 -0.8396
  185MOL0     C24856   0.952  -0.281  11.049  0.7743  0.8883 -0.7192
  185MOL0     N24857   0.847  -0.261  11.160 -0.1482  0.2539  0.4803
  185MOL0     C24858   0.731  -0.194  11.147  0.0767  0.3964 -0.2705
  185MOL0     C24859   0.673  -0.203  11.264  0.1982 -0.4217 -1.2020
  185MOL0     C24860   0.533  -0.155  11.302 -0.0109 -0.7486  0.2504
  185MOL0     C24861   0.499  -0.005  11.269 -0.2410  0.3354 -0.1128
  185MOL0     C24862   0.569   0.092  11.365  1.0605  0.5784 -0.4326
  185MOL0     C24863   0.722   0.102  11.349 -0.7854  0.3864  0.2235
  185MOL0     O24864   0.761   0.119  11.211  0.4976 -0.1573  0.2738
  185MOL0     C24865   0.891   0.156  11.180 -0.3941 -0.9100 -1.2122
  185MOL0     C24866   0.979   0.204  11.283 -0.8047  0.6912  0.5891
  185MOL0     C24867   1.107   0.264  11.242 -0.3218 -0.6573 -0.9169
  185MOL0     C24868   1.200   0.307  11.356  0.1899 -0.5667  0.0005
  185MOL0     C24869   1.137   0.269  11.105  0.0456  0.4821 -0.2031
  185MOL0     C24870   1.270   0.313  11.052  0.3612  1.1919  0.7317
  185MOL0     O24871   1.380   0.313  11.143  0.1840 -0.9400 -0.3461
  185MOL0     C24872   1.496   0.378  11.112 -0.0849  0.1893 -0.1214
  185MOL0     C24873   1.608   0.326  11.177 -0.5985  0.2577 -0.1156
  185MOL0     C24874   1.739   0.387  11.155  0.7643  1.3760  0.3161
  185MOL0     C24875   1.760   0.493  11.075 -0.1111  0.4423 -0.6282
  185MOL0     O24876   1.892   0.529  11.047 -0.0025  0.2126 -0.7452
  185MOL0     C24877   1.931   0.667  11.030  0.0831  0.3813 -1.3618
  185MOL0     C24878   2.060   0.679  11.113 -0.0210 -0.4949  0.5736
  185MOL0     C24879   2.173   0.609  11.040  0.5720 -0.1828 -0.3115
  185MOL0     C24880   2.295   0.612  11.130 -0.1559  0.1486 -0.2693
  185MOL0     C24881   2.415   0.554  11.054 -0.7398 -0.4086  1.0466
  185MOL0     C24882   2.559   0.568  11.112 -0.3546  0.4735 -0.2943
  185MOL0     C24883   2.569   0.482  11.235  0.5862 -0.1271 -0.3912
  185MOL0     C24884   2.720   0.476  11.265  0.2374  0.4134 -0.6593
  185MOL0    Cl24885   2.765   0.351  11.392 -0.1705  0.1854  0.2878
  185MOL0     C24886   1.647   0.532  11.006  0.9714  0.8932  0.1104
  185MOL0     C24887   1.523   0.471  11.019  0.2154 -0.5900  0.4114
  185MOL0     O24888   1.274   0.332  10.934 -0.5806  0.5170 -0.7470
  185MOL0     C24889   1.043   0.218  11.014 -1.0642 -0.0168  0.7138
  185MOL0     C24890   0.920   0.170  11.048 -0.2823 -0.4425  0.4955
  185MOL0     N24891   0.749  -0.284  11.341  0.1434  0.4544 -0.6078
  185MOL0     N24892   0.854  -0.314  11.278  0.4339  0.0928 -0.2585
  185MOL0     C24893   2.026   0.137  10.673  0.0999  0.1786  0.5775
  185MOL0     C24894   2.163   0.162  10.702 -0.1659 -0.1745  0.3188
  185MOL0     C24895   2.543   0.181  10.968 -0.6125  0.3001 -0.3448
  185MOL0     C24896   2.607   0.134  11.081  1.0793 -0.8378 -0.0236
  185MOL0     C24897   2.744   0.132  11.097 -0.3633  0.3027  0.0105
  185MOL0     C24898   2.824   0.192  10.998 -0.1639  0.3046 -0.0076
  185MOL0     O24899   2.961   0.197  11.026  0.4861 -0.7092 -0.3323
  185MOL0     C24900   3.034   0.294  10.951 -0.8811  0.0548 -0.0398
  185MOL0     C24901   3.171   0.323  11.021  0.2160  0.7677  0.0901
  185MOL0     C24902   3.273   0.226  10.957 -0.0497 -0.7829 -0.1520
  185MOL0     C24903   3.412   0.226  11.030  0.3761  0.5808  0.5816
  185MOL0     C24904   3.481   0.102  10.995  1.0229 -0.9633 -0.0067
  185MOL0     C24905   3.552   0.009  10.974  0.1180 -0.5700 -0.6277
  185MOL0     C24906   2.763   0.253  10.885 -0.7634  1.0274  0.6250
  185MOL0     C24907   2.622   0.240  10.864  0.4088  0.2805 -0.3418
  185MOL0     H24908   2.114   0.246  11.040 -1.6074  0.7949 -0.1425
  185MOL0     H24909   1.901   0.218  10.985  1.0514 -0.3133  0.6917
  185MOL0     H24910   1.735   0.052  10.913 -3.3400 -2.4173 -1.7673
  185MOL0     H24911   1.696   0.223  10.904 -0.7120  0.0334 -0.6880
  185MOL0     H24912   1.523   0.179  10.759  1.0522 -0.1167 -0.1601
  185MOL0     H24913   1.583   0.015  10.717 -0.7682  2.2269 -2.2879
  185MOL0     H24914   1.566  -0.051  10.966  1.0468 -0.8905 -0.1933
  185MOL0     H24915   1.504   0.103  10.999 -2.4241 -0.0663 -0.1985
  185MOL0     H24916   1.307   0.056  10.838  0.4758 -0.1202  0.1072
  185MOL0     H24917   1.373  -0.106  10.799 -1.3959 -1.1982  0.7675
  185MOL0     H24918   1.348  -0.140  11.072  0.4786  0.6712  0.5457
  185MOL0     H24919   1.259   0.011  11.051 -0.3363 -0.5059  1.1651
  185MOL0     H24920   1.088  -0.076  10.929  0.8027  0.0415 -1.5191
  185MOL0     H24921   1.172  -0.230  10.896 -0.2365  0.1686 -0.1168
  185MOL0     H24922   1.145  -0.282  11.144  1.5489  1.5344 -0.7854
  185MOL0     H24923   1.048  -0.128  11.150  0.6523  1.1205 -1.6509
  185MOL0     H24924   0.973  -0.387  11.032  0.3646  0.7170 -0.1655
  185MOL0     H24925   0.918  -0.236  10.955 -2.6185  0.3214  0.1194
  185MOL0     H24926   0.696  -0.153  11.052  1.6870 -2.8277 -2.4245
  185MOL0     H24927   0.459  -0.215  11.248 -1.9494  3.3089 -2.1337
  185MOL0     H24928   0.510  -0.169  11.408 -2.6209 -1.5649 -0.3446
  185MOL0     H24929   0.390   0.003  11.280 -0.5481  2.2602 -3.3814
  185MOL0     H24930   0.526   0.025  11.167 -0.0541 -0.1003 -0.1898
  185MOL0     H24931   0.541   0.072  11.468  1.5608  2.8422  0.1938
  185MOL0     H24932   0.525   0.192  11.359 -0.6133  0.2445  3.2743
  185MOL0     H24933   0.767   0.012  11.391  1.0063  0.7303 -0.8385
  185MOL0     H24934   0.754   0.186  11.411  0.8399 -0.6551  0.8648
  185MOL0     H24935   0.964   0.206  11.390 -2.9004  0.5678  0.3272
  185MOL0     H24936   1.137   0.339  11.440 -0.6622  1.0319 -1.1965
  185MOL0     H24937   1.254   0.217  11.387  1.2335  0.0753  0.0774
  185MOL0     H24938   1.263   0.392  11.331 -2.0225  0.9539 -0.7310
  185MOL0     H24939   1.597   0.253  11.256  0.0105  0.1460 -0.1299
  185MOL0     H24940   1.823   0.340  11.206  1.8083 -1.2111 -3.3616
  185MOL0     H24941   1.937   0.695  10.925 -1.9132  2.0059 -1.1097
  185MOL0     H24942   1.856   0.737  11.069  0.4358 -0.1269  0.2865
  185MOL0     H24943   2.072   0.788  11.116  3.0906 -0.7291 -0.1009
  185MOL0     H24944   2.052   0.643  11.216 -1.1044  1.3435  1.1838
  185MOL0     H24945   2.191   0.652  10.941  2.5542  3.0676  1.2979
  185MOL0     H24946   2.145   0.506  11.017 -1.6046 -0.3419  2.5344
  185MOL0     H24947   2.313   0.714  11.164  0.4463 -0.2047  0.4816
  185MOL0     H24948   2.269   0.556  11.220  0.1698 -1.1487 -0.9663
  185MOL0     H24949   2.415   0.596  10.953 -6.2249 -0.7076  0.6423
  185MOL0     H24950   2.413   0.447  11.034  1.6770 -0.0935 -1.5876
  185MOL0     H24951   2.619   0.520  11.034  1.7484  1.7799  0.4443
  185MOL0     H24952   2.597   0.668  11.133  0.7965  0.8194 -3.5215
  185MOL0     H24953   2.531   0.380  11.219 -0.8734  0.2611  0.4676
  185MOL0     H24954   2.515   0.524  11.320 -0.1766  1.7778 -1.7559
  185MOL0     H24955   2.774   0.567  11.293  3.5349 -2.4041  3.4930
  185MOL0     H24956   2.771   0.451  11.171  0.8238  0.2490 -0.3061
  185MOL0     H24957   1.659   0.610  10.932 -1.4278  1.1754 -0.0784
  185MOL0     H24958   1.445   0.518  10.958  1.5166 -1.4186 -2.0366
  185MOL0     H24959   1.070   0.222  10.909 -0.7137 -0.9154  0.7609
  185MOL0     H24960   0.847   0.144  10.972  1.0749 -0.3843 -0.8821
  185MOL0     H24961   1.995   0.113  10.571  0.8709  0.7251  0.2106
  185MOL0     H24962   2.237   0.149  10.624 -0.6637 -0.6830 -0.0805
  185MOL0     H24963   2.551   0.083  11.159  2.0159  0.0275  1.2724
  185MOL0     H24964   2.784   0.070  11.176 -0.3255  1.0665  0.5994
  185MOL0     H24965   3.043   0.263  10.846 -0.6898  1.9148 -0.6167
  185MOL0     H24966   2.987   0.392  10.941 -0.5213  0.1083 -1.5242
  185MOL0     H24967   3.156   0.307  11.128 -3.3232  0.2064 -0.3858
  185MOL0     H24968   3.206   0.426  11.005  0.0069  0.6538 -1.1946
  185MOL0     H24969   3.298   0.263  10.857 -2.9672 -0.3922 -0.8165
  185MOL0     H24970   3.230   0.125  10.956  0.6163 -1.0841  0.5743
  185MOL0     H24971   3.391   0.231  11.138  1.9425 -2.4088  1.1386
  185MOL0     H24972   3.462   0.314  10.989 -1.4138  1.2083 -0.3551
  185MOL0     H24973   3.629  -0.065  10.965  0.1039 -0.3535 -3.4007
  185MOL0     H24974   2.821   0.308  10.812  0.6464 -1.4630 -0.2640
  185MOL0     H24975   2.585   0.285  10.772  2.0941  3.3308  0.3371
  186MOL0     O24976   7.315   3.715   2.162  0.7940 -0.7341  0.4848
  186MOL0     C24977   7.365   3.705   2.052  0.2929  0.3454  0.3853
  186MOL0     O24978   7.299   3.714   1.939  0.1770 -0.2695 -0.0470
  186MOL0     C24979   7.161   3.741   1.932  0.5643 -0.2150  0.6588
  186MOL0     C24980   7.119   3.810   1.816 -0.5053 -0.5287 -1.0693
  186MOL0     C24981   6.982   3.828   1.798 -0.4341  0.0304  0.4188
  186MOL0     C24982   6.882   3.782   1.887 -0.2754  0.0264 -0.8507
  186MOL0     O24983   6.747   3.798   1.867 -0.4583  0.6498 -0.5251
  186MOL0     C24984   6.688   3.888   1.953  0.5191 -1.2827 -0.9689
  186MOL0     C24985   6.541   3.914   1.909 -0.4976 -0.6810 -1.2177
  186MOL0     C24986   6.545   3.986   1.769  0.1162 -0.0580 -0.0152
  186MOL0     C24987   6.543   3.883   1.648 -0.3681 -0.8730  0.4458
  186MOL0     C24988   6.525   3.953   1.514 -0.4157  0.1298 -1.0823
  186MOL0     C24989   6.631   4.061   1.473 -0.1580 -0.4908  0.5069
  186MOL0     C24990   6.786   4.027   1.495 -1.2246 -0.1259  0.1544
  186MOL0     C24991   6.885   4.127   1.427  0.5495  0.0973 -0.2735
  186MOL0     N24992   7.026   4.106   1.441 -1.0406  0.5423 -1.0267
  186MOL0     C24993   7.098   4.089   1.558  0.5065  0.7317 -0.7439
  186MOL0     C24994   7.230   4.063   1.529  0.6756  0.3222  0.6407
  186MOL0     C24995   7.347   4.032   1.623 -0.1578  0.5363 -0.0030
  186MOL0     C24996   7.472   4.105   1.582 -0.3583  1.1709  0.2672
  186MOL0     C24997   7.455   4.253   1.548 -0.4223 -0.7814 -0.6339
  186MOL0     C24998   7.460   4.348   1.671 -0.8324 -0.1248  0.5197
  186MOL0     O24999   7.368   4.323   1.773 -0.4814  0.1067 -0.2266
  186MOL0     C25000   7.235   4.336   1.764 -0.8180 -0.3250  0.6641
  186MOL0     C25001   7.161   4.401   1.667  0.0100 -0.0991 -0.2765
  186MOL0     C25002   7.017   4.403   1.679  0.3058  0.8082  0.1134
  186MOL0     C25003   6.948   4.489   1.574  0.4611 -0.1567 -0.1684
  186MOL0     C25004   6.952   4.349   1.788 -0.2032  0.3546 -0.4237
  186MOL0     C25005   6.803   4.360   1.809 -0.3748 -0.3586 -0.0070
  186MOL0     O25006   6.719   4.405   1.707 -0.2979  0.4527  0.4515
  186MOL0     C25007   6.582   4.420   1.730 -0.7097  0.6255 -0.7968
  186MOL0     C25008   6.501   4.410   1.619 -0.2041 -0.4957 -0.7251
  186MOL0     C25009   6.358   4.422   1.630  0.1935  0.0623 -0.8412
  186MOL0     C25010   6.304   4.464   1.749  0.5249 -0.0328 -0.2629
  186MOL0     O25011   6.166   4.481   1.754 -0.0074 -1.0627  0.4481
  186MOL0     C25012   6.097   4.522   1.878 -0.0748  0.0024  0.1302
  186MOL0     C25013   6.030   4.409   1.953 -0.2644  0.1790 -0.0228
  186MOL0     C25014   5.899   4.370   1.883  0.1508 -0.1616 -0.9777
  186MOL0     C25015   5.882   4.351   1.730 -0.1973 -0.5652 -0.2860
  186MOL0     C25016   5.733   4.356   1.695  0.7604 -0.0783 -0.3176
  186MOL0     C25017   5.654   4.235   1.737  0.4786 -0.6376  0.2299
  186MOL0     C25018   5.498   4.268   1.732 -0.1684 -0.2820  0.0903
  186MOL0     C25019   5.408   4.140   1.759  0.2409  0.0560 -0.2651
  186MOL0    Cl25020   5.231   4.186   1.741 -0.0572  0.3039  0.1984
  186MOL0     C25021   6.391   4.486   1.859 -0.0728 -0.3894  0.1720
  186MOL0     C25022   6.524   4.460   1.853 -0.0967  0.0471 -0.4051
  186MOL0     O25023   6.766   4.307   1.918  0.3755  0.0339 -0.1160
  186MOL0     C25024   7.031   4.278   1.885 -0.4009  0.9712  0.2278
  186MOL0     C25025   7.169   4.279   1.872  0.6936  0.0100 -0.2505
  186MOL0     N25026   7.240   4.084   1.391 -0.4158 -0.1183 -0.7463
  186MOL0     N25027   7.123   4.106   1.339 -0.6301  0.6948  0.2796
  186MOL0     C25028   6.929   3.704   1.996 -0.3784 -0.3939  0.1021
  186MOL0     C25029   7.068   3.679   2.007  0.2191 -0.2116 -0.1027
  186MOL0     C25030   7.505   3.673   2.053 -0.0925 -0.9389 -0.2112
  186MOL0     C25031   7.570   3.621   2.166 -0.2171 -0.4688 -0.1561
  186MOL0     C25032   7.706   3.587   2.152  0.6473  0.3386 -0.0463
  186MOL0     C25033   7.767   3.599   2.029  0.3496  0.5502 -0.1707
  186MOL0     O25034   7.891   3.551   2.032 -0.5099  0.3293 -0.0824
  186MOL0     C25035   7.959   3.543   1.905  0.3906 -0.4123 -0.5209
  186MOL0     C25036   8.096   3.469   1.916 -0.3227 -0.7348  0.2404
  186MOL0     C25037   8.075   3.322   1.947  0.3140 -0.8380  0.5631
  186MOL0     C25038   8.144   3.293   2.082  0.3652 -0.0948 -0.1328
  186MOL0     C25039   8.288   3.288   2.070  0.0581 -1.2673  0.3464
  186MOL0     C25040   8.400   3.288   2.037 -0.3759  0.0870 -0.4395
  186MOL0     C25041   7.700   3.637   1.911  0.4483 -0.8666  0.7694
  186MOL0     C25042   7.567   3.680   1.932 -0.8695 -0.6392 -0.1349
  186MOL0     H25043   7.198   3.844   1.750  0.1943  0.3830  0.1945
  186MOL0     H25044   6.963   3.868   1.699  2.1187 -1.4770 -0.7995
  186MOL0     H25045   6.685   3.864   2.059 -1.1539  3.0556  0.1854
  186MOL0     H25046   6.739   3.984   1.940 -2.2073  0.2312 -1.1133
  186MOL0     H25047   6.480   3.823   1.909  2.0093 -2.5663  0.9692
  186MOL0     H25048   6.497   3.982   1.982  2.1693  1.9809 -1.8683
  186MOL0     H25049   6.461   4.056   1.766  0.7794  0.7994 -3.9058
  186MOL0     H25050   6.634   4.046   1.749 -0.2383 -0.6522 -4.4969
  186MOL0     H25051   6.644   3.841   1.646 -0.5376 -1.4724  2.3501
  186MOL0     H25052   6.465   3.807   1.655  0.3364 -1.7460 -0.8668
  186MOL0     H25053   6.522   3.880   1.434  0.0685 -0.2745 -0.7424
  186MOL0     H25054   6.429   4.005   1.517 -1.5194 -1.8190 -0.9721
  186MOL0     H25055   6.621   4.085   1.367  1.0579  2.3781  0.9377
  186MOL0     H25056   6.605   4.152   1.528 -4.0918 -1.7197  0.9970
  186MOL0     H25057   6.807   4.034   1.603  2.7346  1.7221 -0.5513
  186MOL0     H25058   6.818   3.926   1.469  4.7176  0.8529  2.0709
  186MOL0     H25059   6.869   4.225   1.474 -0.3468 -0.4401  0.5864
  186MOL0     H25060   6.855   4.139   1.323 -0.8786  3.5085  0.3938
  186MOL0     H25061   7.064   4.086   1.661 -1.1500 -1.3956 -1.2851
  186MOL0     H25062   7.320   4.070   1.722 -2.9025  1.7400 -1.1167
  186MOL0     H25063   7.368   3.926   1.641  0.4808  0.3772 -1.5390
  186MOL0     H25064   7.514   4.062   1.491  0.0711  0.4854  0.7727
  186MOL0     H25065   7.545   4.083   1.661 -0.9870 -3.0774 -0.0887
  186MOL0     H25066   7.369   4.278   1.485  1.5652 -2.1061 -4.2162
  186MOL0     H25067   7.543   4.277   1.487  0.6875 -0.7245  0.9383
  186MOL0     H25068   7.437   4.447   1.632  3.8778  1.1465  0.3561
  186MOL0     H25069   7.566   4.359   1.698  0.3030 -0.9245 -3.0807
  186MOL0     H25070   7.221   4.450   1.590 -0.0184 -1.2004 -1.0220
  186MOL0     H25071   7.026   4.507   1.500  1.6846 -1.0087  0.8657
  186MOL0     H25072   6.877   4.422   1.525  1.3207 -0.9413 -0.3719
  186MOL0     H25073   6.908   4.579   1.621  0.2520 -0.9301  1.1903
  186MOL0     H25074   6.543   4.400   1.519  2.6358  0.3079  0.2901
  186MOL0     H25075   6.288   4.419   1.548 -0.2096  0.2110 -0.5020
  186MOL0     H25076   6.163   4.573   1.949  1.2643 -1.1595 -0.2242
  186MOL0     H25077   6.031   4.603   1.847  0.4764 -0.0224 -1.1283
  186MOL0     H25078   6.095   4.323   1.971 -0.4945  0.3190  1.6321
  186MOL0     H25079   6.010   4.445   2.054  2.5503  1.8377  0.0441
  186MOL0     H25080   5.839   4.458   1.909 -0.5377 -1.2038  1.1692
  186MOL0     H25081   5.860   4.281   1.934  0.2011  0.0548 -0.5540
  186MOL0     H25082   5.931   4.435   1.679 -0.8138  0.8014  1.2829
  186MOL0     H25083   5.919   4.253   1.698 -0.1807 -1.0371  1.1317
  186MOL0     H25084   5.721   4.378   1.589 -1.7184  3.4374  0.5225
  186MOL0     H25085   5.682   4.442   1.741 -0.9205 -1.3023  0.2168
  186MOL0     H25086   5.686   4.153   1.671 -0.0117 -0.4251 -0.2835
  186MOL0     H25087   5.683   4.219   1.841 -0.3406 -0.4547  0.4899
  186MOL0     H25088   5.477   4.302   1.630 -0.5049 -0.8474 -0.0326
  186MOL0     H25089   5.467   4.349   1.798  1.7450  1.5301 -1.0848
  186MOL0     H25090   5.425   4.110   1.863  0.5329 -0.5455 -0.4876
  186MOL0     H25091   5.430   4.063   1.685 -2.1106 -2.6221  1.6011
  186MOL0     H25092   6.348   4.502   1.957 -3.7342  0.8740 -1.4804
  186MOL0     H25093   6.572   4.465   1.950 -1.2882  0.1972  0.1994
  186MOL0     H25094   6.988   4.231   1.973 -0.8689  1.8196  0.4681
  186MOL0     H25095   7.231   4.232   1.948 -0.5647  0.9192  1.4187
  186MOL0     H25096   6.850   3.664   2.058 -1.3266  1.8633  0.4545
  186MOL0     H25097   7.095   3.617   2.091 -0.0820  2.6093  2.2211
  186MOL0     H25098   7.522   3.617   2.263 -0.5778  1.1276 -0.2519
  186MOL0     H25099   7.767   3.560   2.238 -0.4636  0.2051  0.7320
  186MOL0     H25100   7.896   3.491   1.831  1.0935  0.9906 -2.1780
  186MOL0     H25101   7.975   3.645   1.868 -1.7835  1.4274  3.0681
  186MOL0     H25102   8.158   3.529   1.983 -0.9500  0.9166 -0.6086
  186MOL0     H25103   8.146   3.468   1.819  0.9996 -1.7729  0.9096
  186MOL0     H25104   8.137   3.273   1.871  1.6558  0.0379  1.0594
  186MOL0     H25105   7.970   3.292   1.941  0.6632 -1.7363 -2.2447
  186MOL0     H25106   8.120   3.188   2.102  0.4519 -0.3112 -1.1269
  186MOL0     H25107   8.113   3.357   2.166 -2.0490 -1.3054 -0.0260
  186MOL0     H25108   8.507   3.287   2.031 -0.3971 -1.7402 -1.0411
  186MOL0     H25109   7.739   3.640   1.810 -1.7262 -3.7016 -0.3173
  186MOL0     H25110   7.523   3.730   1.846  2.5532  5.8511  1.2691
  187MOL0     O25111  10.898   3.650  10.494 -0.1080  0.0715  0.3809
  187MOL0     C25112  10.960   3.622  10.393  0.9256 -0.5609  0.3150
  187MOL0     O25113  10.908   3.553  10.286  0.6494 -0.4899  0.1451
  187MOL0     C25114  10.769   3.539  10.288  0.0670  0.4338  1.0965
  187MOL0     C25115  10.704   3.436  10.357  0.1472  0.3422 -0.2903
  187MOL0     C25116  10.568   3.409  10.345 -0.0117 -0.1284  0.5145
  187MOL0     C25117  10.486   3.493  10.269 -0.3126 -0.3507  0.0523
  187MOL0     O25118  10.360   3.466  10.263  0.5379 -0.1652 -0.6825
  187MOL0     C25119  10.269   3.571  10.260 -0.4246  0.4045  0.4434
  187MOL0     C25120  10.126   3.514  10.264  0.1082  0.4032  0.1446
  187MOL0     C25121  10.019   3.631  10.284 -0.8513  0.6794  0.1984
  187MOL0     C25122   9.885   3.562  10.262 -0.9504  0.8936 -0.6536
  187MOL0     C25123   9.782   3.669  10.311 -0.1325  0.3131  0.3685
  187MOL0     C25124   9.632   3.653  10.269 -0.2351  0.1750 -0.5800
  187MOL0     C25125   9.544   3.770  10.309 -0.3619  0.1842  0.7398
  187MOL0     C25126   9.434   3.792  10.204  0.4281  0.1139 -0.6628
  187MOL0     N25127   9.311   3.866  10.257  0.0211 -0.1866 -0.0639
  187MOL0     C25128   9.275   3.999  10.235  0.1717  0.9048  1.0817
  187MOL0     C25129   9.152   4.012  10.280 -0.0717  0.2543  0.0919
  187MOL0     C25130   9.063   4.132  10.272 -0.0616 -0.1348 -0.0992
  187MOL0     C25131   8.937   4.112  10.349  0.4284 -0.2160  0.0785
  187MOL0     C25132   8.875   4.243  10.382 -0.7460  1.3275 -0.2720
  187MOL0     C25133   8.726   4.222  10.373 -0.4580 -0.4694 -0.4588
  187MOL0     O25134   8.672   4.216  10.239 -0.7060 -0.0253  0.5247
  187MOL0     C25135   8.537   4.243  10.229  0.7401  0.0678  0.2659
  187MOL0     C25136   8.444   4.217  10.328  1.0072  0.3284 -0.6818
  187MOL0     C25137   8.301   4.224  10.309 -0.1359 -0.3742  0.0369
  187MOL0     C25138   8.215   4.172  10.424  0.1996 -0.7090  0.6638
  187MOL0     C25139   8.257   4.271  10.181  0.3864 -0.2803 -0.1346
  187MOL0     C25140   8.113   4.287  10.144 -0.3843 -0.3441  0.6840
  187MOL0     O25141   8.027   4.190  10.173 -0.0178 -0.7579 -0.7038
  187MOL0     C25142   7.894   4.188  10.142 -0.1670  0.9984  1.1182
  187MOL0     C25143   7.855   4.214  10.002  0.3606 -0.0856  0.7220
  187MOL0     C25144   7.714   4.200   9.977 -0.5294  0.7660 -0.2453
  187MOL0     C25145   7.619   4.167  10.078 -0.1301 -0.0560  0.1048
  187MOL0     O25146   7.485   4.145  10.062  0.2712 -0.1607 -0.3639
  187MOL0     C25147   7.445   4.151   9.926  0.3628  0.2834 -0.7232
  187MOL0     C25148   7.285   4.148   9.908 -0.0434 -0.2546  0.7842
  187MOL0     C25149   7.224   4.006   9.918 -0.3929  0.3402 -0.1868
  187MOL0     C25150   7.072   4.025   9.928 -0.6067 -0.3177 -0.2774
  187MOL0     C25151   6.991   3.897   9.930 -0.9929 -0.0389  0.9609
  187MOL0     C25152   6.845   3.918   9.958  0.7852  0.5530 -0.0829
  187MOL0     C25153   6.794   3.778   9.994  0.8361  1.1695 -0.8849
  187MOL0     C25154   6.812   3.668   9.888 -0.1237  0.0166  0.7453
  187MOL0    Cl25155   6.706   3.526   9.916 -0.8370 -0.5209  0.0149
  187MOL0     C25156   7.664   4.160  10.211  0.1074  0.0727  0.0375
  187MOL0     C25157   7.802   4.157  10.244  0.4450  0.0465  0.1212
  187MOL0     O25158   8.080   4.389  10.083 -0.3442 -0.0511  0.2323
  187MOL0     C25159   8.357   4.312  10.088 -0.3462  0.8844  0.2684
  187MOL0     C25160   8.487   4.281  10.106  0.3238 -1.0149 -0.2820
  187MOL0     N25161   9.120   3.892  10.337  0.0256 -0.3143  0.8781
  187MOL0     N25162   9.207   3.803  10.321  0.1531 -0.5567 -0.9871
  187MOL0     C25163  10.543   3.600  10.195 -0.5263 -0.7631  0.6260
  187MOL0     C25164  10.685   3.621  10.205 -0.1794  1.1246 -0.5617
  187MOL0     C25165  11.102   3.645  10.398  0.3103 -0.1072  0.3660
  187MOL0     C25166  11.174   3.620  10.282  0.5204  0.5331  0.3660
  187MOL0     C25167  11.307   3.593  10.290 -0.0600  0.5952 -0.3236
  187MOL0     C25168  11.382   3.614  10.409  0.0712  0.8509  0.1036
  187MOL0     O25169  11.515   3.610  10.429  0.3541 -0.0739  0.1999
  187MOL0     C25170  11.594   3.540  10.328  0.1399 -0.6920 -0.5913
  187MOL0     C25171  11.735   3.613  10.325  0.0209  0.0457  0.0910
  187MOL0     C25172  11.825   3.567  10.434  0.1571  0.8024  0.0359
  187MOL0     C25173  11.930   3.666  10.476 -0.0978  0.4918 -0.3570
  187MOL0     C25174  12.013   3.710  10.371  0.0096 -0.0974 -0.3992
  187MOL0     C25175  12.072   3.765  10.283 -0.1090  0.3745 -0.8892
  187MOL0     C25176  11.315   3.665  10.518 -0.1528  0.6824  0.1944
  187MOL0     C25177  11.171   3.668  10.522 -0.0926  0.0896 -0.2425
  187MOL0     H25178  10.769   3.375  10.419  0.1862  1.1122  0.4354
  187MOL0     H25179  10.536   3.328  10.410 -3.0170  0.9103  0.4726
  187MOL0     H25180  10.284   3.648  10.336  1.1611  1.1117 -0.5227
  187MOL0     H25181  10.281   3.614  10.159  1.1231 -1.8296 -0.4015
  187MOL0     H25182  10.101   3.456  10.174 -0.6695 -0.3510  0.8386
  187MOL0     H25183  10.113   3.445  10.347 -0.1237  0.7598  0.4104
  187MOL0     H25184  10.024   3.681  10.381 -0.5307  0.4926  0.2768
  187MOL0     H25185  10.027   3.707  10.206  2.0342 -0.1976 -0.4752
  187MOL0     H25186   9.872   3.531  10.158  0.9969 -1.0500 -0.3769
  187MOL0     H25187   9.866   3.467  10.312  0.9283 -0.7172 -2.8099
  187MOL0     H25188   9.790   3.665  10.420 -0.5230 -0.3086  0.3787
  187MOL0     H25189   9.807   3.774  10.294  0.3246 -0.1236 -2.0675
  187MOL0     H25190   9.622   3.641  10.161 -2.9635  0.3416 -0.4093
  187MOL0     H25191   9.587   3.563  10.313 -0.9107  0.9685  0.3825
  187MOL0     H25192   9.492   3.727  10.395  0.0217 -2.1945 -0.1311
  187MOL0     H25193   9.605   3.858  10.332  1.9674 -1.3872  1.0188
  187MOL0     H25194   9.410   3.694  10.161  0.3173  0.8882 -2.4834
  187MOL0     H25195   9.474   3.852  10.122 -1.5764  1.5848 -0.6402
  187MOL0     H25196   9.313   4.074  10.167 -0.5949  0.1912 -0.1847
  187MOL0     H25197   9.113   4.221  10.310 -0.2870  0.1235 -0.4051
  187MOL0     H25198   9.037   4.134  10.166 -0.0543  1.7429 -0.0900
  187MOL0     H25199   8.966   4.062  10.442 -1.2749  1.7733  1.8151
  187MOL0     H25200   8.867   4.051  10.292  2.2800 -1.3569 -1.0649
  187MOL0     H25201   8.906   4.313  10.303  1.3051 -1.4692 -2.1192
  187MOL0     H25202   8.917   4.284  10.474 -0.6755  2.9095 -0.9770
  187MOL0     H25203   8.681   4.307  10.425 -1.4728 -1.6362  0.6328
  187MOL0     H25204   8.700   4.130  10.426 -1.5666  0.8470  1.4050
  187MOL0     H25205   8.482   4.188  10.425 -0.8997 -1.7458 -0.4742
  187MOL0     H25206   8.266   4.144  10.516  2.5527  1.8584  0.2718
  187MOL0     H25207   8.146   4.252  10.452  0.8459  0.2081 -0.2776
  187MOL0     H25208   8.146   4.096  10.386 -1.6582 -0.4873  3.3004
  187MOL0     H25209   7.926   4.245   9.927  0.0072  2.1952  1.2599
  187MOL0     H25210   7.693   4.209   9.870 -1.6078 -0.6428 -0.1941
  187MOL0     H25211   7.475   4.245   9.881  2.5552  0.8121  1.6286
  187MOL0     H25212   7.479   4.068   9.864 -0.8972  1.2718 -2.8486
  187MOL0     H25213   7.246   4.214   9.985 -0.0036 -0.2227  0.7771
  187MOL0     H25214   7.254   4.189   9.812 -3.0342 -0.1027  1.6929
  187MOL0     H25215   7.248   3.966  10.017 -0.1353 -1.5733 -0.9925
  187MOL0     H25216   7.261   3.932   9.848 -1.5768  0.2236 -0.7095
  187MOL0     H25217   7.053   4.075  10.023  0.2259 -0.8898  0.2057
  187MOL0     H25218   7.042   4.084   9.841 -0.1661 -0.6963 -0.6910
  187MOL0     H25219   7.034   3.843  10.015 -0.1403  1.8170  1.7635
  187MOL0     H25220   7.010   3.839   9.839 -0.6818 -3.6666  3.1271
  187MOL0     H25221   6.836   3.988  10.042  0.9430 -2.0803  2.2903
  187MOL0     H25222   6.785   3.950   9.872 -1.9087  0.2943  1.5681
  187MOL0     H25223   6.687   3.790  10.017  1.5361  1.1183  3.2076
  187MOL0     H25224   6.824   3.737  10.091 -0.6030 -2.2691 -1.7518
  187MOL0     H25225   6.912   3.627   9.872  0.1680  1.9887 -4.6931
  187MOL0     H25226   6.803   3.721   9.793 -2.7996  0.3128  1.0802
  187MOL0     H25227   7.589   4.143  10.289 -0.4313  1.0187 -0.2558
  187MOL0     H25228   7.832   4.133  10.346 -1.0299 -1.5773  0.2219
  187MOL0     H25229   8.328   4.346   9.989 -1.5589  1.2323  0.7240
  187MOL0     H25230   8.554   4.303  10.024  1.2406  0.0610  0.7374
  187MOL0     H25231  10.493   3.666  10.125  0.7173 -2.9606 -2.5204
  187MOL0     H25232  10.731   3.702  10.151  1.4206  1.5077  1.2533
  187MOL0     H25233  11.121   3.611  10.187  0.2766  0.0676  0.5413
  187MOL0     H25234  11.360   3.563  10.200 -0.1762 -0.5925 -0.0171
  187MOL0     H25235  11.606   3.434  10.351  2.3077 -0.3282  0.1981
  187MOL0     H25236  11.556   3.536  10.225  0.8935 -1.7654 -0.8533
  187MOL0     H25237  11.708   3.719  10.334  0.4556  0.3769 -1.9282
  187MOL0     H25238  11.781   3.598  10.226  0.7989  0.5059  0.3728
  187MOL0     H25239  11.882   3.484  10.391  2.3673  3.1396 -1.8679
  187MOL0     H25240  11.763   3.533  10.519 -2.1072 -2.0203 -2.5053
  187MOL0     H25241  11.990   3.621  10.557  0.7551  1.5529 -0.3758
  187MOL0     H25242  11.883   3.755  10.519  0.0158 -0.1030  1.0394
  187MOL0     H25243  12.139   3.808  10.211  0.9675 -2.3177 -1.6075
  187MOL0     H25244  11.371   3.701  10.604 -1.9594  1.4238  1.1081
  187MOL0     H25245  11.117   3.694  10.612 -0.1324  0.0140 -0.2441
  188MOL0     O25246   1.755   9.634   4.799  0.2887  1.2731  0.3913
  188MOL0     C25247   1.818   9.529   4.817  0.2410 -0.7847 -0.6961
  188MOL0     O25248   1.761   9.403   4.799 -0.4375 -0.4713  0.1483
  188MOL0     C25249   1.640   9.405   4.739 -0.4661  0.1209  1.0539
  188MOL0     C25250   1.526   9.352   4.797  0.1705  0.9228  0.5995
  188MOL0     C25251   1.407   9.348   4.719  0.3946  0.0470  1.1953
  188MOL0     C25252   1.400   9.388   4.584 -0.0944 -0.3181  0.3865
  188MOL0     O25253   1.290   9.376   4.501 -0.9625 -0.2063  0.0447
  188MOL0     C25254   1.167   9.334   4.563  0.7156  0.0852  0.0408
  188MOL0     C25255   1.094   9.446   4.637 -1.1838 -0.2299 -0.1444
  188MOL0     C25256   0.944   9.421   4.630 -0.3383  0.2308 -0.0262
  188MOL0     C25257   0.865   9.548   4.686 -0.1509 -1.0382 -0.9291
  188MOL0     C25258   0.729   9.567   4.628 -0.5694 -0.5900  0.4594
  188MOL0     C25259   0.736   9.633   4.490  0.2214  0.0866  0.2500
  188MOL0     C25260   0.616   9.609   4.396  0.7294 -0.1939  0.3311
  188MOL0     C25261   0.484   9.642   4.463  0.0533 -0.7875 -0.4530
  188MOL0     N25262   0.383   9.643   4.360 -0.2262 -0.1645 -0.3343
  188MOL0     C25263   0.330   9.528   4.302 -0.6977 -0.1646  0.5310
  188MOL0     C25264   0.251   9.566   4.203 -0.5442 -0.0503  0.2842
  188MOL0     C25265   0.185   9.477   4.110  0.3465 -0.2083 -0.5663
  188MOL0     C25266   0.033   9.491   4.115  0.3588 -0.8660  0.0659
  188MOL0     C25267  -0.023   9.385   4.030  0.0527 -0.0063  0.4877
  188MOL0     C25268  -0.168   9.407   3.998 -0.2948  0.0397 -0.6232
  188MOL0     O25269  -0.182   9.533   3.924  0.0960  0.0604 -0.8078
  188MOL0     C25270  -0.299   9.597   3.927  0.9726 -0.2387 -0.1115
  188MOL0     C25271  -0.293   9.726   3.865  0.7826  0.5745  1.0728
  188MOL0     C25272  -0.416   9.808   3.861 -0.6439 -0.9576  0.3101
  188MOL0     C25273  -0.393   9.945   3.816 -0.9210 -0.0178 -0.0419
  188MOL0     C25274  -0.539   9.751   3.898  0.1572 -0.1219 -0.0566
  188MOL0     C25275  -0.680   9.802   3.858 -0.5853  0.3533 -0.4970
  188MOL0     O25276  -0.794   9.736   3.903  0.2541 -0.5273 -0.0284
  188MOL0     C25277  -0.905   9.796   3.859 -0.3099 -0.0305  0.9240
  188MOL0     C25278  -1.000   9.849   3.947  0.0249 -0.8643 -0.4698
  188MOL0     C25279  -1.125   9.892   3.909 -0.2824  0.3582 -0.1845
  188MOL0     C25280  -1.166   9.883   3.772 -0.3200  0.7842 -0.1902
  188MOL0     O25281  -1.295   9.906   3.726  0.3861  0.4181  0.4047
  188MOL0     C25282  -1.378   9.991   3.804  0.0120 -0.3498  0.2383
  188MOL0     C25283  -1.516  10.002   3.743 -1.1453  0.2083 -0.3607
  188MOL0     C25284  -1.623   9.985   3.849 -0.5448 -0.4569  0.3135
  188MOL0     C25285  -1.757  10.027   3.791 -0.8327  0.2077 -0.2253
  188MOL0     C25286  -1.861  10.013   3.901  0.6878 -0.4677  0.0392
  188MOL0     C25287  -1.997  10.064   3.847  0.6566 -0.5407 -0.6746
  188MOL0     C25288  -2.095  10.094   3.963 -0.1031  0.6777 -0.9707
  188MOL0     C25289  -2.240  10.088   3.927 -0.5192  0.4620  0.1655
  188MOL0    Cl25290  -2.340  10.139   4.068  0.1383 -0.0562 -0.1460
  188MOL0     C25291  -1.069   9.829   3.685 -0.2843 -0.1746 -0.3287
  188MOL0     C25292  -0.941   9.791   3.721 -0.4342  1.0221 -0.5566
  188MOL0     O25293  -0.684   9.909   3.800 -0.2282 -0.8231 -0.5362
  188MOL0     C25294  -0.533   9.630   3.964 -0.0110  0.6690 -0.5310
  188MOL0     C25295  -0.423   9.550   3.984  0.5580 -0.6057 -0.4067
  188MOL0     N25296   0.242   9.700   4.218  0.1087 -0.0835 -0.4153
  188MOL0     N25297   0.306   9.742   4.318 -0.4448  0.6232 -0.1516
  188MOL0     C25298   1.518   9.435   4.525 -0.3692  0.0600  0.3972
  188MOL0     C25299   1.635   9.438   4.597 -0.4405  0.5552 -0.3410
  188MOL0     C25300   1.944   9.543   4.894  0.7641 -0.4661  0.9789
  188MOL0     C25301   2.030   9.436   4.932  0.0453 -0.1260  0.3041
  188MOL0     C25302   2.144   9.458   5.012  0.1098 -0.3211 -0.1216
  188MOL0     C25303   2.178   9.588   5.036  0.1937 -0.1400  0.1920
  188MOL0     O25304   2.292   9.629   5.104  0.5800  0.3389  0.0893
  188MOL0     C25305   2.380   9.538   5.165 -0.1293  0.0727 -0.2295
  188MOL0     C25306   2.442   9.600   5.296 -0.1066 -0.5246 -0.5555
  188MOL0     C25307   2.547   9.508   5.371 -0.0265 -0.4738  0.3914
  188MOL0     C25308   2.558   9.517   5.526  0.0868 -0.0766  0.4935
  188MOL0     C25309   2.683   9.465   5.570 -0.0540  0.2278  0.6497
  188MOL0     C25310   2.785   9.409   5.593  0.2075 -1.1662 -0.1393
  188MOL0     C25311   2.099   9.693   4.999  1.1234  0.2206 -1.0615
  188MOL0     C25312   1.983   9.670   4.927 -0.9224 -0.1474  0.0175
  188MOL0     H25313   1.531   9.329   4.903  0.1249  2.6488  1.0168
  188MOL0     H25314   1.321   9.311   4.775  0.4093  1.1206  1.9457
  188MOL0     H25315   1.102   9.290   4.487  0.2712  0.3764  0.2512
  188MOL0     H25316   1.190   9.249   4.629 -1.2680  0.3552  1.1444
  188MOL0     H25317   1.129   9.449   4.740  0.3608  1.1141 -0.6785
  188MOL0     H25318   1.115   9.541   4.586  0.7597  1.0644  2.8291
  188MOL0     H25319   0.922   9.401   4.525 -2.3425 -0.3868  0.4631
  188MOL0     H25320   0.924   9.328   4.685  0.7241 -0.9136 -1.4928
  188MOL0     H25321   0.857   9.541   4.795 -0.6369  1.1144 -0.7959
  188MOL0     H25322   0.927   9.636   4.669  0.7555 -1.9278 -2.4793
  188MOL0     H25323   0.670   9.475   4.630 -0.0648 -0.9526 -0.8996
  188MOL0     H25324   0.677   9.644   4.687  3.5249  1.3690  1.8433
  188MOL0     H25325   0.743   9.742   4.498  1.2079  0.0075  0.5176
  188MOL0     H25326   0.826   9.609   4.434  0.4851  0.3926  0.5362
  188MOL0     H25327   0.629   9.668   4.305 -1.0070  0.0009  0.1690
  188MOL0     H25328   0.611   9.505   4.364  0.3669 -0.1361  0.1948
  188MOL0     H25329   0.494   9.735   4.520  2.2131 -1.8018  0.9144
  188MOL0     H25330   0.467   9.560   4.533  1.0263 -1.4379 -0.9607
  188MOL0     H25331   0.358   9.426   4.329 -2.3045 -1.2108 -1.4635
  188MOL0     H25332   0.225   9.499   4.011  0.3194  2.4108 -0.0798
  188MOL0     H25333   0.214   9.376   4.139  0.6753  0.0884  0.1504
  188MOL0     H25334   0.021   9.588   4.067  2.1684 -1.3099 -1.4083
  188MOL0     H25335  -0.017   9.485   4.213 -3.7994 -0.4507 -1.7989
  188MOL0     H25336  -0.015   9.294   4.090 -0.1740  0.3110  1.0079
  188MOL0     H25337   0.027   9.376   3.933 -2.1834 -2.4381 -0.5598
  188MOL0     H25338  -0.218   9.416   4.095 -0.2975  1.0826 -0.7108
  188MOL0     H25339  -0.209   9.317   3.952  1.1135  0.6462 -3.2267
  188MOL0     H25340  -0.207   9.755   3.806 -0.7998  1.3248 -0.9873
  188MOL0     H25341  -0.426  10.014   3.894  1.2249  1.2554 -0.1779
  188MOL0     H25342  -0.287   9.952   3.789 -0.5297 -1.0102  1.1562
  188MOL0     H25343  -0.455   9.972   3.730 -0.0506  1.7451 -0.1640
  188MOL0     H25344  -0.958   9.858   4.047 -1.5223 -0.9944  0.2154
  188MOL0     H25345  -1.194   9.934   3.981  1.4352  2.0639  0.5476
  188MOL0     H25346  -1.393   9.959   3.908 -1.2346  1.9275  0.8314
  188MOL0     H25347  -1.340  10.094   3.804 -0.7999 -0.0236 -1.0397
  188MOL0     H25348  -1.523  10.097   3.689 -0.2566  1.7164  2.0221
  188MOL0     H25349  -1.528   9.926   3.664 -2.5303  0.1971 -0.1779
  188MOL0     H25350  -1.593  10.051   3.931  0.3831 -0.6212  0.1106
  188MOL0     H25351  -1.637   9.888   3.897  0.0654 -0.1200  1.1901
  188MOL0     H25352  -1.757  10.128   3.750 -0.2992  1.1782  2.0214
  188MOL0     H25353  -1.777   9.958   3.708 -0.0384  0.6793 -0.8209
  188MOL0     H25354  -1.835  10.081   3.982 -2.5017  2.4230 -1.1207
  188MOL0     H25355  -1.874   9.914   3.944  2.0806  0.4666  2.8677
  188MOL0     H25356  -1.994  10.162   3.797  1.9249  0.4498  1.2191
  188MOL0     H25357  -2.033   9.989   3.775  2.5239  0.0961 -2.3629
  188MOL0     H25358  -2.081  10.196   4.002  2.7193 -0.5316  1.5891
  188MOL0     H25359  -2.070  10.026   4.045  0.3567 -0.1037 -1.7459
  188MOL0     H25360  -2.272   9.987   3.898 -0.8048  0.0613  1.7465
  188MOL0     H25361  -2.262  10.164   3.852  1.6777  0.1371 -0.8719
  188MOL0     H25362  -1.104   9.812   3.583 -0.7408 -3.1145  0.2434
  188MOL0     H25363  -0.869   9.749   3.653  1.1972  1.9457  0.5409
  188MOL0     H25364  -0.625   9.583   3.998 -0.0216  0.2740 -1.1052
  188MOL0     H25365  -0.430   9.453   4.033  2.2226 -0.5292  0.0485
  188MOL0     H25366   1.521   9.467   4.421  1.6509  0.6792  0.6043
  188MOL0     H25367   1.731   9.461   4.553  1.0568 -0.2750  2.2564
  188MOL0     H25368   1.999   9.337   4.901 -1.3487  0.2347  0.4606
  188MOL0     H25369   2.210   9.374   5.036 -0.2427  0.0548  2.3984
  188MOL0     H25370   2.329   9.447   5.196  1.5440 -0.7724  0.1831
  188MOL0     H25371   2.459   9.520   5.091 -0.9162  1.6507 -1.5238
  188MOL0     H25372   2.357   9.620   5.361 -1.5230 -2.6431 -1.6359
  188MOL0     H25373   2.491   9.696   5.277  1.1903 -1.3544 -1.6438
  188MOL0     H25374   2.646   9.536   5.335  0.8999 -3.3497  0.4995
  188MOL0     H25375   2.531   9.403   5.344  2.5771 -1.0835  1.0451
  188MOL0     H25376   2.470   9.481   5.580 -1.2155  1.0811 -0.7844
  188MOL0     H25377   2.561   9.622   5.558  0.8973  1.2645 -3.4072
  188MOL0     H25378   2.871   9.353   5.625  1.1524  0.5140  0.4131
  188MOL0     H25379   2.132   9.795   5.015  3.7032 -0.4879 -1.3145
  188MOL0     H25380   1.923   9.755   4.898 -1.1005 -0.6271 -1.0787
  189MOL0     O25381   4.178   2.073  11.149  0.0362  0.0410 -0.1183
  189MOL0     C25382   4.219   2.178  11.098  0.6575  1.3503 -0.0044
  189MOL0     O25383   4.141   2.260  11.022 -0.8117  0.1401  0.0868
  189MOL0     C25384   4.012   2.220  11.000 -0.6826 -0.3474 -0.4411
  189MOL0     C25385   3.975   2.166  10.869  0.4879 -0.1915 -0.1609
  189MOL0     C25386   3.834   2.126  10.855 -1.2202  0.1049  0.4854
  189MOL0     C25387   3.738   2.144  10.959 -0.7528  0.0212 -0.5807
  189MOL0     O25388   3.608   2.115  10.939 -0.0493 -0.0927  0.0562
  189MOL0     C25389   3.507   2.211  10.955  0.3943 -0.1980 -0.2219
  189MOL0     C25390   3.376   2.140  10.910 -0.1582 -0.5167  1.1708
  189MOL0     C25391   3.298   2.082  11.031  0.2391  0.0953  0.2966
  189MOL0     C25392   3.180   1.998  10.974  0.2705 -0.3144 -0.1431
  189MOL0     C25393   3.096   1.933  11.080 -0.2407  0.7701  0.5509
  189MOL0     C25394   2.977   1.855  11.023 -0.4132 -0.5557 -0.7543
  189MOL0     C25395   2.879   1.795  11.133  0.0931  0.9870 -0.1529
  189MOL0     C25396   2.786   1.902  11.191 -0.5896 -0.3314 -0.3727
  189MOL0     N25397   2.712   1.849  11.308 -0.2394 -0.1120 -0.0437
  189MOL0     C25398   2.622   1.750  11.316 -0.2376 -0.1338  0.9114
  189MOL0     C25399   2.567   1.736  11.433  0.0632  0.9325 -1.4453
  189MOL0     C25400   2.466   1.643  11.486 -0.4171  0.0158 -1.0955
  189MOL0     C25401   2.331   1.709  11.517  0.4962  0.2641 -0.7822
  189MOL0     C25402   2.237   1.608  11.589 -0.0760 -0.2795  0.1004
  189MOL0     C25403   2.187   1.496  11.493 -0.3050 -1.0012 -0.1434
  189MOL0     O25404   2.079   1.433  11.556 -0.2978 -0.4997  0.5147
  189MOL0     C25405   2.003   1.350  11.479 -0.6756 -0.3202 -0.8407
  189MOL0     C25406   2.052   1.297  11.359  0.2315 -0.3409  0.3478
  189MOL0     C25407   1.964   1.215  11.286 -0.0941 -0.3736  0.8124
  189MOL0     C25408   2.018   1.178  11.154  0.1234 -0.5668  0.5553
  189MOL0     C25409   1.832   1.184  11.334  0.0119 -0.2788  0.3607
  189MOL0     C25410   1.730   1.111  11.252  0.1786 -0.2850 -0.1651
  189MOL0     O25411   1.617   1.071  11.325 -1.0768  0.4070  0.4712
  189MOL0     C25412   1.526   0.982  11.262 -0.0311 -0.3780 -0.4626
  189MOL0     C25413   1.542   0.841  11.279  0.1499 -0.7072  0.1566
  189MOL0     C25414   1.447   0.755  11.223 -0.3657  0.1897 -0.2377
  189MOL0     C25415   1.329   0.806  11.161 -0.1659  0.1912  0.8978
  189MOL0     O25416   1.238   0.721  11.101  0.3405  0.2538 -0.0853
  189MOL0     C25417   1.165   0.653  11.200 -0.3344  0.2763  0.1645
  189MOL0     C25418   1.025   0.629  11.148 -0.5940 -0.0677  0.1162
  189MOL0     C25419   0.954   0.763  11.145 -0.0316 -0.6954  0.1944
  189MOL0     C25420   0.802   0.743  11.134 -0.1731 -0.4145 -0.0297
  189MOL0     C25421   0.722   0.875  11.146  0.1435 -1.4248 -0.4440
  189MOL0     C25422   0.574   0.838  11.116  0.2125 -0.1350 -0.1674
  189MOL0     C25423   0.480   0.958  11.140 -0.0251  0.1171 -0.9040
  189MOL0     C25424   0.343   0.937  11.079 -0.5151  0.5370  0.7213
  189MOL0    Cl25425   0.248   1.079  11.115  0.2523 -0.1898  0.2206
  189MOL0     C25426   1.316   0.946  11.139  0.2569 -0.1322  0.2024
  189MOL0     C25427   1.409   1.035  11.198  0.6194  0.4464  1.3178
  189MOL0     O25428   1.747   1.102  11.129 -0.2113  0.9116 -0.6625
  189MOL0     C25429   1.787   1.244  11.453 -0.3632 -0.3292 -0.3559
  189MOL0     C25430   1.875   1.327  11.519  0.3742 -0.4695 -0.7907
  189MOL0     N25431   2.623   1.838  11.506 -0.2961 -0.3683 -0.7160
  189MOL0     N25432   2.709   1.909  11.439 -0.7252 -0.5794  1.1147
  189MOL0     C25433   3.784   2.194  11.079  0.5149 -1.2646 -0.7679
  189MOL0     C25434   3.916   2.233  11.104  0.4403  0.2425 -0.0229
  189MOL0     C25435   4.365   2.202  11.118  0.7242 -0.1945  1.2694
  189MOL0     C25436   4.437   2.158  11.233  0.3516  0.1305  0.4260
  189MOL0     C25437   4.574   2.192  11.245 -0.4086  0.2001 -0.2100
  189MOL0     C25438   4.641   2.266  11.148 -0.4790 -1.2577  0.5907
  189MOL0     O25439   4.778   2.301  11.141  0.8469 -0.0608 -0.0713
  189MOL0     C25440   4.868   2.224  11.219  0.4827 -1.1484  0.8807
  189MOL0     C25441   5.009   2.287  11.230  0.0041 -0.2652  0.7340
  189MOL0     C25442   5.016   2.424  11.295 -1.3104 -0.9003  0.6315
  189MOL0     C25443   5.154   2.474  11.274  0.0355  0.1339  0.2327
  189MOL0     C25444   5.194   2.569  11.380 -0.1439  0.6269  0.0754
  189MOL0     C25445   5.232   2.650  11.462  0.2802 -0.3914 -0.2598
  189MOL0     C25446   4.569   2.309  11.038 -0.0511 -0.3474 -0.6811
  189MOL0     C25447   4.427   2.285  11.022  0.2228 -0.1560 -0.5363
  189MOL0     H25448   4.045   2.156  10.787  0.4951  0.2940 -0.2175
  189MOL0     H25449   3.815   2.085  10.756  2.2265 -1.8893  0.4702
  189MOL0     H25450   3.496   2.246  11.058  0.5942 -0.8660  0.0325
  189MOL0     H25451   3.531   2.298  10.893  2.8088  0.8681  2.0260
  189MOL0     H25452   3.309   2.212  10.862 -0.4198 -0.1625  2.0400
  189MOL0     H25453   3.398   2.060  10.839  0.2105  1.7683 -1.4661
  189MOL0     H25454   3.369   2.012  11.076 -0.9423 -1.1188  0.3466
  189MOL0     H25455   3.274   2.156  11.108  1.8746  0.4647  0.4849
  189MOL0     H25456   3.121   2.074  10.921 -0.0443 -0.3654  0.1320
  189MOL0     H25457   3.216   1.918  10.908  1.4788  0.1053 -0.0156
  189MOL0     H25458   3.161   1.863  11.133  0.1717 -1.3959 -2.5264
  189MOL0     H25459   3.061   2.012  11.146  1.7100  1.5331  0.7488
  189MOL0     H25460   2.936   1.932  10.956  2.4609  0.6122 -1.3104
  189MOL0     H25461   3.019   1.782  10.954  2.9964  1.3682 -0.9345
  189MOL0     H25462   2.813   1.718  11.092 -0.7810  1.9499 -0.5897
  189MOL0     H25463   2.933   1.753  11.218 -1.9244 -0.4297  0.4995
  189MOL0     H25464   2.712   1.929  11.116 -0.9599 -0.0646  0.0794
  189MOL0     H25465   2.839   1.992  11.223 -2.0887  0.5245 -0.2040
  189MOL0     H25466   2.596   1.676  11.241  0.0377 -0.3209  1.0000
  189MOL0     H25467   2.452   1.559  11.417 -0.6423  0.3797 -1.4921
  189MOL0     H25468   2.502   1.607  11.583 -1.1928  2.1588  0.0495
  189MOL0     H25469   2.275   1.761  11.439  1.3178  4.3016  1.0357
  189MOL0     H25470   2.344   1.786  11.594 -1.8226  0.7444 -0.8227
  189MOL0     H25471   2.149   1.657  11.631 -0.7143 -0.8143 -0.6096
  189MOL0     H25472   2.301   1.570  11.669 -0.0279 -2.9107 -1.0923
  189MOL0     H25473   2.260   1.419  11.472  0.1943 -0.5086 -0.2352
  189MOL0     H25474   2.161   1.543  11.397 -0.0663  1.7714  1.0291
  189MOL0     H25475   2.152   1.322  11.326  1.0321 -0.7717  2.3099
  189MOL0     H25476   1.971   1.241  11.078 -0.7477  1.8889  2.9731
  189MOL0     H25477   2.125   1.193  11.134 -0.1694  2.4025  0.6910
  189MOL0     H25478   1.998   1.077  11.119  1.2328 -1.2545  1.8400
  189MOL0     H25479   1.632   0.808  11.330  1.4669  1.0196 -0.9486
  189MOL0     H25480   1.452   0.647  11.230 -0.3132 -0.2175 -4.1783
  189MOL0     H25481   1.213   0.555  11.212 -0.8003  0.1730  1.4158
  189MOL0     H25482   1.158   0.701  11.299 -0.6574 -1.7486  1.1795
  189MOL0     H25483   1.022   0.589  11.046 -4.0622  0.6202 -0.1580
  189MOL0     H25484   0.967   0.566  11.216  0.3271 -1.9263 -0.7708
  189MOL0     H25485   0.972   0.829  11.060 -0.4401  3.7075  3.1777
  189MOL0     H25486   0.979   0.811  11.240  1.1349  2.2428 -1.4513
  189MOL0     H25487   0.780   0.700  11.036 -0.3477  1.1004 -0.6764
  189MOL0     H25488   0.762   0.684  11.217 -1.3518  0.2198 -0.1287
  189MOL0     H25489   0.752   0.949  11.071  0.7216 -2.1913 -0.9924
  189MOL0     H25490   0.730   0.917  11.246  3.2966 -1.1830 -0.6819
  189MOL0     H25491   0.555   0.808  11.013  0.2098 -0.1592 -0.1594
  189MOL0     H25492   0.537   0.762  11.186  1.8123 -1.8600 -1.1116
  189MOL0     H25493   0.535   1.035  11.084  2.5989  0.3136  1.6906
  189MOL0     H25494   0.472   0.977  11.247  2.5202 -2.9579 -0.0320
  189MOL0     H25495   0.293   0.846  11.114  1.3312 -1.3356 -1.2157
  189MOL0     H25496   0.354   0.921  10.972 -0.6911 -4.3294  1.2080
  189MOL0     H25497   1.234   0.975  11.076 -1.5836  0.0758  2.5537
  189MOL0     H25498   1.376   1.138  11.188 -1.3150 -0.3568 -2.3150
  189MOL0     H25499   1.688   1.224  11.493 -0.1309 -1.7406 -0.4151
  189MOL0     H25500   1.850   1.364  11.618  0.5151 -0.3784 -0.7882
  189MOL0     H25501   3.710   2.213  11.156  0.4560 -4.0398 -0.0385
  189MOL0     H25502   3.946   2.279  11.197 -1.7613  0.3823  0.6637
  189MOL0     H25503   4.379   2.112  11.312 -1.3492  0.1276 -0.7638
  189MOL0     H25504   4.621   2.156  11.336 -3.7230 -1.0663  1.1412
  189MOL0     H25505   4.822   2.198  11.315 -0.9144 -0.3791  0.4474
  189MOL0     H25506   4.881   2.130  11.164 -1.0114 -0.7670 -0.1746
  189MOL0     H25507   5.060   2.279  11.134 -3.2444 -1.4644 -1.0241
  189MOL0     H25508   5.063   2.217  11.294  1.2283 -0.2090 -0.2066
  189MOL0     H25509   4.985   2.416  11.400 -1.8145  0.8397  0.6589
  189MOL0     H25510   4.941   2.487  11.246  0.2452 -0.8719 -1.8801
  189MOL0     H25511   5.169   2.514  11.173  0.2772  2.4153  1.1085
  189MOL0     H25512   5.217   2.385  11.271 -2.2669 -1.5922  0.5049
  189MOL0     H25513   5.272   2.731  11.519 -0.9240 -0.2262  0.3928
  189MOL0     H25514   4.614   2.373  10.963 -0.9341  1.7638  0.5155
  189MOL0     H25515   4.367   2.313  10.936 -2.0686 -3.4138 -0.2274
  190MOL0     O25516  11.234   1.765   4.573  0.5177 -0.5569 -0.3366
  190MOL0     C25517  11.349   1.784   4.610 -0.1813  0.1279 -0.4404
  190MOL0     O25518  11.384   1.870   4.719  0.1230  0.0416 -0.4973
  190MOL0     C25519  11.288   1.931   4.794  0.1931  0.0408 -0.3772
  190MOL0     C25520  11.304   2.070   4.834  0.7104  0.9646  0.9714
  190MOL0     C25521  11.211   2.134   4.911 -0.0242 -0.0656  0.6666
  190MOL0     C25522  11.104   2.067   4.957 -0.0544 -0.3148 -0.3787
  190MOL0     O25523  10.998   2.126   5.022 -0.2281  0.2916 -0.1215
  190MOL0     C25524  10.913   2.210   4.944  0.0744 -0.4138  0.3320
  190MOL0     C25525  10.832   2.135   4.846  0.1434  0.5675 -0.7275
  190MOL0     C25526  10.707   2.062   4.906 -0.1549  1.0193 -0.9397
  190MOL0     C25527  10.602   2.033   4.793  0.7592  0.3773 -0.3994
  190MOL0     C25528  10.489   1.946   4.856 -0.5208 -0.6381  0.4775
  190MOL0     C25529  10.389   2.025   4.926 -0.2270  0.7503 -0.2996
  190MOL0     C25530  10.325   1.943   5.037  0.8366 -0.6934 -0.3249
  190MOL0     C25531  10.263   1.806   4.990 -0.3237  0.1859 -0.3707
  190MOL0     N25532  10.143   1.821   4.909 -0.8497 -0.3286 -0.6470
  190MOL0     C25533  10.124   1.854   4.778  0.3692  0.4620  0.3430
  190MOL0     C25534   9.987   1.833   4.759  0.6902 -1.0390 -0.6653
  190MOL0     C25535   9.905   1.875   4.640 -0.2569 -0.0418 -0.1139
  190MOL0     C25536   9.758   1.833   4.648  0.0001  0.0360 -0.2743
  190MOL0     C25537   9.730   1.685   4.650  0.4672  0.8490  0.1958
  190MOL0     C25538   9.573   1.655   4.656  0.1656  0.9713 -0.3280
  190MOL0     O25539   9.524   1.674   4.526  0.2680  0.2012  0.1401
  190MOL0     C25540   9.395   1.633   4.508  0.4670  0.2487 -0.0983
  190MOL0     C25541   9.329   1.525   4.581 -0.6742  0.2259 -1.2977
  190MOL0     C25542   9.196   1.486   4.567 -0.1328  0.1905 -0.0988
  190MOL0     C25543   9.128   1.389   4.669  0.8132  0.3622 -0.4402
  190MOL0     C25544   9.123   1.532   4.457  1.0881 -1.0017 -0.0429
  190MOL0     C25545   8.985   1.497   4.420 -0.2662  0.4142  0.1967
  190MOL0     O25546   8.939   1.549   4.305  0.7500 -0.1527 -0.2996
  190MOL0     C25547   8.808   1.517   4.265 -0.4342 -1.2453  0.1558
  190MOL0     C25548   8.687   1.566   4.321 -0.3190  0.7308 -0.6669
  190MOL0     C25549   8.565   1.529   4.260  0.1067 -0.1814 -0.1027
  190MOL0     C25550   8.552   1.444   4.152 -0.3855 -0.7748  0.3283
  190MOL0     O25551   8.429   1.434   4.099  0.7754  1.0431 -0.3097
  190MOL0     C25552   8.388   1.309   4.027  0.6640 -0.5603 -0.4022
  190MOL0     C25553   8.233   1.314   4.020 -0.4034 -0.1209 -1.1559
  190MOL0     C25554   8.178   1.290   4.165  0.5734 -0.6793 -0.4516
  190MOL0     C25555   8.208   1.158   4.241  0.3647 -0.1421  0.0543
  190MOL0     C25556   8.132   1.036   4.186  0.0427  0.1179 -0.6186
  190MOL0     C25557   8.148   0.902   4.262  0.0733  0.7872 -0.7047
  190MOL0     C25558   8.148   0.915   4.418  0.1991  0.4608  0.0809
  190MOL0     C25559   8.114   0.777   4.491 -0.9406 -0.0137  0.1544
  190MOL0    Cl25560   7.949   0.722   4.467  0.4803 -0.1514  0.0029
  190MOL0     C25561   8.674   1.381   4.109  0.2045 -0.3522 -0.3231
  190MOL0     C25562   8.798   1.421   4.162 -0.2125  0.7377  0.0173
  190MOL0     O25563   8.913   1.443   4.503 -0.7783  0.3189 -0.4175
  190MOL0     C25564   9.188   1.626   4.379  0.1873 -0.3452 -0.0493
  190MOL0     C25565   9.317   1.679   4.401  0.0339  0.0274 -0.2875
  190MOL0     N25566   9.934   1.797   4.887  0.2494  0.2411  0.1184
  190MOL0     N25567  10.028   1.793   4.974 -0.4424  0.2488 -1.0148
  190MOL0     C25568  11.085   1.933   4.925 -0.3436  0.6415  0.3321
  190MOL0     C25569  11.175   1.860   4.849 -0.1523  0.6239  0.1214
  190MOL0     C25570  11.454   1.720   4.530 -0.0992 -0.2489 -0.3070
  190MOL0     C25571  11.577   1.793   4.526 -0.2090  0.2524  0.5557
  190MOL0     C25572  11.681   1.742   4.443 -0.4165  0.3905 -0.0371
  190MOL0     C25573  11.664   1.618   4.380  0.4394  0.0056  0.4481
  190MOL0     O25574  11.766   1.564   4.306  0.2634 -0.0500  0.5015
  190MOL0     C25575  11.898   1.622   4.310 -0.5711 -1.2149  0.5121
  190MOL0     C25576  12.002   1.551   4.233 -0.3403  0.1655  0.1017
  190MOL0     C25577  12.038   1.429   4.318  0.0591 -0.2727  1.0641
  190MOL0     C25578  12.112   1.314   4.250  0.9195  0.5049  0.1997
  190MOL0     C25579  12.230   1.365   4.183  0.1576  0.0928 -0.4867
  190MOL0     C25580  12.319   1.419   4.121  0.3325 -0.7194 -0.1391
  190MOL0     C25581  11.546   1.550   4.388  0.6249  0.0004 -0.3693
  190MOL0     C25582  11.441   1.600   4.462 -0.1263  0.6352  0.2269
  190MOL0     H25583  11.384   2.125   4.787  0.4750 -0.5269 -1.3249
  190MOL0     H25584  11.224   2.242   4.916 -0.6393  0.1247 -0.9400
  190MOL0     H25585  10.843   2.249   5.018 -0.4641 -1.0239  0.1504
  190MOL0     H25586  10.978   2.286   4.900  0.1565 -0.7510 -0.1313
  190MOL0     H25587  10.793   2.203   4.769  0.3141  0.5674 -0.8122
  190MOL0     H25588  10.899   2.063   4.798  0.0226 -0.1184  0.1147
  190MOL0     H25589  10.736   1.969   4.955 -1.8348 -1.1016 -3.6866
  190MOL0     H25590  10.655   2.129   4.976 -0.6565  1.8521 -2.0677
  190MOL0     H25591  10.572   2.126   4.744 -2.9016 -0.8383 -0.7577
  190MOL0     H25592  10.662   1.979   4.719  3.6709  0.9009  1.4084
  190MOL0     H25593  10.453   1.887   4.770  3.3743  0.8969 -2.5215
  190MOL0     H25594  10.536   1.879   4.929 -0.7780 -0.0482  1.1903
  190MOL0     H25595  10.438   2.116   4.962  1.8863  0.5727 -2.5158
  190MOL0     H25596  10.309   2.062   4.861  0.2597 -0.9124 -1.9280
  190MOL0     H25597  10.402   1.931   5.113  0.8757  1.6499  0.0808
  190MOL0     H25598  10.244   2.008   5.073  0.0973 -1.2490 -0.9360
  190MOL0     H25599  10.246   1.740   5.076 -3.8948 -0.0124 -1.0560
  190MOL0     H25600  10.339   1.749   4.936  0.2254 -0.4734  1.0463
  190MOL0     H25601  10.207   1.876   4.712  0.9519 -1.1609  0.4898
  190MOL0     H25602   9.907   1.984   4.632  0.9913  0.1783  2.2897
  190MOL0     H25603   9.955   1.828   4.555  2.8072  0.6686  1.1865
  190MOL0     H25604   9.713   1.875   4.557  1.6142  2.7838  0.0932
  190MOL0     H25605   9.713   1.873   4.740  2.5412 -0.3726  1.2314
  190MOL0     H25606   9.787   1.648   4.736  2.3123  2.0645 -0.4276
  190MOL0     H25607   9.772   1.633   4.564  0.7120  2.8759 -0.9674
  190MOL0     H25608   9.524   1.720   4.729 -2.0066 -0.9679  0.0669
  190MOL0     H25609   9.565   1.551   4.689 -0.3617  1.1452  0.1084
  190MOL0     H25610   9.378   1.465   4.657 -1.4061  1.5549  0.3100
  190MOL0     H25611   9.116   1.287   4.631 -0.1107  1.0492 -2.1117
  190MOL0     H25612   9.195   1.381   4.755  2.4368  1.3542 -1.5540
  190MOL0     H25613   9.035   1.419   4.717  2.5730  0.5621  3.2121
  190MOL0     H25614   8.698   1.623   4.413  1.4652 -0.0424 -0.3560
  190MOL0     H25615   8.483   1.580   4.309  2.3118  3.1315  0.5084
  190MOL0     H25616   8.422   1.311   3.923 -1.8640  0.3771 -1.2723
  190MOL0     H25617   8.431   1.223   4.079  1.4782  1.0437  1.7217
  190MOL0     H25618   8.179   1.403   3.987 -2.6753 -1.6467 -1.7930
  190MOL0     H25619   8.203   1.230   3.957 -1.5635 -0.5975 -0.0217
  190MOL0     H25620   8.069   1.302   4.159  0.6358  0.1923 -0.0407
  190MOL0     H25621   8.216   1.370   4.229 -1.1972 -1.5302  1.8078
  190MOL0     H25622   8.311   1.124   4.233  0.4543 -0.0243  0.6411
  190MOL0     H25623   8.191   1.182   4.347 -2.6200 -0.2353 -0.3045
  190MOL0     H25624   8.153   1.023   4.080 -2.5936  0.4152 -1.2599
  190MOL0     H25625   8.027   1.066   4.197 -0.2043 -1.1560  0.9806
  190MOL0     H25626   8.073   0.831   4.228  1.5175 -2.6253  2.4902
  190MOL0     H25627   8.251   0.875   4.236  0.9903  2.5068  0.8576
  190MOL0     H25628   8.072   0.992   4.439  0.0262  0.0469  1.0229
  190MOL0     H25629   8.248   0.940   4.455  0.6920 -1.5622  0.2188
  190MOL0     H25630   8.116   0.783   4.601  1.7765 -2.2397  0.3091
  190MOL0     H25631   8.190   0.705   4.464  0.8715  2.0203 -0.4516
  190MOL0     H25632   8.691   1.308   4.031 -0.6071 -0.5579 -0.3171
  190MOL0     H25633   8.891   1.387   4.117 -0.5259  0.3151 -0.3233
  190MOL0     H25634   9.134   1.657   4.291 -1.6042 -2.4868  0.2156
  190MOL0     H25635   9.363   1.748   4.331 -0.6274  2.4188  1.4944
  190MOL0     H25636  10.996   1.886   4.964  0.0025  0.1854  0.5694
  190MOL0     H25637  11.165   1.752   4.843 -2.1838  0.7091  1.0814
  190MOL0     H25638  11.601   1.886   4.576  0.4926 -0.1365  0.9504
  190MOL0     H25639  11.766   1.808   4.443  0.5023 -0.6961  1.8815
  190MOL0     H25640  11.892   1.716   4.255  3.0738 -1.0828  0.0848
  190MOL0     H25641  11.926   1.640   4.414 -0.7822  0.7223  0.2676
  190MOL0     H25642  12.095   1.603   4.210  1.1437 -1.7210  1.5236
  190MOL0     H25643  11.950   1.511   4.146  0.7608 -0.7072 -0.1836
  190MOL0     H25644  11.946   1.377   4.346  0.8954 -2.1347  0.4706
  190MOL0     H25645  12.103   1.454   4.402  2.7219  2.5555 -1.5919
  190MOL0     H25646  12.041   1.272   4.178  1.2700  0.5397 -0.1700
  190MOL0     H25647  12.130   1.237   4.325 -0.5224  1.8131  1.9786
  190MOL0     H25648  12.403   1.442   4.059 -0.3584  1.1769 -0.4208
  190MOL0     H25649  11.538   1.460   4.327  3.0344 -1.4486  1.2902
  190MOL0     H25650  11.343   1.554   4.466  0.7127 -1.1625  1.8373
  191MOL0     O25651   1.008   7.418  10.430 -0.5463  0.4321  0.1202
  191MOL0     C25652   1.085   7.519  10.421  0.6551  0.3000  0.8497
  191MOL0     O25653   1.045   7.647  10.428 -0.1362  0.7207  0.9732
  191MOL0     C25654   0.905   7.652  10.429 -0.1190 -0.2125 -0.2663
  191MOL0     C25655   0.833   7.683  10.305 -0.4152  0.3184 -0.4893
  191MOL0     C25656   0.695   7.706  10.305 -0.5492 -0.3487  0.7320
  191MOL0     C25657   0.619   7.704  10.423  0.1953  0.3001 -0.6565
  191MOL0     O25658   0.479   7.712  10.418 -0.7351 -0.0752  0.5410
  191MOL0     C25659   0.419   7.829  10.372  0.2908  0.0147  0.1403
  191MOL0     C25660   0.321   7.798  10.251  0.1529  0.0196  0.2241
  191MOL0     C25661   0.216   7.685  10.286  0.6460 -0.2838 -0.0225
  191MOL0     C25662   0.143   7.646  10.150  0.4354 -0.4500  0.0130
  191MOL0     C25663   0.036   7.754  10.100 -0.5623  0.0074 -1.0542
  191MOL0     C25664  -0.044   7.708   9.975  0.8069  0.2419 -0.1894
  191MOL0     C25665  -0.151   7.599  10.013 -0.1674 -0.3062  0.1496
  191MOL0     C25666  -0.197   7.513   9.894  0.4536  0.3169 -0.2683
  191MOL0     N25667  -0.253   7.580   9.779  0.3139  0.1863  0.6568
  191MOL0     C25668  -0.309   7.706   9.797  0.1732 -0.5083 -0.2458
  191MOL0     C25669  -0.330   7.754   9.674 -0.5065 -0.1020  0.0485
  191MOL0     C25670  -0.387   7.895   9.636 -0.1744  0.6244 -0.3857
  191MOL0     C25671  -0.274   7.985   9.584  0.5467 -0.8680 -0.0336
  191MOL0     C25672  -0.329   8.129   9.573 -0.2330  0.7939 -0.0103
  191MOL0     C25673  -0.255   8.219   9.469  1.0081  0.1436  0.4407
  191MOL0     O25674  -0.265   8.365   9.486 -0.1239  0.0679  0.5367
  191MOL0     C25675  -0.382   8.427   9.452 -0.2984  0.3918  0.3093
  191MOL0     C25676  -0.473   8.381   9.358 -0.4207  0.6405  0.0209
  191MOL0     C25677  -0.586   8.452   9.338 -0.5862 -0.4954  0.2107
  191MOL0     C25678  -0.684   8.400   9.231 -0.5261 -0.1185 -0.2879
  191MOL0     C25679  -0.611   8.579   9.396 -0.0023  0.2749 -0.1084
  191MOL0     C25680  -0.731   8.671   9.374 -0.3409  0.2705  0.4750
  191MOL0     O25681  -0.777   8.751   9.472  0.6388 -0.1623 -0.1858
  191MOL0     C25682  -0.890   8.826   9.437 -0.2845 -0.7465  0.3141
  191MOL0     C25683  -1.011   8.767   9.444 -0.4270  0.3342  0.3861
  191MOL0     C25684  -1.134   8.833   9.393 -0.0854 -0.4996 -0.4553
  191MOL0     C25685  -1.121   8.969   9.355 -0.0208  0.2570  0.9151
  191MOL0     O25686  -1.241   9.023   9.322 -0.2652 -0.3243 -0.0477
  191MOL0     C25687  -1.239   9.169   9.325  0.3519 -0.4308 -0.1856
  191MOL0     C25688  -1.374   9.228   9.364 -0.3513  0.7038 -0.5400
  191MOL0     C25689  -1.382   9.378   9.333  0.1358  0.0268 -0.4490
  191MOL0     C25690  -1.469   9.462   9.425  1.4190  0.2614 -0.2001
  191MOL0     C25691  -1.614   9.407   9.434  0.1824  0.4604 -0.4782
  191MOL0     C25692  -1.683   9.386   9.303  0.3053  0.0480  0.3723
  191MOL0     C25693  -1.821   9.346   9.323 -0.4241 -0.1219  0.0897
  191MOL0     C25694  -1.897   9.322   9.195  0.2985  0.2630  0.2514
  191MOL0    Cl25695  -1.933   9.480   9.110  0.0265  0.6088 -0.1447
  191MOL0     C25696  -0.991   9.028   9.355  0.4850 -0.5212  0.6459
  191MOL0     C25697  -0.877   8.956   9.379  0.3729  0.4362 -0.3219
  191MOL0     O25698  -0.786   8.661   9.257 -0.0405  0.1316 -0.7619
  191MOL0     C25699  -0.514   8.625   9.486  0.6305 -0.0776 -0.1561
  191MOL0     C25700  -0.396   8.552   9.504  0.8862  0.1291 -1.1438
  191MOL0     N25701  -0.277   7.667   9.581  0.2770  0.1246 -0.5251
  191MOL0     N25702  -0.227   7.558   9.643 -0.4419 -0.3283  1.1012
  191MOL0     C25703   0.689   7.696  10.543 -0.1084 -0.3740 -0.5606
  191MOL0     C25704   0.828   7.668  10.546  0.7051 -1.0111  0.3067
  191MOL0     C25705   1.222   7.486  10.402 -0.4081 -0.0238 -0.6619
  191MOL0     C25706   1.316   7.591  10.395 -0.7700 -0.3742 -0.1658
  191MOL0     C25707   1.451   7.552  10.375  0.4850 -0.5793  0.0637
  191MOL0     C25708   1.491   7.420  10.359  0.9226  0.0280  0.7550
  191MOL0     O25709   1.621   7.373  10.349  0.1098 -0.1048 -0.3532
  191MOL0     C25710   1.665   7.252  10.280  0.3980  0.6044 -0.6462
  191MOL0     C25711   1.821   7.266  10.285 -0.5772  0.2524  0.0431
  191MOL0     C25712   1.883   7.137  10.233 -0.4517  0.5995  0.1748
  191MOL0     C25713   2.042   7.127  10.225  0.2578  0.0251 -0.6717
  191MOL0     C25714   2.073   6.988  10.192  0.4321 -0.4801  0.6544
  191MOL0     C25715   2.106   6.882  10.147 -0.6671  0.1305  0.4807
  191MOL0     C25716   1.394   7.321  10.366 -0.7067  0.4102  0.2734
  191MOL0     C25717   1.266   7.360  10.384 -0.2709  0.1649  0.3995
  191MOL0     H25718   0.890   7.692  10.213  2.5361 -1.0894  1.0719
  191MOL0     H25719   0.653   7.713  10.205 -1.1669 -1.9260  0.8421
  191MOL0     H25720   0.366   7.879  10.454 -0.1523  1.0287 -0.7331
  191MOL0     H25721   0.489   7.902  10.330 -0.1004  0.1121 -0.3569
  191MOL0     H25722   0.272   7.887  10.210 -1.5648 -1.6622 -1.5860
  191MOL0     H25723   0.380   7.770  10.163  0.1827  0.3879  0.1238
  191MOL0     H25724   0.268   7.596  10.323  0.8024 -0.5171 -0.7937
  191MOL0     H25725   0.151   7.722  10.366  2.0318 -2.7112  2.3857
  191MOL0     H25726   0.213   7.630  10.067  0.8047 -0.1963  0.2704
  191MOL0     H25727   0.103   7.547  10.172 -0.0770 -0.1800  0.3288
  191MOL0     H25728  -0.036   7.761  10.182  1.1219 -0.7822  0.5678
  191MOL0     H25729   0.084   7.851  10.082  0.9359 -0.5283 -0.1216
  191MOL0     H25730  -0.085   7.789   9.914  1.1882 -2.0718 -3.7911
  191MOL0     H25731   0.034   7.664   9.912  1.3808  1.6435 -0.4831
  191MOL0     H25732  -0.114   7.536  10.095 -0.5929  1.7818  2.0456
  191MOL0     H25733  -0.244   7.642  10.053 -0.1624 -1.8576  1.9695
  191MOL0     H25734  -0.273   7.443   9.928 -1.6429  0.5764 -3.9068
  191MOL0     H25735  -0.111   7.451   9.866  1.6348  0.8161  1.9695
  191MOL0     H25736  -0.348   7.754   9.886 -0.2968 -2.2766  0.5462
  191MOL0     H25737  -0.466   7.869   9.564  0.0412 -0.0811 -0.3764
  191MOL0     H25738  -0.435   7.941   9.722 -0.0166  0.2243 -0.0827
  191MOL0     H25739  -0.246   7.937   9.490 -1.7998 -0.7972 -0.8374
  191MOL0     H25740  -0.195   7.987   9.660 -0.6039  4.5613  1.4745
  191MOL0     H25741  -0.330   8.178   9.671  0.0119 -0.1791  0.4952
  191MOL0     H25742  -0.430   8.119   9.534  0.2852  1.8477 -1.7055
  191MOL0     H25743  -0.284   8.190   9.368 -0.6550  0.2333  0.8757
  191MOL0     H25744  -0.146   8.207   9.471  1.0163 -0.5467 -1.8645
  191MOL0     H25745  -0.453   8.288   9.307 -2.1085 -1.5388  3.0703
  191MOL0     H25746  -0.691   8.291   9.229  1.6786 -0.4365  2.7194
  191MOL0     H25747  -0.782   8.443   9.255  0.1541  1.0408  0.4838
  191MOL0     H25748  -0.663   8.432   9.128 -1.6452  1.0332 -0.1814
  191MOL0     H25749  -1.014   8.664   9.478 -0.8640  0.5979  1.1950
  191MOL0     H25750  -1.231   8.785   9.387 -0.3823  0.0583 -0.1750
  191MOL0     H25751  -1.160   9.203   9.393 -1.5171  1.2571  1.2727
  191MOL0     H25752  -1.226   9.204   9.222 -1.0980  3.1749  0.6903
  191MOL0     H25753  -1.451   9.172   9.310  0.9782  0.9022 -2.7325
  191MOL0     H25754  -1.390   9.211   9.471  2.9504 -0.2337 -0.0929
  191MOL0     H25755  -1.424   9.371   9.232  0.3727  0.2415 -0.5623
  191MOL0     H25756  -1.284   9.426   9.327  0.4883 -0.8284 -2.6367
  191MOL0     H25757  -1.426   9.450   9.525 -1.4147 -1.6366  0.9221
  191MOL0     H25758  -1.477   9.568   9.399  1.2735  1.0354  2.6650
  191MOL0     H25759  -1.658   9.491   9.489  0.4584  1.5461 -1.8638
  191MOL0     H25760  -1.629   9.313   9.488 -0.1268 -0.4450 -2.0778
  191MOL0     H25761  -1.673   9.480   9.248  2.1587  1.2778  2.6658
  191MOL0     H25762  -1.638   9.310   9.238 -2.9772 -2.3676  0.6490
  191MOL0     H25763  -1.883   9.422   9.370 -2.6103 -0.7338 -1.6180
  191MOL0     H25764  -1.812   9.254   9.382 -0.2865 -0.1106  0.0882
  191MOL0     H25765  -1.995   9.279   9.221  0.2834 -0.2777 -0.6504
  191MOL0     H25766  -1.835   9.251   9.140 -2.1692 -1.8949  0.0622
  191MOL0     H25767  -0.980   9.128   9.312 -0.9800 -0.8078 -0.4921
  191MOL0     H25768  -0.774   8.987   9.371 -0.0161  1.6987 -0.8472
  191MOL0     H25769  -0.517   8.725   9.527  2.9539 -1.0039  2.6117
  191MOL0     H25770  -0.321   8.589   9.573  0.3214 -3.8095  1.9521
  191MOL0     H25771   0.633   7.726  10.632  2.9822 -0.0722  1.4216
  191MOL0     H25772   0.874   7.675  10.644  0.2875 -2.1026  0.5965
  191MOL0     H25773   1.286   7.693  10.415  1.8821  0.1156  1.9762
  191MOL0     H25774   1.530   7.625  10.387  0.1972 -0.6071  2.7682
  191MOL0     H25775   1.627   7.163  10.333 -0.3200 -0.1295 -2.3201
  191MOL0     H25776   1.626   7.259  10.179 -1.0631  1.5999 -0.0392
  191MOL0     H25777   1.864   7.279  10.385 -0.6236  0.9596 -0.0214
  191MOL0     H25778   1.848   7.352  10.223 -0.5301  1.0853  1.1765
  191MOL0     H25779   1.855   7.115  10.129 -1.7761  0.2732  0.5812
  191MOL0     H25780   1.835   7.055  10.287 -1.1801 -0.6798 -2.2562
  191MOL0     H25781   2.097   7.152  10.316 -1.0906 -2.5327  0.9817
  191MOL0     H25782   2.066   7.199  10.147  1.6614  2.5447  1.8833
  191MOL0     H25783   2.128   6.787  10.103  2.8546  0.3088  1.5260
  191MOL0     H25784   1.410   7.214  10.364 -1.2917  0.3136  0.5744
  191MOL0     H25785   1.197   7.277  10.373 -0.4805  0.7029 -3.8780
  192MOL0     O25786   2.814   3.057   3.655  0.4956  0.2109  0.0504
  192MOL0     C25787   2.898   3.129   3.611 -0.0707 -0.2919  0.5556
  192MOL0     O25788   2.885   3.240   3.546  0.1974 -0.4609 -0.2283
  192MOL0     C25789   2.759   3.290   3.541  0.5061  0.3094  0.6615
  192MOL0     C25790   2.697   3.315   3.421  0.9493 -0.1780  0.2013
  192MOL0     C25791   2.572   3.378   3.411  0.4752 -0.1477  0.0367
  192MOL0     C25792   2.497   3.420   3.525  0.0262  0.9981 -0.5296
  192MOL0     O25793   2.364   3.458   3.519  0.3363  0.1528  0.1547
  192MOL0     C25794   2.282   3.399   3.418  0.3463 -0.5744 -0.3763
  192MOL0     C25795   2.141   3.462   3.431 -0.3540 -0.2223 -0.0457
  192MOL0     C25796   2.031   3.414   3.320  0.5867  0.0628 -0.9557
  192MOL0     C25797   1.912   3.516   3.320  0.5014 -0.9738  0.7428
  192MOL0     C25798   1.788   3.467   3.233 -0.1872 -0.1888 -0.2419
  192MOL0     C25799   1.671   3.563   3.242 -0.3280  0.4873  0.4340
  192MOL0     C25800   1.547   3.513   3.172 -0.7628  1.0778 -0.4962
  192MOL0     C25801   1.474   3.412   3.257  0.7922 -0.5365  0.7337
  192MOL0     N25802   1.335   3.398   3.211 -0.3652  1.2777 -0.1944
  192MOL0     C25803   1.227   3.465   3.260  0.7627  0.3743  0.0641
  192MOL0     C25804   1.119   3.399   3.206 -0.1408 -0.4491 -0.6446
  192MOL0     C25805   0.967   3.412   3.215 -0.2202  0.1949  0.0482
  192MOL0     C25806   0.906   3.488   3.097  0.5307 -0.5068  0.0155
  192MOL0     C25807   0.762   3.515   3.113 -1.0660  0.4400 -0.3027
  192MOL0     C25808   0.699   3.571   2.983 -0.4330  0.0217 -0.8135
  192MOL0     O25809   0.564   3.601   3.017  0.2880 -0.4071 -0.0395
  192MOL0     C25810   0.472   3.505   3.006 -0.2235 -0.0248  0.1456
  192MOL0     C25811   0.470   3.395   2.911  0.2189 -0.4241  0.3495
  192MOL0     C25812   0.356   3.320   2.898  0.2961 -0.4164 -0.5946
  192MOL0     C25813   0.366   3.192   2.801 -0.5108 -0.3477  0.0294
  192MOL0     C25814   0.244   3.336   2.989 -0.3444 -0.4283  0.5069
  192MOL0     C25815   0.123   3.248   2.983 -0.2311  0.3237 -0.7490
  192MOL0     O25816   0.106   3.161   2.879  0.3963  0.7264 -0.6561
  192MOL0     C25817  -0.003   3.086   2.875  0.4922  0.4518  0.2829
  192MOL0     C25818   0.012   2.949   2.866 -0.1862 -1.1167  0.2851
  192MOL0     C25819  -0.100   2.869   2.847 -0.3659 -0.7372 -0.4004
  192MOL0     C25820  -0.235   2.922   2.847 -0.6285  0.4648  0.3784
  192MOL0     O25821  -0.344   2.846   2.815  0.0171 -0.2632 -0.3058
  192MOL0     C25822  -0.332   2.704   2.817  0.2182  0.9690  0.0817
  192MOL0     C25823  -0.463   2.631   2.839  0.3437  0.4415  0.7726
  192MOL0     C25824  -0.557   2.660   2.727  1.1198 -0.4011  0.0620
  192MOL0     C25825  -0.695   2.610   2.764 -0.5279 -0.7783 -0.8746
  192MOL0     C25826  -0.781   2.623   2.636 -1.1256 -0.2183 -0.3122
  192MOL0     C25827  -0.928   2.624   2.669 -0.3947 -1.1320 -0.3030
  192MOL0     C25828  -0.990   2.623   2.525 -0.0008  0.2530  0.5679
  192MOL0     C25829  -1.126   2.695   2.534 -0.1162  0.8651 -0.1730
  192MOL0    Cl25830  -1.236   2.613   2.655  0.5071  0.1446  0.2368
  192MOL0     C25831  -0.244   3.057   2.859  0.4591  0.0607  0.5920
  192MOL0     C25832  -0.129   3.142   2.877  0.8014  0.0660 -0.7491
  192MOL0     O25833   0.060   3.244   3.084  0.6109 -0.2091 -0.2764
  192MOL0     C25834   0.249   3.442   3.085 -0.4898  0.0247 -0.9737
  192MOL0     C25835   0.367   3.519   3.101  0.5219 -0.0814 -0.2623
  192MOL0     N25836   1.169   3.307   3.110  0.1315 -1.2969 -0.2115
  192MOL0     N25837   1.299   3.317   3.113 -0.3329  0.0341  0.6924
  192MOL0     C25838   2.567   3.403   3.645 -0.2659 -0.0550 -0.4919
  192MOL0     C25839   2.695   3.341   3.654  0.5956  0.0270 -0.1123
  192MOL0     C25840   3.040   3.089   3.621  0.0966  0.1119  0.2227
  192MOL0     C25841   3.077   2.971   3.693 -0.5691  0.6048 -0.1863
  192MOL0     C25842   3.207   2.923   3.697  0.5558 -0.5466  0.6683
  192MOL0     C25843   3.309   2.995   3.636 -0.3213 -0.6206 -0.1280
  192MOL0     O25844   3.437   2.932   3.622 -0.6161 -0.1920  0.6043
  192MOL0     C25845   3.534   2.989   3.530 -0.2148  0.7443  0.5619
  192MOL0     C25846   3.671   2.917   3.535 -0.4560  0.3982 -0.0204
  192MOL0     C25847   3.730   2.912   3.677 -0.4163  0.4710  0.3772
  192MOL0     C25848   3.866   2.834   3.682 -0.2319 -1.2928  0.3338
  192MOL0     C25849   3.860   2.700   3.628 -0.1131 -0.1633 -0.4447
  192MOL0     C25850   3.861   2.585   3.602 -0.5768 -0.9138  0.5784
  192MOL0     C25851   3.280   3.119   3.574 -0.3310  0.4791  0.2682
  192MOL0     C25852   3.139   3.165   3.562 -0.0253 -0.1593  0.0673
  192MOL0     H25853   2.750   3.285   3.331  1.4319  2.4373 -0.4962
  192MOL0     H25854   2.531   3.395   3.312 -1.6163  0.1182  0.8912
  192MOL0     H25855   2.324   3.422   3.320  1.5448 -0.6442  0.1027
  192MOL0     H25856   2.267   3.291   3.421 -4.9515 -0.1010 -0.0784
  192MOL0     H25857   2.091   3.431   3.523 -1.5870  0.4571 -0.4690
  192MOL0     H25858   2.160   3.569   3.431  4.5663 -0.8451 -0.0225
  192MOL0     H25859   2.075   3.408   3.220  0.2928  0.9483 -1.1439
  192MOL0     H25860   1.993   3.315   3.347  0.1643 -0.0334 -1.8802
  192MOL0     H25861   1.873   3.525   3.421 -3.2185  0.2676 -0.6200
  192MOL0     H25862   1.955   3.610   3.285 -0.4242 -0.7003  0.3191
  192MOL0     H25863   1.826   3.449   3.132 -0.1134 -3.3554  0.2510
  192MOL0     H25864   1.757   3.366   3.261  0.5081 -1.2039 -2.8506
  192MOL0     H25865   1.649   3.582   3.347 -2.6618  2.4464 -0.3002
  192MOL0     H25866   1.700   3.661   3.203  0.5703  0.3874  0.8395
  192MOL0     H25867   1.494   3.599   3.130  1.1751  2.4132 -0.3436
  192MOL0     H25868   1.566   3.444   3.089 -0.5826 -0.1335  0.5146
  192MOL0     H25869   1.456   3.451   3.358  0.3730 -2.5686  1.4994
  192MOL0     H25870   1.526   3.316   3.257  2.7685  0.4944  0.1133
  192MOL0     H25871   1.206   3.550   3.325 -0.5059 -0.9847  1.4965
  192MOL0     H25872   0.918   3.316   3.235 -1.9324  0.8065 -1.0294
  192MOL0     H25873   0.945   3.461   3.311 -0.7235  1.0060 -0.4718
  192MOL0     H25874   0.915   3.433   3.003  0.5754 -2.0796  0.9045
  192MOL0     H25875   0.958   3.584   3.095 -0.0017 -0.2178 -0.1491
  192MOL0     H25876   0.753   3.581   3.200  3.8116 -0.8688  1.4877
  192MOL0     H25877   0.722   3.415   3.129  2.0661 -0.5668  2.2067
  192MOL0     H25878   0.710   3.493   2.907  3.1354  0.5820 -1.0375
  192MOL0     H25879   0.754   3.656   2.943  1.9991 -1.8228 -1.6372
  192MOL0     H25880   0.552   3.379   2.842 -0.9157  1.0383 -1.4242
  192MOL0     H25881   0.332   3.101   2.852 -3.0440  0.3405 -0.2695
  192MOL0     H25882   0.312   3.207   2.707  1.9305  3.0050 -1.0301
  192MOL0     H25883   0.471   3.171   2.779 -1.1071 -0.0654 -3.8444
  192MOL0     H25884   0.112   2.909   2.859  1.6155  3.1302 -2.2446
  192MOL0     H25885  -0.078   2.766   2.823 -0.9916 -1.2476  1.0584
  192MOL0     H25886  -0.266   2.676   2.734 -0.2822  1.5325 -0.5268
  192MOL0     H25887  -0.267   2.679   2.900 -1.8971 -2.0871  0.9582
  192MOL0     H25888  -0.444   2.524   2.850 -1.5719 -0.0708 -0.3761
  192MOL0     H25889  -0.503   2.673   2.931  0.9483 -1.2939  1.8798
  192MOL0     H25890  -0.517   2.594   2.649  1.2554 -1.4206  0.9725
  192MOL0     H25891  -0.557   2.765   2.697 -1.2824 -0.8316 -1.7836
  192MOL0     H25892  -0.677   2.507   2.798 -0.6253 -0.5742 -0.1917
  192MOL0     H25893  -0.736   2.665   2.849 -2.9149  0.3380 -2.6434
  192MOL0     H25894  -0.749   2.535   2.580  1.1623  0.2653  0.1319
  192MOL0     H25895  -0.753   2.717   2.587 -2.8727  1.2968  1.3961
  192MOL0     H25896  -0.964   2.536   2.723  0.0069 -1.1704 -0.0968
  192MOL0     H25897  -0.942   2.714   2.728 -1.9453 -0.6339 -1.3736
  192MOL0     H25898  -1.014   2.519   2.504 -2.6130  0.8774  0.1690
  192MOL0     H25899  -0.926   2.669   2.449 -2.5951  1.3716 -1.0897
  192MOL0     H25900  -1.162   2.687   2.430 -2.0304 -0.2865  0.5271
  192MOL0     H25901  -1.117   2.798   2.567 -1.1966  0.7986  0.3520
  192MOL0     H25902  -0.344   3.096   2.851  1.1720  1.9333  0.4374
  192MOL0     H25903  -0.149   3.245   2.905  3.4064  0.1989  0.9410
  192MOL0     H25904   0.161   3.455   3.146 -0.9610  0.7836 -1.7885
  192MOL0     H25905   0.387   3.575   3.192  0.0568 -1.9228  1.0395
  192MOL0     H25906   2.534   3.424   3.747  1.5344  1.2614 -0.1337
  192MOL0     H25907   2.755   3.326   3.743  1.3327 -1.0388 -0.7673
  192MOL0     H25908   3.009   2.923   3.762  0.5171  0.4972  0.8404
  192MOL0     H25909   3.242   2.842   3.761  2.4049  1.1657  1.9450
  192MOL0     H25910   3.487   2.998   3.431 -3.4345 -2.4199  1.6036
  192MOL0     H25911   3.548   3.089   3.571  0.3430  0.4178  1.1755
  192MOL0     H25912   3.739   2.976   3.473  0.4728  1.2549  1.7415
  192MOL0     H25913   3.662   2.820   3.485  1.3044  0.6684 -0.9227
  192MOL0     H25914   3.656   2.857   3.737 -1.4356  1.6348  0.2157
  192MOL0     H25915   3.748   3.014   3.711  0.0610  1.2253 -1.9863
  192MOL0     H25916   3.898   2.841   3.786  1.0280  1.1625 -0.1475
  192MOL0     H25917   3.947   2.893   3.638 -1.8635  0.0309 -1.0724
  192MOL0     H25918   3.862   2.491   3.550 -1.8236 -0.5090 -0.2121
  192MOL0     H25919   3.362   3.178   3.532  0.1174 -0.7713 -0.6775
  192MOL0     H25920   3.128   3.266   3.522  1.8843  0.0134 -0.1502
  193MOL0     O25921   9.894   2.748   5.728  0.5790  0.3194 -0.1875
  193MOL0     C25922   9.956   2.774   5.626  0.6532  0.2987 -0.1615
  193MOL0     O25923   9.904   2.812   5.503 -0.1313 -0.1726  0.0676
  193MOL0     C25924   9.765   2.811   5.496 -0.4793 -0.0894 -0.4154
  193MOL0     C25925   9.679   2.703   5.464 -0.0902  0.4661  0.2203
  193MOL0     C25926   9.540   2.732   5.438 -1.0589 -0.6073 -0.4613
  193MOL0     C25927   9.487   2.865   5.449 -0.3874 -0.1460  0.2412
  193MOL0     O25928   9.351   2.876   5.444 -0.5862  0.1905 -0.5458
  193MOL0     C25929   9.302   2.995   5.392 -0.0456 -0.8948  0.3291
  193MOL0     C25930   9.154   2.967   5.361  0.8475 -1.1590  0.4748
  193MOL0     C25931   9.097   3.058   5.256  0.5393 -0.1656  0.7111
  193MOL0     C25932   9.067   3.206   5.292 -0.7515  0.1740 -0.2841
  193MOL0     C25933   8.937   3.228   5.379 -0.8710 -0.3360  1.1614
  193MOL0     C25934   8.808   3.220   5.292  0.1094 -0.4489 -0.1426
  193MOL0     C25935   8.694   3.261   5.382 -0.0818 -0.1019 -0.1948
  193MOL0     C25936   8.630   3.134   5.455  0.0320 -0.3724  0.5257
  193MOL0     N25937   8.509   3.153   5.537  0.3296 -0.2502  0.0592
  193MOL0     C25938   8.396   3.211   5.492 -0.3233 -0.4501  0.3076
  193MOL0     C25939   8.318   3.224   5.607  0.1289  0.0606  0.2984
  193MOL0     C25940   8.175   3.272   5.613 -0.8191 -0.0574  0.5429
  193MOL0     C25941   8.070   3.157   5.641 -0.1308 -0.7485  0.4434
  193MOL0     C25942   7.931   3.195   5.623  0.8456  0.2375 -0.2761
  193MOL0     C25943   7.832   3.080   5.654 -0.7961 -0.3512 -0.0265
  193MOL0     O25944   7.710   3.119   5.583 -0.1443 -0.2095  0.1050
  193MOL0     C25945   7.623   3.209   5.646  0.7200 -0.1073  0.7064
  193MOL0     C25946   7.610   3.249   5.780  0.5729 -0.3090  0.5115
  193MOL0     C25947   7.520   3.345   5.831 -1.0563  0.2027  0.1085
  193MOL0     C25948   7.531   3.374   5.976  0.4993 -1.1047 -0.8786
  193MOL0     C25949   7.429   3.405   5.737 -0.5712 -0.2773  0.5772
  193MOL0     C25950   7.309   3.482   5.767 -0.0936  0.5665 -0.2298
  193MOL0     O25951   7.248   3.560   5.674 -0.0213  0.4057 -0.6527
  193MOL0     C25952   7.120   3.611   5.700 -0.7811 -0.0921 -0.6896
  193MOL0     C25953   7.067   3.682   5.810  0.3046  0.0157 -0.4264
  193MOL0     C25954   6.932   3.726   5.809 -0.0967  0.3433 -0.2895
  193MOL0     C25955   6.855   3.721   5.692 -0.2609  0.0330 -0.0603
  193MOL0     O25956   6.729   3.775   5.686 -0.2778 -0.6152 -0.2248
  193MOL0     C25957   6.708   3.910   5.713 -0.2068 -1.2789 -0.0902
  193MOL0     C25958   6.595   3.965   5.627  0.2648  0.2215  0.4250
  193MOL0     C25959   6.618   3.946   5.477 -0.3975 -0.0811  0.3062
  193MOL0     C25960   6.508   4.010   5.398  0.4983  0.8036 -0.2410
  193MOL0     C25961   6.520   3.988   5.243 -0.4714  0.3348  0.7713
  193MOL0     C25962   6.506   3.841   5.184  0.3174  0.0435 -0.3314
  193MOL0     C25963   6.520   3.849   5.031  0.8901 -0.1515 -0.3567
  193MOL0     C25964   6.514   3.702   4.983  0.7595 -0.6636  1.6116
  193MOL0    Cl25965   6.340   3.627   5.001 -0.2596  0.4006 -0.2754
  193MOL0     C25966   6.914   3.658   5.580  0.6843  0.9808  0.9933
  193MOL0     C25967   7.039   3.608   5.585 -0.0278 -0.5226  0.2226
  193MOL0     O25968   7.258   3.451   5.875 -0.1182 -0.4157 -0.2807
  193MOL0     C25969   7.443   3.371   5.603 -0.5465  0.4848 -0.7118
  193MOL0     C25970   7.536   3.275   5.554 -0.2610 -0.3618 -0.0003
  193MOL0     N25971   8.382   3.170   5.710 -0.1511 -0.8901 -0.6713
  193MOL0     N25972   8.502   3.135   5.674 -0.3193 -0.1460 -0.0260
  193MOL0     C25973   9.579   2.965   5.486  0.4281 -0.2650 -0.4921
  193MOL0     C25974   9.713   2.945   5.500 -0.2111  0.6057 -0.1358
  193MOL0     C25975  10.104   2.769   5.630 -0.7357  0.4457 -0.7623
  193MOL0     C25976  10.176   2.690   5.723  0.3578  0.6584 -0.1472
  193MOL0     C25977  10.316   2.671   5.714  0.4598 -0.2963 -0.3880
  193MOL0     C25978  10.396   2.745   5.632 -0.8122 -0.1581 -0.0886
  193MOL0     O25979  10.539   2.717   5.643 -0.0277 -0.2857  0.2589
  193MOL0     C25980  10.631   2.793   5.557  0.6445  0.6225 -1.0508
  193MOL0     C25981  10.661   2.928   5.610 -0.4988  0.2829  0.2729
  193MOL0     C25982  10.694   2.922   5.755  0.4775  0.0702  0.4628
  193MOL0     C25983  10.767   3.042   5.811 -0.2020  0.1607  0.1903
  193MOL0     C25984  10.896   3.062   5.755 -0.2640  0.4612  0.0819
  193MOL0     C25985  10.997   3.101   5.704  0.1941  0.2057  0.1905
  193MOL0     C25986  10.336   2.821   5.538  0.1508  0.7548  0.5659
  193MOL0     C25987  10.190   2.837   5.540 -0.2531  0.3268 -0.1428
  193MOL0     H25988   9.729   2.607   5.453  0.7378  0.5641  2.5654
  193MOL0     H25989   9.476   2.648   5.414 -1.4647  0.0313 -1.6495
  193MOL0     H25990   9.303   3.072   5.470  1.9197 -0.5783  0.0501
  193MOL0     H25991   9.355   3.032   5.303 -1.1624  1.2164  0.4760
  193MOL0     H25992   9.150   2.863   5.326  0.6398 -1.4422  1.3162
  193MOL0     H25993   9.106   2.981   5.458 -0.8882 -1.9786 -0.2310
  193MOL0     H25994   9.169   3.061   5.174  1.2313  0.5974  1.3208
  193MOL0     H25995   9.008   3.007   5.220  0.4787 -0.0023  0.6290
  193MOL0     H25996   9.151   3.246   5.349 -1.5744  0.5755  0.6763
  193MOL0     H25997   9.059   3.251   5.192  1.9243 -4.2609 -2.8287
  193MOL0     H25998   8.939   3.156   5.462  3.9719 -1.4512  0.3595
  193MOL0     H25999   8.953   3.326   5.423 -0.8216 -0.5544  1.6312
  193MOL0     H26000   8.810   3.301   5.219 -0.6064  2.7216  3.0477
  193MOL0     H26001   8.794   3.121   5.249  3.2378 -0.3044 -1.7763
  193MOL0     H26002   8.722   3.345   5.447  1.8700 -2.2527  1.9710
  193MOL0     H26003   8.619   3.298   5.312  0.5449  0.1698 -0.7344
  193MOL0     H26004   8.702   3.082   5.519 -0.8494  0.0559  1.9040
  193MOL0     H26005   8.610   3.069   5.369 -0.4835  0.9373 -0.3710
  193MOL0     H26006   8.372   3.244   5.392 -0.4936 -1.4274  0.0130
  193MOL0     H26007   8.170   3.339   5.699 -3.8697  2.7677 -1.5738
  193MOL0     H26008   8.156   3.341   5.530 -0.6734  2.2405  2.2998
  193MOL0     H26009   8.104   3.136   5.743  2.3219  0.0012 -0.1458
  193MOL0     H26010   8.100   3.072   5.580 -0.2472 -0.4125 -0.0889
  193MOL0     H26011   7.910   3.221   5.518 -3.9543 -2.4327 -0.2562
  193MOL0     H26012   7.907   3.282   5.685  4.1611  1.3500 -0.3587
  193MOL0     H26013   7.820   3.078   5.762 -1.7876  1.6286 -0.0539
  193MOL0     H26014   7.868   2.979   5.631 -1.2019 -0.4938 -0.0509
  193MOL0     H26015   7.674   3.206   5.856  2.3417  0.0314 -0.7295
  193MOL0     H26016   7.470   3.462   5.999 -1.7381 -2.9248  0.6432
  193MOL0     H26017   7.484   3.292   6.031 -1.9097  2.9976  4.0635
  193MOL0     H26018   7.635   3.395   6.003  0.6993 -1.4516 -1.3730
  193MOL0     H26019   7.123   3.699   5.901  2.7976  1.9140 -2.1803
  193MOL0     H26020   6.894   3.764   5.903 -0.3931  0.2447 -0.3686
  193MOL0     H26021   6.685   3.911   5.820  1.9010  0.4253  0.4234
  193MOL0     H26022   6.798   3.970   5.698 -1.1604  0.5423  0.9957
  193MOL0     H26023   6.502   3.920   5.662 -0.5532 -0.9906 -2.9102
  193MOL0     H26024   6.603   4.074   5.639  0.4331  0.1517  0.9635
  193MOL0     H26025   6.619   3.838   5.456 -0.5465 -0.0954  0.3749
  193MOL0     H26026   6.707   4.000   5.444 -0.7376  0.7935  0.7928
  193MOL0     H26027   6.411   3.969   5.427  2.3218 -3.7502  0.1098
  193MOL0     H26028   6.507   4.119   5.410 -0.2622  0.8134 -0.3409
  193MOL0     H26029   6.618   4.018   5.204 -0.7627  0.5091  0.1636
  193MOL0     H26030   6.456   4.048   5.179  0.9413  2.4762  1.2678
  193MOL0     H26031   6.585   3.780   5.229  0.6233 -0.6562 -1.7542
  193MOL0     H26032   6.409   3.798   5.212  0.6677  0.6048  1.9781
  193MOL0     H26033   6.612   3.901   5.004  0.8156  1.5759  2.3772
  193MOL0     H26034   6.443   3.910   4.982  0.2511 -0.5946  0.0642
  193MOL0     H26035   6.597   3.642   5.020  2.8923  2.7654  2.8535
  193MOL0     H26036   6.527   3.713   4.875 -1.0772  2.9914  1.6377
  193MOL0     H26037   6.860   3.645   5.487  0.1624  1.0724  1.2731
  193MOL0     H26038   7.061   3.540   5.503 -2.0362 -0.9780  0.0298
  193MOL0     H26039   7.373   3.409   5.529  0.2180 -0.7423 -2.1163
  193MOL0     H26040   7.545   3.262   5.446 -1.1594 -0.3668 -0.0830
  193MOL0     H26041   9.537   3.065   5.493  1.0888  0.0619 -1.0109
  193MOL0     H26042   9.784   3.024   5.520  0.9804 -0.7038  1.0377
  193MOL0     H26043  10.122   2.612   5.774  1.2080 -0.4020 -0.8029
  193MOL0     H26044  10.352   2.596   5.784 -2.4306 -0.1875  1.3824
  193MOL0     H26045  10.729   2.745   5.562  0.6758  0.7891  1.2871
  193MOL0     H26046  10.589   2.797   5.456  1.8066  0.3699 -1.5529
  193MOL0     H26047  10.573   2.990   5.592 -0.9983 -1.0130 -2.2829
  193MOL0     H26048  10.747   2.962   5.553  0.7138 -2.1194  0.5168
  193MOL0     H26049  10.743   2.827   5.778  0.3855 -0.1684 -0.2864
  193MOL0     H26050  10.598   2.923   5.807  1.0751 -0.0271  1.5973
  193MOL0     H26051  10.769   3.019   5.918 -2.6269  1.4373  0.5743
  193MOL0     H26052  10.710   3.135   5.807 -0.0506  0.2079 -2.4485
  193MOL0     H26053  11.087   3.137   5.658 -1.4178  0.8521 -2.7003
  193MOL0     H26054  10.395   2.870   5.461  0.5672 -0.2288  0.2452
  193MOL0     H26055  10.138   2.904   5.472 -1.3926 -0.0487  0.3480
  194MOL0     O26056   6.474   5.850   2.353  0.6756 -1.1919 -0.1385
  194MOL0     C26057   6.475   5.830   2.478  0.0366  0.3521 -0.9712
  194MOL0     O26058   6.368   5.793   2.557  0.1034 -0.3893 -0.9215
  194MOL0     C26059   6.242   5.790   2.503 -0.4955  1.0056 -0.0475
  194MOL0     C26060   6.180   5.903   2.438 -1.9160  0.0997 -0.2700
  194MOL0     C26061   6.044   5.907   2.413 -0.3737 -0.2988  0.2095
  194MOL0     C26062   5.967   5.793   2.437  0.5225 -0.8922  0.0641
  194MOL0     O26063   5.839   5.790   2.404  0.5227  0.6418 -0.2452
  194MOL0     C26064   5.751   5.871   2.483  0.6085 -0.6885  1.0671
  194MOL0     C26065   5.618   5.802   2.486  0.4703  0.2924 -0.1159
  194MOL0     C26066   5.543   5.816   2.349 -0.2411  0.5215 -0.9728
  194MOL0     C26067   5.423   5.713   2.338  0.2911 -0.3655  0.9924
  194MOL0     C26068   5.330   5.759   2.234  0.2343 -0.9596 -0.3515
  194MOL0     C26069   5.240   5.634   2.206  0.1751  0.1880  0.4275
  194MOL0     C26070   5.136   5.670   2.098  0.2865 -0.5166  0.5921
  194MOL0     C26071   5.013   5.573   2.098  0.0007 -0.3927  0.3054
  194MOL0     N26072   4.931   5.599   1.973 -0.6751  0.3205  0.4061
  194MOL0     C26073   4.905   5.727   1.925  0.0148  0.0564 -0.4300
  194MOL0     C26074   4.828   5.692   1.814  0.4402  0.3881  0.1889
  194MOL0     C26075   4.751   5.782   1.716  0.2841 -0.7983 -0.2678
  194MOL0     C26076   4.607   5.744   1.712 -0.4729 -0.7060  0.1164
  194MOL0     C26077   4.520   5.834   1.630  0.4370  0.3143  0.3755
  194MOL0     C26078   4.373   5.839   1.662  0.4602  0.8418 -0.7644
  194MOL0     O26079   4.336   5.706   1.699  0.0616  0.9035 -0.7297
  194MOL0     C26080   4.213   5.674   1.753 -0.7495 -0.3913 -0.1729
  194MOL0     C26081   4.174   5.539   1.770 -0.2661  0.6685 -0.4747
  194MOL0     C26082   4.053   5.496   1.820 -0.0100 -0.1919 -0.8138
  194MOL0     C26083   4.024   5.350   1.826 -0.0412  0.0767  0.1236
  194MOL0     C26084   3.962   5.603   1.855 -0.7259  0.6070  0.5535
  194MOL0     C26085   3.825   5.588   1.897  0.5584 -0.6383 -0.4952
  194MOL0     O26086   3.761   5.688   1.976  0.2206 -0.1607  0.2360
  194MOL0     C26087   3.625   5.666   1.992  0.4702 -1.2483 -0.7717
  194MOL0     C26088   3.521   5.749   1.940 -0.1046  0.2231 -0.2342
  194MOL0     C26089   3.390   5.718   1.954  0.4084 -0.6797  0.4518
  194MOL0     C26090   3.350   5.614   2.027  0.7544  0.3290  0.0321
  194MOL0     O26091   3.217   5.583   2.018 -0.1963  0.3337  0.6416
  194MOL0     C26092   3.152   5.532   2.131  0.4223  0.8027 -0.1800
  194MOL0     C26093   2.998   5.568   2.120  1.1232 -0.9894 -0.5867
  194MOL0     C26094   2.915   5.483   2.021  0.4284  0.6433 -0.6877
  194MOL0     C26095   2.768   5.521   2.029 -0.3005 -0.0056 -1.2156
  194MOL0     C26096   2.672   5.412   1.987  0.1493  0.5506 -0.2327
  194MOL0     C26097   2.528   5.465   1.978  0.8541 -0.7168  1.0834
  194MOL0     C26098   2.435   5.360   1.912 -0.7400 -0.7004  0.1385
  194MOL0     C26099   2.287   5.389   1.894 -0.3791 -0.2239 -0.0259
  194MOL0    Cl26100   2.239   5.511   1.777 -0.4351  0.0062 -0.2503
  194MOL0     C26101   3.445   5.536   2.090 -0.3137 -0.3098 -0.5641
  194MOL0     C26102   3.584   5.565   2.080 -0.0805  0.7180 -0.8858
  194MOL0     O26103   3.763   5.493   1.853  0.3577  0.2499  0.0995
  194MOL0     C26104   4.013   5.735   1.857  0.2410 -1.0761  0.4396
  194MOL0     C26105   4.132   5.767   1.808  0.1367 -0.4762 -0.3034
  194MOL0     N26106   4.815   5.552   1.797  0.1043 -0.3982  0.3333
  194MOL0     N26107   4.878   5.498   1.893  0.1430 -0.8489 -0.0353
  194MOL0     C26108   6.032   5.675   2.469  0.6243 -0.5434  0.6915
  194MOL0     C26109   6.163   5.676   2.522  0.3028  0.0220  0.7949
  194MOL0     C26110   6.607   5.848   2.549 -0.4115 -0.3229 -0.1798
  194MOL0     C26111   6.720   5.872   2.474 -0.5779 -1.2305  0.5216
  194MOL0     C26112   6.851   5.895   2.524  0.1147 -0.9378  0.5130
  194MOL0     C26113   6.868   5.876   2.659 -0.1302 -0.1592 -0.2444
  194MOL0     O26114   7.000   5.895   2.708 -0.0981 -0.0666  0.0696
  194MOL0     C26115   7.017   5.868   2.841 -0.0077  0.0128 -0.6370
  194MOL0     C26116   7.156   5.897   2.892  0.1544  0.7085  0.1281
  194MOL0     C26117   7.159   5.953   3.030  0.0771  0.9516  0.3480
  194MOL0     C26118   7.112   5.851   3.137  0.1468  0.2886  0.2582
  194MOL0     C26119   7.213   5.751   3.182 -0.9141  0.5277  0.2196
  194MOL0     C26120   7.306   5.690   3.220 -0.2947  0.3148 -0.0976
  194MOL0     C26121   6.753   5.837   2.739  0.5385  0.0467 -0.7292
  194MOL0     C26122   6.624   5.829   2.682  0.4795  0.2738  0.2118
  194MOL0     H26123   6.242   5.991   2.428 -0.0893 -1.3178 -2.3877
  194MOL0     H26124   5.989   5.992   2.375 -1.4755 -0.6367  0.9821
  194MOL0     H26125   5.792   5.886   2.583 -0.5250  2.8962  1.1471
  194MOL0     H26126   5.742   5.973   2.445 -1.8171 -1.6150 -1.1292
  194MOL0     H26127   5.626   5.696   2.510  1.6048  0.7964  1.9881
  194MOL0     H26128   5.560   5.841   2.570  0.7340  0.3973  0.0190
  194MOL0     H26129   5.496   5.912   2.330 -0.4054  0.5396 -0.4658
  194MOL0     H26130   5.613   5.799   2.267 -1.1252 -0.1037 -1.6176
  194MOL0     H26131   5.456   5.618   2.296 -0.2032 -0.0551 -0.1548
  194MOL0     H26132   5.369   5.701   2.432 -0.0310  3.2534  1.4028
  194MOL0     H26133   5.264   5.833   2.279  0.7084 -0.8497  0.1688
  194MOL0     H26134   5.381   5.800   2.146 -1.3118  1.0198 -0.3810
  194MOL0     H26135   5.302   5.557   2.159  2.1673  2.1520 -0.3095
  194MOL0     H26136   5.195   5.603   2.301 -1.3470  0.9918  0.0126
  194MOL0     H26137   5.103   5.769   2.132  3.0396  0.6892 -0.0263
  194MOL0     H26138   5.171   5.687   1.996 -0.7563  0.9178  0.4476
  194MOL0     H26139   4.959   5.566   2.193 -0.3277 -1.6161  0.0473
  194MOL0     H26140   5.060   5.474   2.094  2.4795  0.7391 -1.8296
  194MOL0     H26141   4.934   5.824   1.964 -1.4416  1.0164 -1.6429
  194MOL0     H26142   4.760   5.886   1.749 -1.8589 -0.1162 -1.6495
  194MOL0     H26143   4.808   5.779   1.622  2.6865 -1.4392  1.1106
  194MOL0     H26144   4.581   5.760   1.817 -0.2158 -0.1135  0.0909
  194MOL0     H26145   4.598   5.638   1.684  0.0708 -0.0279 -3.0283
  194MOL0     H26146   4.526   5.796   1.527 -1.5547 -1.6978  0.9290
  194MOL0     H26147   4.550   5.939   1.634 -1.4484  1.0388 -2.1294
  194MOL0     H26148   4.300   5.881   1.591 -1.0214 -1.1638 -0.5111
  194MOL0     H26149   4.366   5.899   1.753 -0.9072 -3.4391  2.2164
  194MOL0     H26150   4.241   5.466   1.726 -0.6102  0.3581 -0.4814
  194MOL0     H26151   3.959   5.323   1.743 -0.7259  1.7705  0.0751
  194MOL0     H26152   4.121   5.302   1.808 -0.4051  0.5207 -3.7764
  194MOL0     H26153   3.976   5.312   1.917  1.2668 -1.3910  0.2528
  194MOL0     H26154   3.565   5.828   1.881 -1.0699  0.5482 -0.5447
  194MOL0     H26155   3.320   5.776   1.894  2.3427 -0.3363 -1.6128
  194MOL0     H26156   3.165   5.423   2.131  1.7397  0.9108 -1.7435
  194MOL0     H26157   3.193   5.583   2.219 -1.2984  2.0358 -0.0345
  194MOL0     H26158   2.962   5.547   2.221  0.7670 -0.1526 -0.5326
  194MOL0     H26159   2.976   5.674   2.108  0.1442 -0.7657  2.4026
  194MOL0     H26160   2.927   5.381   2.058 -2.1152  1.9038  4.7389
  194MOL0     H26161   2.942   5.490   1.915  2.2441  1.0288 -0.2323
  194MOL0     H26162   2.748   5.543   2.134  1.3532  0.5143 -0.9879
  194MOL0     H26163   2.755   5.616   1.975 -0.0283  0.5590 -0.3169
  194MOL0     H26164   2.672   5.337   2.068 -0.8709  1.6726  0.8562
  194MOL0     H26165   2.699   5.371   1.889 -1.9715  1.6105 -1.3150
  194MOL0     H26166   2.488   5.491   2.076 -1.2691 -0.4199  0.2022
  194MOL0     H26167   2.534   5.551   1.911 -0.4653  0.7781  2.7572
  194MOL0     H26168   2.439   5.271   1.976 -0.2084  0.4258  1.7238
  194MOL0     H26169   2.469   5.339   1.810 -3.1040 -0.5967 -0.7453
  194MOL0     H26170   2.239   5.427   1.985  0.7854  0.1990  0.4301
  194MOL0     H26171   2.227   5.299   1.881  1.7204 -1.8236  0.7539
  194MOL0     H26172   3.411   5.453   2.151  1.1491 -0.3370  0.2471
  194MOL0     H26173   3.662   5.512   2.135 -0.5001  1.1388  0.1344
  194MOL0     H26174   3.959   5.823   1.892  0.7157 -0.3911 -0.4874
  194MOL0     H26175   4.157   5.873   1.807 -2.8980  0.3412  0.5213
  194MOL0     H26176   5.964   5.591   2.469  0.7033 -0.6222 -0.4241
  194MOL0     H26177   6.208   5.591   2.574  4.4669  1.5623  0.0777
  194MOL0     H26178   6.709   5.893   2.368  2.5126  1.9172  0.6273
  194MOL0     H26179   6.934   5.920   2.460 -1.1725 -0.9223 -1.2339
  194MOL0     H26180   6.949   5.925   2.905 -1.9515 -4.0379  1.2948
  194MOL0     H26181   6.979   5.767   2.860 -3.1642  0.8499 -1.9016
  194MOL0     H26182   7.204   5.963   2.820  2.6567  1.2089  2.0809
  194MOL0     H26183   7.215   5.805   2.892 -0.0579  0.5519  1.2977
  194MOL0     H26184   7.093   6.040   3.039  1.9370  2.6688 -1.7146
  194MOL0     H26185   7.261   5.986   3.050  2.0040 -4.0692  0.3110
  194MOL0     H26186   7.016   5.812   3.101 -0.5464  3.6013 -1.8330
  194MOL0     H26187   7.084   5.914   3.222 -1.2198  0.2531 -0.1425
  194MOL0     H26188   7.391   5.648   3.270  0.4286  0.6530 -1.0259
  194MOL0     H26189   6.756   5.807   2.843  0.5468 -0.9936 -1.0242
  194MOL0     H26190   6.535   5.804   2.739  0.9893 -4.0373 -0.5222
  195MOL0     O26191   6.133   0.295   4.453 -0.0209 -0.2956  0.0273
  195MOL0     C26192   6.193   0.354   4.543  0.2789  0.0057 -0.0533
  195MOL0     O26193   6.145   0.452   4.623 -0.2830  0.2678  0.0742
  195MOL0     C26194   6.011   0.443   4.656  0.9797  0.4014  0.3394
  195MOL0     C26195   5.912   0.512   4.575 -0.3607 -0.7640 -0.5984
  195MOL0     C26196   5.783   0.516   4.618 -0.1710  1.1369 -0.0591
  195MOL0     C26197   5.738   0.449   4.733 -0.3410  0.8025 -1.1007
  195MOL0     O26198   5.606   0.447   4.750  0.3755 -0.2712 -0.5243
  195MOL0     C26199   5.560   0.353   4.850  0.5470  0.3317 -0.0639
  195MOL0     C26200   5.413   0.327   4.831  0.1812  0.5051  0.0303
  195MOL0     C26201   5.321   0.437   4.901 -0.0401  0.5566  0.2660
  195MOL0     C26202   5.191   0.455   4.826 -0.8462 -0.0844  0.4341
  195MOL0     C26203   5.107   0.331   4.811 -0.4364  1.3858 -0.0583
  195MOL0     C26204   4.981   0.346   4.729  0.2499  0.6782  0.4147
  195MOL0     C26205   4.855   0.419   4.782 -1.0348  0.2476  0.1750
  195MOL0     C26206   4.799   0.347   4.906 -0.6042  0.3109  0.1485
  195MOL0     N26207   4.670   0.420   4.924 -0.2452 -0.5696  0.5287
  195MOL0     C26208   4.633   0.529   4.998 -0.2067 -0.0497  0.0017
  195MOL0     C26209   4.496   0.538   4.999  0.2402 -0.5930  0.1244
  195MOL0     C26210   4.414   0.642   5.076 -0.0910 -0.0105 -0.6062
  195MOL0     C26211   4.314   0.713   4.979 -0.5895 -0.2420  0.5878
  195MOL0     C26212   4.208   0.792   5.055  0.0636  1.4581  0.7664
  195MOL0     C26213   4.093   0.841   4.972 -0.4940 -0.2913  0.6797
  195MOL0     O26214   3.997   0.929   5.040 -0.0764  0.2404  0.1353
  195MOL0     C26215   3.893   0.850   5.080  0.6620 -0.2551 -0.3196
  195MOL0     C26216   3.788   0.834   4.997  0.5201  0.2731  0.1494
  195MOL0     C26217   3.672   0.766   5.033 -0.2589  1.2108 -0.3240
  195MOL0     C26218   3.560   0.770   4.928  0.0538  0.0306  0.1177
  195MOL0     C26219   3.664   0.702   5.160  1.0191  0.3486 -0.2391
  195MOL0     C26220   3.545   0.629   5.207  0.8242  0.2289 -0.5105
  195MOL0     O26221   3.533   0.619   5.344  0.0643  0.8983  0.3568
  195MOL0     C26222   3.408   0.580   5.388 -0.4447  0.5987  0.0974
  195MOL0     C26223   3.379   0.451   5.414  1.0177  0.5541 -1.2760
  195MOL0     C26224   3.250   0.415   5.465 -0.8242  0.0616 -1.1967
  195MOL0     C26225   3.154   0.506   5.495 -0.7299 -0.1058  0.4085
  195MOL0     O26226   3.036   0.490   5.547  0.1511  0.3051 -0.7693
  195MOL0     C26227   2.982   0.359   5.548 -0.4697 -0.0373 -1.0233
  195MOL0     C26228   2.828   0.346   5.535 -0.2782 -0.3747  0.0004
  195MOL0     C26229   2.791   0.414   5.410 -0.7720 -0.0468  0.2625
  195MOL0     C26230   2.814   0.331   5.285  0.1955 -1.0343 -0.7513
  195MOL0     C26231   2.861   0.403   5.154 -0.3621  0.3226  0.7246
  195MOL0     C26232   3.000   0.463   5.141 -0.6058 -0.3330 -1.0989
  195MOL0     C26233   3.001   0.559   5.025 -0.0907 -0.2565  0.1013
  195MOL0     C26234   3.157   0.591   5.000 -0.4216  0.5884  0.2007
  195MOL0    Cl26235   3.167   0.696   4.853 -0.0374  0.0908 -0.1189
  195MOL0     C26236   3.193   0.643   5.475 -0.3891 -0.2367  0.5588
  195MOL0     C26237   3.318   0.676   5.422  0.1039 -0.1974 -0.6118
  195MOL0     O26238   3.463   0.587   5.128  0.4303  0.3872  0.2827
  195MOL0     C26239   3.772   0.728   5.250 -0.5766  0.2361  1.2870
  195MOL0     C26240   3.881   0.808   5.218  0.7527 -0.2517  1.1589
  195MOL0     N26241   4.458   0.442   4.906 -0.4169 -0.7364  1.0068
  195MOL0     N26242   4.554   0.375   4.856 -0.2358  0.0888 -0.0847
  195MOL0     C26243   5.829   0.385   4.815  0.2139 -0.2877  0.2355
  195MOL0     C26244   5.964   0.369   4.769 -0.0606 -0.2645  0.6235
  195MOL0     C26245   6.339   0.312   4.553  0.0711 -0.5602 -0.0663
  195MOL0     C26246   6.414   0.363   4.665  0.0152  0.3752 -0.4773
  195MOL0     C26247   6.549   0.328   4.670 -0.0567  0.1114 -0.6833
  195MOL0     C26248   6.614   0.248   4.574  0.1695  0.6224 -0.9307
  195MOL0     O26249   6.745   0.216   4.598  0.1803  0.0840 -0.4687
  195MOL0     C26250   6.839   0.227   4.488 -0.4231  0.2031  0.7363
  195MOL0     C26251   6.849   0.091   4.417 -0.3763  0.3584 -0.1025
  195MOL0     C26252   6.972   0.086   4.323 -0.2481  1.2574  0.0718
  195MOL0     C26253   6.999  -0.061   4.265 -0.2009 -0.5926  1.0618
  195MOL0     C26254   7.140  -0.071   4.225  0.1954 -0.0579  0.2601
  195MOL0     C26255   7.254  -0.083   4.194  0.1401  0.0617  1.6157
  195MOL0     C26256   6.537   0.204   4.464  0.3539  1.4888  0.5336
  195MOL0     C26257   6.403   0.242   4.452 -0.2071  0.0188  0.0261
  195MOL0     H26258   5.939   0.544   4.475  0.7752  1.6840  0.4048
  195MOL0     H26259   5.714   0.548   4.540 -0.0189  0.0629 -0.6477
  195MOL0     H26260   5.608   0.257   4.827 -0.7504 -0.7353  1.4271
  195MOL0     H26261   5.571   0.383   4.955  0.0593 -0.9395  0.3755
  195MOL0     H26262   5.386   0.311   4.727  0.6073  1.3076 -0.2172
  195MOL0     H26263   5.397   0.233   4.885  2.8701  0.1596  0.3745
  195MOL0     H26264   5.288   0.423   5.004 -3.0830  1.5725 -0.4704
  195MOL0     H26265   5.371   0.534   4.900  1.0905 -0.0092 -0.1946
  195MOL0     H26266   5.132   0.526   4.885  4.3276  1.2874  4.7312
  195MOL0     H26267   5.222   0.498   4.731 -0.3550 -0.5173  0.3932
  195MOL0     H26268   5.160   0.250   4.761  3.3601  4.2572 -1.0917
  195MOL0     H26269   5.080   0.286   4.907 -1.1392  0.1710 -0.7898
  195MOL0     H26270   5.020   0.392   4.638  0.9321 -2.1121 -0.8060
  195MOL0     H26271   4.949   0.247   4.696  0.5749  1.1558 -1.4199
  195MOL0     H26272   4.881   0.522   4.809 -2.8258  1.2174 -1.4890
  195MOL0     H26273   4.779   0.413   4.703 -1.2133 -1.3728  0.4402
  195MOL0     H26274   4.866   0.359   4.992  0.4758 -0.5253 -0.5492
  195MOL0     H26275   4.789   0.239   4.893  5.0130 -0.9906  3.3058
  195MOL0     H26276   4.702   0.594   5.051  0.4825 -0.6984 -0.0723
  195MOL0     H26277   4.356   0.582   5.148 -1.8551 -0.5124 -2.3642
  195MOL0     H26278   4.472   0.719   5.128 -0.3839  2.3032 -3.4570
  195MOL0     H26279   4.260   0.641   4.916 -1.9154  2.0632 -1.0771
  195MOL0     H26280   4.375   0.775   4.913 -0.9954  1.1594  1.4799
  195MOL0     H26281   4.255   0.885   5.087  1.9581  1.2221 -1.1113
  195MOL0     H26282   4.173   0.737   5.143  1.2225  0.3299  0.5503
  195MOL0     H26283   4.040   0.756   4.928 -0.7917 -0.8849  2.1342
  195MOL0     H26284   4.129   0.894   4.883 -0.5034 -0.6230  0.4768
  195MOL0     H26285   3.793   0.878   4.898  3.1318  0.7986  0.4312
  195MOL0     H26286   3.515   0.670   4.924 -1.3985  0.7119 -1.1207
  195MOL0     H26287   3.481   0.840   4.954 -0.2320 -0.0548 -0.4954
  195MOL0     H26288   3.586   0.787   4.823  0.8104 -1.5735 -0.0010
  195MOL0     H26289   3.452   0.375   5.389  0.1314 -1.1180  0.8667
  195MOL0     H26290   3.230   0.311   5.491 -1.2822 -0.1794 -2.4453
  195MOL0     H26291   3.026   0.301   5.467  0.5213 -2.2176  0.9357
  195MOL0     H26292   3.010   0.301   5.637 -0.4556  2.6473  0.8227
  195MOL0     H26293   2.797   0.241   5.535  0.3845 -0.5796 -0.5166
  195MOL0     H26294   2.789   0.404   5.619  2.9724 -1.8062  2.7885
  195MOL0     H26295   2.846   0.507   5.389  1.7931 -1.6215 -0.4784
  195MOL0     H26296   2.686   0.440   5.424 -0.6578  0.1301  0.8129
  195MOL0     H26297   2.884   0.250   5.307 -1.3880 -2.4572 -0.7295
  195MOL0     H26298   2.723   0.276   5.258  1.5158 -2.4726 -2.5338
  195MOL0     H26299   2.791   0.483   5.132  1.6392  2.3433  1.2958
  195MOL0     H26300   2.866   0.338   5.066  1.8602 -2.0291  2.4391
  195MOL0     H26301   3.028   0.529   5.224 -0.6393 -1.3633 -0.2466
  195MOL0     H26302   3.065   0.376   5.132 -2.0528 -1.5933  0.0153
  195MOL0     H26303   2.953   0.655   5.045  1.2749  0.3987  0.3043
  195MOL0     H26304   2.978   0.517   4.926  0.7471 -0.2766 -0.0867
  195MOL0     H26305   3.225   0.508   4.984 -0.0808  0.8355  0.3613
  195MOL0     H26306   3.195   0.641   5.089 -3.5225  0.3642  1.8093
  195MOL0     H26307   3.121   0.723   5.491 -0.9864 -0.7384  0.4587
  195MOL0     H26308   3.345   0.779   5.400 -0.4918  0.2499  0.6368
  195MOL0     H26309   3.763   0.690   5.351  0.7838 -2.9857  0.2974
  195MOL0     H26310   3.959   0.826   5.291  1.1305  0.8393  0.5058
  195MOL0     H26311   5.801   0.338   4.908 -0.7449  0.2419  0.2227
  195MOL0     H26312   6.026   0.310   4.835 -1.7707 -0.9592  1.6821
  195MOL0     H26313   6.361   0.408   4.749  0.2623  0.0353 -0.1378
  195MOL0     H26314   6.612   0.371   4.748  0.6567 -0.2365 -1.0580
  195MOL0     H26315   6.818   0.299   4.408  1.7261 -1.4595 -1.5090
  195MOL0     H26316   6.938   0.255   4.526 -0.4032  4.0016 -1.5843
  195MOL0     H26317   6.755   0.064   4.368 -1.1506 -0.9907  1.9442
  195MOL0     H26318   6.860   0.012   4.492 -0.9414 -0.9781 -1.3838
  195MOL0     H26319   7.057   0.106   4.390  1.4589 -1.1868 -1.1953
  195MOL0     H26320   6.977   0.162   4.245  4.4198  1.4470  0.2414
  195MOL0     H26321   6.929  -0.078   4.183 -1.2507 -0.8012  1.9839
  195MOL0     H26322   6.974  -0.138   4.338 -1.7675 -1.3456 -0.2037
  195MOL0     H26323   7.354  -0.096   4.159 -0.6141 -2.4352  0.0468
  195MOL0     H26324   6.590   0.157   4.382  0.2284  1.4327  0.4843
  195MOL0     H26325   6.342   0.230   4.363 -2.1173  1.5711  1.0260
  196MOL0     O26326   0.543   0.093   2.939  0.8300 -0.2311  0.0342
  196MOL0     C26327   0.660   0.121   2.916 -0.6669  0.4221  1.0210
  196MOL0     O26328   0.702   0.219   2.827  0.4996 -0.4095 -0.0865
  196MOL0     C26329   0.607   0.299   2.767 -0.2413 -0.3481 -0.4856
  196MOL0     C26330   0.608   0.308   2.635 -0.2390 -0.9081 -0.5970
  196MOL0     C26331   0.516   0.389   2.572 -0.0690  0.7860  0.4875
  196MOL0     C26332   0.422   0.464   2.641  0.4154 -0.8375 -0.4117
  196MOL0     O26333   0.339   0.554   2.583 -0.0280 -0.1045  0.0640
  196MOL0     C26334   0.326   0.571   2.437 -0.3506  0.9655 -0.4367
  196MOL0     C26335   0.185   0.616   2.415 -0.1788  0.2319 -0.7756
  196MOL0     C26336   0.177   0.678   2.279 -0.7190  0.2651 -0.4571
  196MOL0     C26337   0.037   0.724   2.252 -0.2551  0.0725  1.1301
  196MOL0     C26338   0.018   0.783   2.102 -0.4354 -0.2874  0.0069
  196MOL0     C26339  -0.122   0.846   2.075 -0.2522 -0.4082  0.0341
  196MOL0     C26340  -0.138   0.912   1.931  0.1672  0.9897 -0.5020
  196MOL0     C26341  -0.278   0.951   1.902 -1.7672  0.4790 -0.6944
  196MOL0     N26342  -0.297   0.935   1.763  0.2178 -0.3839 -0.0651
  196MOL0     C26343  -0.335   0.818   1.702  1.0050  0.6952 -0.4734
  196MOL0     C26344  -0.379   0.855   1.580  0.0709 -0.7645  0.6050
  196MOL0     C26345  -0.448   0.787   1.469 -0.0606  0.2662 -0.1451
  196MOL0     C26346  -0.591   0.766   1.489 -0.2136 -0.2085 -0.0178
  196MOL0     C26347  -0.682   0.888   1.520  0.2417 -0.0107 -0.1693
  196MOL0     C26348  -0.683   0.982   1.412 -0.1498  0.0152  0.0176
  196MOL0     O26349  -0.757   0.932   1.298 -0.4270  0.4379 -0.3909
  196MOL0     C26350  -0.891   0.937   1.311 -0.2473  0.7028  0.0506
  196MOL0     C26351  -0.963   0.894   1.198  0.2657  0.1476  0.5220
  196MOL0     C26352  -1.098   0.882   1.200  0.6478  0.0571 -0.8386
  196MOL0     C26353  -1.158   0.832   1.069  0.4389  0.5868 -1.1819
  196MOL0     C26354  -1.174   0.925   1.316  0.2420 -0.4803  0.0050
  196MOL0     C26355  -1.321   0.908   1.321 -0.9192 -0.3864  0.5202
  196MOL0     O26356  -1.388   0.833   1.226  0.4778  0.0679 -0.4507
  196MOL0     C26357  -1.528   0.863   1.208  0.2668 -0.0270  0.6134
  196MOL0     C26358  -1.593   0.986   1.224  1.0135 -0.6038 -0.2443
  196MOL0     C26359  -1.726   1.002   1.184 -0.3991  0.7504 -0.3439
  196MOL0     C26360  -1.800   0.895   1.130 -0.5212 -0.6444 -0.2058
  196MOL0     O26361  -1.937   0.900   1.120 -0.1750 -0.5468 -0.1503
  196MOL0     C26362  -2.015   0.788   1.150  0.3484  0.8754 -0.7440
  196MOL0     C26363  -2.160   0.845   1.173 -0.1620 -0.2692  0.1419
  196MOL0     C26364  -2.208   0.936   1.055  0.5456 -0.2257  0.0982
  196MOL0     C26365  -2.216   0.856   0.928 -0.0681 -0.0532 -0.0378
  196MOL0     C26366  -2.318   0.914   0.824  0.4684  0.1658  0.0690
  196MOL0     C26367  -2.456   0.903   0.877  0.9389 -1.0364  0.0680
  196MOL0     C26368  -2.552   0.962   0.770  0.1437  0.1113 -0.5735
  196MOL0     C26369  -2.598   1.100   0.800  0.3941 -0.7570 -0.7129
  196MOL0    Cl26370  -2.675   1.160   0.654 -0.3597 -0.1635 -0.1016
  196MOL0     C26371  -1.732   0.776   1.108 -0.5066  1.0105  0.6993
  196MOL0     C26372  -1.594   0.762   1.148  0.1742 -0.1221 -0.4542
  196MOL0     O26373  -1.374   0.951   1.419 -0.5450 -0.0292  0.6233
  196MOL0     C26374  -1.103   0.962   1.430 -1.1627 -0.3311  0.2768
  196MOL0     C26375  -0.962   0.975   1.431  0.2364  0.3018  0.6648
  196MOL0     N26376  -0.340   0.988   1.564  0.5769 -0.2539 -0.2155
  196MOL0     N26377  -0.304   1.037   1.679 -0.3588  0.3402  0.6051
  196MOL0     C26378   0.426   0.463   2.783  0.6161 -0.1535  0.0674
  196MOL0     C26379   0.518   0.376   2.847 -0.3671  0.2795  0.1283
  196MOL0     C26380   0.763   0.026   2.970 -0.1843 -0.5296 -0.4301
  196MOL0     C26381   0.745  -0.045   3.091  0.3995  0.0261 -0.5278
  196MOL0     C26382   0.854  -0.124   3.141 -0.5503  0.2595 -0.1563
  196MOL0     C26383   0.975  -0.119   3.076 -1.3525 -0.9275  0.2848
  196MOL0     O26384   1.069  -0.195   3.145  0.0323 -0.1729 -0.5733
  196MOL0     C26385   1.189  -0.210   3.076 -0.2095 -0.1507  0.4002
  196MOL0     C26386   1.271  -0.333   3.137  0.6992 -0.0701  0.0968
  196MOL0     C26387   1.408  -0.330   3.074 -0.0982  0.1611 -0.4981
  196MOL0     C26388   1.478  -0.451   3.124 -0.8200  0.4260  0.7808
  196MOL0     C26389   1.617  -0.476   3.077 -0.7799 -0.2573 -0.4300
  196MOL0     C26390   1.730  -0.498   3.033  0.1371 -0.8225  0.4417
  196MOL0     C26391   0.988  -0.056   2.949  0.3165 -0.7724  0.1253
  196MOL0     C26392   0.887   0.021   2.897  1.4294 -0.4457 -0.0333
  196MOL0     H26393   0.680   0.251   2.579  0.2496 -0.8709 -0.0252
  196MOL0     H26394   0.515   0.406   2.464 -1.9178 -0.5040  0.2590
  196MOL0     H26395   0.397   0.645   2.398  0.9311 -0.4308 -0.8708
  196MOL0     H26396   0.339   0.477   2.381 -4.5985 -0.3809  0.4664
  196MOL0     H26397   0.122   0.527   2.428  0.0240  0.1965  0.0029
  196MOL0     H26398   0.152   0.676   2.500 -2.8531 -3.1365  0.8294
  196MOL0     H26399   0.237   0.768   2.293 -0.1017 -0.5244  2.7453
  196MOL0     H26400   0.208   0.613   2.197  1.4814 -0.2273  0.6899
  196MOL0     H26401  -0.036   0.644   2.268  0.8775 -2.1780 -3.2174
  196MOL0     H26402   0.014   0.803   2.323 -0.1645 -1.1869  2.6049
  196MOL0     H26403   0.096   0.859   2.091  0.7012 -0.7554  3.4071
  196MOL0     H26404   0.049   0.702   2.036  1.9558 -0.9193  1.7493
  196MOL0     H26405  -0.201   0.772   2.088 -2.1013  1.3843 -0.4041
  196MOL0     H26406  -0.149   0.920   2.151  0.9492 -0.9477  1.0214
  196MOL0     H26407  -0.071   0.998   1.928 -0.7377  1.7174 -0.3069
  196MOL0     H26408  -0.099   0.834   1.865  2.6437 -1.2705  3.2452
  196MOL0     H26409  -0.294   1.057   1.926  1.2090  0.5713  1.4570
  196MOL0     H26410  -0.350   0.897   1.963 -0.2440  1.2857  1.9524
  196MOL0     H26411  -0.344   0.721   1.750  1.4670  2.1356  2.7274
  196MOL0     H26412  -0.435   0.846   1.378 -1.8456  4.0851  1.8212
  196MOL0     H26413  -0.395   0.692   1.460  1.1195  0.6998  1.6575
  196MOL0     H26414  -0.604   0.704   1.578  2.3123 -0.9620 -0.0972
  196MOL0     H26415  -0.629   0.712   1.401  2.0381  1.2056 -1.9820
  196MOL0     H26416  -0.665   0.943   1.613  0.9470 -2.8992  1.5539
  196MOL0     H26417  -0.782   0.845   1.534  0.3052  0.6256  3.1243
  196MOL0     H26418  -0.580   0.997   1.379 -0.6282  0.7254 -1.2675
  196MOL0     H26419  -0.708   1.085   1.439  0.2583  0.1586 -0.1397
  196MOL0     H26420  -0.902   0.853   1.118 -0.0579 -1.0958  0.8896
  196MOL0     H26421  -1.188   0.727   1.074  0.3891  0.6548  0.3904
  196MOL0     H26422  -1.239   0.894   1.031 -0.8554 -1.6233 -2.2186
  196MOL0     H26423  -1.086   0.833   0.987 -0.1129  2.1785 -1.6740
  196MOL0     H26424  -1.533   1.070   1.259 -0.4618 -0.0555  1.1052
  196MOL0     H26425  -1.780   1.093   1.206 -0.4749  1.0659 -1.7464
  196MOL0     H26426  -2.013   0.720   1.064  1.4141  0.6432 -0.5495
  196MOL0     H26427  -1.980   0.738   1.241  0.2688  2.5670  0.2391
  196MOL0     H26428  -2.237   0.768   1.190 -0.9026  0.5516  0.5952
  196MOL0     H26429  -2.159   0.918   1.255 -1.0095 -0.3371  0.2315
  196MOL0     H26430  -2.152   1.029   1.042  0.0479  0.1856  0.8325
  196MOL0     H26431  -2.310   0.963   1.083  0.3493 -0.9911  0.1515
  196MOL0     H26432  -2.115   0.863   0.887 -0.0445  0.1983  0.0615
  196MOL0     H26433  -2.240   0.749   0.933 -2.1666  0.1095 -3.4804
  196MOL0     H26434  -2.309   0.863   0.728  1.5656  1.2155 -0.4204
  196MOL0     H26435  -2.298   1.021   0.810 -0.0949  0.0180 -2.3351
  196MOL0     H26436  -2.482   0.798   0.894 -3.5669  0.0567  1.2069
  196MOL0     H26437  -2.463   0.956   0.972 -0.4169  1.0208 -1.1052
  196MOL0     H26438  -2.632   0.888   0.762 -0.2013  0.4220 -0.0075
  196MOL0     H26439  -2.501   0.962   0.673  0.9641 -1.0582 -0.1590
  196MOL0     H26440  -2.514   1.162   0.831 -1.0250  1.2203 -0.6197
  196MOL0     H26441  -2.675   1.121   0.875 -0.5598 -0.6414 -1.6926
  196MOL0     H26442  -1.782   0.695   1.054  0.2619  0.4827  0.7727
  196MOL0     H26443  -1.546   0.664   1.143 -3.0804 -1.8795 -0.5935
  196MOL0     H26444  -1.157   0.974   1.524  0.5135  2.7225  0.9846
  196MOL0     H26445  -0.906   1.027   1.508  3.3858 -0.4852 -0.9373
  196MOL0     H26446   0.353   0.526   2.833  1.5022 -0.2091  1.4780
  196MOL0     H26447   0.523   0.367   2.955 -1.3549 -2.1299  0.0293
  196MOL0     H26448   0.652  -0.025   3.144 -0.9038  0.2894 -2.7990
  196MOL0     H26449   0.843  -0.183   3.231  0.1415 -0.9266 -0.8359
  196MOL0     H26450   1.180  -0.223   2.968  3.8335 -3.6382  0.2324
  196MOL0     H26451   1.242  -0.115   3.082  0.8897 -0.7001 -0.3700
  196MOL0     H26452   1.220  -0.421   3.097  1.4492  0.5602 -2.4077
  196MOL0     H26453   1.273  -0.318   3.245 -1.7980  4.1136 -0.1884
  196MOL0     H26454   1.455  -0.232   3.083  0.7829 -0.2376 -0.6701
  196MOL0     H26455   1.401  -0.337   2.965 -1.8239  0.1998 -0.4148
  196MOL0     H26456   1.422  -0.542   3.101  0.6594 -0.7960  1.8419
  196MOL0     H26457   1.476  -0.442   3.233  0.7312 -2.4403  1.1285
  196MOL0     H26458   1.828  -0.523   2.998 -1.1164 -3.1713 -1.7908
  196MOL0     H26459   1.082  -0.050   2.895 -0.0427  2.9214 -0.3380
  196MOL0     H26460   0.905   0.071   2.803 -1.4832 -2.4899 -1.8442
  197MOL0     O26461   6.832   1.259   5.543 -0.2430  0.2589 -0.3692
  197MOL0     C26462   6.875   1.344   5.470 -0.4499 -0.0880  1.0610
  197MOL0     O26463   6.796   1.438   5.404  0.1634  0.0529 -0.0061
  197MOL0     C26464   6.667   1.456   5.432  1.1077  0.8240 -0.3439
  197MOL0     C26465   6.632   1.462   5.567 -0.0172  0.3259  0.1238
  197MOL0     C26466   6.498   1.471   5.603  1.1646  0.3781  0.0709
  197MOL0     C26467   6.396   1.491   5.509 -0.2070 -0.1857 -0.3889
  197MOL0     O26468   6.269   1.516   5.553  0.0950 -0.1313 -0.2647
  197MOL0     C26469   6.158   1.523   5.459 -0.3252 -0.1080 -0.5491
  197MOL0     C26470   6.035   1.521   5.551  0.3569  0.1486 -0.3958
  197MOL0     C26471   5.909   1.516   5.460  0.3821 -0.4854 -0.1059
  197MOL0     C26472   5.784   1.499   5.561 -0.8030  0.5090  0.7910
  197MOL0     C26473   5.652   1.492   5.490  0.0618 -0.6301  0.3082
  197MOL0     C26474   5.541   1.450   5.582  1.2526  0.1000 -1.1633
  197MOL0     C26475   5.404   1.437   5.511  0.3615 -0.5242  0.2519
  197MOL0     C26476   5.295   1.371   5.598  1.0663 -0.1540 -0.3821
  197MOL0     N26477   5.161   1.368   5.537 -0.2597 -0.4400  0.2609
  197MOL0     C26478   5.071   1.470   5.522  0.7295 -0.7098 -0.1844
  197MOL0     C26479   4.962   1.418   5.449  0.3509 -0.0032  0.3332
  197MOL0     C26480   4.831   1.476   5.407 -0.3106  0.4225  0.1529
  197MOL0     C26481   4.829   1.530   5.262 -0.7613 -0.5787 -0.2452
  197MOL0     C26482   4.695   1.620   5.255 -0.2024  1.0902  0.1695
  197MOL0     C26483   4.675   1.658   5.106  0.0174 -0.1192  0.6175
  197MOL0     O26484   4.651   1.549   5.017 -0.3252  0.0992  0.0049
  197MOL0     C26485   4.523   1.486   5.008  0.4967  0.3128 -0.7343
  197MOL0     C26486   4.509   1.359   4.954  0.1589  0.6874  0.0414
  197MOL0     C26487   4.390   1.289   4.945 -0.9454 -0.2451  0.5194
  197MOL0     C26488   4.400   1.143   4.915 -0.2489  0.6374  0.7802
  197MOL0     C26489   4.269   1.348   4.975  0.1504 -0.5317  0.3386
  197MOL0     C26490   4.135   1.280   4.962 -0.1476 -0.8128  0.6128
  197MOL0     O26491   4.034   1.357   5.021  0.4123  0.0800  0.1579
  197MOL0     C26492   3.903   1.325   5.051  0.0761 -0.0889 -0.0843
  197MOL0     C26493   3.839   1.404   5.145 -0.0756  0.2483  0.7644
  197MOL0     C26494   3.710   1.382   5.181  0.2050 -0.5061  0.5456
  197MOL0     C26495   3.647   1.269   5.136 -0.1482 -0.7238 -0.7130
  197MOL0     O26496   3.515   1.247   5.168 -0.5442  0.3546 -0.7987
  197MOL0     C26497   3.420   1.165   5.093 -1.0276 -0.0761  0.2784
  197MOL0     C26498   3.277   1.169   5.141  0.0761 -0.5313  0.4501
  197MOL0     C26499   3.180   1.101   5.043  0.3949  0.0687  0.3235
  197MOL0     C26500   3.038   1.101   5.101  0.8755  0.1963  0.4564
  197MOL0     C26501   3.009   0.973   5.183  0.1214 -0.0190 -0.0401
  197MOL0     C26502   2.859   0.945   5.219 -0.0938 -0.1061 -0.0605
  197MOL0     C26503   2.765   0.914   5.098  0.2420  0.7095  0.1091
  197MOL0     C26504   2.628   0.847   5.156 -0.3589 -0.5472  0.0490
  197MOL0    Cl26505   2.661   0.703   5.267 -0.2696  0.1318  0.0034
  197MOL0     C26506   3.702   1.191   5.036  0.7636 -0.2283 -1.0555
  197MOL0     C26507   3.836   1.221   4.993  0.5827 -0.0297 -0.4291
  197MOL0     O26508   4.121   1.174   4.901  1.0981 -0.0534  0.3189
  197MOL0     C26509   4.277   1.486   5.011 -0.3389 -0.3560  0.0801
  197MOL0     C26510   4.398   1.550   5.033 -0.2709 -0.1203  0.3352
  197MOL0     N26511   4.996   1.298   5.406  1.0809  0.5210  0.0047
  197MOL0     N26512   5.113   1.262   5.462  0.3081 -0.4958 -0.3025
  197MOL0     C26513   6.441   1.496   5.377  0.5811  0.6773  0.5742
  197MOL0     C26514   6.566   1.471   5.340 -0.1005  0.6891 -0.5921
  197MOL0     C26515   7.020   1.345   5.452  0.0683  0.3108  0.1838
  197MOL0     C26516   7.073   1.429   5.343 -0.4104 -0.2902 -1.4482
  197MOL0     C26517   7.209   1.435   5.334  0.1723 -0.5174 -0.6751
  197MOL0     C26518   7.302   1.369   5.424  0.1063 -0.0412  1.0420
  197MOL0     O26519   7.434   1.370   5.390  0.3865 -0.8490 -0.3462
  197MOL0     C26520   7.529   1.331   5.492  0.5285 -0.7040  0.1421
  197MOL0     C26521   7.575   1.182   5.480 -0.5443  0.0051 -0.4077
  197MOL0     C26522   7.648   1.161   5.345  0.0905  0.1568 -0.3127
  197MOL0     C26523   7.779   1.072   5.353  0.0244  0.5280 -0.5742
  197MOL0     C26524   7.876   1.133   5.438  0.0712 -0.1702  0.1626
  197MOL0     C26525   7.967   1.166   5.513 -0.6253  0.1990  0.5657
  197MOL0     C26526   7.244   1.280   5.523 -0.5307  1.1228  1.4014
  197MOL0     C26527   7.100   1.265   5.538  0.3448 -0.6672 -0.2591
  197MOL0     H26528   6.713   1.460   5.639  0.7610 -1.8882 -0.7148
  197MOL0     H26529   6.474   1.468   5.709  0.2050 -0.2830 -0.1470
  197MOL0     H26530   6.161   1.621   5.409  1.5218  1.6568  2.7003
  197MOL0     H26531   6.153   1.437   5.392  0.6324 -0.9898  0.4897
  197MOL0     H26532   6.048   1.433   5.614 -0.6931  0.6999  0.6275
  197MOL0     H26533   6.039   1.609   5.617 -0.5641  1.2087 -1.6883
  197MOL0     H26534   5.896   1.606   5.399 -0.1025  0.4740  1.3510
  197MOL0     H26535   5.909   1.430   5.392 -0.8050  0.9957 -2.0715
  197MOL0     H26536   5.804   1.409   5.620 -0.2702  1.6588  2.4366
  197MOL0     H26537   5.793   1.587   5.625 -3.2458  0.7466  0.8907
  197MOL0     H26538   5.632   1.594   5.456 -1.1367  0.0163  2.7116
  197MOL0     H26539   5.660   1.424   5.404 -3.7398 -0.1739 -0.5627
  197MOL0     H26540   5.562   1.355   5.631  0.7137 -0.3682 -1.8133
  197MOL0     H26541   5.537   1.522   5.664 -0.6475  1.2371 -2.1781
  197MOL0     H26542   5.372   1.536   5.476 -2.0891 -1.5204 -0.5117
  197MOL0     H26543   5.409   1.372   5.424 -0.4701  0.8725 -0.8777
  197MOL0     H26544   5.276   1.436   5.684 -0.5727  0.5903 -1.2768
  197MOL0     H26545   5.338   1.279   5.637  0.2321 -0.4735 -0.2094
  197MOL0     H26546   5.084   1.570   5.562 -2.1934 -0.0893 -0.5175
  197MOL0     H26547   4.757   1.400   5.433  0.7742 -0.1119  1.8512
  197MOL0     H26548   4.800   1.556   5.475 -0.9212  1.6631 -1.5082
  197MOL0     H26549   4.836   1.453   5.184  5.2830  0.7732 -1.5063
  197MOL0     H26550   4.912   1.600   5.248  0.2084 -1.9898 -1.9897
  197MOL0     H26551   4.699   1.701   5.328 -0.2866 -0.2864  1.7488
  197MOL0     H26552   4.608   1.559   5.282 -1.1630  2.8003  1.1528
  197MOL0     H26553   4.773   1.697   5.076  0.7566 -0.7062  2.1416
  197MOL0     H26554   4.599   1.733   5.085 -2.8575 -2.3547  2.2269
  197MOL0     H26555   4.603   1.306   4.939  0.5888  1.0273  1.4263
  197MOL0     H26556   4.351   1.079   4.988 -1.8803  0.5188 -0.3722
  197MOL0     H26557   4.349   1.112   4.823  0.6248 -1.1769  0.8540
  197MOL0     H26558   4.502   1.103   4.919 -1.0563 -1.6590  0.1561
  197MOL0     H26559   3.893   1.487   5.191 -0.4400  0.3987  0.9277
  197MOL0     H26560   3.649   1.440   5.249 -3.1083 -1.5991 -1.2321
  197MOL0     H26561   3.431   1.186   4.986  3.2600  0.4009  0.6440
  197MOL0     H26562   3.449   1.060   5.108 -1.1573  0.1349  2.1613
  197MOL0     H26563   3.284   1.130   5.243  0.7441  0.6136  0.8672
  197MOL0     H26564   3.246   1.272   5.161  0.9671 -0.8284  4.3191
  197MOL0     H26565   3.209   0.999   5.016  1.4178  1.2053 -3.3342
  197MOL0     H26566   3.172   1.167   4.957 -1.4434 -1.0573 -0.4339
  197MOL0     H26567   3.018   1.187   5.164  2.6184 -0.2414  1.6963
  197MOL0     H26568   2.972   1.102   5.014  0.4354  0.1557  0.7885
  197MOL0     H26569   3.079   0.979   5.267  2.0676 -0.0585 -1.5776
  197MOL0     H26570   3.044   0.882   5.133  0.2629  0.8740 -1.6321
  197MOL0     H26571   2.853   0.865   5.293  0.4638  0.9600  1.1821
  197MOL0     H26572   2.824   1.040   5.262 -1.7280 -0.6087 -0.2125
  197MOL0     H26573   2.802   0.841   5.026 -2.5301 -0.2531 -0.4928
  197MOL0     H26574   2.734   1.009   5.054  0.4192  1.1472  0.9105
  197MOL0     H26575   2.560   0.818   5.076 -0.5654  0.6446 -0.2255
  197MOL0     H26576   2.585   0.927   5.217  2.0649  0.6630  0.2983
  197MOL0     H26577   3.641   1.115   4.988  0.4287  1.0464 -2.7481
  197MOL0     H26578   3.863   1.163   4.905 -1.1144 -0.5173 -0.6722
  197MOL0     H26579   4.193   1.548   5.038 -1.0973 -1.7981  1.2041
  197MOL0     H26580   4.402   1.653   5.066  3.5559 -0.7880  2.5518
  197MOL0     H26581   6.370   1.502   5.294  0.3171 -1.6883  0.5480
  197MOL0     H26582   6.604   1.453   5.240  0.2698  0.0532 -0.3441
  197MOL0     H26583   7.013   1.499   5.285  0.7944  0.5010 -1.7723
  197MOL0     H26584   7.249   1.488   5.248  1.4393  0.8377  0.6892
  197MOL0     H26585   7.615   1.397   5.475 -0.9417  1.1907 -0.2806
  197MOL0     H26586   7.490   1.357   5.591  1.5473 -1.3628  0.7315
  197MOL0     H26587   7.484   1.122   5.486 -0.4771  0.0433  2.1591
  197MOL0     H26588   7.641   1.159   5.565  1.2205 -0.7045 -1.9053
  197MOL0     H26589   7.680   1.259   5.310  2.4585 -0.3378  0.2939
  197MOL0     H26590   7.573   1.115   5.280 -0.0338  0.3229 -0.2903
  197MOL0     H26591   7.821   1.070   5.253  1.3309 -2.9508 -0.1055
  197MOL0     H26592   7.758   0.970   5.387 -3.5250  1.1504 -0.4826
  197MOL0     H26593   8.047   1.201   5.575 -1.1461  1.2288  0.6853
  197MOL0     H26594   7.315   1.217   5.576 -0.1537 -0.1698 -0.5233
  197MOL0     H26595   7.060   1.198   5.612 -0.1808  1.4667  1.4949
  198MOL0     O26596   4.601   1.748   6.140  0.6909  0.1741 -0.5641
  198MOL0     C26597   4.611   1.672   6.042 -0.2424  0.7976  0.4795
  198MOL0     O26598   4.510   1.627   5.965  1.0498 -0.4959  0.0505
  198MOL0     C26599   4.376   1.653   5.975  0.4028 -0.1185  0.2386
  198MOL0     C26600   4.307   1.646   5.855  0.2455 -0.0736  1.1114
  198MOL0     C26601   4.167   1.650   5.854 -0.5194 -0.2660  0.7506
  198MOL0     C26602   4.093   1.683   5.970  0.4176 -0.1095 -0.0177
  198MOL0     O26603   3.961   1.714   5.971  1.0008  0.0890 -0.3140
  198MOL0     C26604   3.894   1.736   5.849  0.0591  0.2369  0.0396
  198MOL0     C26605   3.738   1.741   5.876 -0.4150  0.1373 -0.1365
  198MOL0     C26606   3.674   1.606   5.927  0.1910  0.4416  0.5193
  198MOL0     C26607   3.525   1.614   5.905  0.0829 -0.5723  0.3122
  198MOL0     C26608   3.455   1.483   5.969  1.7870 -0.0248  0.0621
  198MOL0     C26609   3.301   1.502   5.943  0.9035 -0.6801 -0.0538
  198MOL0     C26610   3.224   1.393   6.011  0.9341  0.2243 -0.2269
  198MOL0     C26611   3.083   1.409   5.987 -0.1720  0.6926  0.0514
  198MOL0     N26612   3.004   1.301   6.051 -0.5160 -0.3517 -0.6580
  198MOL0     C26613   2.991   1.175   6.001  0.4415  0.2719  0.0731
  198MOL0     C26614   2.954   1.104   6.112  0.1336  1.0987  0.6628
  198MOL0     C26615   2.929   0.958   6.128  0.1009  0.3540 -0.5334
  198MOL0     C26616   2.784   0.930   6.101  0.3643  0.1029 -0.3615
  198MOL0     C26617   2.678   0.982   6.196 -0.8838 -0.1023  0.4950
  198MOL0     C26618   2.529   0.943   6.162 -0.1198 -0.6683  0.6623
  198MOL0     O26619   2.529   0.805   6.174 -0.9672  0.6548 -0.2735
  198MOL0     C26620   2.414   0.728   6.192 -0.1816  0.2782 -0.5592
  198MOL0     C26621   2.280   0.776   6.190  0.4028  0.3453  0.0547
  198MOL0     C26622   2.171   0.693   6.205 -0.5015 -0.0763 -1.2462
  198MOL0     C26623   2.028   0.745   6.230 -0.0534  0.6016 -0.0962
  198MOL0     C26624   2.192   0.553   6.205 -0.1555 -1.1646  0.4908
  198MOL0     C26625   2.079   0.460   6.209  0.8829  0.1013  0.3187
  198MOL0     O26626   1.993   0.481   6.107 -0.3234  0.1392  0.4537
  198MOL0     C26627   1.872   0.422   6.096 -0.6846  0.6947 -0.0139
  198MOL0     C26628   1.819   0.304   6.163  0.2073  0.3806 -0.8984
  198MOL0     C26629   1.686   0.260   6.141  0.2530  0.3642 -0.1078
  198MOL0     C26630   1.592   0.344   6.071 -0.4787 -0.4760  0.0778
  198MOL0     O26631   1.459   0.319   6.066 -0.0087  0.1908 -0.0904
  198MOL0     C26632   1.404   0.244   6.179 -0.3111  0.0605 -1.0091
  198MOL0     C26633   1.262   0.204   6.141 -0.1753  0.5416  0.2711
  198MOL0     C26634   1.166   0.325   6.143 -0.1741  0.4633 -0.6640
  198MOL0     C26635   1.016   0.293   6.103  0.3057 -0.0427 -0.3195
  198MOL0     C26636   0.915   0.395   6.162  0.3854 -0.5024  0.0271
  198MOL0     C26637   0.766   0.365   6.149  0.0005 -1.0295 -0.4709
  198MOL0     C26638   0.692   0.488   6.211 -0.3355 -0.1993  0.4814
  198MOL0     C26639   0.547   0.484   6.197  0.7074  0.1881 -0.3895
  198MOL0    Cl26640   0.507   0.488   6.026 -0.2006  0.0477 -0.3349
  198MOL0     C26641   1.643   0.455   5.995  0.0388  0.2448  0.6112
  198MOL0     C26642   1.777   0.491   6.016  0.4849 -0.8247 -0.3026
  198MOL0     O26643   2.077   0.371   6.292 -0.1997  0.3510  0.0856
  198MOL0     C26644   2.330   0.510   6.208  0.2325  0.1953  0.1399
  198MOL0     C26645   2.437   0.592   6.198 -0.3173  0.3416  0.1920
  198MOL0     N26646   2.930   1.190   6.223 -0.8309  0.1049 -0.5357
  198MOL0     N26647   2.963   1.309   6.179  0.4266 -1.2122 -0.7181
  198MOL0     C26648   4.161   1.699   6.084 -0.4101 -0.0651 -0.0559
  198MOL0     C26649   4.304   1.684   6.091 -0.1980  0.6277 -0.7769
  198MOL0     C26650   4.750   1.615   6.014 -0.7501 -0.1376  0.5609
  198MOL0     C26651   4.789   1.524   5.915  0.3340 -0.1514  0.9584
  198MOL0     C26652   4.925   1.489   5.897  0.2372  0.2470  0.4233
  198MOL0     C26653   5.020   1.537   5.987  0.0602  0.0454 -0.3950
  198MOL0     O26654   5.147   1.481   5.971  0.0754  0.1393 -0.0279
  198MOL0     C26655   5.251   1.538   6.051  0.0019 -0.4158  0.1601
  198MOL0     C26656   5.381   1.491   5.991 -0.1697 -0.0472 -0.2386
  198MOL0     C26657   5.398   1.337   5.987 -0.2929  0.3578 -0.1882
  198MOL0     C26658   5.523   1.283   5.917  1.2017 -0.3998 -0.0832
  198MOL0     C26659   5.640   1.383   5.915 -0.2968  0.6044  0.7487
  198MOL0     C26660   5.736   1.453   5.909  0.3692  0.8816  0.2446
  198MOL0     C26661   4.983   1.624   6.087  0.0214  0.1568 -1.2872
  198MOL0     C26662   4.851   1.663   6.102 -0.6997 -0.1787 -0.3838
  198MOL0     H26663   4.366   1.625   5.766 -2.1568  1.0006 -0.8455
  198MOL0     H26664   4.106   1.640   5.765 -1.1297 -0.3450  1.1726
  198MOL0     H26665   3.923   1.827   5.796  1.6205  0.1416  0.6689
  198MOL0     H26666   3.904   1.643   5.792 -1.7059 -1.0952  1.7643
  198MOL0     H26667   3.724   1.814   5.956  0.6022  0.9704 -0.6874
  198MOL0     H26668   3.683   1.776   5.787 -0.7194 -1.2392 -0.5033
  198MOL0     H26669   3.715   1.516   5.881  0.3475 -0.4862  2.3740
  198MOL0     H26670   3.689   1.587   6.034 -1.1123 -1.3312  0.4306
  198MOL0     H26671   3.493   1.713   5.939 -1.1378 -0.9979  0.4398
  198MOL0     H26672   3.513   1.611   5.797 -0.2334 -1.1738  0.3627
  198MOL0     H26673   3.495   1.390   5.927  0.3665 -0.5314 -0.2227
  198MOL0     H26674   3.476   1.462   6.074  4.5911 -2.3923 -0.8430
  198MOL0     H26675   3.261   1.597   5.981  0.7331 -0.7024 -0.1760
  198MOL0     H26676   3.281   1.508   5.836 -2.6953  2.3402  0.5854
  198MOL0     H26677   3.244   1.291   5.976 -3.2369  0.1592 -3.2381
  198MOL0     H26678   3.245   1.396   6.118  3.1408  0.8117 -0.6335
  198MOL0     H26679   3.051   1.423   5.883 -4.1029 -0.3296  0.9376
  198MOL0     H26680   3.065   1.504   6.039  2.3252  0.2043  1.9565
  198MOL0     H26681   3.019   1.134   5.904  4.7957 -0.7932  1.5298
  198MOL0     H26682   2.986   0.889   6.065 -0.9965 -1.2378  0.1630
  198MOL0     H26683   2.959   0.930   6.229  0.4535 -1.3496 -1.0730
  198MOL0     H26684   2.758   0.826   6.082  0.0783  0.1802 -0.4101
  198MOL0     H26685   2.756   0.975   6.006 -4.2118 -0.9259  0.2751
  198MOL0     H26686   2.688   1.091   6.195  2.6953 -0.3070  1.0313
  198MOL0     H26687   2.701   0.948   6.297 -0.7410 -0.8406  0.2123
  198MOL0     H26688   2.509   0.968   6.058 -0.4222  1.1610  1.1324
  198MOL0     H26689   2.453   0.993   6.222  0.3397  0.2445  0.4918
  198MOL0     H26690   2.261   0.881   6.171 -0.7294  0.3732  1.2294
  198MOL0     H26691   1.976   0.762   6.136 -2.1591 -0.3248  0.8201
  198MOL0     H26692   1.969   0.676   6.292 -2.6277  1.6764 -1.1923
  198MOL0     H26693   2.034   0.839   6.285  1.0606  0.9896 -0.8613
  198MOL0     H26694   1.879   0.258   6.240 -1.4162  0.1687  0.2827
  198MOL0     H26695   1.653   0.169   6.190 -2.3970  0.5060 -1.4337
  198MOL0     H26696   1.456   0.151   6.205 -1.4395 -0.3008  0.0223
  198MOL0     H26697   1.402   0.302   6.272  2.7840 -1.1205 -0.0603
  198MOL0     H26698   1.270   0.155   6.044  0.1945  1.4860 -0.1786
  198MOL0     H26699   1.226   0.126   6.210 -0.9259 -0.0070 -0.7149
  198MOL0     H26700   1.209   0.410   6.089 -0.6394  0.0114 -1.7661
  198MOL0     H26701   1.151   0.354   6.247  0.0177 -0.7394 -0.2851
  198MOL0     H26702   1.005   0.281   5.995 -0.8744  0.3157 -0.2522
  198MOL0     H26703   0.996   0.193   6.142 -0.4278 -0.7642 -2.4286
  198MOL0     H26704   0.932   0.493   6.116  0.7324  0.1057  1.4001
  198MOL0     H26705   0.934   0.398   6.270 -0.5577 -0.1523  0.1921
  198MOL0     H26706   0.741   0.352   6.043  0.2574 -0.2151 -0.6378
  198MOL0     H26707   0.747   0.271   6.202 -0.3876 -1.2176 -0.9388
  198MOL0     H26708   0.720   0.570   6.144  0.0238 -1.7391 -1.3464
  198MOL0     H26709   0.723   0.503   6.314  0.6434  1.6119 -0.0406
  198MOL0     H26710   0.509   0.574   6.246  0.9675  0.4809 -0.7157
  198MOL0     H26711   0.498   0.395   6.236 -0.3242  0.8298 -0.1923
  198MOL0     H26712   1.580   0.508   5.925  0.3393  0.5955  0.6002
  198MOL0     H26713   1.813   0.570   5.952 -1.4912 -0.7546 -1.3862
  198MOL0     H26714   2.348   0.404   6.225 -0.5034  0.4919  3.3958
  198MOL0     H26715   2.540   0.557   6.197 -0.5663 -0.6475  2.8581
  198MOL0     H26716   4.103   1.718   6.174  0.1429  3.7505 -0.3385
  198MOL0     H26717   4.351   1.697   6.188 -2.4051  0.5657  0.3670
  198MOL0     H26718   4.706   1.497   5.851 -2.6000  4.1821  2.5571
  198MOL0     H26719   4.963   1.426   5.817 -0.7828  0.2726 -0.0898
  198MOL0     H26720   5.245   1.646   6.041  0.4419 -0.5237 -1.5955
  198MOL0     H26721   5.233   1.511   6.156 -0.4261 -0.8597 -0.0176
  198MOL0     H26722   5.460   1.539   6.049  0.9704 -1.6284 -0.4015
  198MOL0     H26723   5.401   1.525   5.889  0.3134  1.2756  0.2724
  198MOL0     H26724   5.313   1.286   5.940  1.1358 -0.6049 -1.8313
  198MOL0     H26725   5.391   1.301   6.090 -2.6379  0.9960 -0.0499
  198MOL0     H26726   5.492   1.251   5.817  0.7767 -0.7635  0.1585
  198MOL0     H26727   5.560   1.193   5.967  2.3034 -0.7905 -1.5404
  198MOL0     H26728   5.821   1.517   5.904 -0.0916  1.9488  3.4166
  198MOL0     H26729   5.056   1.654   6.162 -1.0397 -2.1934  0.8272
  198MOL0     H26730   4.840   1.738   6.180 -1.2285  0.3093 -0.9214
  199MOL0     O26731   5.018   9.449   6.656 -0.4352 -0.2950  0.7583
  199MOL0     C26732   5.047   9.553   6.601  0.0027 -0.8258 -0.6744
  199MOL0     O26733   4.961   9.630   6.520 -0.6321  0.5529  0.0626
  199MOL0     C26734   4.832   9.581   6.513  0.0800  0.5351  1.0492
  199MOL0     C26735   4.801   9.458   6.445 -0.6598  0.5198  0.1465
  199MOL0     C26736   4.667   9.427   6.427  0.7223 -0.3532  0.0879
  199MOL0     C26737   4.570   9.514   6.474  0.0341  0.2869  0.5050
  199MOL0     O26738   4.440   9.472   6.478  0.1860 -0.3751  0.1138
  199MOL0     C26739   4.395   9.367   6.384  0.0804  0.1850  0.0844
  199MOL0     C26740   4.240   9.376   6.372 -1.0056  0.3395 -0.5546
  199MOL0     C26741   4.198   9.510   6.305 -0.0771 -0.3000 -0.9167
  199MOL0     C26742   4.047   9.521   6.306  0.1009  0.1539  0.3982
  199MOL0     C26743   4.013   9.639   6.217 -0.5349  0.0703  0.9029
  199MOL0     C26744   3.864   9.661   6.210 -0.0391 -0.2748 -0.1979
  199MOL0     C26745   3.840   9.767   6.094  0.0675  0.4059 -0.2519
  199MOL0     C26746   3.689   9.768   6.056 -0.0876 -0.2004  0.5834
  199MOL0     N26747   3.656   9.855   5.943  0.7157  0.2598 -0.6998
  199MOL0     C26748   3.624   9.992   5.923 -0.5981  0.2193 -1.1848
  199MOL0     C26749   3.627  10.014   5.793  0.1968  0.5762 -0.4754
  199MOL0     C26750   3.582  10.140   5.718 -0.6609 -0.3513  0.1070
  199MOL0     C26751   3.432  10.172   5.725  0.5221 -0.5184  0.2413
  199MOL0     C26752   3.348  10.054   5.682 -0.0351  0.1603  0.6097
  199MOL0     C26753   3.206  10.088   5.722 -0.8832  0.1055  0.0914
  199MOL0     O26754   3.163  10.185   5.617  0.6941 -0.1150  0.1773
  199MOL0     C26755   3.033  10.216   5.604 -0.2555 -0.1708 -0.6482
  199MOL0     C26756   2.946  10.197   5.712 -0.6505 -0.6509  0.4546
  199MOL0     C26757   2.813  10.236   5.707  0.1075 -0.3185 -0.3247
  199MOL0     C26758   2.727  10.234   5.836 -0.3975  0.6523 -0.4265
  199MOL0     C26759   2.752  10.272   5.585 -0.5384 -0.5516  1.0955
  199MOL0     C26760   2.608  10.307   5.558 -0.1642  0.0594 -0.1705
  199MOL0     O26761   2.549  10.381   5.663  0.3109 -0.2587 -0.2609
  199MOL0     C26762   2.414  10.397   5.657  1.3398  0.4299  0.2891
  199MOL0     C26763   2.358  10.492   5.573  0.3034  0.9041  0.9031
  199MOL0     C26764   2.220  10.499   5.554  0.2203 -0.0345 -1.2078
  199MOL0     C26765   2.142  10.422   5.639  0.4267 -0.8889  0.2068
  199MOL0     O26766   2.002  10.431   5.631 -0.3729 -0.2969 -0.7604
  199MOL0     C26767   1.940  10.533   5.550  0.5918  0.5718 -0.4535
  199MOL0     C26768   1.790  10.545   5.580 -0.1438 -0.4222 -0.8561
  199MOL0     C26769   1.715  10.415   5.583 -0.2419  0.9049  0.3768
  199MOL0     C26770   1.558  10.440   5.592 -1.3677  0.4213 -0.2494
  199MOL0     C26771   1.472  10.310   5.593  0.3322  0.6457 -0.2818
  199MOL0     C26772   1.321  10.346   5.608 -0.4977 -0.1489  0.3007
  199MOL0     C26773   1.274  10.382   5.751  0.4895 -0.1931  0.1162
  199MOL0     C26774   1.250  10.264   5.844 -0.0292 -0.9075 -0.7067
  199MOL0    Cl26775   1.085  10.189   5.823 -0.3708  0.1513  0.1985
  199MOL0     C26776   2.199  10.339   5.730  0.7302  0.3199 -0.0792
  199MOL0     C26777   2.332  10.326   5.743 -0.2833  0.4969  0.3537
  199MOL0     O26778   2.548  10.273   5.451 -0.0128 -0.4778 -0.7456
  199MOL0     C26779   2.848  10.285   5.475  0.2232  0.4627  0.9319
  199MOL0     C26780   2.977  10.260   5.485  0.8057  0.6025  0.7866
  199MOL0     N26781   3.666   9.891   5.729 -0.0885 -0.2898 -0.3639
  199MOL0     N26782   3.680   9.804   5.821  0.1338  0.6465  0.6346
  199MOL0     C26783   4.597   9.634   6.535  0.8121  0.2718  0.5434
  199MOL0     C26784   4.735   9.668   6.553 -0.6306 -0.5697 -0.1426
  199MOL0     C26785   5.188   9.586   6.607  0.6121  0.4191 -0.0637
  199MOL0     C26786   5.226   9.711   6.561  0.9631  0.0399 -0.7005
  199MOL0     C26787   5.357   9.740   6.557 -0.1217  0.0068 -0.3482
  199MOL0     C26788   5.455   9.663   6.623 -0.4641  0.3171 -0.3391
  199MOL0     O26789   5.582   9.714   6.616  0.3102  0.1660  0.2063
  199MOL0     C26790   5.690   9.633   6.668  0.7211 -0.7625 -1.4371
  199MOL0     C26791   5.813   9.725   6.681  0.0907  0.5745 -0.0114
  199MOL0     C26792   5.804   9.847   6.772  0.2408 -0.5430  0.2601
  199MOL0     C26793   5.802   9.815   6.920 -0.9408 -0.1494 -0.7310
  199MOL0     C26794   5.934   9.764   6.969  0.8865 -0.0108  0.5195
  199MOL0     C26795   6.031   9.721   7.021 -0.4408  0.0494 -0.8030
  199MOL0     C26796   5.416   9.544   6.698 -0.5293  0.0872  0.2717
  199MOL0     C26797   5.281   9.503   6.674 -0.0776  0.8088  0.1335
  199MOL0     H26798   4.881   9.397   6.406 -3.0442 -2.9758  0.2741
  199MOL0     H26799   4.643   9.337   6.372  0.5618  0.4534 -1.1980
  199MOL0     H26800   4.433   9.389   6.284  0.4462  1.0681  0.4138
  199MOL0     H26801   4.437   9.272   6.419  2.6954  1.2712  0.0815
  199MOL0     H26802   4.214   9.288   6.312 -3.5671 -0.1796  1.1686
  199MOL0     H26803   4.200   9.355   6.471  2.1834 -2.9125  0.2723
  199MOL0     H26804   4.233   9.595   6.364  0.5232  0.4573 -2.3177
  199MOL0     H26805   4.232   9.519   6.201 -2.9299  2.0696 -1.7524
  199MOL0     H26806   4.009   9.425   6.269 -1.9285  1.6574 -1.7001
  199MOL0     H26807   4.016   9.547   6.407  2.0320  2.0434  0.5756
  199MOL0     H26808   4.054   9.736   6.246  1.5124 -0.3188 -0.4427
  199MOL0     H26809   4.054   9.632   6.116 -0.0693 -2.9338  1.2111
  199MOL0     H26810   3.803   9.571   6.201 -3.2625  1.5715  1.2490
  199MOL0     H26811   3.841   9.687   6.314 -1.2511 -2.9880  0.3044
  199MOL0     H26812   3.878   9.863   6.132  4.3875 -0.6934 -1.2296
  199MOL0     H26813   3.897   9.744   6.003 -0.5135 -0.7622 -0.3310
  199MOL0     H26814   3.629   9.800   6.141 -2.0551  1.4828 -1.3168
  199MOL0     H26815   3.659   9.665   6.036 -0.8064 -0.0280  0.7375
  199MOL0     H26816   3.619  10.066   6.003  1.3132 -1.0498  0.1750
  199MOL0     H26817   3.633  10.223   5.766  1.2838 -1.8107  0.6880
  199MOL0     H26818   3.623  10.129   5.617  1.6753 -1.2162  1.0898
  199MOL0     H26819   3.405  10.264   5.672 -0.6743 -0.6124  0.6627
  199MOL0     H26820   3.421  10.203   5.829  1.9562  2.4931 -0.3734
  199MOL0     H26821   3.380   9.963   5.733 -0.8133 -1.6503 -1.9198
  199MOL0     H26822   3.360  10.033   5.576  0.3901  1.3665  0.4007
  199MOL0     H26823   3.209  10.141   5.818 -0.2713 -0.0732  0.1805
  199MOL0     H26824   3.137  10.004   5.720 -0.4775 -0.7573  5.6052
  199MOL0     H26825   2.988  10.168   5.808 -1.2138 -1.5627  0.4343
  199MOL0     H26826   2.720  10.341   5.860 -1.8910  0.5947 -0.4549
  199MOL0     H26827   2.625  10.209   5.804  0.9070 -1.6479 -3.2909
  199MOL0     H26828   2.765  10.164   5.910  0.1409  1.0730 -0.3060
  199MOL0     H26829   2.417  10.564   5.517  0.1757  1.2926  1.2634
  199MOL0     H26830   2.182  10.569   5.481 -4.8718 -1.0560  0.0607
  199MOL0     H26831   1.985  10.632   5.567 -0.6111  1.1035 -0.2716
  199MOL0     H26832   1.948  10.516   5.442 -1.1614  0.2557 -0.5621
  199MOL0     H26833   1.768  10.590   5.677 -0.9973 -3.4976  0.5001
  199MOL0     H26834   1.746  10.613   5.507  0.8936  2.4017  0.9937
  199MOL0     H26835   1.748  10.357   5.669  1.2246  0.7066 -0.2990
  199MOL0     H26836   1.747  10.357   5.497 -0.4654  1.8173 -0.3404
  199MOL0     H26837   1.535  10.490   5.687  0.3185  1.0688 -0.1512
  199MOL0     H26838   1.528  10.505   5.510  3.1037  0.9378 -1.7084
  199MOL0     H26839   1.504  10.239   5.670  1.1972 -0.7064 -1.8179
  199MOL0     H26840   1.488  10.266   5.494 -1.8815 -2.2638  0.5151
  199MOL0     H26841   1.304  10.428   5.537  3.0143  0.6153  0.1716
  199MOL0     H26842   1.261  10.258   5.584  0.2316 -1.6441  3.5321
  199MOL0     H26843   1.181  10.440   5.750  0.9942  0.6577 -1.5271
  199MOL0     H26844   1.352  10.443   5.797  2.1623 -0.4798 -2.1588
  199MOL0     H26845   1.253  10.294   5.949 -3.8052 -1.6300 -0.2660
  199MOL0     H26846   1.317  10.179   5.831 -0.8948 -1.1433 -5.1645
  199MOL0     H26847   2.144  10.275   5.799  3.1989 -1.5950  0.2641
  199MOL0     H26848   2.377  10.258   5.815 -3.2287 -2.6168 -0.4635
  199MOL0     H26849   2.807  10.312   5.378 -0.3455  1.2912  1.3844
  199MOL0     H26850   3.046  10.286   5.406 -2.4221  3.6365 -1.3301
  199MOL0     H26851   4.510   9.696   6.552  1.9187  2.4735 -1.2644
  199MOL0     H26852   4.763   9.767   6.589  0.8193 -0.8260 -0.5232
  199MOL0     H26853   5.159   9.775   6.505 -0.2305 -0.8458 -0.3335
  199MOL0     H26854   5.394   9.824   6.499  0.5292 -1.6446 -2.4686
  199MOL0     H26855   5.674   9.597   6.770  4.0403  1.6448  0.1040
  199MOL0     H26856   5.709   9.545   6.605  2.5054 -1.9000  0.5720
  199MOL0     H26857   5.819   9.778   6.586  0.9122  2.9811  1.3067
  199MOL0     H26858   5.903   9.670   6.710 -0.2147 -0.6682 -1.3298
  199MOL0     H26859   5.714   9.908   6.762 -0.4481 -1.4602  0.6096
  199MOL0     H26860   5.885   9.918   6.756  0.9767 -1.3076  0.5081
  199MOL0     H26861   5.727   9.738   6.939 -1.7475  0.8286  0.2045
  199MOL0     H26862   5.769   9.902   6.977 -2.0780 -0.5973 -0.6795
  199MOL0     H26863   6.117   9.665   7.053  0.3286  1.3955 -0.4308
  199MOL0     H26864   5.477   9.472   6.752 -2.1443 -1.0444  0.6674
  199MOL0     H26865   5.255   9.403   6.707  0.9819 -0.0688 -1.5345
  200MOL0     O26866   6.361   0.597   4.036 -0.4965 -0.9877 -0.3895
  200MOL0     C26867   6.406   0.521   3.956  0.1352  1.0213 -0.1812
  200MOL0     O26868   6.346   0.406   3.921 -0.7544  0.0509  0.1338
  200MOL0     C26869   6.217   0.391   3.961  0.3169  1.0118 -0.1656
  200MOL0     C26870   6.114   0.394   3.865 -0.3784 -0.1690 -0.5540
  200MOL0     C26871   5.984   0.378   3.902 -0.1440 -0.8620  0.3833
  200MOL0     C26872   5.948   0.367   4.040  0.3925 -0.5309  0.4287
  200MOL0     O26873   5.813   0.361   4.061  0.1768  0.0698  0.6771
  200MOL0     C26874   5.767   0.343   4.198  0.2725  0.6217  0.4883
  200MOL0     C26875   5.622   0.310   4.182  0.0136 -0.5392 -0.2435
  200MOL0     C26876   5.524   0.318   4.305 -0.1603 -0.5598 -0.0492
  200MOL0     C26877   5.375   0.304   4.273 -0.2176 -0.6303  0.5559
  200MOL0     C26878   5.285   0.395   4.357  0.0490  0.6566 -0.4828
  200MOL0     C26879   5.300   0.545   4.325  0.4682 -0.4389  0.1906
  200MOL0     C26880   5.209   0.649   4.400 -0.3740  0.7482 -0.3564
  200MOL0     C26881   5.084   0.685   4.334  0.0317 -0.3180  0.2977
  200MOL0     N26882   4.979   0.581   4.333 -0.0218  0.1896  0.2129
  200MOL0     C26883   4.876   0.552   4.422 -0.0960 -0.1991  0.1353
  200MOL0     C26884   4.822   0.439   4.381 -0.9010  0.2228 -1.3741
  200MOL0     C26885   4.694   0.371   4.446  0.3429 -0.4748 -0.3986
  200MOL0     C26886   4.608   0.302   4.341  0.3085 -0.1804 -0.3269
  200MOL0     C26887   4.492   0.219   4.412 -0.4475 -0.3179 -0.5889
  200MOL0     C26888   4.378   0.192   4.314  0.6080 -0.1445 -0.3232
  200MOL0     O26889   4.337   0.318   4.252 -0.1568 -0.1823  0.0198
  200MOL0     C26890   4.226   0.312   4.176  0.0405 -0.2001  0.3894
  200MOL0     C26891   4.209   0.246   4.057  0.9766  0.3269 -0.1718
  200MOL0     C26892   4.089   0.261   3.989 -0.0529 -0.5127 -0.2623
  200MOL0     C26893   4.080   0.193   3.851  0.0222 -0.2662  0.1290
  200MOL0     C26894   3.993   0.354   4.029 -0.3746  0.2618  0.6997
  200MOL0     C26895   3.857   0.381   3.957 -0.6389  0.2415 -0.7452
  200MOL0     O26896   3.778   0.474   4.014  0.0137  0.2783 -0.4668
  200MOL0     C26897   3.667   0.519   3.946 -0.8495  0.4948 -0.6331
  200MOL0     C26898   3.539   0.507   4.004 -0.3098 -0.7163  1.1647
  200MOL0     C26899   3.426   0.547   3.930  0.1777 -0.5935  1.0740
  200MOL0     C26900   3.443   0.617   3.809 -0.4006  0.6351 -0.2758
  200MOL0     O26901   3.338   0.665   3.738  0.5077  0.4672 -0.1695
  200MOL0     C26902   3.236   0.568   3.706 -0.0204 -0.0999 -0.1998
  200MOL0     C26903   3.099   0.622   3.743 -0.5016 -0.1692 -0.3536
  200MOL0     C26904   2.995   0.509   3.730 -0.2824 -0.4936 -0.2976
  200MOL0     C26905   2.855   0.554   3.745  0.2350  0.1442  1.4888
  200MOL0     C26906   2.803   0.561   3.884 -0.1299 -0.1660  0.3049
  200MOL0     C26907   2.673   0.657   3.898 -0.8415  0.1457 -0.3405
  200MOL0     C26908   2.550   0.612   3.820  0.2957 -0.8533 -0.2745
  200MOL0     C26909   2.428   0.699   3.865  0.3651 -0.8505 -0.0953
  200MOL0    Cl26910   2.283   0.604   3.840 -0.2241 -0.8672 -0.1123
  200MOL0     C26911   3.580   0.642   3.764  0.1883  0.8982 -0.0853
  200MOL0     C26912   3.694   0.585   3.827  0.6383  0.2383 -0.1194
  200MOL0     O26913   3.837   0.323   3.848  0.1076  0.4418 -0.4241
  200MOL0     C26914   4.014   0.423   4.150 -0.3773 -0.1616 -0.9349
  200MOL0     C26915   4.119   0.395   4.228 -0.4351  0.5169 -0.0892
  200MOL0     N26916   4.895   0.397   4.267 -0.5734  0.7327 -0.0679
  200MOL0     N26917   4.986   0.479   4.237  0.5226 -0.7214  0.9521
  200MOL0     C26918   6.052   0.359   4.138  0.8787 -1.0789 -0.7394
  200MOL0     C26919   6.187   0.360   4.094 -1.2480 -0.0362  0.3439
  200MOL0     C26920   6.542   0.544   3.904 -0.5045  0.8684 -0.0266
  200MOL0     C26921   6.612   0.461   3.821  0.5639  0.0977  0.5440
  200MOL0     C26922   6.742   0.497   3.786 -0.0895 -0.0667 -0.1205
  200MOL0     C26923   6.811   0.612   3.834 -0.9464 -0.7059  0.1319
  200MOL0     O26924   6.940   0.627   3.781 -0.2743  0.4148 -0.3083
  200MOL0     C26925   7.008   0.742   3.826 -0.2810  0.2119  0.2179
  200MOL0     C26926   7.069   0.709   3.964 -0.7977  0.1377  0.0645
  200MOL0     C26927   7.169   0.809   4.022  0.2806 -0.5187  0.2703
  200MOL0     C26928   7.237   0.770   4.142 -0.0819  0.2312 -0.4683
  200MOL0     C26929   7.344   0.677   4.113 -0.4732 -0.2514  0.0155
  200MOL0     C26930   7.439   0.602   4.094 -0.8166  0.2716 -0.5774
  200MOL0     C26931   6.735   0.696   3.923  0.4384 -0.1181 -0.8724
  200MOL0     C26932   6.610   0.651   3.963 -0.4602  0.0331  0.3840
  200MOL0     H26933   6.136   0.423   3.762 -1.8453 -1.1311 -1.1695
  200MOL0     H26934   5.908   0.375   3.825 -0.8310  0.3033  0.9907
  200MOL0     H26935   5.825   0.265   4.248  0.3721 -2.4420 -3.7830
  200MOL0     H26936   5.785   0.436   4.252 -2.4151  1.0127  0.8772
  200MOL0     H26937   5.572   0.389   4.125 -0.5557  0.5557  1.7084
  200MOL0     H26938   5.605   0.219   4.123  0.7613 -1.4254  0.8696
  200MOL0     H26939   5.559   0.244   4.378  1.5557  0.1345 -0.1096
  200MOL0     H26940   5.535   0.414   4.357 -0.5185 -1.1592  1.1892
  200MOL0     H26941   5.361   0.332   4.168 -2.3926  2.7760  1.5767
  200MOL0     H26942   5.344   0.200   4.287 -0.0466 -0.6690  0.6593
  200MOL0     H26943   5.183   0.360   4.335  0.8197 -0.7922 -1.9463
  200MOL0     H26944   5.313   0.381   4.462 -0.4793  0.7359 -0.3263
  200MOL0     H26945   5.403   0.575   4.345  0.7559 -2.7004  2.6808
  200MOL0     H26946   5.285   0.558   4.217 -0.2919  2.6081  0.5813
  200MOL0     H26947   5.198   0.622   4.505 -1.3290  2.0629 -0.0979
  200MOL0     H26948   5.269   0.741   4.404 -1.3059  1.3229  0.7487
  200MOL0     H26949   5.107   0.715   4.232  2.0980 -4.5316 -0.7197
  200MOL0     H26950   5.035   0.763   4.394 -2.4082 -0.7793 -0.9814
  200MOL0     H26951   4.842   0.615   4.503  2.4280  0.4501  0.7852
  200MOL0     H26952   4.724   0.301   4.525  0.6158  1.4153  1.2719
  200MOL0     H26953   4.627   0.444   4.492  0.7107 -0.3692 -0.0194
  200MOL0     H26954   4.662   0.237   4.272  1.0496 -0.4040  0.4346
  200MOL0     H26955   4.559   0.378   4.281 -1.0860 -0.2214  0.7019
  200MOL0     H26956   4.466   0.274   4.503 -0.3274 -0.7995 -0.2568
  200MOL0     H26957   4.524   0.117   4.436 -1.2513 -0.3691  0.3033
  200MOL0     H26958   4.297   0.141   4.366  0.6170  1.5550  1.4886
  200MOL0     H26959   4.409   0.123   4.236 -2.5291 -1.6008 -0.3947
  200MOL0     H26960   4.287   0.187   4.010  1.8039  1.5933 -0.4066
  200MOL0     H26961   4.167   0.128   3.841 -1.2147 -2.2157  1.3406
  200MOL0     H26962   3.993   0.127   3.845  0.8488 -1.2584 -1.4995
  200MOL0     H26963   4.081   0.267   3.770  0.7630  0.3134  0.6562
  200MOL0     H26964   3.518   0.436   4.083 -2.4736 -2.7056 -1.0246
  200MOL0     H26965   3.327   0.545   3.975 -2.0715  3.4477 -2.8746
  200MOL0     H26966   3.222   0.543   3.600 -2.8394  2.0583 -0.4306
  200MOL0     H26967   3.251   0.470   3.753 -2.5148 -0.3666  0.1556
  200MOL0     H26968   3.108   0.662   3.844 -0.7136  2.0519 -1.1739
  200MOL0     H26969   3.067   0.709   3.685  0.2939  0.3840  0.0134
  200MOL0     H26970   3.009   0.422   3.796  1.3533  0.3085  0.4720
  200MOL0     H26971   3.009   0.479   3.626  2.0229 -0.9291  0.0780
  200MOL0     H26972   2.853   0.651   3.694  0.7224  0.4543  2.0393
  200MOL0     H26973   2.791   0.485   3.689 -2.6999  0.4241  4.2021
  200MOL0     H26974   2.883   0.610   3.941 -0.3126 -1.7006  1.9822
  200MOL0     H26975   2.791   0.460   3.925  3.0765 -1.6885 -2.0499
  200MOL0     H26976   2.650   0.661   4.005  1.0076  0.1818  0.0829
  200MOL0     H26977   2.693   0.761   3.870 -0.9097  0.9902  2.4573
  200MOL0     H26978   2.543   0.503   3.827  5.0655 -1.3780 -0.5367
  200MOL0     H26979   2.572   0.630   3.715  2.3320  0.6237  0.3356
  200MOL0     H26980   2.433   0.794   3.812  2.5047 -1.1613 -0.5747
  200MOL0     H26981   2.436   0.712   3.973 -2.0322 -2.8026  0.4250
  200MOL0     H26982   3.586   0.704   3.675  0.5821  0.9440 -0.0329
  200MOL0     H26983   3.796   0.605   3.796  0.5089  1.2687  0.0817
  200MOL0     H26984   3.947   0.500   4.187  3.9436  3.3546  0.3938
  200MOL0     H26985   4.138   0.449   4.320  2.0796 -2.6169  1.4332
  200MOL0     H26986   6.012   0.360   4.239  0.7308  0.7603 -0.7832
  200MOL0     H26987   6.266   0.363   4.169  0.0926 -3.1314 -0.7838
  200MOL0     H26988   6.571   0.366   3.790 -2.3065  1.1942  0.6282
  200MOL0     H26989   6.800   0.417   3.740 -2.5013 -0.3588 -2.9446
  200MOL0     H26990   7.084   0.763   3.750  1.1141  0.1243  1.5381
  200MOL0     H26991   6.949   0.834   3.826 -0.2962  0.2463 -1.6364
  200MOL0     H26992   7.124   0.615   3.955  1.9358  1.5108  1.1781
  200MOL0     H26993   6.995   0.694   4.043  2.3723  0.5569  3.3656
  200MOL0     H26994   7.104   0.889   4.060  0.2533  0.2610 -1.3266
  200MOL0     H26995   7.241   0.842   3.946 -1.1354  0.1428 -0.8321
  200MOL0     H26996   7.177   0.723   4.220 -1.4795 -0.1720 -1.7371
  200MOL0     H26997   7.279   0.851   4.202  1.2464 -0.0063 -1.0214
  200MOL0     H26998   7.530   0.547   4.084  0.4665  2.5757 -2.8729
  200MOL0     H26999   6.783   0.775   3.980  1.1691 -0.9494 -0.2950
  200MOL0     H27000   6.566   0.716   4.038 -2.0215  0.6528 -1.0055
  201MOL0     O27001   8.353   2.039  10.453  0.7855  0.1254 -0.1470
  201MOL0     C27002   8.344   1.979  10.349 -0.4565  0.5240  0.3164
  201MOL0     O27003   8.223   1.942  10.279  0.4848 -0.0548 -0.1981
  201MOL0     C27004   8.099   1.988  10.319  0.0607  0.9000  0.2278
  201MOL0     C27005   7.983   1.904  10.317 -0.0518  0.1445  0.7297
  201MOL0     C27006   7.854   1.956  10.337  0.2458  0.4414  0.1103
  201MOL0     C27007   7.839   2.094  10.355  0.2090 -0.5027 -0.6010
  201MOL0     O27008   7.718   2.153  10.385 -0.5777  0.4048 -0.0225
  201MOL0     C27009   7.619   2.074  10.455 -0.4829 -0.4084  0.1393
  201MOL0     C27010   7.518   2.014  10.365  0.3133 -0.9598  0.6040
  201MOL0     C27011   7.391   1.992  10.433  0.3164  0.6492  0.6205
  201MOL0     C27012   7.309   1.875  10.383  0.2815  0.1159  0.1659
  201MOL0     C27013   7.153   1.906  10.413  0.3077 -0.0375  0.2490
  201MOL0     C27014   7.107   1.850  10.550  0.5288 -0.3274 -0.0091
  201MOL0     C27015   6.972   1.905  10.599  0.0429 -0.0828  0.6272
  201MOL0     C27016   6.851   1.821  10.545  0.9633 -0.8393  0.3256
  201MOL0     N27017   6.721   1.891  10.554  0.5294  0.0540  0.0266
  201MOL0     C27018   6.657   1.937  10.436 -0.1113 -0.2132  0.6632
  201MOL0     C27019   6.559   2.010  10.490 -0.5809  0.8140  0.4871
  201MOL0     C27020   6.443   2.052  10.405 -0.5681 -0.1387 -0.5893
  201MOL0     C27021   6.351   1.938  10.378  0.2399  1.5068 -0.3794
  201MOL0     C27022   6.305   1.860  10.507 -1.0375 -0.6910 -0.0704
  201MOL0     C27023   6.196   1.756  10.482 -0.6042  0.7593 -0.2293
  201MOL0     O27024   6.066   1.813  10.438  0.0902  0.0620 -0.5784
  201MOL0     C27025   5.953   1.741  10.435  0.0258  0.3884 -0.1795
  201MOL0     C27026   5.851   1.783  10.357  1.0280 -0.1783 -0.4384
  201MOL0     C27027   5.737   1.698  10.335 -0.8585 -0.3468  0.8911
  201MOL0     C27028   5.631   1.754  10.236 -0.1531 -0.8568 -0.5722
  201MOL0     C27029   5.723   1.573  10.398 -0.5719  0.6532  0.1205
  201MOL0     C27030   5.605   1.483  10.395 -0.0117 -0.6517  0.1632
  201MOL0     O27031   5.603   1.396  10.498 -0.3468  0.4681 -0.4411
  201MOL0     C27032   5.487   1.345  10.554  0.4418  0.0842  0.1565
  201MOL0     C27033   5.357   1.385  10.514  0.3078  0.5115 -1.1728
  201MOL0     C27034   5.236   1.326  10.561 -0.0464 -0.3995  0.6037
  201MOL0     C27035   5.247   1.217  10.655 -0.1187  0.2656  0.2901
  201MOL0     O27036   5.142   1.147  10.692  0.0646 -0.5810  0.1535
  201MOL0     C27037   5.015   1.199  10.727  0.4095  0.3534 -0.1780
  201MOL0     C27038   4.908   1.091  10.708  0.0175 -0.3167 -0.0648
  201MOL0     C27039   4.767   1.145  10.707 -1.3510  0.6436  0.6079
  201MOL0     C27040   4.667   1.060  10.789  0.1932  0.8192 -0.2831
  201MOL0     C27041   4.535   1.138  10.787  0.1845 -0.7625 -0.1781
  201MOL0     C27042   4.409   1.054  10.816 -0.5337  0.0097  0.0152
  201MOL0     C27043   4.385   0.952  10.699 -0.4760  0.3514 -0.2156
  201MOL0     C27044   4.249   0.876  10.713  0.2068  0.3004  0.2219
  201MOL0    Cl27045   4.106   0.981  10.696  0.0338  0.1727  0.0989
  201MOL0     C27046   5.373   1.188  10.703 -0.2813 -0.5601  0.4409
  201MOL0     C27047   5.492   1.257  10.656  0.5891  0.6607  0.0987
  201MOL0     O27048   5.531   1.486  10.295 -0.2466  0.4493  0.7009
  201MOL0     C27049   5.829   1.529  10.476 -0.3251 -0.1590 -0.1486
  201MOL0     C27050   5.935   1.613  10.492 -0.0442  0.3488 -0.5971
  201MOL0     N27051   6.563   2.014  10.627 -0.0881  0.3260  0.2496
  201MOL0     N27052   6.662   1.939  10.667 -0.6018  0.2417 -0.3585
  201MOL0     C27053   7.951   2.175  10.352  1.5100  0.6267  0.1941
  201MOL0     C27054   8.078   2.125  10.330 -0.9996 -0.2629  0.0223
  201MOL0     C27055   8.470   1.951  10.279  0.0774 -0.0518  0.5596
  201MOL0     C27056   8.473   1.896  10.149  0.6531  0.5529  0.5537
  201MOL0     C27057   8.599   1.853  10.097  0.2727  0.3053  0.6393
  201MOL0     C27058   8.716   1.855  10.183  0.1654  0.2654  0.3617
  201MOL0     O27059   8.845   1.814  10.143  0.1591  0.7190  0.1209
  201MOL0     C27060   8.851   1.731  10.024  0.4399 -0.3230  0.8238
  201MOL0     C27061   8.952   1.615  10.026 -0.4869  0.7939 -0.1999
  201MOL0     C27062   9.088   1.667  10.075 -0.4303 -0.6277 -0.0273
  201MOL0     C27063   9.207   1.582  10.042 -0.0290 -0.2628 -0.3403
  201MOL0     C27064   9.195   1.451  10.121  0.1224 -0.6258 -0.2684
  201MOL0     C27065   9.201   1.354  10.195 -0.8128  0.6018 -0.1702
  201MOL0     C27066   8.701   1.918  10.305  0.0462  0.0889 -0.1215
  201MOL0     C27067   8.582   1.966  10.349  0.0364 -0.6964  0.6355
  201MOL0     H27068   7.993   1.798  10.298  1.5674  0.1492  1.3690
  201MOL0     H27069   7.782   1.874  10.335  2.4675 -1.6286  0.5525
  201MOL0     H27070   7.672   1.994  10.508 -2.0262 -2.6472 -1.5197
  201MOL0     H27071   7.571   2.144  10.524  0.2390  0.7025 -0.4403
  201MOL0     H27072   7.501   2.075  10.276 -1.2003 -0.9704  0.8580
  201MOL0     H27073   7.556   1.917  10.332  0.7538 -0.4989 -0.2703
  201MOL0     H27074   7.415   1.985  10.540  0.3257  1.7028  0.7029
  201MOL0     H27075   7.337   2.085  10.413 -1.0115  0.1737  1.8259
  201MOL0     H27076   7.316   1.872  10.274 -1.1921 -0.3315  0.0658
  201MOL0     H27077   7.341   1.779  10.425 -1.9248 -2.2200 -3.0255
  201MOL0     H27078   7.140   2.013  10.399 -3.5159 -0.5842 -1.4891
  201MOL0     H27079   7.092   1.853  10.340 -0.2951  2.9383 -1.5606
  201MOL0     H27080   7.101   1.741  10.546 -0.7263 -0.3904  1.8966
  201MOL0     H27081   7.179   1.878  10.628 -1.1391  1.2243  1.0780
  201MOL0     H27082   6.969   1.906  10.708  1.1143  1.5767  0.6699
  201MOL0     H27083   6.960   2.010  10.570  1.9725  0.0102  0.0272
  201MOL0     H27084   6.839   1.730  10.605 -2.7813 -0.7372 -0.0130
  201MOL0     H27085   6.864   1.798  10.439  1.0588 -0.0631  0.1651
  201MOL0     H27086   6.672   1.916  10.331 -0.2658  1.3043  0.3139
  201MOL0     H27087   6.394   2.128  10.467 -1.3423 -1.3885  0.3828
  201MOL0     H27088   6.472   2.081  10.303  1.2357 -1.0957 -0.3953
  201MOL0     H27089   6.401   1.869  10.308  0.4639  0.3697  0.8630
  201MOL0     H27090   6.261   1.975  10.327  1.6213  2.0889 -2.5296
  201MOL0     H27091   6.268   1.937  10.576  1.0301  0.6233 -0.3399
  201MOL0     H27092   6.394   1.807  10.542 -1.9203 -1.7216  0.6817
  201MOL0     H27093   6.173   1.695  10.570 -0.4491 -1.9748 -1.9965
  201MOL0     H27094   6.220   1.680  10.408 -1.4981 -0.6657  0.8939
  201MOL0     H27095   5.856   1.879  10.306  0.3379  1.4863  2.4114
  201MOL0     H27096   5.529   1.717  10.254 -1.9876  3.3207 -1.1462
  201MOL0     H27097   5.628   1.863  10.230 -0.6450 -0.7739  0.7707
  201MOL0     H27098   5.656   1.728  10.133  0.0487  0.2389 -0.8073
  201MOL0     H27099   5.335   1.471  10.452 -3.7513  1.2084  0.8752
  201MOL0     H27100   5.144   1.365  10.519  0.8383 -2.4987 -3.9350
  201MOL0     H27101   5.003   1.232  10.831 -0.0056  2.1771 -0.7753
  201MOL0     H27102   4.988   1.287  10.669  3.0193  1.4150  0.1134
  201MOL0     H27103   4.929   1.041  10.613  0.8878 -0.6792  0.3037
  201MOL0     H27104   4.930   1.027  10.794  0.1613  1.2154  1.0791
  201MOL0     H27105   4.735   1.156  10.603  4.1536  0.6561 -1.4328
  201MOL0     H27106   4.770   1.245  10.749 -0.4927  0.9846 -0.2172
  201MOL0     H27107   4.665   0.957  10.751 -0.4045  1.1908 -1.2867
  201MOL0     H27108   4.697   1.050  10.893  0.9487 -1.9327 -0.6832
  201MOL0     H27109   4.519   1.169  10.683  1.0516  0.0944 -0.0735
  201MOL0     H27110   4.530   1.225  10.853  0.0876 -1.2042  0.4062
  201MOL0     H27111   4.420   1.007  10.914 -1.1509  0.6217  0.3930
  201MOL0     H27112   4.315   1.111  10.823 -0.5655 -0.0201 -0.1537
  201MOL0     H27113   4.460   0.874  10.687 -1.4115 -0.4898 -0.8014
  201MOL0     H27114   4.394   1.005  10.604  0.3395  0.6298  0.0106
  201MOL0     H27115   4.241   0.823  10.808  1.1956 -2.1882 -0.9972
  201MOL0     H27116   4.247   0.804  10.631  2.6762  0.0854  0.2921
  201MOL0     H27117   5.379   1.109  10.777  1.6659 -1.1711 -0.3035
  201MOL0     H27118   5.590   1.225  10.691 -0.9301 -1.9179  2.4347
  201MOL0     H27119   5.832   1.432  10.525 -0.3034  0.9103  2.0723
  201MOL0     H27120   6.023   1.571  10.539  1.2040  3.7752  0.4555
  201MOL0     H27121   7.944   2.282  10.368  1.1603  1.5039 -4.3843
  201MOL0     H27122   8.154   2.202  10.320  0.8093 -1.5777  2.4006
  201MOL0     H27123   8.384   1.881  10.090  1.2394  0.8208 -0.4282
  201MOL0     H27124   8.604   1.812   9.997 -1.9949  3.6792 -1.0763
  201MOL0     H27125   8.762   1.671  10.003  1.8227 -2.2345  0.1500
  201MOL0     H27126   8.881   1.798   9.943 -2.4671  1.2154  0.8915
  201MOL0     H27127   8.963   1.581   9.922 -1.9784  0.9706 -0.4360
  201MOL0     H27128   8.912   1.533  10.086 -2.3670  1.6148 -0.2556
  201MOL0     H27129   9.084   1.692  10.181  2.7523  0.8437 -0.1165
  201MOL0     H27130   9.109   1.762  10.024 -0.4366 -0.3484  0.4873
  201MOL0     H27131   9.300   1.635  10.065 -0.2764 -0.7746  2.0848
  201MOL0     H27132   9.205   1.554   9.936  2.4732  1.1042 -0.8287
  201MOL0     H27133   9.197   1.267  10.258  0.5186 -0.6679 -1.7450
  201MOL0     H27134   8.784   1.922  10.374  0.7183 -1.3036 -0.7946
  201MOL0     H27135   8.592   2.014  10.446  1.0719 -0.4042  0.3946
  202MOL0     O27136  10.932   7.964   3.739  0.1022 -0.3918 -0.0336
  202MOL0     C27137  10.935   7.841   3.724  0.6020 -0.3696 -0.1121
  202MOL0     O27138  10.838   7.748   3.756  0.2970  0.3010  0.1068
  202MOL0     C27139  10.724   7.787   3.820 -0.4368 -0.1471  0.0004
  202MOL0     C27140  10.716   7.888   3.918  0.3523 -0.0371 -0.1722
  202MOL0     C27141  10.599   7.930   3.975 -0.5880 -0.6814  0.2054
  202MOL0     C27142  10.478   7.862   3.931  0.5405  0.0092  0.3066
  202MOL0     O27143  10.353   7.901   3.966  0.6373  0.4362  0.2114
  202MOL0     C27144  10.350   8.026   4.039  0.2949  1.2599 -0.8867
  202MOL0     C27145  10.212   8.073   4.069  0.0953 -0.6765 -0.3403
  202MOL0     C27146  10.115   7.954   4.098 -0.4678 -0.2740 -0.2270
  202MOL0     C27147   9.998   8.006   4.171  0.0957 -0.5133 -0.0775
  202MOL0     C27148   9.896   7.904   4.233 -0.3241  0.2341  1.0792
  202MOL0     C27149   9.802   7.852   4.121 -0.4189 -0.3445  0.0903
  202MOL0     C27150   9.665   7.827   4.173 -0.2848 -0.4927  0.3645
  202MOL0     C27151   9.575   7.770   4.064  0.4027  0.3367 -1.0741
  202MOL0     N27152   9.432   7.765   4.109  0.3313 -0.2966 -0.0767
  202MOL0     C27153   9.348   7.869   4.108  0.1354  0.4850  0.6201
  202MOL0     C27154   9.243   7.829   4.178 -0.0856  1.3264  0.8441
  202MOL0     C27155   9.117   7.899   4.207 -0.9151  0.4221 -0.0343
  202MOL0     C27156   8.988   7.825   4.161 -0.3563  0.5187  0.7013
  202MOL0     C27157   8.976   7.815   4.010 -0.7298  0.7786  0.2678
  202MOL0     C27158   9.032   7.923   3.911 -0.5219  0.1582  0.9549
  202MOL0     O27159   8.979   8.053   3.951  0.0140 -0.2114  0.5752
  202MOL0     C27160   8.851   8.086   3.916  1.0141 -0.2307 -0.4374
  202MOL0     C27161   8.799   8.214   3.954 -0.5737 -0.3929 -0.0989
  202MOL0     C27162   8.666   8.251   3.915 -0.4828  0.6485  0.1573
  202MOL0     C27163   8.617   8.382   3.958 -0.4375  0.6586 -0.8764
  202MOL0     C27164   8.580   8.155   3.850 -0.3089 -0.9697  0.0220
  202MOL0     C27165   8.439   8.186   3.802 -0.3390 -0.1494  0.3787
  202MOL0     O27166   8.369   8.078   3.763  0.0922  0.6813  0.1258
  202MOL0     C27167   8.233   8.090   3.750  0.0407  1.0451  0.2186
  202MOL0     C27168   8.173   8.143   3.630 -0.0978 -0.3346  0.1077
  202MOL0     C27169   8.036   8.136   3.614 -0.0365  0.3898 -0.0541
  202MOL0     C27170   7.949   8.093   3.713  0.7309 -0.1317 -0.5092
  202MOL0     O27171   7.811   8.086   3.697  0.1515 -0.0785  0.2192
  202MOL0     C27172   7.756   7.955   3.679 -0.4550 -0.2660 -0.8409
  202MOL0     C27173   7.619   7.965   3.726  0.8508  0.4649  0.2856
  202MOL0     C27174   7.558   7.823   3.733  0.6442  0.6002 -0.3183
  202MOL0     C27175   7.409   7.835   3.772  0.1746 -0.0391 -0.4437
  202MOL0     C27176   7.361   7.716   3.858  0.5313 -0.0658 -0.2564
  202MOL0     C27177   7.209   7.725   3.891  0.0493 -0.0340 -0.5587
  202MOL0     C27178   7.147   7.593   3.957 -0.9348  0.9093  0.5513
  202MOL0     C27179   7.012   7.628   4.011  0.3565  0.1137  0.3531
  202MOL0    Cl27180   6.916   7.711   3.890 -0.4706 -0.2024  0.3837
  202MOL0     C27181   8.012   8.049   3.830 -0.1397 -0.7975 -0.6691
  202MOL0     C27182   8.148   8.040   3.848  0.0785  0.0979 -0.5731
  202MOL0     O27183   8.393   8.298   3.803  0.5375  0.2481  0.2279
  202MOL0     C27184   8.642   8.039   3.815  0.4306  0.0282  0.5379
  202MOL0     C27185   8.766   7.997   3.844  0.5148  0.1038 -1.0403
  202MOL0     N27186   9.260   7.694   4.218 -0.3096  0.2225 -0.7982
  202MOL0     N27187   9.379   7.664   4.178 -0.1017 -0.3102  0.3956
  202MOL0     C27188  10.483   7.752   3.847 -0.6682  0.1486 -0.3046
  202MOL0     C27189  10.608   7.710   3.795 -0.4179 -0.2335 -0.3872
  202MOL0     C27190  11.043   7.780   3.650 -0.0933  0.6404 -0.2772
  202MOL0     C27191  11.034   7.640   3.607 -0.8468 -0.4195  0.4762
  202MOL0     C27192  11.149   7.583   3.547 -0.5249  0.0190 -0.3220
  202MOL0     C27193  11.267   7.651   3.529  0.1548 -0.3840  0.5044
  202MOL0     O27194  11.361   7.572   3.466 -0.1946  0.4852 -0.4468
  202MOL0     C27195  11.486   7.625   3.438  0.4639 -0.2131 -0.0610
  202MOL0     C27196  11.577   7.519   3.371 -0.3365 -0.4801  0.1640
  202MOL0     C27197  11.607   7.414   3.482  0.1193  0.1531 -0.7089
  202MOL0     C27198  11.686   7.297   3.431  0.3291 -0.9065 -0.5924
  202MOL0     C27199  11.683   7.179   3.518 -0.1895 -0.3902  0.0931
  202MOL0     C27200  11.683   7.099   3.604  0.3725 -0.8556 -0.1554
  202MOL0     C27201  11.275   7.786   3.575  0.8833 -0.5127 -0.3005
  202MOL0     C27202  11.164   7.848   3.635  0.1093  0.3769  0.1038
  202MOL0     H27203  10.807   7.940   3.947  0.8388  1.2005 -3.5409
  202MOL0     H27204  10.600   8.010   4.048 -0.2273 -0.8547  0.3875
  202MOL0     H27205  10.400   8.011   4.135  0.5326 -0.0986 -1.2011
  202MOL0     H27206  10.394   8.105   3.979 -0.1756  1.0147 -1.5660
  202MOL0     H27207  10.217   8.149   4.148  2.4041  0.7750 -1.8089
  202MOL0     H27208  10.167   8.129   3.987  1.1581  2.9568  1.3405
  202MOL0     H27209  10.086   7.901   4.007 -1.3210  0.7080 -0.5359
  202MOL0     H27210  10.173   7.888   4.163  1.6919  2.1504  0.4818
  202MOL0     H27211  10.035   8.076   4.246  3.0546 -2.3523  0.3242
  202MOL0     H27212   9.940   8.070   4.103 -3.1361 -2.6094  0.4516
  202MOL0     H27213   9.946   7.823   4.288 -1.3051 -1.8129 -0.9000
  202MOL0     H27214   9.839   7.967   4.303  0.6087  1.6589  0.6003
  202MOL0     H27215   9.792   7.930   4.045 -0.1826 -0.0205  0.3827
  202MOL0     H27216   9.842   7.769   4.063  1.5411  0.9671 -0.5801
  202MOL0     H27217   9.670   7.747   4.248  2.8414 -1.0587 -0.3227
  202MOL0     H27218   9.623   7.919   4.213  0.7305  0.2549 -0.2439
  202MOL0     H27219   9.592   7.665   4.041  0.9836 -0.2754  1.8256
  202MOL0     H27220   9.577   7.834   3.975  3.0507  0.9421 -0.6719
  202MOL0     H27221   9.373   7.970   4.076 -0.6189  1.3765  2.6336
  202MOL0     H27222   9.104   7.913   4.314 -0.5151 -2.1443  0.3961
  202MOL0     H27223   9.107   8.001   4.167  0.4099  0.0937 -1.2929
  202MOL0     H27224   8.904   7.882   4.204  1.7902  3.1067  1.7461
  202MOL0     H27225   8.976   7.726   4.206  1.0450  0.7520  1.6404
  202MOL0     H27226   8.869   7.794   3.995 -0.6328  0.6515 -0.2760
  202MOL0     H27227   9.033   7.725   3.985  0.5751  2.5031 -3.9282
  202MOL0     H27228   9.008   7.898   3.807  0.6950  1.6583  0.2810
  202MOL0     H27229   9.141   7.926   3.915 -0.0521  2.4633 -4.6207
  202MOL0     H27230   8.864   8.281   4.010 -0.9598 -1.8112  2.1874
  202MOL0     H27231   8.692   8.426   4.024 -0.4827  0.8086 -0.9245
  202MOL0     H27232   8.612   8.453   3.875  2.8022  2.4808  0.2879
  202MOL0     H27233   8.520   8.373   4.008 -0.1396  1.5228 -0.1082
  202MOL0     H27234   8.239   8.178   3.552 -1.3998  0.9601 -0.4432
  202MOL0     H27235   7.989   8.152   3.517  0.2951  1.9579  0.0243
  202MOL0     H27236   7.760   7.916   3.577 -0.5537  0.4769 -1.1269
  202MOL0     H27237   7.806   7.877   3.738 -0.1957 -0.9221 -1.9068
  202MOL0     H27238   7.610   8.014   3.824 -1.3786  2.8951 -1.0165
  202MOL0     H27239   7.564   8.017   3.647 -0.1720  2.5828  2.2546
  202MOL0     H27240   7.619   7.788   3.817  1.5524 -1.3196 -1.7200
  202MOL0     H27241   7.565   7.760   3.644  0.7386 -1.3370  1.0159
  202MOL0     H27242   7.387   7.927   3.827  1.4288  0.8384 -1.3563
  202MOL0     H27243   7.350   7.827   3.680  0.0303 -2.6394 -0.1845
  202MOL0     H27244   7.420   7.709   3.950  0.3774 -1.5161 -0.2409
  202MOL0     H27245   7.377   7.618   3.813  1.0500  1.7962 -4.6504
  202MOL0     H27246   7.199   7.808   3.963  3.8882  2.7211 -2.8414
  202MOL0     H27247   7.162   7.746   3.795 -1.8110  2.7705  0.8107
  202MOL0     H27248   7.214   7.552   4.034 -0.8647 -1.7893 -0.8073
  202MOL0     H27249   7.142   7.519   3.877 -1.2525 -2.3230  3.2872
  202MOL0     H27250   7.035   7.708   4.083 -3.2164  2.0529 -0.4114
  202MOL0     H27251   6.957   7.542   4.050 -2.1689  0.8473 -1.3059
  202MOL0     H27252   7.961   8.029   3.924 -2.5539 -1.2790 -1.9843
  202MOL0     H27253   8.196   8.005   3.939 -3.5739 -0.6825  1.2065
  202MOL0     H27254   8.580   7.976   3.753  0.9881  0.7823 -0.8192
  202MOL0     H27255   8.805   7.901   3.815  1.9078  0.0836  0.7132
  202MOL0     H27256  10.396   7.690   3.829  0.4825 -1.3913 -0.7211
  202MOL0     H27257  10.618   7.626   3.727  0.4469  0.9976 -1.8503
  202MOL0     H27258  10.942   7.582   3.611  0.7768 -3.1065  1.5141
  202MOL0     H27259  11.127   7.480   3.522 -0.0328 -0.5204  1.3264
  202MOL0     H27260  11.483   7.716   3.378 -2.1817  0.4150  0.9116
  202MOL0     H27261  11.526   7.654   3.535  2.9893 -2.4382 -0.2951
  202MOL0     H27262  11.672   7.556   3.333  0.7937 -1.3255  2.0277
  202MOL0     H27263  11.527   7.471   3.286  0.9664 -2.8553  0.6771
  202MOL0     H27264  11.510   7.374   3.512  1.4621 -3.1466 -0.3795
  202MOL0     H27265  11.652   7.462   3.570  1.1905 -2.0793  0.0297
  202MOL0     H27266  11.789   7.328   3.410 -0.1602  0.3455 -1.2224
  202MOL0     H27267  11.648   7.274   3.331 -0.3036  2.8822 -1.3910
  202MOL0     H27268  11.686   7.028   3.685  3.8363 -1.3306 -0.5513
  202MOL0     H27269  11.364   7.845   3.557  1.6659 -0.8638  2.0837
  202MOL0     H27270  11.190   7.948   3.669  0.3545  0.8883 -1.4845
  203MOL0     O27271   1.507  10.648   8.196 -0.2629 -0.1093 -0.5211
  203MOL0     C27272   1.593  10.710   8.261  0.1511  0.3295 -0.9278
  203MOL0     O27273   1.573  10.761   8.389 -0.7614 -0.5264 -0.7161
  203MOL0     C27274   1.450  10.779   8.452 -0.0264 -0.3068  0.1384
  203MOL0     C27275   1.337  10.816   8.385 -0.2505 -0.3930 -0.7488
  203MOL0     C27276   1.230  10.863   8.453  0.3531 -0.0940 -0.0850
  203MOL0     C27277   1.231  10.861   8.590  0.7268 -0.1274 -0.4056
  203MOL0     O27278   1.119  10.897   8.653  0.7755 -0.2921  0.0711
  203MOL0     C27279   1.117  10.904   8.797 -0.1256 -0.3514 -0.1165
  203MOL0     C27280   0.991  10.981   8.840  0.5317 -0.3213 -0.2739
  203MOL0     C27281   1.018  11.134   8.822 -0.5972 -0.8592  0.1584
  203MOL0     C27282   0.907  11.223   8.872  0.0632  0.3000  0.2948
  203MOL0     C27283   0.930  11.368   8.828 -0.3880  0.1027  0.0309
  203MOL0     C27284   1.056  11.431   8.896 -0.1701  0.4982 -0.2324
  203MOL0     C27285   1.079  11.583   8.874  0.1282  0.5083 -0.4489
  203MOL0     C27286   1.228  11.613   8.912 -1.3201 -0.9600  1.1651
  203MOL0     N27287   1.265  11.562   9.042 -0.5826 -0.2035 -0.0437
  203MOL0     C27288   1.236  11.632   9.162  0.1891  0.3169  0.7548
  203MOL0     C27289   1.317  11.575   9.260 -0.0354 -0.4080 -0.4381
  203MOL0     C27290   1.316  11.612   9.406 -0.5977  0.4479 -0.0798
  203MOL0     C27291   1.305  11.485   9.498 -0.4105 -0.7038  0.2508
  203MOL0     C27292   1.296  11.533   9.642 -0.1189 -0.4404 -0.7301
  203MOL0     C27293   1.306  11.420   9.756 -0.9338 -0.2394  0.7283
  203MOL0     O27294   1.224  11.299   9.730 -0.1479 -0.0500  0.3536
  203MOL0     C27295   1.087  11.300   9.741 -0.1991 -0.1935  0.5910
  203MOL0     C27296   1.031  11.178   9.707 -0.5678  0.2227 -0.7101
  203MOL0     C27297   0.893  11.152   9.733 -1.5749  0.8029  0.1293
  203MOL0     C27298   0.840  11.017   9.699 -0.1791  0.7310  0.5860
  203MOL0     C27299   0.816  11.251   9.799 -0.7538 -0.4545  0.8399
  203MOL0     C27300   0.666  11.242   9.816  0.2803 -0.2039  0.1818
  203MOL0     O27301   0.603  11.123   9.826 -0.0584  0.0912  0.4679
  203MOL0     C27302   0.469  11.117   9.824 -0.5898 -0.3314  0.9528
  203MOL0     C27303   0.385  11.176   9.915  0.5928 -0.6745  0.4538
  203MOL0     C27304   0.243  11.164   9.910 -0.0434  0.1461  0.6215
  203MOL0     C27305   0.186  11.080   9.813 -0.0750  0.3342 -0.3307
  203MOL0     O27306   0.050  11.064   9.821 -0.1884 -0.0431 -0.4037
  203MOL0     C27307  -0.014  10.960   9.744  0.4478  0.2557  1.9180
  203MOL0     C27308  -0.151  10.929   9.800  0.5082  1.3772 -0.2676
  203MOL0     C27309  -0.239  11.047   9.805  0.6450  0.0273  0.2973
  203MOL0     C27310  -0.369  11.009   9.871  1.2063  0.0069  0.0310
  203MOL0     C27311  -0.464  11.130   9.856 -0.1681  0.3758  0.6658
  203MOL0     C27312  -0.557  11.123   9.732  0.0994 -0.3470  0.5218
  203MOL0     C27313  -0.650  11.246   9.735  0.5938 -0.3811 -0.0185
  203MOL0     C27314  -0.754  11.251   9.621  0.1822 -0.4063 -0.0269
  203MOL0    Cl27315  -0.854  11.409   9.639  0.9397  0.0877  0.2840
  203MOL0     C27316   0.271  11.009   9.725 -0.1088  0.1323  0.2888
  203MOL0     C27317   0.406  11.037   9.726 -0.3672  0.1784  0.2377
  203MOL0     O27318   0.604  11.344   9.809  0.8289 -0.3935 -0.3847
  203MOL0     C27319   0.877  11.375   9.839  0.5886  0.4633 -0.2540
  203MOL0     C27320   1.011  11.399   9.812  0.1409 -0.0744 -0.5244
  203MOL0     N27321   1.393  11.482   9.205  0.1310  0.4330  0.3985
  203MOL0     N27322   1.357  11.474   9.079  0.8810  0.8118  0.1411
  203MOL0     C27323   1.340  10.812   8.659  0.6064  0.4816  0.4279
  203MOL0     C27324   1.448  10.774   8.591 -0.2667  0.1949 -0.6459
  203MOL0     C27325   1.726  10.713   8.200 -0.0673  0.3953 -0.7391
  203MOL0     C27326   1.839  10.741   8.276 -0.0054  0.6823 -0.4089
  203MOL0     C27327   1.959  10.760   8.208  0.3108 -0.6064  0.9707
  203MOL0     C27328   1.975  10.758   8.065  0.8652  0.4554 -1.2445
  203MOL0     O27329   2.101  10.785   8.008  0.2633  0.1642 -0.6338
  203MOL0     C27330   2.129  10.786   7.873  0.1714  0.2417 -0.0385
  203MOL0     C27331   2.253  10.706   7.858  0.3401 -0.6155  1.1343
  203MOL0     C27332   2.245  10.557   7.893  0.5471  0.0603  0.4145
  203MOL0     C27333   2.371  10.495   7.829  0.5635  0.6309 -0.1635
  203MOL0     C27334   2.496  10.551   7.882  1.0120 -0.7005  0.6433
  203MOL0     C27335   2.593  10.607   7.928  0.1843 -0.0482  0.1101
  203MOL0     C27336   1.855  10.717   7.995 -0.6268 -0.2709 -0.1277
  203MOL0     C27337   1.736  10.698   8.060  0.2498  1.0429 -0.6789
  203MOL0     H27338   1.350  10.826   8.278  0.3084 -1.6876 -0.8166
  203MOL0     H27339   1.136  10.896   8.410 -0.0214 -1.7861 -0.6274
  203MOL0     H27340   1.100  10.800   8.825 -1.8355  0.0448  0.4062
  203MOL0     H27341   1.210  10.951   8.831  1.6199 -3.5867  0.0179
  203MOL0     H27342   0.905  10.935   8.789 -0.4415 -0.4497  1.4302
  203MOL0     H27343   0.958  10.962   8.942 -0.3384 -1.0436 -0.6740
  203MOL0     H27344   1.104  11.158   8.885 -1.0896 -1.0118  0.9041
  203MOL0     H27345   1.025  11.146   8.713 -1.6502  0.4513  0.2025
  203MOL0     H27346   0.816  11.183   8.825  1.6025 -0.9113 -1.8519
  203MOL0     H27347   0.891  11.213   8.980  0.5759 -1.0369  0.2704
  203MOL0     H27348   0.943  11.369   8.719  1.1840 -0.2336  0.1915
  203MOL0     H27349   0.846  11.436   8.849 -1.8620 -0.9143 -2.1810
  203MOL0     H27350   1.043  11.419   9.004 -0.4670  2.3173 -0.0279
  203MOL0     H27351   1.148  11.376   8.876  3.0987  4.2191  2.8659
  203MOL0     H27352   1.053  11.617   8.774 -1.7566 -1.6960 -0.7847
  203MOL0     H27353   1.015  11.642   8.940 -0.6184  0.9124 -1.5211
  203MOL0     H27354   1.237  11.721   8.903 -0.0955 -1.1577 -0.7959
  203MOL0     H27355   1.292  11.563   8.838  0.9550  2.2773  0.7385
  203MOL0     H27356   1.164  11.712   9.179 -0.3713  0.0035 -0.0384
  203MOL0     H27357   1.408  11.660   9.440 -0.6549  0.1107  0.5530
  203MOL0     H27358   1.231  11.679   9.420 -1.3624 -0.6878  1.0024
  203MOL0     H27359   1.391  11.419   9.485 -0.8728 -1.3327  0.3294
  203MOL0     H27360   1.213  11.428   9.483 -1.7119  1.2216  0.4772
  203MOL0     H27361   1.198  11.580   9.654 -0.0890 -0.7414  0.8845
  203MOL0     H27362   1.373  11.608   9.663 -0.0931 -0.5236 -0.5249
  203MOL0     H27363   1.288  11.463   9.855  1.2281 -1.0072  1.5333
  203MOL0     H27364   1.405  11.373   9.765 -1.4484 -1.2549  1.2904
  203MOL0     H27365   1.106  11.116   9.660  1.6390  2.6574 -0.6682
  203MOL0     H27366   0.920  10.953   9.659 -1.1295  1.0073 -1.9735
  203MOL0     H27367   0.800  10.968   9.788  0.6813 -0.3839  0.3835
  203MOL0     H27368   0.759  11.025   9.626  0.3407 -1.2282 -0.2815
  203MOL0     H27369   0.414  11.247   9.992 -0.3713 -2.0411  2.1552
  203MOL0     H27370   0.174  11.209   9.980  1.3576 -0.8485  2.7454
  203MOL0     H27371  -0.023  10.997   9.642 -4.0399  0.3528  2.1707
  203MOL0     H27372   0.041  10.866   9.751  0.5332  0.3049  1.9218
  203MOL0     H27373  -0.198  10.851   9.739  0.0142  0.9864  0.5851
  203MOL0     H27374  -0.136  10.874   9.893 -0.8692 -1.3913 -1.5523
  203MOL0     H27375  -0.257  11.086   9.705  1.1295  3.0286  1.2844
  203MOL0     H27376  -0.186  11.122   9.865 -0.2605 -0.7793  2.1929
  203MOL0     H27377  -0.411  10.919   9.825 -0.3939  0.7879 -0.1012
  203MOL0     H27378  -0.364  10.987   9.978  0.8498 -0.5208 -0.0550
  203MOL0     H27379  -0.396  11.215   9.867  1.6974 -0.8139 -0.9391
  203MOL0     H27380  -0.532  11.123   9.942  0.5817  1.9043  1.4177
  203MOL0     H27381  -0.487  11.120   9.648  1.4761  0.6873  1.5876
  203MOL0     H27382  -0.616  11.031   9.724 -0.0410 -0.2370  0.2734
  203MOL0     H27383  -0.594  11.339   9.724 -0.7401  0.1790 -3.1413
  203MOL0     H27384  -0.707  11.247   9.828  1.5289 -0.0117  0.5571
  203MOL0     H27385  -0.818  11.162   9.627 -0.3813 -0.0404 -0.4951
  203MOL0     H27386  -0.710  11.260   9.521 -2.5283  4.2582 -1.1044
  203MOL0     H27387   0.241  10.931   9.656  0.4799 -0.2352  0.4432
  203MOL0     H27388   0.480  10.988   9.663  1.1802  2.1220  0.4243
  203MOL0     H27389   0.811  11.446   9.888 -0.1944  1.1637 -2.2287
  203MOL0     H27390   1.056  11.493   9.840 -0.3112 -0.5323  1.9593
  203MOL0     H27391   1.342  10.804   8.767  1.1775  0.2491  0.4019
  203MOL0     H27392   1.534  10.743   8.650  0.0075 -2.2083 -2.1169
  203MOL0     H27393   1.837  10.735   8.384  2.8080 -3.1488 -0.3535
  203MOL0     H27394   2.038  10.800   8.271  0.9317  0.8365 -0.6320
  203MOL0     H27395   2.049  10.744   7.812  1.6703  0.6002 -2.3654
  203MOL0     H27396   2.147  10.889   7.841  1.0756  0.0762 -0.1049
  203MOL0     H27397   2.338  10.754   7.908  0.9250  1.5879 -1.7386
  203MOL0     H27398   2.291  10.726   7.758  1.4983 -0.3325  1.6002
  203MOL0     H27399   2.156  10.502   7.863 -0.5814 -0.4679  4.2331
  203MOL0     H27400   2.256  10.524   7.996 -0.6140 -2.0678 -0.0905
  203MOL0     H27401   2.371  10.510   7.720 -1.6789 -0.3960 -0.3726
  203MOL0     H27402   2.369  10.386   7.840 -2.0558  0.6541  0.1108
  203MOL0     H27403   2.665  10.660   7.986 -1.0708 -0.5170  2.1800
  203MOL0     H27404   1.863  10.705   7.888 -0.5566 -2.0857  0.0543
  203MOL0     H27405   1.650  10.675   7.998 -0.6119  0.3916  0.7015
  204MOL0     O27406   9.053   7.850   0.272 -0.3505 -0.5236 -0.4509
  204MOL0     C27407   9.092   7.742   0.302 -0.6089 -0.3804 -0.2418
  204MOL0     O27408   9.010   7.642   0.356 -0.1475 -0.4448 -0.2900
  204MOL0     C27409   8.877   7.674   0.367 -0.5151 -0.2022 -0.4221
  204MOL0     C27410   8.814   7.681   0.496 -0.2472  0.0215  0.4218
  204MOL0     C27411   8.677   7.696   0.506  0.3213 -0.6492  0.7864
  204MOL0     C27412   8.591   7.706   0.392  0.5243  0.5921  0.3082
  204MOL0     O27413   8.456   7.724   0.399  0.2331  0.6460  0.1749
  204MOL0     C27414   8.388   7.701   0.527 -0.2763  0.0742 -0.2319
  204MOL0     C27415   8.237   7.676   0.512  0.4214 -0.8666 -0.7002
  204MOL0     C27416   8.170   7.801   0.459  0.1362 -0.2158 -0.2394
  204MOL0     C27417   8.019   7.776   0.443  0.9452  0.1913  0.4401
  204MOL0     C27418   7.931   7.898   0.408  0.2262  0.4699 -0.0677
  204MOL0     C27419   7.802   7.852   0.343  0.6825 -0.9970  0.0765
  204MOL0     C27420   7.718   7.976   0.310  0.3796  0.7909 -0.3571
  204MOL0     C27421   7.593   7.934   0.238 -0.0686 -0.2263  0.0750
  204MOL0     N27422   7.491   8.031   0.214  0.3555  0.4247  0.2180
  204MOL0     C27423   7.355   8.010   0.211 -0.0697  0.2204  0.7844
  204MOL0     C27424   7.309   8.139   0.195  0.1509 -0.1907 -0.0016
  204MOL0     C27425   7.160   8.186   0.187 -0.7995 -0.0643  0.0856
  204MOL0     C27426   7.114   8.282   0.290  0.3970 -0.3895 -0.2543
  204MOL0     C27427   6.965   8.292   0.267 -0.2399 -0.6363 -0.4701
  204MOL0     C27428   6.896   8.366   0.388  0.5360  0.1494  0.7592
  204MOL0     O27429   6.949   8.499   0.395  0.1651 -1.0520  0.0430
  204MOL0     C27430   6.867   8.588   0.325  0.1227  0.1409  0.2282
  204MOL0     C27431   6.725   8.609   0.349  0.7709  0.4783 -0.2694
  204MOL0     C27432   6.661   8.701   0.269 -0.2307 -0.3642  0.6089
  204MOL0     C27433   6.525   8.735   0.313 -0.4951  0.6572  0.2900
  204MOL0     C27434   6.730   8.762   0.157 -0.0399 -0.3513 -0.1870
  204MOL0     C27435   6.656   8.854   0.061  0.3635  0.0824  0.5077
  204MOL0     O27436   6.734   8.925  -0.027 -0.0615  0.3121  0.2103
  204MOL0     C27437   6.686   9.009  -0.125 -0.8272  0.3935 -0.2148
  204MOL0     C27438   6.556   8.995  -0.175 -0.3025  0.2854  1.1568
  204MOL0     C27439   6.518   9.086  -0.277 -0.5928 -0.6490  0.5631
  204MOL0     C27440   6.600   9.181  -0.334  0.1739  0.3776 -0.3846
  204MOL0     O27441   6.543   9.268  -0.431 -0.7067  0.1821  0.0293
  204MOL0     C27442   6.596   9.398  -0.439  0.1328 -0.0574  0.0163
  204MOL0     C27443   6.481   9.484  -0.489  0.6911  0.6500 -0.3026
  204MOL0     C27444   6.494   9.629  -0.426 -0.2778 -0.3609  0.3401
  204MOL0     C27445   6.608   9.717  -0.483 -0.4774  0.6712 -0.4377
  204MOL0     C27446   6.601   9.862  -0.428 -1.1962  0.8601  0.0625
  204MOL0     C27447   6.715   9.944  -0.485 -0.6633  0.9318  0.0712
  204MOL0     C27448   6.668  10.078  -0.546 -0.1412  0.2717 -0.3825
  204MOL0     C27449   6.787  10.154  -0.582  0.1933  0.1872 -0.8481
  204MOL0    Cl27450   6.749  10.304  -0.659  0.0699 -0.3764  0.4451
  204MOL0     C27451   6.730   9.192  -0.275  0.2530  0.5273 -0.3335
  204MOL0     C27452   6.774   9.114  -0.175  0.0727  0.2000 -0.5215
  204MOL0     O27453   6.534   8.866   0.071  0.3163 -0.6398  0.5132
  204MOL0     C27454   6.863   8.739   0.138 -0.6218 -0.0833 -0.8605
  204MOL0     C27455   6.936   8.650   0.221 -0.2733 -0.7653 -0.8858
  204MOL0     N27456   7.415   8.226   0.176  0.2533 -0.0330 -0.1624
  204MOL0     N27457   7.520   8.161   0.193 -0.3945  0.0697  0.6948
  204MOL0     C27458   8.656   7.700   0.273  0.2616 -0.0834  0.3059
  204MOL0     C27459   8.788   7.684   0.259 -0.2585 -0.1225  0.3650
  204MOL0     C27460   9.232   7.702   0.272  0.4591 -1.6605  0.5470
  204MOL0     C27461   9.297   7.594   0.336  0.4490 -0.7750 -0.3747
  204MOL0     C27462   9.429   7.563   0.308  0.0219  0.2406  0.1936
  204MOL0     C27463   9.509   7.632   0.211  0.7428  0.0154  0.1097
  204MOL0     O27464   9.637   7.587   0.173  0.5547  0.1001  0.1426
  204MOL0     C27465   9.697   7.470   0.247  0.8515  0.8352  0.5300
  204MOL0     C27466   9.770   7.506   0.375  0.4080  0.3045  0.2258
  204MOL0     C27467   9.884   7.608   0.352  0.6295  0.0601  0.1709
  204MOL0     C27468  10.002   7.540   0.277 -0.0725  0.2350  0.0430
  204MOL0     C27469  10.040   7.416   0.348 -0.7757  0.0197 -0.1539
  204MOL0     C27470  10.067   7.322   0.421 -0.9536  0.1616  0.6059
  204MOL0     C27471   9.443   7.731   0.138 -0.2701  0.5324 -0.5200
  204MOL0     C27472   9.312   7.766   0.170 -0.0407  0.2809  0.4670
  204MOL0     H27473   8.864   7.688   0.592  0.3221  0.7415  0.0869
  204MOL0     H27474   8.635   7.725   0.601 -1.4319  1.0071 -0.4176
  204MOL0     H27475   8.421   7.610   0.579  2.1771  0.5171 -0.9162
  204MOL0     H27476   8.413   7.786   0.591  2.0533 -0.8985  0.2538
  204MOL0     H27477   8.218   7.592   0.444 -1.6064 -1.1166  0.1115
  204MOL0     H27478   8.193   7.652   0.609  3.3425 -1.5353  0.5544
  204MOL0     H27479   8.184   7.874   0.539 -0.8019 -1.4723  1.1535
  204MOL0     H27480   8.208   7.836   0.363 -0.4762  0.8235 -0.1153
  204MOL0     H27481   8.000   7.700   0.367  0.7297  0.7039 -0.0231
  204MOL0     H27482   7.962   7.739   0.529 -0.5636 -1.8124 -1.3216
  204MOL0     H27483   7.909   7.957   0.497 -4.2049 -0.4857 -0.3034
  204MOL0     H27484   7.994   7.960   0.344  0.9117 -1.1467 -1.0437
  204MOL0     H27485   7.832   7.797   0.253  1.9421  0.7538 -0.6437
  204MOL0     H27486   7.748   7.787   0.412  0.1983  0.0222  0.6754
  204MOL0     H27487   7.687   8.036   0.396 -1.4166 -0.0889 -0.3421
  204MOL0     H27488   7.775   8.042   0.245  0.9787  1.4668  0.8197
  204MOL0     H27489   7.541   7.851   0.287 -1.3175  1.3463  1.5487
  204MOL0     H27490   7.622   7.896   0.140 -3.3058  0.0921 -1.0947
  204MOL0     H27491   7.299   7.917   0.216 -0.9627  0.5417 -1.8211
  204MOL0     H27492   7.159   8.246   0.095 -0.9414  0.4311  0.4065
  204MOL0     H27493   7.090   8.102   0.185 -1.1335  0.1239  1.9591
  204MOL0     H27494   7.163   8.379   0.282  3.5879 -1.8023  0.6623
  204MOL0     H27495   7.130   8.233   0.387  0.0527 -0.7701 -0.3846
  204MOL0     H27496   6.917   8.195   0.256  0.7865 -1.0769 -1.2978
  204MOL0     H27497   6.952   8.358   0.180  3.0277  1.0991  0.1891
  204MOL0     H27498   6.939   8.320   0.477  1.9939  0.8493  0.4401
  204MOL0     H27499   6.787   8.373   0.383  0.6612  2.5222  0.0169
  204MOL0     H27500   6.661   8.572   0.429 -2.4615  0.5320 -2.6152
  204MOL0     H27501   6.455   8.699   0.238 -0.7380 -0.5049  1.0474
  204MOL0     H27502   6.492   8.687   0.405  0.3309  1.7655  1.2017
  204MOL0     H27503   6.526   8.845   0.320 -0.8396  0.6931 -0.1522
  204MOL0     H27504   6.484   8.917  -0.152 -1.4085  1.3778  1.5246
  204MOL0     H27505   6.423   9.083  -0.329  0.2325 -2.8004 -0.9579
  204MOL0     H27506   6.627   9.432  -0.340  1.1757  1.1395 -0.6882
  204MOL0     H27507   6.680   9.404  -0.508 -2.1870  0.5036 -2.9865
  204MOL0     H27508   6.485   9.505  -0.596 -5.0131 -1.4068 -1.2699
  204MOL0     H27509   6.381   9.449  -0.462  1.1922 -0.0149  0.7509
  204MOL0     H27510   6.500   9.613  -0.318 -1.2990  0.3519  0.5156
  204MOL0     H27511   6.407   9.692  -0.445  0.0703  0.4770  1.3557
  204MOL0     H27512   6.703   9.665  -0.466 -0.0887  1.3593 -0.4522
  204MOL0     H27513   6.605   9.723  -0.593  0.2521  1.7145 -0.4206
  204MOL0     H27514   6.610   9.860  -0.319  2.1641 -2.2686 -0.0862
  204MOL0     H27515   6.507   9.907  -0.462 -2.0114 -1.3554 -0.7949
  204MOL0     H27516   6.782   9.955  -0.399 -0.7956 -4.0702  1.1184
  204MOL0     H27517   6.765   9.890  -0.566  0.7047  1.5536  0.4768
  204MOL0     H27518   6.595  10.122  -0.478 -0.1632  0.7244 -0.6971
  204MOL0     H27519   6.621  10.059  -0.643 -2.1430 -1.2584  0.8322
  204MOL0     H27520   6.849  10.096  -0.651 -1.4541 -0.4097 -1.8717
  204MOL0     H27521   6.854  10.176  -0.498 -1.5025 -0.6477  0.8122
  204MOL0     H27522   6.790   9.268  -0.324 -2.9501  1.8606 -2.5549
  204MOL0     H27523   6.875   9.128  -0.137  0.1965 -0.2681 -0.6730
  204MOL0     H27524   6.919   8.782   0.056 -1.1253  0.2491 -1.0370
  204MOL0     H27525   7.044   8.642   0.212 -0.1933  0.0023 -0.6441
  204MOL0     H27526   8.613   7.708   0.173  2.5465 -2.0471 -0.9364
  204MOL0     H27527   8.830   7.683   0.159 -0.2907 -0.9398  0.3565
  204MOL0     H27528   9.240   7.548   0.417 -0.1700  1.3227  0.4489
  204MOL0     H27529   9.471   7.481   0.365  0.9687  1.2406  0.9881
  204MOL0     H27530   9.627   7.386   0.255  0.5928  0.8928 -0.9444
  204MOL0     H27531   9.776   7.426   0.186 -0.3249 -0.2148 -0.2879
  204MOL0     H27532   9.789   7.417   0.436 -2.2038  1.4946  3.0571
  204MOL0     H27533   9.694   7.558   0.436 -1.7467  0.2606 -2.2547
  204MOL0     H27534   9.924   7.644   0.448  1.0136 -1.1938  0.5109
  204MOL0     H27535   9.852   7.687   0.284  2.0927  0.6552  0.1327
  204MOL0     H27536  10.087   7.607   0.286  0.0038  0.3672 -1.4714
  204MOL0     H27537   9.983   7.524   0.170  0.5746  2.0623 -0.3739
  204MOL0     H27538  10.091   7.232   0.473  0.2626 -1.9823 -3.3236
  204MOL0     H27539   9.489   7.769   0.048 -0.5222  1.2067 -0.3689
  204MOL0     H27540   9.267   7.851   0.119 -1.7075 -0.7133  0.1975
  205MOL0     O27541   1.563  10.945   2.738 -1.0127  0.1265 -0.1582
  205MOL0     C27542   1.561  10.831   2.707 -0.3908  0.6262  0.1797
  205MOL0     O27543   1.446  10.750   2.707 -0.0950 -0.2834  0.1608
  205MOL0     C27544   1.319  10.795   2.706 -0.4931  0.0938  0.0080
  205MOL0     C27545   1.217  10.703   2.736 -0.0806 -0.8477  0.1391
  205MOL0     C27546   1.086  10.742   2.747 -0.4632 -1.0478 -0.2717
  205MOL0     C27547   1.042  10.871   2.718  0.0092  0.2569  0.4281
  205MOL0     O27548   0.912  10.912   2.729  0.2541 -0.2444  0.0768
  205MOL0     C27549   0.832  10.869   2.845  0.4762 -0.2396  0.3326
  205MOL0     C27550   0.716  10.962   2.835  0.1277  0.5970  0.8805
  205MOL0     C27551   0.605  10.941   2.725 -0.0148 -0.4653 -0.1417
  205MOL0     C27552   0.491  11.044   2.724  0.9417 -0.4224  0.0457
  205MOL0     C27553   0.423  11.071   2.591  0.1074  0.4620 -1.1055
  205MOL0     C27554   0.291  11.139   2.602 -0.2817  0.3331  0.3176
  205MOL0     C27555   0.246  11.205   2.471 -0.1304  0.0457  0.0432
  205MOL0     C27556   0.308  11.341   2.442  0.1297  0.0552  0.1788
  205MOL0     N27557   0.223  11.455   2.476  1.3905  0.2584 -0.1428
  205MOL0     C27558   0.213  11.512   2.604 -0.3591 -0.7192 -0.2042
  205MOL0     C27559   0.103  11.588   2.597  0.2641  0.3873  0.8307
  205MOL0     C27560   0.054  11.666   2.718  0.5315 -0.0932 -0.1838
  205MOL0     C27561  -0.100  11.682   2.718 -0.1670 -0.3771 -0.5234
  205MOL0     C27562  -0.177  11.553   2.762  0.5266 -0.0281 -0.0378
  205MOL0     C27563  -0.315  11.590   2.796  0.6689 -0.0140 -0.0464
  205MOL0     O27564  -0.401  11.645   2.684 -0.1333 -0.8060 -0.7804
  205MOL0     C27565  -0.536  11.624   2.686  0.1052  1.0764  0.7924
  205MOL0     C27566  -0.597  11.663   2.571  1.5074  0.1789  0.8249
  205MOL0     C27567  -0.737  11.650   2.556 -0.2826  0.1025  0.9448
  205MOL0     C27568  -0.788  11.687   2.419  0.2133  0.0772 -0.3421
  205MOL0     C27569  -0.821  11.584   2.657  0.1960 -0.2806 -1.3453
  205MOL0     C27570  -0.967  11.565   2.645  0.3615  0.3738  0.2803
  205MOL0     O27571  -1.042  11.658   2.584 -0.1753  0.1834 -0.1001
  205MOL0     C27572  -1.184  11.655   2.588 -1.1196  0.6461  1.0434
  205MOL0     C27573  -1.262  11.656   2.710  0.6591 -0.5764 -0.2571
  205MOL0     C27574  -1.402  11.652   2.699 -0.0658 -0.0809 -0.3471
  205MOL0     C27575  -1.472  11.646   2.572 -0.1118  0.5788 -1.1551
  205MOL0     O27576  -1.605  11.626   2.581 -0.2953  0.7788  0.3883
  205MOL0     C27577  -1.671  11.698   2.480 -0.2079 -0.1695 -0.5936
  205MOL0     C27578  -1.800  11.751   2.532  0.1225  1.0429  0.3836
  205MOL0     C27579  -1.908  11.642   2.569  0.0368 -0.6406  0.5026
  205MOL0     C27580  -2.052  11.697   2.584 -0.2132 -0.0467  0.1682
  205MOL0     C27581  -2.073  11.734   2.730  0.0698  0.1148 -0.2491
  205MOL0     C27582  -2.212  11.802   2.748 -0.2711  0.3831 -0.3969
  205MOL0     C27583  -2.319  11.701   2.713  1.2514  0.5606  0.0618
  205MOL0     C27584  -2.316  11.563   2.789  0.3637  0.1756 -0.1273
  205MOL0    Cl27585  -2.492  11.499   2.775 -0.1283 -0.5023  0.4682
  205MOL0     C27586  -1.387  11.657   2.457 -1.0702  0.1535  0.2061
  205MOL0     C27587  -1.247  11.663   2.461 -0.1695  0.8506 -0.0135
  205MOL0     O27588  -1.016  11.476   2.710 -0.3527  0.6942 -0.2310
  205MOL0     C27589  -0.754  11.552   2.778 -0.3032 -0.4884 -0.1779
  205MOL0     C27590  -0.614  11.575   2.789  0.2719  0.1802  0.2616
  205MOL0     N27591   0.038  11.573   2.473  0.4026  0.8317 -0.9555
  205MOL0     N27592   0.117  11.498   2.396  0.0248  0.0501  0.2913
  205MOL0     C27593   1.135  10.966   2.683 -0.6625  0.1078 -0.0064
  205MOL0     C27594   1.274  10.932   2.691 -0.1493  0.0001 -0.5136
  205MOL0     C27595   1.698  10.765   2.712  0.0919  0.3752  0.7015
  205MOL0     C27596   1.817  10.845   2.703  0.5943  0.0296 -0.2077
  205MOL0     C27597   1.941  10.782   2.720  0.2499 -0.0601 -0.2716
  205MOL0     C27598   1.943  10.642   2.744 -0.0346 -0.1474 -0.1507
  205MOL0     O27599   2.057  10.564   2.760  0.3187  0.4065 -1.5947
  205MOL0     C27600   2.170  10.634   2.799 -0.9817  0.3404 -0.2630
  205MOL0     C27601   2.258  10.646   2.684 -1.0089  0.2670 -0.0566
  205MOL0     C27602   2.380  10.733   2.701  1.0351  0.2836  0.6961
  205MOL0     C27603   2.506  10.663   2.736  0.3105 -1.9217  0.5509
  205MOL0     C27604   2.631  10.752   2.723  0.1813 -0.2731  0.6113
  205MOL0     C27605   2.732  10.824   2.702 -0.7097  0.3002 -0.4793
  205MOL0     C27606   1.829  10.565   2.760 -0.5656  0.6528  0.7029
  205MOL0     C27607   1.710  10.625   2.743 -0.1342  0.0732  0.1627
  205MOL0     H27608   1.260  10.604   2.733  2.9243  0.3619 -3.1070
  205MOL0     H27609   1.017  10.660   2.766 -0.7303 -1.2079 -1.7540
  205MOL0     H27610   0.792  10.769   2.824  0.2214 -0.2987  1.0548
  205MOL0     H27611   0.901  10.860   2.929 -2.4226 -1.9012  2.7584
  205MOL0     H27612   0.663  10.958   2.930 -2.4806 -2.5578 -0.5047
  205MOL0     H27613   0.761  11.062   2.835  2.2275 -0.2749 -0.4205
  205MOL0     H27614   0.660  10.942   2.631  2.0073  0.3189  0.9735
  205MOL0     H27615   0.567  10.839   2.723 -0.6110 -0.3778  2.5043
  205MOL0     H27616   0.411  11.014   2.792 -0.1877 -2.1914 -1.9574
  205MOL0     H27617   0.542  11.135   2.757  1.2420 -0.7230  0.4274
  205MOL0     H27618   0.492  11.116   2.519  1.2200 -1.5032 -1.3520
  205MOL0     H27619   0.405  10.965   2.569  0.1722 -0.1228  1.3465
  205MOL0     H27620   0.212  11.078   2.647  0.5381 -0.2026  1.0691
  205MOL0     H27621   0.296  11.220   2.676  0.2724  1.6280 -1.0747
  205MOL0     H27622   0.265  11.138   2.387 -2.0289 -0.3090 -0.1408
  205MOL0     H27623   0.137  11.212   2.467 -0.1941  0.2116  1.5615
  205MOL0     H27624   0.328  11.338   2.334  1.3843  1.0356  0.3573
  205MOL0     H27625   0.403  11.359   2.492 -0.5626  2.3149  0.7816
  205MOL0     H27626   0.281  11.499   2.688  0.5722 -0.3071 -0.8679
  205MOL0     H27627   0.083  11.621   2.813  0.5332  0.4476  0.0735
  205MOL0     H27628   0.098  11.766   2.713  0.9476 -0.3186 -1.3835
  205MOL0     H27629  -0.136  11.705   2.617  0.6213  0.0761 -0.7058
  205MOL0     H27630  -0.123  11.772   2.776 -1.6687 -0.2461 -1.2661
  205MOL0     H27631  -0.133  11.514   2.853 -0.6998  3.2234  2.1417
  205MOL0     H27632  -0.187  11.481   2.680 -0.6820  1.0140 -0.8778
  205MOL0     H27633  -0.305  11.659   2.880 -2.7059  0.3629  0.1641
  205MOL0     H27634  -0.360  11.499   2.837  1.1519  1.1574  3.3606
  205MOL0     H27635  -0.533  11.702   2.492  0.4606  0.4469  0.0941
  205MOL0     H27636  -0.848  11.778   2.412  2.7444  1.8412 -0.5280
  205MOL0     H27637  -0.712  11.685   2.340  1.2384  2.4179  0.4752
  205MOL0     H27638  -0.849  11.600   2.392  0.3570 -0.9168  2.2920
  205MOL0     H27639  -1.207  11.661   2.804  0.8118  0.1740 -0.3832
  205MOL0     H27640  -1.474  11.648   2.780 -0.6064  2.2436 -0.6489
  205MOL0     H27641  -1.620  11.788   2.447 -1.4426 -0.5005 -3.7649
  205MOL0     H27642  -1.687  11.629   2.396 -1.7154 -0.0162 -0.4682
  205MOL0     H27643  -1.784  11.812   2.622 -1.7787  3.3264 -0.7230
  205MOL0     H27644  -1.844  11.821   2.461 -1.5548  0.2954  0.6636
  205MOL0     H27645  -1.877  11.589   2.660  0.9408  0.2332  0.7253
  205MOL0     H27646  -1.899  11.567   2.489 -0.1016  1.6817 -1.8350
  205MOL0     H27647  -2.062  11.777   2.510  1.1845  2.4093  2.4701
  205MOL0     H27648  -2.116  11.611   2.565  1.7102 -1.5043 -0.0068
  205MOL0     H27649  -1.987  11.798   2.754  0.5171  1.0643 -3.8448
  205MOL0     H27650  -2.075  11.646   2.796  0.6732 -0.9074 -1.5546
  205MOL0     H27651  -2.232  11.835   2.850 -3.7948  2.9424 -1.6920
  205MOL0     H27652  -2.212  11.890   2.683  0.4660 -0.4724 -1.6015
  205MOL0     H27653  -2.316  11.675   2.607  2.7968  0.5380  0.0880
  205MOL0     H27654  -2.420  11.740   2.729  0.2691 -2.7783  3.6756
  205MOL0     H27655  -2.300  11.589   2.894 -2.4176 -2.3462  1.0463
  205MOL0     H27656  -2.241  11.494   2.749  1.2052  0.5997  0.6756
  205MOL0     H27657  -1.440  11.660   2.362 -2.2132 -0.7879  0.7859
  205MOL0     H27658  -1.185  11.673   2.373  1.2163  0.6003  0.9115
  205MOL0     H27659  -0.822  11.504   2.847  0.7431 -2.7978 -0.6603
  205MOL0     H27660  -0.576  11.538   2.884  1.8022  0.2244 -0.3135
  205MOL0     H27661   1.100  11.062   2.647 -1.9317 -0.4926 -0.4267
  205MOL0     H27662   1.340  11.017   2.679  1.3934 -1.0292  0.2302
  205MOL0     H27663   1.812  10.949   2.675  2.1724 -0.4596 -2.7204
  205MOL0     H27664   2.034  10.834   2.702  0.1773  0.1143 -0.1513
  205MOL0     H27665   2.151  10.738   2.829  1.6439  1.8401 -3.1861
  205MOL0     H27666   2.231  10.575   2.868  2.3767  2.4976 -1.1350
  205MOL0     H27667   2.196  10.685   2.602  0.1356  0.4571 -0.8471
  205MOL0     H27668   2.292  10.544   2.666  2.4652  1.3861 -0.3948
  205MOL0     H27669   2.349  10.814   2.768  1.4128  2.1336 -1.2895
  205MOL0     H27670   2.407  10.770   2.602 -1.4875 -1.0105 -0.5767
  205MOL0     H27671   2.520  10.582   2.665  0.1344  0.8459 -2.9090
  205MOL0     H27672   2.512  10.617   2.835  4.3603 -1.5485  0.6529
  205MOL0     H27673   2.828  10.870   2.686 -0.8137  0.4718 -0.6168
  205MOL0     H27674   1.836  10.457   2.774  1.3615  0.2372 -2.4535
  205MOL0     H27675   1.618  10.569   2.757 -1.8042  2.7236  0.4732
  206MOL0     O27676  10.226   6.558   3.272 -0.1896 -0.7451  0.5676
  206MOL0     C27677  10.315   6.629   3.323 -0.7074  0.8416  0.1292
  206MOL0     O27678  10.301   6.747   3.394  0.7219  0.3574 -0.4507
  206MOL0     C27679  10.180   6.809   3.407 -0.1402 -0.1727  0.3497
  206MOL0     C27680  10.102   6.760   3.512  0.3118 -0.8124 -0.3501
  206MOL0     C27681   9.965   6.803   3.529 -0.3341 -0.1945 -0.5196
  206MOL0     C27682   9.922   6.901   3.443 -0.4906  0.2896 -0.2529
  206MOL0     O27683   9.789   6.936   3.460 -0.0817  0.4768 -0.5089
  206MOL0     C27684   9.763   7.071   3.475  0.3186 -0.6556  0.6303
  206MOL0     C27685   9.631   7.092   3.545  0.4693 -0.1820  0.1528
  206MOL0     C27686   9.502   7.032   3.483  0.2085  1.6062 -0.1425
  206MOL0     C27687   9.385   7.079   3.557  0.5801  0.9291  0.0442
  206MOL0     C27688   9.251   7.023   3.504  0.2394  0.5623  0.2269
  206MOL0     C27689   9.224   6.870   3.520 -0.2671  0.3433 -0.2134
  206MOL0     C27690   9.105   6.826   3.431 -0.4055  0.6359  0.5416
  206MOL0     C27691   9.094   6.677   3.433 -0.3540  1.1022 -0.4344
  206MOL0     N27692   8.972   6.636   3.361  0.3773  0.6259  0.5894
  206MOL0     C27693   8.848   6.648   3.415  0.1160 -0.3962  0.4404
  206MOL0     C27694   8.760   6.584   3.329 -0.4523 -0.0001 -0.7706
  206MOL0     C27695   8.612   6.567   3.339 -0.5207  0.3146 -1.5389
  206MOL0     C27696   8.587   6.440   3.424 -0.2664 -0.6099  0.1791
  206MOL0     C27697   8.438   6.406   3.437  0.4609 -0.4978  0.8194
  206MOL0     C27698   8.422   6.276   3.508  0.6139  0.0089  0.1154
  206MOL0     O27699   8.493   6.166   3.452  0.3149  0.2316  0.4243
  206MOL0     C27700   8.449   6.101   3.338  0.4230 -1.2478 -0.1135
  206MOL0     C27701   8.531   6.037   3.254  0.1871  0.4701  0.4470
  206MOL0     C27702   8.481   5.967   3.143  0.0964  0.0725 -0.3540
  206MOL0     C27703   8.594   5.895   3.072  0.6029  1.3142 -0.1846
  206MOL0     C27704   8.344   5.958   3.113  0.0251 -0.4647  0.5174
  206MOL0     C27705   8.287   5.902   2.985  0.4321 -0.0578 -0.3854
  206MOL0     O27706   8.148   5.911   2.966  0.9054 -0.3309 -0.2157
  206MOL0     C27707   8.085   5.836   2.871 -1.8106 -0.8114 -0.1481
  206MOL0     C27708   8.016   5.896   2.763  0.0873 -0.2139 -0.1040
  206MOL0     C27709   7.959   5.818   2.659  0.4710  0.5030 -0.3254
  206MOL0     C27710   7.961   5.671   2.672 -0.1164  0.3797 -0.1805
  206MOL0     O27711   7.897   5.595   2.579  0.0835  0.3538 -0.0548
  206MOL0     C27712   7.872   5.456   2.609 -0.2612  0.2916  0.1771
  206MOL0     C27713   7.783   5.397   2.499 -0.2181 -1.0267  0.0090
  206MOL0     C27714   7.753   5.253   2.508  0.5299  0.3753 -0.8343
  206MOL0     C27715   7.663   5.219   2.622 -0.2021 -0.0136 -1.0166
  206MOL0     C27716   7.632   5.069   2.624  0.2007 -0.5343 -0.3269
  206MOL0     C27717   7.511   5.041   2.709 -0.2718 -0.1492 -0.0450
  206MOL0     C27718   7.467   4.893   2.715 -0.0350  0.2317 -1.3862
  206MOL0     C27719   7.449   4.830   2.582  0.3458 -0.8569  0.8012
  206MOL0    Cl27720   7.347   4.673   2.601 -0.0334  0.0215  0.4488
  206MOL0     C27721   8.026   5.621   2.779  0.7285 -0.3770  0.0006
  206MOL0     C27722   8.093   5.702   2.873  0.6830  0.2896  0.5921
  206MOL0     O27723   8.360   5.844   2.909 -0.7486 -0.3479  0.3238
  206MOL0     C27724   8.256   6.019   3.201  0.7997 -0.3759 -0.2558
  206MOL0     C27725   8.310   6.094   3.310  0.6371 -0.0397  0.6812
  206MOL0     N27726   8.841   6.535   3.228  0.4476 -0.3967  0.5164
  206MOL0     N27727   8.962   6.562   3.245 -0.9114  0.2942  0.0242
  206MOL0     C27728   9.992   6.951   3.336 -0.3816 -0.3026  0.6849
  206MOL0     C27729  10.125   6.903   3.311  0.0640  0.3625  0.5456
  206MOL0     C27730  10.451   6.578   3.308 -0.6240 -0.7989 -0.2295
  206MOL0     C27731  10.481   6.455   3.248 -0.0808  0.0732 -0.3126
  206MOL0     C27732  10.613   6.422   3.220 -0.6199  0.4099 -0.3348
  206MOL0     C27733  10.718   6.505   3.246 -0.4015 -0.2616 -0.1184
  206MOL0     O27734  10.841   6.484   3.191  0.6293 -0.1077  0.3932
  206MOL0     C27735  10.951   6.532   3.271  0.0685  0.3464  0.4920
  206MOL0     C27736  11.059   6.433   3.245  0.5424  0.0610 -0.0560
  206MOL0     C27737  11.120   6.438   3.099  0.5784 -1.0068  0.4619
  206MOL0     C27738  11.228   6.333   3.068  0.0491  0.0600  0.0325
  206MOL0     C27739  11.361   6.376   3.123 -0.2690 -0.0456  0.3678
  206MOL0     C27740  11.459   6.407   3.190  0.2982  0.3304  0.6392
  206MOL0     C27741  10.693   6.626   3.310 -0.4527 -0.3683  0.1836
  206MOL0     C27742  10.557   6.663   3.337  0.5003 -0.3837  0.1404
  206MOL0     H27743  10.137   6.687   3.585  0.9520 -0.0980  0.0812
  206MOL0     H27744   9.901   6.759   3.604 -0.5447 -3.4899 -2.4392
  206MOL0     H27745   9.842   7.117   3.535 -1.3396  0.5461  1.9534
  206MOL0     H27746   9.751   7.123   3.379 -5.1157 -0.0222  1.3537
  206MOL0     H27747   9.625   7.055   3.648 -2.7504  2.6034  1.1445
  206MOL0     H27748   9.619   7.201   3.545 -2.0578 -0.3940 -1.0317
  206MOL0     H27749   9.486   7.068   3.381 -0.3327  0.6223 -0.4227
  206MOL0     H27750   9.520   6.924   3.478  1.0509  1.7746 -1.3564
  206MOL0     H27751   9.396   7.056   3.663  2.1465  1.4152  0.0100
  206MOL0     H27752   9.375   7.187   3.544 -0.8967  0.6194 -1.8125
  206MOL0     H27753   9.169   7.080   3.549 -0.6326  1.3385 -2.2031
  206MOL0     H27754   9.247   7.060   3.402 -1.3536  2.9395  1.0769
  206MOL0     H27755   9.310   6.809   3.492  1.3097  2.2063  0.3068
  206MOL0     H27756   9.204   6.844   3.625  1.2376  0.7274  0.1956
  206MOL0     H27757   9.015   6.871   3.476  0.4219 -0.6977  3.8023
  206MOL0     H27758   9.122   6.854   3.326 -0.0175 -0.0919  0.4071
  206MOL0     H27759   9.085   6.641   3.536  0.1572  0.2488 -0.6788
  206MOL0     H27760   9.188   6.641   3.390 -1.2884 -1.7634 -0.2733
  206MOL0     H27761   8.814   6.694   3.507 -0.1542 -1.0249  0.6668
  206MOL0     H27762   8.562   6.650   3.390  0.8527 -0.5217  1.3082
  206MOL0     H27763   8.570   6.555   3.238 -0.3184  3.1362 -2.0458
  206MOL0     H27764   8.632   6.451   3.523  0.4720  0.0802 -0.2119
  206MOL0     H27765   8.635   6.353   3.379  0.5719  0.1131 -0.3827
  206MOL0     H27766   8.398   6.390   3.337  0.1911 -0.1064  0.8620
  206MOL0     H27767   8.394   6.489   3.493  0.6369 -1.4396  2.4186
  206MOL0     H27768   8.315   6.258   3.513  0.7610 -0.6911  1.0275
  206MOL0     H27769   8.458   6.293   3.610  0.0966  1.6068  0.0670
  206MOL0     H27770   8.636   6.050   3.277 -0.2609  0.0737  3.0914
  206MOL0     H27771   8.593   5.789   3.101  0.5454  1.6354  1.0373
  206MOL0     H27772   8.590   5.912   2.964  0.2492  0.1080 -0.3836
  206MOL0     H27773   8.690   5.931   3.109  0.0769  0.2704  2.4233
  206MOL0     H27774   7.997   6.003   2.768 -1.7627 -0.5561  1.0022
  206MOL0     H27775   7.906   5.861   2.574  1.4975 -0.4093 -1.4735
  206MOL0     H27776   7.962   5.394   2.620  0.7051  1.4311 -0.8683
  206MOL0     H27777   7.824   5.445   2.706 -0.6834  0.2066 -0.0366
  206MOL0     H27778   7.687   5.449   2.488 -0.0241 -0.8103 -0.7518
  206MOL0     H27779   7.835   5.410   2.403 -0.4781  0.1516  0.0149
  206MOL0     H27780   7.850   5.205   2.525  0.9651  1.6886  0.5985
  206MOL0     H27781   7.724   5.214   2.410 -2.2406 -3.9280  1.3620
  206MOL0     H27782   7.704   5.240   2.721 -3.2237 -0.5756  0.4638
  206MOL0     H27783   7.569   5.274   2.616  0.5356  1.3609 -0.2905
  206MOL0     H27784   7.723   5.023   2.666  0.6150  0.9200  0.4590
  206MOL0     H27785   7.609   5.029   2.525  1.5167  0.1691 -0.9444
  206MOL0     H27786   7.535   5.079   2.808  1.5495 -0.3286 -0.3965
  206MOL0     H27787   7.422   5.099   2.680 -1.6728 -1.9466  0.4533
  206MOL0     H27788   7.378   4.892   2.778  1.6106 -0.5243  1.0943
  206MOL0     H27789   7.546   4.847   2.775 -2.8448 -2.9570  0.2632
  206MOL0     H27790   7.544   4.820   2.530  0.6990  3.4238  0.2674
  206MOL0     H27791   7.398   4.910   2.527  0.7575 -0.4525  1.0029
  206MOL0     H27792   8.027   5.514   2.801 -2.4628 -0.0983  2.1110
  206MOL0     H27793   8.150   5.656   2.952  1.9866 -2.6795 -1.8716
  206MOL0     H27794   8.148   6.020   3.189  0.8427 -0.8997 -0.7599
  206MOL0     H27795   8.240   6.152   3.369 -0.9445 -0.2548 -0.8905
  206MOL0     H27796   9.946   7.029   3.277  0.1736  0.0499  0.7102
  206MOL0     H27797  10.182   6.938   3.225 -0.9559 -2.7646 -1.5858
  206MOL0     H27798  10.403   6.390   3.211  1.1183 -1.1799 -0.7352
  206MOL0     H27799  10.633   6.329   3.168 -2.0346  0.4237 -0.9524
  206MOL0     H27800  10.972   6.636   3.241 -2.1941  0.4299 -1.0461
  206MOL0     H27801  10.927   6.520   3.377  1.4869 -2.6592  0.5718
  206MOL0     H27802  11.022   6.333   3.267 -1.2173  1.2819  3.3305
  206MOL0     H27803  11.126   6.459   3.328  0.4555  0.6936 -0.1750
  206MOL0     H27804  11.163   6.537   3.083 -1.2868  0.1348  2.1115
  206MOL0     H27805  11.036   6.431   3.029  1.5216  0.1438 -0.8487
  206MOL0     H27806  11.238   6.318   2.960 -0.7826  1.0942 -0.2003
  206MOL0     H27807  11.190   6.238   3.108  1.4074  0.8702  3.7030
  206MOL0     H27808  11.549   6.443   3.235  0.0996  1.7848 -0.0869
  206MOL0     H27809  10.770   6.698   3.334 -0.7499 -0.1007  0.3355
  206MOL0     H27810  10.543   6.763   3.377 -0.0396 -0.7394  0.8675
  207MOL0     O27811   5.267   9.508   9.376  0.3049  1.0635 -0.0405
  207MOL0     C27812   5.296   9.392   9.339  0.2778  0.4186 -0.1611
  207MOL0     O27813   5.202   9.291   9.335  0.3094  0.5160 -0.1171
  207MOL0     C27814   5.078   9.319   9.375  0.8898 -0.2376 -0.1808
  207MOL0     C27815   5.034   9.279   9.498  0.8205  0.6943 -0.0449
  207MOL0     C27816   4.891   9.278   9.534 -1.3965  0.4131  0.5126
  207MOL0     C27817   4.803   9.324   9.437  0.8845 -0.6566  0.5262
  207MOL0     O27818   4.664   9.341   9.454  0.3322 -0.2050  0.9163
  207MOL0     C27819   4.607   9.309   9.577 -0.5130 -0.8077 -0.4674
  207MOL0     C27820   4.459   9.309   9.548 -0.1502  0.0986 -0.3120
  207MOL0     C27821   4.369   9.244   9.651 -0.5204 -0.8119 -0.1819
  207MOL0     C27822   4.370   9.307   9.794 -1.0214  0.4493  0.2169
  207MOL0     C27823   4.239   9.268   9.879  0.2942 -0.1066 -0.0628
  207MOL0     C27824   4.251   9.339  10.012  0.1781 -0.7989  1.0826
  207MOL0     C27825   4.376   9.300  10.105  0.6391 -0.1101  0.2511
  207MOL0     C27826   4.379   9.389  10.227 -0.0612 -0.0576 -0.9953
  207MOL0     N27827   4.296   9.334  10.335 -0.2844  0.3577  0.1405
  207MOL0     C27828   4.161   9.345  10.354  0.0161 -0.3001  0.3587
  207MOL0     C27829   4.129   9.251  10.446 -0.1920  0.5117 -0.8719
  207MOL0     C27830   3.994   9.220  10.492  0.6334  0.8508  0.8992
  207MOL0     C27831   3.987   9.128  10.609  0.5759  0.1331  0.2273
  207MOL0     C27832   3.841   9.113  10.652  0.2796 -0.6901  0.8272
  207MOL0     C27833   3.750   9.062  10.544  0.2783 -0.5847 -0.0345
  207MOL0     O27834   3.719   9.155  10.442 -0.5719 -0.2496 -0.1488
  207MOL0     C27835   3.589   9.153  10.394 -0.2996 -0.1422 -0.2217
  207MOL0     C27836   3.544   9.273  10.340 -0.5646 -0.9186 -0.0361
  207MOL0     C27837   3.425   9.288  10.274  0.4577 -0.7293  0.0364
  207MOL0     C27838   3.395   9.423  10.212 -0.9247  0.3497  0.1449
  207MOL0     C27839   3.338   9.175  10.247  0.2072  0.5705  0.2563
  207MOL0     C27840   3.208   9.174  10.178  0.1441 -0.3431 -0.1121
  207MOL0     O27841   3.147   9.049  10.173  0.4391  0.4239  0.6354
  207MOL0     C27842   3.030   9.032  10.101  0.6702 -0.4112 -0.0036
  207MOL0     C27843   2.994   8.897  10.095 -0.6715  0.1129 -0.4510
  207MOL0     C27844   2.872   8.861  10.031 -0.6067  0.6115  1.3644
  207MOL0     C27845   2.790   8.958   9.967 -0.0363  0.1081  0.2032
  207MOL0     O27846   2.673   8.904   9.918 -0.1970 -0.5652 -0.6701
  207MOL0     C27847   2.571   8.994   9.864  0.1743 -0.5127  0.4416
  207MOL0     C27848   2.475   8.909   9.774  0.0516  0.0424 -0.6675
  207MOL0     C27849   2.346   8.987   9.777  0.3442 -0.0367 -0.5518
  207MOL0     C27850   2.238   8.905   9.699  0.3497 -0.6673  0.1769
  207MOL0     C27851   2.100   8.960   9.686 -0.2791 -0.1897  0.1840
  207MOL0     C27852   2.014   8.846   9.638  0.7285 -0.0779 -0.3625
  207MOL0     C27853   1.881   8.904   9.581  0.3366  0.0211 -0.0320
  207MOL0     C27854   1.833   8.833   9.459 -1.1168  0.0794  0.4944
  207MOL0    Cl27855   1.919   8.877   9.303 -0.1274  0.1358  0.2735
  207MOL0     C27856   2.835   9.086   9.967  0.5348 -0.3333 -0.3310
  207MOL0     C27857   2.948   9.126  10.036 -0.1991  0.7802 -1.1518
  207MOL0     O27858   3.156   9.279  10.147 -0.3961  0.0612 -0.4314
  207MOL0     C27859   3.387   9.049  10.296 -0.2681  0.2471  0.1561
  207MOL0     C27860   3.513   9.039  10.369  1.0991  0.3210  0.2470
  207MOL0     N27861   4.242   9.173  10.462 -0.4036 -0.0116 -0.4326
  207MOL0     N27862   4.340   9.228  10.403 -0.1675  0.2142  0.9370
  207MOL0     C27863   4.849   9.376   9.310 -0.3465 -0.0941 -1.5678
  207MOL0     C27864   4.985   9.376   9.290 -0.3340  0.3175 -0.1939
  207MOL0     C27865   5.434   9.362   9.308 -0.7942  0.8008 -0.0881
  207MOL0     C27866   5.546   9.447   9.323  0.0172 -0.3141 -0.9431
  207MOL0     C27867   5.680   9.412   9.294 -1.0945 -0.0516  0.4036
  207MOL0     C27868   5.706   9.284   9.240  0.1684 -0.1436 -0.1753
  207MOL0     O27869   5.818   9.231   9.183  0.1113 -0.2309 -0.4311
  207MOL0     C27870   5.947   9.298   9.189 -0.0278  0.0045 -0.4070
  207MOL0     C27871   6.010   9.261   9.329 -0.4566  0.1550 -0.1511
  207MOL0     C27872   6.152   9.315   9.343  0.1531  0.1404  0.4567
  207MOL0     C27873   6.243   9.217   9.406 -0.4915  0.9041 -0.5916
  207MOL0     C27874   6.380   9.263   9.395  0.0391 -0.3530 -0.2969
  207MOL0     C27875   6.492   9.312   9.387  0.8633  0.1169  0.2521
  207MOL0     C27876   5.598   9.199   9.231 -0.3205  0.8680  0.1594
  207MOL0     C27877   5.473   9.228   9.263 -0.0721 -0.3977  0.2163
  207MOL0     H27878   5.103   9.246   9.576 -0.5348  0.2151  1.0008
  207MOL0     H27879   4.856   9.237   9.628 -0.9133  1.1259  1.0202
  207MOL0     H27880   4.637   9.214   9.621  2.9153  1.1351  1.8462
  207MOL0     H27881   4.617   9.387   9.654 -1.3864 -1.0941 -0.0393
  207MOL0     H27882   4.425   9.413   9.547 -0.6518 -0.0225  1.3650
  207MOL0     H27883   4.439   9.255   9.455  0.8879 -2.5735  0.8987
  207MOL0     H27884   4.268   9.245   9.610  0.0106 -0.7781 -1.5689
  207MOL0     H27885   4.393   9.138   9.661  0.5322 -0.5265  0.4702
  207MOL0     H27886   4.466   9.282   9.839 -1.2044  0.5005  0.6329
  207MOL0     H27887   4.372   9.416   9.781 -1.5702  0.4776  0.3490
  207MOL0     H27888   4.148   9.294   9.825  0.5172 -2.1969 -1.5532
  207MOL0     H27889   4.236   9.162   9.907 -2.4714 -0.2842 -0.7860
  207MOL0     H27890   4.247   9.445   9.988  2.5283 -1.0609 -0.8454
  207MOL0     H27891   4.165   9.301  10.068 -0.2758 -0.2078  0.7871
  207MOL0     H27892   4.367   9.197  10.143  4.3884  0.1106  2.1902
  207MOL0     H27893   4.464   9.304  10.039 -0.0947 -0.7649 -0.7937
  207MOL0     H27894   4.327   9.482  10.201 -0.3101 -0.1252 -0.7402
  207MOL0     H27895   4.474   9.413  10.275 -0.8495 -1.4780  1.4727
  207MOL0     H27896   4.087   9.412  10.313  0.8253  0.3434 -0.0647
  207MOL0     H27897   3.940   9.312  10.517 -3.0945 -0.8330 -0.2692
  207MOL0     H27898   3.942   9.170  10.410  1.7173 -2.4917  2.1028
  207MOL0     H27899   4.055   9.169  10.684  1.1841 -0.2422 -0.1155
  207MOL0     H27900   4.027   9.028  10.590 -2.9387 -1.2166 -1.0746
  207MOL0     H27901   3.810   9.212  10.685 -0.3529 -1.2197  1.8659
  207MOL0     H27902   3.833   9.051  10.742 -1.6151  2.2136  2.8226
  207MOL0     H27903   3.657   9.022  10.587  0.0916  0.7167  0.8191
  207MOL0     H27904   3.800   8.980  10.491 -3.1906 -0.7162 -3.5510
  207MOL0     H27905   3.610   9.360  10.345 -4.6050  2.4489  0.7945
  207MOL0     H27906   3.389   9.413  10.103  2.2634 -2.1511  0.0484
  207MOL0     H27907   3.311   9.472  10.261 -0.3229  0.9741  0.5818
  207MOL0     H27908   3.486   9.483  10.221 -1.0793  0.4006  1.5469
  207MOL0     H27909   3.050   8.814  10.137  1.6520  1.2896 -1.0831
  207MOL0     H27910   2.859   8.753  10.025  4.4190 -0.1564 -2.4069
  207MOL0     H27911   2.515   9.044   9.944 -1.4194 -0.1036 -0.8863
  207MOL0     H27912   2.610   9.073   9.799  1.0631 -2.4412 -1.4991
  207MOL0     H27913   2.514   8.896   9.672  0.1613  0.1668 -0.6428
  207MOL0     H27914   2.466   8.809   9.817 -2.6225  0.3747 -0.2967
  207MOL0     H27915   2.371   9.080   9.725  0.4028  2.5035  3.5406
  207MOL0     H27916   2.313   9.011   9.879  1.2766 -0.6030 -0.1062
  207MOL0     H27917   2.272   8.901   9.595 -0.8465  3.2795 -0.5500
  207MOL0     H27918   2.241   8.804   9.740  3.1053 -1.1027 -0.8924
  207MOL0     H27919   2.099   9.049   9.623  0.3515  0.4006  0.9817
  207MOL0     H27920   2.071   9.004   9.782 -4.0331 -0.6176 -0.5995
  207MOL0     H27921   2.059   8.800   9.549 -0.4090 -1.2655 -0.3526
  207MOL0     H27922   1.996   8.768   9.712  2.7866 -0.6282 -0.3667
  207MOL0     H27923   1.885   9.011   9.557 -0.3740  0.0731  0.0601
  207MOL0     H27924   1.804   8.880   9.655  2.4814 -1.5550  1.8257
  207MOL0     H27925   1.726   8.845   9.437 -1.4337 -0.1385  1.8509
  207MOL0     H27926   1.838   8.727   9.484 -1.5470  0.3078  1.6288
  207MOL0     H27927   2.773   9.161   9.920  0.3164 -0.4790 -0.2772
  207MOL0     H27928   2.963   9.233  10.041  0.6526  0.6781 -1.4507
  207MOL0     H27929   3.326   8.959  10.294  0.6675 -0.4949  2.1578
  207MOL0     H27930   3.564   8.948  10.398  0.3818  0.1000  0.8578
  207MOL0     H27931   4.784   9.415   9.232 -0.5211  1.0795 -0.8586
  207MOL0     H27932   5.033   9.411   9.199 -0.3579 -0.1282 -0.3819
  207MOL0     H27933   5.526   9.550   9.353 -3.2008 -1.5786  2.0971
  207MOL0     H27934   5.753   9.491   9.302 -1.4066  0.1425  1.4664
  207MOL0     H27935   6.011   9.268   9.106 -0.0963 -2.0656  0.2349
  207MOL0     H27936   5.936   9.407   9.181 -2.0597 -0.2980 -3.0961
  207MOL0     H27937   6.007   9.153   9.350 -3.6662  0.2118  0.1052
  207MOL0     H27938   5.952   9.305   9.410  1.6127 -1.7214  2.5199
  207MOL0     H27939   6.155   9.410   9.397 -0.4534  0.5994 -0.3046
  207MOL0     H27940   6.191   9.338   9.244  1.1415  0.8128  0.9832
  207MOL0     H27941   6.232   9.120   9.355  3.4819 -0.6473  1.0739
  207MOL0     H27942   6.220   9.192   9.510  0.1289 -0.1333 -0.6843
  207MOL0     H27943   6.589   9.349   9.357  0.4254 -0.1027 -1.5236
  207MOL0     H27944   5.628   9.100   9.198  1.7105  0.4765  2.8402
  207MOL0     H27945   5.404   9.145   9.255 -0.4522  0.0997 -2.1310
  208MOL0     O27946  10.876   3.604   3.950  0.3407  0.0586  0.4384
  208MOL0     C27947  10.908   3.502   4.013 -0.4090 -0.0354  0.2879
  208MOL0     O27948  10.822   3.415   4.078  0.3713 -0.1609  0.2544
  208MOL0     C27949  10.688   3.447   4.085 -0.0671  0.4276  0.5629
  208MOL0     C27950  10.599   3.421   3.981  0.0225 -0.3939  0.4077
  208MOL0     C27951  10.471   3.476   3.981  0.1580 -0.4305 -0.6422
  208MOL0     C27952  10.427   3.559   4.078  0.7197  0.8225 -0.7984
  208MOL0     O27953  10.308   3.624   4.057  0.8169 -0.2905 -0.2617
  208MOL0     C27954  10.210   3.634   4.161  0.6938 -0.1745 -0.2969
  208MOL0     C27955  10.123   3.749   4.111  0.6301 -0.2497 -0.3353
  208MOL0     C27956  10.014   3.794   4.207  0.2985  0.6371  0.3765
  208MOL0     C27957   9.895   3.858   4.145 -0.6849 -0.5033 -0.4351
  208MOL0     C27958   9.786   3.879   4.240 -0.2335 -0.6452 -0.6743
  208MOL0     C27959   9.718   3.743   4.276  0.3215  0.1747  0.2723
  208MOL0     C27960   9.575   3.762   4.337 -0.6484 -1.4783  0.4590
  208MOL0     C27961   9.511   3.623   4.354 -0.7051  0.7947  0.5222
  208MOL0     N27962   9.386   3.633   4.432 -0.0805  0.1168 -0.3646
  208MOL0     C27963   9.346   3.526   4.508  0.8291 -0.2513  0.3970
  208MOL0     C27964   9.229   3.565   4.568 -0.4040 -0.1347  0.4432
  208MOL0     C27965   9.161   3.491   4.680  0.2287  0.4210  1.0813
  208MOL0     C27966   9.256   3.463   4.808  0.3731  0.2938  0.3589
  208MOL0     C27967   9.192   3.377   4.924  0.5147 -0.2569  0.9221
  208MOL0     C27968   9.062   3.436   4.975 -0.1178 -0.4018  1.4809
  208MOL0     O27969   8.955   3.343   4.948 -0.7041 -0.3050  0.0753
  208MOL0     C27970   8.826   3.396   4.972  0.0524  0.2095 -0.1586
  208MOL0     C27971   8.719   3.319   4.933 -0.4049 -0.7684 -0.0314
  208MOL0     C27972   8.586   3.350   4.955  0.1654 -0.4447 -0.2460
  208MOL0     C27973   8.488   3.237   4.915 -0.5820  0.1766  0.4291
  208MOL0     C27974   8.555   3.469   5.016 -0.0684  0.6602 -0.2658
  208MOL0     C27975   8.417   3.508   5.065 -0.6707 -0.2628 -0.3129
  208MOL0     O27976   8.402   3.578   5.185  0.1207 -0.0830  0.9656
  208MOL0     C27977   8.273   3.599   5.229 -0.3771  0.8914  0.0317
  208MOL0     C27978   8.204   3.484   5.259 -0.2911 -0.5401  0.4717
  208MOL0     C27979   8.077   3.504   5.300  0.1848 -0.3472 -0.3629
  208MOL0     C27980   8.019   3.643   5.322  0.3142  0.3517 -0.4671
  208MOL0     O27981   7.895   3.667   5.380  0.2347 -0.1751 -0.1663
  208MOL0     C27982   7.817   3.560   5.441  0.3132  0.0889 -0.2451
  208MOL0     C27983   7.688   3.631   5.503 -0.0309  0.4576  0.1613
  208MOL0     C27984   7.586   3.662   5.391  1.5869 -0.5232  0.4318
  208MOL0     C27985   7.475   3.756   5.448 -0.0720 -0.3108 -1.1766
  208MOL0     C27986   7.370   3.765   5.342 -0.4904 -0.3871  0.3367
  208MOL0     C27987   7.241   3.837   5.385  1.0623  0.5059 -0.1130
  208MOL0     C27988   7.119   3.799   5.294  0.5746  0.7281  0.2217
  208MOL0     C27989   6.992   3.893   5.309  0.0211 -0.4133  0.0719
  208MOL0    Cl27990   6.847   3.868   5.203 -0.2426  0.1999  0.2740
  208MOL0     C27991   8.096   3.749   5.284 -0.3792 -0.4294 -0.9505
  208MOL0     C27992   8.216   3.729   5.233 -0.1024 -0.1203 -0.6294
  208MOL0     O27993   8.328   3.481   4.988  0.3195 -0.4357 -0.1764
  208MOL0     C27994   8.658   3.552   5.051  0.4466 -0.1740  0.5420
  208MOL0     C27995   8.791   3.523   5.023  0.1204 -0.6070  0.3138
  208MOL0     N27996   9.197   3.695   4.520  0.9415  0.3315 -0.3651
  208MOL0     N27997   9.295   3.729   4.444 -0.0318  0.4902  0.0280
  208MOL0     C27998  10.515   3.593   4.180 -0.0841  0.0051 -0.1307
  208MOL0     C27999  10.644   3.532   4.195  0.2012 -0.1071  0.1576
  208MOL0     C28000  11.051   3.463   4.007  0.7888 -0.3575  0.2087
  208MOL0     C28001  11.081   3.339   4.044  0.4957  0.3810  0.1466
  208MOL0     C28002  11.207   3.285   4.025 -0.3623  1.1054  0.3095
  208MOL0     C28003  11.307   3.372   3.968 -1.0659  0.3021 -0.8908
  208MOL0     O28004  11.432   3.321   3.946  0.2047 -0.0161 -0.5494
  208MOL0     C28005  11.515   3.392   3.849 -0.2645  0.3400 -0.1944
  208MOL0     C28006  11.639   3.308   3.840 -0.3717 -0.2084 -0.1427
  208MOL0     C28007  11.732   3.359   3.737  0.3079  0.6623 -0.2135
  208MOL0     C28008  11.863   3.275   3.737  0.2467 -0.2133  0.7878
  208MOL0     C28009  11.930   3.308   3.608 -0.6952 -0.9004  0.2142
  208MOL0     C28010  11.979   3.334   3.494  0.1299  0.1034 -0.0568
  208MOL0     C28011  11.270   3.499   3.924 -0.4883  0.0658  0.6926
  208MOL0     C28012  11.147   3.546   3.956  0.3191 -0.3220  0.3561
  208MOL0     H28013  10.613   3.352   3.899 -0.6214  2.8839 -2.6820
  208MOL0     H28014  10.403   3.463   3.897 -0.2405  2.3486 -0.8437
  208MOL0     H28015  10.145   3.547   4.176  1.4755 -0.5595  0.9986
  208MOL0     H28016  10.250   3.659   4.259  0.3171  0.8831 -0.3917
  208MOL0     H28017  10.179   3.843   4.110 -1.3000  1.1434  3.6001
  208MOL0     H28018  10.096   3.731   4.006 -1.0448  1.6926 -0.2916
  208MOL0     H28019   9.987   3.700   4.255  2.8205 -0.3078  0.1173
  208MOL0     H28020  10.057   3.859   4.285 -1.7993  0.3212  1.8760
  208MOL0     H28021   9.941   3.954   4.123  0.3594 -0.2481  2.4549
  208MOL0     H28022   9.858   3.796   4.063  2.0333 -2.6506 -0.1849
  208MOL0     H28023   9.817   3.929   4.332 -1.5947  1.6847 -1.3882
  208MOL0     H28024   9.715   3.949   4.193  0.7191  0.9353  0.1584
  208MOL0     H28025   9.706   3.679   4.189  0.7975 -1.8131  1.5967
  208MOL0     H28026   9.775   3.685   4.349  0.5149 -0.7244 -0.5857
  208MOL0     H28027   9.593   3.817   4.430 -0.2542  0.8890 -0.9156
  208MOL0     H28028   9.510   3.821   4.271  1.7025  0.7699 -0.0208
  208MOL0     H28029   9.575   3.556   4.411 -1.4120 -0.6395 -0.3054
  208MOL0     H28030   9.486   3.588   4.253  0.2657  1.7403 -0.0643
  208MOL0     H28031   9.391   3.432   4.537 -5.0718 -2.8434  2.7280
  208MOL0     H28032   9.079   3.553   4.717  0.4414  0.6449  1.1830
  208MOL0     H28033   9.122   3.393   4.650  1.8353 -0.1668  0.7952
  208MOL0     H28034   9.281   3.564   4.843  2.1633  0.6640 -1.7405
  208MOL0     H28035   9.347   3.414   4.771  0.0991 -1.2660  1.6922
  208MOL0     H28036   9.269   3.369   5.001  2.1859  1.9874 -0.3864
  208MOL0     H28037   9.166   3.275   4.893 -3.4430  0.8252  0.2321
  208MOL0     H28038   9.043   3.535   4.934  2.4427 -0.6628 -0.5702
  208MOL0     H28039   9.065   3.445   5.084 -2.9655 -1.3915  1.7176
  208MOL0     H28040   8.754   3.233   4.878 -0.0447 -0.6553  0.0200
  208MOL0     H28041   8.513   3.133   4.933 -0.1391  0.1594 -0.2374
  208MOL0     H28042   8.399   3.235   4.979 -1.1412 -2.0662 -0.3344
  208MOL0     H28043   8.472   3.252   4.807  1.9446  0.5115  0.0507
  208MOL0     H28044   8.237   3.381   5.250 -0.5784 -0.9182  3.0340
  208MOL0     H28045   8.019   3.414   5.321  1.5245 -0.9634  0.8649
  208MOL0     H28046   7.783   3.482   5.372  2.6119 -1.2427  0.0432
  208MOL0     H28047   7.884   3.519   5.516 -0.3844 -0.3603  0.1490
  208MOL0     H28048   7.643   3.573   5.583 -3.0255  0.5517 -1.3351
  208MOL0     H28049   7.712   3.725   5.555 -0.7220 -0.2560  1.8262
  208MOL0     H28050   7.549   3.565   5.358 -1.7503  0.6926  0.2128
  208MOL0     H28051   7.628   3.718   5.307 -1.1383  0.1978 -0.5528
  208MOL0     H28052   7.439   3.711   5.541  1.7025 -1.9616 -1.2389
  208MOL0     H28053   7.524   3.850   5.476  2.1770 -1.4783 -0.9978
  208MOL0     H28054   7.339   3.666   5.308  1.7418 -1.3652  0.9647
  208MOL0     H28055   7.416   3.815   5.256  0.0453 -0.8628  0.3410
  208MOL0     H28056   7.223   3.821   5.491  0.4348  2.7027  0.1649
  208MOL0     H28057   7.256   3.945   5.384  1.5952  0.4303 -0.3271
  208MOL0     H28058   7.090   3.696   5.315 -0.0179  0.6113 -1.0898
  208MOL0     H28059   7.151   3.790   5.190 -2.7164  0.5150 -0.8848
  208MOL0     H28060   7.023   3.996   5.287 -1.9348  0.0830 -0.5763
  208MOL0     H28061   6.966   3.884   5.414  0.6677 -2.8683  0.0935
  208MOL0     H28062   8.058   3.851   5.287 -2.6577 -1.2330  1.4627
  208MOL0     H28063   8.278   3.803   5.184  1.7573 -2.1830 -1.6040
  208MOL0     H28064   8.630   3.646   5.097 -1.0908 -0.1515 -0.3759
  208MOL0     H28065   8.864   3.599   5.047 -0.2666 -0.7377  1.9962
  208MOL0     H28066  10.486   3.670   4.251  3.3618  1.1691  0.1553
  208MOL0     H28067  10.707   3.559   4.279  0.8419  4.4143 -1.4906
  208MOL0     H28068  11.008   3.270   4.083  1.0400  0.3401  1.1399
  208MOL0     H28069  11.229   3.181   4.042 -2.3493  0.6019  0.0710
  208MOL0     H28070  11.473   3.385   3.748  1.0486  0.2123 -0.7524
  208MOL0     H28071  11.536   3.495   3.880  0.6611  0.0341  0.2148
  208MOL0     H28072  11.592   3.216   3.803 -0.2297 -0.0028 -0.8481
  208MOL0     H28073  11.686   3.283   3.936 -3.4981 -3.3915  0.7957
  208MOL0     H28074  11.758   3.462   3.764 -0.8216  0.9999 -0.3463
  208MOL0     H28075  11.689   3.347   3.637 -1.2235 -1.6920  0.6460
  208MOL0     H28076  11.834   3.170   3.742 -0.1277 -0.1077  0.8334
  208MOL0     H28077  11.932   3.303   3.817  2.6202  1.9202 -1.7929
  208MOL0     H28078  12.007   3.347   3.392 -1.9629 -0.7123 -0.7961
  208MOL0     H28079  11.331   3.562   3.859  1.3899 -0.8838  1.4713
  208MOL0     H28080  11.110   3.641   3.921 -3.0033 -1.1301  1.3482
  209MOL0     O28081   3.472   3.522   9.575 -0.5463 -0.4874  0.2815
  209MOL0     C28082   3.453   3.628   9.508  0.7726  0.5355 -0.5008
  209MOL0     O28083   3.335   3.680   9.464  0.2435 -0.3387  0.1832
  209MOL0     C28084   3.218   3.620   9.492 -0.0091 -0.1318 -0.2018
  209MOL0     C28085   3.189   3.484   9.499 -0.0850  1.1149  0.6393
  209MOL0     C28086   3.064   3.428   9.515 -0.9076 -1.0851  1.3418
  209MOL0     C28087   2.958   3.515   9.541 -0.3620  0.3587 -0.5441
  209MOL0     O28088   2.841   3.453   9.564  0.6412 -0.1338  0.4736
  209MOL0     C28089   2.725   3.536   9.607  0.2381 -0.1495 -0.7334
  209MOL0     C28090   2.620   3.453   9.682 -0.0491  0.4254 -0.0158
  209MOL0     C28091   2.502   3.535   9.716  0.1149 -1.0839  0.3551
  209MOL0     C28092   2.400   3.462   9.799  0.4718  0.1009 -0.3023
  209MOL0     C28093   2.277   3.549   9.825  0.4718 -0.1503  0.6507
  209MOL0     C28094   2.172   3.468   9.897  0.2897  0.0409  0.3633
  209MOL0     C28095   2.035   3.534   9.898 -0.3620 -0.4268 -0.1960
  209MOL0     C28096   1.989   3.612  10.022 -0.4015  1.0902 -0.4931
  209MOL0     N28097   1.963   3.525  10.140 -0.2427 -0.0636 -0.7863
  209MOL0     C28098   1.893   3.408  10.137  1.0455  0.2916  0.2923
  209MOL0     C28099   1.873   3.391  10.267 -0.2544  0.9369  0.3721
  209MOL0     C28100   1.776   3.300  10.320 -0.1400  0.2386 -0.9343
  209MOL0     C28101   1.641   3.378  10.308 -0.3063 -0.4277  0.7672
  209MOL0     C28102   1.531   3.279  10.356 -0.0007 -0.0007  0.5417
  209MOL0     C28103   1.492   3.174  10.263  1.3372 -0.8043  0.8531
  209MOL0     O28104   1.415   3.230  10.159 -0.0580  0.3834 -0.1608
  209MOL0     C28105   1.275   3.220  10.167 -0.4500 -0.0732  0.3548
  209MOL0     C28106   1.211   3.181  10.051 -0.0413  0.4338 -0.0568
  209MOL0     C28107   1.074   3.166  10.034 -0.1257 -0.0571  0.2775
  209MOL0     C28108   1.020   3.142   9.898  0.9421 -0.9621  0.5827
  209MOL0     C28109   0.996   3.167  10.146 -0.3554 -0.2958  0.0936
  209MOL0     C28110   0.849   3.133  10.160  0.1204 -0.3982 -0.4161
  209MOL0     O28111   0.773   3.174  10.272 -0.0067 -0.3460 -0.3738
  209MOL0     C28112   0.636   3.152  10.293  0.5181 -0.0648 -0.2651
  209MOL0     C28113   0.587   3.163  10.427  0.0150  0.3960 -1.1912
  209MOL0     C28114   0.452   3.145  10.447  0.4759 -0.4401  0.0095
  209MOL0     C28115   0.363   3.111  10.343  0.5514 -0.1908  0.7184
  209MOL0     O28116   0.231   3.091  10.381 -0.7244  0.4349  0.4343
  209MOL0     C28117   0.135   3.038  10.292  0.8972 -0.2628 -0.1532
  209MOL0     C28118  -0.006   3.023  10.343  0.3616  0.5323 -0.0667
  209MOL0     C28119  -0.040   2.947  10.476  0.3316  0.1799  0.1925
  209MOL0     C28120  -0.048   2.795  10.446  0.2941 -0.3053  0.6422
  209MOL0     C28121  -0.067   2.708  10.577  0.5318 -0.7047  0.5688
  209MOL0     C28122  -0.181   2.750  10.669  0.4390 -0.6130  0.4895
  209MOL0     C28123  -0.221   2.637  10.766  0.0743 -0.3570  0.2838
  209MOL0     C28124  -0.381   2.648  10.811  0.2250  0.2580  0.2292
  209MOL0    Cl28125  -0.430   2.820  10.847 -0.2616  0.1022  0.0018
  209MOL0     C28126   0.412   3.103  10.218  0.4811 -0.1390  0.5584
  209MOL0     C28127   0.551   3.123  10.194 -0.0657  0.4331 -0.4356
  209MOL0     O28128   0.799   3.070  10.069  0.2628  0.5213 -0.3144
  209MOL0     C28129   1.058   3.215  10.265 -0.0016 -0.0196 -0.3584
  209MOL0     C28130   1.193   3.238  10.279  0.1199 -0.7690 -0.2857
  209MOL0     N28131   1.945   3.478  10.348  0.8703  0.3266  0.9079
  209MOL0     N28132   2.001   3.558  10.266  0.1977  0.1638 -0.1549
  209MOL0     C28133   2.981   3.657   9.536  0.5919 -0.8500  0.4119
  209MOL0     C28134   3.113   3.707   9.523 -0.7144  0.5423 -0.9574
  209MOL0     C28135   3.574   3.696   9.452  0.4971 -0.2262  0.3243
  209MOL0     C28136   3.574   3.819   9.391 -0.0199 -0.5785 -0.5519
  209MOL0     C28137   3.693   3.876   9.347 -0.7563 -0.7713 -0.1401
  209MOL0     C28138   3.817   3.809   9.354 -0.2667  0.3100 -0.3476
  209MOL0     O28139   3.928   3.878   9.308  0.4024  0.0757 -0.1170
  209MOL0     C28140   4.060   3.802   9.307  0.4843 -0.9418 -0.7509
  209MOL0     C28141   4.170   3.901   9.293 -0.4384 -0.5183 -0.0158
  209MOL0     C28142   4.178   3.983   9.424 -0.0558  0.0283 -0.7360
  209MOL0     C28143   4.274   4.099   9.407 -0.1020 -0.7498 -0.3062
  209MOL0     C28144   4.411   4.085   9.352  0.8077 -0.8267  0.1803
  209MOL0     C28145   4.523   4.067   9.315 -0.0401 -0.2603 -0.9314
  209MOL0     C28146   3.811   3.680   9.409 -0.1776 -1.2096  0.0040
  209MOL0     C28147   3.696   3.627   9.451 -0.1947 -0.4385  0.8231
  209MOL0     H28148   3.264   3.408   9.480 -0.9591  0.8632 -2.2659
  209MOL0     H28149   3.046   3.322   9.527 -2.0021 -1.2191 -0.9301
  209MOL0     H28150   2.767   3.615   9.671  0.7967 -1.2312  0.2789
  209MOL0     H28151   2.677   3.581   9.520 -0.3436  3.9738  1.4877
  209MOL0     H28152   2.596   3.366   9.621  3.0562 -1.3424  1.0829
  209MOL0     H28153   2.660   3.417   9.778 -2.3865 -0.7072  0.6177
  209MOL0     H28154   2.542   3.621   9.770 -1.0216 -1.4959  1.9263
  209MOL0     H28155   2.448   3.575   9.629  0.5377 -0.9582  0.1492
  209MOL0     H28156   2.372   3.375   9.740  1.4364  0.6082 -1.5634
  209MOL0     H28157   2.439   3.433   9.898  0.8763 -0.2948 -0.5749
  209MOL0     H28158   2.311   3.627   9.894 -0.8252 -0.3693  1.5706
  209MOL0     H28159   2.238   3.584   9.730 -3.7265 -2.9447  1.0939
  209MOL0     H28160   2.166   3.375   9.838  3.2347  0.3211 -0.5485
  209MOL0     H28161   2.191   3.445  10.003  1.2769  0.5188  0.2990
  209MOL0     H28162   2.023   3.608   9.818 -2.7554  1.4016  1.7156
  209MOL0     H28163   1.957   3.461   9.873 -0.0868 -0.5246 -0.7814
  209MOL0     H28164   1.893   3.663  10.010 -0.8017  0.2654 -0.8224
  209MOL0     H28165   2.058   3.694  10.046  0.2737  0.2886  0.4131
  209MOL0     H28166   1.830   3.371  10.057  0.9930 -0.8224  0.8257
  209MOL0     H28167   1.783   3.205  10.267 -0.2440 -0.6246  0.5327
  209MOL0     H28168   1.796   3.288  10.427 -2.1540  0.2595 -0.5207
  209MOL0     H28169   1.624   3.414  10.207 -1.2100  0.2173  1.1414
  209MOL0     H28170   1.642   3.470  10.368 -1.3573  0.8091 -1.0432
  209MOL0     H28171   1.437   3.333  10.370 -1.0302 -0.8253 -2.4925
  209MOL0     H28172   1.556   3.239  10.455 -0.7475  0.6304  1.0019
  209MOL0     H28173   1.430   3.110  10.326  0.2094  1.6292  2.3426
  209MOL0     H28174   1.582   3.126  10.225  1.1877  0.3952 -1.1859
  209MOL0     H28175   1.278   3.161   9.967 -0.7396 -1.7426 -0.1544
  209MOL0     H28176   0.983   3.039   9.897 -3.2136  0.3531  0.0808
  209MOL0     H28177   0.948   3.216   9.862  2.7397 -0.4318 -2.1805
  209MOL0     H28178   1.099   3.151   9.823  0.6292  1.0420  0.4346
  209MOL0     H28179   0.644   3.195  10.514 -1.3426  1.2308 -0.5707
  209MOL0     H28180   0.405   3.157  10.544  2.0283  0.4091  0.7016
  209MOL0     H28181   0.129   3.112  10.211 -1.9641  0.0281  0.2204
  209MOL0     H28182   0.170   2.944  10.248  1.0015  0.4688 -1.7168
  209MOL0     H28183  -0.052   3.120  10.369 -2.2118 -0.0644 -1.9885
  209MOL0     H28184  -0.059   2.978  10.259  1.0843  1.0400 -0.8138
  209MOL0     H28185  -0.140   2.973  10.513 -0.1412  1.2925 -1.7304
  209MOL0     H28186   0.029   2.983  10.553 -0.0001 -1.2414  1.2025
  209MOL0     H28187  -0.135   2.789  10.380 -0.1597  1.0630  1.0814
  209MOL0     H28188   0.035   2.762  10.382  0.0735  0.7680 -0.2437
  209MOL0     H28189   0.019   2.696  10.643  1.7441  1.2459 -0.5882
  209MOL0     H28190  -0.082   2.609  10.532 -1.6984  0.9509 -2.7071
  209MOL0     H28191  -0.157   2.844  10.718 -1.4986  0.8161 -1.1218
  209MOL0     H28192  -0.269   2.780  10.612  0.4820  1.1646  1.3029
  209MOL0     H28193  -0.157   2.637  10.855  0.5972 -0.6134 -0.0859
  209MOL0     H28194  -0.195   2.544  10.715 -2.9010  0.1386 -2.4290
  209MOL0     H28195  -0.402   2.587  10.899 -2.0642 -1.6506 -1.5234
  209MOL0     H28196  -0.450   2.618  10.733  0.8150 -0.0498 -0.1793
  209MOL0     H28197   0.343   3.100  10.135  0.6627 -1.2946  0.4431
  209MOL0     H28198   0.587   3.113  10.091  0.5129 -1.7319 -0.0706
  209MOL0     H28199   0.998   3.217  10.355 -1.3359 -1.1078 -1.1857
  209MOL0     H28200   1.228   3.273  10.375 -1.4438  1.0050 -0.3057
  209MOL0     H28201   2.908   3.738   9.537  2.9251  1.3801  1.1410
  209MOL0     H28202   3.131   3.814   9.516 -0.1593  0.6467  1.3477
  209MOL0     H28203   3.485   3.880   9.385  0.6689  0.4213 -1.0518
  209MOL0     H28204   3.697   3.971   9.295  1.1425 -0.6324  0.1792
  209MOL0     H28205   4.066   3.744   9.400 -2.2433 -1.2070 -0.6623
  209MOL0     H28206   4.067   3.736   9.220  3.4169  0.6783 -1.8734
  209MOL0     H28207   4.134   3.968   9.215 -4.1538  1.1280  2.8568
  209MOL0     H28208   4.265   3.847   9.277  0.1425  0.6369 -0.5786
  209MOL0     H28209   4.206   3.926   9.512 -0.5104  1.4074  0.3426
  209MOL0     H28210   4.082   4.033   9.444 -0.7537 -1.5968  0.1771
  209MOL0     H28211   4.279   4.143   9.507 -2.0658 -1.7013  0.2607
  209MOL0     H28212   4.223   4.174   9.345 -0.7909  0.0471  1.1745
  209MOL0     H28213   4.627   4.050   9.296  0.0776  0.8090 -1.2949
  209MOL0     H28214   3.898   3.616   9.418 -0.0489 -0.7634  2.7518
  209MOL0     H28215   3.692   3.526   9.492  1.3358  0.1117  2.4347
  210MOL0     O28216   0.535  10.155   2.785  0.0060 -0.0264  0.4241
  210MOL0     C28217   0.573  10.106   2.888  0.5157  0.0885 -0.6171
  210MOL0     O28218   0.495  10.072   2.993 -0.0673 -0.4784 -0.9161
  210MOL0     C28219   0.368  10.112   2.990 -0.0285  0.3997 -0.0795
  210MOL0     C28220   0.268  10.018   3.011 -0.2711  0.2377 -0.4248
  210MOL0     C28221   0.137  10.043   3.011  0.4970 -0.4381 -0.3292
  210MOL0     C28222   0.100  10.178   3.005  0.5387  0.3660  0.3423
  210MOL0     O28223  -0.031  10.211   3.006  0.8202 -0.4515 -0.6799
  210MOL0     C28224  -0.083  10.340   3.062 -0.2049 -0.2569  0.1819
  210MOL0     C28225  -0.238  10.330   3.073  0.1084  0.3382  0.0942
  210MOL0     C28226  -0.287  10.224   3.178 -0.2312 -0.1795 -0.5772
  210MOL0     C28227  -0.332  10.090   3.124 -0.0918 -0.1235  0.5674
  210MOL0     C28228  -0.394  10.004   3.228 -0.8072  0.7691  0.5319
  210MOL0     C28229  -0.514  10.070   3.303  0.0780 -0.4012 -0.1851
  210MOL0     C28230  -0.596   9.973   3.381  0.0687  0.0832  0.2686
  210MOL0     C28231  -0.738  10.006   3.443  0.1467 -0.0462 -0.1203
  210MOL0     N28232  -0.847   9.943   3.363  0.1184  0.0951  0.4893
  210MOL0     C28233  -0.916  10.002   3.257 -0.7814  0.1527 -0.0128
  210MOL0     C28234  -0.987   9.905   3.201 -0.7172 -0.7230  0.9559
  210MOL0     C28235  -1.070   9.918   3.083  0.2547  0.1832  0.5810
  210MOL0     C28236  -1.218   9.954   3.127  0.6765  0.6651 -0.7077
  210MOL0     C28237  -1.301   9.983   2.996 -0.7139 -0.5003  0.5903
  210MOL0     C28238  -1.448   9.972   3.004 -0.1994  0.3509 -0.3951
  210MOL0     O28239  -1.512  10.034   2.893 -0.2555  0.0454 -0.8557
  210MOL0     C28240  -1.649  10.047   2.899 -0.0035 -0.0516  1.0872
  210MOL0     C28241  -1.726  10.028   3.014  0.4170 -0.4042 -0.4883
  210MOL0     C28242  -1.864  10.052   3.017  0.1208  0.0383  0.0500
  210MOL0     C28243  -1.939  10.026   3.151 -0.6925 -0.2068 -0.2571
  210MOL0     C28244  -1.933  10.100   2.900  0.0514 -0.4713  0.2960
  210MOL0     C28245  -2.079  10.125   2.890  0.4861 -0.6910  0.0268
  210MOL0     O28246  -2.150  10.169   3.004 -0.2039  0.0828  0.0308
  210MOL0     C28247  -2.286  10.177   2.997 -0.2996 -0.2629 -0.2266
  210MOL0     C28248  -2.345  10.285   2.927  0.5778 -0.3109 -0.2657
  210MOL0     C28249  -2.486  10.299   2.917  0.2792  0.6145 -0.1996
  210MOL0     C28250  -2.564  10.203   2.981 -0.0349 -0.1022 -0.8585
  210MOL0     O28251  -2.697  10.185   2.971  0.8811  0.0577  0.4157
  210MOL0     C28252  -2.772  10.262   2.872 -0.4779 -0.1960 -0.6972
  210MOL0     C28253  -2.904  10.187   2.851  0.2497  0.0856 -0.2256
  210MOL0     C28254  -2.994  10.262   2.753  1.0226 -0.1944 -0.0399
  210MOL0     C28255  -3.141  10.208   2.764 -0.0111 -0.4416 -0.0653
  210MOL0     C28256  -3.236  10.296   2.689  0.7300  0.4280 -0.3003
  210MOL0     C28257  -3.219  10.282   2.530 -0.1888  0.0049  0.4816
  210MOL0     C28258  -3.337  10.344   2.449 -0.0998  0.9189  0.3859
  210MOL0     C28259  -3.306  10.337   2.295  0.1029 -0.0727 -0.1929
  210MOL0    Cl28260  -3.453  10.373   2.194 -0.0123 -0.3425  0.1657
  210MOL0     C28261  -2.505  10.098   3.053 -0.1751  0.1560 -0.3691
  210MOL0     C28262  -2.365  10.092   3.073 -0.2075  0.8142 -0.4771
  210MOL0     O28263  -2.131  10.079   2.787 -0.4207 -0.7875 -0.4127
  210MOL0     C28264  -1.855  10.119   2.785 -0.1096  0.1637 -0.5285
  210MOL0     C28265  -1.718  10.099   2.785  0.4670 -0.1528  0.5247
  210MOL0     N28266  -0.959   9.792   3.271 -0.4522 -0.2108 -0.1229
  210MOL0     N28267  -0.871   9.812   3.368  1.2355 -0.2302  0.3556
  210MOL0     C28268   0.200  10.277   2.995  0.7681  0.4775  0.2629
  210MOL0     C28269   0.334  10.245   2.984 -0.6662  0.3226 -0.1713
  210MOL0     C28270   0.709  10.073   2.900  0.1662 -0.9456  0.2301
  210MOL0     C28271   0.806  10.098   2.800  0.1191  0.5371 -0.0345
  210MOL0     C28272   0.940  10.064   2.811 -0.0367  0.3297 -0.2115
  210MOL0     C28273   0.985  10.006   2.926 -0.4519  0.7575  0.2681
  210MOL0     O28274   1.122   9.981   2.921 -0.4851 -0.0227  0.1665
  210MOL0     C28275   1.186   9.909   3.034  0.5534  0.2578 -0.2545
  210MOL0     C28276   1.340   9.933   3.023 -0.1270 -0.1442  0.1622
  210MOL0     C28277   1.395  10.066   3.067 -0.1784 -0.6119 -0.2386
  210MOL0     C28278   1.549  10.088   3.032  0.2117  0.0933 -0.3313
  210MOL0     C28279   1.568  10.100   2.883 -0.2723  0.3762  0.0593
  210MOL0     C28280   1.579  10.117   2.769  0.1562  0.1722  0.1977
  210MOL0     C28281   0.899   9.973   3.025 -0.5292  0.2884  0.0675
  210MOL0     C28282   0.759  10.012   3.013 -0.2161 -0.2084 -0.8182
  210MOL0     H28283   0.297   9.913   3.008 -0.1222  0.2996 -1.2481
  210MOL0     H28284   0.069   9.960   3.016  0.1123 -0.2271 -1.8778
  210MOL0     H28285  -0.045  10.369   3.161  1.2212  0.7155 -0.6132
  210MOL0     H28286  -0.057  10.420   2.992  3.1299 -0.1196  1.3976
  210MOL0     H28287  -0.275  10.428   3.106  1.2625  0.1386  2.1888
  210MOL0     H28288  -0.286  10.293   2.982 -1.3707 -0.0644  1.0183
  210MOL0     H28289  -0.199  10.202   3.239 -0.4046 -0.5617 -0.4597
  210MOL0     H28290  -0.360  10.280   3.238 -1.3507 -2.3733  0.2137
  210MOL0     H28291  -0.413  10.120   3.057 -0.5331 -1.4212  0.5005
  210MOL0     H28292  -0.253  10.036   3.072  1.1048  0.1480  2.0369
  210MOL0     H28293  -0.423   9.917   3.170 -1.1811  1.0265  0.3278
  210MOL0     H28294  -0.315   9.989   3.302  0.2066  1.6569 -0.3296
  210MOL0     H28295  -0.471  10.145   3.369 -0.4684  0.1528 -0.4495
  210MOL0     H28296  -0.578  10.129   3.236 -0.2823  1.2733  1.5502
  210MOL0     H28297  -0.605   9.884   3.319  2.0900 -0.3794  0.5629
  210MOL0     H28298  -0.533   9.937   3.463 -0.8335 -1.7713  0.2016
  210MOL0     H28299  -0.758  10.113   3.435 -1.7450 -0.3931 -0.5442
  210MOL0     H28300  -0.730   9.975   3.547  2.3131  0.8365  0.0272
  210MOL0     H28301  -0.912  10.105   3.224  1.4769  0.2061  0.2543
  210MOL0     H28302  -1.033   9.998   3.020  2.5012 -1.0511  0.2448
  210MOL0     H28303  -1.057   9.828   3.022  1.6896 -0.1899  1.3924
  210MOL0     H28304  -1.199  10.040   3.191 -0.4811  0.8039 -0.5317
  210MOL0     H28305  -1.266   9.881   3.194  0.5601 -0.4683 -1.9774
  210MOL0     H28306  -1.275   9.914   2.914 -3.3290 -0.3018 -0.5082
  210MOL0     H28307  -1.277  10.086   2.969 -3.0209  0.6176  2.5423
  210MOL0     H28308  -1.480  10.020   3.097 -3.0848 -0.0080 -1.1156
  210MOL0     H28309  -1.485   9.869   3.011  0.3832  0.2275  1.5477
  210MOL0     H28310  -1.683   9.988   3.105  0.6518  0.4022 -0.2467
  210MOL0     H28311  -1.968  10.124   3.189  1.7457 -0.4665  2.6741
  210MOL0     H28312  -2.032   9.970   3.136 -0.2146 -1.2535  0.5394
  210MOL0     H28313  -1.886   9.971   3.230  0.8052  0.9094 -0.4356
  210MOL0     H28314  -2.284  10.358   2.875  1.3696 -1.9954 -1.8007
  210MOL0     H28315  -2.531  10.378   2.858 -1.7672 -0.2919  0.0597
  210MOL0     H28316  -2.792  10.367   2.897 -0.9412 -0.8336  1.9616
  210MOL0     H28317  -2.708  10.256   2.784  0.1286  0.2378 -0.3040
  210MOL0     H28318  -2.873  10.087   2.823  1.1486  0.6703 -1.4035
  210MOL0     H28319  -2.946  10.170   2.951  0.6554 -0.7598 -0.1932
  210MOL0     H28320  -2.949  10.265   2.653 -0.7802 -1.5728 -0.9629
  210MOL0     H28321  -3.007  10.361   2.797 -0.7735 -0.7663  0.8413
  210MOL0     H28322  -3.143  10.106   2.723 -1.7455 -0.3627 -0.2629
  210MOL0     H28323  -3.169  10.198   2.869  0.1282  0.0053  0.0153
  210MOL0     H28324  -3.234  10.400   2.723 -0.8697  0.2545  0.4391
  210MOL0     H28325  -3.333  10.251   2.714  1.1349  0.9340  2.6250
  210MOL0     H28326  -3.122  10.324   2.499  0.9426 -1.2204  2.2016
  210MOL0     H28327  -3.211  10.176   2.506  2.7082 -0.3006  2.2881
  210MOL0     H28328  -3.338  10.453   2.456  0.2278  1.0545 -1.3866
  210MOL0     H28329  -3.431  10.294   2.472  0.6365 -0.9687 -0.5056
  210MOL0     H28330  -3.264  10.239   2.270 -0.2107  0.0189 -1.1119
  210MOL0     H28331  -3.228  10.404   2.260 -0.3311 -0.6261 -2.3648
  210MOL0     H28332  -2.561  10.026   3.111 -0.3464 -0.1970 -0.9724
  210MOL0     H28333  -2.313  10.011   3.122 -0.2729  0.7180 -0.5647
  210MOL0     H28334  -1.905  10.160   2.698 -0.7729  1.6994  0.5352
  210MOL0     H28335  -1.657  10.129   2.700  0.6731  1.5618  1.2323
  210MOL0     H28336   0.170  10.382   2.999  1.9323  0.8342  0.0553
  210MOL0     H28337   0.404  10.328   2.982 -0.0407 -0.0778  2.0250
  210MOL0     H28338   0.784  10.151   2.708  0.3351  3.9774  1.7397
  210MOL0     H28339   1.002  10.089   2.725  1.9599 -0.0483  1.0420
  210MOL0     H28340   1.147   9.932   3.134 -1.3285 -0.8695 -0.6773
  210MOL0     H28341   1.174   9.802   3.018  2.6980 -0.0420 -0.1345
  210MOL0     H28342   1.369   9.911   2.919  1.2795 -0.8050  0.6678
  210MOL0     H28343   1.387   9.855   3.083 -1.5492 -1.8797 -0.8767
  210MOL0     H28344   1.385  10.065   3.176 -1.4243  2.6361 -0.2089
  210MOL0     H28345   1.339  10.149   3.024  0.3412 -0.5006 -0.7205
  210MOL0     H28346   1.618  10.012   3.069 -0.4592  0.1966  1.1931
  210MOL0     H28347   1.585  10.182   3.075 -0.0087 -0.7329  1.7580
  210MOL0     H28348   1.589  10.134   2.663  2.6784  0.2096  0.3856
  210MOL0     H28349   0.919   9.904   3.107 -1.8871  1.7378  1.6889
  210MOL0     H28350   0.702   9.969   3.094  0.9544 -0.1770  0.0545
  211MOL0     O28351   8.154   0.012   0.996  0.1275 -0.0352  1.2168
  211MOL0     C28352   8.215   0.052   1.091 -0.7343  0.5775  0.9566
  211MOL0     O28353   8.174   0.135   1.190 -0.1517 -0.1462  0.8685
  211MOL0     C28354   8.047   0.178   1.176  0.2609 -0.6119  0.0050
  211MOL0     C28355   7.938   0.097   1.145 -0.0723 -0.3512 -0.7740
  211MOL0     C28356   7.816   0.160   1.113  0.1392  0.4385 -0.0109
  211MOL0     C28357   7.798   0.298   1.122  0.9428 -0.0374 -0.2361
  211MOL0     O28358   7.671   0.357   1.114 -0.8965 -0.0604 -0.1907
  211MOL0     C28359   7.558   0.283   1.138  1.7790 -0.4224  0.1911
  211MOL0     C28360   7.530   0.267   1.292 -0.4039 -0.4975  0.0740
  211MOL0     C28361   7.402   0.194   1.329 -1.0408 -0.0555 -0.0323
  211MOL0     C28362   7.270   0.259   1.277 -0.3236  0.2809  0.2468
  211MOL0     C28363   7.144   0.213   1.354  0.5809  0.4498 -0.3908
  211MOL0     C28364   7.135   0.254   1.506  0.1502  0.0761  0.5876
  211MOL0     C28365   6.984   0.246   1.568 -0.7863 -0.2068 -0.0473
  211MOL0     C28366   6.976   0.250   1.720  0.0353  0.8410 -0.1216
  211MOL0     N28367   6.836   0.268   1.776 -0.0120  0.5939  0.6593
  211MOL0     C28368   6.774   0.154   1.826  0.1610  0.7757  0.4052
  211MOL0     C28369   6.657   0.201   1.881  0.2986 -0.0379 -1.1196
  211MOL0     C28370   6.558   0.120   1.963 -0.5553 -0.1641  0.5854
  211MOL0     C28371   6.413   0.142   1.915 -0.8985 -0.3481 -0.0003
  211MOL0     C28372   6.347   0.272   1.969  0.5789 -0.2927 -0.0016
  211MOL0     C28373   6.197   0.270   1.925 -0.6791  0.1465  0.1898
  211MOL0     O28374   6.143   0.402   1.955 -0.1713  0.2759 -0.0272
  211MOL0     C28375   6.012   0.422   1.929  0.4066  0.1383  0.6703
  211MOL0     C28376   5.953   0.538   1.972  0.4375 -0.1533  0.0144
  211MOL0     C28377   5.827   0.594   1.939  0.0787  0.1191  0.7398
  211MOL0     C28378   5.799   0.733   1.995 -0.0597 -0.4456 -0.1468
  211MOL0     C28379   5.739   0.504   1.867 -0.2288 -0.4903 -0.7646
  211MOL0     C28380   5.600   0.534   1.837 -0.5303 -0.1962  0.6989
  211MOL0     O28381   5.516   0.430   1.807 -0.1345  1.1292  0.3093
  211MOL0     C28382   5.385   0.459   1.784  0.1315 -0.9768 -0.1192
  211MOL0     C28383   5.296   0.506   1.883  0.3610 -0.7075  0.8167
  211MOL0     C28384   5.159   0.521   1.852  0.5526  0.0911  1.0366
  211MOL0     C28385   5.109   0.469   1.725 -0.3863 -0.0144 -1.0444
  211MOL0     O28386   4.976   0.461   1.725 -0.5051  1.2124 -0.0685
  211MOL0     C28387   4.913   0.436   1.600 -0.4301 -0.3616 -0.1259
  211MOL0     C28388   4.758   0.436   1.618 -0.2538  0.2941  0.2730
  211MOL0     C28389   4.683   0.416   1.482  1.0893  0.1478  0.6357
  211MOL0     C28390   4.715   0.535   1.389 -0.3751  0.5262  0.5354
  211MOL0     C28391   4.633   0.536   1.261  0.3755  0.1990 -0.7889
  211MOL0     C28392   4.476   0.533   1.288 -1.1810  0.3517 -0.0469
  211MOL0     C28393   4.382   0.529   1.163  0.3638  0.3628 -0.2595
  211MOL0     C28394   4.398   0.398   1.090  0.4380  0.1035 -0.5411
  211MOL0    Cl28395   4.258   0.370   0.968 -0.2776  0.0070 -0.0617
  211MOL0     C28396   5.199   0.425   1.628  0.6144  0.3229  0.6725
  211MOL0     C28397   5.334   0.424   1.656  0.0194 -0.5478  0.6939
  211MOL0     O28398   5.566   0.650   1.836  0.0534 -0.0092 -0.9116
  211MOL0     C28399   5.789   0.380   1.837 -0.6232  1.3354  0.6701
  211MOL0     C28400   5.926   0.335   1.857  0.7692 -0.3561 -0.4738
  211MOL0     N28401   6.646   0.340   1.854 -0.0312  0.7436 -0.5133
  211MOL0     N28402   6.758   0.376   1.787 -0.0602 -0.1384 -0.3255
  211MOL0     C28403   7.904   0.378   1.157 -0.5759 -0.0323 -0.0946
  211MOL0     C28404   8.033   0.318   1.180 -0.1093 -0.0832 -0.4321
  211MOL0     C28405   8.347   0.002   1.104 -0.5119  0.9311  0.2496
  211MOL0     C28406   8.396  -0.110   1.039 -0.0778 -0.5960  0.3778
  211MOL0     C28407   8.528  -0.161   1.058  0.7949 -1.4141  0.0121
  211MOL0     C28408   8.625  -0.090   1.132  0.1244 -0.3657 -0.6985
  211MOL0     O28409   8.751  -0.139   1.122  0.2519  0.1362 -0.2203
  211MOL0     C28410   8.849  -0.035   1.099  0.6429  0.3330  0.1574
  211MOL0     C28411   8.972  -0.099   1.025  0.1989  0.2877  0.1420
  211MOL0     C28412   9.030  -0.207   1.120  0.0679 -0.2065  0.7583
  211MOL0     C28413   9.162  -0.251   1.058 -0.3302 -0.4473  0.7032
  211MOL0     C28414   9.272  -0.154   1.084 -0.6666  0.8712  0.3347
  211MOL0     C28415   9.369  -0.072   1.108  0.6453 -0.1198  0.0164
  211MOL0     C28416   8.578   0.022   1.205 -0.5021 -0.1407 -0.8034
  211MOL0     C28417   8.450   0.072   1.182  0.2823  0.4617 -0.2282
  211MOL0     H28418   7.950  -0.010   1.139  3.5027 -0.0520 -1.1553
  211MOL0     H28419   7.732   0.100   1.078  0.0926  0.9162 -0.7526
  211MOL0     H28420   7.466   0.331   1.104  0.6420 -1.9573  0.9615
  211MOL0     H28421   7.559   0.182   1.095  0.6016 -0.2516 -0.2531
  211MOL0     H28422   7.616   0.207   1.323  0.9390  0.6300 -1.3319
  211MOL0     H28423   7.530   0.366   1.337 -1.7846  0.1974 -1.3446
  211MOL0     H28424   7.414   0.089   1.301  2.5083  0.7379 -2.0669
  211MOL0     H28425   7.408   0.204   1.438 -0.3015  0.8995 -0.1404
  211MOL0     H28426   7.275   0.368   1.288  2.5005  0.4454 -1.7493
  211MOL0     H28427   7.255   0.232   1.172  0.7382  0.7251 -0.0280
  211MOL0     H28428   7.053   0.252   1.309  0.4990  0.4525 -0.2234
  211MOL0     H28429   7.137   0.104   1.347 -0.9068  0.5905 -1.8272
  211MOL0     H28430   7.211   0.201   1.564  0.6254 -0.0376 -0.1255
  211MOL0     H28431   7.164   0.359   1.512  0.9133 -0.1659  1.3300
  211MOL0     H28432   6.931   0.330   1.523  0.1173  0.2386 -0.2845
  211MOL0     H28433   6.928   0.159   1.531 -0.6826  0.4041 -1.7203
  211MOL0     H28434   7.035   0.338   1.749  0.7986  1.5626 -3.4543
  211MOL0     H28435   7.022   0.168   1.777  1.1596  2.4857  1.4557
  211MOL0     H28436   6.801   0.049   1.825 -2.5461 -0.0180 -1.1579
  211MOL0     H28437   6.581   0.014   1.945 -0.8850 -0.1516  0.0600
  211MOL0     H28438   6.569   0.134   2.071 -2.4938  1.7187  0.6099
  211MOL0     H28439   6.361   0.052   1.950 -0.9527 -0.0848  0.6101
  211MOL0     H28440   6.416   0.135   1.806  2.2252 -1.8935  0.0769
  211MOL0     H28441   6.395   0.366   1.939  0.1786 -0.8865 -2.7024
  211MOL0     H28442   6.339   0.265   2.078  2.1813 -2.1835  0.0552
  211MOL0     H28443   6.147   0.190   1.981 -0.2706  0.3138  0.8000
  211MOL0     H28444   6.182   0.249   1.819  0.7614  0.3212 -0.0640
  211MOL0     H28445   6.010   0.606   2.033 -0.8616 -0.3143  1.4624
  211MOL0     H28446   5.797   0.802   1.911  4.5391 -0.1832 -0.3345
  211MOL0     H28447   5.707   0.728   2.054 -0.2282  1.5469 -0.1711
  211MOL0     H28448   5.878   0.771   2.062 -1.0033  2.1332 -0.3785
  211MOL0     H28449   5.330   0.539   1.981 -1.4714  0.7077  1.0333
  211MOL0     H28450   5.083   0.558   1.921 -1.2109 -0.9454 -0.2485
  211MOL0     H28451   4.953   0.507   1.526  0.1032 -0.6597 -0.1306
  211MOL0     H28452   4.944   0.334   1.577 -1.8451 -0.8946  0.2090
  211MOL0     H28453   4.738   0.353   1.686  2.8689 -2.2920 -1.6444
  211MOL0     H28454   4.729   0.530   1.666  0.7392  0.1764  1.1341
  211MOL0     H28455   4.581   0.430   1.518  1.4422 -0.1113  1.7848
  211MOL0     H28456   4.700   0.317   1.437  0.8217  0.2516  0.3017
  211MOL0     H28457   4.690   0.626   1.444  0.0915 -1.2107  3.8325
  211MOL0     H28458   4.820   0.543   1.360 -0.6550 -0.7417 -1.0119
  211MOL0     H28459   4.655   0.446   1.204 -0.3395 -0.0870 -0.6224
  211MOL0     H28460   4.651   0.628   1.204  0.9015  0.3081 -0.4527
  211MOL0     H28461   4.445   0.439   1.336  1.6460 -2.6487 -3.5264
  211MOL0     H28462   4.444   0.618   1.349  0.9630  0.7567  0.5812
  211MOL0     H28463   4.401   0.612   1.094  0.9411 -0.3596 -0.9967
  211MOL0     H28464   4.278   0.538   1.195  0.9386  0.0309  1.8256
  211MOL0     H28465   4.410   0.312   1.156  2.2909 -0.5355 -1.6580
  211MOL0     H28466   4.491   0.413   1.035  0.7877 -1.4823 -0.4141
  211MOL0     H28467   5.149   0.391   1.538 -1.3090  0.8998  1.4770
  211MOL0     H28468   5.397   0.374   1.583  0.9328  1.5453 -0.0224
  211MOL0     H28469   5.728   0.308   1.783 -2.2673  2.4462  0.9668
  211MOL0     H28470   5.957   0.240   1.816  1.6774 -0.4035  0.3024
  211MOL0     H28471   7.883   0.485   1.154 -0.1007  0.0678 -0.0160
  211MOL0     H28472   8.118   0.386   1.179 -1.8533  2.2723 -2.5191
  211MOL0     H28473   8.345  -0.177   0.970  0.2757  0.4522 -0.9403
  211MOL0     H28474   8.555  -0.234   0.983 -0.1012 -1.5314 -0.2060
  211MOL0     H28475   8.807   0.052   1.048 -2.0864 -1.7436 -1.4157
  211MOL0     H28476   8.880  -0.008   1.201  3.9984 -0.6823 -0.4677
  211MOL0     H28477   9.050  -0.025   1.004 -0.6387  1.1493  0.0117
  211MOL0     H28478   8.943  -0.152   0.934 -0.1421  1.5894 -0.5312
  211MOL0     H28479   8.964  -0.293   1.133 -1.3893  0.8143  0.2960
  211MOL0     H28480   9.043  -0.159   1.218 -2.1101 -0.1134  1.0535
  211MOL0     H28481   9.162  -0.262   0.949  0.6778  0.8291  0.5567
  211MOL0     H28482   9.189  -0.352   1.090  3.3121 -0.1102 -0.7865
  211MOL0     H28483   9.449  -0.003   1.125  0.9721  0.3591 -2.9946
  211MOL0     H28484   8.653   0.086   1.250 -2.5876  1.5454  0.4234
  211MOL0     H28485   8.422   0.162   1.235  0.8183  1.0923 -1.0072
  212MOL0     O28486  10.046  10.662   6.115  0.4774  0.5093 -0.7811
  212MOL0     C28487  10.087  10.583   6.204  0.1028 -0.0211  1.2146
  212MOL0     O28488  10.020  10.475   6.246  0.1424  0.0015  0.0810
  212MOL0     C28489   9.918  10.423   6.182  0.0375 -0.2196  0.3664
  212MOL0     C28490   9.932  10.378   6.053 -0.2699  0.1646  0.3822
  212MOL0     C28491   9.819  10.316   5.988 -0.0015  0.2953  0.9542
  212MOL0     C28492   9.693  10.314   6.048  0.5469 -0.7614 -0.8381
  212MOL0     O28493   9.593  10.240   5.993 -0.0116 -0.2681 -0.2212
  212MOL0     C28494   9.455  10.302   6.003 -0.2594  0.5977 -0.4956
  212MOL0     C28495   9.370  10.194   5.931 -1.3030  0.1417 -0.1046
  212MOL0     C28496   9.221  10.226   5.944 -0.1684  0.6398  0.6283
  212MOL0     C28497   9.139  10.125   5.859 -0.4189  0.8120 -0.2314
  212MOL0     C28498   8.997  10.178   5.846 -1.1634 -0.2622  0.1379
  212MOL0     C28499   8.882  10.083   5.834 -0.3650  0.2799  0.0825
  212MOL0     C28500   8.853   9.999   5.957 -0.1798 -0.1785  0.4325
  212MOL0     C28501   8.712   9.938   5.983 -0.5839 -0.4226  0.3031
  212MOL0     N28502   8.685   9.830   5.885 -0.2680  0.2348 -0.0396
  212MOL0     C28503   8.576   9.827   5.789 -0.5078 -0.8264  0.0683
  212MOL0     C28504   8.553   9.699   5.757 -0.1515  0.6104 -0.1580
  212MOL0     C28505   8.457   9.639   5.658  0.4886  0.0148  0.1367
  212MOL0     C28506   8.521   9.592   5.528 -0.3590 -0.2089  0.0481
  212MOL0     C28507   8.637   9.675   5.468  0.5486  0.5379 -0.5819
  212MOL0     C28508   8.690   9.616   5.337  0.0571 -0.7238  0.2278
  212MOL0     O28509   8.593   9.562   5.244 -0.0943 -0.7883 -0.3815
  212MOL0     C28510   8.491   9.643   5.190  0.0253  1.0164  0.1046
  212MOL0     C28511   8.508   9.779   5.183  0.4908 -0.3907  0.0176
  212MOL0     C28512   8.415   9.858   5.118 -0.6408  0.9911  0.2912
  212MOL0     C28513   8.453  10.007   5.094 -0.3826 -0.0369 -0.1339
  212MOL0     C28514   8.297   9.802   5.064  0.3799 -0.7933 -0.1773
  212MOL0     C28515   8.194   9.876   4.993 -0.1148  0.6392  0.9449
  212MOL0     O28516   8.106   9.803   4.922 -0.2985  0.1962 -0.3295
  212MOL0     C28517   8.005   9.862   4.849 -0.3360  0.4415 -0.6475
  212MOL0     C28518   7.897   9.926   4.917  0.1004  0.8268  0.0434
  212MOL0     C28519   7.797   9.988   4.843 -0.3075 -0.0634 -0.1238
  212MOL0     C28520   7.799   9.983   4.702 -0.0363  0.1464  0.0477
  212MOL0     O28521   7.693  10.047   4.638  0.0163 -0.2304  0.0412
  212MOL0     C28522   7.724  10.137   4.539  0.1081 -0.3387 -0.1560
  212MOL0     C28523   7.599  10.211   4.495 -0.7340  0.0727 -0.4681
  212MOL0     C28524   7.511  10.258   4.608 -0.2824  0.1731  0.3953
  212MOL0     C28525   7.391  10.343   4.555 -0.1779  0.7195 -0.0614
  212MOL0     C28526   7.293  10.368   4.668 -0.4016  0.0326 -0.1405
  212MOL0     C28527   7.157  10.403   4.624 -0.3304  0.3212 -0.5800
  212MOL0     C28528   7.072  10.417   4.753  0.3623 -0.3570  0.5157
  212MOL0     C28529   6.929  10.416   4.711  0.2445  1.0175  0.6590
  212MOL0    Cl28530   6.830  10.440   4.858 -0.3163 -0.4084  0.1343
  212MOL0     C28531   7.917   9.938   4.638 -0.0941  0.6595  0.3056
  212MOL0     C28532   8.015   9.872   4.708  1.4190 -0.4541  0.2416
  212MOL0     O28533   8.201   9.995   4.995  0.0112 -0.5954 -0.3904
  212MOL0     C28534   8.282   9.665   5.071 -0.0334 -0.4705  0.7266
  212MOL0     C28535   8.379   9.585   5.127  0.5233 -0.3577  0.7758
  212MOL0     N28536   8.642   9.626   5.830 -0.6057  0.1365  0.4525
  212MOL0     N28537   8.709   9.701   5.902 -0.6536  0.2362 -0.2947
  212MOL0     C28538   9.686  10.372   6.181 -0.0263  0.1853  1.0412
  212MOL0     C28539   9.794  10.418   6.242 -0.4001 -0.8315 -0.8330
  212MOL0     C28540  10.226  10.604   6.249 -0.7649  0.4442 -0.4478
  212MOL0     C28541  10.322  10.500   6.251 -0.1997 -0.1549  0.5376
  212MOL0     C28542  10.457  10.517   6.288  0.6226  0.5170 -0.3257
  212MOL0     C28543  10.495  10.643   6.331  0.4911  0.0004 -0.8911
  212MOL0     O28544  10.625  10.658   6.372 -0.1326 -0.9625  0.6329
  212MOL0     C28545  10.671  10.767   6.452 -0.7476  0.3332  0.5866
  212MOL0     C28546  10.608  10.765   6.597  0.0833  0.0332  0.0318
  212MOL0     C28547  10.675  10.855   6.708 -0.1951 -0.3520  0.2384
  212MOL0     C28548  10.829  10.843   6.711  0.0368 -0.0740  0.0041
  212MOL0     C28549  10.885  10.900   6.833 -0.0194  0.4575  0.5125
  212MOL0     C28550  10.922  10.949   6.944  0.0564 -0.0292 -0.2756
  212MOL0     C28551  10.403  10.751   6.314 -0.2554 -0.8742 -0.4864
  212MOL0     C28552  10.270  10.738   6.277 -0.3175  0.4618 -0.3281
  212MOL0     H28553  10.029  10.374   6.005 -1.4234  0.0844 -2.1128
  212MOL0     H28554   9.831  10.255   5.899 -1.8305 -0.9726  1.5030
  212MOL0     H28555   9.424  10.306   6.108  0.0086 -0.5212 -0.3595
  212MOL0     H28556   9.432  10.400   5.961 -1.8377 -0.1911 -1.6178
  212MOL0     H28557   9.394  10.188   5.825 -1.0504 -4.7386 -0.0218
  212MOL0     H28558   9.395  10.096   5.975 -0.1377  0.4770  0.0101
  212MOL0     H28559   9.179  10.210   6.043 -0.9491 -0.0288  0.2003
  212MOL0     H28560   9.202  10.330   5.913  0.4607  0.2501 -1.1880
  212MOL0     H28561   9.188  10.101   5.764 -0.2216 -1.4424  0.3649
  212MOL0     H28562   9.139  10.031   5.916 -0.9443  0.3656 -0.9466
  212MOL0     H28563   8.976  10.258   5.918  1.2321  1.9688 -1.4479
  212MOL0     H28564   8.995  10.242   5.757 -1.5531  2.7361  2.1478
  212MOL0     H28565   8.790  10.139   5.815 -0.9224 -0.7748 -0.4798
  212MOL0     H28566   8.903  10.020   5.747  0.2013  3.6661 -2.4295
  212MOL0     H28567   8.932   9.924   5.965  1.6027  1.5272 -0.4219
  212MOL0     H28568   8.861  10.077   6.034  1.6086  0.6829 -0.5702
  212MOL0     H28569   8.639  10.019   5.982  0.7620  0.8257  0.1552
  212MOL0     H28570   8.708   9.895   6.083  1.1899 -0.5352  0.3486
  212MOL0     H28571   8.549   9.921   5.741 -1.5004  0.9190  3.7013
  212MOL0     H28572   8.394   9.569   5.713 -0.5164  2.3520  2.1386
  212MOL0     H28573   8.379   9.707   5.623  0.5437  0.1059  0.1913
  212MOL0     H28574   8.443   9.592   5.451  0.3611 -1.1244 -0.7084
  212MOL0     H28575   8.561   9.494   5.556 -0.0519 -1.1668 -3.2942
  212MOL0     H28576   8.712   9.675   5.547  0.5073  0.1000 -0.5434
  212MOL0     H28577   8.609   9.779   5.446 -1.5922  0.2661  0.5967
  212MOL0     H28578   8.747   9.526   5.364 -3.0415 -2.6017  0.9256
  212MOL0     H28579   8.749   9.694   5.287  0.1105 -0.7632  0.2296
  212MOL0     H28580   8.601   9.822   5.219 -0.1181 -0.1663  1.3852
  212MOL0     H28581   8.407  10.073   5.168  0.8137 -0.9718  1.5115
  212MOL0     H28582   8.562  10.017   5.100 -0.2714 -0.2117 -1.4646
  212MOL0     H28583   8.436  10.037   4.990  0.9391 -1.8536 -0.9398
  212MOL0     H28584   7.894   9.920   5.025  2.7594 -0.5360  0.1271
  212MOL0     H28585   7.705  10.026   4.886 -0.6251  1.6076 -2.1215
  212MOL0     H28586   7.793  10.205   4.589  2.2369 -2.4075 -0.0850
  212MOL0     H28587   7.778  10.098   4.452  1.7957  1.0252  0.2213
  212MOL0     H28588   7.624  10.296   4.431  1.5392 -0.7012 -0.6817
  212MOL0     H28589   7.545  10.134   4.438 -0.2583 -1.7380  1.4043
  212MOL0     H28590   7.572  10.312   4.681  0.5657  0.9855 -0.8887
  212MOL0     H28591   7.478  10.168   4.661  0.5017 -0.5600 -0.3299
  212MOL0     H28592   7.436  10.435   4.517  0.2335 -0.1290 -1.7448
  212MOL0     H28593   7.335  10.305   4.469 -2.8165  0.3456  1.7310
  212MOL0     H28594   7.336  10.443   4.735  3.0218 -3.2029  1.6754
  212MOL0     H28595   7.288  10.278   4.730 -0.2007  2.0322  2.9784
  212MOL0     H28596   7.149  10.495   4.566 -1.5836  0.9186  0.4880
  212MOL0     H28597   7.125  10.316   4.565  1.4812 -0.3127 -0.7116
  212MOL0     H28598   7.092  10.509   4.809 -1.9750  1.2332 -1.1079
  212MOL0     H28599   7.087  10.328   4.816 -3.9631 -0.1153  2.2351
  212MOL0     H28600   6.899  10.320   4.668  1.4262 -0.3333  2.6431
  212MOL0     H28601   6.918  10.481   4.624  3.1318  0.0148 -0.5734
  212MOL0     H28602   7.927   9.944   4.530  2.4825  2.1348  0.5657
  212MOL0     H28603   8.099   9.826   4.656  2.5757  0.5899  1.1531
  212MOL0     H28604   8.197   9.615   5.027  0.2159  0.7680 -1.2909
  212MOL0     H28605   8.364   9.477   5.121 -0.0114 -0.2206 -0.8141
  212MOL0     H28606   9.587  10.395   6.219 -0.0446  2.1264 -0.0491
  212MOL0     H28607   9.779  10.474   6.334 -0.3520  0.1397 -1.4041
  212MOL0     H28608  10.293  10.405   6.209  0.7701 -0.2753  0.1161
  212MOL0     H28609  10.528  10.437   6.308  1.4756  1.5332  0.8326
  212MOL0     H28610  10.778  10.751   6.471 -1.1189  0.7425  3.4323
  212MOL0     H28611  10.666  10.863   6.399  1.4730  0.6959  0.9076
  212MOL0     H28612  10.605  10.665   6.642  2.8803  0.3308  1.0939
  212MOL0     H28613  10.502  10.786   6.584  0.0505  0.5996  1.0484
  212MOL0     H28614  10.626  10.832   6.803  1.1862 -1.6666  0.6766
  212MOL0     H28615  10.660  10.962   6.687  0.0651 -0.1555  1.0095
  212MOL0     H28616  10.871  10.891   6.622  0.5993  1.9783  1.3122
  212MOL0     H28617  10.853  10.737   6.697 -1.5994 -0.2458 -2.0580
  212MOL0     H28618  10.969  11.007   7.021  1.1402 -0.2866 -0.7192
  212MOL0     H28619  10.446  10.845   6.349  0.9786 -1.3175 -0.7419
  212MOL0     H28620  10.205  10.823   6.258  0.8048  0.9984 -1.9776
  213MOL0     O28621   0.703   6.380   9.714 -0.5642 -0.1456 -0.9772
  213MOL0     C28622   0.714   6.317   9.611 -0.4637 -0.0367  0.6361
  213MOL0     O28623   0.607   6.261   9.545  0.0304 -0.3079 -0.0355
  213MOL0     C28624   0.481   6.303   9.595  0.5940  0.4004  0.5892
  213MOL0     C28625   0.430   6.431   9.601  0.2421 -0.8070  0.9234
  213MOL0     C28626   0.303   6.462   9.645 -0.0515  0.7086  0.0939
  213MOL0     C28627   0.215   6.358   9.656  0.4365 -0.6968  0.8991
  213MOL0     O28628   0.077   6.386   9.671 -0.8469 -0.2238  0.1421
  213MOL0     C28629   0.021   6.315   9.785  0.1417 -0.7739 -0.1643
  213MOL0     C28630  -0.112   6.378   9.811  0.3808  0.4202 -0.5723
  213MOL0     C28631  -0.210   6.317   9.708 -0.0098  0.3126  0.0234
  213MOL0     C28632  -0.349   6.364   9.720  0.0663  0.0676 -0.2391
  213MOL0     C28633  -0.449   6.311   9.610  0.2067 -1.1898 -0.1097
  213MOL0     C28634  -0.588   6.364   9.626  0.3500 -0.2194 -0.3821
  213MOL0     C28635  -0.676   6.269   9.707  0.7139 -0.2477  0.4764
  213MOL0     C28636  -0.823   6.328   9.722 -0.6532  0.4617 -0.2648
  213MOL0     N28637  -0.925   6.244   9.787 -0.9413  0.3969 -0.0515
  213MOL0     C28638  -0.920   6.210   9.926  0.3964 -0.3128  0.3791
  213MOL0     C28639  -1.028   6.124   9.936  0.2926 -1.1968 -0.3585
  213MOL0     C28640  -1.091   6.059  10.056  0.2043  0.2702 -0.7335
  213MOL0     C28641  -1.125   5.914  10.037 -0.0161  0.6343  0.3263
  213MOL0     C28642  -1.167   5.826  10.161  0.4709 -0.1821 -0.3336
  213MOL0     C28643  -1.311   5.845  10.219 -0.5368 -0.0771  0.1549
  213MOL0     O28644  -1.407   5.794  10.121  0.2353 -0.1114  0.0256
  213MOL0     C28645  -1.541   5.778  10.149  0.4165 -0.5724  0.1893
  213MOL0     C28646  -1.616   5.713  10.051  0.5284 -0.3888 -0.1498
  213MOL0     C28647  -1.761   5.694  10.061 -0.1270  0.2830 -0.8664
  213MOL0     C28648  -1.844   5.627   9.957  0.2645  0.3605  0.2278
  213MOL0     C28649  -1.826   5.754  10.184 -0.1626  0.0384 -0.8268
  213MOL0     C28650  -1.970   5.749  10.202  0.3261  0.0970 -0.1983
  213MOL0     O28651  -2.011   5.716  10.324 -0.3561  0.2886  0.0802
  213MOL0     C28652  -2.149   5.686  10.319 -0.2808  0.0069 -0.6970
  213MOL0     C28653  -2.184   5.554  10.305 -0.0767  0.4225  0.1708
  213MOL0     C28654  -2.317   5.521  10.312  0.0977 -0.4698 -0.9777
  213MOL0     C28655  -2.416   5.605  10.349  0.0382  0.2429 -0.6842
  213MOL0     O28656  -2.543   5.553  10.366  0.6137 -0.1188 -0.3873
  213MOL0     C28657  -2.605   5.597  10.491 -0.1844 -0.7090  0.0416
  213MOL0     C28658  -2.739   5.673  10.474  0.2762 -1.0911 -0.3220
  213MOL0     C28659  -2.744   5.768  10.351  0.4801 -0.3095 -0.4371
  213MOL0     C28660  -2.878   5.851  10.351 -0.5515 -0.1428 -0.0441
  213MOL0     C28661  -2.912   5.894  10.211  0.2419 -0.4878  0.1793
  213MOL0     C28662  -3.053   5.950  10.200  0.6289 -0.3633 -0.1514
  213MOL0     C28663  -3.077   6.019  10.065 -0.5966 -0.1873 -0.5563
  213MOL0     C28664  -3.228   6.025  10.022 -0.2369 -0.3951  0.1308
  213MOL0    Cl28665  -3.263   5.864   9.963 -0.2902 -0.1942  0.1377
  213MOL0     C28666  -2.374   5.734  10.372  0.3969 -0.9442 -0.3578
  213MOL0     C28667  -2.240   5.783  10.356 -0.0704  0.2285  0.5469
  213MOL0     O28668  -2.043   5.759  10.101 -0.1580 -0.9409  0.1063
  213MOL0     C28669  -1.750   5.807  10.285 -0.5761  0.0954 -0.3848
  213MOL0     C28670  -1.607   5.818  10.265 -0.2674  0.4950 -0.7957
  213MOL0     N28671  -1.096   6.122   9.813  0.6540 -0.3863 -0.4305
  213MOL0     N28672  -1.027   6.182   9.724  0.3338  0.0660 -0.5601
  213MOL0     C28673   0.256   6.223   9.643  0.8815 -0.7168 -0.8952
  213MOL0     C28674   0.385   6.196   9.615 -0.5599  0.2118  0.9714
  213MOL0     C28675   0.851   6.292   9.568  0.2414  0.4518  0.4994
  213MOL0     C28676   0.966   6.350   9.619 -0.3545 -0.4180 -0.7499
  213MOL0     C28677   1.089   6.328   9.560 -0.5592 -0.0084 -0.2896
  213MOL0     C28678   1.103   6.231   9.454  0.5353 -0.7415  0.2383
  213MOL0     O28679   1.225   6.203   9.389 -0.0592  0.2316  0.4177
  213MOL0     C28680   1.221   6.272   9.257 -0.2416  0.8986 -0.8975
  213MOL0     C28681   1.372   6.306   9.223  0.3976 -0.1519 -0.2105
  213MOL0     C28682   1.458   6.184   9.177 -0.0218 -0.3053 -0.1349
  213MOL0     C28683   1.578   6.239   9.099  0.3972 -0.2045 -0.4971
  213MOL0     C28684   1.680   6.131   9.079 -0.5774 -0.2075  0.6294
  213MOL0     C28685   1.752   6.029   9.069  0.6201 -1.2213 -0.4099
  213MOL0     C28686   0.988   6.179   9.406 -0.4428  0.2201  0.4659
  213MOL0     C28687   0.864   6.209   9.463 -0.4175 -0.9969  0.1346
  213MOL0     H28688   0.486   6.522   9.580 -0.3494 -0.7411 -0.4258
  213MOL0     H28689   0.276   6.567   9.650 -0.3797  0.5672  2.7038
  213MOL0     H28690   0.011   6.207   9.779 -0.5009 -0.7215 -0.1028
  213MOL0     H28691   0.085   6.334   9.872  0.9063 -1.1032 -0.6487
  213MOL0     H28692  -0.142   6.347   9.912  1.2769 -0.0841 -0.4539
  213MOL0     H28693  -0.098   6.486   9.803  2.6654  0.2185 -0.0373
  213MOL0     H28694  -0.164   6.338   9.611 -1.0299  0.2336 -0.4842
  213MOL0     H28695  -0.206   6.208   9.712  0.2571  0.3034 -0.4591
  213MOL0     H28696  -0.380   6.348   9.824  1.0754 -0.0144  0.0538
  213MOL0     H28697  -0.350   6.472   9.703 -0.1062  0.0930 -0.0778
  213MOL0     H28698  -0.414   6.334   9.509  0.8044  0.1216  0.3740
  213MOL0     H28699  -0.460   6.202   9.609  0.1056 -1.1820  0.1112
  213MOL0     H28700  -0.587   6.458   9.683 -1.5337 -0.8749  0.8503
  213MOL0     H28701  -0.633   6.385   9.529  2.2435 -1.9158 -1.7022
  213MOL0     H28702  -0.680   6.181   9.642  1.0454 -0.1493  0.3254
  213MOL0     H28703  -0.632   6.254   9.806  1.2566 -1.7973  0.0340
  213MOL0     H28704  -0.857   6.353   9.621 -0.1256 -0.2337 -0.6246
  213MOL0     H28705  -0.815   6.421   9.779 -1.9972  0.0543  0.6404
  213MOL0     H28706  -0.847   6.252   9.994  1.7424 -1.1535 -0.4810
  213MOL0     H28707  -1.023   6.074  10.140 -0.7215  0.3916  0.0045
  213MOL0     H28708  -1.179   6.115  10.088  1.8271  1.6064  1.7066
  213MOL0     H28709  -1.044   5.862   9.986 -1.7560 -2.6378  0.5948
  213MOL0     H28710  -1.204   5.913   9.962  1.0060  0.1413 -0.7576
  213MOL0     H28711  -1.101   5.854  10.244  0.4778  1.1953 -0.7770
  213MOL0     H28712  -1.160   5.721  10.129  1.1202  0.1488 -1.3350
  213MOL0     H28713  -1.320   5.954  10.226 -3.1481 -0.2613  0.9987
  213MOL0     H28714  -1.325   5.801  10.318  1.6152  0.3228  0.6747
  213MOL0     H28715  -1.561   5.663   9.972 -0.3265 -0.7166 -0.5508
  213MOL0     H28716  -1.897   5.542  10.001  1.4536 -0.9394 -0.7522
  213MOL0     H28717  -1.911   5.696   9.904 -0.5908 -1.8477 -1.7869
  213MOL0     H28718  -1.779   5.573   9.888  0.5432  0.2584  0.5692
  213MOL0     H28719  -2.104   5.488  10.276  1.4119  2.3665 -0.3656
  213MOL0     H28720  -2.342   5.417  10.293  1.7094 -1.6620  2.5414
  213MOL0     H28721  -2.622   5.504  10.547  1.3915 -3.3509 -3.4220
  213MOL0     H28722  -2.534   5.653  10.550 -0.7533 -0.7855  0.8120
  213MOL0     H28723  -2.817   5.598  10.457 -0.2913 -0.2412 -1.6010
  213MOL0     H28724  -2.760   5.739  10.559 -1.7295  1.2245 -2.4768
  213MOL0     H28725  -2.726   5.718  10.256  0.2073 -1.7412  0.2360
  213MOL0     H28726  -2.661   5.839  10.350 -1.0946  1.6539 -2.2124
  213MOL0     H28727  -2.959   5.786  10.384 -0.2327 -0.7008 -0.3280
  213MOL0     H28728  -2.873   5.936  10.419  1.2754  2.1909 -2.8310
  213MOL0     H28729  -2.905   5.809  10.142 -1.8972 -0.6178  0.0539
  213MOL0     H28730  -2.831   5.960  10.179  1.2322 -1.9839 -0.5531
  213MOL0     H28731  -3.132   5.880  10.228 -1.3958  1.3592 -1.2091
  213MOL0     H28732  -3.052   6.029  10.276  1.2476 -0.4183 -0.0962
  213MOL0     H28733  -3.004   5.987   9.989  0.8801  1.5532  0.0547
  213MOL0     H28734  -3.053   6.125  10.081  0.3076 -0.6941  1.9438
  213MOL0     H28735  -3.238   6.095   9.938  0.2725 -1.3280 -0.7205
  213MOL0     H28736  -3.298   6.038  10.105  0.8177  0.4158  0.9253
  213MOL0     H28737  -2.455   5.800  10.402  0.6102 -1.6233  1.8804
  213MOL0     H28738  -2.212   5.885  10.379 -0.1863  0.3832  0.0078
  213MOL0     H28739  -1.767   5.845  10.385  2.9583 -0.8511  0.7311
  213MOL0     H28740  -1.550   5.864  10.345  1.1062 -0.2947 -1.2952
  213MOL0     H28741   0.177   6.149   9.638 -2.1002  2.2573 -4.2139
  213MOL0     H28742   0.409   6.092   9.599  1.2567  0.6662  0.5470
  213MOL0     H28743   0.964   6.425   9.698  2.7305  0.0786 -1.0386
  213MOL0     H28744   1.175   6.379   9.600 -1.5582  0.9717  0.6555
  213MOL0     H28745   1.174   6.196   9.193  1.7714 -1.9964  0.8449
  213MOL0     H28746   1.169   6.368   9.264 -0.3808  0.7115  3.4557
  213MOL0     H28747   1.417   6.359   9.307  1.7757  0.0798 -1.0493
  213MOL0     H28748   1.364   6.367   9.132 -0.3479  0.8306  0.4985
  213MOL0     H28749   1.406   6.106   9.121 -0.2320 -0.4923  0.3125
  213MOL0     H28750   1.495   6.131   9.266 -0.3990  1.9663  1.4866
  213MOL0     H28751   1.615   6.332   9.144 -1.1804  0.9843 -1.5241
  213MOL0     H28752   1.543   6.257   8.997  1.4932 -1.1969 -1.0840
  213MOL0     H28753   1.828   5.957   9.048  1.0608 -0.6171 -0.9367
  213MOL0     H28754   0.980   6.117   9.317  0.8423 -0.2649  0.6805
  213MOL0     H28755   0.781   6.149   9.426 -1.0911 -0.5940  0.9351
  214MOL0     O28756   3.806   3.054   5.469 -0.1999  0.4679 -0.7699
  214MOL0     C28757   3.846   3.153   5.530 -0.0471 -0.3875 -0.6964
  214MOL0     O28758   3.776   3.219   5.638  0.2418 -0.1825 -0.3613
  214MOL0     C28759   3.673   3.164   5.711 -0.8338 -0.0796  0.3158
  214MOL0     C28760   3.622   3.036   5.691 -0.3519  0.4025 -0.0559
  214MOL0     C28761   3.516   2.998   5.771 -0.8580 -0.5970  0.2956
  214MOL0     C28762   3.455   3.076   5.875 -1.1496  0.3984  0.3564
  214MOL0     O28763   3.350   3.041   5.962 -0.2088  0.5230 -0.0481
  214MOL0     C28764   3.294   2.907   5.927 -0.2622  0.3933  0.3596
  214MOL0     C28765   3.204   2.861   6.036 -0.2712 -0.1021  0.6290
  214MOL0     C28766   3.138   2.728   5.995 -0.3250  0.5646 -0.2655
  214MOL0     C28767   3.095   2.655   6.122  0.0132  0.0556 -0.3928
  214MOL0     C28768   3.055   2.503   6.132 -0.3375  0.7598 -0.0858
  214MOL0     C28769   2.945   2.456   6.037  0.7054  0.4203 -0.2268
  214MOL0     C28770   2.845   2.371   6.116 -0.0041 -0.5319  0.4523
  214MOL0     C28771   2.726   2.334   6.020  1.4465  0.4483 -0.0447
  214MOL0     N28772   2.641   2.451   6.008 -0.0981 -0.5489  0.3129
  214MOL0     C28773   2.651   2.532   5.895  0.3446  0.3850  0.7130
  214MOL0     C28774   2.557   2.625   5.921  0.0788 -0.0688  0.3357
  214MOL0     C28775   2.512   2.727   5.814  0.4293  0.0540  0.5769
  214MOL0     C28776   2.617   2.807   5.753 -0.2475 -0.3699  0.1616
  214MOL0     C28777   2.670   2.899   5.870  0.5735 -0.2006  0.4966
  214MOL0     C28778   2.809   2.953   5.844  0.7990  0.3566 -1.0157
  214MOL0     O28779   2.826   3.066   5.929 -0.7734  0.6816  0.5215
  214MOL0     C28780   2.940   3.143   5.915  0.0800 -0.3364 -1.2233
  214MOL0     C28781   2.961   3.249   6.010  0.5143  0.4051 -0.4616
  214MOL0     C28782   3.049   3.353   5.986 -0.7932 -0.7662  0.2812
  214MOL0     C28783   3.060   3.474   6.087  1.1825 -0.7242 -0.8199
  214MOL0     C28784   3.136   3.348   5.876 -0.1282 -0.4700 -0.1212
  214MOL0     C28785   3.229   3.469   5.826 -0.4403  0.4297 -0.8597
  214MOL0     O28786   3.287   3.446   5.706 -0.1294 -0.4931 -0.3901
  214MOL0     C28787   3.381   3.530   5.663 -1.3011 -0.1579  0.1249
  214MOL0     C28788   3.495   3.474   5.615  0.0319  0.6670 -0.7170
  214MOL0     C28789   3.612   3.552   5.585  0.8283 -0.1321  0.2621
  214MOL0     C28790   3.604   3.690   5.574 -0.2737 -0.7216  0.0334
  214MOL0     O28791   3.714   3.735   5.524  0.3987  0.3408 -0.4090
  214MOL0     C28792   3.737   3.872   5.517  1.1335  0.6141 -0.0485
  214MOL0     C28793   3.881   3.922   5.496 -0.5008 -0.3654  0.9086
  214MOL0     C28794   3.885   4.076   5.504 -0.4166 -0.4593  0.3709
  214MOL0     C28795   3.851   4.130   5.644 -0.8859  0.5492 -0.0465
  214MOL0     C28796   3.925   4.271   5.658  0.6601 -0.2852  0.1809
  214MOL0     C28797   4.045   4.260   5.756 -0.7312 -0.2851  0.2951
  214MOL0     C28798   3.995   4.215   5.883  0.6120 -0.7052  0.1391
  214MOL0     C28799   4.107   4.235   5.983 -0.5190  0.5958  0.0475
  214MOL0    Cl28800   4.060   4.159   6.149  0.2820 -0.1040  0.4562
  214MOL0     C28801   3.481   3.751   5.604 -1.1046  0.3245 -0.5165
  214MOL0     C28802   3.374   3.674   5.645  0.4276 -0.3673  0.9267
  214MOL0     O28803   3.259   3.564   5.904  0.3531 -0.2750 -0.7131
  214MOL0     C28804   3.126   3.239   5.789  0.2325 -0.0675  0.2183
  214MOL0     C28805   3.028   3.148   5.803  0.0878  0.2757 -0.5148
  214MOL0     N28806   2.488   2.598   6.034  0.1625  0.2423 -0.2379
  214MOL0     N28807   2.542   2.492   6.090  0.0517 -0.1512 -0.9808
  214MOL0     C28808   3.530   3.194   5.904 -0.4284 -0.8368 -0.1396
  214MOL0     C28809   3.636   3.240   5.825 -0.2026  0.1534  0.1514
  214MOL0     C28810   3.973   3.227   5.496  0.6150  0.1564 -0.3321
  214MOL0     C28811   4.013   3.343   5.567  0.1871  0.3964 -0.3293
  214MOL0     C28812   4.121   3.417   5.522 -0.7542 -0.2014 -0.1293
  214MOL0     C28813   4.205   3.374   5.420  0.2598 -0.2178  0.2204
  214MOL0     O28814   4.311   3.465   5.396  0.6825 -0.2316 -0.0149
  214MOL0     C28815   4.388   3.466   5.266  0.6314 -0.1764 -0.0210
  214MOL0     C28816   4.481   3.590   5.256 -0.8349 -0.2538  0.3564
  214MOL0     C28817   4.593   3.580   5.149  0.0910 -0.1249  0.0269
  214MOL0     C28818   4.687   3.701   5.169  0.9401 -0.6108 -0.1948
  214MOL0     C28819   4.806   3.672   5.097  0.4677 -0.3583 -0.3905
  214MOL0     C28820   4.913   3.649   5.053 -1.2629  0.1656  0.0979
  214MOL0     C28821   4.162   3.256   5.347  0.2315  0.3505 -0.0047
  214MOL0     C28822   4.045   3.190   5.385  0.2911 -0.0013 -0.2698
  214MOL0     H28823   3.669   2.972   5.617 -0.3678  0.4276 -0.0880
  214MOL0     H28824   3.478   2.902   5.737 -1.0130 -0.6950  0.7469
  214MOL0     H28825   3.245   2.913   5.829  2.7298 -2.2515 -1.5181
  214MOL0     H28826   3.377   2.835   5.920 -0.5589  0.1008 -0.1911
  214MOL0     H28827   3.263   2.844   6.127  0.8076 -0.4270 -0.1059
  214MOL0     H28828   3.124   2.933   6.054 -2.3545 -1.8241 -1.2395
  214MOL0     H28829   3.048   2.749   5.936  0.2915  2.7609 -0.5082
  214MOL0     H28830   3.204   2.655   5.947 -0.0972  0.4195  0.2589
  214MOL0     H28831   3.181   2.650   6.189  0.2537  1.6556 -0.5444
  214MOL0     H28832   3.017   2.722   6.159  0.4779  1.1371 -1.3349
  214MOL0     H28833   3.146   2.448   6.105 -0.6450  0.2703 -0.1374
  214MOL0     H28834   3.022   2.483   6.234 -1.0392 -0.5487 -0.5433
  214MOL0     H28835   2.894   2.543   5.994  0.2908  0.1803 -0.2220
  214MOL0     H28836   2.989   2.397   5.956  1.4826 -0.4360  0.7914
  214MOL0     H28837   2.888   2.277   6.152 -0.4169 -0.0567  2.3384
  214MOL0     H28838   2.813   2.428   6.204  0.8237 -0.1742  0.5296
  214MOL0     H28839   2.667   2.256   6.068  1.0214  1.3766  1.0030
  214MOL0     H28840   2.765   2.300   5.924  1.9203  1.1070 -0.0975
  214MOL0     H28841   2.713   2.510   5.809 -0.7996  0.3922 -0.1273
  214MOL0     H28842   2.458   2.669   5.739  1.1691  0.9985 -0.7127
  214MOL0     H28843   2.439   2.800   5.852 -0.9584 -1.7706  1.6076
  214MOL0     H28844   2.573   2.876   5.681 -1.1457 -0.1464  0.9115
  214MOL0     H28845   2.692   2.739   5.711 -1.0612 -0.8467 -0.5586
  214MOL0     H28846   2.675   2.838   5.960  1.7015 -1.0744 -0.1207
  214MOL0     H28847   2.599   2.982   5.874 -0.1540 -0.6883 -1.2249
  214MOL0     H28848   2.822   2.990   5.741  1.9493 -0.0281 -1.0223
  214MOL0     H28849   2.887   2.877   5.856  0.4712  0.0100 -1.0858
  214MOL0     H28850   2.895   3.242   6.096  0.5956 -1.0089 -0.4824
  214MOL0     H28851   3.028   3.447   6.188  2.9006  2.7569  0.8247
  214MOL0     H28852   3.162   3.505   6.108  0.0066  2.5364  0.7242
  214MOL0     H28853   3.013   3.570   6.063 -0.3356 -1.0221  0.7496
  214MOL0     H28854   3.512   3.366   5.619 -1.1358  0.4696 -0.8484
  214MOL0     H28855   3.698   3.492   5.557 -0.2034 -1.3838 -0.3270
  214MOL0     H28856   3.669   3.903   5.437  0.8947 -2.2337 -1.0626
  214MOL0     H28857   3.686   3.909   5.606  1.1802 -1.4632  0.8772
  214MOL0     H28858   3.947   3.879   5.573  1.6638  1.2481  0.0467
  214MOL0     H28859   3.917   3.881   5.402  1.4281 -0.2674  1.5589
  214MOL0     H28860   3.816   4.123   5.433 -2.0355  0.5282  2.5063
  214MOL0     H28861   3.987   4.106   5.476 -0.3621  0.0176  1.0575
  214MOL0     H28862   3.743   4.143   5.633 -0.6812  0.4120 -3.2830
  214MOL0     H28863   3.881   4.053   5.716  2.6465  1.5386 -0.3059
  214MOL0     H28864   3.861   4.352   5.694  1.2551 -0.2755  1.2652
  214MOL0     H28865   3.962   4.312   5.564  1.0868  1.7102  1.1824
  214MOL0     H28866   4.116   4.191   5.709  4.1963  4.6337 -0.5531
  214MOL0     H28867   4.087   4.359   5.774 -1.6385  0.5687 -1.9639
  214MOL0     H28868   3.966   4.110   5.884  0.9443 -0.8035 -0.4153
  214MOL0     H28869   3.908   4.271   5.919  1.9025 -1.5106  5.2852
  214MOL0     H28870   4.134   4.338   6.004  0.3667  0.2844  0.4715
  214MOL0     H28871   4.203   4.199   5.944 -0.8070 -1.1075  0.8070
  214MOL0     H28872   3.484   3.860   5.603  1.0432  0.3060 -0.3505
  214MOL0     H28873   3.277   3.716   5.668  0.2183  2.6232 -4.0136
  214MOL0     H28874   3.194   3.224   5.706  1.7875  1.6221  1.1183
  214MOL0     H28875   3.029   3.070   5.729 -1.6260 -2.6467  2.2767
  214MOL0     H28876   3.500   3.262   5.983 -1.5214 -0.8317 -0.5431
  214MOL0     H28877   3.690   3.331   5.846 -1.6194  0.5804  2.2380
  214MOL0     H28878   3.965   3.389   5.653  1.8335  2.7672 -0.5832
  214MOL0     H28879   4.156   3.507   5.572  4.1603 -1.7650 -0.2632
  214MOL0     H28880   4.450   3.376   5.267  0.0236 -0.7018  3.0457
  214MOL0     H28881   4.319   3.483   5.183  1.4317  0.3159 -0.5939
  214MOL0     H28882   4.527   3.589   5.355 -2.2492 -2.5836  1.0597
  214MOL0     H28883   4.422   3.679   5.235 -0.1370 -0.4863 -3.3626
  214MOL0     H28884   4.553   3.578   5.047  0.8349 -0.3661 -0.2680
  214MOL0     H28885   4.644   3.483   5.150  0.1710 -0.1241 -1.3824
  214MOL0     H28886   4.706   3.735   5.271  0.6315  1.1789 -0.7070
  214MOL0     H28887   4.634   3.787   5.127 -0.0405 -1.7864 -1.4865
  214MOL0     H28888   5.007   3.623   5.008  0.5807  2.3775  2.3658
  214MOL0     H28889   4.215   3.237   5.254 -1.3360  0.5226 -0.9772
  214MOL0     H28890   4.013   3.109   5.320  0.1261  1.2242 -1.7835
  215MOL0     O28891   2.569   9.753   6.240 -0.4066 -0.2791  0.4369
  215MOL0     C28892   2.593   9.725   6.356 -0.8317  0.1055 -0.1306
  215MOL0     O28893   2.506   9.664   6.446 -0.5382  0.1810 -0.0157
  215MOL0     C28894   2.386   9.627   6.389 -0.6692  0.2662  0.3929
  215MOL0     C28895   2.354   9.498   6.347  0.7471  0.1952  0.2470
  215MOL0     C28896   2.227   9.458   6.308 -0.1311  0.0440 -0.0466
  215MOL0     C28897   2.127   9.558   6.309  0.1808  0.1744  0.2279
  215MOL0     O28898   2.002   9.544   6.264 -0.3194  0.0235 -0.3211
  215MOL0     C28899   1.962   9.423   6.201 -0.3920  0.0868  0.0726
  215MOL0     C28900   1.806   9.428   6.201  0.2335 -0.2859  0.2548
  215MOL0     C28901   1.742   9.302   6.146 -0.0488 -1.0420 -0.1725
  215MOL0     C28902   1.604   9.341   6.101  0.9328  0.6778 -0.0967
  215MOL0     C28903   1.510   9.215   6.088 -0.5346 -0.5880  0.0660
  215MOL0     C28904   1.384   9.265   6.017  0.0053 -0.1393  0.7734
  215MOL0     C28905   1.294   9.142   6.002 -0.7122  0.1319 -0.3926
  215MOL0     C28906   1.156   9.181   5.954  0.7023  0.7763  0.6433
  215MOL0     N28907   1.095   9.059   5.907  0.4242 -0.0290  0.1690
  215MOL0     C28908   1.012   8.975   5.982  0.0354 -0.8013 -0.2143
  215MOL0     C28909   0.976   8.870   5.901  0.4643 -0.3030 -0.3405
  215MOL0     C28910   0.884   8.761   5.934 -0.2473  0.9354 -0.8280
  215MOL0     C28911   0.757   8.806   6.002 -0.3188  0.5568 -0.0354
  215MOL0     C28912   0.682   8.676   6.038  0.2222 -1.3937  0.3007
  215MOL0     C28913   0.558   8.723   6.108 -1.1148 -0.4259  0.1785
  215MOL0     O28914   0.462   8.767   6.020 -0.2017 -0.2664  0.6779
  215MOL0     C28915   0.334   8.761   6.058  0.7829 -0.2690  0.3644
  215MOL0     C28916   0.296   8.820   6.178 -0.6466  0.2448  0.3821
  215MOL0     C28917   0.167   8.814   6.221  0.3717 -0.3249 -0.3951
  215MOL0     C28918   0.143   8.899   6.343 -0.0368  0.1426  0.1199
  215MOL0     C28919   0.068   8.757   6.143  0.2213  0.1351  0.9808
  215MOL0     C28920  -0.076   8.751   6.174 -0.1392  0.8732  0.4594
  215MOL0     O28921  -0.106   8.800   6.296 -0.1402  0.7650  0.2818
  215MOL0     C28922  -0.227   8.793   6.360 -0.9960  0.6567  0.1087
  215MOL0     C28923  -0.263   8.885   6.459  0.0358 -0.0011 -0.1555
  215MOL0     C28924  -0.374   8.876   6.541  0.3214 -0.0948  0.1640
  215MOL0     C28925  -0.457   8.763   6.530  0.4275 -0.1278  0.3823
  215MOL0     O28926  -0.575   8.741   6.598 -0.2109  0.0348 -0.3497
  215MOL0     C28927  -0.655   8.856   6.642 -0.0995  0.1209  0.2191
  215MOL0     C28928  -0.808   8.823   6.616  0.3636 -0.0442 -0.1735
  215MOL0     C28929  -0.844   8.753   6.485 -0.3444 -0.0268 -0.0914
  215MOL0     C28930  -0.789   8.825   6.362  0.1581 -0.0944 -0.0315
  215MOL0     C28931  -0.816   8.749   6.230  0.5405  0.0555  0.5175
  215MOL0     C28932  -0.690   8.666   6.193  0.1980  0.7259  0.1054
  215MOL0     C28933  -0.725   8.573   6.072 -0.0545  0.8286  0.3578
  215MOL0     C28934  -0.598   8.519   5.993 -0.0022  0.1318 -0.0355
  215MOL0    Cl28935  -0.659   8.393   5.889 -0.2511  0.1553  0.5036
  215MOL0     C28936  -0.410   8.661   6.434 -0.0587 -0.7651 -1.0956
  215MOL0     C28937  -0.297   8.675   6.353  0.4724 -0.8702  0.5002
  215MOL0     O28938  -0.158   8.705   6.090  0.3958  0.6177 -0.3540
  215MOL0     C28939   0.101   8.700   6.021  0.0688  0.6299 -0.4221
  215MOL0     C28940   0.236   8.707   5.979  0.1431  0.4787  0.5757
  215MOL0     N28941   1.048   8.898   5.783  0.1503 -0.0108  0.3200
  215MOL0     N28942   1.108   9.007   5.785  1.0541 -0.1328 -0.2112
  215MOL0     C28943   2.157   9.687   6.358 -0.2633 -0.0322  0.9815
  215MOL0     C28944   2.285   9.717   6.406  0.2857  0.1602  0.6960
  215MOL0     C28945   2.735   9.747   6.401 -0.2560  0.1192 -0.4843
  215MOL0     C28946   2.839   9.766   6.308 -0.0409 -0.0478  0.2425
  215MOL0     C28947   2.972   9.780   6.358 -0.4616 -0.5839  1.3002
  215MOL0     C28948   3.003   9.762   6.494 -0.0144  0.5577  0.2483
  215MOL0     O28949   3.137   9.769   6.520  0.5709 -0.3835  0.2562
  215MOL0     C28950   3.181   9.771   6.656  0.4906 -0.4354  0.1927
  215MOL0     C28951   3.336   9.787   6.652  0.3531  0.0695  0.2235
  215MOL0     C28952   3.400   9.836   6.782 -0.5195  0.0533 -0.1011
  215MOL0     C28953   3.429   9.721   6.883  0.4862 -0.5482  0.5203
  215MOL0     C28954   3.322   9.681   6.978 -0.6726  0.2766  0.6684
  215MOL0     C28955   3.236   9.653   7.053  0.6645 -0.1745  0.3790
  215MOL0     C28956   2.897   9.748   6.586 -0.2068 -0.6463  0.3611
  215MOL0     C28957   2.766   9.746   6.538 -0.4034 -0.2293  0.2048
  215MOL0     H28958   2.434   9.424   6.349  0.0822 -0.7806 -3.2514
  215MOL0     H28959   2.213   9.355   6.277 -2.7605  0.6916 -1.2701
  215MOL0     H28960   1.995   9.421   6.097 -1.7247 -1.1527 -0.3630
  215MOL0     H28961   1.998   9.329   6.245  0.3601  1.1612  1.8501
  215MOL0     H28962   1.764   9.451   6.299 -1.6757  2.0317 -1.0048
  215MOL0     H28963   1.768   9.513   6.143 -1.0245 -1.1701 -0.2672
  215MOL0     H28964   1.798   9.252   6.066  1.0371  2.1125 -1.5544
  215MOL0     H28965   1.742   9.233   6.231 -1.3225  1.1777  1.7647
  215MOL0     H28966   1.561   9.412   6.172  0.7109  1.2429 -0.7836
  215MOL0     H28967   1.602   9.387   6.002 -1.5489 -2.5205 -1.7390
  215MOL0     H28968   1.563   9.150   6.018  2.4481  1.8216 -0.0733
  215MOL0     H28969   1.478   9.171   6.184  1.4836 -1.5719  0.3366
  215MOL0     H28970   1.329   9.344   6.069 -0.3007 -0.1829  0.5176
  215MOL0     H28971   1.407   9.301   5.916 -2.8359 -1.4614 -0.4561
  215MOL0     H28972   1.350   9.076   5.934 -1.0268 -1.4015  0.7617
  215MOL0     H28973   1.279   9.079   6.091  0.1854 -1.9554 -1.6304
  215MOL0     H28974   1.170   9.247   5.868 -0.4872 -0.1366 -0.2769
  215MOL0     H28975   1.101   9.235   6.031 -0.0677  1.2608 -0.2349
  215MOL0     H28976   0.984   8.996   6.084  0.2547 -0.6354 -0.1889
  215MOL0     H28977   0.865   8.705   5.841  2.0799  0.7689 -1.2788
  215MOL0     H28978   0.944   8.707   6.008  1.0774  4.5392  0.9850
  215MOL0     H28979   0.697   8.857   5.925 -1.7721 -1.4426 -0.3116
  215MOL0     H28980   0.775   8.861   6.095  0.9611 -3.2752  2.2160
  215MOL0     H28981   0.739   8.621   6.113  1.3339  1.0626  1.3673
  215MOL0     H28982   0.667   8.616   5.948  2.2885 -0.5473 -0.6748
  215MOL0     H28983   0.588   8.802   6.176  1.8080  1.9183 -3.4588
  215MOL0     H28984   0.518   8.634   6.158  1.5037 -2.1188 -0.5413
  215MOL0     H28985   0.377   8.873   6.228  1.5198 -2.9056  0.5213
  215MOL0     H28986   0.061   8.969   6.322  1.1812  1.4327 -0.4692
  215MOL0     H28987   0.110   8.835   6.426  2.1025 -1.8907 -0.5049
  215MOL0     H28988   0.236   8.941   6.382  2.1068 -2.2416 -2.0675
  215MOL0     H28989  -0.198   8.971   6.477 -1.1388  0.6799  1.1125
  215MOL0     H28990  -0.396   8.956   6.610  0.8158  1.0045 -0.9081
  215MOL0     H28991  -0.645   8.877   6.749 -1.8952  0.3373  0.3723
  215MOL0     H28992  -0.633   8.941   6.577  0.6105  0.2533  0.6215
  215MOL0     H28993  -0.833   8.758   6.700 -1.1968  1.2929  0.4650
  215MOL0     H28994  -0.871   8.909   6.641  0.5361  0.1758 -0.4964
  215MOL0     H28995  -0.951   8.746   6.463 -0.2608  2.4027 -1.7026
  215MOL0     H28996  -0.802   8.653   6.492  1.8159  0.8395  0.0780
  215MOL0     H28997  -0.832   8.926   6.363  2.8101  1.1129  0.7728
  215MOL0     H28998  -0.681   8.836   6.367  0.1712 -0.4418  0.6753
  215MOL0     H28999  -0.818   8.816   6.144 -1.2004 -0.7832 -0.1403
  215MOL0     H29000  -0.903   8.684   6.238  3.2317 -4.0964 -0.6316
  215MOL0     H29001  -0.604   8.732   6.176  1.0663  0.0056  1.4569
  215MOL0     H29002  -0.667   8.596   6.274  0.3083 -0.6614 -1.0929
  215MOL0     H29003  -0.799   8.619   6.005 -0.0385  0.9571  0.4266
  215MOL0     H29004  -0.768   8.478   6.105  2.2687  0.2007  1.7517
  215MOL0     H29005  -0.520   8.484   6.061 -2.8364 -3.5717  1.6525
  215MOL0     H29006  -0.553   8.593   5.925 -2.3694  1.9531  0.2260
  215MOL0     H29007  -0.471   8.571   6.427 -1.8432 -0.1677  3.4106
  215MOL0     H29008  -0.262   8.592   6.292  1.0218 -0.2515 -0.0278
  215MOL0     H29009   0.029   8.659   5.950  0.7911 -0.2566 -0.6682
  215MOL0     H29010   0.268   8.660   5.886  0.4090 -3.2100  2.3711
  215MOL0     H29011   2.093   9.774   6.359 -1.3415 -0.7649 -0.2715
  215MOL0     H29012   2.301   9.815   6.451  1.0493 -0.3876  1.6642
  215MOL0     H29013   2.815   9.773   6.203  0.9458 -0.1067 -0.0004
  215MOL0     H29014   3.050   9.791   6.283 -2.4052 -0.3224 -0.7967
  215MOL0     H29015   3.135   9.861   6.697 -1.1714  0.1091 -2.5760
  215MOL0     H29016   3.149   9.686   6.717  0.8073 -0.7397 -0.0558
  215MOL0     H29017   3.373   9.857   6.576  1.4823  0.9407  1.5233
  215MOL0     H29018   3.377   9.689   6.626  0.8938 -0.2282  2.0800
  215MOL0     H29019   3.335   9.910   6.830 -0.1839  1.5371 -1.8551
  215MOL0     H29020   3.498   9.877   6.756  0.8375 -3.3551 -0.8945
  215MOL0     H29021   3.515   9.751   6.944  2.1619 -0.5908 -1.6775
  215MOL0     H29022   3.462   9.627   6.836  1.9328 -0.2765  0.9297
  215MOL0     H29023   3.165   9.629   7.129  0.3964  1.6704  0.7624
  215MOL0     H29024   2.915   9.750   6.693 -1.3051  0.6358  0.5577
  215MOL0     H29025   2.689   9.742   6.615 -0.4456 -1.9227  0.1071
  216MOL0     O29026   0.666   5.199   4.863 -0.4297  0.5213 -0.2644
  216MOL0     C29027   0.690   5.291   4.783  0.1184 -0.1341 -0.7479
  216MOL0     O29028   0.597   5.359   4.708 -0.1425  0.3297  0.1683
  216MOL0     C29029   0.460   5.340   4.720 -0.1448 -0.7399  0.1137
  216MOL0     C29030   0.384   5.363   4.607  0.8254 -0.3617  1.0394
  216MOL0     C29031   0.243   5.348   4.599  0.2403 -0.5398  0.1713
  216MOL0     C29032   0.174   5.297   4.714 -0.0981 -0.3679  0.6319
  216MOL0     O29033   0.039   5.285   4.716  0.3300  0.3420 -0.7332
  216MOL0     C29034  -0.052   5.335   4.614  0.6422  0.1990 -0.1236
  216MOL0     C29035  -0.094   5.222   4.526 -0.0215  0.2494 -0.4869
  216MOL0     C29036  -0.241   5.243   4.497  1.5515  0.9481  1.3312
  216MOL0     C29037  -0.276   5.365   4.422  0.8320 -0.3036 -0.5614
  216MOL0     C29038  -0.427   5.368   4.401  0.8059  0.0046  0.0385
  216MOL0     C29039  -0.472   5.501   4.340  0.2728 -0.3648  0.5409
  216MOL0     C29040  -0.630   5.522   4.350 -0.1374 -0.1556  0.0525
  216MOL0     C29041  -0.677   5.639   4.261  0.4399  0.1200  0.3398
  216MOL0     N29042  -0.808   5.690   4.303  0.0403  1.0691  0.2295
  216MOL0     C29043  -0.831   5.787   4.390 -0.4525  0.6656 -0.3365
  216MOL0     C29044  -0.962   5.816   4.384  0.0695  0.4905 -0.0606
  216MOL0     C29045  -1.025   5.938   4.440  0.4592 -0.2357  0.3789
  216MOL0     C29046  -1.157   5.972   4.361 -0.3071  0.7164 -0.2362
  216MOL0     C29047  -1.199   6.118   4.411 -0.2107  0.8635 -0.3822
  216MOL0     C29048  -1.351   6.133   4.380 -0.1228 -0.8693 -0.5183
  216MOL0     O29049  -1.421   6.221   4.469  0.6549 -0.4540 -0.5982
  216MOL0     C29050  -1.559   6.221   4.457 -0.8111 -0.0441 -0.3278
  216MOL0     C29051  -1.625   6.305   4.551  1.1328  1.1814 -0.1951
  216MOL0     C29052  -1.766   6.308   4.549 -1.1421  0.0855 -0.8139
  216MOL0     C29053  -1.818   6.387   4.670  0.2967  0.2883  0.9589
  216MOL0     C29054  -1.847   6.234   4.462 -0.6256  0.4167 -0.2778
  216MOL0     C29055  -1.997   6.224   4.452  0.3427  1.4165  0.3814
  216MOL0     O29056  -2.045   6.153   4.343  0.3213  0.0170  0.1732
  216MOL0     C29057  -2.174   6.102   4.339 -0.0150 -0.0438  0.5706
  216MOL0     C29058  -2.264   6.080   4.449  0.7553  0.1519  0.3025
  216MOL0     C29059  -2.380   6.007   4.425  0.1686  0.6815  0.3371
  216MOL0     C29060  -2.421   5.969   4.294  0.0996 -0.7313  0.0730
  216MOL0     O29061  -2.536   5.907   4.271 -0.3194  0.4992 -0.4986
  216MOL0     C29062  -2.639   5.935   4.363  0.3097 -0.8306 -0.5799
  216MOL0     C29063  -2.782   5.926   4.314  0.6076 -0.2165 -0.2122
  216MOL0     C29064  -2.827   5.782   4.287 -0.2055  0.6157  0.0138
  216MOL0     C29065  -2.967   5.780   4.227 -0.2274 -0.3558 -0.5104
  216MOL0     C29066  -2.985   5.652   4.138 -0.0253 -0.1613 -0.7020
  216MOL0     C29067  -3.116   5.643   4.058  0.2757  0.4882 -0.5022
  216MOL0     C29068  -3.115   5.718   3.925  0.0995 -0.0463 -0.5084
  216MOL0     C29069  -3.023   5.655   3.819  0.2271  0.3358  0.5701
  216MOL0    Cl29070  -3.051   5.480   3.777 -0.0706 -0.0486 -0.2480
  216MOL0     C29071  -2.330   5.989   4.188 -0.0598  0.0619 -0.3299
  216MOL0     C29072  -2.209   6.058   4.205 -0.1460 -0.2859 -0.6839
  216MOL0     O29073  -2.071   6.265   4.539 -0.0016 -0.3453  0.1230
  216MOL0     C29074  -1.774   6.154   4.372 -0.0188 -0.0907  0.4055
  216MOL0     C29075  -1.633   6.151   4.368 -0.0991 -0.3871  1.2950
  216MOL0     N29076  -1.017   5.711   4.309  0.3059 -0.6331 -0.0082
  216MOL0     N29077  -0.922   5.639   4.256  0.5838 -0.1430  0.2341
  216MOL0     C29078   0.249   5.287   4.831  0.3280 -0.6376 -0.7256
  216MOL0     C29079   0.390   5.305   4.839  0.6700  0.2055 -0.0010
  216MOL0     C29080   0.835   5.313   4.747  0.2143  0.8316  0.0424
  216MOL0     C29081   0.938   5.221   4.776 -0.1551 -0.0352 -0.2581
  216MOL0     C29082   1.065   5.230   4.731  0.7618 -0.3384  0.1398
  216MOL0     C29083   1.099   5.353   4.668  0.3777  0.4021  0.9153
  216MOL0     O29084   1.226   5.351   4.613 -0.0474  0.1438 -0.0883
  216MOL0     C29085   1.281   5.477   4.576  0.2917 -0.3635 -0.4371
  216MOL0     C29086   1.433   5.475   4.587  0.9675 -0.8026 -0.0380
  216MOL0     C29087   1.508   5.354   4.534  0.3967  0.6831 -0.4498
  216MOL0     C29088   1.485   5.340   4.384 -0.5380  0.0248 -0.8398
  216MOL0     C29089   1.531   5.450   4.299 -0.4577 -0.6866  0.5623
  216MOL0     C29090   1.589   5.535   4.226  0.1036 -0.7225  0.3307
  216MOL0     C29091   1.001   5.450   4.637  0.5052 -0.1849  0.3041
  216MOL0     C29092   0.867   5.428   4.671 -0.2037 -1.0028  0.7822
  216MOL0     H29093   0.431   5.395   4.515  1.5807 -1.7817  0.9066
  216MOL0     H29094   0.194   5.370   4.504 -0.1143  0.2603  0.5274
  216MOL0     H29095  -0.142   5.370   4.666 -0.0984 -3.1155  1.0476
  216MOL0     H29096  -0.011   5.421   4.560  1.1781  2.0245  2.9751
  216MOL0     H29097  -0.029   5.222   4.439  0.9850 -2.1146  0.1782
  216MOL0     H29098  -0.081   5.123   4.571  1.4439 -0.9959 -3.4514
  216MOL0     H29099  -0.270   5.157   4.436 -1.4671  3.3660 -1.0101
  216MOL0     H29100  -0.311   5.226   4.580  1.5727 -0.5908  1.0612
  216MOL0     H29101  -0.241   5.456   4.471 -1.9426  0.0236  1.0035
  216MOL0     H29102  -0.217   5.363   4.330  0.3478  1.6254 -0.9431
  216MOL0     H29103  -0.467   5.286   4.341  2.8228  0.8890 -2.7004
  216MOL0     H29104  -0.470   5.365   4.502 -1.1562  1.0459 -0.7397
  216MOL0     H29105  -0.436   5.591   4.391 -2.1841  1.2383 -0.3721
  216MOL0     H29106  -0.440   5.502   4.236  1.8152  1.7068  0.9800
  216MOL0     H29107  -0.688   5.432   4.324  2.1235 -1.7642  0.3394
  216MOL0     H29108  -0.664   5.550   4.450  0.0334 -0.3791  0.1733
  216MOL0     H29109  -0.681   5.612   4.155  1.4462 -1.6423  0.7024
  216MOL0     H29110  -0.614   5.727   4.275  0.9576 -0.6248  3.5098
  216MOL0     H29111  -0.753   5.851   4.430 -1.2566  0.8140  1.0616
  216MOL0     H29112  -1.047   5.925   4.546  1.1295 -0.8026  0.4533
  216MOL0     H29113  -0.951   6.018   4.430 -0.5690  0.7741  0.5383
  216MOL0     H29114  -1.235   5.896   4.373  1.9440 -1.6235  0.4227
  216MOL0     H29115  -1.124   5.985   4.257  1.5209  0.2827  0.2535
  216MOL0     H29116  -1.140   6.196   4.363 -0.3689  1.2663  0.0639
  216MOL0     H29117  -1.177   6.120   4.518  0.9825 -2.2013 -0.4722
  216MOL0     H29118  -1.389   6.030   4.386  0.5545 -1.0459  1.2059
  216MOL0     H29119  -1.368   6.175   4.280 -2.5797 -0.6921 -0.0830
  216MOL0     H29120  -1.561   6.368   4.611  2.1703 -0.7031  0.7902
  216MOL0     H29121  -1.739   6.408   4.742  0.3212  1.8746  0.5033
  216MOL0     H29122  -1.862   6.478   4.629  0.6267 -1.3654 -3.6728
  216MOL0     H29123  -1.897   6.332   4.723 -1.1279  1.4520  0.1220
  216MOL0     H29124  -2.242   6.105   4.552 -1.8560  0.0762  0.9356
  216MOL0     H29125  -2.427   5.974   4.518  4.6804  0.2635  2.7832
  216MOL0     H29126  -2.636   5.873   4.453  0.7401  0.6660  0.4767
  216MOL0     H29127  -2.633   6.038   4.398  1.2846 -0.9610 -0.3414
  216MOL0     H29128  -2.850   5.965   4.389  1.7382 -0.9234  1.2291
  216MOL0     H29129  -2.779   5.990   4.225 -1.1696  1.5843  0.9499
  216MOL0     H29130  -2.832   5.738   4.387 -1.5690  1.6385  0.4206
  216MOL0     H29131  -2.758   5.726   4.222 -2.2879 -1.0817 -0.8291
  216MOL0     H29132  -3.039   5.787   4.310 -0.7669  1.4108 -1.0902
  216MOL0     H29133  -2.985   5.870   4.167  2.2930  1.7309  1.6153
  216MOL0     H29134  -2.981   5.576   4.216 -0.4722  0.8920  0.3792
  216MOL0     H29135  -2.895   5.635   4.079  1.4136 -3.8627  2.1709
  216MOL0     H29136  -3.139   5.538   4.040  0.6999  0.4090 -0.6078
  216MOL0     H29137  -3.192   5.680   4.127  1.0695 -1.1246  1.3264
  216MOL0     H29138  -3.077   5.819   3.941 -0.2370  0.1282 -0.8191
  216MOL0     H29139  -3.221   5.729   3.904 -0.0982  1.7693  1.1628
  216MOL0     H29140  -2.918   5.664   3.848  0.6931 -2.4036  0.0688
  216MOL0     H29141  -3.033   5.714   3.728  0.6093  0.0373  0.3338
  216MOL0     H29142  -2.372   5.969   4.090 -0.6255 -0.1497 -0.0476
  216MOL0     H29143  -2.146   6.069   4.117 -1.4609 -1.8099 -1.8642
  216MOL0     H29144  -1.826   6.089   4.302 -0.0464 -1.6627  1.8253
  216MOL0     H29145  -1.579   6.097   4.291  1.2186 -0.1229  2.0020
  216MOL0     H29146   0.201   5.270   4.927 -1.1344  2.8309 -0.7281
  216MOL0     H29147   0.454   5.285   4.925  0.2371  0.1225  0.3091
  216MOL0     H29148   0.919   5.131   4.834  0.4604  2.2280  3.7956
  216MOL0     H29149   1.137   5.157   4.766 -1.2287 -2.8199 -0.5983
  216MOL0     H29150   1.246   5.489   4.473  0.4938 -3.4343 -0.9548
  216MOL0     H29151   1.235   5.553   4.641  1.3437  0.6964 -0.9067
  216MOL0     H29152   1.442   5.495   4.694 -3.1288 -0.3055  0.3529
  216MOL0     H29153   1.476   5.563   4.537  1.6141 -1.0356  0.0993
  216MOL0     H29154   1.482   5.263   4.589 -2.0829 -0.0724 -2.6423
  216MOL0     H29155   1.615   5.367   4.548  0.2469 -0.4377  2.3108
  216MOL0     H29156   1.378   5.323   4.366 -0.6119  2.6494 -3.5738
  216MOL0     H29157   1.550   5.257   4.355 -0.7404 -0.5398  0.2835
  216MOL0     H29158   1.631   5.603   4.155 -2.1945  1.7589  1.2156
  216MOL0     H29159   1.013   5.538   4.575  0.6346  0.1191  0.7533
  216MOL0     H29160   0.795   5.502   4.639  0.7429  0.4504  1.8877
  217MOL0     O29161   0.144   2.312   6.043 -0.0858 -0.4684 -0.2967
  217MOL0     C29162   0.244   2.239   6.047  1.0372 -0.3694  0.4655
  217MOL0     O29163   0.240   2.112   6.103 -0.4420 -0.2148 -0.2392
  217MOL0     C29164   0.116   2.084   6.150 -0.3450 -0.1407 -0.4441
  217MOL0     C29165   0.007   2.064   6.059 -0.0714  0.0124 -0.4078
  217MOL0     C29166  -0.114   2.022   6.113 -0.2323  0.2337 -0.3174
  217MOL0     C29167  -0.129   1.984   6.246 -1.3304 -0.4393 -0.2156
  217MOL0     O29168  -0.252   1.949   6.289 -0.2042 -0.8637  0.2153
  217MOL0     C29169  -0.325   1.852   6.209  0.2498 -0.1716  0.4140
  217MOL0     C29170  -0.480   1.893   6.205 -0.2681 -0.7568  0.2532
  217MOL0     C29171  -0.551   1.856   6.335  0.2845 -0.2518 -0.0523
  217MOL0     C29172  -0.698   1.907   6.338  0.3063  0.0144 -0.6850
  217MOL0     C29173  -0.769   1.852   6.460 -0.3699  0.4261 -0.0003
  217MOL0     C29174  -0.709   1.875   6.596 -0.1588  0.9386 -0.3038
  217MOL0     C29175  -0.816   1.845   6.701 -0.1600 -0.7701  0.3572
  217MOL0     C29176  -0.751   1.845   6.847  0.1333 -0.0621 -0.0714
  217MOL0     N29177  -0.662   1.733   6.880  0.3083  0.3866  0.5912
  217MOL0     C29178  -0.534   1.754   6.883 -0.7787 -0.2207 -0.0952
  217MOL0     C29179  -0.490   1.634   6.889 -1.3167  0.6696 -0.4374
  217MOL0     C29180  -0.349   1.603   6.900 -1.1296 -0.1682 -0.4888
  217MOL0     C29181  -0.267   1.652   6.783  0.8814  0.4122 -0.0311
  217MOL0     C29182  -0.311   1.607   6.651 -0.2348  1.1567 -0.1756
  217MOL0     C29183  -0.312   1.457   6.624 -0.6270 -0.1996  0.5637
  217MOL0     O29184  -0.341   1.427   6.489 -0.3673 -0.4016  0.1096
  217MOL0     C29185  -0.471   1.450   6.442 -0.0880 -1.1359  0.2732
  217MOL0     C29186  -0.591   1.456   6.516 -0.1280 -0.8202  0.1276
  217MOL0     C29187  -0.717   1.483   6.464 -0.1180 -0.6187  0.1950
  217MOL0     C29188  -0.845   1.482   6.550 -0.3501  0.2875  0.3276
  217MOL0     C29189  -0.724   1.516   6.324  0.1562 -0.0319  0.1935
  217MOL0     C29190  -0.839   1.567   6.256 -0.5525 -0.0629 -0.3909
  217MOL0     O29191  -0.819   1.579   6.118 -0.2401 -0.1802  0.5222
  217MOL0     C29192  -0.921   1.631   6.040  0.1211  0.7718 -0.7500
  217MOL0     C29193  -1.019   1.729   6.072 -0.0708  0.1809 -0.3852
  217MOL0     C29194  -1.108   1.776   5.975 -0.0648 -0.4053  0.0487
  217MOL0     C29195  -1.103   1.727   5.846 -0.3242 -0.5737 -0.8029
  217MOL0     O29196  -1.208   1.767   5.772  0.0057 -0.4317 -0.4139
  217MOL0     C29197  -1.289   1.667   5.709 -0.0668  0.2752  0.6035
  217MOL0     C29198  -1.241   1.649   5.559 -0.0384 -0.0985  0.1184
  217MOL0     C29199  -1.339   1.562   5.484 -0.0250 -0.0461  0.8337
  217MOL0     C29200  -1.300   1.524   5.338  0.1680  0.1706  0.6123
  217MOL0     C29201  -1.347   1.378   5.308 -0.5214  0.5505 -0.1427
  217MOL0     C29202  -1.492   1.330   5.351  0.3949 -0.5972 -0.5001
  217MOL0     C29203  -1.592   1.432   5.289 -0.3390  0.8133 -0.0514
  217MOL0     C29204  -1.730   1.419   5.358  0.6449 -0.5521  0.7097
  217MOL0    Cl29205  -1.727   1.492   5.528 -0.1563 -0.0019 -0.3090
  217MOL0     C29206  -1.013   1.623   5.809 -0.2804  0.7639 -0.3276
  217MOL0     C29207  -0.926   1.577   5.911  0.0178  0.3905  0.3743
  217MOL0     O29208  -0.938   1.607   6.318  0.1712  0.1440 -0.4095
  217MOL0     C29209  -0.603   1.511   6.252  0.4958 -0.3199  0.9494
  217MOL0     C29210  -0.481   1.472   6.307  0.1690  0.2290 -0.3193
  217MOL0     N29211  -0.588   1.539   6.884 -0.0858 -0.1821  0.4234
  217MOL0     N29212  -0.699   1.602   6.883  0.4254  0.5382  0.0196
  217MOL0     C29213  -0.021   1.984   6.328  0.0398 -0.4453 -0.0213
  217MOL0     C29214   0.104   2.033   6.280  0.4505 -0.2166  0.0415
  217MOL0     C29215   0.360   2.292   5.973 -0.1706  0.7330 -0.3106
  217MOL0     C29216   0.376   2.435   5.958  0.6628  0.7889 -0.3821
  217MOL0     C29217   0.508   2.483   5.948 -0.7102  0.1028 -0.9804
  217MOL0     C29218   0.617   2.401   5.923  0.7855  0.8851  0.3146
  217MOL0     O29219   0.741   2.451   5.903  0.0591  0.1018  0.3814
  217MOL0     C29220   0.845   2.370   5.853 -0.4231  0.2012  0.1555
  217MOL0     C29221   0.979   2.439   5.843  0.3153  0.1643  1.0007
  217MOL0     C29222   1.094   2.349   5.817 -0.0809  0.1570 -0.4318
  217MOL0     C29223   1.079   2.257   5.693 -0.8590  0.9380 -1.0920
  217MOL0     C29224   1.213   2.193   5.680 -0.1088  0.3727 -0.1994
  217MOL0     C29225   1.321   2.142   5.673  0.7470  0.7742  0.2869
  217MOL0     C29226   0.600   2.262   5.916  0.2212  0.1233  0.0784
  217MOL0     C29227   0.472   2.215   5.942  0.5175 -0.5999 -0.3348
  217MOL0     H29228   0.024   2.095   5.956 -2.3033 -0.4268 -0.9566
  217MOL0     H29229  -0.205   2.024   6.054  0.5907 -0.5208 -1.6770
  217MOL0     H29230  -0.301   1.852   6.102  2.7297 -1.3456  0.8900
  217MOL0     H29231  -0.298   1.752   6.244  1.2757 -0.1291 -0.1915
  217MOL0     H29232  -0.490   2.000   6.184  2.0089  0.7065  5.1190
  217MOL0     H29233  -0.529   1.843   6.121  1.0534  0.2899 -1.2002
  217MOL0     H29234  -0.547   1.747   6.342 -0.3702 -0.2991 -0.3429
  217MOL0     H29235  -0.489   1.907   6.409  0.7553 -0.4495 -0.3071
  217MOL0     H29236  -0.705   2.016   6.341 -1.7786  0.0423  4.8153
  217MOL0     H29237  -0.747   1.871   6.247  1.5436 -1.8934 -0.6634
  217MOL0     H29238  -0.871   1.891   6.455 -1.8123 -3.1047 -0.7269
  217MOL0     H29239  -0.787   1.744   6.455 -0.2664  0.3342  1.2956
  217MOL0     H29240  -0.619   1.816   6.617 -1.1179  0.1380  1.8597
  217MOL0     H29241  -0.679   1.980   6.599 -0.5107  1.0511 -0.7679
  217MOL0     H29242  -0.891   1.924   6.702  1.2989  0.6478  0.9602
  217MOL0     H29243  -0.864   1.747   6.685  0.8339 -1.4535  1.3971
  217MOL0     H29244  -0.824   1.850   6.928  1.5186 -0.7398  1.2914
  217MOL0     H29245  -0.692   1.937   6.853 -0.0316 -0.0264  2.1020
  217MOL0     H29246  -0.485   1.850   6.869 -1.3407 -0.0154 -0.7054
  217MOL0     H29247  -0.316   1.645   6.995  0.0280  1.7721 -1.6732
  217MOL0     H29248  -0.341   1.495   6.915 -1.4548 -0.0263  0.7824
  217MOL0     H29249  -0.165   1.613   6.788  1.4421  1.5606 -1.6847
  217MOL0     H29250  -0.256   1.760   6.777 -1.5337  1.0074  3.4148
  217MOL0     H29251  -0.243   1.651   6.576 -1.5098  1.8086 -0.9879
  217MOL0     H29252  -0.414   1.638   6.631 -0.4048  0.4983 -0.3493
  217MOL0     H29253  -0.381   1.403   6.690 -1.6715  0.5556  0.1110
  217MOL0     H29254  -0.214   1.416   6.647 -1.1664 -2.8834 -1.4624
  217MOL0     H29255  -0.594   1.436   6.623 -2.9265  1.7490  0.6732
  217MOL0     H29256  -0.821   1.442   6.649 -1.5396  0.5156  0.7243
  217MOL0     H29257  -0.875   1.586   6.566 -1.8570 -0.2051  0.8145
  217MOL0     H29258  -0.928   1.425   6.506 -1.0338  1.5650 -0.0837
  217MOL0     H29259  -1.015   1.770   6.172  1.6189 -1.2759  0.2197
  217MOL0     H29260  -1.176   1.854   6.009 -0.8501 -1.3239  0.6586
  217MOL0     H29261  -1.296   1.572   5.764 -0.8043 -0.3952 -0.5947
  217MOL0     H29262  -1.390   1.706   5.698 -0.4773 -1.2513 -2.0967
  217MOL0     H29263  -1.215   1.745   5.513  1.6437 -0.8513 -0.5901
  217MOL0     H29264  -1.148   1.593   5.567 -0.7957 -1.0487  4.0435
  217MOL0     H29265  -1.436   1.613   5.479 -1.8862 -3.3730  0.4488
  217MOL0     H29266  -1.344   1.468   5.539 -2.9558  0.6321  1.8963
  217MOL0     H29267  -1.354   1.591   5.271 -3.3980 -1.1903  1.8740
  217MOL0     H29268  -1.191   1.520   5.326 -0.0401  2.0050 -3.8353
  217MOL0     H29269  -1.267   1.310   5.340 -0.8067  0.1440 -0.2897
  217MOL0     H29270  -1.344   1.377   5.199 -1.9757  0.3118 -0.1988
  217MOL0     H29271  -1.516   1.231   5.311  2.0034 -1.4293  0.5207
  217MOL0     H29272  -1.508   1.326   5.460 -3.4916  0.5274 -0.8550
  217MOL0     H29273  -1.604   1.421   5.181  0.4274 -2.2190  0.0876
  217MOL0     H29274  -1.554   1.531   5.317 -0.1448  0.8522 -0.4461
  217MOL0     H29275  -1.756   1.313   5.352 -1.5528  0.0295 -2.5141
  217MOL0     H29276  -1.801   1.470   5.293  0.1560  2.4659  3.3604
  217MOL0     H29277  -0.984   1.591   5.709  2.1343  1.7315 -0.0169
  217MOL0     H29278  -0.848   1.504   5.889  1.3836  1.3129  1.9449
  217MOL0     H29279  -0.606   1.528   6.144  0.0805 -1.8768  0.6919
  217MOL0     H29280  -0.395   1.456   6.243  0.0445 -3.4669  0.1865
  217MOL0     H29281  -0.025   1.962   6.434 -2.9307  1.8120  0.4546
  217MOL0     H29282   0.185   2.018   6.351 -1.3689 -0.6310  2.1320
  217MOL0     H29283   0.303   2.510   5.983 -0.7741 -1.1000  1.4356
  217MOL0     H29284   0.521   2.590   5.958 -0.4992  0.0660 -0.8698
  217MOL0     H29285   0.862   2.278   5.909 -0.5733 -1.0064 -1.6885
  217MOL0     H29286   0.810   2.334   5.756 -0.0395  0.8862 -0.2448
  217MOL0     H29287   1.007   2.473   5.943  5.0267 -3.1956  1.1668
  217MOL0     H29288   0.978   2.529   5.782 -0.8795 -0.4768  0.0263
  217MOL0     H29289   1.100   2.290   5.909  1.8548  0.7212 -0.1661
  217MOL0     H29290   1.185   2.406   5.799 -0.0601  0.4735  0.5766
  217MOL0     H29291   1.051   2.317   5.607 -1.4412 -0.0869 -1.6351
  217MOL0     H29292   1.002   2.181   5.708  0.9343 -0.9541 -0.8647
  217MOL0     H29293   1.409   2.082   5.673  1.2050  1.4279 -0.7440
  217MOL0     H29294   0.674   2.189   5.884  2.3575  1.6704  1.3048
  217MOL0     H29295   0.453   2.109   5.928 -3.1843 -0.2097  0.7271
  218MOL0     O29296   2.593   5.229   0.176  0.0293 -0.4820 -0.2472
  218MOL0     C29297   2.617   5.202   0.297  0.3572 -0.4408  0.0320
  218MOL0     O29298   2.525   5.177   0.391  0.1148  0.0238 -0.5101
  218MOL0     C29299   2.399   5.224   0.384 -0.9967  0.4772 -0.1715
  218MOL0     C29300   2.350   5.343   0.329  0.5577  0.5764  0.6755
  218MOL0     C29301   2.211   5.371   0.331  0.1281 -0.3981  0.8366
  218MOL0     C29302   2.115   5.286   0.390  0.1050  0.4539  0.1795
  218MOL0     O29303   1.982   5.320   0.389 -0.2371 -0.4193 -0.5784
  218MOL0     C29304   1.888   5.252   0.476 -0.2695  0.4247  0.4471
  218MOL0     C29305   1.747   5.291   0.450  0.2913  0.4421 -0.2209
  218MOL0     C29306   1.734   5.425   0.528  0.6479 -0.4874 -0.3586
  218MOL0     C29307   1.600   5.476   0.478 -0.4111 -1.2353 -0.4325
  218MOL0     C29308   1.577   5.612   0.537  0.0615 -0.1020 -0.8481
  218MOL0     C29309   1.456   5.689   0.490  0.2926 -0.1625  0.1718
  218MOL0     C29310   1.318   5.615   0.523 -0.7103  0.1651  0.1236
  218MOL0     C29311   1.202   5.624   0.419  0.0217  0.3791 -0.1128
  218MOL0     N29312   1.149   5.762   0.433 -0.1871  0.1769  0.1602
  218MOL0     C29313   1.048   5.796   0.516  0.6989 -0.6644  0.4789
  218MOL0     C29314   1.000   5.911   0.458 -0.6790 -0.5560  0.6469
  218MOL0     C29315   0.902   6.006   0.523 -0.5908 -0.3680 -0.3961
  218MOL0     C29316   0.763   5.939   0.540  0.3462  0.1314 -0.0976
  218MOL0     C29317   0.686   6.002   0.656 -0.7197 -0.2854  0.7646
  218MOL0     C29318   0.642   6.148   0.620 -0.2501 -0.2248  0.9382
  218MOL0     O29319   0.579   6.145   0.487  0.4712 -0.3037  0.0328
  218MOL0     C29320   0.446   6.135   0.463 -0.2093 -0.2620 -0.2747
  218MOL0     C29321   0.351   6.107   0.568 -0.7334 -0.3953  0.0912
  218MOL0     C29322   0.214   6.092   0.540 -0.2656  1.1130  0.3170
  218MOL0     C29323   0.123   6.073   0.656  0.3540  0.8472 -0.2693
  218MOL0     C29324   0.173   6.105   0.402 -0.1718  0.3462 -0.6719
  218MOL0     C29325   0.032   6.104   0.364  0.5033  0.1180 -0.2647
  218MOL0     O29326   0.013   6.162   0.242  0.0240 -0.3259  0.0909
  218MOL0     C29327  -0.110   6.202   0.194 -0.3391  0.9414  0.0557
  218MOL0     C29328  -0.128   6.176   0.059 -0.1932  0.6349 -0.3911
  218MOL0     C29329  -0.244   6.217  -0.012 -0.3788 -0.0889 -1.1656
  218MOL0     C29330  -0.348   6.274   0.056  0.6173  0.0406 -0.2493
  218MOL0     O29331  -0.462   6.302  -0.010 -0.8749 -0.1966 -0.0740
  218MOL0     C29332  -0.498   6.221  -0.120 -0.4701  0.2418  0.0866
  218MOL0     C29333  -0.626   6.268  -0.185  0.8441 -0.0562 -0.5015
  218MOL0     C29334  -0.747   6.289  -0.088  0.6068 -1.2379  0.6667
  218MOL0     C29335  -0.879   6.314  -0.162  0.2717 -0.5978  0.1365
  218MOL0     C29336  -0.995   6.376  -0.079 -0.8595 -0.7636 -1.1679
  218MOL0     C29337  -1.096   6.285  -0.006 -0.2894 -0.7849 -0.3867
  218MOL0     C29338  -1.220   6.354   0.037 -0.5019  0.0977  0.6843
  218MOL0     C29339  -1.321   6.253   0.106  0.1393  0.6523  0.1089
  218MOL0    Cl29340  -1.446   6.372   0.166 -0.1176  0.2509  0.0236
  218MOL0     C29341  -0.331   6.305   0.195 -0.1447  0.1139 -0.1243
  218MOL0     C29342  -0.211   6.262   0.266  0.6477  0.5585  0.3177
  218MOL0     O29343  -0.058   6.066   0.441 -0.0996 -0.5866 -0.5702
  218MOL0     C29344   0.267   6.139   0.306 -0.2855 -0.5785  0.2248
  218MOL0     C29345   0.401   6.158   0.332 -0.2451  0.2137 -0.1788
  218MOL0     N29346   1.077   5.950   0.354 -0.4146  0.4230  0.2921
  218MOL0     N29347   1.161   5.854   0.333 -0.5146  1.5563  0.6500
  218MOL0     C29348   2.169   5.172   0.451 -0.4049 -0.8080  0.3715
  218MOL0     C29349   2.303   5.136   0.449 -0.1879  0.3574 -0.1052
  218MOL0     C29350   2.762   5.175   0.324  0.0589  0.6034  0.0867
  218MOL0     C29351   2.852   5.222   0.229 -0.6609 -0.1080 -0.8104
  218MOL0     C29352   2.987   5.194   0.241 -0.0756  0.6951  0.4394
  218MOL0     C29353   3.033   5.116   0.343  0.0011 -0.5005  0.0837
  218MOL0     O29354   3.168   5.085   0.345  0.3461 -0.5854  0.1532
  218MOL0     C29355   3.238   5.055   0.464 -0.2530  0.0940 -0.6329
  218MOL0     C29356   3.268   5.200   0.516 -0.5726 -0.2087 -0.4509
  218MOL0     C29357   3.320   5.308   0.425 -0.4393 -0.2985  0.2181
  218MOL0     C29358   3.455   5.267   0.366 -0.6575  0.5988  0.4539
  218MOL0     C29359   3.529   5.390   0.336  0.4309 -0.4027  0.1901
  218MOL0     C29360   3.573   5.501   0.321 -0.7762 -0.5868 -0.5754
  218MOL0     C29361   2.943   5.080   0.446  0.9740  0.7623  0.3554
  218MOL0     C29362   2.808   5.112   0.441 -0.3282 -0.0695 -0.4295
  218MOL0     H29363   2.415   5.417   0.282  3.2750 -2.0169 -0.0246
  218MOL0     H29364   2.169   5.460   0.285 -0.5245 -0.5274  1.1720
  218MOL0     H29365   1.902   5.145   0.458  0.0974  0.7425 -1.3198
  218MOL0     H29366   1.917   5.275   0.579 -3.5314 -0.3578  1.6603
  218MOL0     H29367   1.736   5.287   0.341 -2.4664 -3.2077 -0.0084
  218MOL0     H29368   1.680   5.215   0.491 -0.6681  1.4470  0.1069
  218MOL0     H29369   1.732   5.417   0.637 -4.5283 -1.5159 -0.2713
  218MOL0     H29370   1.807   5.499   0.495  1.3946 -0.7109  0.7330
  218MOL0     H29371   1.606   5.493   0.370 -2.2866  3.0940 -0.0490
  218MOL0     H29372   1.515   5.412   0.506 -1.3958  0.8955  1.8114
  218MOL0     H29373   1.577   5.600   0.646  2.1635  0.5022 -0.7297
  218MOL0     H29374   1.668   5.670   0.519  0.5277 -1.2348 -2.2612
  218MOL0     H29375   1.460   5.789   0.534 -2.4178 -0.4895  1.3963
  218MOL0     H29376   1.465   5.700   0.382  3.1255  0.9129  0.4302
  218MOL0     H29377   1.338   5.510   0.545 -0.8813  0.3507  1.2183
  218MOL0     H29378   1.281   5.651   0.620 -0.7736 -1.1919  0.6153
  218MOL0     H29379   1.129   5.546   0.440 -0.0761  0.3398 -0.5918
  218MOL0     H29380   1.234   5.612   0.315  0.1343  2.6065 -0.3722
  218MOL0     H29381   1.015   5.742   0.604 -0.6450 -1.5564 -0.5413
  218MOL0     H29382   0.940   6.040   0.620  2.4479  2.1781 -2.3009
  218MOL0     H29383   0.887   6.096   0.462  0.0530 -0.1655 -0.2641
  218MOL0     H29384   0.784   5.834   0.565  0.1964 -0.3765 -1.9962
  218MOL0     H29385   0.708   5.927   0.446 -2.8408 -0.1928  1.6677
  218MOL0     H29386   0.751   5.999   0.744 -0.9901 -1.6773  0.9408
  218MOL0     H29387   0.596   5.943   0.673 -0.0585 -1.8702 -0.8583
  218MOL0     H29388   0.728   6.215   0.620  1.0648 -1.8489  1.4606
  218MOL0     H29389   0.565   6.194   0.683 -1.4314 -1.8423  0.7398
  218MOL0     H29390   0.393   6.089   0.666 -0.6733 -1.1444 -0.0650
  218MOL0     H29391   0.042   6.147   0.659 -1.7181 -1.1807 -1.7872
  218MOL0     H29392   0.082   5.971   0.659 -0.2678  1.1128  0.8160
  218MOL0     H29393   0.180   6.071   0.749  1.8276 -2.0389 -1.1283
  218MOL0     H29394  -0.048   6.128   0.004  1.0256  0.5665  1.3636
  218MOL0     H29395  -0.230   6.190  -0.117  0.9790  0.2179 -1.0820
  218MOL0     H29396  -0.418   6.219  -0.194 -1.5277 -1.3403 -1.1058
  218MOL0     H29397  -0.512   6.123  -0.072  2.4110 -0.4674 -0.3172
  218MOL0     H29398  -0.616   6.370  -0.224 -3.8393  0.6234 -0.5006
  218MOL0     H29399  -0.663   6.213  -0.272  1.3867 -0.4372 -0.4988
  218MOL0     H29400  -0.739   6.377  -0.022 -2.5547  0.6868 -1.2321
  218MOL0     H29401  -0.770   6.207  -0.020 -0.2959 -0.0934  1.8046
  218MOL0     H29402  -0.867   6.381  -0.248 -1.6391  1.0432  1.0710
  218MOL0     H29403  -0.908   6.217  -0.203  0.1557 -0.5021 -0.0075
  218MOL0     H29404  -1.047   6.450  -0.140 -0.0866 -0.1118 -1.0704
  218MOL0     H29405  -0.949   6.444  -0.006  2.2919  0.2676 -3.8405
  218MOL0     H29406  -1.121   6.212  -0.085 -1.7247  1.3904 -2.0695
  218MOL0     H29407  -1.045   6.230   0.074  1.0076 -2.4331 -2.2279
  218MOL0     H29408  -1.272   6.402  -0.046 -0.8318 -1.2482  0.0931
  218MOL0     H29409  -1.201   6.439   0.104  0.8130  1.3495 -1.1805
  218MOL0     H29410  -1.275   6.199   0.189  1.1771  1.7113  0.2460
  218MOL0     H29411  -1.373   6.192   0.031 -0.6234 -1.2330  2.0444
  218MOL0     H29412  -0.412   6.356   0.245 -0.2952 -0.6293  0.4053
  218MOL0     H29413  -0.200   6.277   0.372 -0.6397  1.1726  0.3784
  218MOL0     H29414   0.239   6.161   0.204  1.3790  0.8574  0.0435
  218MOL0     H29415   0.466   6.168   0.246  1.8839 -1.6043  1.0810
  218MOL0     H29416   2.104   5.111   0.513 -0.7961  0.2518  1.0340
  218MOL0     H29417   2.330   5.047   0.504  2.2745  0.6405 -0.7612
  218MOL0     H29418   2.821   5.272   0.138 -4.6450  2.0743  1.4623
  218MOL0     H29419   3.055   5.235   0.167 -1.8088 -2.1021 -3.0095
  218MOL0     H29420   3.191   4.992   0.540  3.2488  0.1505  1.8317
  218MOL0     H29421   3.336   5.014   0.441 -0.7626 -2.1570  0.9156
  218MOL0     H29422   3.332   5.185   0.604 -1.4033 -0.9902  0.0438
  218MOL0     H29423   3.172   5.232   0.557 -0.0700  0.9154 -0.1263
  218MOL0     H29424   3.333   5.394   0.491  2.8244 -1.5521  1.3651
  218MOL0     H29425   3.258   5.336   0.339 -1.8262  1.2137  1.6293
  218MOL0     H29426   3.431   5.216   0.273 -1.4311  1.1717  0.3325
  218MOL0     H29427   3.518   5.213   0.437 -1.9492 -1.0583  0.3848
  218MOL0     H29428   3.629   5.583   0.283 -1.5058  0.4909  0.6059
  218MOL0     H29429   2.970   5.033   0.540  2.0327  2.2588  0.8507
  218MOL0     H29430   2.736   5.091   0.520  0.3990  3.6435  1.4780
  219MOL0     O29431   4.250  10.366  10.675  0.3297  0.0667  0.1154
  219MOL0     C29432   4.219  10.252  10.717  0.2291 -0.2335  0.0673
  219MOL0     O29433   4.092  10.192  10.720 -0.0355 -0.5174  0.0114
  219MOL0     C29434   3.985  10.280  10.707  0.9808  0.2195  0.7439
  219MOL0     C29435   3.974  10.368  10.598 -0.0488 -0.0361  0.1955
  219MOL0     C29436   3.865  10.446  10.592 -0.2317 -0.1647  0.2127
  219MOL0     C29437   3.760  10.435  10.685 -0.1096  0.2711 -1.0283
  219MOL0     O29438   3.653  10.517  10.665 -0.3138  0.1702 -0.1381
  219MOL0     C29439   3.527  10.485  10.727  0.8375  0.1188  0.5892
  219MOL0     C29440   3.420  10.577  10.658 -0.3267  0.5250  0.1451
  219MOL0     C29441   3.276  10.545  10.693  0.7483  0.4032 -0.1179
  219MOL0     C29442   3.237  10.600  10.834  0.2631  0.3959  0.5695
  219MOL0     C29443   3.098  10.567  10.896 -0.8978  0.4832  0.7992
  219MOL0     C29444   3.013  10.686  10.892 -0.3240 -0.9003  0.2301
  219MOL0     C29445   2.869  10.645  10.944 -0.2322  0.2564 -0.2478
  219MOL0     C29446   2.806  10.547  10.845  0.1071  0.9965  0.1160
  219MOL0     N29447   2.666  10.558  10.845  0.4128 -0.1018 -0.5790
  219MOL0     C29448   2.589  10.660  10.796  0.2104 -0.0315 -0.2286
  219MOL0     C29449   2.458  10.631  10.822 -0.2636  0.2621  0.2875
  219MOL0     C29450   2.344  10.721  10.788 -1.2613  0.9494 -0.6400
  219MOL0     C29451   2.236  10.654  10.706 -0.3303 -0.3741  0.5177
  219MOL0     C29452   2.247  10.670  10.555  0.5340 -0.2678 -1.3408
  219MOL0     C29453   2.153  10.581  10.476  0.2214  0.2617 -0.6504
  219MOL0     O29454   2.022  10.576  10.523  0.6666 -0.1118 -0.0926
  219MOL0     C29455   1.917  10.527  10.446  0.3596  0.3717 -0.0725
  219MOL0     C29456   1.930  10.463  10.321 -0.4459 -0.1829  0.0361
  219MOL0     C29457   1.823  10.400  10.253  0.0531 -0.9198 -0.3995
  219MOL0     C29458   1.850  10.346  10.114  0.4559 -0.0090  0.4695
  219MOL0     C29459   1.699  10.396  10.322 -0.1233 -0.1747  0.4938
  219MOL0     C29460   1.584  10.310  10.273 -0.5187 -1.2005  0.1682
  219MOL0     O29461   1.611  10.228  10.159  0.1561 -0.1904 -0.0635
  219MOL0     C29462   1.502  10.173  10.092  0.0638  0.7362  0.1465
  219MOL0     C29463   1.465  10.043  10.127 -0.1325 -0.2338  1.0891
  219MOL0     C29464   1.353   9.992  10.054 -1.0190 -0.8570  0.4806
  219MOL0     C29465   1.295  10.054   9.943  0.4966  0.1799  0.9084
  219MOL0     O29466   1.192  10.002   9.866 -0.1438  0.2860 -0.6055
  219MOL0     C29467   1.070   9.971   9.941  0.4385  0.0715 -0.4115
  219MOL0     C29468   0.964   9.924   9.842 -0.3681 -0.0760 -0.0394
  219MOL0     C29469   0.844   9.866   9.908  0.5513  0.1932  0.8227
  219MOL0     C29470   0.743   9.811   9.809 -0.3215  0.2179  0.1551
  219MOL0     C29471   0.598   9.780   9.855  0.7245  0.4102  0.5741
  219MOL0     C29472   0.515   9.913   9.870 -0.2993  0.5378 -0.6620
  219MOL0     C29473   0.388   9.882   9.951  0.0848 -0.0446 -0.7221
  219MOL0     C29474   0.423   9.886  10.104 -0.0030  1.6769 -0.0214
  219MOL0    Cl29475   0.278   9.928  10.200 -0.0190 -0.1693 -0.1762
  219MOL0     C29476   1.341  10.182   9.915  0.4267  0.1229  0.7006
  219MOL0     C29477   1.443  10.238   9.991  0.2090 -0.3287  0.2216
  219MOL0     O29478   1.477  10.316  10.325  0.1377  0.0236 -0.3285
  219MOL0     C29479   1.683  10.455  10.443 -0.7118 -0.1358  0.3702
  219MOL0     C29480   1.791  10.523  10.510  0.3693  0.4898  0.9509
  219MOL0     N29481   2.457  10.514  10.898  0.1159 -0.0507  0.5302
  219MOL0     N29482   2.581  10.468  10.911 -0.2552  0.4235 -0.2338
  219MOL0     C29483   3.763  10.345  10.790  0.5736  0.6271  0.0502
  219MOL0     C29484   3.877  10.267  10.800  0.2388  0.1554  0.6143
  219MOL0     C29485   4.329  10.159  10.747 -0.0410  1.0227  0.3196
  219MOL0     C29486   4.313  10.040  10.814  0.3336 -0.1396  0.0212
  219MOL0     C29487   4.419   9.948  10.832 -0.7272  0.4673 -0.1874
  219MOL0     C29488   4.544   9.985  10.774  0.6739  0.1406 -1.0703
  219MOL0     O29489   4.650   9.905  10.768 -0.3394  0.1335  0.2094
  219MOL0     C29490   4.644   9.774  10.828 -0.5758 -0.0901 -0.5073
  219MOL0     C29491   4.775   9.696  10.810  0.0537 -0.4496 -0.6868
  219MOL0     C29492   4.883   9.748  10.906 -0.0237  0.2729 -0.8077
  219MOL0     C29493   5.021   9.690  10.872 -0.4052  0.0100  0.0046
  219MOL0     C29494   5.038   9.545  10.914 -0.4129  0.5746  0.5301
  219MOL0     C29495   5.054   9.432  10.935 -0.4245 -0.2802 -0.1210
  219MOL0     C29496   4.564  10.106  10.723 -0.1415 -0.1840 -0.9987
  219MOL0     C29497   4.463  10.199  10.715  0.0387  1.4855 -0.4486
  219MOL0     H29498   4.044  10.359  10.516 -0.6617 -0.6008 -0.2709
  219MOL0     H29499   3.855  10.501  10.499 -2.8960  0.0646  0.5463
  219MOL0     H29500   3.493  10.384  10.706  0.9654  0.6136 -2.5403
  219MOL0     H29501   3.525  10.503  10.834  0.5970  1.4300  0.3814
  219MOL0     H29502   3.439  10.683  10.677 -1.8985  0.7409  0.6725
  219MOL0     H29503   3.426  10.573  10.549  0.2154  2.6190  0.0611
  219MOL0     H29504   3.214  10.590  10.614  1.9259 -1.4945 -2.2340
  219MOL0     H29505   3.255  10.438  10.690 -1.7929  0.7289  2.1261
  219MOL0     H29506   3.310  10.551  10.899 -0.3014 -0.8219  0.3250
  219MOL0     H29507   3.253  10.708  10.839  1.3146  0.3568 -1.0167
  219MOL0     H29508   3.059  10.484  10.836  1.1587 -0.3045  0.4730
  219MOL0     H29509   3.119  10.537  10.998  1.0015  0.2688  0.3863
  219MOL0     H29510   3.064  10.761  10.953  0.9551 -1.2686 -0.3494
  219MOL0     H29511   2.997  10.718  10.788  0.7077  0.1887  0.3885
  219MOL0     H29512   2.869  10.589  11.038 -0.3250 -2.3263 -1.6844
  219MOL0     H29513   2.808  10.735  10.959 -1.3618 -0.7267  1.4149
  219MOL0     H29514   2.840  10.446  10.871  1.0097  0.9755 -1.0858
  219MOL0     H29515   2.841  10.561  10.743 -0.4180 -1.9004 -0.5519
  219MOL0     H29516   2.629  10.743  10.738  1.9943 -0.3453  0.4621
  219MOL0     H29517   2.303  10.751  10.885  0.7906  1.2018  0.1942
  219MOL0     H29518   2.378  10.809  10.734  0.2179 -0.2818 -1.8197
  219MOL0     H29519   2.143  10.708  10.726 -0.5901  0.2899 -2.1211
  219MOL0     H29520   2.231  10.551  10.742 -1.6082  0.4179  2.7692
  219MOL0     H29521   2.346  10.643  10.519  0.9786  1.2937 -1.3913
  219MOL0     H29522   2.237  10.775  10.523  0.9983 -0.5019 -2.2670
  219MOL0     H29523   2.192  10.478  10.473  0.9078  0.4753  0.5016
  219MOL0     H29524   2.137  10.619  10.375 -2.1585 -1.0517 -0.8306
  219MOL0     H29525   2.027  10.465  10.272  0.6430  2.2431  2.0686
  219MOL0     H29526   1.948  10.381  10.080  0.9730  2.0863  3.6243
  219MOL0     H29527   1.839  10.238  10.123 -2.1403  0.1460  0.1581
  219MOL0     H29528   1.770  10.359  10.040 -1.1672 -3.1191  1.5110
  219MOL0     H29529   1.507   9.999  10.217 -0.1522  1.1659  1.8067
  219MOL0     H29530   1.302   9.901  10.085 -0.9529 -0.6548  1.2186
  219MOL0     H29531   1.094   9.897  10.017  0.1714 -0.0175 -0.4132
  219MOL0     H29532   1.020  10.052   9.995 -3.5989 -0.8846 -2.3708
  219MOL0     H29533   0.935  10.007   9.777  0.1042 -0.9956 -1.4494
  219MOL0     H29534   1.020   9.852   9.782  1.6194  1.9032 -0.7043
  219MOL0     H29535   0.795   9.949   9.960 -2.4699 -0.4351 -0.7539
  219MOL0     H29536   0.888   9.797   9.980  3.7162  1.9802  0.8096
  219MOL0     H29537   0.738   9.892   9.735 -0.8533 -1.9005 -2.3133
  219MOL0     H29538   0.784   9.717   9.769 -2.7649 -0.2004 -1.6607
  219MOL0     H29539   0.617   9.727   9.949  2.9524  1.0745  0.5533
  219MOL0     H29540   0.545   9.714   9.785  1.4317 -0.6700  1.0156
  219MOL0     H29541   0.579   9.987   9.918  2.3190  0.8198 -4.1426
  219MOL0     H29542   0.482   9.963   9.778 -2.2562  0.0254 -0.2783
  219MOL0     H29543   0.342   9.785   9.930 -2.0625  1.0562 -1.4722
  219MOL0     H29544   0.299   9.936   9.918 -0.8487 -0.3709  1.1449
  219MOL0     H29545   0.515   9.945  10.115  3.8504 -3.4766 -0.7559
  219MOL0     H29546   0.446   9.781  10.126  0.4172  1.1491 -2.6571
  219MOL0     H29547   1.287  10.229   9.833 -2.9702 -0.2155  2.5731
  219MOL0     H29548   1.475  10.337   9.960 -2.8546  0.7225  0.0194
  219MOL0     H29549   1.589  10.444  10.496 -0.5667 -2.1931  0.2785
  219MOL0     H29550   1.771  10.566  10.607 -1.7016  3.5964 -0.6511
  219MOL0     H29551   3.687  10.316  10.862  0.7956 -1.9769 -0.6618
  219MOL0     H29552   3.893  10.199  10.882  1.6363 -1.9766 -1.3089
  219MOL0     H29553   4.218  10.010  10.857  2.2680 -4.1686  2.0652
  219MOL0     H29554   4.416   9.858  10.893  2.9383 -0.4177 -1.0902
  219MOL0     H29555   4.618   9.779  10.934  0.9914 -0.9206 -0.0414
  219MOL0     H29556   4.563   9.719  10.779 -0.5184 -0.5033 -0.1431
  219MOL0     H29557   4.813   9.710  10.709 -1.1191 -0.4565 -1.1473
  219MOL0     H29558   4.753   9.591  10.832 -0.3961  0.0479  1.5446
  219MOL0     H29559   4.857   9.730  11.011  2.9284 -0.0776 -0.0509
  219MOL0     H29560   4.894   9.857  10.895  1.6442  0.1531 -0.5923
  219MOL0     H29561   5.096   9.757  10.916 -0.3098 -0.1123  0.0262
  219MOL0     H29562   5.047   9.691  10.765  1.8412 -0.0023  0.4924
  219MOL0     H29563   5.059   9.326  10.954  3.6775 -0.2822 -0.2970
  219MOL0     H29564   4.669  10.122  10.699  0.8385 -1.2663  2.1362
  219MOL0     H29565   4.497  10.294  10.674 -0.0542  2.7068  2.1304
  220MOL0     O29566   3.742   1.812   8.612 -0.4972 -0.5610  0.5154
  220MOL0     C29567   3.835   1.774   8.680 -1.0839 -0.1223  0.7800
  220MOL0     O29568   3.829   1.752   8.815  0.2114  0.0604  0.3094
  220MOL0     C29569   3.698   1.762   8.872 -0.0019  0.3326  1.1592
  220MOL0     C29570   3.584   1.693   8.827 -0.1168 -0.2926  0.0137
  220MOL0     C29571   3.460   1.704   8.882 -0.0569 -0.0336 -0.4383
  220MOL0     C29572   3.451   1.787   8.997  0.5821  0.0133 -0.0450
  220MOL0     O29573   3.329   1.795   9.060  0.6564 -0.3668  0.1027
  220MOL0     C29574   3.317   1.791   9.194  0.0752 -0.7396 -0.5392
  220MOL0     C29575   3.284   1.923   9.256 -0.5112 -0.6471 -0.0929
  220MOL0     C29576   3.142   1.977   9.237  0.1280  0.1505  0.7628
  220MOL0     C29577   3.097   2.052   9.370  0.7566 -0.4275 -0.2947
  220MOL0     C29578   2.970   2.136   9.353  0.3004  0.3717 -0.2437
  220MOL0     C29579   2.909   2.184   9.478  0.6347 -0.0005 -0.4255
  220MOL0     C29580   2.815   2.302   9.465 -0.3041 -0.5182 -0.1846
  220MOL0     C29581   2.771   2.363   9.593  0.2064 -0.2381 -0.0815
  220MOL0     N29582   2.880   2.406   9.689  0.3472 -0.4625 -1.0157
  220MOL0     C29583   2.946   2.526   9.697 -1.2543  0.1324  0.3140
  220MOL0     C29584   3.026   2.517   9.803  0.0246 -0.5306  0.2822
  220MOL0     C29585   3.121   2.632   9.848  0.1890  1.5814  0.1875
  220MOL0     C29586   3.097   2.771   9.773 -0.5083  0.1344 -0.0953
  220MOL0     C29587   3.196   2.883   9.815 -0.6044 -0.5708  0.3010
  220MOL0     C29588   3.180   3.020   9.749 -0.1098 -0.5179 -0.1968
  220MOL0     O29589   3.208   3.018   9.610  0.1612  0.4426  0.0215
  220MOL0     C29590   3.338   3.024   9.568  1.0884 -0.3942  0.3372
  220MOL0     C29591   3.390   2.927   9.490 -0.0456  0.5764  0.6515
  220MOL0     C29592   3.520   2.936   9.424 -0.2879  0.4553  0.2331
  220MOL0     C29593   3.570   2.815   9.345  0.1872 -0.3677 -0.3919
  220MOL0     C29594   3.599   3.045   9.459  0.0119  0.0330  1.0159
  220MOL0     C29595   3.737   3.061   9.418 -0.6723 -0.4506 -0.3756
  220MOL0     O29596   3.782   3.177   9.357 -0.2572  0.9652 -0.4543
  220MOL0     C29597   3.913   3.192   9.338  0.0604 -0.3559 -0.9057
  220MOL0     C29598   4.008   3.100   9.282  0.2389 -0.5124 -0.1636
  220MOL0     C29599   4.144   3.124   9.272 -0.7074  0.1440 -0.3148
  220MOL0     C29600   4.189   3.252   9.314 -0.4621  0.5965  0.1954
  220MOL0     O29601   4.313   3.309   9.311 -0.4654  0.0040 -0.1525
  220MOL0     C29602   4.422   3.213   9.297  0.3639 -0.5431 -0.0253
  220MOL0     C29603   4.554   3.286   9.320 -0.3520 -0.5111 -1.0498
  220MOL0     C29604   4.573   3.349   9.466 -0.4905  0.3740  0.4570
  220MOL0     C29605   4.719   3.351   9.521 -0.4732 -0.7674  0.0064
  220MOL0     C29606   4.714   3.384   9.671  0.0325 -1.1333  0.6532
  220MOL0     C29607   4.855   3.385   9.726  0.4992  0.8132  0.4880
  220MOL0     C29608   4.859   3.402   9.879  0.5795  0.2870  0.1642
  220MOL0     C29609   4.986   3.461   9.932 -0.6264  0.1388 -0.3984
  220MOL0    Cl29610   4.998   3.633   9.898  0.2876  0.0486 -0.0596
  220MOL0     C29611   4.094   3.343   9.366 -0.1402 -0.8286  0.5501
  220MOL0     C29612   3.966   3.311   9.388  0.0689  0.2932 -0.7464
  220MOL0     O29613   3.810   2.977   9.469 -0.3120 -0.2796  0.0787
  220MOL0     C29614   3.543   3.142   9.544 -0.2001  0.2461 -0.1816
  220MOL0     C29615   3.420   3.137   9.599  0.4756  0.2101 -1.2946
  220MOL0     N29616   3.024   2.386   9.851  0.2716 -1.4270  0.9099
  220MOL0     N29617   2.923   2.327   9.788  0.6782 -0.4420  0.6957
  220MOL0     C29618   3.567   1.849   9.043  0.1184  0.4668 -0.1008
  220MOL0     C29619   3.694   1.840   8.984 -0.2995 -0.3021 -0.0422
  220MOL0     C29620   3.968   1.761   8.616 -0.0822 -0.6731 -1.0049
  220MOL0     C29621   4.080   1.727   8.697 -0.1959  0.2170  0.3142
  220MOL0     C29622   4.211   1.716   8.637 -0.2715  0.3119  0.1882
  220MOL0     C29623   4.217   1.732   8.496  0.2245 -0.6860  0.4761
  220MOL0     O29624   4.342   1.718   8.438  0.2903  0.2800 -0.3262
  220MOL0     C29625   4.382   1.813   8.336  0.3999  0.4885 -0.2384
  220MOL0     C29626   4.525   1.773   8.290 -0.6224 -0.3969  0.7079
  220MOL0     C29627   4.526   1.641   8.203 -0.3567  0.5130 -0.1017
  220MOL0     C29628   4.657   1.551   8.187 -0.8967 -1.3281  0.3233
  220MOL0     C29629   4.708   1.527   8.323 -0.4957  0.3587  0.6903
  220MOL0     C29630   4.760   1.497   8.427  0.2485  1.2995  0.6442
  220MOL0     C29631   4.107   1.763   8.415 -0.5172 -0.5105 -0.3407
  220MOL0     C29632   3.984   1.780   8.473 -1.0387  0.5638  0.1067
  220MOL0     H29633   3.593   1.629   8.740 -0.9701 -0.4908  0.0677
  220MOL0     H29634   3.374   1.650   8.845  1.3690 -2.5258 -0.3306
  220MOL0     H29635   3.256   1.705   9.223  0.5600 -0.3849  1.7147
  220MOL0     H29636   3.412   1.768   9.243 -0.7933 -1.1839  1.0040
  220MOL0     H29637   3.317   1.921   9.360  3.4390 -0.9324 -1.1839
  220MOL0     H29638   3.356   1.994   9.214 -0.6327 -0.6916 -0.3787
  220MOL0     H29639   3.134   2.034   9.144  0.8607 -2.6127 -1.0916
  220MOL0     H29640   3.079   1.889   9.226  2.0236 -1.1988  0.2386
  220MOL0     H29641   3.087   1.988   9.459  3.0086  0.6369  0.8030
  220MOL0     H29642   3.183   2.113   9.399 -0.2641  0.8941  0.0254
  220MOL0     H29643   2.996   2.209   9.275 -0.3085  1.2384  0.3495
  220MOL0     H29644   2.898   2.076   9.296  0.6783  0.1251 -0.4663
  220MOL0     H29645   2.869   2.098   9.532  2.2351  0.2822  1.2993
  220MOL0     H29646   2.993   2.215   9.541 -1.2936  2.6767  1.0226
  220MOL0     H29647   2.854   2.379   9.397  0.4224  1.9544  2.8343
  220MOL0     H29648   2.721   2.266   9.422 -0.5368 -0.3564  0.1925
  220MOL0     H29649   2.708   2.287   9.641  0.8903 -2.4256 -2.4353
  220MOL0     H29650   2.699   2.440   9.563 -1.5601 -1.6396  0.3757
  220MOL0     H29651   2.941   2.608   9.627 -2.5215 -0.1095  0.0926
  220MOL0     H29652   3.125   2.644   9.956 -4.2270  0.1492  0.6662
  220MOL0     H29653   3.220   2.594   9.818 -0.4604  0.2270 -0.3244
  220MOL0     H29654   2.997   2.800   9.805 -1.2411 -2.5165  0.2604
  220MOL0     H29655   3.099   2.763   9.664  1.7997 -1.3364 -0.0162
  220MOL0     H29656   3.297   2.843   9.801 -0.5860 -0.8905  1.2422
  220MOL0     H29657   3.182   2.911   9.920 -1.4582  1.4467 -0.3084
  220MOL0     H29658   3.246   3.090   9.800 -0.4230 -0.5266  0.2242
  220MOL0     H29659   3.074   3.049   9.756  0.4761  2.1110 -1.1104
  220MOL0     H29660   3.318   2.850   9.463 -0.9306  1.6184 -0.0370
  220MOL0     H29661   3.495   2.787   9.270 -2.0506 -0.5497  1.8051
  220MOL0     H29662   3.667   2.833   9.297  0.0547 -1.7360 -1.2279
  220MOL0     H29663   3.580   2.723   9.402  0.5438  0.3505  0.7335
  220MOL0     H29664   3.982   3.002   9.245 -0.7702 -0.7501  1.1165
  220MOL0     H29665   4.201   3.044   9.224 -2.0638 -0.5128 -0.9116
  220MOL0     H29666   4.411   3.136   9.374  0.1220  0.1633  0.6579
  220MOL0     H29667   4.417   3.174   9.195 -0.8354 -2.1388  0.5910
  220MOL0     H29668   4.639   3.222   9.295 -2.0552 -2.6564 -1.5702
  220MOL0     H29669   4.559   3.372   9.254  1.7853  0.8649  0.7422
  220MOL0     H29670   4.506   3.293   9.531 -0.7314 -0.6423 -0.6258
  220MOL0     H29671   4.543   3.454   9.469  0.2386  0.5990  0.0181
  220MOL0     H29672   4.760   3.250   9.519 -1.4286 -1.1959  0.8314
  220MOL0     H29673   4.777   3.413   9.453 -2.9424  2.2195  0.3975
  220MOL0     H29674   4.655   3.322   9.738 -0.8067  0.6581  1.6423
  220MOL0     H29675   4.678   3.485   9.691  2.8228 -0.0832  0.8475
  220MOL0     H29676   4.903   3.291   9.698 -1.5257 -0.4284  0.9234
  220MOL0     H29677   4.905   3.467   9.674 -0.2507  1.5852  0.9536
  220MOL0     H29678   4.845   3.301   9.917  1.2509  0.2144  0.2211
  220MOL0     H29679   4.776   3.469   9.902 -0.9614 -1.6269  0.3899
  220MOL0     H29680   5.071   3.400   9.900 -0.2887  0.5189 -0.2354
  220MOL0     H29681   4.981   3.441  10.040 -4.2206  1.7157 -0.1534
  220MOL0     H29682   4.133   3.441   9.392 -1.2850  0.8100 -3.2480
  220MOL0     H29683   3.901   3.391   9.423 -0.1171  0.5088 -1.5575
  220MOL0     H29684   3.613   3.217   9.579  1.2575 -0.9841 -0.3289
  220MOL0     H29685   3.376   3.217   9.657 -1.0342 -1.5690  0.1362
  220MOL0     H29686   3.560   1.916   9.128  2.3586  1.7537 -0.8490
  220MOL0     H29687   3.782   1.891   9.022 -0.3530 -0.5310  0.3887
  220MOL0     H29688   4.077   1.710   8.804  4.0603  1.4316  0.8194
  220MOL0     H29689   4.298   1.680   8.691 -1.6303 -1.4861  1.2811
  220MOL0     H29690   4.314   1.825   8.251 -1.1156 -0.6115  0.7686
  220MOL0     H29691   4.390   1.912   8.382 -1.3589  1.0307 -1.0412
  220MOL0     H29692   4.574   1.756   8.386 -2.8426 -3.1683  1.4767
  220MOL0     H29693   4.564   1.858   8.233 -2.7161  1.5462  1.9874
  220MOL0     H29694   4.497   1.665   8.100 -1.7005  0.2775  0.2102
  220MOL0     H29695   4.447   1.577   8.245  1.0083 -0.2270  1.4530
  220MOL0     H29696   4.728   1.609   8.128 -2.7220  3.2892  2.2435
  220MOL0     H29697   4.640   1.457   8.133  1.0586 -2.5531  1.6713
  220MOL0     H29698   4.785   1.476   8.529  0.7388  0.9727  0.4584
  220MOL0     H29699   4.105   1.785   8.309 -1.5606 -2.3758 -0.7504
  220MOL0     H29700   3.895   1.805   8.417 -1.8565 -1.3962  0.4536
  221MOL0     O29701   6.624   1.889   8.615 -0.5366  0.3442 -0.2933
  221MOL0     C29702   6.671   1.842   8.716 -1.1012 -1.1849 -0.4963
  221MOL0     O29703   6.597   1.801   8.818 -0.1474  0.6376 -0.8627
  221MOL0     C29704   6.466   1.804   8.799  0.3288 -0.4482 -0.2170
  221MOL0     C29705   6.395   1.914   8.864 -0.4227 -0.5646  0.1471
  221MOL0     C29706   6.259   1.925   8.846 -0.0342 -0.4031  0.7770
  221MOL0     C29707   6.189   1.842   8.759  0.6925  0.6140  0.3355
  221MOL0     O29708   6.058   1.850   8.722  0.2611 -0.6490  1.0436
  221MOL0     C29709   5.958   1.906   8.811  0.4914  1.0018  0.7400
  221MOL0     C29710   5.830   1.930   8.733 -0.1236 -0.5334 -0.3911
  221MOL0     C29711   5.727   1.819   8.695  0.3300  0.1804  0.6020
  221MOL0     C29712   5.789   1.713   8.603  0.3750  0.3448  0.1864
  221MOL0     C29713   5.712   1.584   8.587  0.4136  0.0790  0.0108
  221MOL0     C29714   5.779   1.490   8.487 -0.4388 -0.8001 -0.5869
  221MOL0     C29715   5.706   1.361   8.481 -1.1062 -0.3709  0.2754
  221MOL0     C29716   5.793   1.256   8.405  0.2998 -0.4225  1.0069
  221MOL0     N29717   5.713   1.136   8.416 -0.3697 -0.3031 -0.5494
  221MOL0     C29718   5.639   1.067   8.323  0.2416 -0.6254 -0.1200
  221MOL0     C29719   5.604   0.952   8.382 -0.3194 -0.0014  0.4724
  221MOL0     C29720   5.534   0.840   8.306 -1.0298 -0.3357 -0.9480
  221MOL0     C29721   5.405   0.886   8.234  1.2603  0.6217 -0.6192
  221MOL0     C29722   5.323   0.770   8.207  1.1288  0.1176  0.7625
  221MOL0     C29723   5.204   0.805   8.115 -0.4331 -0.0529  0.0433
  221MOL0     O29724   5.117   0.880   8.191 -0.2190  0.2784 -0.4224
  221MOL0     C29725   5.008   0.935   8.135  0.4891  0.1561  0.4268
  221MOL0     C29726   4.909   0.998   8.213  1.1296 -0.0199  0.1849
  221MOL0     C29727   4.791   1.052   8.157 -0.3207 -1.0384  0.6246
  221MOL0     C29728   4.701   1.128   8.256 -0.5913  0.0254 -0.2060
  221MOL0     C29729   4.778   1.049   8.015 -0.2644 -0.2130 -0.8894
  221MOL0     C29730   4.663   1.106   7.944  0.7195 -0.7947  0.2492
  221MOL0     O29731   4.595   1.016   7.868  0.0249 -0.8814  0.8267
  221MOL0     C29732   4.487   1.057   7.789 -0.4228 -0.3666 -0.4608
  221MOL0     C29733   4.491   1.033   7.652  0.9363  0.5486  0.1743
  221MOL0     C29734   4.378   1.052   7.569  0.0388 -0.4672 -0.4822
  221MOL0     C29735   4.262   1.089   7.625 -0.5069 -0.1226 -0.9208
  221MOL0     O29736   4.162   1.109   7.537  0.7112  0.3104  0.2063
  221MOL0     C29737   4.042   1.184   7.567  0.9173 -0.4251  0.4850
  221MOL0     C29738   3.940   1.153   7.458 -0.1708  0.6322  0.2655
  221MOL0     C29739   3.808   1.230   7.482  0.4398  0.2446  0.5338
  221MOL0     C29740   3.834   1.382   7.523 -1.2277  0.1550 -0.7571
  221MOL0     C29741   3.706   1.457   7.511  0.0429  1.1183 -0.5047
  221MOL0     C29742   3.717   1.600   7.557  0.2848  0.0194  0.0570
  221MOL0     C29743   3.571   1.651   7.576 -0.4098 -0.1491  0.3820
  221MOL0     C29744   3.547   1.803   7.531 -1.3567  0.7898  0.0057
  221MOL0    Cl29745   3.503   1.807   7.353 -0.3511  0.0367 -0.3704
  221MOL0     C29746   4.258   1.123   7.762  0.1786 -0.0102 -0.3595
  221MOL0     C29747   4.368   1.109   7.843  0.1956  1.0713 -0.3809
  221MOL0     O29748   4.644   1.226   7.953  0.1605  0.1702  0.0721
  221MOL0     C29749   4.875   0.989   7.939  0.0290  0.2385 -0.1684
  221MOL0     C29750   4.985   0.930   7.997  0.4370 -0.3633  0.1324
  221MOL0     N29751   5.665   0.943   8.509 -0.1531 -0.3996 -0.4699
  221MOL0     N29752   5.729   1.055   8.524 -0.3319  0.7888  1.0365
  221MOL0     C29753   6.255   1.732   8.702  0.0833  0.4536  0.6039
  221MOL0     C29754   6.392   1.709   8.725 -0.5940 -0.1633 -0.4616
  221MOL0     C29755   6.823   1.858   8.738 -0.1635  0.0749  0.2774
  221MOL0     C29756   6.877   1.814   8.860 -0.7385 -0.3611  0.6297
  221MOL0     C29757   7.017   1.830   8.874 -0.5781  0.9035 -0.4896
  221MOL0     C29758   7.090   1.889   8.771  0.1421  0.8559 -0.0648
  221MOL0     O29759   7.221   1.905   8.797 -0.4543  1.2192  0.5805
  221MOL0     C29760   7.311   1.918   8.690 -0.0766 -0.9457 -0.1588
  221MOL0     C29761   7.450   1.905   8.759 -1.1000 -0.3668  0.2748
  221MOL0     C29762   7.480   2.026   8.850  0.3103 -0.1636 -0.1702
  221MOL0     C29763   7.626   2.043   8.892 -0.4111  0.2878  0.4211
  221MOL0     C29764   7.664   1.929   8.974  0.1538 -0.1074 -0.8613
  221MOL0     C29765   7.691   1.838   9.056 -0.1448 -0.8000 -0.2888
  221MOL0     C29766   7.027   1.921   8.650 -0.0421 -0.4866  0.4412
  221MOL0     C29767   6.894   1.906   8.630 -0.0350  1.1447 -0.2948
  221MOL0     H29768   6.445   1.994   8.918 -1.2979 -1.4842  2.4204
  221MOL0     H29769   6.202   2.009   8.885 -0.5541  1.9180 -4.1499
  221MOL0     H29770   5.933   1.842   8.896  2.6217  0.3693  0.9565
  221MOL0     H29771   5.999   2.003   8.842 -1.7831  3.3058 -2.7792
  221MOL0     H29772   5.774   2.011   8.780 -0.0653  0.8227 -2.5122
  221MOL0     H29773   5.862   1.971   8.637  2.0924  1.4373  1.0858
  221MOL0     H29774   5.692   1.778   8.790 -0.5834 -1.0287 -0.2155
  221MOL0     H29775   5.645   1.863   8.636  0.5202 -0.9813 -0.5742
  221MOL0     H29776   5.804   1.751   8.501 -1.5798  1.4373  0.2472
  221MOL0     H29777   5.888   1.685   8.640  1.4761 -0.4435 -2.9994
  221MOL0     H29778   5.702   1.533   8.683  0.3897 -2.4258 -1.2326
  221MOL0     H29779   5.608   1.596   8.555  1.0162  1.1415 -1.6963
  221MOL0     H29780   5.762   1.532   8.387  4.3764  0.5236 -1.1476
  221MOL0     H29781   5.888   1.488   8.503 -0.5716 -2.0980  0.3126
  221MOL0     H29782   5.698   1.316   8.580  3.6241 -1.1288  0.5631
  221MOL0     H29783   5.605   1.376   8.442 -1.3329  1.5032  1.4569
  221MOL0     H29784   5.886   1.233   8.458  0.4283  0.0646  0.9983
  221MOL0     H29785   5.803   1.281   8.299  1.3429 -1.4906  0.8420
  221MOL0     H29786   5.613   1.104   8.224  1.4503  1.6908  0.3329
  221MOL0     H29787   5.606   0.797   8.236  0.3460 -2.2008  1.4472
  221MOL0     H29788   5.516   0.762   8.381  0.1850 -1.0581 -1.3830
  221MOL0     H29789   5.425   0.939   8.140 -0.8212  3.6345  0.5199
  221MOL0     H29790   5.339   0.948   8.294 -0.4054 -1.4854 -0.1338
  221MOL0     H29791   5.280   0.728   8.298 -0.2636 -0.1568  0.0023
  221MOL0     H29792   5.364   0.685   8.150  2.9305  0.4510  1.4817
  221MOL0     H29793   5.156   0.710   8.090  0.3549 -0.5970  0.5626
  221MOL0     H29794   5.236   0.865   8.030 -0.8570 -0.3548 -0.3341
  221MOL0     H29795   4.930   1.000   8.320  3.1148 -1.8585 -0.0935
  221MOL0     H29796   4.735   1.231   8.261  1.1896 -0.5962  1.8452
  221MOL0     H29797   4.601   1.127   8.209  0.3509  0.3222 -2.3443
  221MOL0     H29798   4.700   1.084   8.356 -3.8041 -0.7632 -0.4494
  221MOL0     H29799   4.582   1.006   7.600  0.6812 -2.0318  0.9266
  221MOL0     H29800   4.380   1.045   7.460  1.2145  0.9367 -0.5857
  221MOL0     H29801   4.006   1.158   7.667  1.8195  2.1831  1.5655
  221MOL0     H29802   4.070   1.290   7.565 -0.0897 -0.1617 -0.4476
  221MOL0     H29803   3.995   1.197   7.375 -0.5069  2.1077  0.7890
  221MOL0     H29804   3.916   1.049   7.435 -4.7910  1.9917 -2.4059
  221MOL0     H29805   3.749   1.177   7.558 -0.7192 -0.2581 -0.6979
  221MOL0     H29806   3.749   1.225   7.391  0.2841  1.0552  0.5879
  221MOL0     H29807   3.880   1.395   7.621 -0.2511 -1.6157 -0.9197
  221MOL0     H29808   3.909   1.424   7.454  1.7796 -1.1744  1.4580
  221MOL0     H29809   3.645   1.402   7.583 -0.8721 -0.2983 -2.2676
  221MOL0     H29810   3.657   1.446   7.413  0.8487  1.2201 -0.9220
  221MOL0     H29811   3.773   1.592   7.651  0.8183 -1.4401 -0.3480
  221MOL0     H29812   3.774   1.656   7.483  4.7895  0.9195  3.7750
  221MOL0     H29813   3.536   1.637   7.679 -2.0415  0.9612  0.0203
  221MOL0     H29814   3.499   1.588   7.523  1.0114 -0.6539 -0.9991
  221MOL0     H29815   3.636   1.863   7.551  0.0709 -0.6676 -1.6753
  221MOL0     H29816   3.461   1.838   7.589 -0.7587  1.9852  0.2052
  221MOL0     H29817   4.178   1.169   7.818  0.4947 -0.0389  0.1207
  221MOL0     H29818   4.366   1.141   7.946 -0.8309 -1.0989  0.3436
  221MOL0     H29819   4.860   0.996   7.832 -0.4087 -0.6801 -0.1769
  221MOL0     H29820   5.050   0.877   7.927  1.2027 -1.9094  1.9034
  221MOL0     H29821   6.192   1.677   8.633  1.7259  1.7421 -2.0830
  221MOL0     H29822   6.453   1.630   8.682  1.5319  1.5504 -0.8079
  221MOL0     H29823   6.816   1.757   8.929 -1.6182 -1.1761 -0.7802
  221MOL0     H29824   7.069   1.792   8.961  0.7583 -0.8512 -1.9807
  221MOL0     H29825   7.296   1.844   8.612 -1.6705 -2.0810  1.1707
  221MOL0     H29826   7.304   2.023   8.660  3.7545 -0.0655  1.3887
  221MOL0     H29827   7.526   1.897   8.682  0.4630  2.5106  1.3516
  221MOL0     H29828   7.446   1.813   8.818 -3.3852  0.2444  1.2107
  221MOL0     H29829   7.423   2.014   8.943  0.3568  2.3009  0.2432
  221MOL0     H29830   7.433   2.117   8.812 -2.0706 -1.6629 -1.0325
  221MOL0     H29831   7.640   2.135   8.949  1.3824  0.5256 -0.3450
  221MOL0     H29832   7.696   2.047   8.808 -1.2205 -0.1745 -0.2986
  221MOL0     H29833   7.714   1.771   9.137 -0.2590  0.1017  0.5077
  221MOL0     H29834   7.082   1.964   8.567  1.9952 -1.6224  1.1324
  221MOL0     H29835   6.850   1.925   8.533 -0.1005 -0.7666 -0.6857
  222MOL0     O29836   1.516   7.134   9.463  0.5942  0.8472 -1.4401
  222MOL0     C29837   1.561   7.064   9.554 -0.6679 -0.0132  0.1294
  222MOL0     O29838   1.490   7.009   9.668  0.6436  0.2254  0.5521
  222MOL0     C29839   1.348   7.022   9.675  0.2973  0.2988 -0.5267
  222MOL0     C29840   1.278   6.906   9.716  0.6610 -0.0516  0.1225
  222MOL0     C29841   1.141   6.925   9.739  0.6673 -0.2831  0.5799
  222MOL0     C29842   1.070   7.043   9.712 -0.1630 -1.6445  0.6270
  222MOL0     O29843   0.937   7.071   9.744  0.0852  0.2723 -0.0360
  222MOL0     C29844   0.850   6.970   9.790 -0.5240  0.3488  0.2170
  222MOL0     C29845   0.855   6.931   9.939 -0.4205 -0.0939  0.1195
  222MOL0     C29846   0.812   6.791   9.975 -0.5355 -0.5230  0.5916
  222MOL0     C29847   0.919   6.684   9.941  0.7516  0.2084 -0.9068
  222MOL0     C29848   0.862   6.538   9.968 -0.0789  0.6095 -1.1650
  222MOL0     C29849   0.821   6.527  10.119 -0.6339 -1.0247  0.0558
  222MOL0     C29850   0.811   6.391  10.185  0.3694  0.0273 -0.1741
  222MOL0     C29851   0.801   6.401  10.336 -0.8524  0.7707  0.2516
  222MOL0     N29852   0.696   6.491  10.386  0.1592 -0.1496  0.0798
  222MOL0     C29853   0.707   6.623  10.399 -0.1434 -0.2113  0.3581
  222MOL0     C29854   0.591   6.659  10.459 -0.3470  0.0321 -0.1412
  222MOL0     C29855   0.561   6.796  10.513 -0.1509 -0.5142 -0.7375
  222MOL0     C29856   0.509   6.883  10.409  0.3455 -0.9954  0.1280
  222MOL0     C29857   0.368   6.848  10.338  0.4609 -0.0522 -0.1210
  222MOL0     C29858   0.254   6.847  10.439  0.0497  0.6998 -0.3015
  222MOL0     O29859   0.115   6.844  10.381 -0.1996  0.0946 -0.0028
  222MOL0     C29860   0.053   6.728  10.344 -0.1052  0.9614  0.2617
  222MOL0     C29861   0.097   6.600  10.370  0.1753  0.0704 -0.0593
  222MOL0     C29862   0.019   6.487  10.334  0.3815 -0.1174 -0.2541
  222MOL0     C29863   0.085   6.350  10.350  0.9772 -1.0632  0.1369
  222MOL0     C29864  -0.120   6.510  10.293  0.2175 -0.4813 -0.0632
  222MOL0     C29865  -0.217   6.401  10.292 -0.3371  1.0182  0.2774
  222MOL0     O29866  -0.348   6.426  10.261  0.0679  0.7471 -0.3202
  222MOL0     C29867  -0.433   6.322  10.272 -0.2721 -0.3194 -0.9131
  222MOL0     C29868  -0.460   6.253  10.393 -0.1849  0.7354 -1.0442
  222MOL0     C29869  -0.571   6.160  10.400  0.6046  1.5020  0.2587
  222MOL0     C29870  -0.657   6.142  10.282  0.1845 -0.2040 -0.3164
  222MOL0     O29871  -0.775   6.070  10.286 -0.2123 -0.1282  0.6970
  222MOL0     C29872  -0.771   5.934  10.344 -0.8920  0.3408 -0.1661
  222MOL0     C29873  -0.697   5.834  10.259  0.3885  0.3940  0.0409
  222MOL0     C29874  -0.774   5.791  10.135  0.1490 -0.4893 -0.7988
  222MOL0     C29875  -0.669   5.735  10.034 -0.2531 -0.1962 -0.1779
  222MOL0     C29876  -0.739   5.702   9.905  0.1181  0.7415 -0.0221
  222MOL0     C29877  -0.781   5.823   9.823  0.4172 -0.1286  0.2751
  222MOL0     C29878  -0.863   5.778   9.698 -0.6904 -0.8275 -0.2945
  222MOL0     C29879  -0.874   5.873   9.585  0.0393  0.7918  0.6882
  222MOL0    Cl29880  -0.735   5.865   9.483 -0.5056  0.3014 -0.0841
  222MOL0     C29881  -0.623   6.201  10.160 -0.1812  0.0565  0.2641
  222MOL0     C29882  -0.516   6.290  10.163 -0.2951 -0.5039  0.2235
  222MOL0     O29883  -0.182   6.283  10.325  0.1708 -0.3706 -0.1841
  222MOL0     C29884  -0.160   6.637  10.263  0.0754  0.0839  0.6617
  222MOL0     C29885  -0.071   6.738  10.286  0.3404 -0.2967 -0.0312
  222MOL0     N29886   0.505   6.553  10.453 -0.1259  0.5936 -0.1610
  222MOL0     N29887   0.574   6.449  10.433  0.0907 -0.0909  0.6859
  222MOL0     C29888   1.146   7.151   9.661  0.4495 -0.1619  0.3364
  222MOL0     C29889   1.281   7.142   9.654  0.1024 -0.3179  0.1985
  222MOL0     C29890   1.703   7.020   9.527 -0.8881  0.1448 -0.0845
  222MOL0     C29891   1.758   6.931   9.626 -0.0003  0.6076  0.7486
  222MOL0     C29892   1.873   6.868   9.587 -0.4792 -0.6094  0.4805
  222MOL0     C29893   1.947   6.897   9.472 -0.3163 -0.8116 -0.1647
  222MOL0     O29894   2.062   6.820   9.457  0.1602  0.2642 -0.0896
  222MOL0     C29895   2.143   6.832   9.336  0.4490  0.2402 -0.6250
  222MOL0     C29896   2.229   6.960   9.328 -0.2802 -0.5230 -0.2575
  222MOL0     C29897   2.365   6.929   9.387 -0.1936 -0.6130  0.3324
  222MOL0     C29898   2.456   7.056   9.391 -0.2332 -0.5005  0.7687
  222MOL0     C29899   2.595   7.034   9.418  0.2155 -0.2701  0.4194
  222MOL0     C29900   2.705   7.008   9.457 -0.0045 -0.4101 -0.4498
  222MOL0     C29901   1.897   7.001   9.393 -0.4750  0.4642  0.1950
  222MOL0     C29902   1.774   7.051   9.414  0.2588  0.0847  0.0494
  222MOL0     H29903   1.329   6.811   9.711 -0.1128 -0.4330 -1.1831
  222MOL0     H29904   1.083   6.835   9.759  0.0475  0.1818  0.9060
  222MOL0     H29905   0.747   6.997   9.764 -1.8394 -2.0356  2.3851
  222MOL0     H29906   0.862   6.881   9.727  1.3495  0.7698 -0.0888
  222MOL0     H29907   0.959   6.937   9.971 -0.3286  1.4355 -0.3880
  222MOL0     H29908   0.810   7.010   9.999  0.2039  1.6033 -1.5488
  222MOL0     H29909   0.788   6.801  10.081 -1.7151  2.7301  0.1244
  222MOL0     H29910   0.715   6.768   9.931 -0.1555  1.1475 -1.2883
  222MOL0     H29911   0.949   6.693   9.836 -0.0742  0.8313 -1.0998
  222MOL0     H29912   1.003   6.708  10.006  1.9540  1.9896 -2.9865
  222MOL0     H29913   0.775   6.522   9.903 -0.6757  0.1326 -0.2722
  222MOL0     H29914   0.937   6.465   9.937 -0.5877 -0.1327 -0.6745
  222MOL0     H29915   0.897   6.571  10.183 -0.3028 -2.4789  0.7123
  222MOL0     H29916   0.723   6.572  10.132 -0.5441 -0.4574 -1.0623
  222MOL0     H29917   0.726   6.336  10.144  0.2027  2.0341 -2.7502
  222MOL0     H29918   0.904   6.340  10.161  1.3805  1.8546 -0.2939
  222MOL0     H29919   0.895   6.438  10.377 -0.8691 -0.4958  1.5231
  222MOL0     H29920   0.792   6.306  10.390 -2.1910 -0.0290 -1.2987
  222MOL0     H29921   0.799   6.680  10.386 -0.5351  0.0977 -1.3662
  222MOL0     H29922   0.489   6.795  10.595 -0.1198  0.9601 -0.6660
  222MOL0     H29923   0.658   6.837  10.540  0.4742 -1.6490 -1.1835
  222MOL0     H29924   0.581   6.887  10.327  0.2731 -3.5548 -0.1242
  222MOL0     H29925   0.495   6.984  10.449 -0.8978 -1.3895  0.7500
  222MOL0     H29926   0.378   6.750  10.290  1.0875 -0.7282  1.2913
  222MOL0     H29927   0.357   6.922  10.259 -1.5934  0.0346  0.2105
  222MOL0     H29928   0.263   6.942  10.492  0.0018 -0.0197  1.0491
  222MOL0     H29929   0.277   6.769  10.512  0.3774  0.6834 -0.4231
  222MOL0     H29930   0.202   6.586  10.393  0.1160 -1.5445 -0.6501
  222MOL0     H29931   0.057   6.286  10.266  3.8211  0.3181 -2.0488
  222MOL0     H29932   0.192   6.368  10.336  0.7307  1.6706  1.0208
  222MOL0     H29933   0.077   6.313  10.452  1.1764  0.6908  0.8215
  222MOL0     H29934  -0.397   6.271  10.480 -0.3383 -0.6730 -0.6007
  222MOL0     H29935  -0.594   6.111  10.494  0.6683 -0.5577 -0.7415
  222MOL0     H29936  -0.722   5.937  10.442  3.8263  3.7228 -2.2498
  222MOL0     H29937  -0.869   5.887  10.358 -0.6442 -0.8794 -2.2235
  222MOL0     H29938  -0.600   5.876  10.230  0.0708  0.0979 -1.5337
  222MOL0     H29939  -0.672   5.745  10.317  1.3241 -2.0789 -3.8275
  222MOL0     H29940  -0.829   5.875  10.092  0.0204 -0.9623 -1.5800
  222MOL0     H29941  -0.848   5.712  10.150  0.2187 -0.1623  1.5594
  222MOL0     H29942  -0.599   5.812  10.003 -1.0981  0.6359 -0.0831
  222MOL0     H29943  -0.623   5.648  10.082  0.4787  0.8172  1.0067
  222MOL0     H29944  -0.829   5.641   9.920  1.0671 -1.3051 -2.1209
  222MOL0     H29945  -0.671   5.646   9.841 -0.0868  0.8430 -0.3301
  222MOL0     H29946  -0.837   5.894   9.886  1.5289 -1.4535  2.9283
  222MOL0     H29947  -0.686   5.867   9.792  0.4813 -0.1713  0.4092
  222MOL0     H29948  -0.958   5.765   9.751 -0.3731  0.6137  0.6861
  222MOL0     H29949  -0.817   5.688   9.657  3.7761  1.4191 -0.9225
  222MOL0     H29950  -0.883   5.978   9.616 -0.8609  0.4840  1.5544
  222MOL0     H29951  -0.964   5.849   9.528 -0.5141  1.2675  1.3402
  222MOL0     H29952  -0.684   6.179  10.073  0.4354 -0.7203  0.0195
  222MOL0     H29953  -0.490   6.338  10.070 -0.9218 -0.5248  0.0305
  222MOL0     H29954  -0.257   6.655  10.218  1.1928 -0.0667 -1.9790
  222MOL0     H29955  -0.104   6.840  10.267  0.4895  0.0494  1.5038
  222MOL0     H29956   1.094   7.243   9.634  1.8684  0.7180  0.5165
  222MOL0     H29957   1.336   7.231   9.625 -0.2405  0.0439  0.6735
  222MOL0     H29958   1.698   6.893   9.708 -0.7819 -0.0997 -0.1219
  222MOL0     H29959   1.916   6.794   9.654  3.2832 -0.3067 -1.3042
  222MOL0     H29960   2.200   6.741   9.314  1.5189  0.9006 -0.6849
  222MOL0     H29961   2.067   6.835   9.258 -4.0132  1.3993  3.2809
  222MOL0     H29962   2.183   7.045   9.380 -2.0800 -0.9860 -1.0446
  222MOL0     H29963   2.227   6.981   9.221 -1.5080 -1.1713 -0.3747
  222MOL0     H29964   2.415   6.844   9.339  1.7124 -0.7740  2.4602
  222MOL0     H29965   2.355   6.889   9.488  2.2647 -1.1392  0.4098
  222MOL0     H29966   2.412   7.125   9.464 -3.2019 -0.0924 -1.1901
  222MOL0     H29967   2.460   7.108   9.295 -1.2572 -0.7110  0.5940
  222MOL0     H29968   2.800   6.967   9.485  0.8276  1.3284 -0.6283
  222MOL0     H29969   1.936   7.026   9.295  0.4128 -0.3465  0.3289
  222MOL0     H29970   1.744   7.130   9.345  0.5885  0.2120  0.0440
  223MOL0     O29971  10.612   8.610   7.759  1.0182  0.2628 -0.7697
  223MOL0     C29972  10.669   8.589   7.863 -0.6022 -0.0486 -0.8731
  223MOL0     O29973  10.617   8.535   7.986 -0.0266 -0.9289 -0.3165
  223MOL0     C29974  10.493   8.479   7.973  0.6022  0.3792 -0.1440
  223MOL0     C29975  10.473   8.345   7.936 -0.2022  0.3044 -0.0784
  223MOL0     C29976  10.340   8.285   7.918 -0.4190 -0.1508  0.0849
  223MOL0     C29977  10.230   8.366   7.927  0.2779  0.2827 -1.1413
  223MOL0     O29978  10.105   8.311   7.917 -0.0415  0.2519 -0.2108
  223MOL0     C29979   9.980   8.385   7.942  0.5362 -0.3549  0.9005
  223MOL0     C29980   9.865   8.301   7.896 -0.0116  1.0411  0.7419
  223MOL0     C29981   9.739   8.364   7.949  0.0347 -0.0495  0.2003
  223MOL0     C29982   9.617   8.275   7.913  0.3839 -0.5916 -0.1253
  223MOL0     C29983   9.497   8.316   7.997  0.1328 -0.0362  0.2661
  223MOL0     C29984   9.403   8.200   8.011  0.7552  0.4508 -0.8357
  223MOL0     C29985   9.271   8.256   8.073 -0.3177  0.1298 -0.4975
  223MOL0     C29986   9.171   8.141   8.085  0.3850 -0.1025 -0.2371
  223MOL0     N29987   9.035   8.187   8.130  1.5163 -0.1244 -0.1985
  223MOL0     C29988   8.989   8.172   8.260 -0.0927  1.0540  0.0767
  223MOL0     C29989   8.853   8.189   8.252 -0.3048  0.5188 -0.3907
  223MOL0     C29990   8.755   8.157   8.356 -0.2753  0.5519 -1.1552
  223MOL0     C29991   8.610   8.138   8.309  0.1054 -0.2844  0.4582
  223MOL0     C29992   8.523   8.102   8.423  0.1275 -0.0006  0.1357
  223MOL0     C29993   8.378   8.108   8.384 -0.4473 -0.2236  0.5775
  223MOL0     O29994   8.339   7.977   8.402  0.0923  0.1704  0.1833
  223MOL0     C29995   8.210   7.942   8.414  0.8029 -0.2794 -0.7206
  223MOL0     C29996   8.182   7.816   8.478  0.2186  0.0374 -0.4668
  223MOL0     C29997   8.060   7.756   8.489  0.2461  0.6606  0.2879
  223MOL0     C29998   8.053   7.628   8.566 -0.6051 -0.3204  0.3106
  223MOL0     C29999   7.947   7.839   8.457 -0.3143  0.2037  0.5291
  223MOL0     C30000   7.810   7.788   8.484  0.0943 -0.9265  0.1491
  223MOL0     O30001   7.723   7.885   8.535  0.2393 -0.3179 -0.2533
  223MOL0     C30002   7.595   7.851   8.580 -0.0461 -0.4201 -1.0604
  223MOL0     C30003   7.557   7.729   8.644 -0.1094 -0.1548 -0.4129
  223MOL0     C30004   7.420   7.698   8.644 -0.6857 -0.1205 -0.1197
  223MOL0     C30005   7.322   7.791   8.613 -0.2237  1.1216  0.5235
  223MOL0     O30006   7.189   7.764   8.598 -0.0458  0.2908  0.2389
  223MOL0     C30007   7.135   7.629   8.593 -0.0931 -0.0265 -0.0439
  223MOL0     C30008   7.029   7.634   8.488  0.1477  0.5774 -0.1010
  223MOL0     C30009   6.938   7.513   8.488 -0.1372 -0.0834 -0.4639
  223MOL0     C30010   6.859   7.521   8.361 -0.1058  0.6820  0.2861
  223MOL0     C30011   6.726   7.440   8.354  0.1417 -0.2758 -0.0061
  223MOL0     C30012   6.608   7.521   8.387  0.1261 -0.4568 -0.1848
  223MOL0     C30013   6.495   7.421   8.420 -0.3822 -0.2531  0.2573
  223MOL0     C30014   6.365   7.465   8.364  0.3428 -0.2377 -0.2413
  223MOL0    Cl30015   6.318   7.622   8.447  0.0483  0.1064  0.2072
  223MOL0     C30016   7.364   7.915   8.563  0.9262  0.0339 -0.0218
  223MOL0     C30017   7.495   7.949   8.555  0.1282  0.2551 -0.2961
  223MOL0     O30018   7.780   7.672   8.466 -0.3817 -0.0649  0.3052
  223MOL0     C30019   7.966   7.964   8.405 -0.7959  0.4661 -0.7785
  223MOL0     C30020   8.091   8.016   8.376 -0.6577  0.1730 -0.6477
  223MOL0     N30021   8.820   8.205   8.116 -0.5221 -0.4790 -1.3281
  223MOL0     N30022   8.928   8.202   8.044  0.1861 -0.4781 -0.3454
  223MOL0     C30023  10.251   8.507   7.948  0.4114  0.3202  1.1028
  223MOL0     C30024  10.375   8.557   7.980 -0.7157 -0.1603  0.1288
  223MOL0     C30025  10.816   8.622   7.870  0.0649 -1.1483  0.0943
  223MOL0     C30026  10.862   8.723   7.784  0.4648 -0.8172 -0.2871
  223MOL0     C30027  10.996   8.756   7.785  0.8954  0.1367 -0.3294
  223MOL0     C30028  11.083   8.716   7.884 -1.0273 -0.9492  0.2752
  223MOL0     O30029  11.215   8.768   7.882  0.4635 -0.5934  0.5740
  223MOL0     C30030  11.323   8.725   7.970  0.1732 -0.2864  0.2587
  223MOL0     C30031  11.423   8.837   7.981  0.2545  0.7064 -0.1357
  223MOL0     C30032  11.511   8.856   7.859 -0.4733 -0.4990  0.2076
  223MOL0     C30033  11.445   8.951   7.746  0.4601  0.7159 -0.1046
  223MOL0     C30034  11.543   8.991   7.637  1.1547  0.4794  0.4930
  223MOL0     C30035  11.594   9.025   7.536  0.1525 -0.7026 -0.4044
  223MOL0     C30036  11.032   8.626   7.982 -0.2441 -0.2365  0.1570
  223MOL0     C30037  10.902   8.573   7.961 -0.3373 -0.9459 -0.0376
  223MOL0     H30038  10.568   8.292   7.923  0.8824  1.7786  1.4022
  223MOL0     H30039  10.319   8.182   7.892 -1.0473 -0.1008  0.3914
  223MOL0     H30040   9.973   8.405   8.049 -3.2718 -2.7857  1.2746
  223MOL0     H30041   9.970   8.473   7.878 -2.7477 -1.2841 -0.0265
  223MOL0     H30042   9.863   8.294   7.786  2.9511 -3.6397  0.7159
  223MOL0     H30043   9.882   8.205   7.945 -0.3478  1.0258  0.8303
  223MOL0     H30044   9.735   8.379   8.057 -2.6082  1.3976 -0.0183
  223MOL0     H30045   9.720   8.464   7.907 -1.1412 -0.5907 -0.6054
  223MOL0     H30046   9.593   8.287   7.807  3.8804 -1.5496 -1.1443
  223MOL0     H30047   9.634   8.170   7.938 -0.2855 -0.9022 -0.9247
  223MOL0     H30048   9.531   8.342   8.098  0.5631 -0.0367  0.1257
  223MOL0     H30049   9.451   8.405   7.955  0.5281 -0.0311 -0.1616
  223MOL0     H30050   9.377   8.150   7.917 -3.9112 -0.3429  0.6228
  223MOL0     H30051   9.442   8.124   8.079 -3.7271 -0.6755  0.8736
  223MOL0     H30052   9.297   8.301   8.169 -0.7658 -0.5272 -0.0656
  223MOL0     H30053   9.216   8.328   8.011 -2.1580 -1.8778 -1.3284
  223MOL0     H30054   9.198   8.065   8.159 -0.5197  1.2482  1.5602
  223MOL0     H30055   9.167   8.083   7.992  0.1705 -1.3439  0.5162
  223MOL0     H30056   9.049   8.135   8.343  1.4935  0.8047 -1.1535
  223MOL0     H30057   8.784   8.063   8.404 -3.7344 -0.2210 -0.3152
  223MOL0     H30058   8.779   8.234   8.430  1.4976  0.1331 -1.2336
  223MOL0     H30059   8.599   8.068   8.226  2.5400  0.9457 -1.0342
  223MOL0     H30060   8.586   8.238   8.272  3.6261  0.5023 -0.0598
  223MOL0     H30061   8.534   8.171   8.507  2.3801  0.5988 -0.5724
  223MOL0     H30062   8.553   7.999   8.444  0.6665 -0.0823 -0.9509
  223MOL0     H30063   8.357   8.137   8.281 -0.0538  0.6304  0.7314
  223MOL0     H30064   8.320   8.175   8.448 -0.4625  0.4563 -0.1404
  223MOL0     H30065   8.271   7.758   8.502 -0.1799 -0.0285  0.8978
  223MOL0     H30066   8.007   7.631   8.665 -0.0436 -2.6948  0.7135
  223MOL0     H30067   7.996   7.543   8.527  1.4117 -2.3543  1.5502
  223MOL0     H30068   8.157   7.593   8.571 -0.9598 -1.5434 -0.2940
  223MOL0     H30069   7.630   7.653   8.671 -0.5185 -0.2988  0.3259
  223MOL0     H30070   7.395   7.596   8.673  0.9429  0.4671  4.0040
  223MOL0     H30071   7.216   7.565   8.560 -0.1645  0.1539 -0.5749
  223MOL0     H30072   7.087   7.594   8.685  0.3923  0.8871  0.5769
  223MOL0     H30073   6.961   7.717   8.508  0.5515  1.4053 -1.9575
  223MOL0     H30074   7.073   7.645   8.389 -0.9140 -0.2115 -0.6925
  223MOL0     H30075   6.866   7.512   8.570 -1.0232 -1.2648 -1.2171
  223MOL0     H30076   6.992   7.419   8.504  0.9407  0.7974  1.3323
  223MOL0     H30077   6.820   7.623   8.354 -2.9373 -0.3576 -0.6688
  223MOL0     H30078   6.922   7.495   8.275 -1.9704  0.5108 -1.0940
  223MOL0     H30079   6.741   7.362   8.429  0.8035  0.7700  0.9783
  223MOL0     H30080   6.724   7.405   8.250 -0.2961  2.3462 -0.9723
  223MOL0     H30081   6.621   7.586   8.475 -1.9809 -0.9139  0.5329
  223MOL0     H30082   6.578   7.595   8.312 -3.6187  0.4900  2.0078
  223MOL0     H30083   6.477   7.407   8.527 -0.8664 -0.8613  0.0997
  223MOL0     H30084   6.502   7.326   8.366  0.5243  0.0558 -0.1820
  223MOL0     H30085   6.280   7.398   8.379 -1.2163  1.7554  0.3788
  223MOL0     H30086   6.360   7.462   8.255  0.1332 -1.1220 -0.2136
  223MOL0     H30087   7.287   7.985   8.531  0.4576  0.7533  2.4544
  223MOL0     H30088   7.536   8.045   8.529  2.6067 -0.5599  0.3289
  223MOL0     H30089   7.889   8.032   8.371 -1.5762  1.2477  2.2726
  223MOL0     H30090   8.092   8.116   8.334  2.4349 -0.2042 -1.7368
  223MOL0     H30091  10.159   8.564   7.956 -0.2397 -0.2241 -1.6689
  223MOL0     H30092  10.387   8.664   7.995  0.5918  0.0274 -1.9148
  223MOL0     H30093  10.799   8.774   7.712  2.4881 -1.0704 -2.3392
  223MOL0     H30094  11.038   8.829   7.717 -2.3167  0.4694 -2.1638
  223MOL0     H30095  11.278   8.719   8.070  0.0173  1.5416  0.3448
  223MOL0     H30096  11.369   8.631   7.939 -1.0273 -0.4560 -1.0938
  223MOL0     H30097  11.493   8.817   8.063 -0.5553 -1.1069  0.1551
  223MOL0     H30098  11.367   8.926   8.010  0.2098  0.0445  1.9609
  223MOL0     H30099  11.533   8.759   7.813  2.6753 -0.2742  1.0175
  223MOL0     H30100  11.599   8.914   7.887 -0.8860  0.1914  0.0953
  223MOL0     H30101  11.403   9.040   7.793 -0.7555  0.0683  0.0761
  223MOL0     H30102  11.367   8.896   7.692  1.2177  2.1778 -2.8745
  223MOL0     H30103  11.633   9.065   7.444  1.3085 -1.4262 -0.2539
  223MOL0     H30104  11.096   8.587   8.060 -1.0860 -1.0937  0.4379
  223MOL0     H30105  10.861   8.503   8.033 -1.6242 -1.8284 -1.5646
  224MOL0     O30106   6.395   4.890   7.503 -0.2371  0.6335  0.1080
  224MOL0     C30107   6.413   4.940   7.617  0.1621 -0.5406  1.0007
  224MOL0     O30108   6.312   5.006   7.685 -0.3994 -0.0992 -0.3915
  224MOL0     C30109   6.218   5.062   7.609 -0.0711  0.0406 -0.0690
  224MOL0     C30110   6.252   5.187   7.561  0.0429  0.6236 -0.5825
  224MOL0     C30111   6.151   5.263   7.501  1.0967  0.0929 -0.0322
  224MOL0     C30112   6.018   5.217   7.503  0.1980 -0.6217  0.5646
  224MOL0     O30113   5.921   5.297   7.464 -0.3217 -1.0596  1.3042
  224MOL0     C30114   5.831   5.249   7.360 -0.7954 -0.3821  0.1278
  224MOL0     C30115   5.705   5.334   7.359 -0.4719  0.3322 -0.4364
  224MOL0     C30116   5.720   5.478   7.346  0.4156 -0.1301  0.2207
  224MOL0     C30117   5.592   5.562   7.325  0.1707 -0.2167  0.1506
  224MOL0     C30118   5.607   5.714   7.340 -1.1300  0.2722  0.6173
  224MOL0     C30119   5.709   5.765   7.237 -0.0028  0.6738  0.6505
  224MOL0     C30120   5.715   5.919   7.233 -0.6483 -0.8628 -0.7060
  224MOL0     C30121   5.798   5.976   7.346 -0.5001 -0.3759 -0.5422
  224MOL0     N30122   5.795   6.124   7.359 -0.2775  0.1833 -0.6970
  224MOL0     C30123   5.757   6.193   7.475  0.2229  0.5684 -0.1741
  224MOL0     C30124   5.778   6.318   7.441  0.5203  0.5048  0.8131
  224MOL0     C30125   5.746   6.423   7.535  1.0591 -0.5902  0.0645
  224MOL0     C30126   5.638   6.532   7.486 -0.1646  0.3479  0.0054
  224MOL0     C30127   5.600   6.632   7.593 -0.5081  0.0585  0.0858
  224MOL0     C30128   5.492   6.709   7.528  0.5067  0.1811 -0.5759
  224MOL0     O30129   5.372   6.644   7.505  0.1235 -0.4539  0.2666
  224MOL0     C30130   5.276   6.644   7.603  0.1106  0.9339 -0.1677
  224MOL0     C30131   5.159   6.582   7.576  0.3797 -0.1685 -0.0187
  224MOL0     C30132   5.053   6.582   7.662 -0.0254  0.4188  0.1203
  224MOL0     C30133   4.924   6.518   7.611  0.4613  0.5059  0.0195
  224MOL0     C30134   5.071   6.641   7.794  0.4697 -0.2489  0.1068
  224MOL0     C30135   4.956   6.649   7.899  0.4779 -0.4122  0.8840
  224MOL0     O30136   4.994   6.701   8.019  0.3356 -0.1376  0.2411
  224MOL0     C30137   4.899   6.713   8.115 -0.0432 -0.1031 -0.2332
  224MOL0     C30138   4.933   6.653   8.241  0.0406 -0.0789  0.3810
  224MOL0     C30139   4.853   6.671   8.351  0.4277 -0.5124  0.1852
  224MOL0     C30140   4.729   6.746   8.349  0.7105  0.0193  0.4449
  224MOL0     O30141   4.660   6.778   8.470 -0.2362  0.4887  0.1787
  224MOL0     C30142   4.523   6.827   8.449  0.8260 -0.0453 -0.5698
  224MOL0     C30143   4.454   6.845   8.589  0.2784 -0.0633  0.1028
  224MOL0     C30144   4.302   6.877   8.563  0.3396 -0.3340 -0.4212
  224MOL0     C30145   4.258   7.002   8.483  0.2078  0.3181  0.2227
  224MOL0     C30146   4.261   6.992   8.326 -0.3349 -0.2781 -0.1468
  224MOL0     C30147   4.161   7.088   8.265  0.2203  0.1234 -0.3757
  224MOL0     C30148   4.178   7.073   8.112  0.6435 -0.2502  0.9142
  224MOL0     C30149   4.250   7.192   8.034 -0.5261 -0.8246 -0.4630
  224MOL0    Cl30150   4.282   7.142   7.868 -0.0001  0.2559  0.2587
  224MOL0     C30151   4.700   6.807   8.224 -0.2526  0.3484  0.0117
  224MOL0     C30152   4.783   6.786   8.106  0.4891 -0.3326  0.0240
  224MOL0     O30153   4.845   6.610   7.873  0.3192 -0.0506  0.4288
  224MOL0     C30154   5.195   6.693   7.826  0.0114  0.8828 -0.9447
  224MOL0     C30155   5.294   6.706   7.727  0.4428  0.4831  0.7385
  224MOL0     N30156   5.824   6.336   7.316 -0.2526 -0.0838  0.2151
  224MOL0     N30157   5.849   6.219   7.267  0.4029  0.5883 -0.0320
  224MOL0     C30158   5.989   5.086   7.548  0.1733  0.6443  0.3140
  224MOL0     C30159   6.086   5.012   7.602  1.1185 -0.1955 -0.5177
  224MOL0     C30160   6.535   4.913   7.692  0.2552  0.2626  0.2152
  224MOL0     C30161   6.654   4.897   7.623 -0.2558 -0.5265  1.0059
  224MOL0     C30162   6.776   4.891   7.696 -0.5344  0.3965 -1.3613
  224MOL0     C30163   6.782   4.892   7.839  0.3605 -0.0607 -0.6749
  224MOL0     O30164   6.889   4.879   7.916  0.4161 -0.7280 -0.4812
  224MOL0     C30165   7.029   4.870   7.869  0.4883 -0.1369 -0.8424
  224MOL0     C30166   7.091   5.002   7.819 -0.0490 -0.4815 -0.7429
  224MOL0     C30167   7.117   5.098   7.933 -0.4476 -0.0518  0.4649
  224MOL0     C30168   7.258   5.077   8.009  0.0798 -0.2069  0.5312
  224MOL0     C30169   7.361   5.179   7.977 -0.0397  0.5066 -0.2090
  224MOL0     C30170   7.431   5.276   7.952 -0.4762 -0.3370 -0.1515
  224MOL0     C30171   6.659   4.891   7.905  0.2679 -0.6777 -0.4243
  224MOL0     C30172   6.537   4.900   7.832  0.0489 -0.1299  1.0642
  224MOL0     H30173   6.355   5.219   7.572  0.9885 -2.2723 -0.0790
  224MOL0     H30174   6.164   5.363   7.462 -2.9336  0.7873 -0.0234
  224MOL0     H30175   5.876   5.245   7.261 -0.4808 -5.5179  0.1786
  224MOL0     H30176   5.794   5.148   7.384 -0.1715 -0.3389  1.3477
  224MOL0     H30177   5.635   5.292   7.286 -2.6569 -0.5080  1.9815
  224MOL0     H30178   5.647   5.318   7.450 -0.4256 -0.0462 -0.4708
  224MOL0     H30179   5.769   5.515   7.436  0.6116  1.3264 -0.4563
  224MOL0     H30180   5.781   5.503   7.259 -1.5366  1.3549 -0.8263
  224MOL0     H30181   5.539   5.543   7.231 -0.2596  2.5367 -0.2288
  224MOL0     H30182   5.526   5.529   7.406  0.3254  0.3845  0.5275
  224MOL0     H30183   5.513   5.767   7.319  0.2380  2.5077 -0.2519
  224MOL0     H30184   5.651   5.728   7.438  0.5476 -0.7671  0.0429
  224MOL0     H30185   5.811   5.725   7.249  0.0030  0.9144  1.4957
  224MOL0     H30186   5.675   5.745   7.135  0.3982 -0.8409  0.7793
  224MOL0     H30187   5.765   5.956   7.143  0.9483  0.7918  0.8030
  224MOL0     H30188   5.614   5.960   7.226  0.4277  2.6362  1.8771
  224MOL0     H30189   5.902   5.944   7.333 -0.1475  1.6577 -4.6160
  224MOL0     H30190   5.751   5.943   7.438 -1.2069 -0.4476 -0.9221
  224MOL0     H30191   5.712   6.157   7.568 -0.2358 -0.0922 -0.6354
  224MOL0     H30192   5.700   6.382   7.625 -2.1041  0.5069 -0.9050
  224MOL0     H30193   5.839   6.476   7.559  1.3529 -1.0444 -0.0578
  224MOL0     H30194   5.549   6.481   7.448 -0.2476  1.3126 -1.1429
  224MOL0     H30195   5.671   6.592   7.401 -0.0166  0.7786  0.3657
  224MOL0     H30196   5.690   6.691   7.613  0.0260 -0.9923  0.8790
  224MOL0     H30197   5.555   6.583   7.680  0.9319 -3.0624 -0.8136
  224MOL0     H30198   5.525   6.755   7.434  0.0868 -2.1158 -1.9353
  224MOL0     H30199   5.464   6.799   7.584 -1.3020 -0.3709 -0.5014
  224MOL0     H30200   5.140   6.559   7.471 -2.4731  0.9075  0.1680
  224MOL0     H30201   4.914   6.423   7.664 -3.2521 -0.2574 -1.7407
  224MOL0     H30202   4.836   6.580   7.631 -0.6834 -1.1556  0.2354
  224MOL0     H30203   4.937   6.503   7.504 -0.1431 -1.0561  0.1503
  224MOL0     H30204   5.025   6.597   8.252  0.4659  0.5565  0.1194
  224MOL0     H30205   4.875   6.618   8.443 -2.0695  1.3957  2.0366
  224MOL0     H30206   4.535   6.927   8.408  3.0594  0.8929  2.0476
  224MOL0     H30207   4.462   6.759   8.389 -0.4177  2.0125 -1.7143
  224MOL0     H30208   4.462   6.753   8.647 -1.4150 -1.2130 -1.3692
  224MOL0     H30209   4.498   6.930   8.641  1.3399 -0.4883 -0.0758
  224MOL0     H30210   4.255   6.891   8.660  2.3930  1.1671  0.4376
  224MOL0     H30211   4.252   6.790   8.520 -1.9549  0.0742  1.2424
  224MOL0     H30212   4.155   7.024   8.511 -0.2480  0.1896 -1.2547
  224MOL0     H30213   4.304   7.096   8.516 -1.7810  0.8990  1.4434
  224MOL0     H30214   4.232   6.890   8.299  0.0396 -0.6442  0.7664
  224MOL0     H30215   4.360   7.014   8.287 -0.9951 -0.6293 -2.1503
  224MOL0     H30216   4.060   7.063   8.299 -1.3487  4.9809 -0.7466
  224MOL0     H30217   4.193   7.189   8.292 -1.1730  1.1482 -2.3344
  224MOL0     H30218   4.078   7.068   8.068  1.3127 -1.4589 -0.5640
  224MOL0     H30219   4.223   6.977   8.084 -0.3055 -0.3868 -0.1995
  224MOL0     H30220   4.336   7.225   8.092 -0.1489  1.9786 -2.3778
  224MOL0     H30221   4.181   7.278   8.031 -0.8295 -1.0417  0.0847
  224MOL0     H30222   4.615   6.874   8.215 -1.4463 -1.1218 -0.0555
  224MOL0     H30223   4.760   6.834   8.012 -0.2151 -0.6289  0.0350
  224MOL0     H30224   5.221   6.737   7.922 -0.6180 -0.1889 -0.2474
  224MOL0     H30225   5.386   6.755   7.758  2.2104 -3.0881  1.6568
  224MOL0     H30226   5.888   5.047   7.547  0.9760 -1.6815  1.7893
  224MOL0     H30227   6.066   4.919   7.654  0.5330 -0.4616 -1.2107
  224MOL0     H30228   6.658   4.903   7.515  0.5235 -2.6204  0.8884
  224MOL0     H30229   6.867   4.868   7.641 -1.3094  1.9780 -3.4650
  224MOL0     H30230   7.081   4.824   7.953  0.3043  0.2642 -0.5086
  224MOL0     H30231   7.024   4.808   7.779 -2.0511 -2.3467  0.6628
  224MOL0     H30232   7.008   5.045   7.761 -2.4724 -0.7101  2.2837
  224MOL0     H30233   7.176   4.982   7.753  1.1822 -1.8978  1.1675
  224MOL0     H30234   7.028   5.103   7.996 -1.6788  0.7057 -1.2703
  224MOL0     H30235   7.119   5.194   7.882 -0.7631 -0.5569 -0.5207
  224MOL0     H30236   7.299   4.977   7.988 -2.8121 -1.1660 -1.0359
  224MOL0     H30237   7.240   5.080   8.116  1.4213 -1.4401  0.8254
  224MOL0     H30238   7.496   5.358   7.928  0.5588 -1.5021 -1.5190
  224MOL0     H30239   6.646   4.892   8.012 -0.3164  1.4509 -0.4671
  224MOL0     H30240   6.441   4.900   7.884  0.6895  0.0246  2.2794
  225MOL0     O30241   8.879   7.508   1.609 -0.0074 -0.3994 -0.5661
  225MOL0     C30242   8.924   7.598   1.675  0.1307  0.0643 -0.4063
  225MOL0     O30243   8.867   7.720   1.691 -1.0295  0.3585  0.0487
  225MOL0     C30244   8.738   7.745   1.655 -0.1644 -0.3353  0.3617
  225MOL0     C30245   8.636   7.647   1.657 -0.5804  0.0906  0.6769
  225MOL0     C30246   8.511   7.684   1.605 -0.1933 -0.1940  0.2252
  225MOL0     C30247   8.477   7.810   1.565 -0.1781 -0.5955 -0.1563
  225MOL0     O30248   8.364   7.858   1.509  0.4877 -0.0419  0.1817
  225MOL0     C30249   8.245   7.769   1.511 -0.2092 -0.1145  0.2153
  225MOL0     C30250   8.248   7.674   1.403  0.5856  0.0707  0.3046
  225MOL0     C30251   8.122   7.587   1.387  0.2558  0.1874  0.3335
  225MOL0     C30252   8.014   7.670   1.313  0.1572 -0.2308 -0.4693
  225MOL0     C30253   7.891   7.585   1.276  0.0969 -0.3685 -0.3379
  225MOL0     C30254   7.784   7.677   1.227 -0.0704 -0.1659  0.7777
  225MOL0     C30255   7.658   7.591   1.199  0.8348 -0.7351 -0.3778
  225MOL0     C30256   7.568   7.582   1.324  0.0812  0.4112  0.3944
  225MOL0     N30257   7.445   7.504   1.300  0.1887  0.2279 -0.0824
  225MOL0     C30258   7.444   7.369   1.277  0.2797  0.1252 -1.2013
  225MOL0     C30259   7.315   7.344   1.230 -0.1481 -0.6042 -1.0741
  225MOL0     C30260   7.268   7.208   1.185  0.6692  0.5727 -0.4828
  225MOL0     C30261   7.116   7.216   1.161 -0.0106  0.1435 -0.0849
  225MOL0     C30262   7.049   7.082   1.131  0.8252  0.0067  0.4495
  225MOL0     C30263   6.896   7.086   1.114 -0.0057 -0.5082  0.1566
  225MOL0     O30264   6.875   7.171   0.999 -1.0494 -1.0276  0.2041
  225MOL0     C30265   6.751   7.191   0.939  0.3321  0.0854  0.1866
  225MOL0     C30266   6.736   7.288   0.831 -0.3714 -0.9092 -0.6495
  225MOL0     C30267   6.611   7.318   0.772  0.2307 -0.3141  0.7783
  225MOL0     C30268   6.605   7.406   0.658 -0.1062 -1.1601  0.5555
  225MOL0     C30269   6.495   7.246   0.813  0.1322  0.6890 -0.5461
  225MOL0     C30270   6.361   7.281   0.763  0.4205  0.7699 -0.1202
  225MOL0     O30271   6.270   7.176   0.748 -0.0018 -0.2261 -0.2178
  225MOL0     C30272   6.144   7.222   0.736  0.7764  0.2501 -0.1484
  225MOL0     C30273   6.083   7.217   0.610 -0.2225 -0.4544  0.2208
  225MOL0     C30274   5.947   7.259   0.596 -0.5072 -0.4686  0.2107
  225MOL0     C30275   5.878   7.303   0.708 -0.3848 -0.0740 -0.3220
  225MOL0     O30276   5.744   7.330   0.671  0.5433 -0.1363  0.4598
  225MOL0     C30277   5.657   7.398   0.763  0.9861 -0.8068  0.2763
  225MOL0     C30278   5.514   7.440   0.710 -0.3605 -0.4999  0.2770
  225MOL0     C30279   5.428   7.313   0.703  0.0852  0.4899  0.3313
  225MOL0     C30280   5.297   7.327   0.614  0.1921  0.1181  0.1570
  225MOL0     C30281   5.217   7.195   0.595 -0.3459  0.1454  0.0119
  225MOL0     C30282   5.088   7.218   0.518  0.3502 -0.4489  0.3390
  225MOL0     C30283   4.987   7.311   0.580 -0.1224 -0.3503  0.7533
  225MOL0     C30284   4.843   7.298   0.520 -0.4825 -0.2986  0.0821
  225MOL0    Cl30285   4.845   7.404   0.380 -0.2376  0.1060 -0.3835
  225MOL0     C30286   5.934   7.307   0.834  0.5319 -0.0028 -0.7081
  225MOL0     C30287   6.071   7.271   0.847  0.1334 -0.4621  0.0516
  225MOL0     O30288   6.344   7.394   0.721  0.1527  0.2782 -0.2423
  225MOL0     C30289   6.517   7.138   0.900  0.8301  0.2492  0.2827
  225MOL0     C30290   6.639   7.108   0.962 -0.4201 -0.3508 -0.5108
  225MOL0     N30291   7.242   7.465   1.235  0.7240  0.5334  0.1904
  225MOL0     N30292   7.320   7.557   1.265 -0.3992  0.1097 -0.8794
  225MOL0     C30293   8.576   7.910   1.570  0.2293  0.9355 -0.8418
  225MOL0     C30294   8.706   7.880   1.617  0.3368 -0.0296 -0.4162
  225MOL0     C30295   9.058   7.583   1.739 -0.2854 -0.3019  0.2653
  225MOL0     C30296   9.132   7.460   1.721 -0.5000  0.1343  0.4092
  225MOL0     C30297   9.258   7.447   1.773 -0.1718  0.0509 -0.3213
  225MOL0     C30298   9.325   7.556   1.840 -0.2643 -0.3991  0.5047
  225MOL0     O30299   9.455   7.557   1.885 -0.0997  0.4746  0.1335
  225MOL0     C30300   9.552   7.475   1.815  0.4996 -0.6117 -0.7404
  225MOL0     C30301   9.679   7.481   1.892  0.0478  0.0520  0.6192
  225MOL0     C30302   9.784   7.413   1.797  1.2204  0.0905 -1.2742
  225MOL0     C30303   9.783   7.264   1.798  0.0058  0.1677  0.0798
  225MOL0     C30304   9.895   7.223   1.712 -0.3881  0.4273  0.1909
  225MOL0     C30305   9.995   7.214   1.650 -1.0383 -0.0256  0.3721
  225MOL0     C30306   9.252   7.673   1.859  0.4335  0.2322  0.5547
  225MOL0     C30307   9.117   7.683   1.816  0.0484  0.0505 -0.4423
  225MOL0     H30308   8.651   7.549   1.700 -3.8426 -1.9629 -2.3814
  225MOL0     H30309   8.436   7.608   1.628 -0.6416 -0.1987 -1.1829
  225MOL0     H30310   8.227   7.724   1.609 -2.1492 -0.9941 -0.4989
  225MOL0     H30311   8.154   7.829   1.498 -0.8866 -1.2433 -0.3970
  225MOL0     H30312   8.249   7.737   1.313 -0.5821 -2.3962 -1.5824
  225MOL0     H30313   8.327   7.600   1.395  0.9507  0.4947 -0.1043
  225MOL0     H30314   8.152   7.498   1.330  0.4670 -0.5400  1.5234
  225MOL0     H30315   8.090   7.557   1.488  2.3504 -2.2482  0.3727
  225MOL0     H30316   7.977   7.751   1.377  0.5377 -1.8959  1.9915
  225MOL0     H30317   8.054   7.712   1.220  0.0672  0.2136 -0.3080
  225MOL0     H30318   7.910   7.518   1.191  0.5015 -0.3379 -0.2770
  225MOL0     H30319   7.856   7.528   1.363 -3.0643  1.1314 -0.4916
  225MOL0     H30320   7.758   7.765   1.286 -0.7601  0.8567 -0.9559
  225MOL0     H30321   7.808   7.725   1.131 -1.6083  0.4920  0.6935
  225MOL0     H30322   7.607   7.641   1.117  0.2525 -0.8554 -0.0999
  225MOL0     H30323   7.688   7.492   1.163  1.1182 -0.2971 -1.3459
  225MOL0     H30324   7.545   7.680   1.365  1.3306  0.8774  0.0210
  225MOL0     H30325   7.622   7.542   1.410  3.2074  0.6932 -1.2930
  225MOL0     H30326   7.526   7.299   1.290 -0.6668 -0.9648 -0.8726
  225MOL0     H30327   7.306   7.173   1.089  1.9545  1.0255 -0.1584
  225MOL0     H30328   7.305   7.135   1.258 -2.3470 -2.1224 -1.4162
  225MOL0     H30329   7.095   7.279   1.075  0.1565  0.7337  0.2966
  225MOL0     H30330   7.069   7.263   1.249 -0.3815 -0.0279 -0.1897
  225MOL0     H30331   7.065   7.011   1.213  1.8551 -2.8630 -2.0747
  225MOL0     H30332   7.093   7.034   1.044  0.4458 -2.0083  1.3198
  225MOL0     H30333   6.843   7.126   1.200 -0.0495  0.9760 -0.5274
  225MOL0     H30334   6.863   6.984   1.089  1.5606 -1.0460  0.1732
  225MOL0     H30335   6.825   7.338   0.796 -1.9987  0.9302 -2.3969
  225MOL0     H30336   6.562   7.352   0.574  1.9712  0.0929 -1.4412
  225MOL0     H30337   6.551   7.501   0.668  1.2635 -0.4714  2.0253
  225MOL0     H30338   6.706   7.438   0.630 -0.8950  3.0428  1.6712
  225MOL0     H30339   6.142   7.190   0.523  0.7403  0.1234  0.6793
  225MOL0     H30340   5.900   7.267   0.499  0.4854  0.6757 -0.1958
  225MOL0     H30341   5.634   7.325   0.842 -0.8212  0.4286  0.9512
  225MOL0     H30342   5.713   7.479   0.811  2.2912 -1.7356  0.3825
  225MOL0     H30343   5.464   7.515   0.773  0.9049  0.1627  0.5395
  225MOL0     H30344   5.530   7.493   0.616 -1.4311  0.9642  0.8688
  225MOL0     H30345   5.393   7.289   0.804 -3.9742 -0.0194 -1.0385
  225MOL0     H30346   5.481   7.226   0.663  0.6930  1.5127 -1.1719
  225MOL0     H30347   5.230   7.391   0.671 -0.9030 -1.2474  0.4657
  225MOL0     H30348   5.308   7.365   0.512 -0.8271 -2.2100 -0.8950
  225MOL0     H30349   5.198   7.151   0.693 -0.5568 -1.4572 -0.7094
  225MOL0     H30350   5.280   7.135   0.528 -2.8502  0.1063 -2.4902
  225MOL0     H30351   5.115   7.246   0.416  0.4960 -1.2130  0.1667
  225MOL0     H30352   5.034   7.123   0.522 -1.0622  0.3596  2.7993
  225MOL0     H30353   5.014   7.416   0.590  0.7791 -0.1849 -2.2996
  225MOL0     H30354   4.971   7.275   0.682  2.2834 -0.3371  1.2041
  225MOL0     H30355   4.770   7.345   0.587 -2.2406 -2.0634 -0.5058
  225MOL0     H30356   4.812   7.196   0.496  2.3320 -1.2000 -0.1513
  225MOL0     H30357   5.881   7.344   0.921  3.0697  0.9482  0.5582
  225MOL0     H30358   6.125   7.295   0.938  1.5112  2.8006 -1.4680
  225MOL0     H30359   6.435   7.067   0.909  2.2174 -1.5485 -0.5262
  225MOL0     H30360   6.653   7.026   1.033  0.7472 -1.0608 -1.5307
  225MOL0     H30361   8.569   8.014   1.540 -0.7378  0.7468 -1.3140
  225MOL0     H30362   8.781   7.957   1.631 -1.7579  1.8252  1.4326
  225MOL0     H30363   9.098   7.377   1.660  0.8498  0.6813 -1.1690
  225MOL0     H30364   9.317   7.357   1.760  0.5841  0.3845  0.6513
  225MOL0     H30365   9.523   7.370   1.816  1.8660 -1.0084 -0.7274
  225MOL0     H30366   9.556   7.515   1.714 -1.9371  0.5406 -0.4701
  225MOL0     H30367   9.674   7.411   1.976 -1.2940 -0.4326  0.1574
  225MOL0     H30368   9.700   7.585   1.920  0.0157 -0.3672  2.3682
  225MOL0     H30369   9.881   7.452   1.829 -0.3346  1.7620  1.9346
  225MOL0     H30370   9.761   7.449   1.696 -1.3665  1.5043 -0.2803
  225MOL0     H30371   9.690   7.228   1.754 -1.0066 -3.1868  4.2653
  225MOL0     H30372   9.797   7.218   1.896 -2.5921  0.6616  0.7428
  225MOL0     H30373  10.082   7.211   1.587 -1.8721  1.3692 -0.9295
  225MOL0     H30374   9.296   7.753   1.918 -0.0240  0.6224  0.3802
  225MOL0     H30375   9.054   7.769   1.838 -0.4088 -0.4740  0.3172
  226MOL0     O30376   6.079   0.753   8.780  0.0538 -0.0153 -0.1787
  226MOL0     C30377   6.132   0.747   8.670 -0.3415 -0.5062 -0.0317
  226MOL0     O30378   6.101   0.668   8.565  0.3309 -0.6213  0.1806
  226MOL0     C30379   5.985   0.596   8.586 -0.5766 -0.7650  0.6922
  226MOL0     C30380   5.982   0.462   8.584 -0.7809  0.2867 -0.1358
  226MOL0     C30381   5.860   0.395   8.592 -0.4370 -0.0864  0.2284
  226MOL0     C30382   5.743   0.467   8.598 -1.2823 -1.2036  0.0191
  226MOL0     O30383   5.630   0.394   8.606  0.1940  0.4234  0.6139
  226MOL0     C30384   5.537   0.425   8.499  0.4147  0.4442  0.1933
  226MOL0     C30385   5.445   0.301   8.483  0.4503  0.1227  0.2342
  226MOL0     C30386   5.340   0.303   8.372  0.5945  0.7619 -0.0679
  226MOL0     C30387   5.214   0.378   8.422  0.9281 -0.4145 -0.1616
  226MOL0     C30388   5.101   0.349   8.332  0.5384  0.7094 -0.0145
  226MOL0     C30389   5.120   0.406   8.188  0.0754 -0.4943  0.2696
  226MOL0     C30390   4.984   0.426   8.119 -0.4414  0.3390 -0.4316
  226MOL0     C30391   4.992   0.448   7.970  0.7091 -0.4336 -0.4112
  226MOL0     N30392   4.848   0.449   7.925 -0.1136 -0.2705 -0.6760
  226MOL0     C30393   4.780   0.565   7.899 -0.7816 -0.1118 -0.0939
  226MOL0     C30394   4.669   0.521   7.838  0.3382  0.2249  0.1689
  226MOL0     C30395   4.548   0.602   7.799 -0.6951  0.1713 -0.4546
  226MOL0     C30396   4.485   0.573   7.664  0.1912 -0.0659  1.0030
  226MOL0     C30397   4.365   0.665   7.625 -0.3393 -0.7143  0.3324
  226MOL0     C30398   4.343   0.667   7.472  0.9531  0.7024  0.2188
  226MOL0     O30399   4.256   0.779   7.425  0.2064  0.4049  0.1419
  226MOL0     C30400   4.124   0.743   7.397  0.7796 -0.7583  0.4576
  226MOL0     C30401   4.063   0.813   7.289 -0.6660 -0.1109  0.0768
  226MOL0     C30402   3.929   0.808   7.255  0.9056 -0.1061 -0.4242
  226MOL0     C30403   3.876   0.897   7.139  0.1613 -0.5521 -0.1559
  226MOL0     C30404   3.843   0.705   7.310 -0.2492  0.0546  0.3226
  226MOL0     C30405   3.706   0.686   7.256 -0.0417  0.4058 -0.8006
  226MOL0     O30406   3.663   0.556   7.267 -0.4730 -0.8712  0.5711
  226MOL0     C30407   3.534   0.508   7.243  0.4992 -0.1850 -0.1507
  226MOL0     C30408   3.418   0.586   7.256 -0.0300 -0.0477 -0.9877
  226MOL0     C30409   3.294   0.520   7.247  0.5819 -0.2342 -0.5291
  226MOL0     C30410   3.285   0.380   7.212 -0.2430  0.6362 -0.8390
  226MOL0     O30411   3.171   0.309   7.189  0.1236 -0.2961  0.2467
  226MOL0     C30412   3.061   0.402   7.155  0.2677 -0.2103 -0.4992
  226MOL0     C30413   2.940   0.320   7.107  0.1192 -0.2205 -0.4102
  226MOL0     C30414   2.828   0.415   7.066  0.7216 -0.2067 -0.3430
  226MOL0     C30415   2.701   0.328   7.042  0.5085  0.2628  0.0659
  226MOL0     C30416   2.588   0.400   6.968  0.1595  0.0442  0.1660
  226MOL0     C30417   2.492   0.465   7.072 -0.6516 -0.8970  0.5236
  226MOL0     C30418   2.365   0.530   7.015  0.4008 -0.6157 -0.7141
  226MOL0     C30419   2.388   0.650   6.923 -0.3276 -0.0886  0.0881
  226MOL0    Cl30420   2.449   0.781   7.040 -0.2113 -0.3042  0.4623
  226MOL0     C30421   3.401   0.302   7.210 -0.0078  0.1622  0.5880
  226MOL0     C30422   3.530   0.368   7.216 -0.0782 -0.0617 -0.6210
  226MOL0     O30423   3.639   0.779   7.212  0.3238  0.3316  0.3649
  226MOL0     C30424   3.905   0.627   7.418 -0.4191  0.5744 -0.0038
  226MOL0     C30425   4.037   0.664   7.462  0.0072  0.7356 -0.5514
  226MOL0     N30426   4.666   0.386   7.833 -0.3231 -0.3944  0.0843
  226MOL0     N30427   4.781   0.340   7.872  0.2160 -0.6719  0.5062
  226MOL0     C30428   5.747   0.610   8.602  0.0277 -0.3207 -0.8720
  226MOL0     C30429   5.868   0.671   8.594  0.3566  0.5053 -0.0167
  226MOL0     C30430   6.261   0.822   8.653 -0.3298 -0.7027 -0.9207
  226MOL0     C30431   6.333   0.888   8.759 -0.3715  0.3090  0.8817
  226MOL0     C30432   6.461   0.947   8.736  0.9489 -0.1552  0.5342
  226MOL0     C30433   6.526   0.940   8.611 -0.0104  0.0023  0.6226
  226MOL0     O30434   6.646   0.997   8.584  0.1643 -0.1162 -0.7495
  226MOL0     C30435   6.715   1.075   8.678 -0.3779 -0.6002  0.3455
  226MOL0     C30436   6.851   1.121   8.627 -0.2505 -0.1570 -0.2087
  226MOL0     C30437   6.936   0.987   8.608 -0.3746 -0.3930 -0.1347
  226MOL0     C30438   7.068   1.009   8.536  0.0436 -0.7765 -0.2710
  226MOL0     C30439   7.151   1.103   8.611  0.6843  0.3276 -1.0573
  226MOL0     C30440   7.208   1.183   8.688 -0.0970  0.5805 -0.1107
  226MOL0     C30441   6.452   0.887   8.508  0.5964 -0.8764  0.2054
  226MOL0     C30442   6.327   0.831   8.528 -0.1630 -0.2152  0.0422
  226MOL0     H30443   6.074   0.403   8.581  0.0269  1.5636 -2.4208
  226MOL0     H30444   5.862   0.287   8.585 -1.1505 -0.1462  0.8749
  226MOL0     H30445   5.472   0.511   8.520 -3.3333 -1.9669 -0.5611
  226MOL0     H30446   5.581   0.455   8.403 -3.8147  2.6399 -1.3351
  226MOL0     H30447   5.512   0.216   8.467 -2.1700 -2.1556  0.5103
  226MOL0     H30448   5.393   0.287   8.579 -2.1058  0.3435 -1.0231
  226MOL0     H30449   5.374   0.351   8.280  0.5622  1.1592  0.1227
  226MOL0     H30450   5.319   0.200   8.343 -1.7034  0.4819  2.2043
  226MOL0     H30451   5.185   0.334   8.518 -0.1243 -1.5037 -0.9433
  226MOL0     H30452   5.219   0.486   8.436 -0.9685 -0.5690  2.6976
  226MOL0     H30453   5.067   0.246   8.340 -1.9904  1.4476 -0.2670
  226MOL0     H30454   5.014   0.407   8.364 -2.3927 -2.8829 -0.8864
  226MOL0     H30455   5.161   0.506   8.206 -1.8913 -0.1482  4.0001
  226MOL0     H30456   5.192   0.348   8.129  0.4309  0.8320 -0.6454
  226MOL0     H30457   4.924   0.335   8.130  0.3264 -0.2015 -0.6205
  226MOL0     H30458   4.944   0.513   8.172  3.5065  0.9053  2.0032
  226MOL0     H30459   5.047   0.371   7.915  0.8030  0.4740 -1.6526
  226MOL0     H30460   5.042   0.544   7.953 -0.1443 -0.0032 -0.5426
  226MOL0     H30461   4.807   0.668   7.920 -0.3156  0.3551 -2.6264
  226MOL0     H30462   4.472   0.585   7.876  1.6689 -0.8977  1.8093
  226MOL0     H30463   4.570   0.709   7.805 -2.4973  0.5221  0.6442
  226MOL0     H30464   4.446   0.471   7.662 -0.1390  0.0399 -1.5941
  226MOL0     H30465   4.563   0.578   7.588 -0.0647 -0.9117  0.6769
  226MOL0     H30466   4.381   0.768   7.659 -1.9060  0.4930 -2.2754
  226MOL0     H30467   4.272   0.634   7.674 -1.4025  1.8685  0.1337
  226MOL0     H30468   4.307   0.569   7.442 -0.9538  1.4386 -0.0037
  226MOL0     H30469   4.438   0.677   7.418  0.5609  1.9198 -0.2923
  226MOL0     H30470   4.130   0.876   7.231  2.4648 -1.2298  2.1914
  226MOL0     H30471   3.835   0.842   7.054 -0.6970  3.5240 -2.6235
  226MOL0     H30472   3.789   0.956   7.170 -0.1587 -1.4184  0.6604
  226MOL0     H30473   3.954   0.968   7.113  0.0554  0.0130  1.0135
  226MOL0     H30474   3.415   0.692   7.280  1.6241  0.1449 -1.5358
  226MOL0     H30475   3.207   0.579   7.275  0.1194 -1.9849  2.1006
  226MOL0     H30476   3.032   0.457   7.246  1.1031  1.4332 -1.1830
  226MOL0     H30477   3.087   0.473   7.076  2.4854  0.4464  0.7279
  226MOL0     H30478   2.980   0.257   7.027 -0.7290 -0.8483 -0.3531
  226MOL0     H30479   2.902   0.247   7.179 -0.9585  0.0267 -0.7080
  226MOL0     H30480   2.851   0.456   6.967 -0.6675 -2.1769 -1.5772
  226MOL0     H30481   2.801   0.490   7.140  0.8283 -1.0651  0.5827
  226MOL0     H30482   2.731   0.241   6.982 -2.6782 -1.0430  0.1797
  226MOL0     H30483   2.660   0.290   7.136 -0.5306  0.2156 -0.3925
  226MOL0     H30484   2.529   0.325   6.915  0.9406 -0.0788 -0.5479
  226MOL0     H30485   2.620   0.474   6.894 -2.5957  2.5694  1.2960
  226MOL0     H30486   2.474   0.384   7.144  0.3970 -1.2798  0.3852
  226MOL0     H30487   2.543   0.542   7.130  1.3231 -1.5365 -0.2526
  226MOL0     H30488   2.297   0.544   7.099 -1.3609  1.1019 -2.3182
  226MOL0     H30489   2.303   0.460   6.958 -0.7915 -1.1342  1.1269
  226MOL0     H30490   2.297   0.666   6.864  1.0388 -0.0118 -2.1149
  226MOL0     H30491   2.466   0.628   6.850 -0.6952 -3.3111  0.5113
  226MOL0     H30492   3.394   0.196   7.187 -2.1557 -0.1514  2.2689
  226MOL0     H30493   3.622   0.311   7.205  1.1510  0.4250  4.3496
  226MOL0     H30494   3.858   0.553   7.481  1.1503 -1.3753 -1.0154
  226MOL0     H30495   4.087   0.625   7.551 -2.3290 -0.0654  0.5065
  226MOL0     H30496   5.656   0.669   8.598 -0.6354 -1.1969  0.4308
  226MOL0     H30497   5.876   0.779   8.592  1.7816  0.4721  1.2729
  226MOL0     H30498   6.300   0.876   8.862 -1.7629  0.8618  0.5111
  226MOL0     H30499   6.495   1.008   8.819  0.0484 -0.2236  0.9725
  226MOL0     H30500   6.664   1.170   8.696 -0.7488 -1.1193  2.2490
  226MOL0     H30501   6.723   1.017   8.770 -3.3864 -2.4608 -0.4342
  226MOL0     H30502   6.893   1.196   8.695 -2.0218  1.6053 -0.9491
  226MOL0     H30503   6.832   1.161   8.527 -0.4318 -0.1835 -0.1838
  226MOL0     H30504   6.875   0.924   8.542 -1.4657  2.6412 -2.2171
  226MOL0     H30505   6.957   0.934   8.702 -0.0910 -0.8389 -0.4455
  226MOL0     H30506   7.041   1.037   8.434  0.6993  0.6077 -0.0931
  226MOL0     H30507   7.126   0.916   8.531 -0.5701 -1.3394  1.9725
  226MOL0     H30508   7.264   1.243   8.757 -0.6254 -0.7536  1.5436
  226MOL0     H30509   6.491   0.896   8.407 -0.5451  2.8464 -0.0823
  226MOL0     H30510   6.274   0.794   8.441 -0.2074  0.6748 -0.3152
  227MOL0     O30511   6.569  11.027   7.828 -0.0104 -0.4714 -0.3888
  227MOL0     C30512   6.609  10.917   7.790 -0.9781  0.1674  0.2476
  227MOL0     O30513   6.539  10.831   7.712  0.6921  0.2072  0.2821
  227MOL0     C30514   6.415  10.867   7.672 -0.2812 -0.1841  0.0690
  227MOL0     C30515   6.305  10.796   7.714  0.2487 -0.3921 -0.8344
  227MOL0     C30516   6.179  10.840   7.692  0.8189 -0.2167 -0.4567
  227MOL0     C30517   6.159  10.961   7.628 -0.1858 -0.4103 -0.1962
  227MOL0     O30518   6.021  10.994   7.603  0.2917  0.5941 -0.1749
  227MOL0     C30519   5.994  11.132   7.622 -0.0907 -0.1268 -0.2469
  227MOL0     C30520   5.846  11.161   7.647  0.2550 -0.0767  0.1841
  227MOL0     C30521   5.823  11.307   7.663 -0.3282 -0.4054 -0.3882
  227MOL0     C30522   5.677  11.342   7.651 -0.0308  0.3483 -0.3523
  227MOL0     C30523   5.649  11.488   7.663  0.1330 -0.0939 -0.4289
  227MOL0     C30524   5.509  11.541   7.629  0.2666  0.8451 -0.3365
  227MOL0     C30525   5.502  11.689   7.657 -1.5868  0.3330  0.6603
  227MOL0     C30526   5.360  11.741   7.619  0.1596  0.3616 -0.2033
  227MOL0     N30527   5.334  11.882   7.663 -0.2288  0.1338 -0.5179
  227MOL0     C30528   5.377  11.990   7.597 -0.1816  0.0818  0.1431
  227MOL0     C30529   5.334  12.092   7.674 -0.0360  0.4729 -0.2320
  227MOL0     C30530   5.359  12.241   7.666 -0.6778 -0.7460 -0.4545
  227MOL0     C30531   5.247  12.295   7.560 -0.2523  0.6128  0.0888
  227MOL0     C30532   5.276  12.426   7.493  0.1944  0.5831 -0.4911
  227MOL0     C30533   5.336  12.522   7.595 -0.0284 -0.3140  0.2658
  227MOL0     O30534   5.356  12.641   7.516  0.4252  0.4974  0.0251
  227MOL0     C30535   5.414  12.746   7.581  0.0676  0.7865 -0.4060
  227MOL0     C30536   5.428  12.863   7.509 -0.0154  0.0228  0.5728
  227MOL0     C30537   5.518  12.967   7.552 -0.1614 -0.0807 -0.2943
  227MOL0     C30538   5.531  13.084   7.463  0.7039 -0.0113  0.1498
  227MOL0     C30539   5.592  12.943   7.670 -0.1579  0.7564 -0.6786
  227MOL0     C30540   5.691  13.043   7.729 -0.0053  0.3691  0.8364
  227MOL0     O30541   5.783  12.993   7.825  0.0193 -0.1161 -0.2498
  227MOL0     C30542   5.889  13.070   7.875  0.1162  0.2161  0.0755
  227MOL0     C30543   5.876  13.193   7.943  1.0342 -0.3220 -0.1621
  227MOL0     C30544   5.990  13.257   7.979 -0.8636 -0.9279 -0.3770
  227MOL0     C30545   6.119  13.199   7.967 -0.1801 -0.1484 -0.1102
  227MOL0     O30546   6.219  13.286   8.012  0.1721  0.0876  0.3164
  227MOL0     C30547   6.343  13.227   8.056  0.8224  0.0517  0.5700
  227MOL0     C30548   6.425  13.333   8.111  0.3246 -0.4115 -1.1963
  227MOL0     C30549   6.559  13.284   8.177  0.1096  0.5836 -0.0633
  227MOL0     C30550   6.673  13.341   8.096 -1.4159  0.5460  0.0324
  227MOL0     C30551   6.812  13.307   8.156 -0.4634 -0.4832 -0.0428
  227MOL0     C30552   6.922  13.378   8.080 -0.3976  0.3101  0.2305
  227MOL0     C30553   7.058  13.355   8.148 -0.8588  0.8806 -0.2523
  227MOL0     C30554   7.132  13.230   8.107  0.8869  0.5260  0.0540
  227MOL0    Cl30555   7.158  13.231   7.935  0.2079 -0.2126 -0.0514
  227MOL0     C30556   6.130  13.078   7.897  0.2902 -0.9249 -0.4315
  227MOL0     C30557   6.017  13.020   7.845  0.6040  0.4177 -0.2261
  227MOL0     O30558   5.680  13.160   7.688 -0.5806 -0.5439  0.6782
  227MOL0     C30559   5.572  12.833   7.750 -0.6587 -0.2104 -1.0209
  227MOL0     C30560   5.480  12.738   7.707  0.2177  1.6635 -0.3443
  227MOL0     N30561   5.259  12.043   7.778  0.3853 -0.2928  0.0322
  227MOL0     N30562   5.252  11.913   7.764  0.2812 -0.4024  0.3502
  227MOL0     C30563   6.260  11.038   7.575  0.1652  0.4708  0.1490
  227MOL0     C30564   6.394  10.995   7.600 -0.3091 -0.3568 -0.9303
  227MOL0     C30565   6.728  10.867   7.862 -0.8791 -0.0174  0.0488
  227MOL0     C30566   6.797  10.945   7.959  0.8478 -0.1124 -0.0402
  227MOL0     C30567   6.908  10.900   8.039 -0.1986 -0.3035  0.8356
  227MOL0     C30568   6.947  10.765   8.013  0.2276  0.2396  0.2700
  227MOL0     O30569   7.049  10.695   8.071 -0.0884 -0.8427 -0.3193
  227MOL0     C30570   7.061  10.716   8.208  0.5178  0.3596 -0.1173
  227MOL0     C30571   7.133  10.594   8.270  0.1471 -0.2667 -0.3148
  227MOL0     C30572   7.286  10.625   8.263  0.5170 -0.3331  0.2844
  227MOL0     C30573   7.354  10.499   8.297  0.3167  0.0732 -1.0402
  227MOL0     C30574   7.396  10.485   8.438  0.8185 -0.3744 -0.7221
  227MOL0     C30575   7.428  10.467   8.554 -0.6709  0.2218 -0.3774
  227MOL0     C30576   6.884  10.690   7.908 -0.3552  1.7890 -0.4016
  227MOL0     C30577   6.778  10.739   7.837  0.2030  0.4810 -0.1803
  227MOL0     H30578   6.311  10.695   7.754 -1.7667 -1.5437 -3.1337
  227MOL0     H30579   6.086  10.798   7.729  0.2168 -0.1270 -1.7976
  227MOL0     H30580   6.047  11.166   7.711 -0.2075 -1.8139  0.4894
  227MOL0     H30581   6.028  11.161   7.522  2.0984 -0.6567  0.2879
  227MOL0     H30582   5.795  11.114   7.563 -2.2908  2.6482  0.0407
  227MOL0     H30583   5.828  11.115   7.745 -0.1019  0.5059  0.3985
  227MOL0     H30584   5.862  11.344   7.758 -0.6964 -2.1487  0.4890
  227MOL0     H30585   5.885  11.360   7.590  1.8090  1.9956  2.8515
  227MOL0     H30586   5.649  11.309   7.551 -0.6281  1.2488 -0.4905
  227MOL0     H30587   5.622  11.289   7.729  1.6685  0.1183  0.7553
  227MOL0     H30588   5.673  11.515   7.766 -0.7941  1.7068 -0.6466
  227MOL0     H30589   5.714  11.536   7.590  0.3003  2.1776  1.1245
  227MOL0     H30590   5.491  11.509   7.526  1.5100  1.0924 -0.6454
  227MOL0     H30591   5.434  11.500   7.698  0.1284  0.5935 -0.6324
  227MOL0     H30592   5.521  11.705   7.764  1.7559  0.4449  0.1627
  227MOL0     H30593   5.580  11.743   7.604 -2.7724 -0.9650 -2.6252
  227MOL0     H30594   5.284  11.679   7.668 -0.0115  1.2418  0.6948
  227MOL0     H30595   5.348  11.735   7.511  1.5685  0.5394 -0.3816
  227MOL0     H30596   5.430  11.987   7.503  1.0983  1.0208  0.7983
  227MOL0     H30597   5.343  12.282   7.766 -1.9519 -2.5214  0.1112
  227MOL0     H30598   5.461  12.259   7.632  0.0229 -0.5608  1.6344
  227MOL0     H30599   5.151  12.295   7.613 -0.6831  1.6993 -0.6580
  227MOL0     H30600   5.230  12.218   7.484  0.6197 -1.3791  1.7950
  227MOL0     H30601   5.180  12.454   7.449  0.0902 -0.5122 -1.0056
  227MOL0     H30602   5.351  12.417   7.414  1.3970  1.2192  0.5489
  227MOL0     H30603   5.435  12.481   7.617 -0.2155 -0.7563  0.2858
  227MOL0     H30604   5.272  12.534   7.682  0.9342 -2.1605  1.2748
  227MOL0     H30605   5.386  12.872   7.409  2.2393  2.0310 -0.2923
  227MOL0     H30606   5.463  13.072   7.378  0.3604 -0.0790  0.4328
  227MOL0     H30607   5.510  13.182   7.508  0.9271 -0.1233  0.4947
  227MOL0     H30608   5.630  13.074   7.418 -0.2158 -4.4076 -1.3656
  227MOL0     H30609   5.781  13.245   7.954  1.6163  0.3393  2.3285
  227MOL0     H30610   5.989  13.361   8.010  0.8174 -0.7082 -0.9556
  227MOL0     H30611   6.323  13.147   8.128  0.7058 -2.1367 -1.7506
  227MOL0     H30612   6.402  13.191   7.970  0.6650  1.3943 -0.1229
  227MOL0     H30613   6.443  13.410   8.035 -0.7222  0.9242 -0.1374
  227MOL0     H30614   6.381  13.389   8.194  2.0305 -0.7395 -0.0130
  227MOL0     H30615   6.564  13.175   8.185 -1.7834  0.5513  1.2364
  227MOL0     H30616   6.565  13.323   8.279 -1.2106 -0.8501  0.6066
  227MOL0     H30617   6.668  13.297   7.996  1.9392  0.4999 -0.2116
  227MOL0     H30618   6.669  13.450   8.085  0.7791  0.4925 -2.0788
  227MOL0     H30619   6.839  13.201   8.161 -0.3034 -0.4008  1.1385
  227MOL0     H30620   6.816  13.350   8.256 -2.3934 -1.2586  0.4000
  227MOL0     H30621   6.928  13.328   7.982 -1.2601  2.0966 -0.7849
  227MOL0     H30622   6.897  13.483   8.060 -2.5317 -0.8248 -4.5531
  227MOL0     H30623   7.042  13.344   8.256  2.0224 -0.2301  0.1520
  227MOL0     H30624   7.128  13.437   8.128  3.1890 -1.5554  2.5030
  227MOL0     H30625   7.069  13.145   8.135  1.3377 -0.5851 -2.1427
  227MOL0     H30626   7.229  13.206   8.152  0.9521  0.0572 -0.3399
  227MOL0     H30627   6.224  13.050   7.852  0.2696 -2.5574  0.4690
  227MOL0     H30628   6.031  12.929   7.787  1.1850  0.9463 -0.9389
  227MOL0     H30629   5.620  12.816   7.846  1.7665  0.7500 -1.9567
  227MOL0     H30630   5.474  12.650   7.770 -2.3388  0.3955 -2.1908
  227MOL0     H30631   6.241  11.127   7.517 -2.1693 -0.1826 -0.2028
  227MOL0     H30632   6.472  11.058   7.560 -0.1628 -2.1461 -3.6900
  227MOL0     H30633   6.765  11.047   7.979 -0.5452 -0.9134  2.1768
  227MOL0     H30634   6.954  10.962   8.115  0.1755 -0.4614  0.7425
  227MOL0     H30635   7.119  10.805   8.235  2.1454 -1.8271  4.6200
  227MOL0     H30636   6.960  10.721   8.251  0.7287 -0.7545  0.5450
  227MOL0     H30637   7.105  10.509   8.207  1.0783 -0.1049 -0.9812
  227MOL0     H30638   7.093  10.578   8.370  2.8643 -4.6793  0.3136
  227MOL0     H30639   7.302  10.702   8.339  0.4625 -0.9708  0.9577
  227MOL0     H30640   7.325  10.660   8.167  1.3819  0.1118  0.7886
  227MOL0     H30641   7.447  10.496   8.240  1.6138  1.5404  0.8613
  227MOL0     H30642   7.284  10.421   8.264  0.4342  0.4312 -2.1798
  227MOL0     H30643   7.461  10.445   8.654 -1.1074  0.7414 -0.1171
  227MOL0     H30644   6.920  10.593   7.878  1.0375  2.1763 -0.0457
  227MOL0     H30645   6.720  10.679   7.769 -1.4550  0.7507  0.9217
  228MOL0     O30646   1.783   3.577   5.319 -0.4708  0.0149  0.3506
  228MOL0     C30647   1.823   3.631   5.424 -1.1381 -0.3246 -0.2614
  228MOL0     O30648   1.761   3.643   5.543 -0.9403  0.2889  0.5927
  228MOL0     C30649   1.639   3.584   5.557  0.9686  0.3101 -0.5051
  228MOL0     C30650   1.543   3.655   5.626  0.0777 -0.4002 -0.1082
  228MOL0     C30651   1.413   3.617   5.642  0.3932 -0.2555 -0.1707
  228MOL0     C30652   1.370   3.488   5.605  1.0433 -0.2670  0.1790
  228MOL0     O30653   1.241   3.456   5.636 -0.0979  0.0363 -0.7951
  228MOL0     C30654   1.220   3.317   5.670 -0.4907  0.1108 -0.6360
  228MOL0     C30655   1.076   3.282   5.616 -0.6746  0.4441  0.2661
  228MOL0     C30656   0.969   3.340   5.697  0.3535 -0.4348  0.2183
  228MOL0     C30657   0.950   3.261   5.824  0.1455  0.1028 -0.7572
  228MOL0     C30658   0.811   3.284   5.897 -0.5155  1.2968 -0.6390
  228MOL0     C30659   0.695   3.276   5.805  0.7647 -0.1658 -0.4331
  228MOL0     C30660   0.557   3.268   5.878 -0.6439 -0.3316  0.6601
  228MOL0     C30661   0.444   3.312   5.785 -0.6990  0.4743 -0.3529
  228MOL0     N30662   0.311   3.322   5.856  1.2385  0.0418 -0.0504
  228MOL0     C30663   0.263   3.366   5.984  0.4014  0.9000 -0.0866
  228MOL0     C30664   0.128   3.337   5.980 -1.1825 -0.2367  0.1539
  228MOL0     C30665   0.031   3.344   6.094  0.6593  0.0221  0.4911
  228MOL0     C30666  -0.077   3.233   6.079 -0.4715 -0.1009  0.0794
  228MOL0     C30667  -0.177   3.260   6.190 -0.1513 -0.7295  0.3548
  228MOL0     C30668  -0.285   3.149   6.182  0.2615  0.3847  0.3917
  228MOL0     O30669  -0.396   3.202   6.257 -0.2127  0.2808 -0.1570
  228MOL0     C30670  -0.516   3.156   6.205 -0.3415  0.5759 -0.6247
  228MOL0     C30671  -0.541   3.016   6.187 -0.5678  0.1684 -0.3833
  228MOL0     C30672  -0.662   2.960   6.135 -0.2951  0.3190  0.1884
  228MOL0     C30673  -0.667   2.805   6.132  0.3417  0.3827 -0.6043
  228MOL0     C30674  -0.767   3.051   6.100 -0.0780 -0.0936 -0.0302
  228MOL0     C30675  -0.900   3.011   6.044 -0.8126  0.3113 -0.0932
  228MOL0     O30676  -0.989   3.108   6.012 -0.4473  0.3784  0.4398
  228MOL0     C30677  -1.123   3.091   5.998 -0.2334 -0.3982  0.6073
  228MOL0     C30678  -1.182   2.971   5.952  0.0012 -0.8489  0.7019
  228MOL0     C30679  -1.324   2.959   5.946 -0.4042  0.1741  0.2297
  228MOL0     C30680  -1.404   3.068   5.978  0.4391 -0.2122 -0.0740
  228MOL0     O30681  -1.542   3.058   5.978  0.5543 -0.0840 -0.6166
  228MOL0     C30682  -1.593   2.938   5.915  0.1052  0.4090  1.2343
  228MOL0     C30683  -1.749   2.924   5.920 -1.2437  0.6847  0.2547
  228MOL0     C30684  -1.801   3.059   5.871  0.1190 -0.7170  0.3990
  228MOL0     C30685  -1.953   3.068   5.873 -0.4101  0.0436  0.3778
  228MOL0     C30686  -2.019   2.947   5.801 -0.7973  0.3904 -0.9470
  228MOL0     C30687  -2.164   2.968   5.772 -0.1164  0.9352  0.0754
  228MOL0     C30688  -2.225   2.847   5.708  0.2907  0.1273  0.3552
  228MOL0     C30689  -2.376   2.862   5.674  0.2285  0.1330 -0.5804
  228MOL0    Cl30690  -2.469   2.892   5.821 -0.2478 -0.0864 -0.2455
  228MOL0     C30691  -1.347   3.193   5.995  0.1636  0.0969  0.0986
  228MOL0     C30692  -1.212   3.205   6.026  0.6568  0.3054  0.4340
  228MOL0     O30693  -0.923   2.895   6.047 -0.4982 -0.3291  0.3580
  228MOL0     C30694  -0.737   3.189   6.116  0.7001 -0.3841 -0.5258
  228MOL0     C30695  -0.621   3.244   6.169 -0.8471 -0.3263  0.0770
  228MOL0     N30696   0.094   3.280   5.861 -0.6345 -0.5223 -0.1717
  228MOL0     N30697   0.208   3.261   5.799 -0.0242 -0.3107 -0.1566
  228MOL0     C30698   1.466   3.412   5.534 -0.2266 -0.8864  0.4181
  228MOL0     C30699   1.593   3.459   5.511 -0.0440 -0.4199  0.1739
  228MOL0     C30700   1.959   3.689   5.417 -0.7770  0.3938  0.5171
  228MOL0     C30701   2.031   3.697   5.295 -0.6239  0.0575  0.2000
  228MOL0     C30702   2.156   3.770   5.286  0.7668  0.5406 -0.0595
  228MOL0     C30703   2.212   3.840   5.397  0.1919  0.0991  0.1619
  228MOL0     O30704   2.333   3.904   5.373 -0.3598  0.0990  1.4548
  228MOL0     C30705   2.373   4.021   5.452  0.4070 -0.8452  0.5205
  228MOL0     C30706   2.462   3.991   5.566 -0.8354  0.9761  0.4389
  228MOL0     C30707   2.609   3.954   5.526  0.3186 -0.0433 -0.1689
  228MOL0     C30708   2.699   4.065   5.468  1.1038 -0.1750 -0.9802
  228MOL0     C30709   2.727   4.180   5.563 -0.3519  0.9222 -0.3919
  228MOL0     C30710   2.757   4.277   5.625 -0.2924 -0.4191 -0.3019
  228MOL0     C30711   2.138   3.839   5.516  0.7062 -0.7235  0.2176
  228MOL0     C30712   2.017   3.766   5.525 -0.1481 -0.0794  0.1857
  228MOL0     H30713   1.577   3.746   5.675  2.9413 -1.7206  0.6094
  228MOL0     H30714   1.350   3.681   5.703  3.8422  2.1592  1.1830
  228MOL0     H30715   1.295   3.252   5.625  2.0106  0.5348  2.5463
  228MOL0     H30716   1.229   3.306   5.778  1.8890  3.1761 -0.3888
  228MOL0     H30717   1.074   3.319   5.513  1.1755  1.9433  0.7138
  228MOL0     H30718   1.069   3.174   5.600  0.2512  0.2242  1.2699
  228MOL0     H30719   0.977   3.446   5.723  2.6429 -0.3903 -0.4436
  228MOL0     H30720   0.880   3.340   5.634  2.7991  1.9843 -3.6403
  228MOL0     H30721   0.950   3.156   5.794 -0.2087 -0.5168  1.2516
  228MOL0     H30722   1.037   3.268   5.891  0.2630 -1.1373 -0.7522
  228MOL0     H30723   0.783   3.216   5.978 -0.5290  0.1042 -1.6162
  228MOL0     H30724   0.803   3.384   5.942  0.3045  0.8865  0.4688
  228MOL0     H30725   0.696   3.364   5.741  1.6606  0.8412  0.9012
  228MOL0     H30726   0.704   3.190   5.738  0.7967 -0.2967 -0.2605
  228MOL0     H30727   0.540   3.165   5.910 -2.9806  0.4612  2.2791
  228MOL0     H30728   0.562   3.334   5.965  1.7624  0.7088 -0.1832
  228MOL0     H30729   0.440   3.234   5.709 -0.0833 -1.3777  1.4512
  228MOL0     H30730   0.471   3.408   5.740  1.5101 -0.2303 -0.6298
  228MOL0     H30731   0.322   3.403   6.067  0.7475 -0.5622  0.3488
  228MOL0     H30732   0.082   3.346   6.191 -1.1865  1.0666  1.4956
  228MOL0     H30733  -0.025   3.438   6.093 -1.6427 -1.2712  0.6401
  228MOL0     H30734  -0.032   3.134   6.094  0.1495  0.2450  0.5035
  228MOL0     H30735  -0.122   3.236   5.979  0.5687  0.0745 -0.3926
  228MOL0     H30736  -0.229   3.351   6.160  0.6527 -0.3710  0.0171
  228MOL0     H30737  -0.136   3.286   6.288 -1.4435 -1.0905  1.0059
  228MOL0     H30738  -0.248   3.060   6.235 -0.4295 -1.0405 -1.4395
  228MOL0     H30739  -0.311   3.125   6.079  1.2926  1.0494 -0.0379
  228MOL0     H30740  -0.469   2.944   6.225  0.1322  1.2532  0.3916
  228MOL0     H30741  -0.742   2.762   6.199 -0.7778  1.4632 -1.1158
  228MOL0     H30742  -0.683   2.779   6.027 -0.0152  3.1449 -1.3105
  228MOL0     H30743  -0.567   2.764   6.148  0.4645  0.7228 -0.4975
  228MOL0     H30744  -1.126   2.892   5.902  3.1271  1.5815  0.0426
  228MOL0     H30745  -1.357   2.861   5.912 -2.7889  1.5468 -1.7396
  228MOL0     H30746  -1.561   2.938   5.811  0.7639 -2.0403  1.3903
  228MOL0     H30747  -1.560   2.854   5.977 -2.4237  1.5940  4.4901
  228MOL0     H30748  -1.787   2.845   5.854 -1.0569  0.1702  0.7562
  228MOL0     H30749  -1.785   2.906   6.022  0.7281 -0.4162  0.8165
  228MOL0     H30750  -1.755   3.075   5.773  2.0966 -0.6975  1.2985
  228MOL0     H30751  -1.776   3.143   5.937  0.1932  0.8578 -1.5415
  228MOL0     H30752  -1.996   3.090   5.971 -0.3783  2.4886 -0.0770
  228MOL0     H30753  -1.989   3.159   5.823  0.4880  0.3197  0.2036
  228MOL0     H30754  -2.012   2.858   5.864  1.0796 -0.2858 -2.0265
  228MOL0     H30755  -1.959   2.935   5.710 -1.5228  0.6108 -1.4636
  228MOL0     H30756  -2.213   3.002   5.864  0.3678  1.1328  0.2605
  228MOL0     H30757  -2.170   3.054   5.705  1.3966  0.2996 -0.9369
  228MOL0     H30758  -2.221   2.758   5.771 -0.7542 -1.2757 -1.4682
  228MOL0     H30759  -2.174   2.826   5.614  1.1598  0.8709  0.6470
  228MOL0     H30760  -2.405   2.770   5.622 -0.4577 -0.5172  0.8912
  228MOL0     H30761  -2.381   2.942   5.599  0.5971 -0.8463 -1.6883
  228MOL0     H30762  -1.410   3.279   6.013 -0.4588 -0.6079  1.4111
  228MOL0     H30763  -1.169   3.291   6.078  3.9964 -1.2986  0.5413
  228MOL0     H30764  -0.818   3.251   6.077 -2.1773 -1.6462  2.9126
  228MOL0     H30765  -0.595   3.350   6.176 -1.2690 -0.3517  2.9256
  228MOL0     H30766   1.445   3.315   5.490  0.2800  0.4569 -3.1951
  228MOL0     H30767   1.661   3.386   5.467 -1.4868 -0.8227 -1.4848
  228MOL0     H30768   1.995   3.641   5.209  0.4924 -0.0304 -0.2239
  228MOL0     H30769   2.200   3.769   5.187 -0.1715  1.1937 -0.4911
  228MOL0     H30770   2.419   4.092   5.383  2.2025 -2.0339  0.4113
  228MOL0     H30771   2.292   4.075   5.502  0.9647 -1.7420  2.4984
  228MOL0     H30772   2.411   3.903   5.607  0.6734  0.0859  0.4664
  228MOL0     H30773   2.467   4.074   5.638 -1.3523  2.6359 -1.3576
  228MOL0     H30774   2.606   3.871   5.455  0.6332 -1.3391  1.2676
  228MOL0     H30775   2.651   3.917   5.620  0.9260  0.6775 -0.1482
  228MOL0     H30776   2.645   4.112   5.385 -2.1716 -0.0533  1.0569
  228MOL0     H30777   2.801   4.029   5.453  1.2509 -0.3695  0.3993
  228MOL0     H30778   2.779   4.367   5.679 -1.2127  0.8597 -1.9872
  228MOL0     H30779   2.173   3.886   5.607 -2.6010 -0.3448  1.4529
  228MOL0     H30780   1.974   3.759   5.624  0.3256  0.5978  0.4480
  229MOL0     O30781   4.874   0.380   0.982  0.4113  0.1084  0.4248
  229MOL0     C30782   4.925   0.316   1.073 -0.3874 -0.1596 -0.6079
  229MOL0     O30783   4.885   0.197   1.120 -0.4761 -0.4062 -0.5239
  229MOL0     C30784   4.766   0.158   1.074  0.4091 -0.1864  0.6446
  229MOL0     C30785   4.681   0.132   1.181  0.1744  0.2798  0.7882
  229MOL0     C30786   4.554   0.078   1.156 -0.2077 -0.3900  0.8305
  229MOL0     C30787   4.506   0.062   1.026 -0.0521  0.5006 -0.4735
  229MOL0     O30788   4.391   0.001   0.985  0.2635 -0.3708 -0.1778
  229MOL0     C30789   4.319  -0.071   1.083  1.1309  0.4400 -0.2576
  229MOL0     C30790   4.181  -0.123   1.031  0.1216 -0.7971 -0.2966
  229MOL0     C30791   4.093   0.006   1.024 -0.1406 -0.1239 -0.3232
  229MOL0     C30792   4.001   0.014   1.154 -0.5423 -0.2228  0.5917
  229MOL0     C30793   3.892   0.115   1.143  0.3947 -0.5048  0.0030
  229MOL0     C30794   3.814   0.109   1.275 -0.1767 -0.2525  0.2111
  229MOL0     C30795   3.683   0.190   1.274  0.1506  0.7004  0.6804
  229MOL0     C30796   3.596   0.160   1.407  0.0811  0.4683  1.1884
  229MOL0     N30797   3.461   0.208   1.399 -0.4254 -0.4099  0.6942
  229MOL0     C30798   3.366   0.156   1.320 -0.4950  0.2209  0.7051
  229MOL0     C30799   3.254   0.231   1.348 -0.8662 -0.6807  0.5433
  229MOL0     C30800   3.113   0.213   1.296 -0.1372  0.1763 -0.5004
  229MOL0     C30801   3.084   0.215   1.140  0.1910  0.2852 -0.7462
  229MOL0     C30802   3.033   0.080   1.082 -0.4861 -1.1162 -0.0933
  229MOL0     C30803   2.880   0.069   1.109 -0.0879  0.0954  0.4197
  229MOL0     O30804   2.804   0.177   1.044 -0.0073  0.4588  0.3096
  229MOL0     C30805   2.667   0.188   1.065 -0.1709 -0.7598  0.3526
  229MOL0     C30806   2.605   0.306   1.021  0.0596  1.2623  0.7925
  229MOL0     C30807   2.468   0.331   1.049  0.5857  0.7986  0.4532
  229MOL0     C30808   2.403   0.472   1.012  0.1136  0.1504 -0.3844
  229MOL0     C30809   2.391   0.228   1.113  0.2949 -0.1216 -0.0607
  229MOL0     C30810   2.241   0.238   1.145  0.2177  0.0313 -0.1638
  229MOL0     O30811   2.170   0.355   1.112  0.3353 -0.0386  0.5423
  229MOL0     C30812   2.040   0.373   1.152 -0.1511  0.3075  0.4782
  229MOL0     C30813   1.975   0.469   1.065 -0.6177  0.6999 -1.0590
  229MOL0     C30814   1.842   0.509   1.089 -0.0377  0.6282  0.9241
  229MOL0     C30815   1.769   0.451   1.196  0.0364  0.0921 -0.6105
  229MOL0     O30816   1.639   0.501   1.220  0.4120 -0.3323  0.8840
  229MOL0     C30817   1.557   0.441   1.324 -0.0747 -0.4016 -0.3302
  229MOL0     C30818   1.418   0.494   1.323  1.1529  0.0068  0.5211
  229MOL0     C30819   1.349   0.521   1.182 -0.4368  0.3599 -0.4148
  229MOL0     C30820   1.198   0.551   1.190 -0.8455 -0.4563 -0.1154
  229MOL0     C30821   1.157   0.695   1.223 -1.6277  0.2421 -0.2796
  229MOL0     C30822   1.007   0.712   1.229  0.2467 -0.0654 -0.0784
  229MOL0     C30823   0.962   0.833   1.314  0.4436 -0.2086  0.5773
  229MOL0     C30824   0.816   0.872   1.287 -0.2523 -0.1997 -0.4228
  229MOL0    Cl30825   0.781   1.044   1.341  0.1048  0.4974  0.2028
  229MOL0     C30826   1.829   0.352   1.277 -0.6288  0.0227 -0.3817
  229MOL0     C30827   1.963   0.312   1.255  0.3457  0.1949  0.1876
  229MOL0     O30828   2.182   0.143   1.194 -0.3575  0.0612 -0.1579
  229MOL0     C30829   2.457   0.105   1.152 -0.0294  0.9791  0.2524
  229MOL0     C30830   2.592   0.086   1.124 -0.2416 -0.1792 -0.6995
  229MOL0     N30831   3.295   0.329   1.440 -0.1055  0.0879  0.9771
  229MOL0     N30832   3.417   0.318   1.467 -0.8308 -0.5079 -0.1045
  229MOL0     C30833   4.588   0.095   0.922 -0.0060 -0.5481  0.9468
  229MOL0     C30834   4.722   0.141   0.942  0.7422 -0.3758  0.8459
  229MOL0     C30835   5.050   0.365   1.138 -0.4163 -0.6062 -0.7605
  229MOL0     C30836   5.160   0.281   1.161 -0.0782 -0.1505 -0.3513
  229MOL0     C30837   5.272   0.329   1.231 -0.7572 -1.7730 -0.3918
  229MOL0     C30838   5.282   0.452   1.282 -0.4503 -0.1309  0.0881
  229MOL0     O30839   5.393   0.482   1.363  0.5192 -0.4987  0.0939
  229MOL0     C30840   5.414   0.615   1.391 -1.4747 -0.5216 -0.0690
  229MOL0     C30841   5.549   0.627   1.464  0.1735  1.2190  0.4896
  229MOL0     C30842   5.659   0.722   1.415  0.3419  0.0738 -0.3775
  229MOL0     C30843   5.781   0.730   1.510  0.0632  1.2500 -0.1014
  229MOL0     C30844   5.841   0.594   1.547  0.2039 -0.2241 -0.0493
  229MOL0     C30845   5.899   0.490   1.564 -0.1587  0.8116 -1.1996
  229MOL0     C30846   5.176   0.535   1.257  0.8737  0.4724  0.4330
  229MOL0     C30847   5.061   0.494   1.188  0.3113  0.2078 -0.2142
  229MOL0     H30848   4.709   0.153   1.284 -1.0439 -0.2360  1.2346
  229MOL0     H30849   4.495   0.051   1.243 -1.0262  0.7568  0.6614
  229MOL0     H30850   4.371  -0.157   1.126 -1.4517 -0.3938  1.4689
  229MOL0     H30851   4.299  -0.003   1.166 -1.2728  1.3026 -1.4279
  229MOL0     H30852   4.198  -0.164   0.931  2.2305 -0.8633  0.0538
  229MOL0     H30853   4.142  -0.204   1.094 -1.7193  0.6072  0.4646
  229MOL0     H30854   4.149   0.099   1.013  2.4165 -1.3904  1.0457
  229MOL0     H30855   4.033   0.008   0.933 -1.8580 -2.8050  0.6205
  229MOL0     H30856   3.943  -0.078   1.168 -3.6757  1.8093  2.1993
  229MOL0     H30857   4.060   0.027   1.245 -0.8563 -1.7056  1.0284
  229MOL0     H30858   3.935   0.214   1.122  2.2989 -1.1536  0.6300
  229MOL0     H30859   3.820   0.086   1.066  0.1718 -3.2133  1.1141
  229MOL0     H30860   3.784   0.009   1.309  1.6511  0.5581  5.1015
  229MOL0     H30861   3.874   0.146   1.359 -1.0905 -0.3267  0.9119
  229MOL0     H30862   3.700   0.295   1.250 -2.7548  0.8304 -1.2704
  229MOL0     H30863   3.627   0.146   1.191 -1.2694  0.7278  1.5975
  229MOL0     H30864   3.640   0.216   1.490 -2.8514  3.4688  0.8952
  229MOL0     H30865   3.596   0.051   1.420 -0.0481  0.3057 -0.0260
  229MOL0     H30866   3.374   0.071   1.253 -1.9187 -1.7624  2.8841
  229MOL0     H30867   3.066   0.127   1.345 -0.5111 -0.1241 -1.3632
  229MOL0     H30868   3.066   0.303   1.337  3.3704  2.1797 -0.5030
  229MOL0     H30869   3.176   0.247   1.092  0.6047 -1.9957 -1.6006
  229MOL0     H30870   3.007   0.290   1.120 -0.0526  0.3760  0.4486
  229MOL0     H30871   3.079  -0.008   1.127  2.3402  0.5567  0.5584
  229MOL0     H30872   3.031   0.083   0.973 -2.7349  0.5175 -0.0750
  229MOL0     H30873   2.866   0.066   1.217 -0.7735 -2.2941  0.3186
  229MOL0     H30874   2.842  -0.028   1.075 -0.6694  0.5880 -0.3783
  229MOL0     H30875   2.654   0.391   0.976  0.4145 -0.0372 -1.4141
  229MOL0     H30876   2.320   0.470   0.941 -2.6424 -1.1208  2.6086
  229MOL0     H30877   2.364   0.525   1.099 -1.3036  2.4375 -2.2941
  229MOL0     H30878   2.479   0.533   0.961  0.6566  0.8872  1.2433
  229MOL0     H30879   2.036   0.495   0.979 -1.4649 -0.6395 -2.0953
  229MOL0     H30880   1.798   0.583   1.022 -1.7273 -0.2240  1.0395
  229MOL0     H30881   1.548   0.334   1.301 -3.2080  0.0465 -1.6714
  229MOL0     H30882   1.599   0.462   1.423  2.0112  1.5372 -1.5189
  229MOL0     H30883   1.354   0.423   1.376  2.0894  0.5610  2.4667
  229MOL0     H30884   1.418   0.585   1.383 -0.2635  0.0081  0.5505
  229MOL0     H30885   1.364   0.433   1.119 -0.6323  0.9843 -1.3467
  229MOL0     H30886   1.404   0.600   1.132 -0.7337  1.8068  1.4212
  229MOL0     H30887   1.156   0.523   1.093 -0.4901 -3.6824  0.5490
  229MOL0     H30888   1.143   0.485   1.258 -1.5740 -2.0141 -2.1192
  229MOL0     H30889   1.216   0.761   1.159  0.9084 -1.3352  0.3238
  229MOL0     H30890   1.192   0.716   1.324 -1.2126  0.3810 -0.4514
  229MOL0     H30891   0.966   0.726   1.128  0.6863  2.4259  0.0140
  229MOL0     H30892   0.956   0.633   1.284  1.6385 -0.2292  1.0147
  229MOL0     H30893   1.020   0.921   1.285 -1.6743  0.2719 -2.8312
  229MOL0     H30894   0.981   0.815   1.420  1.4484 -1.4972  0.2018
  229MOL0     H30895   0.747   0.803   1.336  1.0788 -1.7826 -0.7077
  229MOL0     H30896   0.802   0.869   1.178  2.4618  0.1205 -0.8405
  229MOL0     H30897   1.778   0.303   1.359 -0.8854  0.8070 -0.0644
  229MOL0     H30898   2.008   0.242   1.326 -0.1804 -2.8540 -2.2714
  229MOL0     H30899   2.394   0.031   1.200  0.3066  0.4572 -0.0929
  229MOL0     H30900   2.644   0.002   1.169  1.1181  0.4096 -1.1278
  229MOL0     H30901   4.554   0.088   0.819  0.4112 -3.3591  0.9188
  229MOL0     H30902   4.779   0.170   0.854 -0.0555 -0.6935  0.2067
  229MOL0     H30903   5.155   0.177   1.129  1.8865 -1.4081  2.8476
  229MOL0     H30904   5.354   0.267   1.267  2.1475  2.0827  0.2847
  229MOL0     H30905   5.412   0.663   1.293  0.6711 -0.7553 -0.2687
  229MOL0     H30906   5.334   0.657   1.452 -0.9397  0.4098  0.0008
  229MOL0     H30907   5.589   0.526   1.477 -1.1246  0.5402 -0.5670
  229MOL0     H30908   5.521   0.663   1.563 -0.1393 -2.4760  1.9061
  229MOL0     H30909   5.605   0.817   1.414  1.1714  0.5520 -0.8876
  229MOL0     H30910   5.683   0.700   1.311 -0.7287  1.8969 -1.0552
  229MOL0     H30911   5.757   0.794   1.596 -0.0849 -1.1691  1.7549
  229MOL0     H30912   5.853   0.789   1.452  0.5204  1.5628  0.7729
  229MOL0     H30913   5.928   0.390   1.584  0.7503  1.2240 -0.4026
  229MOL0     H30914   5.171   0.635   1.300 -0.6334  1.1040 -1.0988
  229MOL0     H30915   4.988   0.574   1.181 -0.1858 -0.1034  1.0838
  230MOL0     O30916   3.132   1.102   1.853  0.2382  0.3144  0.0753
  230MOL0     C30917   3.170   1.141   1.960  0.3498  0.0296 -0.8860
  230MOL0     O30918   3.089   1.196   2.054  0.0524 -0.1723  0.1542
  230MOL0     C30919   2.956   1.187   2.028 -0.3885 -1.1314 -0.4689
  230MOL0     C30920   2.894   1.254   1.922  0.2421  0.3171 -0.3386
  230MOL0     C30921   2.753   1.256   1.915 -0.1931 -0.1440 -0.4526
  230MOL0     C30922   2.671   1.183   2.003  0.2520  0.0281  0.0257
  230MOL0     O30923   2.540   1.198   1.974  0.3239  0.1655 -0.8339
  230MOL0     C30924   2.449   1.097   2.022 -0.0249 -0.0395  0.4501
  230MOL0     C30925   2.311   1.094   1.952  0.2200  0.2548  1.4472
  230MOL0     C30926   2.239   1.231   1.973 -0.0774  0.0490 -0.4119
  230MOL0     C30927   2.101   1.225   1.888  0.3690 -0.4382 -1.7307
  230MOL0     C30928   2.010   1.349   1.916  0.5510 -0.1131 -0.2366
  230MOL0     C30929   1.893   1.355   1.819  0.3457  1.1474 -0.0131
  230MOL0     C30930   1.813   1.485   1.820 -0.7083  0.2997 -0.2175
  230MOL0     C30931   1.719   1.487   1.938  0.0085 -0.3726  0.3319
  230MOL0     N30932   1.576   1.462   1.896 -0.0617  0.6312  0.4506
  230MOL0     C30933   1.500   1.549   1.819  0.0458 -0.5913 -0.1898
  230MOL0     C30934   1.380   1.477   1.804  0.5609  0.1983  0.2969
  230MOL0     C30935   1.256   1.516   1.721  0.2514 -0.3263  1.1198
  230MOL0     C30936   1.136   1.577   1.796 -1.4014 -0.3724  0.0896
  230MOL0     C30937   1.042   1.626   1.687 -0.1534 -0.1380 -0.8872
  230MOL0     C30938   0.904   1.628   1.744 -0.3749 -1.1091 -0.2036
  230MOL0     O30939   0.905   1.740   1.835  0.8842 -0.6120 -0.1397
  230MOL0     C30940   0.780   1.795   1.882  0.0814  0.3573  0.5461
  230MOL0     C30941   0.767   1.814   2.020  0.2254 -0.1347  0.3688
  230MOL0     C30942   0.656   1.889   2.076  0.8803 -0.1299  1.4495
  230MOL0     C30943   0.667   1.920   2.229  0.6339 -0.3576 -0.0901
  230MOL0     C30944   0.551   1.927   1.982 -0.3018  0.2306 -0.1482
  230MOL0     C30945   0.445   2.020   2.018  0.4984  0.6562  0.0685
  230MOL0     O30946   0.391   2.087   1.913 -0.0780  0.1141 -0.1518
  230MOL0     C30947   0.315   2.191   1.944 -0.3131  0.8076 -0.6895
  230MOL0     C30948   0.345   2.312   1.880 -0.6091 -0.0929  0.2075
  230MOL0     C30949   0.258   2.419   1.897 -0.4613  1.0082 -0.0178
  230MOL0     C30950   0.132   2.398   1.967 -0.2117 -0.1413  0.2393
  230MOL0     O30951   0.037   2.499   1.982 -0.2539 -0.9538  0.6131
  230MOL0     C30952   0.004   2.576   1.865 -0.7104 -0.2222  0.0861
  230MOL0     C30953  -0.136   2.633   1.857  0.1048 -0.2658 -0.5011
  230MOL0     C30954  -0.156   2.727   1.972 -0.2399  0.5477 -0.4168
  230MOL0     C30955  -0.280   2.817   1.950 -0.1091  0.8960  0.6481
  230MOL0     C30956  -0.278   2.913   2.072  0.2874 -0.0158 -0.1545
  230MOL0     C30957  -0.404   3.008   2.065 -0.3391 -0.3097  0.1092
  230MOL0     C30958  -0.391   3.113   2.178  0.3117 -0.1839 -0.0499
  230MOL0     C30959  -0.504   3.218   2.178 -0.7987  0.2209 -0.4499
  230MOL0    Cl30960  -0.474   3.343   2.063  0.5516  0.0429 -0.0202
  230MOL0     C30961   0.106   2.279   2.036  0.2776  0.6532  0.0550
  230MOL0     C30962   0.195   2.170   2.016  0.4673 -0.1116  0.8094
  230MOL0     O30963   0.419   2.036   2.136 -0.1824 -0.3408  0.3420
  230MOL0     C30964   0.558   1.883   1.854  0.1110  0.2743  0.5095
  230MOL0     C30965   0.674   1.822   1.798  0.6788 -0.4536 -0.5846
  230MOL0     N30966   1.392   1.358   1.872 -0.1654 -0.0373  0.0012
  230MOL0     N30967   1.505   1.345   1.926  0.3976 -0.6978 -0.6767
  230MOL0     C30968   2.733   1.108   2.108  1.0101 -0.1364 -0.4648
  230MOL0     C30969   2.874   1.110   2.114 -0.1143 -0.8423 -0.2934
  230MOL0     C30970   3.307   1.135   1.998  0.6524  0.2624  0.1895
  230MOL0     C30971   3.345   1.153   2.134  0.5578  0.5571  0.8880
  230MOL0     C30972   3.479   1.126   2.175 -0.1204  0.3139  0.6812
  230MOL0     C30973   3.579   1.097   2.080  0.7493 -0.4154 -0.1148
  230MOL0     O30974   3.713   1.075   2.103 -0.3580  0.3834 -0.5199
  230MOL0     C30975   3.751   1.041   2.240 -0.2630  0.6565 -0.1732
  230MOL0     C30976   3.802   1.161   2.321  0.1484  0.2198 -0.6270
  230MOL0     C30977   3.862   1.140   2.456 -0.3430  0.6937 -0.2567
  230MOL0     C30978   3.943   1.258   2.505  0.3169  0.9597 -1.0772
  230MOL0     C30979   4.034   1.213   2.613  0.6241  0.0752 -0.2382
  230MOL0     C30980   4.099   1.200   2.718 -0.9532 -0.0195  0.1733
  230MOL0     C30981   3.540   1.097   1.944 -1.2355 -0.1310 -0.2473
  230MOL0     C30982   3.407   1.122   1.907 -0.5350 -0.3105 -0.4445
  230MOL0     H30983   2.940   1.319   1.849 -0.3369  1.9846  0.7222
  230MOL0     H30984   2.706   1.316   1.837 -1.4863 -0.1843  0.2818
  230MOL0     H30985   2.488   0.996   2.003 -1.2833 -0.6323  0.8699
  230MOL0     H30986   2.427   1.100   2.129 -2.5731 -1.5079  0.0561
  230MOL0     H30987   2.326   1.080   1.844  5.4908  0.1466  1.9651
  230MOL0     H30988   2.256   1.004   1.981  1.6073 -1.5047 -1.0315
  230MOL0     H30989   2.206   1.239   2.077 -1.7679  3.1419 -1.0268
  230MOL0     H30990   2.303   1.315   1.943 -2.0652  2.0411  0.5533
  230MOL0     H30991   2.124   1.202   1.784  0.9266 -1.1874 -1.4515
  230MOL0     H30992   2.054   1.134   1.926  3.3356 -1.4641 -0.1501
  230MOL0     H30993   1.972   1.342   2.019  0.8739 -0.9194 -0.1587
  230MOL0     H30994   2.072   1.437   1.902  1.7556 -1.0162 -0.7863
  230MOL0     H30995   1.923   1.349   1.713 -1.9296  0.6710 -0.6903
  230MOL0     H30996   1.834   1.266   1.845  2.6273 -1.1848 -2.2098
  230MOL0     H30997   1.882   1.570   1.812  1.9478 -1.8779 -2.4007
  230MOL0     H30998   1.748   1.488   1.732 -1.7893  0.3091  0.5596
  230MOL0     H30999   1.723   1.588   1.979  0.3170  0.1121 -0.8463
  230MOL0     H31000   1.749   1.409   2.009  1.5858 -0.7745 -0.7243
  230MOL0     H31001   1.532   1.642   1.774  2.7416 -1.4408 -0.1946
  230MOL0     H31002   1.292   1.589   1.649  2.5891 -2.3973  0.0466
  230MOL0     H31003   1.226   1.428   1.664  2.3731 -0.1689 -0.3236
  230MOL0     H31004   1.165   1.663   1.857 -1.7304 -1.1501  1.3657
  230MOL0     H31005   1.095   1.499   1.860 -0.9279 -0.7867 -0.1039
  230MOL0     H31006   1.036   1.557   1.602 -2.0756 -2.8555  1.2675
  230MOL0     H31007   1.062   1.730   1.658 -0.6466  0.5114  0.9568
  230MOL0     H31008   0.866   1.542   1.800 -1.2355 -1.5407 -1.4115
  230MOL0     H31009   0.837   1.645   1.659 -0.5629 -1.8370 -0.2027
  230MOL0     H31010   0.850   1.776   2.079 -1.0774 -1.7515  1.2489
  230MOL0     H31011   0.771   1.905   2.261  0.8523  0.1764 -0.5345
  230MOL0     H31012   0.646   2.026   2.249 -1.2385 -0.6074 -0.5770
  230MOL0     H31013   0.607   1.858   2.296  2.4766 -0.3023  1.7254
  230MOL0     H31014   0.438   2.323   1.825 -0.1802 -0.1387  0.9091
  230MOL0     H31015   0.277   2.513   1.846 -0.3402  0.8029 -0.3579
  230MOL0     H31016   0.080   2.653   1.855 -0.8547  0.2807  2.2893
  230MOL0     H31017   0.005   2.503   1.783  0.4554 -0.6442  0.4601
  230MOL0     H31018  -0.139   2.695   1.767 -0.7623  1.4461  0.6739
  230MOL0     H31019  -0.203   2.546   1.858  0.3362 -0.4445 -0.0022
  230MOL0     H31020  -0.061   2.780   1.974  2.0309 -3.1292  0.2331
  230MOL0     H31021  -0.165   2.676   2.069 -0.0963  0.6696 -0.3395
  230MOL0     H31022  -0.279   2.860   1.849 -0.0383  0.7695  0.5944
  230MOL0     H31023  -0.369   2.754   1.958  1.1152 -1.5034 -2.5954
  230MOL0     H31024  -0.188   2.975   2.070  0.1918  0.1313 -2.8930
  230MOL0     H31025  -0.283   2.847   2.159  1.9114  3.1352  2.5407
  230MOL0     H31026  -0.400   3.045   1.963  4.2310  0.0417  0.1999
  230MOL0     H31027  -0.498   2.955   2.079 -0.9335  0.2668 -1.5185
  230MOL0     H31028  -0.298   3.166   2.159 -0.9883  1.2890 -2.9324
  230MOL0     H31029  -0.377   3.060   2.273 -1.2448 -2.1245 -0.8066
  230MOL0     H31030  -0.508   3.272   2.273  0.0771  2.2176 -1.4760
  230MOL0     H31031  -0.601   3.175   2.152 -1.3434  0.6008  0.8545
  230MOL0     H31032   0.009   2.278   2.085  0.1065 -0.0993 -0.2872
  230MOL0     H31033   0.161   2.081   2.068  1.9796 -0.4503  1.2486
  230MOL0     H31034   0.476   1.907   1.787  2.4343  4.7697 -1.1514
  230MOL0     H31035   0.691   1.799   1.693 -0.2623  0.6747 -1.0015
  230MOL0     H31036   2.681   1.040   2.176  1.7145  0.4635  0.6960
  230MOL0     H31037   2.923   1.071   2.203 -0.4784  1.2791  0.9107
  230MOL0     H31038   3.269   1.164   2.211 -1.7684 -3.4247 -0.5525
  230MOL0     H31039   3.504   1.136   2.280  4.3873  0.5716 -0.2118
  230MOL0     H31040   3.670   0.991   2.294 -1.8953  1.2591 -1.9340
  230MOL0     H31041   3.834   0.971   2.225 -2.2095 -1.8522  0.1763
  230MOL0     H31042   3.720   1.233   2.324 -1.1891 -1.2959  0.6592
  230MOL0     H31043   3.887   1.210   2.273  0.9050 -0.1109  0.3570
  230MOL0     H31044   3.909   1.042   2.443 -2.2056 -0.1816 -0.6725
  230MOL0     H31045   3.795   1.122   2.540 -1.1695 -1.9083 -1.3744
  230MOL0     H31046   3.877   1.336   2.544  0.4465  0.7712 -0.4640
  230MOL0     H31047   3.998   1.316   2.430 -0.6291  0.1921 -2.4099
  230MOL0     H31048   4.140   1.177   2.814  0.1267 -1.6709 -0.6379
  230MOL0     H31049   3.615   1.093   1.865  0.4643 -0.5199  1.3106
  230MOL0     H31050   3.382   1.122   1.801  3.1490  3.0164 -1.5650
  231MOL0     O31051   4.503   0.119   3.835 -0.3943 -0.4414  0.3634
  231MOL0     C31052   4.578   0.088   3.740  0.9394  0.7144 -0.0087
  231MOL0     O31053   4.540   0.042   3.614  0.1429  0.5386  0.4458
  231MOL0     C31054   4.407   0.012   3.595 -0.1643  0.0461  0.2167
  231MOL0     C31055   4.341   0.052   3.475  0.5280  0.2256 -0.6126
  231MOL0     C31056   4.204   0.011   3.454 -0.0083  0.0385  0.0377
  231MOL0     C31057   4.134  -0.058   3.555  0.0629 -0.3116  0.1840
  231MOL0     O31058   3.998  -0.087   3.532 -0.7944 -0.4115  0.5461
  231MOL0     C31059   3.909  -0.090   3.645  0.3722 -0.6429  0.6978
  231MOL0     C31060   3.794  -0.170   3.598 -0.0718 -0.3887  1.3221
  231MOL0     C31061   3.680  -0.095   3.521 -0.4120 -0.1986 -0.7369
  231MOL0     C31062   3.564  -0.191   3.501  0.0677  0.4773 -0.0995
  231MOL0     C31063   3.460  -0.108   3.418  0.4499  0.4753 -0.1309
  231MOL0     C31064   3.357  -0.208   3.368  0.1315 -0.2700  0.5250
  231MOL0     C31065   3.255  -0.124   3.286 -0.5826 -0.5456 -0.1637
  231MOL0     C31066   3.155  -0.218   3.222 -0.7144  0.2616  0.2888
  231MOL0     N31067   3.070  -0.289   3.323 -0.6275  0.4240  1.0603
  231MOL0     C31068   3.002  -0.227   3.419  0.3723 -0.4785 -0.6693
  231MOL0     C31069   2.960  -0.322   3.502  0.5707  0.7765 -0.2561
  231MOL0     C31070   2.878  -0.294   3.628 -0.0910 -0.0091  0.4567
  231MOL0     C31071   2.728  -0.281   3.605  0.1314  0.4669 -0.2656
  231MOL0     C31072   2.660  -0.280   3.746  0.1450  0.1858 -0.4636
  231MOL0     C31073   2.506  -0.284   3.730 -0.6360  0.7194 -1.4437
  231MOL0     O31074   2.451  -0.295   3.863 -0.1320  0.0132 -0.5836
  231MOL0     C31075   2.315  -0.302   3.882 -0.1211 -0.1487 -0.0615
  231MOL0     C31076   2.226  -0.348   3.775 -0.4271 -0.3535 -0.6560
  231MOL0     C31077   2.083  -0.330   3.793 -0.5525 -0.4898 -0.2750
  231MOL0     C31078   1.999  -0.375   3.677  0.9336  0.3493 -0.1539
  231MOL0     C31079   2.034  -0.257   3.903  0.2329  0.5031  0.8570
  231MOL0     C31080   1.895  -0.209   3.929 -0.0916  0.2458 -0.3170
  231MOL0     O31081   1.858  -0.190   4.066 -0.2246  0.3590  0.8592
  231MOL0     C31082   1.736  -0.180   4.097  0.3403  0.1453 -0.4873
  231MOL0     C31083   1.610  -0.237   4.041  0.2033 -0.3149  0.1607
  231MOL0     C31084   1.483  -0.209   4.088  0.0727  0.0488  0.2973
  231MOL0     C31085   1.479  -0.134   4.211  0.0224 -0.1344 -0.1831
  231MOL0     O31086   1.353  -0.100   4.264  0.9655 -0.4432  0.9105
  231MOL0     C31087   1.339  -0.099   4.400  0.0020  0.0388  0.0510
  231MOL0     C31088   1.208  -0.150   4.455  0.0959 -0.6009 -0.7639
  231MOL0     C31089   1.094  -0.048   4.428  0.1204  0.7978 -1.0085
  231MOL0     C31090   0.955  -0.109   4.449 -0.2903 -0.1808  0.8359
  231MOL0     C31091   0.930  -0.156   4.594  0.4361  0.0480 -0.4710
  231MOL0     C31092   0.792  -0.222   4.624  0.3734 -0.0013 -0.2737
  231MOL0     C31093   0.778  -0.281   4.766  0.4471 -0.7613  0.1662
  231MOL0     C31094   0.665  -0.369   4.763  0.5474  0.1006 -0.1469
  231MOL0    Cl31095   0.511  -0.271   4.772 -0.2148 -0.1994 -0.3697
  231MOL0     C31096   1.596  -0.085   4.270  0.3570  0.2789  0.0327
  231MOL0     C31097   1.720  -0.106   4.216  0.2011  0.1848  0.6592
  231MOL0     O31098   1.820  -0.199   3.833  0.2768 -0.0707 -0.3377
  231MOL0     C31099   2.123  -0.212   4.000 -0.5342 -0.7008  0.1532
  231MOL0     C31100   2.260  -0.234   3.989 -0.3125  0.1523 -0.4572
  231MOL0     N31101   2.995  -0.447   3.454  0.0043  0.2220  0.4825
  231MOL0     N31102   3.068  -0.424   3.348 -0.1544 -0.1164  0.5042
  231MOL0     C31103   4.202  -0.102   3.666 -0.6146 -0.3873 -0.1235
  231MOL0     C31104   4.332  -0.065   3.683 -0.7264 -0.7824  0.1272
  231MOL0     C31105   4.721   0.101   3.768  0.4087 -0.5656  0.0231
  231MOL0     C31106   4.809   0.039   3.676 -0.4040  0.2997 -0.6354
  231MOL0     C31107   4.947   0.055   3.707  1.1897  0.2822 -0.3948
  231MOL0     C31108   4.999   0.127   3.822  0.2652 -0.2878 -0.0002
  231MOL0     O31109   5.139   0.130   3.837 -0.2379 -0.0573  0.1034
  231MOL0     C31110   5.199   0.237   3.919  0.3036 -0.0791  0.0447
  231MOL0     C31111   5.347   0.255   3.917 -0.1535 -0.3194 -0.0900
  231MOL0     C31112   5.406   0.246   3.776  0.3312  0.5644 -0.0966
  231MOL0     C31113   5.554   0.286   3.760  0.0983 -0.0960 -0.0006
  231MOL0     C31114   5.640   0.174   3.734 -0.1165 -0.0541  0.3633
  231MOL0     C31115   5.698   0.071   3.705  0.3815  0.9944 -0.5925
  231MOL0     C31116   4.897   0.177   3.909 -0.6993 -0.1361  0.3049
  231MOL0     C31117   4.768   0.163   3.882  0.1103 -0.7234  0.2873
  231MOL0     H31118   4.396   0.111   3.402 -1.1099  3.7679  0.8045
  231MOL0     H31119   4.147   0.037   3.366 -0.0414 -0.2989 -0.0414
  231MOL0     H31120   3.958  -0.123   3.737  2.6171 -0.8488 -0.4933
  231MOL0     H31121   3.879   0.014   3.658 -0.1633 -0.0917 -3.5002
  231MOL0     H31122   3.841  -0.252   3.542  4.7623  1.7102  1.7739
  231MOL0     H31123   3.749  -0.209   3.689  1.3499 -1.7370  1.4934
  231MOL0     H31124   3.649  -0.020   3.594 -0.2223 -0.4360 -0.4074
  231MOL0     H31125   3.714  -0.054   3.425 -1.6520 -0.8356 -1.4816
  231MOL0     H31126   3.602  -0.280   3.450 -0.4370 -2.1226  3.7050
  231MOL0     H31127   3.525  -0.226   3.597  0.7233 -0.1911 -0.0653
  231MOL0     H31128   3.425  -0.028   3.485  2.4108  0.4101  1.0421
  231MOL0     H31129   3.491  -0.065   3.322 -3.1694  2.1590 -0.7351
  231MOL0     H31130   3.408  -0.275   3.298 -2.3868 -2.0597  0.2977
  231MOL0     H31131   3.324  -0.263   3.456  2.4800 -1.2443  0.8717
  231MOL0     H31132   3.192  -0.055   3.344 -0.7470  0.1180 -1.1066
  231MOL0     H31133   3.318  -0.066   3.218  0.0222  0.1876  0.9852
  231MOL0     H31134   3.202  -0.289   3.153 -2.1618 -0.3848 -0.0685
  231MOL0     H31135   3.085  -0.156   3.165 -0.2171 -1.5567 -2.4978
  231MOL0     H31136   2.977  -0.122   3.429 -0.7752 -0.4408 -3.1263
  231MOL0     H31137   2.898  -0.373   3.702  1.1684  0.0390  0.1889
  231MOL0     H31138   2.911  -0.197   3.666 -0.3255  0.7279 -1.1764
  231MOL0     H31139   2.700  -0.364   3.540  0.1198  2.4499 -2.9922
  231MOL0     H31140   2.706  -0.190   3.548  1.3405  1.9260  1.4762
  231MOL0     H31141   2.705  -0.199   3.805 -0.8028 -0.1783  0.8062
  231MOL0     H31142   2.685  -0.375   3.794  1.0886 -0.3575 -1.9674
  231MOL0     H31143   2.473  -0.361   3.660  2.3431 -3.0622  0.8923
  231MOL0     H31144   2.479  -0.183   3.699  0.3215  1.8565  1.1569
  231MOL0     H31145   2.266  -0.380   3.679 -0.2601  1.8436 -1.3848
  231MOL0     H31146   1.979  -0.292   3.608  2.1931  0.7271 -0.0999
  231MOL0     H31147   2.039  -0.461   3.622 -2.2011 -0.2642 -1.7198
  231MOL0     H31148   1.902  -0.405   3.719  0.0009 -0.6282 -2.7859
  231MOL0     H31149   1.627  -0.308   3.961  1.5466 -0.8407  0.8795
  231MOL0     H31150   1.390  -0.249   4.049 -0.7888  1.2558  1.0413
  231MOL0     H31151   1.420  -0.156   4.446  1.0105 -1.2067 -2.9752
  231MOL0     H31152   1.350   0.007   4.427 -0.2073 -0.0625  0.5364
  231MOL0     H31153   1.164  -0.235   4.403 -0.2146 -0.9256  0.0214
  231MOL0     H31154   1.220  -0.157   4.563  0.8974 -1.9697 -0.9174
  231MOL0     H31155   1.100  -0.026   4.321  2.1505 -0.3334 -1.1871
  231MOL0     H31156   1.119   0.050   4.469  2.1331  0.3452 -1.0436
  231MOL0     H31157   0.879  -0.031   4.436 -0.7262 -0.7019  0.1943
  231MOL0     H31158   0.954  -0.188   4.373  0.5355 -0.3614  1.0048
  231MOL0     H31159   0.950  -0.067   4.655 -0.5411 -1.0707  1.6030
  231MOL0     H31160   1.008  -0.224   4.628  0.2760  0.9879  2.0061
  231MOL0     H31161   0.719  -0.150   4.587  1.7999  2.1535  0.8865
  231MOL0     H31162   0.773  -0.312   4.565  0.3823 -1.6359  2.0810
  231MOL0     H31163   0.767  -0.197   4.835  0.1204  2.2729 -3.2844
  231MOL0     H31164   0.868  -0.340   4.784 -0.4371 -2.5619 -1.0298
  231MOL0     H31165   0.667  -0.428   4.856  0.1120  1.0063  0.4503
  231MOL0     H31166   0.667  -0.439   4.679  2.6622 -1.1712  0.8870
  231MOL0     H31167   1.592  -0.036   4.367 -1.2513  0.9189 -0.3264
  231MOL0     H31168   1.798  -0.045   4.261  1.0789  2.1029 -3.1077
  231MOL0     H31169   2.087  -0.152   4.083 -0.1362 -1.3976  0.8469
  231MOL0     H31170   2.322  -0.194   4.069 -0.0310 -1.3876  0.1203
  231MOL0     H31171   4.164  -0.161   3.749 -0.3445  0.1077  0.3520
  231MOL0     H31172   4.376  -0.093   3.778  0.2958  0.2019 -0.0296
  231MOL0     H31173   4.775  -0.017   3.589 -0.1720 -1.5863  0.4331
  231MOL0     H31174   5.016   0.015   3.633  0.1933 -0.7380 -0.8074
  231MOL0     H31175   5.151   0.333   3.899  0.0445 -0.1941  0.1015
  231MOL0     H31176   5.169   0.212   4.021 -1.5463 -0.9036 -0.6426
  231MOL0     H31177   5.398   0.190   3.988  0.5808  2.3337  1.9943
  231MOL0     H31178   5.379   0.356   3.944  2.3938 -0.8086 -1.0638
  231MOL0     H31179   5.357   0.329   3.724 -3.0099 -0.2296  1.4901
  231MOL0     H31180   5.379   0.154   3.724  0.2268  0.3212  0.3841
  231MOL0     H31181   5.576   0.335   3.855 -0.7652 -1.7429  1.0927
  231MOL0     H31182   5.564   0.357   3.677 -0.0231 -0.9495 -0.7624
  231MOL0     H31183   5.744  -0.024   3.688 -1.4313  0.1647 -1.2105
  231MOL0     H31184   4.919   0.222   4.006 -1.2765 -2.8011  1.7441
  231MOL0     H31185   4.697   0.196   3.958 -0.0887  0.5802 -0.4363
  232MOL0     O31186   9.882   2.852   8.358 -0.4598 -0.0572  0.2294
  232MOL0     C31187   9.971   2.778   8.312 -0.6890 -0.3398  0.3722
  232MOL0     O31188   9.955   2.650   8.265  0.4285 -0.9932 -0.6722
  232MOL0     C31189   9.830   2.588   8.274 -0.2438  0.5679 -0.2479
  232MOL0     C31190   9.738   2.600   8.381  0.3686  0.0114  0.4518
  232MOL0     C31191   9.624   2.525   8.393  0.1851 -0.3266  0.0942
  232MOL0     C31192   9.595   2.424   8.303  0.0889  0.0252  0.6362
  232MOL0     O31193   9.471   2.362   8.324  0.2709  0.2368  0.5394
  232MOL0     C31194   9.407   2.298   8.214 -0.9705 -0.7117  0.2502
  232MOL0     C31195   9.370   2.397   8.103 -0.0642  0.4491  0.1731
  232MOL0     C31196   9.273   2.500   8.159 -0.3177 -0.2561  0.4671
  232MOL0     C31197   9.126   2.459   8.201 -0.0615 -0.0608 -0.0757
  232MOL0     C31198   9.033   2.577   8.232  0.5624 -0.1878  0.3269
  232MOL0     C31199   9.012   2.670   8.121 -0.0139  0.8790  0.1940
  232MOL0     C31200   8.910   2.619   8.027 -0.0843  1.1539  1.0526
  232MOL0     C31201   8.879   2.714   7.918  0.1959  0.4280  0.3450
  232MOL0     N31202   8.766   2.661   7.839 -0.0885  0.4613  0.1030
  232MOL0     C31203   8.663   2.740   7.790  0.1062 -0.3440 -0.4921
  232MOL0     C31204   8.575   2.649   7.749  0.7384  0.3405  0.5196
  232MOL0     C31205   8.433   2.669   7.710  0.1914 -0.2047  0.2977
  232MOL0     C31206   8.339   2.586   7.797  0.8016 -0.2517  0.7785
  232MOL0     C31207   8.316   2.449   7.734  1.2648  0.1509  0.4701
  232MOL0     C31208   8.242   2.348   7.826 -0.9979  0.4992 -0.3628
  232MOL0     O31209   8.210   2.229   7.755  0.3889 -0.0235 -0.1191
  232MOL0     C31210   8.103   2.158   7.794  0.2116 -0.4365  0.4910
  232MOL0     C31211   8.062   2.056   7.707 -0.6146 -0.6858  0.9239
  232MOL0     C31212   7.954   1.973   7.741  0.0966  0.1231 -0.5109
  232MOL0     C31213   7.916   1.868   7.642 -0.5390 -0.7199  0.1598
  232MOL0     C31214   7.882   2.000   7.852  0.9431  0.0036 -0.1134
  232MOL0     C31215   7.765   1.925   7.891 -0.4544  0.4746 -0.6579
  232MOL0     O31216   7.778   1.790   7.894  0.2024 -0.2415 -0.2398
  232MOL0     C31217   7.689   1.704   7.956 -0.6782 -0.1411  0.1759
  232MOL0     C31218   7.697   1.567   7.912  0.1876 -0.6114  0.1063
  232MOL0     C31219   7.595   1.481   7.941  0.0348 -0.3724 -0.1522
  232MOL0     C31220   7.485   1.518   8.030 -0.2979 -0.4459 -0.7457
  232MOL0     O31221   7.397   1.430   8.084  0.0752 -0.5320  1.0632
  232MOL0     C31222   7.376   1.311   8.005  0.0860  0.7502  0.1353
  232MOL0     C31223   7.281   1.216   8.069  0.3054  0.0719  0.9822
  232MOL0     C31224   7.140   1.279   8.072 -0.6552  0.7714 -0.1264
  232MOL0     C31225   7.038   1.183   8.153  0.0074  0.2762 -0.1708
  232MOL0     C31226   6.896   1.232   8.126 -0.2974  0.2206  0.3933
  232MOL0     C31227   6.794   1.144   8.193  0.7400  0.6173 -0.1271
  232MOL0     C31228   6.652   1.199   8.163  0.0959 -0.0503 -0.3653
  232MOL0     C31229   6.539   1.124   8.233  0.6308 -0.4993  0.6908
  232MOL0    Cl31230   6.493   0.981   8.129 -0.1110 -0.0023 -0.0596
  232MOL0     C31231   7.489   1.652   8.083 -0.2209  1.1817  0.0338
  232MOL0     C31232   7.585   1.747   8.039  0.1584  0.7386 -0.0131
  232MOL0     O31233   7.670   1.992   7.921 -0.1632 -0.3198 -0.2681
  232MOL0     C31234   7.925   2.093   7.950 -0.1500 -0.6163 -0.0340
  232MOL0     C31235   8.031   2.178   7.918 -1.1870 -0.5805  0.4655
  232MOL0     N31236   8.616   2.523   7.776 -0.0618 -0.7533  0.4553
  232MOL0     N31237   8.737   2.531   7.817 -0.5076 -0.1530 -0.7761
  232MOL0     C31238   9.682   2.416   8.189 -0.2725  0.0398  0.0984
  232MOL0     C31239   9.800   2.495   8.180 -0.3159 -0.1154 -0.2495
  232MOL0     C31240  10.114   2.823   8.322  0.0089 -0.2768 -0.3423
  232MOL0     C31241  10.220   2.739   8.279  0.8563 -0.6896 -0.8772
  232MOL0     C31242  10.354   2.779   8.277  0.3253 -0.8189 -0.6781
  232MOL0     C31243  10.380   2.915   8.307 -0.3637  0.9586 -1.4025
  232MOL0     O31244  10.513   2.976   8.302 -0.1460  0.0016  0.0221
  232MOL0     C31245  10.616   2.908   8.225 -0.3515 -0.6620  0.3033
  232MOL0     C31246  10.608   2.935   8.069 -0.2758 -0.0579  0.1651
  232MOL0     C31247  10.609   3.085   8.051  0.3137  0.2441 -0.1440
  232MOL0     C31248  10.635   3.121   7.902 -0.3836 -0.1392  0.2316
  232MOL0     C31249  10.772   3.170   7.889 -1.1189 -0.0091 -0.0108
  232MOL0     C31250  10.892   3.201   7.891 -0.0264  0.3339  0.1185
  232MOL0     C31251  10.280   2.999   8.353  0.2020 -0.0321  0.7224
  232MOL0     C31252  10.146   2.955   8.361 -0.2153 -1.3450 -0.1984
  232MOL0     H31253   9.756   2.672   8.460  0.7055 -0.1008  0.4785
  232MOL0     H31254   9.551   2.547   8.470  1.1235 -3.1911  1.9708
  232MOL0     H31255   9.476   2.222   8.178  0.2505  1.4455 -2.3253
  232MOL0     H31256   9.313   2.250   8.241 -0.8937 -0.7416  0.4651
  232MOL0     H31257   9.463   2.445   8.072  1.3085 -1.4434  1.1629
  232MOL0     H31258   9.324   2.340   8.021  1.9899 -0.9799 -0.0645
  232MOL0     H31259   9.310   2.544   8.252 -1.4090  0.1109  0.7496
  232MOL0     H31260   9.274   2.581   8.085 -1.8973 -0.0695  0.6198
  232MOL0     H31261   9.079   2.408   8.116 -0.6153  0.0832  0.1390
  232MOL0     H31262   9.132   2.403   8.294 -0.4631  0.3317  0.1909
  232MOL0     H31263   8.937   2.539   8.270 -0.7579  1.1783 -1.4202
  232MOL0     H31264   9.078   2.636   8.311  1.4637 -1.1403  0.5461
  232MOL0     H31265   8.983   2.765   8.167  0.8280 -0.2424  3.2588
  232MOL0     H31266   9.106   2.681   8.066  1.2224  0.2812  2.1236
  232MOL0     H31267   8.953   2.529   7.982  0.2822  0.6762  2.3120
  232MOL0     H31268   8.818   2.598   8.083 -0.0137 -1.1259  0.4111
  232MOL0     H31269   8.968   2.723   7.855 -0.3147 -0.7858 -0.5772
  232MOL0     H31270   8.859   2.811   7.964  3.3105  0.6374  1.5075
  232MOL0     H31271   8.656   2.848   7.799 -1.9271 -0.4887 -0.0027
  232MOL0     H31272   8.424   2.778   7.715  0.1570 -0.1831 -0.1550
  232MOL0     H31273   8.424   2.643   7.604 -0.4233 -0.2162  0.3511
  232MOL0     H31274   8.245   2.642   7.806 -0.5172 -1.5959 -2.8055
  232MOL0     H31275   8.390   2.574   7.892  1.0045 -2.9898  0.4101
  232MOL0     H31276   8.407   2.395   7.706  0.3948 -0.2749 -1.7735
  232MOL0     H31277   8.258   2.470   7.643  1.4022 -2.8566 -0.4349
  232MOL0     H31278   8.150   2.395   7.863  1.4313  3.4202  2.6243
  232MOL0     H31279   8.306   2.325   7.912  0.0833  0.4217 -1.1728
  232MOL0     H31280   8.116   2.052   7.612 -1.3251  0.4927  0.4515
  232MOL0     H31281   7.973   1.887   7.550 -4.2571  0.4286 -2.1174
  232MOL0     H31282   7.943   1.770   7.684  1.7238 -0.5672 -0.7622
  232MOL0     H31283   7.809   1.869   7.620 -0.1791  1.6306 -1.9338
  232MOL0     H31284   7.782   1.534   7.852 -0.4015 -1.3556 -0.3352
  232MOL0     H31285   7.605   1.377   7.910 -1.9718 -0.6455 -0.0233
  232MOL0     H31286   7.335   1.336   7.907 -1.7177 -0.9268  0.3826
  232MOL0     H31287   7.467   1.252   7.987  0.2755  0.7541  1.0169
  232MOL0     H31288   7.292   1.126   8.006 -0.7965  0.0817  0.7479
  232MOL0     H31289   7.313   1.198   8.172 -0.1245 -0.9726  0.9547
  232MOL0     H31290   7.114   1.295   7.967 -0.0566  1.2963 -0.2010
  232MOL0     H31291   7.146   1.378   8.118  0.9092  1.0282 -0.8251
  232MOL0     H31292   7.047   1.080   8.120  0.5298  1.0107 -2.4859
  232MOL0     H31293   7.065   1.191   8.259 -2.0429  0.4423  0.3945
  232MOL0     H31294   6.892   1.227   8.016 -1.2287 -1.9509  0.4754
  232MOL0     H31295   6.882   1.330   8.171  0.2819  1.0310 -1.1215
  232MOL0     H31296   6.797   1.046   8.146  2.3457 -0.5177  2.1699
  232MOL0     H31297   6.812   1.140   8.301 -1.6228  1.5923  0.3736
  232MOL0     H31298   6.638   1.187   8.055  0.1766 -0.4290 -0.3343
  232MOL0     H31299   6.648   1.301   8.203 -2.3244  0.5871 -2.0483
  232MOL0     H31300   6.449   1.183   8.248 -1.1224 -3.3035  2.1522
  232MOL0     H31301   6.585   1.085   8.325 -0.0547 -1.6269  0.5680
  232MOL0     H31302   7.404   1.692   8.138  0.1608 -0.2553  1.7357
  232MOL0     H31303   7.569   1.849   8.072 -2.4324  0.4613 -0.1666
  232MOL0     H31304   7.867   2.113   8.040 -1.4020  2.2761 -1.3483
  232MOL0     H31305   8.067   2.247   7.994 -2.1177 -2.0335  2.3157
  232MOL0     H31306   9.659   2.341   8.115  1.5027 -0.2866 -0.1657
  232MOL0     H31307   9.862   2.484   8.092 -0.5568  2.5392 -0.8305
  232MOL0     H31308  10.187   2.637   8.265 -1.3041 -0.4608  1.7110
  232MOL0     H31309  10.427   2.704   8.248 -0.0579 -1.5503  0.1951
  232MOL0     H31310  10.719   2.941   8.246  0.8550 -3.2410 -1.1077
  232MOL0     H31311  10.617   2.800   8.241  0.6414 -0.2706  3.7669
  232MOL0     H31312  10.508   2.909   8.033 -0.5310  2.3952 -1.1251
  232MOL0     H31313  10.689   2.895   8.008  0.4399  4.5147 -2.3482
  232MOL0     H31314  10.684   3.119   8.123  0.0701 -2.0060  1.2938
  232MOL0     H31315  10.521   3.143   8.080  0.8114  0.4674  0.9975
  232MOL0     H31316  10.571   3.203   7.870 -1.7568 -0.5905  1.7025
  232MOL0     H31317  10.629   3.036   7.833 -0.6264  1.1119 -1.3515
  232MOL0     H31318  10.994   3.228   7.907  1.2987 -3.8107 -0.1524
  232MOL0     H31319  10.301   3.102   8.383  0.2816  0.1706  0.0018
  232MOL0     H31320  10.067   3.026   8.386 -2.9139 -3.8940 -0.8777
  233MOL0     O31321   9.805   9.934   4.199  0.1757  0.1077  0.1510
  233MOL0     C31322   9.803   9.892   4.310 -0.7115  0.0727 -0.4448
  233MOL0     O31323   9.696   9.852   4.382 -0.9237 -0.7756 -0.1528
  233MOL0     C31324   9.579   9.821   4.320  0.8460 -0.0560  0.2383
  233MOL0     C31325   9.463   9.886   4.363 -0.3097  0.2629  0.8319
  233MOL0     C31326   9.338   9.861   4.299 -0.4758  0.8396 -0.8638
  233MOL0     C31327   9.325   9.770   4.198 -1.0272  0.4342 -0.0260
  233MOL0     O31328   9.197   9.760   4.140 -0.0550 -0.3048  0.1806
  233MOL0     C31329   9.185   9.717   4.004 -0.3100 -0.1450 -0.2840
  233MOL0     C31330   9.036   9.700   3.980  0.5669  0.4545 -0.4813
  233MOL0     C31331   9.004   9.679   3.827  0.6873  0.8663 -0.4579
  233MOL0     C31332   8.853   9.650   3.815 -0.2958  0.7297 -0.0936
  233MOL0     C31333   8.829   9.610   3.668 -0.2377 -0.8516 -1.0721
  233MOL0     C31334   8.679   9.576   3.644 -0.6872 -0.2199 -0.2559
  233MOL0     C31335   8.681   9.469   3.542  1.0050  0.3157  0.7452
  233MOL0     C31336   8.542   9.408   3.508 -0.3054 -0.0887  0.4080
  233MOL0     N31337   8.421   9.486   3.472  0.5938 -0.0746 -0.2629
  233MOL0     C31338   8.295   9.435   3.442 -0.2369 -0.4913  0.2029
  233MOL0     C31339   8.228   9.542   3.396  0.9343  0.0036 -0.4047
  233MOL0     C31340   8.098   9.537   3.309 -0.4393 -0.2932  0.9997
  233MOL0     C31341   7.977   9.568   3.403  0.1638  0.7483  0.7739
  233MOL0     C31342   7.843   9.565   3.328  0.1228  0.2650 -0.1139
  233MOL0     C31343   7.726   9.536   3.433 -0.1859 -0.5766 -0.0237
  233MOL0     O31344   7.742   9.399   3.481 -0.3167  0.7661 -0.3021
  233MOL0     C31345   7.673   9.349   3.594  0.7604  0.0416  0.2364
  233MOL0     C31346   7.686   9.215   3.616  0.6230 -0.4609  0.0354
  233MOL0     C31347   7.609   9.139   3.707 -0.4078  1.0712 -0.5696
  233MOL0     C31348   7.644   8.996   3.730  0.3153  0.3308  0.1846
  233MOL0     C31349   7.504   9.199   3.778  0.6070 -0.4711 -0.4446
  233MOL0     C31350   7.392   9.123   3.844  0.3160 -0.1794  0.0774
  233MOL0     O31351   7.295   9.197   3.919 -0.3231  0.2541  0.0295
  233MOL0     C31352   7.184   9.131   3.958  0.0937  0.1346 -0.9609
  233MOL0     C31353   7.093   9.059   3.883 -0.5301  0.2271  0.4377
  233MOL0     C31354   6.984   8.986   3.925 -0.0518 -0.5886 -0.0991
  233MOL0     C31355   6.955   8.993   4.066 -0.2855 -0.0075 -0.7456
  233MOL0     O31356   6.858   8.909   4.119 -0.0146 -0.4408 -0.2963
  233MOL0     C31357   6.720   8.926   4.081 -0.0308  0.2681  0.6130
  233MOL0     C31358   6.662   9.062   4.056  0.0627 -0.7225  0.2777
  233MOL0     C31359   6.531   9.056   3.971 -0.1127  0.3227  0.2796
  233MOL0     C31360   6.547   9.094   3.824  0.0410 -1.0683  0.5344
  233MOL0     C31361   6.423   9.089   3.740 -0.2737 -0.4992  0.4133
  233MOL0     C31362   6.453   9.160   3.600  0.9235 -0.2503 -0.0012
  233MOL0     C31363   6.332   9.130   3.508 -0.7932  0.1859 -0.8163
  233MOL0     C31364   6.349   9.207   3.373 -0.8688  0.0575  0.1841
  233MOL0    Cl31365   6.464   9.115   3.265 -0.0616 -0.1721 -0.6037
  233MOL0     C31366   7.045   9.061   4.150  0.6982  0.4490  0.0818
  233MOL0     C31367   7.157   9.132   4.098  0.2239 -0.9593 -0.2896
  233MOL0     O31368   7.379   9.008   3.819 -0.3286  0.3284  0.2743
  233MOL0     C31369   7.489   9.340   3.760 -0.5044  0.0286 -0.2152
  233MOL0     C31370   7.571   9.405   3.669  0.1032 -0.4860 -0.2095
  233MOL0     N31371   8.301   9.661   3.407 -0.8611  0.1286  0.0259
  233MOL0     N31372   8.423   9.624   3.452  0.0774  0.0867 -0.2413
  233MOL0     C31373   9.442   9.694   4.160 -0.1149 -0.2238 -0.7141
  233MOL0     C31374   9.563   9.722   4.219 -0.2371 -0.0784 -0.2811
  233MOL0     C31375   9.935   9.864   4.379  0.1288  0.0666 -0.4448
  233MOL0     C31376   9.937   9.829   4.523  0.2908 -0.5144  0.3769
  233MOL0     C31377  10.067   9.826   4.588  0.7934 -0.1819  0.2012
  233MOL0     C31378  10.184   9.841   4.510 -0.5340 -0.2123 -0.4616
  233MOL0     O31379  10.309   9.845   4.570 -0.1969 -0.0077 -0.7870
  233MOL0     C31380  10.339   9.756   4.674  1.1721 -0.2167 -0.7957
  233MOL0     C31381  10.474   9.778   4.735 -0.2700 -0.0669  0.9758
  233MOL0     C31382  10.455   9.884   4.851  0.8738 -0.0810  0.4106
  233MOL0     C31383  10.589   9.937   4.901 -0.6002 -0.2297 -0.1270
  233MOL0     C31384  10.646  10.028   4.800 -0.0424  0.0919  0.9570
  233MOL0     C31385  10.679  10.109   4.713 -0.3687 -0.0156  0.5909
  233MOL0     C31386  10.178   9.868   4.375  0.3825 -0.8188 -0.1896
  233MOL0     C31387  10.058   9.878   4.311  0.8233  0.3519  0.0513
  233MOL0     H31388   9.466   9.963   4.439 -1.6284 -0.2600  1.4658
  233MOL0     H31389   9.252   9.904   4.349 -0.0889  0.6587 -0.0215
  233MOL0     H31390   9.227   9.782   3.927  1.2168 -2.3982 -1.4787
  233MOL0     H31391   9.226   9.617   3.986 -2.0971 -1.2109  1.1769
  233MOL0     H31392   9.005   9.610   4.034 -4.6158  0.2912 -3.0944
  233MOL0     H31393   8.974   9.783   4.014 -0.6847 -0.9001  0.7185
  233MOL0     H31394   9.017   9.772   3.772 -2.0250  3.1990  2.4776
  233MOL0     H31395   9.056   9.592   3.785  0.6838 -0.0841  1.3795
  233MOL0     H31396   8.831   9.567   3.883  1.9915 -1.0796 -1.3909
  233MOL0     H31397   8.800   9.744   3.831 -0.8563  0.3702  0.1915
  233MOL0     H31398   8.865   9.680   3.592  1.1626 -1.3882 -0.9505
  233MOL0     H31399   8.899   9.528   3.649  1.2939  0.0423  0.3456
  233MOL0     H31400   8.631   9.555   3.739 -0.6746 -0.1568 -0.2358
  233MOL0     H31401   8.629   9.664   3.604 -2.3416 -1.8948 -2.1145
  233MOL0     H31402   8.723   9.518   3.453 -0.6093 -0.0718 -0.2659
  233MOL0     H31403   8.748   9.388   3.573  3.8311  1.3052 -2.1068
  233MOL0     H31404   8.497   9.354   3.591 -1.2374 -2.6565 -1.6355
  233MOL0     H31405   8.545   9.348   3.417 -1.1366  0.6803 -0.1465
  233MOL0     H31406   8.268   9.330   3.434 -0.2387 -0.5247  0.5907
  233MOL0     H31407   8.101   9.587   3.212  1.1980 -0.5432  0.8804
  233MOL0     H31408   8.098   9.434   3.271  0.6496 -0.0837  0.3794
  233MOL0     H31409   7.986   9.668   3.447 -0.1493  1.5866 -1.0089
  233MOL0     H31410   7.980   9.499   3.488  2.9734  0.4367  0.5341
  233MOL0     H31411   7.855   9.488   3.251  3.3217 -0.0880  0.5761
  233MOL0     H31412   7.826   9.657   3.272  1.4812  0.4778 -0.2198
  233MOL0     H31413   7.626   9.556   3.394 -1.4451  1.0973  3.6278
  233MOL0     H31414   7.739   9.604   3.519 -2.7162  3.4608 -2.5241
  233MOL0     H31415   7.766   9.168   3.559  2.0337  2.0343 -0.2012
  233MOL0     H31416   7.562   8.927   3.705 -1.5499  2.6904 -0.5432
  233MOL0     H31417   7.731   8.966   3.670 -1.6322  0.9576 -3.2123
  233MOL0     H31418   7.667   8.964   3.832 -2.5612  0.1306  0.8643
  233MOL0     H31419   7.114   9.075   3.778 -1.4095 -0.0166  0.2141
  233MOL0     H31420   6.930   8.934   3.847  0.8443 -3.2203  0.9035
  233MOL0     H31421   6.723   8.874   3.985  0.0206 -0.7850  1.1702
  233MOL0     H31422   6.657   8.863   4.144  0.8100 -2.2608 -0.9248
  233MOL0     H31423   6.631   9.112   4.148  0.0510  2.6042 -1.4099
  233MOL0     H31424   6.744   9.115   4.007 -1.1032 -0.3649 -1.3581
  233MOL0     H31425   6.450   9.112   4.018  0.8492  1.4747  0.5940
  233MOL0     H31426   6.501   8.951   3.966 -0.7318  0.5455 -2.5272
  233MOL0     H31427   6.600   9.190   3.814  1.0245 -1.6542  0.0160
  233MOL0     H31428   6.613   9.021   3.778 -0.6569 -0.8963 -0.7876
  233MOL0     H31429   6.339   9.130   3.798  0.6163 -1.2774  2.3281
  233MOL0     H31430   6.388   8.986   3.723 -1.4999  0.0063 -0.3122
  233MOL0     H31431   6.466   9.269   3.609 -3.6192  0.3331  2.2454
  233MOL0     H31432   6.547   9.119   3.562  1.4595  1.3209 -0.4562
  233MOL0     H31433   6.244   9.163   3.564 -1.4077 -0.6109 -1.2975
  233MOL0     H31434   6.316   9.023   3.493  1.1722 -0.3250  0.3710
  233MOL0     H31435   6.397   9.304   3.389 -0.8914  0.0047  0.5890
  233MOL0     H31436   6.251   9.217   3.327  0.5639 -0.3008 -3.2560
  233MOL0     H31437   7.027   9.057   4.257 -2.3569 -0.4408 -0.3891
  233MOL0     H31438   7.229   9.187   4.158 -0.5100  0.6685 -0.8443
  233MOL0     H31439   7.400   9.385   3.801  0.0918 -0.3717  1.5748
  233MOL0     H31440   7.544   9.508   3.650 -1.1594 -0.1530  2.8167
  233MOL0     H31441   9.428   9.616   4.086 -0.4678 -0.8258 -0.0253
  233MOL0     H31442   9.642   9.652   4.198 -1.2620 -1.1344 -0.7317
  233MOL0     H31443   9.847   9.818   4.582 -0.5900 -1.8369 -1.1489
  233MOL0     H31444  10.077   9.821   4.696  1.9578 -0.5642  0.0947
  233MOL0     H31445  10.266   9.749   4.754  1.4703 -1.4727 -0.5984
  233MOL0     H31446  10.339   9.651   4.641 -2.8193 -0.2139 -1.3159
  233MOL0     H31447  10.550   9.815   4.665  1.2595  2.2746  3.7018
  233MOL0     H31448  10.514   9.683   4.770  1.2108  0.2163  0.1568
  233MOL0     H31449  10.407   9.835   4.935 -1.6305  1.2595 -0.1406
  233MOL0     H31450  10.394   9.969   4.821 -1.5983 -1.0178  2.4662
  233MOL0     H31451  10.664   9.862   4.926  1.1050  0.8470 -1.7726
  233MOL0     H31452  10.572   9.991   4.995  1.0929 -0.7589  0.5101
  233MOL0     H31453  10.715  10.185   4.648 -3.4515  0.1641 -1.0577
  233MOL0     H31454  10.270   9.898   4.325 -0.2938 -0.5234 -1.3073
  233MOL0     H31455  10.050   9.875   4.203 -1.1022 -1.7507  0.1670
  234MOL0     O31456   8.518   6.548   6.643  0.4156 -0.1600 -0.0410
  234MOL0     C31457   8.590   6.454   6.686 -0.4541 -1.0500  0.7907
  234MOL0     O31458   8.543   6.359   6.766 -0.6369  0.2659 -0.5764
  234MOL0     C31459   8.414   6.358   6.794  0.3324 -1.0125  0.1156
  234MOL0     C31460   8.369   6.401   6.921  0.3392  0.1442  0.2610
  234MOL0     C31461   8.227   6.411   6.954  0.0505  0.2585 -0.4532
  234MOL0     C31462   8.127   6.378   6.865 -0.5738  0.7995  0.7668
  234MOL0     O31463   7.991   6.399   6.877  0.1040 -0.1337 -0.3545
  234MOL0     C31464   7.951   6.463   7.003  0.6682 -0.8735 -0.1074
  234MOL0     C31465   7.803   6.446   7.018 -0.6922 -0.9351 -0.0770
  234MOL0     C31466   7.762   6.308   7.039 -0.5707 -0.1644 -0.1739
  234MOL0     C31467   7.625   6.286   6.980  0.8244 -0.5509  0.1589
  234MOL0     C31468   7.554   6.152   7.018 -0.2967  0.0961 -0.0924
  234MOL0     C31469   7.401   6.176   6.983  0.2772 -0.1362 -0.1076
  234MOL0     C31470   7.304   6.057   6.992 -0.2937  0.3153 -0.5204
  234MOL0     C31471   7.162   6.100   6.948  0.3004 -0.2070 -0.9071
  234MOL0     N31472   7.133   6.084   6.807  0.4722  0.1483  0.2522
  234MOL0     C31473   7.153   5.962   6.737 -0.1681  0.8830 -0.5384
  234MOL0     C31474   7.186   6.002   6.614  0.0806 -0.1645  0.1413
  234MOL0     C31475   7.210   5.927   6.487 -0.4451  0.8392  0.9992
  234MOL0     C31476   7.106   5.954   6.377  0.2409  0.2201  0.2018
  234MOL0     C31477   7.140   5.869   6.249 -0.3694 -0.5045 -0.8753
  234MOL0     C31478   7.110   5.939   6.116  0.5815 -0.3017 -0.8207
  234MOL0     O31479   7.119   5.846   6.012 -0.1772 -0.8787  0.1994
  234MOL0     C31480   7.247   5.811   5.987 -0.8564 -0.1693  0.6710
  234MOL0     C31481   7.346   5.896   5.944 -0.0085 -0.1693 -0.3569
  234MOL0     C31482   7.478   5.868   5.931  0.1564 -0.0097  0.3266
  234MOL0     C31483   7.563   5.992   5.909 -0.0805  0.3809 -0.1560
  234MOL0     C31484   7.519   5.734   5.956 -0.9985  0.5189  0.4384
  234MOL0     C31485   7.656   5.687   5.940 -0.8398  0.6605  0.2627
  234MOL0     O31486   7.670   5.558   5.989 -0.8535  0.9616 -0.3261
  234MOL0     C31487   7.772   5.472   5.946 -0.3790  0.3478 -0.2449
  234MOL0     C31488   7.846   5.412   6.050 -0.0787  0.0122  0.1276
  234MOL0     C31489   7.939   5.317   6.008 -0.2723  0.1592 -0.4131
  234MOL0     C31490   7.954   5.279   5.876 -0.1445  1.0162  1.4932
  234MOL0     O31491   8.038   5.167   5.850 -0.0979  0.1973 -0.2246
  234MOL0     C31492   8.090   5.157   5.718 -0.1604  0.4454  0.1181
  234MOL0     C31493   8.215   5.072   5.714  0.5709  0.6845  0.1771
  234MOL0     C31494   8.177   4.926   5.760 -0.0712 -0.9072  0.9127
  234MOL0     C31495   8.294   4.839   5.802 -0.2555 -0.8618 -0.0716
  234MOL0     C31496   8.235   4.703   5.860  0.0358 -0.7594  0.2851
  234MOL0     C31497   8.340   4.596   5.900 -0.6415 -0.3323 -0.0440
  234MOL0     C31498   8.262   4.459   5.943  0.3353  0.0923  0.1792
  234MOL0     C31499   8.250   4.363   5.826 -0.1556 -0.1478 -0.9634
  234MOL0    Cl31500   8.165   4.219   5.888  0.0382 -0.4864  0.0256
  234MOL0     C31501   7.885   5.344   5.769  0.3892  0.0374 -0.6042
  234MOL0     C31502   7.796   5.442   5.811  0.3197  1.1315  0.0512
  234MOL0     O31503   7.747   5.746   5.881 -0.7701 -0.6525 -0.1625
  234MOL0     C31504   7.420   5.634   5.994 -0.3755 -0.2396 -1.1067
  234MOL0     C31505   7.284   5.678   5.999  0.4101 -0.0728 -0.8115
  234MOL0     N31506   7.192   6.138   6.606  0.5372 -0.5296  0.0956
  234MOL0     N31507   7.149   6.186   6.714  0.1253  0.9774  0.3643
  234MOL0     C31508   8.176   6.330   6.747 -0.1192 -0.0679  0.5972
  234MOL0     C31509   8.314   6.316   6.709 -0.0679 -0.2153  1.0326
  234MOL0     C31510   8.728   6.455   6.651  0.8709 -0.1097  0.5899
  234MOL0     C31511   8.788   6.569   6.597  0.7291  0.7086 -0.1648
  234MOL0     C31512   8.929   6.576   6.582 -0.2251  0.2492  0.6774
  234MOL0     C31513   9.014   6.472   6.616  0.8738  0.2187  0.0223
  234MOL0     O31514   9.150   6.472   6.613 -0.1245 -0.1154  0.6450
  234MOL0     C31515   9.210   6.598   6.589  1.4015  0.0351  0.1109
  234MOL0     C31516   9.356   6.561   6.581 -0.7027  0.0491 -0.4413
  234MOL0     C31517   9.449   6.682   6.597  0.5774  0.1822 -0.0351
  234MOL0     C31518   9.556   6.656   6.705 -0.2150 -0.8533  0.0870
  234MOL0     C31519   9.627   6.775   6.749  0.0454  0.8793 -0.7159
  234MOL0     C31520   9.694   6.873   6.778  0.0393  0.0527  0.8018
  234MOL0     C31521   8.948   6.351   6.654 -0.6988 -0.1716 -0.8730
  234MOL0     C31522   8.810   6.345   6.676 -0.3696 -0.2466 -0.2873
  234MOL0     H31523   8.440   6.433   6.997  0.6685  4.2358 -1.5203
  234MOL0     H31524   8.205   6.462   7.048  0.9273  2.0219 -1.1526
  234MOL0     H31525   7.996   6.421   7.093  0.3284 -2.8949 -0.8351
  234MOL0     H31526   7.956   6.572   6.991 -1.1184 -0.7532 -0.0548
  234MOL0     H31527   7.769   6.499   7.108  1.5245 -2.3454  1.7041
  234MOL0     H31528   7.751   6.482   6.929  0.7403  0.4512 -0.3871
  234MOL0     H31529   7.837   6.237   7.003  1.3799  1.5310  0.3268
  234MOL0     H31530   7.753   6.284   7.145 -2.3924 -0.5457 -0.3853
  234MOL0     H31531   7.567   6.363   7.032  1.5222 -1.0623  1.7692
  234MOL0     H31532   7.627   6.300   6.871 -0.3096 -1.1127  0.0534
  234MOL0     H31533   7.603   6.070   6.965  2.6109  0.9912  1.0291
  234MOL0     H31534   7.577   6.128   7.122  1.3178  2.2218  0.1035
  234MOL0     H31535   7.358   6.258   7.041  2.0064 -1.4311  3.2754
  234MOL0     H31536   7.407   6.202   6.877  0.4635 -0.0509 -0.0764
  234MOL0     H31537   7.343   5.971   6.937  0.9910  1.2883 -1.1945
  234MOL0     H31538   7.307   6.040   7.100  0.9313  4.3157  0.2514
  234MOL0     H31539   7.155   6.207   6.971  0.3873 -0.6912  1.6361
  234MOL0     H31540   7.091   6.053   7.018  0.1935  1.3676  0.0905
  234MOL0     H31541   7.155   5.858   6.768  1.6549 -0.6789 -5.0630
  234MOL0     H31542   7.307   5.949   6.443 -0.3375  3.1447  2.2321
  234MOL0     H31543   7.201   5.819   6.503 -3.9645  1.4393  4.6692
  234MOL0     H31544   7.107   6.060   6.347 -0.1134 -0.0480 -0.7885
  234MOL0     H31545   7.007   5.935   6.421  0.1898 -0.0985 -0.0500
  234MOL0     H31546   7.085   5.775   6.259 -0.8533 -0.1013  0.4304
  234MOL0     H31547   7.246   5.845   6.255 -0.1689  0.6630  1.7675
  234MOL0     H31548   7.174   6.027   6.109 -2.8529  2.4765 -0.2272
  234MOL0     H31549   7.015   5.993   6.116  1.8336  2.0453 -1.8269
  234MOL0     H31550   7.308   5.996   5.925  1.2250  0.2040 -0.9856
  234MOL0     H31551   7.628   5.975   5.823 -2.2609  0.0798 -1.8192
  234MOL0     H31552   7.498   6.079   5.896  0.2615  0.4823 -1.2487
  234MOL0     H31553   7.618   6.003   6.003 -0.1058  1.9893 -0.2993
  234MOL0     H31554   7.836   5.441   6.154  1.6570  0.6993  0.1249
  234MOL0     H31555   7.992   5.264   6.087  2.0828  1.9995 -0.6552
  234MOL0     H31556   8.020   5.117   5.644 -0.1870  0.2122  0.2658
  234MOL0     H31557   8.114   5.255   5.678 -1.0257  0.3795 -0.5868
  234MOL0     H31558   8.250   5.065   5.611 -2.0031 -1.7333 -0.6538
  234MOL0     H31559   8.290   5.108   5.785  2.0737 -0.1956 -0.9158
  234MOL0     H31560   8.125   4.873   5.680  0.5732 -0.4998  0.2040
  234MOL0     H31561   8.098   4.930   5.836 -1.8135  2.4839 -0.8480
  234MOL0     H31562   8.370   4.826   5.725 -0.4072  4.2441 -1.4289
  234MOL0     H31563   8.347   4.897   5.878  0.8368  0.5009 -1.8118
  234MOL0     H31564   8.166   4.650   5.795 -0.1754 -2.2864  1.6829
  234MOL0     H31565   8.174   4.731   5.947 -2.1753 -0.4855 -1.2957
  234MOL0     H31566   8.415   4.581   5.822  0.8989 -3.0533  1.7917
  234MOL0     H31567   8.392   4.644   5.984  0.0101  0.9205 -1.1236
  234MOL0     H31568   8.165   4.475   5.990 -1.3137 -3.4897 -1.5869
  234MOL0     H31569   8.316   4.403   6.021  0.5908 -2.8998 -1.9406
  234MOL0     H31570   8.349   4.334   5.789  0.1128 -1.9287  1.0201
  234MOL0     H31571   8.197   4.415   5.745 -1.6646 -0.3568 -0.1452
  234MOL0     H31572   7.883   5.306   5.667 -0.4551  0.8510 -0.9160
  234MOL0     H31573   7.731   5.488   5.737 -0.1946 -1.8741 -1.5231
  234MOL0     H31574   7.448   5.533   6.022  2.2902  1.3346  2.8324
  234MOL0     H31575   7.207   5.604   6.022 -0.2742 -0.0690 -2.9399
  234MOL0     H31576   8.104   6.305   6.669  2.1027 -1.4474 -1.1296
  234MOL0     H31577   8.342   6.282   6.610  1.1677  1.7602  0.6425
  234MOL0     H31578   8.735   6.660   6.568 -1.5578 -0.3961  0.3415
  234MOL0     H31579   8.968   6.672   6.549 -0.8770  0.0926 -0.6490
  234MOL0     H31580   9.171   6.646   6.499  2.3396 -0.7660 -0.7547
  234MOL0     H31581   9.180   6.668   6.668 -0.9728  0.7983 -1.3700
  234MOL0     H31582   9.372   6.518   6.481  1.9642 -0.9171  0.3060
  234MOL0     H31583   9.386   6.481   6.650  2.4618  0.9632 -0.5914
  234MOL0     H31584   9.389   6.766   6.635  1.0336 -0.6983  2.8908
  234MOL0     H31585   9.490   6.713   6.501  1.6636 -0.4728  0.2065
  234MOL0     H31586   9.633   6.583   6.678  0.7698  0.0877  0.2725
  234MOL0     H31587   9.511   6.613   6.795 -0.8877  1.5956  1.0029
  234MOL0     H31588   9.732   6.969   6.807 -4.2425  2.4092 -0.3966
  234MOL0     H31589   9.010   6.267   6.682 -1.6487 -1.0998 -1.4876
  234MOL0     H31590   8.773   6.252   6.719  0.5019 -1.6480 -2.3631
  235MOL0     O31591  11.095   9.194   6.715 -0.4089 -0.3795 -0.4505
  235MOL0     C31592  11.193   9.266   6.732  0.6287 -0.6080  0.3074
  235MOL0     O31593  11.186   9.403   6.744  0.4515 -1.0550 -0.1107
  235MOL0     C31594  11.063   9.463   6.719  0.6729 -0.0079 -0.8225
  235MOL0     C31595  11.034   9.572   6.808  0.0348 -0.0122 -0.2611
  235MOL0     C31596  10.911   9.640   6.799 -0.7623 -0.5569 -0.0638
  235MOL0     C31597  10.827   9.601   6.698  0.2412  0.8045  0.6732
  235MOL0     O31598  10.692   9.644   6.690 -0.3934  0.1244  0.6416
  235MOL0     C31599  10.622   9.637   6.818 -0.1171 -0.4339  0.7197
  235MOL0     C31600  10.482   9.694   6.805 -0.3638  0.0195 -0.4644
  235MOL0     C31601  10.374   9.598   6.738 -0.3084 -0.4154 -0.4656
  235MOL0     C31602  10.232   9.656   6.764  0.6545  0.2109  0.0870
  235MOL0     C31603  10.221   9.801   6.708 -0.3701 -0.5280 -0.4574
  235MOL0     C31604  10.078   9.866   6.708  0.3366  0.5111  0.0368
  235MOL0     C31605  10.020   9.903   6.841  0.2522 -0.0528  0.3113
  235MOL0     C31606   9.994   9.794   6.935  0.0413  0.4630  0.6046
  235MOL0     N31607   9.910   9.842   7.045  0.9370 -0.3341  0.5656
  235MOL0     C31608   9.951   9.861   7.170 -0.4807  0.0471 -0.8204
  235MOL0     C31609   9.850   9.915   7.239 -0.5241  0.0421 -0.2046
  235MOL0     C31610   9.874   9.939   7.379 -0.3006  0.5619 -0.1290
  235MOL0     C31611   9.983  10.049   7.396  0.8112 -0.0327 -0.3625
  235MOL0     C31612  10.005  10.142   7.522 -0.1345  0.4715 -0.3494
  235MOL0     C31613   9.868  10.216   7.544 -1.1475  0.6108 -0.2125
  235MOL0     O31614   9.784  10.122   7.601  0.2158 -0.4151  0.3033
  235MOL0     C31615   9.650  10.155   7.599 -0.7153 -0.3358 -0.1419
  235MOL0     C31616   9.571  10.051   7.615  0.4613  0.2427  0.5964
  235MOL0     C31617   9.431  10.063   7.620  0.3590  0.3152 -0.1929
  235MOL0     C31618   9.341   9.943   7.642  0.1008 -0.3653 -0.6108
  235MOL0     C31619   9.381  10.193   7.620  0.5221 -1.0236 -1.0628
  235MOL0     C31620   9.239  10.211   7.631  0.9589  0.2447 -0.6884
  235MOL0     O31621   9.178  10.237   7.511  0.2651  0.1656  0.7106
  235MOL0     C31622   9.042  10.206   7.510  0.5633 -0.0640  0.5351
  235MOL0     C31623   9.004  10.074   7.472  0.0179 -0.1600 -0.0097
  235MOL0     C31624   8.879  10.031   7.475  0.3604 -0.5301 -0.0377
  235MOL0     C31625   8.786  10.114   7.537  1.2048  0.7145  0.0153
  235MOL0     O31626   8.663  10.053   7.541 -0.0372 -0.6422  0.1321
  235MOL0     C31627   8.563  10.120   7.622  0.3949 -0.7571 -0.3391
  235MOL0     C31628   8.449  10.013   7.643 -0.1827 -0.4795 -0.7263
  235MOL0     C31629   8.485   9.876   7.689  1.1083  0.2508 -0.4835
  235MOL0     C31630   8.366   9.777   7.689 -0.1385 -0.1263  0.2250
  235MOL0     C31631   8.411   9.631   7.736 -0.1817 -0.6994  0.0023
  235MOL0     C31632   8.294   9.540   7.697  0.4576 -0.0406  0.0850
  235MOL0     C31633   8.158   9.563   7.761 -0.7250  0.2937  0.1464
  235MOL0     C31634   8.047   9.471   7.713 -0.4374 -0.2261  0.2524
  235MOL0    Cl31635   7.885   9.515   7.773  0.3306  0.1578 -0.1453
  235MOL0     C31636   8.817  10.246   7.583  0.8851 -0.3191  0.3121
  235MOL0     C31637   8.948  10.293   7.553  0.2668 -0.2135 -0.4506
  235MOL0     O31638   9.181  10.212   7.742  0.2934 -0.5057  0.2836
  235MOL0     C31639   9.464  10.310   7.597  0.2239 -0.1654  0.5812
  235MOL0     C31640   9.603  10.287   7.592  0.9879 -0.7691 -0.3472
  235MOL0     N31641   9.744   9.922   7.155  0.3316  0.1070 -0.8829
  235MOL0     N31642   9.777   9.875   7.043  0.3130 -0.2251 -0.5350
  235MOL0     C31643  10.853   9.496   6.608 -0.2063 -0.0916  0.1212
  235MOL0     C31644  10.973   9.437   6.623 -0.2216  0.5411  1.0840
  235MOL0     C31645  11.329   9.210   6.728 -0.2634 -0.3757  0.6060
  235MOL0     C31646  11.437   9.294   6.748 -0.2923 -0.0785  0.1800
  235MOL0     C31647  11.568   9.240   6.729  0.4684  0.2806  1.0303
  235MOL0     C31648  11.593   9.107   6.696 -0.1311  0.2351  0.1223
  235MOL0     O31649  11.717   9.042   6.676 -0.2635  0.5543 -0.1283
  235MOL0     C31650  11.829   9.127   6.676 -0.6825 -0.0336  0.5376
  235MOL0     C31651  11.833   9.213   6.549 -0.4801  0.2927  0.5391
  235MOL0     C31652  11.818   9.124   6.417 -0.1599 -0.7216  0.6306
  235MOL0     C31653  11.869   9.198   6.292 -0.2115  0.4413  0.0456
  235MOL0     C31654  12.015   9.197   6.267  0.5840  0.6007 -0.4187
  235MOL0     C31655  12.130   9.200   6.239 -0.2188 -0.2081 -0.0215
  235MOL0     C31656  11.477   9.032   6.675 -0.0569  0.2002  0.7364
  235MOL0     C31657  11.347   9.079   6.684  0.4311  0.1516  0.0949
  235MOL0     H31658  11.109   9.607   6.878  0.2063  0.1960 -0.5488
  235MOL0     H31659  10.885   9.711   6.876  0.7744 -0.0355  0.0113
  235MOL0     H31660  10.609   9.531   6.839  0.3784 -0.0916  2.9873
  235MOL0     H31661  10.674   9.691   6.898  0.9147 -1.8553  1.0408
  235MOL0     H31662  10.457   9.716   6.909  0.2874 -0.5298 -0.1789
  235MOL0     H31663  10.485   9.796   6.764  0.2671  0.7385  1.2852
  235MOL0     H31664  10.403   9.599   6.633  1.7234 -0.2447  0.0419
  235MOL0     H31665  10.379   9.500   6.786  1.7950 -0.3743 -0.4886
  235MOL0     H31666  10.155   9.589   6.725  0.0396 -2.6607  5.3445
  235MOL0     H31667  10.214   9.656   6.872  1.3412 -0.2875  0.2029
  235MOL0     H31668  10.298   9.870   6.743 -0.6662  0.6020 -1.9295
  235MOL0     H31669  10.236   9.784   6.601  0.0982 -1.9135 -0.1847
  235MOL0     H31670  10.095   9.959   6.653  0.3079  1.8510  2.1746
  235MOL0     H31671  10.000   9.801   6.668 -1.4389  0.7911  2.7591
  235MOL0     H31672  10.086   9.975   6.891 -0.9937 -0.8160  3.2675
  235MOL0     H31673   9.920   9.938   6.814 -0.1653 -2.8909 -2.3226
  235MOL0     H31674  10.083   9.749   6.979  1.1900  0.4562 -1.6008
  235MOL0     H31675   9.950   9.710   6.881  1.3690  0.3167 -0.2977
  235MOL0     H31676  10.047   9.828   7.208 -0.0209 -1.0532 -2.7741
  235MOL0     H31677   9.783   9.977   7.427 -0.8095 -0.4201 -0.2856
  235MOL0     H31678   9.904   9.850   7.436  1.3137  0.6057 -0.8794
  235MOL0     H31679   9.972  10.120   7.314 -0.8620 -0.9638 -0.9881
  235MOL0     H31680  10.076   9.993   7.383  0.4467 -0.5813 -0.6233
  235MOL0     H31681  10.092  10.206   7.503  0.6319 -0.2973  0.4595
  235MOL0     H31682  10.045  10.082   7.604 -0.6345 -1.7537 -1.6321
  235MOL0     H31683   9.829  10.264   7.454 -2.3580  1.9258  0.9677
  235MOL0     H31684   9.882  10.296   7.617  1.6324 -0.7858  0.9197
  235MOL0     H31685   9.621   9.954   7.612 -0.0405  0.0050 -1.1465
  235MOL0     H31686   9.322   9.920   7.747  2.5273 -2.5078 -0.5436
  235MOL0     H31687   9.244   9.948   7.592  0.4602  0.3689 -1.2619
  235MOL0     H31688   9.404   9.860   7.607  1.7546  0.0992  1.1080
  235MOL0     H31689   9.083  10.009   7.436  1.3734  1.2818  0.2586
  235MOL0     H31690   8.851   9.932   7.442 -0.9641 -1.6869  3.9111
  235MOL0     H31691   8.602  10.150   7.719  1.3266  1.3347 -1.2917
  235MOL0     H31692   8.519  10.210   7.578 -0.2556 -0.1671  1.4531
  235MOL0     H31693   8.380  10.068   7.708 -0.5655  1.4755 -2.6457
  235MOL0     H31694   8.407  10.001   7.543  2.4752  2.3194 -2.3720
  235MOL0     H31695   8.524   9.870   7.791 -2.1847 -2.0720  0.8260
  235MOL0     H31696   8.564   9.843   7.621 -1.1814 -0.4160 -3.0147
  235MOL0     H31697   8.290   9.812   7.759  0.0551 -2.6969  1.8631
  235MOL0     H31698   8.325   9.774   7.587 -1.1227 -1.5520  0.6300
  235MOL0     H31699   8.442   9.633   7.841 -1.1774 -0.5117  0.3105
  235MOL0     H31700   8.497   9.608   7.673 -0.0704 -1.4517  0.4236
  235MOL0     H31701   8.285   9.538   7.588  0.4018 -0.9303  0.0951
  235MOL0     H31702   8.326   9.437   7.715 -1.7786 -2.0162 -5.1907
  235MOL0     H31703   8.121   9.665   7.749 -3.5534 -0.8600 -2.2136
  235MOL0     H31704   8.171   9.547   7.868  0.3572 -2.1476 -0.2771
  235MOL0     H31705   8.083   9.369   7.735  4.2863  1.5955  2.2997
  235MOL0     H31706   8.042   9.498   7.608 -1.1977 -0.8278  0.1232
  235MOL0     H31707   8.742  10.304   7.635  1.4824 -0.3076  1.1745
  235MOL0     H31708   8.980  10.390   7.591 -1.0895  0.0731  0.0111
  235MOL0     H31709   9.431  10.413   7.589  1.3673  0.1709 -0.0722
  235MOL0     H31710   9.654  10.383   7.587 -1.9687  1.4198  4.2304
  235MOL0     H31711  10.784   9.456   6.535  1.3770 -0.6466 -1.1288
  235MOL0     H31712  10.990   9.370   6.539 -1.8705  0.6825  0.6164
  235MOL0     H31713  11.429   9.397   6.782  1.9053  1.6488 -3.8776
  235MOL0     H31714  11.645   9.315   6.746 -0.4015  1.0693  1.6123
  235MOL0     H31715  11.828   9.189   6.766  0.1746  0.2861  0.3328
  235MOL0     H31716  11.915   9.060   6.669  0.3715  1.3034  0.1546
  235MOL0     H31717  11.930   9.263   6.548 -0.6664  0.7579  2.3119
  235MOL0     H31718  11.760   9.294   6.557 -0.3549  0.6070 -1.1771
  235MOL0     H31719  11.709   9.115   6.407 -0.3318  2.4930 -2.1500
  235MOL0     H31720  11.864   9.026   6.437  1.7558  0.7410  4.3419
  235MOL0     H31721  11.839   9.302   6.310  0.8701  0.4522  2.0706
  235MOL0     H31722  11.825   9.142   6.209 -3.0198  0.3556  1.4563
  235MOL0     H31723  12.231   9.215   6.205 -0.5207  2.3163 -0.0036
  235MOL0     H31724  11.497   8.936   6.629  2.7327  1.9339 -2.0283
  235MOL0     H31725  11.262   9.018   6.656  0.4064  0.3835 -0.3370
  236MOL0     O31726   3.753   7.770   8.082  0.5023 -1.2570  0.2400
  236MOL0     C31727   3.784   7.748   8.198  0.5340  0.3660  0.8794
  236MOL0     O31728   3.691   7.730   8.295  0.1841 -0.1668  0.2091
  236MOL0     C31729   3.562   7.732   8.253  0.0351 -0.5495  0.2705
  236MOL0     C31730   3.488   7.613   8.208  0.4241  0.3017 -0.0379
  236MOL0     C31731   3.351   7.621   8.185 -0.2911  0.0815 -0.2630
  236MOL0     C31732   3.276   7.735   8.222  0.3638  0.3233  0.2657
  236MOL0     O31733   3.141   7.744   8.232 -0.5028 -0.0313  0.1063
  236MOL0     C31734   3.066   7.620   8.217  0.0306 -0.4900 -1.0000
  236MOL0     C31735   2.915   7.658   8.240  0.0556  0.1989  0.0118
  236MOL0     C31736   2.875   7.690   8.384 -0.3691  0.3127  0.4835
  236MOL0     C31737   2.733   7.733   8.388 -0.8986  0.1764 -0.1083
  236MOL0     C31738   2.692   7.742   8.530 -0.1852 -0.2159 -0.0391
  236MOL0     C31739   2.538   7.765   8.541  0.0142  0.6443  0.2311
  236MOL0     C31740   2.447   7.649   8.496  1.2590 -0.7584  0.3198
  236MOL0     C31741   2.472   7.496   8.539 -0.7616 -0.1096  0.0494
  236MOL0     N31742   2.451   7.467   8.678  0.4996  0.0994 -0.5011
  236MOL0     C31743   2.335   7.447   8.741 -0.0966  0.7617 -0.1407
  236MOL0     C31744   2.364   7.437   8.871  0.1429 -0.2736 -0.4436
  236MOL0     C31745   2.271   7.432   8.995 -0.4281 -0.5123  0.4388
  236MOL0     C31746   2.265   7.295   9.049  0.6387  0.3141  1.2609
  236MOL0     C31747   2.189   7.201   8.959 -0.6920 -0.2482 -0.2163
  236MOL0     C31748   2.033   7.191   8.979  0.3416  0.4815  0.4709
  236MOL0     O31749   1.981   7.091   8.890 -0.1379  0.1471  0.7185
  236MOL0     C31750   1.852   7.045   8.898 -0.4133 -0.1973  0.6689
  236MOL0     C31751   1.809   6.993   8.782 -1.2044  0.5328 -0.3965
  236MOL0     C31752   1.685   6.934   8.775  0.6541 -0.1584  0.5274
  236MOL0     C31753   1.660   6.868   8.640 -0.3816  0.0434  0.2021
  236MOL0     C31754   1.585   6.966   8.875 -0.1111  0.4736 -0.4619
  236MOL0     C31755   1.443   6.913   8.861 -0.4504  0.2042  0.7949
  236MOL0     O31756   1.345   6.990   8.913 -0.1384 -0.4696  0.9364
  236MOL0     C31757   1.219   6.957   8.894  0.7672  0.2930  0.3008
  236MOL0     C31758   1.126   7.060   8.857 -0.2306 -0.3486 -0.1560
  236MOL0     C31759   0.983   7.034   8.866  0.4275 -1.3117 -1.1972
  236MOL0     C31760   0.942   6.911   8.914 -0.2933  0.6518 -0.3690
  236MOL0     O31761   0.807   6.885   8.921 -0.0878  0.1141  0.2818
  236MOL0     C31762   0.766   6.769   8.848  1.0828 -0.3297  0.4771
  236MOL0     C31763   0.609   6.760   8.825  0.8912  0.4961 -0.5749
  236MOL0     C31764   0.561   6.619   8.779 -0.4228  0.2223 -0.6702
  236MOL0     C31765   0.404   6.592   8.792 -0.2926  0.1495  0.0447
  236MOL0     C31766   0.357   6.447   8.748 -0.7277  0.9582  0.2152
  236MOL0     C31767   0.203   6.442   8.741  0.1596  0.0760  0.6703
  236MOL0     C31768   0.117   6.478   8.865 -0.0212  0.3754  0.7314
  236MOL0     C31769  -0.025   6.431   8.851 -0.0946 -0.0274 -0.5749
  236MOL0    Cl31770  -0.033   6.249   8.812 -0.1290  0.3913  0.1158
  236MOL0     C31771   1.034   6.819   8.960 -0.1436  0.5995 -0.6353
  236MOL0     C31772   1.169   6.840   8.956 -0.4780  0.0928 -0.0116
  236MOL0     O31773   1.424   6.806   8.805  0.7120 -0.2873  0.4750
  236MOL0     C31774   1.624   7.034   8.993 -0.2244 -0.1237  0.7728
  236MOL0     C31775   1.760   7.068   9.000 -0.1285  0.2667 -0.5144
  236MOL0     N31776   2.503   7.460   8.885  0.1100  0.4442  0.0097
  236MOL0     N31777   2.554   7.476   8.768  0.3093  0.9504 -0.0373
  236MOL0     C31778   3.341   7.851   8.265  0.1309 -0.3078  0.4035
  236MOL0     C31779   3.481   7.842   8.279  0.4222  0.0522 -0.2522
  236MOL0     C31780   3.930   7.742   8.212 -0.0689 -0.8557 -0.0852
  236MOL0     C31781   4.027   7.776   8.119  0.6689 -0.1150  0.2863
  236MOL0     C31782   4.166   7.779   8.150  0.3682 -1.4075 -0.1631
  236MOL0     C31783   4.207   7.746   8.282  0.5274 -0.2712  0.1153
  236MOL0     O31784   4.333   7.764   8.327 -0.2304 -0.3446  0.8607
  236MOL0     C31785   4.447   7.764   8.235  0.2115 -0.1736 -0.1349
  236MOL0     C31786   4.550   7.654   8.272  0.8624 -0.2866  0.4935
  236MOL0     C31787   4.677   7.653   8.181 -0.2321 -0.2893 -0.1764
  236MOL0     C31788   4.788   7.729   8.263  0.6750 -1.1655  0.3912
  236MOL0     C31789   4.928   7.696   8.234  0.0909  0.4144 -0.5567
  236MOL0     C31790   5.039   7.658   8.209  0.4707  0.2002  0.3903
  236MOL0     C31791   4.113   7.717   8.376  0.0253  1.0785  0.2893
  236MOL0     C31792   3.976   7.709   8.339  0.3241 -0.5714 -0.5227
  236MOL0     H31793   3.541   7.523   8.179  0.4102  0.3650 -0.2675
  236MOL0     H31794   3.303   7.531   8.149 -0.4065 -0.5922  1.5026
  236MOL0     H31795   3.075   7.590   8.113  2.8235  0.5966 -1.1406
  236MOL0     H31796   3.083   7.544   8.293 -2.0676  1.9194  2.1900
  236MOL0     H31797   2.885   7.746   8.183 -0.6266  0.9195  1.4367
  236MOL0     H31798   2.867   7.570   8.197  0.5791  0.0659 -0.3226
  236MOL0     H31799   2.890   7.602   8.448 -1.1942 -0.9481 -0.9649
  236MOL0     H31800   2.940   7.767   8.426 -2.7592  1.7206  1.8826
  236MOL0     H31801   2.712   7.826   8.334  1.1741  0.1732 -0.9944
  236MOL0     H31802   2.686   7.652   8.331 -2.3789  0.6975  0.3110
  236MOL0     H31803   2.727   7.660   8.593  0.9917  1.1863  1.2022
  236MOL0     H31804   2.747   7.826   8.573  0.0770 -0.2802 -0.2458
  236MOL0     H31805   2.511   7.795   8.643 -0.8695  0.9918 -0.0962
  236MOL0     H31806   2.512   7.855   8.485 -0.2662  1.2093  1.2484
  236MOL0     H31807   2.348   7.681   8.530  0.5557 -0.0123 -2.1918
  236MOL0     H31808   2.442   7.647   8.387 -1.4324 -2.5990  0.3980
  236MOL0     H31809   2.574   7.469   8.511 -1.2530  1.1662 -3.4059
  236MOL0     H31810   2.397   7.436   8.487 -1.0589 -0.4054  0.8086
  236MOL0     H31811   2.236   7.430   8.700  0.1370  0.7056 -0.6880
  236MOL0     H31812   2.300   7.502   9.074 -1.9496 -0.5491  1.0677
  236MOL0     H31813   2.169   7.463   8.969 -1.2801 -1.4733  2.4713
  236MOL0     H31814   2.220   7.290   9.149 -0.2719 -1.6524  0.8180
  236MOL0     H31815   2.371   7.266   9.054  0.3147 -2.3251 -2.4253
  236MOL0     H31816   2.216   7.099   8.986  2.7287  0.3919 -0.8292
  236MOL0     H31817   2.214   7.221   8.854 -0.4367 -2.1519 -0.5497
  236MOL0     H31818   1.987   7.285   8.947 -3.5556 -1.3673  0.1188
  236MOL0     H31819   2.017   7.172   9.085  1.4972  0.4856  0.6641
  236MOL0     H31820   1.879   6.986   8.699  0.6354  2.4933  0.8686
  236MOL0     H31821   1.756   6.864   8.588  0.1197 -0.4869  1.1421
  236MOL0     H31822   1.618   6.767   8.651 -0.6401 -0.0292 -1.2816
  236MOL0     H31823   1.590   6.922   8.577  0.2229  1.4199  0.6830
  236MOL0     H31824   1.172   7.150   8.818 -1.1340 -1.0816 -3.2050
  236MOL0     H31825   0.914   7.113   8.840 -0.1970  0.8410  5.2606
  236MOL0     H31826   0.818   6.775   8.752  1.9258 -0.0681  0.9342
  236MOL0     H31827   0.797   6.681   8.905  1.4293 -0.0154  0.7872
  236MOL0     H31828   0.553   6.788   8.915  1.1965 -3.4288  1.0574
  236MOL0     H31829   0.580   6.823   8.741 -1.0626 -1.0200 -1.1199
  236MOL0     H31830   0.627   6.542   8.820  1.1977  1.3465 -1.0312
  236MOL0     H31831   0.586   6.620   8.672  1.6245  0.6562 -0.2353
  236MOL0     H31832   0.378   6.594   8.898  0.4046  1.4295  0.2067
  236MOL0     H31833   0.353   6.676   8.743 -2.3187  1.4346  3.9737
  236MOL0     H31834   0.389   6.366   8.813 -1.3687  0.2741 -0.3115
  236MOL0     H31835   0.392   6.424   8.647 -2.1654  1.5644 -0.4621
  236MOL0     H31836   0.174   6.515   8.665  3.3480  3.2771  2.2698
  236MOL0     H31837   0.182   6.344   8.696 -2.2068  0.5494  0.5927
  236MOL0     H31838   0.113   6.586   8.878 -1.4491  0.4300 -0.0716
  236MOL0     H31839   0.153   6.417   8.949  0.6754  0.0487  0.2147
  236MOL0     H31840  -0.083   6.488   8.778  1.6572  1.0976 -1.1646
  236MOL0     H31841  -0.070   6.440   8.950 -0.0223  0.6607 -0.5995
  236MOL0     H31842   0.990   6.733   9.010  0.9099 -0.5603 -1.6333
  236MOL0     H31843   1.222   6.763   9.011 -1.6332 -0.5799  0.2038
  236MOL0     H31844   1.559   7.051   9.078 -2.2953 -2.4907 -0.2015
  236MOL0     H31845   1.799   7.109   9.093  0.9034 -0.4983 -0.5988
  236MOL0     H31846   3.283   7.935   8.301 -1.1002 -1.9025  2.4059
  236MOL0     H31847   3.517   7.933   8.326 -0.2912 -0.4612  1.3289
  236MOL0     H31848   3.993   7.805   8.021  0.7870 -1.4054 -0.1636
  236MOL0     H31849   4.239   7.800   8.072 -2.3740  0.6224 -2.4265
  236MOL0     H31850   4.418   7.750   8.131 -1.2116 -1.2944  0.3733
  236MOL0     H31851   4.502   7.858   8.242  1.8911 -0.9503 -1.9769
  236MOL0     H31852   4.514   7.550   8.270 -1.3987  0.3497  2.6957
  236MOL0     H31853   4.572   7.665   8.379 -1.8274 -2.1039  1.3530
  236MOL0     H31854   4.657   7.695   8.083  0.2136  0.9974  0.2635
  236MOL0     H31855   4.709   7.550   8.161 -1.8283 -0.9365  0.4379
  236MOL0     H31856   4.780   7.715   8.371  0.7312  2.0362  0.8951
  236MOL0     H31857   4.780   7.838   8.254  1.9534 -0.8170  2.8209
  236MOL0     H31858   5.136   7.624   8.178 -0.1373 -0.8678 -0.4211
  236MOL0     H31859   4.151   7.690   8.474  1.0286  2.2480  0.2485
  236MOL0     H31860   3.906   7.666   8.409 -0.9722  0.9369 -0.8334
  237MOL0     O31861   7.254   8.353   7.020  0.6986 -0.4053  0.0740
  237MOL0     C31862   7.319   8.255   7.041 -0.4285  1.0320  0.2339
  237MOL0     O31863   7.320   8.176   7.154  0.4085  0.2519  0.1431
  237MOL0     C31864   7.237   8.198   7.263 -0.0642 -0.0285  1.1315
  237MOL0     C31865   7.111   8.246   7.248  0.3222  0.4022  0.5213
  237MOL0     C31866   7.035   8.276   7.361 -0.4383 -0.1425  0.3176
  237MOL0     C31867   7.072   8.243   7.494 -0.3917 -0.1269  0.0430
  237MOL0     O31868   6.995   8.272   7.598 -0.0335 -0.2270 -0.3766
  237MOL0     C31869   6.860   8.237   7.580 -0.3346 -0.1457  0.5110
  237MOL0     C31870   6.796   8.218   7.721  0.4033  0.7977 -0.3151
  237MOL0     C31871   6.651   8.257   7.728 -0.9630 -0.4604  0.5348
  237MOL0     C31872   6.623   8.294   7.871 -0.5247 -0.4281 -0.6350
  237MOL0     C31873   6.474   8.298   7.891  0.7383 -0.7270  0.9831
  237MOL0     C31874   6.409   8.415   7.819 -0.1751  0.0263  0.1308
  237MOL0     C31875   6.261   8.431   7.851 -0.7605  0.2824 -0.5390
  237MOL0     C31876   6.197   8.509   7.733  0.0265  0.5938  0.0613
  237MOL0     N31877   6.070   8.557   7.793  0.3658  0.5492  0.0214
  237MOL0     C31878   5.960   8.486   7.819  0.0335  1.3765 -0.7138
  237MOL0     C31879   5.875   8.576   7.875  0.6545  0.2507  0.1736
  237MOL0     C31880   5.740   8.553   7.942 -0.1228 -0.2974  0.2826
  237MOL0     C31881   5.620   8.635   7.876  0.3528 -0.0377  0.9165
  237MOL0     C31882   5.619   8.788   7.927  0.2754 -0.4235  0.0468
  237MOL0     C31883   5.484   8.864   7.895  0.4798 -0.0485  0.5398
  237MOL0     O31884   5.456   8.879   7.753 -0.0315  0.1440 -0.1854
  237MOL0     C31885   5.320   8.912   7.717 -0.0971  0.2975 -0.4845
  237MOL0     C31886   5.222   8.962   7.807 -0.3858 -0.0236 -0.1025
  237MOL0     C31887   5.088   8.988   7.776 -0.8609 -1.0536 -0.7550
  237MOL0     C31888   5.003   9.030   7.888  0.8347  0.1393 -0.2067
  237MOL0     C31889   5.052   8.967   7.637 -0.4383  0.4858 -0.1370
  237MOL0     C31890   4.914   8.969   7.575 -0.0077  0.1298 -0.0125
  237MOL0     O31891   4.897   8.891   7.465 -0.0341 -0.0295 -0.0550
  237MOL0     C31892   4.768   8.900   7.412  0.4361 -0.1864 -0.0883
  237MOL0     C31893   4.645   8.898   7.484  0.3784  0.3246  0.8640
  237MOL0     C31894   4.526   8.906   7.414  0.9841 -1.0020  1.0576
  237MOL0     C31895   4.532   8.918   7.274 -0.7252  0.0110  0.2418
  237MOL0     O31896   4.421   8.913   7.193  0.3994 -0.0809  0.1933
  237MOL0     C31897   4.316   8.820   7.221  0.6632  0.1324 -0.5978
  237MOL0     C31898   4.185   8.900   7.230  0.6036 -0.2089  0.6982
  237MOL0     C31899   4.083   8.808   7.287  0.1220  0.3981 -0.2037
  237MOL0     C31900   3.942   8.854   7.266  0.5233  0.4091 -0.3717
  237MOL0     C31901   3.821   8.770   7.316  0.2615  0.1264 -0.8083
  237MOL0     C31902   3.707   8.862   7.321 -0.2860 -0.0831 -0.0078
  237MOL0     C31903   3.573   8.791   7.317 -0.2956  0.1876 -0.2840
  237MOL0     C31904   3.456   8.894   7.331 -1.2737  0.4022  0.0264
  237MOL0    Cl31905   3.302   8.806   7.348 -0.5625 -0.1996 -0.4069
  237MOL0     C31906   4.650   8.916   7.207 -0.8331  0.6201 -0.5086
  237MOL0     C31907   4.774   8.906   7.267 -0.7252 -0.6474 -0.1724
  237MOL0     O31908   4.829   9.046   7.629  0.3067  0.5382  0.1872
  237MOL0     C31909   5.146   8.927   7.541 -0.3015 -0.5636  0.2093
  237MOL0     C31910   5.280   8.901   7.578 -0.4866 -0.1531 -0.8387
  237MOL0     N31911   5.939   8.694   7.879  0.7474  0.8357  0.2294
  237MOL0     N31912   6.046   8.688   7.823 -0.3564  0.5329 -0.9921
  237MOL0     C31913   7.204   8.192   7.506 -0.2815 -0.2040  1.5367
  237MOL0     C31914   7.290   8.175   7.391  0.8147 -0.3971  0.3940
  237MOL0     C31915   7.401   8.205   6.923 -0.6248  0.6387  0.6952
  237MOL0     C31916   7.443   8.077   6.916 -0.0661 -0.2914 -0.2469
  237MOL0     C31917   7.513   8.026   6.806 -0.4498 -1.2611  0.3584
  237MOL0     C31918   7.545   8.117   6.697  0.2471  0.8987  0.9068
  237MOL0     O31919   7.630   8.098   6.589  0.1873  0.4032  0.3682
  237MOL0     C31920   7.669   7.962   6.557 -0.7352 -0.1419  0.0662
  237MOL0     C31921   7.809   7.916   6.596  1.0099  0.4843  0.1300
  237MOL0     C31922   7.907   8.008   6.514 -0.2901  0.1677  0.0463
  237MOL0     C31923   8.042   8.021   6.585 -0.0741 -0.8381  0.3401
  237MOL0     C31924   8.122   7.906   6.576 -0.5745 -0.1105  0.2312
  237MOL0     C31925   8.184   7.799   6.569  0.0670 -0.3541  0.6562
  237MOL0     C31926   7.496   8.246   6.704  0.2923 -0.1392 -0.6517
  237MOL0     C31927   7.432   8.298   6.821  1.1618  0.2734 -0.2508
  237MOL0     H31928   7.063   8.273   7.154  0.9533  0.2808  0.1630
  237MOL0     H31929   6.949   8.336   7.334 -0.2475 -0.1848 -0.4101
  237MOL0     H31930   6.808   8.322   7.534 -0.5869 -0.4321  0.2569
  237MOL0     H31931   6.849   8.149   7.516  2.7866 -0.1586 -0.1711
  237MOL0     H31932   6.808   8.112   7.741  3.6486  0.8413 -1.3222
  237MOL0     H31933   6.855   8.275   7.793  1.6767 -0.3228 -0.4265
  237MOL0     H31934   6.631   8.343   7.664  0.1896 -1.2211 -0.9051
  237MOL0     H31935   6.590   8.171   7.699  0.0501 -1.6931  1.8719
  237MOL0     H31936   6.672   8.221   7.936 -0.9608  1.0286  1.4298
  237MOL0     H31937   6.676   8.385   7.902  0.8673 -1.0364 -1.1563
  237MOL0     H31938   6.426   8.206   7.856 -1.4895  0.8538 -0.3623
  237MOL0     H31939   6.442   8.307   7.996 -3.0938  3.1369 -0.2329
  237MOL0     H31940   6.458   8.508   7.851 -0.9046 -0.2122  2.1384
  237MOL0     H31941   6.412   8.395   7.712 -1.6535  1.8869 -0.3202
  237MOL0     H31942   6.221   8.332   7.872 -0.3108  0.2341  0.1403
  237MOL0     H31943   6.247   8.492   7.940 -3.7565  0.4744 -1.0630
  237MOL0     H31944   6.198   8.454   7.639  0.3059  1.0718 -0.2203
  237MOL0     H31945   6.265   8.593   7.716 -0.8937  0.9374 -2.2349
  237MOL0     H31946   5.946   8.378   7.813  1.9876  1.0542 -0.1091
  237MOL0     H31947   5.710   8.450   7.921 -3.1515  0.5296 -0.0054
  237MOL0     H31948   5.742   8.569   8.050  0.5130  0.5095  0.1655
  237MOL0     H31949   5.525   8.594   7.911  1.2149 -2.0396  1.0693
  237MOL0     H31950   5.625   8.631   7.766 -0.0907 -1.2565  0.9180
  237MOL0     H31951   5.696   8.845   7.875 -0.0376 -1.0429 -1.1448
  237MOL0     H31952   5.627   8.798   8.035 -1.7904 -3.5913  0.6283
  237MOL0     H31953   5.487   8.960   7.947 -0.6194  0.1302  0.2984
  237MOL0     H31954   5.407   8.810   7.950  0.7984  1.2014  2.3131
  237MOL0     H31955   5.255   8.978   7.909  0.7791  1.9674 -0.7241
  237MOL0     H31956   5.046   8.995   7.983 -0.5505 -0.0517  0.3808
  237MOL0     H31957   5.005   9.139   7.889  0.7834  0.1560 -1.2236
  237MOL0     H31958   4.899   8.996   7.886 -0.7154  4.3552 -1.5101
  237MOL0     H31959   4.649   8.902   7.592  2.4683  2.5390  0.8030
  237MOL0     H31960   4.432   8.895   7.466  0.0006 -1.0398 -0.6446
  237MOL0     H31961   4.318   8.749   7.138  0.1985 -1.4157  0.6554
  237MOL0     H31962   4.336   8.767   7.315 -1.8720  0.1348  0.0291
  237MOL0     H31963   4.203   8.986   7.295  1.5971 -1.1922  1.7662
  237MOL0     H31964   4.144   8.937   7.136  0.9900  1.0094  0.9985
  237MOL0     H31965   4.109   8.793   7.392 -0.1459 -1.1323 -0.3318
  237MOL0     H31966   4.106   8.718   7.229 -0.4201  0.4728 -0.5414
  237MOL0     H31967   3.941   8.948   7.322 -0.3342 -2.0166  4.2348
  237MOL0     H31968   3.934   8.877   7.160 -1.1118 -2.5322 -1.0227
  237MOL0     H31969   3.828   8.741   7.421 -0.9349 -1.3770 -1.1050
  237MOL0     H31970   3.794   8.674   7.269 -2.2427 -0.2847  1.2321
  237MOL0     H31971   3.712   8.921   7.412 -1.9041  0.8697 -0.4945
  237MOL0     H31972   3.712   8.944   7.249  0.8999 -1.0053 -1.0230
  237MOL0     H31973   3.565   8.716   7.396 -0.9270  0.2564 -0.2756
  237MOL0     H31974   3.559   8.735   7.224  1.2364 -0.4452 -0.1666
  237MOL0     H31975   3.449   8.962   7.246 -0.3482  0.1034 -0.3008
  237MOL0     H31976   3.473   8.964   7.413 -0.1226 -0.0932  0.2288
  237MOL0     H31977   4.657   8.919   7.099  1.6022 -0.2291 -0.4219
  237MOL0     H31978   4.869   8.906   7.215 -1.0418 -2.2544 -0.7919
  237MOL0     H31979   5.120   8.928   7.435 -0.8558  1.1523  0.3264
  237MOL0     H31980   5.358   8.864   7.512 -0.6247  0.6584 -1.4633
  237MOL0     H31981   7.239   8.162   7.604  3.2840  0.8657  0.7168
  237MOL0     H31982   7.381   8.116   7.392 -0.7183 -2.9659 -0.8322
  237MOL0     H31983   7.423   8.011   6.999  0.2809 -3.0825 -2.2215
  237MOL0     H31984   7.566   7.932   6.814 -1.0527 -1.9147 -2.2649
  237MOL0     H31985   7.602   7.887   6.599  2.6075 -2.5027  1.6397
  237MOL0     H31986   7.652   7.949   6.449 -0.4887 -3.3951  0.3338
  237MOL0     H31987   7.820   7.811   6.569 -0.3940 -0.3163  2.3864
  237MOL0     H31988   7.820   7.925   6.704  1.0431 -0.9621  0.2553
  237MOL0     H31989   7.865   8.102   6.478 -1.7094 -0.8318 -1.0286
  237MOL0     H31990   7.923   7.959   6.417 -2.0943  2.2682 -1.4013
  237MOL0     H31991   8.029   8.053   6.689  0.2247 -0.9280  0.4048
  237MOL0     H31992   8.093   8.101   6.529  1.5619 -1.3318  1.0781
  237MOL0     H31993   8.216   7.697   6.581 -0.3081 -0.4338  0.9782
  237MOL0     H31994   7.516   8.312   6.620  2.3694 -1.4598 -1.2672
  237MOL0     H31995   7.407   8.404   6.825 -1.9779 -0.4140  0.4419
  238MOL0     O31996   9.551   8.498   2.008 -0.2511  0.1800 -0.2622
  238MOL0     C31997   9.591   8.489   1.897  0.1062 -0.7048  0.6117
  238MOL0     O31998   9.521   8.502   1.779  0.2820  0.1622  0.4298
  238MOL0     C31999   9.390   8.534   1.782  0.2365  0.2163 -1.2934
  238MOL0     C32000   9.312   8.484   1.676  0.2758 -0.9678 -0.3592
  238MOL0     C32001   9.176   8.518   1.670 -0.2219 -0.1489  0.4818
  238MOL0     C32002   9.116   8.596   1.773 -0.1805 -1.0988  0.2769
  238MOL0     O32003   8.983   8.640   1.768  0.0678  0.0143 -0.1791
  238MOL0     C32004   8.897   8.569   1.674 -0.0721  0.9401  0.1520
  238MOL0     C32005   8.752   8.585   1.715 -0.6836 -0.6769 -0.5299
  238MOL0     C32006   8.700   8.731   1.729 -0.0927 -0.7797 -1.2046
  238MOL0     C32007   8.552   8.723   1.746  0.1576 -0.4187 -0.4855
  238MOL0     C32008   8.490   8.741   1.608  0.7282  0.1380 -0.0040
  238MOL0     C32009   8.342   8.714   1.602  0.2406 -0.2220 -0.9080
  238MOL0     C32010   8.296   8.571   1.612  0.6115 -0.1182  0.1963
  238MOL0     C32011   8.174   8.545   1.519 -0.4442 -0.1526  0.1927
  238MOL0     N32012   8.085   8.442   1.575 -0.0532  0.4106  0.6937
  238MOL0     C32013   8.128   8.310   1.578 -0.3332 -0.2369 -0.1979
  238MOL0     C32014   8.020   8.241   1.618  0.1373 -0.5433 -0.7378
  238MOL0     C32015   8.011   8.091   1.639  0.0978  0.1989  0.0142
  238MOL0     C32016   7.865   8.036   1.630 -0.9342  0.1417 -0.0496
  238MOL0     C32017   7.858   7.899   1.684 -0.5207  0.3964  0.3984
  238MOL0     C32018   7.726   7.826   1.679 -0.1991 -0.2436  0.1077
  238MOL0     O32019   7.773   7.692   1.723  0.4854  0.0720 -0.5040
  238MOL0     C32020   7.704   7.580   1.680  0.1258 -0.0701 -1.5632
  238MOL0     C32021   7.778   7.470   1.646 -0.2638 -0.5301  0.1405
  238MOL0     C32022   7.711   7.350   1.608  0.0003 -0.2507  1.4843
  238MOL0     C32023   7.797   7.230   1.570 -0.6704 -0.4806 -0.5902
  238MOL0     C32024   7.572   7.337   1.610 -0.2853  0.0708 -0.3171
  238MOL0     C32025   7.495   7.212   1.566  0.5877  0.4396  0.1256
  238MOL0     O32026   7.365   7.220   1.599 -0.2288  0.1380  0.4384
  238MOL0     C32027   7.272   7.127   1.561  0.2217 -0.8256 -0.1734
  238MOL0     C32028   7.152   7.176   1.521  1.1875 -0.0810 -0.1898
  238MOL0     C32029   7.041   7.101   1.511 -0.0560  0.2762 -0.4669
  238MOL0     C32030   7.045   6.963   1.558 -0.2385  1.0370  0.3059
  238MOL0     O32031   6.936   6.882   1.560 -0.9295 -0.1049 -0.4813
  238MOL0     C32032   6.897   6.834   1.427 -0.3638 -0.5153 -0.4102
  238MOL0     C32033   6.747   6.866   1.430 -0.2656  0.3094  0.0063
  238MOL0     C32034   6.669   6.785   1.324  0.0442 -0.0329 -0.5499
  238MOL0     C32035   6.541   6.858   1.272  0.0512  0.0194 -0.0563
  238MOL0     C32036   6.468   6.764   1.173  0.4196 -0.2992  0.1030
  238MOL0     C32037   6.331   6.824   1.153  1.2857  0.2358  0.4993
  238MOL0     C32038   6.247   6.759   1.043 -0.4472 -0.0244 -0.3063
  238MOL0     C32039   6.127   6.848   1.009 -0.3022  0.1943  0.6177
  238MOL0    Cl32040   6.032   6.777   0.868 -0.1631 -0.3666  0.1305
  238MOL0     C32041   7.163   6.910   1.603  0.4656  0.2029 -0.8529
  238MOL0     C32042   7.282   6.989   1.607  0.7086  0.2581 -1.2112
  238MOL0     O32043   7.547   7.132   1.488 -1.0542 -0.2165 -0.3011
  238MOL0     C32044   7.497   7.455   1.649 -0.1753  0.3288 -0.0951
  238MOL0     C32045   7.568   7.573   1.681  0.1646 -0.2312  1.1729
  238MOL0     N32046   7.916   8.336   1.643  0.6341 -0.0725  0.2985
  238MOL0     N32047   7.964   8.457   1.622 -0.1045 -0.0264 -0.0398
  238MOL0     C32048   9.193   8.655   1.866 -1.2487  0.6208 -0.9449
  238MOL0     C32049   9.328   8.625   1.874  1.1996  1.1375 -0.6660
  238MOL0     C32050   9.732   8.446   1.880  0.1842 -0.1253 -0.6710
  238MOL0     C32051   9.763   8.351   1.786  0.6657  0.3348 -0.3252
  238MOL0     C32052   9.891   8.315   1.753 -0.4651  0.4793  0.2623
  238MOL0     C32053   9.999   8.362   1.833  1.3637  0.0164 -0.1135
  238MOL0     O32054  10.116   8.302   1.799  0.4183 -0.3083 -0.3944
  238MOL0     C32055  10.228   8.323   1.881  0.1036  0.7307  0.0817
  238MOL0     C32056  10.304   8.440   1.840 -0.2477 -0.3160 -0.3906
  238MOL0     C32057  10.388   8.500   1.947 -0.8010 -0.1835 -0.3029
  238MOL0     C32058  10.513   8.416   1.974 -0.1060 -0.0763 -0.1095
  238MOL0     C32059  10.610   8.435   1.864  0.6212 -0.0353 -0.4038
  238MOL0     C32060  10.685   8.448   1.766 -0.0440 -0.1801  0.5121
  238MOL0     C32061   9.972   8.452   1.937 -0.4823  0.4790  0.5205
  238MOL0     C32062   9.843   8.501   1.952 -0.1309 -0.9305  0.5778
  238MOL0     H32063   9.363   8.431   1.596  3.8215  0.1498  0.9697
  238MOL0     H32064   9.120   8.507   1.577 -0.1574  1.0435  0.2864
  238MOL0     H32065   8.902   8.608   1.572  0.9673  0.1090 -0.1372
  238MOL0     H32066   8.912   8.460   1.672  2.6364  1.2405  0.0916
  238MOL0     H32067   8.694   8.539   1.635  0.8338 -2.1825 -0.8092
  238MOL0     H32068   8.746   8.542   1.815 -0.5672  1.3538  0.4106
  238MOL0     H32069   8.745   8.776   1.818 -1.8044 -0.8675 -0.2376
  238MOL0     H32070   8.734   8.791   1.644  0.7141  0.3398 -0.1248
  238MOL0     H32071   8.520   8.631   1.795 -1.8284  0.9621  0.9591
  238MOL0     H32072   8.520   8.806   1.809  0.5104 -1.9513  1.8148
  238MOL0     H32073   8.506   8.844   1.574  0.5135 -0.0829 -0.7806
  238MOL0     H32074   8.554   8.680   1.545 -0.2465 -1.4137  0.4473
  238MOL0     H32075   8.290   8.769   1.681  0.5109 -1.1686 -0.0520
  238MOL0     H32076   8.313   8.740   1.499 -0.7610 -1.5178 -0.9686
  238MOL0     H32077   8.376   8.499   1.592 -2.4793 -3.8230 -0.0296
  238MOL0     H32078   8.266   8.549   1.715 -2.1753 -0.2935 -0.5798
  238MOL0     H32079   8.194   8.518   1.415  1.3832 -0.1472  0.5190
  238MOL0     H32080   8.116   8.638   1.520 -0.4675 -0.1019 -1.7995
  238MOL0     H32081   8.226   8.270   1.553 -1.4385 -2.3194 -1.5057
  238MOL0     H32082   8.082   8.040   1.573 -0.3427 -1.1410  0.5447
  238MOL0     H32083   8.054   8.070   1.737  0.7962 -1.9879 -0.7157
  238MOL0     H32084   7.839   8.038   1.524 -1.5564 -2.1262  0.0313
  238MOL0     H32085   7.795   8.097   1.688  0.4386  0.1163  1.7124
  238MOL0     H32086   7.892   7.903   1.787 -0.9799  1.9652  0.5220
  238MOL0     H32087   7.931   7.841   1.627  0.1916  1.5736  0.0706
  238MOL0     H32088   7.694   7.820   1.575  2.2905 -0.7012 -0.6977
  238MOL0     H32089   7.649   7.873   1.742  1.6217  3.7087 -0.2820
  238MOL0     H32090   7.886   7.475   1.652 -0.2528  0.8376 -0.8179
  238MOL0     H32091   7.762   7.149   1.635  2.9634  0.1545  2.5424
  238MOL0     H32092   7.785   7.192   1.469  0.9219 -2.6021 -0.0484
  238MOL0     H32093   7.903   7.245   1.594 -0.6159 -1.1429 -0.4010
  238MOL0     H32094   7.146   7.283   1.504 -3.2683 -0.1706 -0.5459
  238MOL0     H32095   6.947   7.146   1.478 -2.2799 -3.3453  0.3357
  238MOL0     H32096   6.950   6.887   1.347 -4.1975  2.5398 -1.2167
  238MOL0     H32097   6.921   6.727   1.425  0.6622 -0.3237  0.6508
  238MOL0     H32098   6.710   6.839   1.530 -0.0313 -2.6246 -0.5986
  238MOL0     H32099   6.734   6.972   1.410  0.5836  0.3351 -0.4485
  238MOL0     H32100   6.631   6.691   1.365 -0.7036  0.6935  0.4932
  238MOL0     H32101   6.741   6.769   1.244  0.5426 -0.8669  0.0574
  238MOL0     H32102   6.483   6.889   1.359  1.8905 -1.5387  1.8484
  238MOL0     H32103   6.561   6.957   1.230  1.2710 -0.8095 -1.5238
  238MOL0     H32104   6.441   6.674   1.230  1.1014  1.1952  2.9977
  238MOL0     H32105   6.525   6.734   1.085  0.7015 -1.1282  0.5526
  238MOL0     H32106   6.267   6.809   1.241  2.1711 -0.1463  1.0920
  238MOL0     H32107   6.334   6.930   1.128 -1.5585  0.6707  1.6679
  238MOL0     H32108   6.208   6.664   1.083 -1.5202  0.5934  0.1478
  238MOL0     H32109   6.308   6.744   0.954  1.9232 -2.2692  1.5290
  238MOL0     H32110   6.166   6.949   0.997  1.1689 -0.3550  0.5413
  238MOL0     H32111   6.054   6.861   1.089 -1.7460 -1.9761 -0.2553
  238MOL0     H32112   7.149   6.813   1.650 -2.4674 -0.4607 -2.7924
  238MOL0     H32113   7.375   6.948   1.646 -0.2061 -1.3405 -0.6214
  238MOL0     H32114   7.390   7.443   1.659 -0.2255  2.3133  2.8553
  238MOL0     H32115   7.513   7.667   1.687  0.1506  0.2014 -2.8692
  238MOL0     H32116   9.151   8.727   1.936 -0.9998 -0.5459  0.4478
  238MOL0     H32117   9.391   8.666   1.952 -1.0378  0.7762  1.4702
  238MOL0     H32118   9.683   8.303   1.730  0.5337 -0.4714  0.5294
  238MOL0     H32119   9.911   8.262   1.661  0.1065 -0.6060  0.9901
  238MOL0     H32120  10.199   8.331   1.986 -2.5960  1.3999 -0.6369
  238MOL0     H32121  10.276   8.228   1.854 -2.0991 -0.0247 -1.4594
  238MOL0     H32122  10.231   8.516   1.812  1.1022  1.1174 -0.1940
  238MOL0     H32123  10.365   8.419   1.751 -0.4673 -1.3399 -0.3050
  238MOL0     H32124  10.335   8.519   2.041 -0.5430  0.8748 -0.3537
  238MOL0     H32125  10.426   8.597   1.911  0.2976 -0.9422 -1.2885
  238MOL0     H32126  10.491   8.309   1.983  0.4729 -0.0847  1.4984
  238MOL0     H32127  10.556   8.452   2.068 -3.9797  1.5560  1.2445
  238MOL0     H32128  10.746   8.449   1.678  0.2415  2.7325  0.6621
  238MOL0     H32129  10.053   8.490   1.998 -1.1971 -0.5313  2.1687
  238MOL0     H32130   9.831   8.577   2.029  2.4690 -1.8866  2.0562
  239MOL0     O32131   9.235   4.014   1.778 -0.1687 -0.3445 -0.4336
  239MOL0     C32132   9.271   3.903   1.807 -0.0235 -0.9353 -1.3178
  239MOL0     O32133   9.187   3.802   1.849  0.4538 -0.2244  0.9622
  239MOL0     C32134   9.048   3.829   1.856 -0.5930  0.3072 -0.2959
  239MOL0     C32135   8.954   3.744   1.808  0.0445 -0.7199 -0.8460
  239MOL0     C32136   8.816   3.782   1.816  0.4163  1.0382 -0.1253
  239MOL0     C32137   8.774   3.899   1.877 -0.0610  0.4557  0.2228
  239MOL0     O32138   8.639   3.928   1.884  0.2900  0.3625 -0.2345
  239MOL0     C32139   8.614   4.060   1.830 -0.6018 -0.2700  0.2574
  239MOL0     C32140   8.459   4.058   1.826 -0.2708 -0.8383  0.4176
  239MOL0     C32141   8.398   4.195   1.796  0.3049 -1.0838 -0.5365
  239MOL0     C32142   8.241   4.188   1.806  0.0853 -0.1847 -0.0153
  239MOL0     C32143   8.170   4.327   1.801  0.3348 -1.0614 -0.0304
  239MOL0     C32144   8.024   4.326   1.750  0.3582  0.0171 -0.0869
  239MOL0     C32145   7.979   4.463   1.693  0.6594  0.1671  0.3928
  239MOL0     C32146   7.831   4.441   1.654 -0.3266  0.7708  0.2924
  239MOL0     N32147   7.749   4.557   1.636  0.1481 -0.0220 -0.1775
  239MOL0     C32148   7.720   4.666   1.719 -0.4443  0.4822 -0.0106
  239MOL0     C32149   7.621   4.741   1.658 -1.0106 -0.0273 -0.7990
  239MOL0     C32150   7.557   4.863   1.722  0.6335 -0.8200 -0.0890
  239MOL0     C32151   7.417   4.830   1.771  0.3122  0.1855  0.4832
  239MOL0     C32152   7.404   4.695   1.859  0.0047 -1.2029 -0.1019
  239MOL0     C32153   7.272   4.689   1.938  0.0768  0.4375  0.1399
  239MOL0     O32154   7.280   4.590   2.041  0.6396  0.1407 -0.5758
  239MOL0     C32155   7.165   4.556   2.108  0.1083  0.9631 -0.6461
  239MOL0     C32156   7.175   4.526   2.248  0.3149  0.4061  0.3374
  239MOL0     C32157   7.058   4.511   2.324 -0.4344  0.1502 -0.1013
  239MOL0     C32158   7.073   4.450   2.468 -0.1645 -0.1254 -0.0544
  239MOL0     C32159   6.929   4.534   2.271 -0.8568  0.4782  0.2878
  239MOL0     C32160   6.804   4.532   2.350  0.2206 -0.3706  0.3606
  239MOL0     O32161   6.696   4.584   2.282 -0.1278  0.3188 -0.2348
  239MOL0     C32162   6.569   4.590   2.333  0.4582  0.4942  0.2989
  239MOL0     C32163   6.539   4.631   2.466 -0.8438  0.7024  0.7433
  239MOL0     C32164   6.411   4.645   2.504  0.8637  0.0367 -0.1532
  239MOL0     C32165   6.302   4.625   2.412 -0.6788  0.4071  0.2543
  239MOL0     O32166   6.174   4.627   2.445 -0.0332 -0.0093  0.0122
  239MOL0     C32167   6.113   4.756   2.484 -0.9401  0.5940  0.1029
  239MOL0     C32168   6.039   4.812   2.359 -0.2471  1.0058  1.2164
  239MOL0     C32169   5.952   4.934   2.382 -0.0652 -0.0069 -0.1378
  239MOL0     C32170   5.837   4.936   2.290  0.5702 -0.5871  0.3754
  239MOL0     C32171   5.751   5.058   2.286 -0.5821 -0.3322 -0.5270
  239MOL0     C32172   5.661   5.044   2.160 -0.0662 -0.4057 -0.4121
  239MOL0     C32173   5.565   5.167   2.155  0.1662 -0.8541 -0.7666
  239MOL0     C32174   5.439   5.144   2.082  0.4082  0.6032  1.4706
  239MOL0    Cl32175   5.462   5.081   1.921 -0.2239  0.4141 -0.0138
  239MOL0     C32176   6.335   4.584   2.282 -0.9947 -0.0800  0.3709
  239MOL0     C32177   6.466   4.565   2.241  0.4595  0.3169 -0.4444
  239MOL0     O32178   6.801   4.499   2.466 -0.3916  0.0791 -0.3067
  239MOL0     C32179   6.924   4.566   2.134 -0.3978  0.5217 -0.1311
  239MOL0     C32180   7.037   4.578   2.058 -0.3985  0.6927  0.1429
  239MOL0     N32181   7.588   4.665   1.547  0.1107 -0.1469 -0.3714
  239MOL0     N32182   7.677   4.576   1.525 -0.0309  0.9301  0.6092
  239MOL0     C32183   8.871   3.991   1.928 -1.4343  0.2344  0.7555
  239MOL0     C32184   9.002   3.945   1.930 -0.1742  0.3931  0.1494
  239MOL0     C32185   9.408   3.875   1.835 -0.3157 -0.6290  0.9051
  239MOL0     C32186   9.502   3.973   1.866 -0.5360  0.4321  0.0456
  239MOL0     C32187   9.638   3.950   1.888 -0.8536 -0.3427 -0.4427
  239MOL0     C32188   9.696   3.822   1.874  0.3688  0.0339 -0.3183
  239MOL0     O32189   9.826   3.780   1.871  0.4593  0.6131  0.2579
  239MOL0     C32190   9.922   3.877   1.903  1.3944  0.2178  0.0272
  239MOL0     C32191  10.049   3.813   1.937 -0.4900  0.1515  0.0599
  239MOL0     C32192  10.131   3.897   2.023  0.1661  0.8878  0.6763
  239MOL0     C32193  10.255   3.826   2.080  0.1433  0.4279 -0.1703
  239MOL0     C32194  10.346   3.781   1.974  0.2727  0.3412  0.3530
  239MOL0     C32195  10.415   3.756   1.877  0.0374 -0.6963 -0.1100
  239MOL0     C32196   9.608   3.727   1.842 -0.3740 -0.5291  0.7584
  239MOL0     C32197   9.471   3.745   1.817 -0.3856  0.5109 -0.0558
  239MOL0     H32198   8.977   3.648   1.763 -0.8765 -0.8531 -1.0563
  239MOL0     H32199   8.731   3.728   1.775 -0.3536  0.4099  2.1772
  239MOL0     H32200   8.654   4.128   1.906  3.3168  1.6627 -3.1832
  239MOL0     H32201   8.672   4.065   1.738  0.8060 -3.0211  0.8977
  239MOL0     H32202   8.425   3.980   1.758 -0.0229  0.0634 -0.7872
  239MOL0     H32203   8.430   4.030   1.927 -2.1279  0.4582  0.2898
  239MOL0     H32204   8.441   4.271   1.862 -0.4895 -1.1556  0.0743
  239MOL0     H32205   8.422   4.220   1.692 -0.2697 -1.3269 -0.7308
  239MOL0     H32206   8.197   4.121   1.731 -1.5237  0.2180  0.5180
  239MOL0     H32207   8.208   4.141   1.899  1.1849 -2.2618 -0.6150
  239MOL0     H32208   8.172   4.365   1.904 -0.6155  1.2927 -0.8196
  239MOL0     H32209   8.229   4.398   1.743 -2.2781 -0.1470 -1.7528
  239MOL0     H32210   7.998   4.250   1.676  0.8980 -1.1360  0.8872
  239MOL0     H32211   7.970   4.298   1.841 -1.0647 -2.7752 -1.6734
  239MOL0     H32212   7.987   4.536   1.773  1.0425  1.4300 -0.7607
  239MOL0     H32213   8.042   4.497   1.610 -0.6753  2.6438  0.3030
  239MOL0     H32214   7.781   4.386   1.735  0.9728  1.2147  1.4380
  239MOL0     H32215   7.841   4.381   1.563 -0.1864  1.9309 -0.4738
  239MOL0     H32216   7.781   4.694   1.804  2.0396  0.0169 -1.5196
  239MOL0     H32217   7.609   4.891   1.814  1.0197 -0.9277 -0.2692
  239MOL0     H32218   7.559   4.935   1.639 -3.6015 -1.3845 -0.8857
  239MOL0     H32219   7.346   4.820   1.689 -0.3546  1.8747  0.8195
  239MOL0     H32220   7.377   4.913   1.830  0.1241 -0.1456  0.8321
  239MOL0     H32221   7.480   4.700   1.938 -1.5355 -2.5199  1.5629
  239MOL0     H32222   7.419   4.601   1.804 -0.2285 -3.1571  2.9071
  239MOL0     H32223   7.192   4.679   1.865 -0.7239  2.3166  0.6786
  239MOL0     H32224   7.251   4.789   1.978  0.3850  0.8323 -0.6671
  239MOL0     H32225   7.269   4.516   2.302  0.6100 -0.7056 -0.3468
  239MOL0     H32226   7.003   4.368   2.486 -1.1018  0.5446 -0.5331
  239MOL0     H32227   7.173   4.414   2.491 -0.4996  0.6606  3.0061
  239MOL0     H32228   7.050   4.524   2.545 -1.5231 -1.5993  1.0154
  239MOL0     H32229   6.626   4.665   2.522  0.2025  2.0170 -1.5108
  239MOL0     H32230   6.390   4.679   2.605 -2.3932 -0.6274 -0.5034
  239MOL0     H32231   6.049   4.737   2.571  0.9483  0.1468  1.4539
  239MOL0     H32232   6.187   4.830   2.516 -1.0118  1.3443 -1.3983
  239MOL0     H32233   6.119   4.839   2.289 -1.7649 -0.9491 -1.4575
  239MOL0     H32234   5.983   4.737   2.303  0.7146 -0.7213  2.4711
  239MOL0     H32235   6.011   5.026   2.369 -0.0883  0.0845  0.3865
  239MOL0     H32236   5.906   4.934   2.481  0.6015  1.2887  0.1884
  239MOL0     H32237   5.881   4.924   2.191 -0.2461  0.7139 -0.1643
  239MOL0     H32238   5.765   4.857   2.316 -1.1702  0.5366 -0.8285
  239MOL0     H32239   5.825   5.138   2.278  0.2597 -0.8753  1.3877
  239MOL0     H32240   5.698   5.075   2.380 -0.9299 -1.1301 -0.5758
  239MOL0     H32241   5.719   5.047   2.068 -1.3501  3.1147 -1.2650
  239MOL0     H32242   5.605   4.950   2.168 -0.5396  0.0047  2.1028
  239MOL0     H32243   5.630   5.246   2.118 -1.9620  0.7571 -1.2064
  239MOL0     H32244   5.525   5.204   2.250  1.7456  1.0151 -0.7742
  239MOL0     H32245   5.379   5.234   2.065 -1.4132 -0.9753 -1.2731
  239MOL0     H32246   5.386   5.069   2.141  0.2597  0.2289  0.8677
  239MOL0     H32247   6.255   4.563   2.211  0.3614 -2.6982 -0.4927
  239MOL0     H32248   6.485   4.532   2.140  1.7759 -1.4242  0.3191
  239MOL0     H32249   6.824   4.577   2.093 -1.5684  1.5116  2.6962
  239MOL0     H32250   7.022   4.603   1.954  0.1501 -0.2574 -0.1698
  239MOL0     H32251   8.851   4.082   1.983  0.5141  0.0423  1.8870
  239MOL0     H32252   9.076   4.006   1.981  0.1555  1.2994 -1.3468
  239MOL0     H32253   9.472   4.078   1.866 -1.7265  0.1189  0.8496
  239MOL0     H32254   9.695   4.041   1.899 -0.0624 -0.7723 -0.8872
  239MOL0     H32255   9.933   3.940   1.814 -1.3279  0.8554  0.0743
  239MOL0     H32256   9.889   3.943   1.984  0.7006 -0.8667  0.6580
  239MOL0     H32257  10.096   3.789   1.841  1.3103 -0.4697  1.0486
  239MOL0     H32258  10.033   3.722   1.997  0.5372 -0.0237  0.0852
  239MOL0     H32259  10.074   3.934   2.108 -0.2266 -1.5942  1.5665
  239MOL0     H32260  10.177   3.983   1.972  1.7265 -0.0196  0.5102
  239MOL0     H32261  10.230   3.729   2.124  2.1085 -1.1674 -2.2986
  239MOL0     H32262  10.305   3.894   2.150  0.1257 -0.1326  0.3936
  239MOL0     H32263  10.465   3.741   1.783  3.3966  0.6754  1.2755
  239MOL0     H32264   9.648   3.626   1.844 -0.8259 -0.7047  0.9413
  239MOL0     H32265   9.414   3.662   1.778 -1.2326  0.4318  1.3050
  240MOL0     O32266  11.227   4.143   9.853  0.4737 -0.7434  0.6253
  240MOL0     C32267  11.262   4.032   9.887  0.1624  0.1692  0.1936
  240MOL0     O32268  11.183   3.927   9.910  0.2421 -0.0457  0.1755
  240MOL0     C32269  11.049   3.936   9.921 -0.2475 -0.7095 -0.0875
  240MOL0     C32270  10.977   3.816   9.916  0.0737  0.4616 -0.6328
  240MOL0     C32271  10.837   3.808   9.930  0.3953  0.0124  0.3329
  240MOL0     C32272  10.767   3.923   9.959 -0.3518 -0.0786 -0.2716
  240MOL0     O32273  10.633   3.897   9.966 -0.4689  0.0194 -0.1259
  240MOL0     C32274  10.535   4.006   9.949 -0.6963  0.2044  0.6374
  240MOL0     C32275  10.399   3.944   9.991 -0.3838 -0.3501  0.1908
  240MOL0     C32276  10.290   4.057   9.983  0.6767 -0.7869 -0.1754
  240MOL0     C32277  10.160   3.980  10.024 -0.2561 -0.4638 -0.4557
  240MOL0     C32278  10.039   4.064  10.034 -0.5632  0.2446  0.2262
  240MOL0     C32279  10.011   4.109   9.894  0.3180 -0.2789 -0.1330
  240MOL0     C32280   9.874   4.163   9.878  0.9724 -0.5019 -0.0617
  240MOL0     C32281   9.840   4.214   9.735 -0.2978  0.1165 -0.0254
  240MOL0     N32282   9.707   4.272   9.717 -0.9040 -0.0115  0.2266
  240MOL0     C32283   9.673   4.405   9.710 -0.4459 -0.8105  0.1526
  240MOL0     C32284   9.545   4.403   9.659  0.4059  0.5198  0.0021
  240MOL0     C32285   9.471   4.530   9.627  0.4753 -0.0024  0.3573
  240MOL0     C32286   9.443   4.553   9.483 -0.2948  0.2605  1.0342
  240MOL0     C32287   9.439   4.702   9.436  0.6275  0.1954  0.3668
  240MOL0     C32288   9.340   4.775   9.523 -0.8797  0.4390  0.4955
  240MOL0     O32289   9.211   4.710   9.523  0.1647 -0.2898  0.3222
  240MOL0     C32290   9.115   4.772   9.600  0.3029 -0.0694  0.1285
  240MOL0     C32291   8.983   4.746   9.565  0.2635  0.2614 -0.8472
  240MOL0     C32292   8.872   4.792   9.636 -0.1434 -0.3349  0.0624
  240MOL0     C32293   8.742   4.749   9.576 -0.1550  0.5481  0.5681
  240MOL0     C32294   8.897   4.877   9.750  0.0069  0.6063 -0.7676
  240MOL0     C32295   8.785   4.935   9.831  0.3972  0.0664 -0.1371
  240MOL0     O32296   8.811   5.033   9.925  0.0575 -0.6447 -0.7612
  240MOL0     C32297   8.714   5.125   9.980 -1.5434  0.1696 -0.0203
  240MOL0     C32298   8.740   5.167  10.117  0.2601 -0.1073  0.5438
  240MOL0     C32299   8.655   5.258  10.171 -0.1308 -0.0781 -0.1199
  240MOL0     C32300   8.556   5.322  10.104 -0.1695 -0.1650  0.3859
  240MOL0     O32301   8.481   5.407  10.171  0.5515 -0.6201  0.7318
  240MOL0     C32302   8.347   5.434  10.129  0.6705  0.2812  0.8993
  240MOL0     C32303   8.272   5.478  10.251 -0.0912  0.8210 -0.2578
  240MOL0     C32304   8.133   5.511  10.206  0.7674  0.4458  0.2659
  240MOL0     C32305   8.064   5.575  10.322 -0.2582 -0.5569 -0.3038
  240MOL0     C32306   8.029   5.465  10.425 -0.5303  0.0574 -0.6307
  240MOL0     C32307   7.877   5.449  10.436  0.2036  0.7371  0.0172
  240MOL0     C32308   7.822   5.570  10.505 -0.0876  0.2430  0.1448
  240MOL0     C32309   7.671   5.569  10.514 -0.2569 -0.4500 -0.0049
  240MOL0    Cl32310   7.628   5.435  10.627  0.3467  0.1050  0.1958
  240MOL0     C32311   8.530   5.288   9.965 -0.0964  0.1868 -0.4775
  240MOL0     C32312   8.612   5.182   9.907  1.1266 -0.4824 -0.6398
  240MOL0     O32313   8.668   4.896   9.814 -0.3661  0.0968  0.3882
  240MOL0     C32314   9.020   4.911   9.787 -0.5706 -0.2934 -0.4744
  240MOL0     C32315   9.132   4.853   9.717  0.2988  0.6356  0.8495
  240MOL0     N32316   9.500   4.272   9.647  0.3634  0.6828 -0.0394
  240MOL0     N32317   9.596   4.195   9.691  0.5982  0.3538  0.5334
  240MOL0     C32318  10.835   4.049   9.972  0.2396  0.1364  0.6012
  240MOL0     C32319  10.976   4.052   9.954  0.5729 -0.1482  0.1729
  240MOL0     C32320  11.403   4.005   9.912 -0.2623  1.1328  0.5211
  240MOL0     C32321  11.449   3.903   9.992 -0.4702  0.6909  0.8477
  240MOL0     C32322  11.588   3.887  10.013  0.3802 -1.1099 -0.8394
  240MOL0     C32323  11.676   3.962   9.933  0.0735 -0.6234 -1.1985
  240MOL0     O32324  11.811   3.935   9.966 -0.2678 -0.1414 -0.4530
  240MOL0     C32325  11.914   3.979   9.874  0.4972  0.0307 -0.6218
  240MOL0     C32326  11.918   3.890   9.745 -0.8032  0.7253  0.1890
  240MOL0     C32327  12.006   3.939   9.633 -0.1220  0.5993  0.0182
  240MOL0     C32328  11.977   4.077   9.582 -0.6972 -0.3538 -0.5700
  240MOL0     C32329  12.050   4.099   9.458 -0.4462  0.2955 -0.2813
  240MOL0     C32330  12.107   4.117   9.356 -0.4343 -0.1571 -0.1613
  240MOL0     C32331  11.635   4.064   9.855  1.0329  0.4177 -0.4366
  240MOL0     C32332  11.497   4.085   9.831 -0.9158  0.1876  0.7535
  240MOL0     H32333  11.028   3.721   9.908  1.0781  0.5777  2.7802
  240MOL0     H32334  10.787   3.714   9.911 -0.2767  0.4942 -0.3160
  240MOL0     H32335  10.572   4.084  10.016  4.3383 -1.8209  0.6280
  240MOL0     H32336  10.541   4.043   9.846 -1.4723  2.3756  1.3159
  240MOL0     H32337  10.373   3.858   9.929  0.4812  0.2063 -1.0071
  240MOL0     H32338  10.404   3.917  10.097  3.5685 -1.5428 -0.1360
  240MOL0     H32339  10.320   4.136  10.052  1.7285 -0.5192 -0.9088
  240MOL0     H32340  10.271   4.094   9.882 -1.0063 -2.6814 -0.6176
  240MOL0     H32341  10.143   3.896   9.955  0.6944 -0.5519 -0.5972
  240MOL0     H32342  10.173   3.929  10.120 -3.7477 -0.7848 -0.0298
  240MOL0     H32343   9.955   4.009  10.078 -0.2684 -0.7459 -0.4217
  240MOL0     H32344  10.061   4.157  10.086  3.0074  0.4521 -1.3606
  240MOL0     H32345  10.075   4.191   9.861 -1.6414  1.2087 -0.4752
  240MOL0     H32346  10.020   4.025   9.825 -0.6393  0.5658 -1.3274
  240MOL0     H32347   9.813   4.074   9.898  3.0126 -1.7650  0.8375
  240MOL0     H32348   9.854   4.241   9.951  0.8588  1.8167 -2.4199
  240MOL0     H32349   9.834   4.126   9.670  0.7890 -1.1813  1.5422
  240MOL0     H32350   9.920   4.276   9.693  0.6142 -0.5502  0.6718
  240MOL0     H32351   9.738   4.487   9.736 -0.3031 -1.1357  0.8312
  240MOL0     H32352   9.377   4.533   9.683  1.4560 -0.2593  2.0832
  240MOL0     H32353   9.535   4.614   9.656  0.3435 -0.2111  1.2957
  240MOL0     H32354   9.351   4.501   9.457 -0.2665 -0.8872  2.9967
  240MOL0     H32355   9.518   4.492   9.433  2.5930  0.9569  4.0834
  240MOL0     H32356   9.406   4.701   9.332  0.4009  0.1019  0.4389
  240MOL0     H32357   9.537   4.749   9.451  0.6468  0.0891  0.5827
  240MOL0     H32358   9.334   4.882   9.502  1.5634  0.4350 -0.4768
  240MOL0     H32359   9.381   4.771   9.624 -1.6768 -2.3899  0.7932
  240MOL0     H32360   8.958   4.694   9.472  0.0038 -0.8195 -0.1906
  240MOL0     H32361   8.659   4.733   9.644  0.8044 -2.7009  1.1202
  240MOL0     H32362   8.711   4.826   9.504  3.1117  2.0126  0.5325
  240MOL0     H32363   8.746   4.649   9.532 -1.4077  0.2540  1.0885
  240MOL0     H32364   8.816   5.114  10.174  1.2959  0.0681 -0.6215
  240MOL0     H32365   8.673   5.290  10.274  0.6285 -1.3674  0.1655
  240MOL0     H32366   8.332   5.503  10.045 -1.8399 -1.3090 -0.0905
  240MOL0     H32367   8.305   5.337  10.100  1.8745 -0.0680  0.2372
  240MOL0     H32368   8.275   5.408  10.335  1.0357  1.6681  0.4376
  240MOL0     H32369   8.315   5.568  10.296 -0.2520  0.4251  0.6957
  240MOL0     H32370   8.069   5.429  10.174 -0.2171  0.5313  1.8998
  240MOL0     H32371   8.136   5.584  10.125  0.8110 -1.0675 -1.1497
  240MOL0     H32372   8.123   5.653  10.370 -1.9700  0.4577  0.2364
  240MOL0     H32373   7.974   5.616  10.275  0.5316  0.0465 -1.3403
  240MOL0     H32374   8.068   5.479  10.526 -0.4433  0.4943 -0.7200
  240MOL0     H32375   8.057   5.367  10.386 -1.3486 -0.0756 -0.9058
  240MOL0     H32376   7.835   5.438  10.336  0.1485  3.4747 -0.3310
  240MOL0     H32377   7.850   5.359  10.492  1.9360  0.6948  0.8441
  240MOL0     H32378   7.858   5.656  10.447  0.1048  0.7271  0.9640
  240MOL0     H32379   7.867   5.583  10.604  0.5342 -2.0762  0.2324
  240MOL0     H32380   7.626   5.558  10.415  1.0639  3.5850 -1.2319
  240MOL0     H32381   7.634   5.662  10.557 -0.8671 -0.5083 -0.3920
  240MOL0     H32382   8.450   5.327   9.902  2.2311  1.8177 -2.6441
  240MOL0     H32383   8.601   5.157   9.802 -1.0711  2.1855 -1.1723
  240MOL0     H32384   9.033   4.974   9.874 -0.6900  2.7237 -2.5084
  240MOL0     H32385   9.232   4.879   9.751  1.3569 -3.2545  1.2377
  240MOL0     H32386  10.775   4.137   9.990 -2.0522 -1.1393 -0.3641
  240MOL0     H32387  11.025   4.148   9.969  0.9931 -0.4331  0.6562
  240MOL0     H32388  11.374   3.838  10.036 -2.5984  1.7105 -1.0334
  240MOL0     H32389  11.631   3.825  10.092  3.3348  0.6031 -0.9398
  240MOL0     H32390  11.900   4.081   9.836  1.9641  0.1883 -0.7840
  240MOL0     H32391  12.008   3.969   9.927 -2.0961 -1.2174  4.3695
  240MOL0     H32392  11.816   3.860   9.720 -1.0374  0.4953  1.3719
  240MOL0     H32393  11.965   3.795   9.771 -0.9670 -0.1059 -2.3005
  240MOL0     H32394  12.003   3.869   9.549 -0.7047  0.1538  0.3957
  240MOL0     H32395  12.112   3.940   9.660  0.0254  0.4387 -0.5376
  240MOL0     H32396  12.015   4.152   9.653 -0.2266  2.2400 -3.3707
  240MOL0     H32397  11.870   4.090   9.562 -1.0464  0.0064  1.3108
  240MOL0     H32398  12.153   4.126   9.260 -0.9307  0.3265 -0.3596
  240MOL0     H32399  11.696   4.139   9.805 -1.3487  1.8723 -1.3194
  240MOL0     H32400  11.457   4.166   9.770 -1.9300 -1.0076 -0.2225
  241MOL0     O32401   6.259   0.875   4.791  0.5705 -0.3150  0.1082
  241MOL0     C32402   6.281   0.808   4.885  0.0573 -0.1315 -1.0460
  241MOL0     O32403   6.187   0.772   4.982  0.4176  0.3852  0.2220
  241MOL0     C32404   6.050   0.793   4.963  0.1243 -0.4020  0.2665
  241MOL0     C32405   5.973   0.776   4.849  0.8293 -0.3922 -0.3338
  241MOL0     C32406   5.838   0.813   4.854  0.2548  0.4999 -0.2858
  241MOL0     C32407   5.774   0.867   4.966 -0.4708 -0.2708  0.1410
  241MOL0     O32408   5.642   0.909   4.970 -0.0314 -1.0621 -0.2399
  241MOL0     C32409   5.621   1.046   5.001  0.6404  0.9858  0.4350
  241MOL0     C32410   5.465   1.085   4.976 -0.2691  0.1806 -0.0833
  241MOL0     C32411   5.388   1.024   5.101 -0.5738 -0.3924  0.3141
  241MOL0     C32412   5.245   1.075   5.069 -0.0956  0.2996 -0.1680
  241MOL0     C32413   5.132   1.019   5.153 -0.3377  0.1145 -0.1610
  241MOL0     C32414   4.999   1.077   5.098  0.4445 -0.2354 -0.1977
  241MOL0     C32415   4.870   1.042   5.175  0.4800  0.1790 -0.8053
  241MOL0     C32416   4.747   1.114   5.117  0.6923  0.1364 -0.0023
  241MOL0     N32417   4.634   1.067   5.194  0.2891  0.4773 -0.1884
  241MOL0     C32418   4.583   1.140   5.302  0.6768  0.6407 -0.3729
  241MOL0     C32419   4.461   1.071   5.334 -0.1679  0.3851  0.6019
  241MOL0     C32420   4.374   1.130   5.443  0.0429 -0.3047 -0.6927
  241MOL0     C32421   4.236   1.069   5.473  0.3379  0.6768 -0.4550
  241MOL0     C32422   4.130   1.058   5.358  0.1457 -0.5108 -0.0044
  241MOL0     C32423   4.067   1.193   5.319  0.1737 -0.0578  0.4723
  241MOL0     O32424   4.009   1.250   5.437  0.4106  0.1962  0.3522
  241MOL0     C32425   3.879   1.221   5.478 -0.0505  0.0830 -0.1373
  241MOL0     C32426   3.792   1.135   5.410  0.2700  0.4076 -0.3524
  241MOL0     C32427   3.660   1.093   5.466 -1.4622 -0.4093 -0.0657
  241MOL0     C32428   3.584   0.997   5.372  0.0045 -0.2661 -0.2954
  241MOL0     C32429   3.617   1.154   5.585 -0.0913  0.2580 -0.2805
  241MOL0     C32430   3.472   1.142   5.637 -0.2581 -0.1299  0.7385
  241MOL0     O32431   3.392   1.062   5.559 -0.1471  0.2223 -0.6495
  241MOL0     C32432   3.267   1.023   5.601 -0.3180 -0.5479 -0.1347
  241MOL0     C32433   3.164   1.045   5.511  0.4948 -0.5996  0.2711
  241MOL0     C32434   3.032   1.001   5.539 -0.4423 -0.0845 -0.0854
  241MOL0     C32435   3.003   0.943   5.661  0.9379  0.8734 -0.1872
  241MOL0     O32436   2.876   0.904   5.691 -0.5315 -0.2601 -0.2525
  241MOL0     C32437   2.851   0.781   5.756 -0.5788 -0.9741 -0.5232
  241MOL0     C32438   2.699   0.798   5.777  0.1170 -0.1286  0.4301
  241MOL0     C32439   2.619   0.756   5.648 -0.3589 -0.3022 -0.6505
  241MOL0     C32440   2.477   0.827   5.646  0.0772  0.2967  0.3642
  241MOL0     C32441   2.383   0.742   5.736 -0.1251  0.0207 -0.6520
  241MOL0     C32442   2.231   0.765   5.698 -0.0778 -0.7230  0.4223
  241MOL0     C32443   2.123   0.728   5.806 -0.1612  0.0654 -0.0452
  241MOL0     C32444   2.090   0.583   5.794 -0.1666  0.0128 -0.3197
  241MOL0    Cl32445   2.216   0.495   5.868 -0.1310 -0.1555 -0.1253
  241MOL0     C32446   3.111   0.916   5.742  1.2260  0.2343 -0.3358
  241MOL0     C32447   3.242   0.947   5.715 -0.0695 -0.4613 -0.0911
  241MOL0     O32448   3.440   1.191   5.746 -0.6272  0.4768 -0.2602
  241MOL0     C32449   3.702   1.247   5.656  0.0314 -0.7159  0.1899
  241MOL0     C32450   3.829   1.279   5.604 -0.1797 -0.5240 -0.3373
  241MOL0     N32451   4.445   0.972   5.245 -0.0804  0.2223  0.0381
  241MOL0     N32452   4.540   0.971   5.161 -0.5056 -0.3012 -0.0604
  241MOL0     C32453   5.854   0.881   5.083  0.3158 -0.4422 -0.4498
  241MOL0     C32454   5.991   0.846   5.081 -0.6243  0.0295 -0.5568
  241MOL0     C32455   6.413   0.737   4.905  0.0870  0.2740 -0.6639
  241MOL0     C32456   6.514   0.737   4.802  0.1249  0.2867 -0.5598
  241MOL0     C32457   6.631   0.664   4.820 -0.6755  0.0799  0.2978
  241MOL0     C32458   6.659   0.607   4.942  0.2960 -0.1123  0.0446
  241MOL0     O32459   6.786   0.552   4.973  0.1225  0.0215 -0.1664
  241MOL0     C32460   6.883   0.520   4.865 -0.0554 -0.3336  0.6826
  241MOL0     C32461   7.006   0.462   4.940  0.5181  0.0871 -0.1486
  241MOL0     C32462   7.085   0.383   4.833  0.0091  0.4940 -0.2649
  241MOL0     C32463   7.223   0.335   4.895  0.0511  0.8402  0.0838
  241MOL0     C32464   7.314   0.450   4.896 -0.1791  0.9452  0.0932
  241MOL0     C32465   7.394   0.543   4.909 -0.2295  0.2277  0.3110
  241MOL0     C32466   6.564   0.603   5.048 -0.2207 -0.0843  0.3853
  241MOL0     C32467   6.442   0.670   5.025 -0.2888  0.8186 -0.7395
  241MOL0     H32468   6.016   0.736   4.757  2.5326  0.0429  0.2417
  241MOL0     H32469   5.775   0.804   4.766  1.0291 -2.4638 -0.6621
  241MOL0     H32470   5.651   1.072   5.103 -2.0738 -2.1834  2.2498
  241MOL0     H32471   5.671   1.109   4.927  0.3902  1.9900  1.1011
  241MOL0     H32472   5.464   1.194   4.971 -0.6329  0.1170 -3.2924
  241MOL0     H32473   5.414   1.056   4.884 -0.0022  0.4316 -0.3108
  241MOL0     H32474   5.391   0.914   5.102  1.5933 -0.4216 -1.2797
  241MOL0     H32475   5.418   1.063   5.198 -0.7504  1.4288 -0.3323
  241MOL0     H32476   5.237   1.184   5.080 -1.9286  0.3866 -1.7306
  241MOL0     H32477   5.221   1.046   4.966 -0.3674 -0.6265  0.1422
  241MOL0     H32478   5.128   0.910   5.141  3.6356 -0.3689  1.3095
  241MOL0     H32479   5.140   1.043   5.259  2.4402  1.3621 -0.5577
  241MOL0     H32480   4.997   1.185   5.083  1.2735 -0.3568 -1.3257
  241MOL0     H32481   4.994   1.035   4.997 -0.5022 -0.6840  0.0203
  241MOL0     H32482   4.845   0.936   5.171 -1.6415  0.6305 -0.3454
  241MOL0     H32483   4.887   1.075   5.278  2.2845  2.8220 -1.8290
  241MOL0     H32484   4.733   1.094   5.011 -1.1297  2.4647 -0.2883
  241MOL0     H32485   4.758   1.222   5.131 -1.6983  0.3119  1.0469
  241MOL0     H32486   4.625   1.222   5.359 -1.0161 -0.5458  2.8170
  241MOL0     H32487   4.425   1.129   5.540  1.5215 -0.8940 -1.4636
  241MOL0     H32488   4.382   1.235   5.413  0.6187  0.2612  1.2758
  241MOL0     H32489   4.186   1.112   5.560  1.7112  0.9850  0.1977
  241MOL0     H32490   4.250   0.963   5.497  0.7186  0.4670 -1.5156
  241MOL0     H32491   4.062   0.979   5.388 -1.0764  0.5008 -0.0254
  241MOL0     H32492   4.186   1.018   5.273 -0.7033 -0.9067 -0.3811
  241MOL0     H32493   3.999   1.180   5.234  0.4476  1.4004  0.0071
  241MOL0     H32494   4.143   1.263   5.284 -0.6500  0.6523  0.0440
  241MOL0     H32495   3.837   1.090   5.322 -1.5791 -0.0570 -1.0989
  241MOL0     H32496   3.661   0.974   5.298 -0.4210  1.9302 -1.5084
  241MOL0     H32497   3.550   0.913   5.434  0.5884 -0.6376 -0.4689
  241MOL0     H32498   3.496   1.048   5.331 -0.8647  1.0981  2.9179
  241MOL0     H32499   3.193   1.100   5.422  3.3693  0.8348  1.9459
  241MOL0     H32500   2.959   1.022   5.461  2.0774 -0.9398 -2.9023
  241MOL0     H32501   2.864   0.692   5.694  1.3429 -1.5915  0.6762
  241MOL0     H32502   2.894   0.766   5.856 -0.8984  0.8447 -0.0670
  241MOL0     H32503   2.667   0.739   5.864 -1.0750 -0.5888 -0.3057
  241MOL0     H32504   2.673   0.897   5.815  0.1452 -0.0641  0.2793
  241MOL0     H32505   2.622   0.650   5.621  0.5476 -0.3999 -0.1759
  241MOL0     H32506   2.671   0.793   5.559  0.5856  0.0733  0.0521
  241MOL0     H32507   2.483   0.932   5.678  1.5294  0.0321  1.0210
  241MOL0     H32508   2.428   0.816   5.549  0.1303  1.7194  0.1564
  241MOL0     H32509   2.404   0.772   5.839 -0.7311 -1.3620 -0.1106
  241MOL0     H32510   2.413   0.638   5.719 -0.4401 -0.2231  0.2555
  241MOL0     H32511   2.224   0.873   5.679 -1.3388 -1.3581 -3.3610
  241MOL0     H32512   2.210   0.706   5.609  0.4058 -0.9632  0.4661
  241MOL0     H32513   2.032   0.784   5.784 -0.0441 -0.3871 -1.8250
  241MOL0     H32514   2.159   0.748   5.907 -1.8642  3.8078 -0.0235
  241MOL0     H32515   2.075   0.541   5.694 -3.2925  2.9301 -1.2536
  241MOL0     H32516   1.999   0.555   5.850  2.0279 -3.6604  1.8606
  241MOL0     H32517   3.092   0.862   5.835 -0.3105  1.0298 -0.1468
  241MOL0     H32518   3.315   0.923   5.791  2.2836  1.6387 -1.5142
  241MOL0     H32519   3.669   1.293   5.748 -3.3011  2.7530 -2.3925
  241MOL0     H32520   3.907   1.331   5.658  0.1827 -2.7869  1.4780
  241MOL0     H32521   5.811   0.922   5.173  2.4829  0.2935  0.3256
  241MOL0     H32522   6.058   0.864   5.164 -0.1083 -0.7899 -0.7909
  241MOL0     H32523   6.492   0.803   4.719 -0.9806  0.9050  0.1976
  241MOL0     H32524   6.711   0.673   4.747 -2.9544  1.7230 -2.1530
  241MOL0     H32525   6.841   0.446   4.797 -1.6997 -0.1670  1.4810
  241MOL0     H32526   6.908   0.607   4.803  0.1327 -1.1622 -0.4383
  241MOL0     H32527   6.987   0.392   5.021  1.9292  2.4478  2.4165
  241MOL0     H32528   7.069   0.542   4.980  0.2456  0.1210  0.2146
  241MOL0     H32529   7.107   0.444   4.745  0.2860 -2.4629 -2.3941
  241MOL0     H32530   7.027   0.294   4.809  0.5167  0.3215 -0.8841
  241MOL0     H32531   7.262   0.251   4.838 -2.8612  0.0652 -0.9859
  241MOL0     H32532   7.213   0.309   5.001  1.2586  0.0968  0.0241
  241MOL0     H32533   7.479   0.608   4.905  1.4827 -1.9804 -2.8830
  241MOL0     H32534   6.613   0.560   5.135 -0.5466 -0.5844  0.3202
  241MOL0     H32535   6.369   0.665   5.105 -0.1363 -2.4928 -0.6627
  242MOL0     O32536   7.904   9.294   1.129  1.2663  0.5004  0.2996
  242MOL0     C32537   7.986   9.375   1.101 -0.4743  0.1324  0.0504
  242MOL0     O32538   7.970   9.511   1.099 -0.6145  0.0721 -0.2908
  242MOL0     C32539   7.850   9.559   1.154  0.6811 -0.2530 -1.1024
  242MOL0     C32540   7.841   9.675   1.245  1.3864 -0.0042  0.1164
  242MOL0     C32541   7.711   9.709   1.293  0.0520 -0.0158 -0.1649
  242MOL0     C32542   7.592   9.656   1.240 -0.3453 -0.6622  0.0517
  242MOL0     O32543   7.471   9.696   1.297  0.4427 -0.1587  0.5125
  242MOL0     C32544   7.362   9.690   1.197 -0.2582  0.3182 -0.2990
  242MOL0     C32545   7.242   9.770   1.250  0.0816  0.5641 -0.4955
  242MOL0     C32546   7.117   9.745   1.165 -0.1590 -0.0579 -0.4840
  242MOL0     C32547   7.005   9.845   1.212 -0.3441  0.1876  0.1657
  242MOL0     C32548   6.885   9.849   1.123 -0.4281  0.4661 -0.1248
  242MOL0     C32549   6.750   9.802   1.180  0.0002 -0.3373 -0.2401
  242MOL0     C32550   6.705   9.860   1.310 -0.3169 -0.6759  0.2909
  242MOL0     C32551   6.734  10.015   1.321 -0.6783  0.3025 -0.3985
  242MOL0     N32552   6.658  10.087   1.209 -0.6812 -0.2532 -0.5721
  242MOL0     C32553   6.527  10.065   1.163  0.0537 -0.1438 -0.7124
  242MOL0     C32554   6.523  10.137   1.044  0.2878  1.0217 -0.8491
  242MOL0     C32555   6.410  10.115   0.952 -0.1746 -0.4168 -0.0281
  242MOL0     C32556   6.329  10.239   0.912 -0.1095  0.4944 -0.2092
  242MOL0     C32557   6.213  10.212   0.813  0.1326 -0.2645  0.9320
  242MOL0     C32558   6.099  10.141   0.879  0.5088  0.0782 -0.0698
  242MOL0     O32559   6.036  10.228   0.971  0.1764 -0.1325 -0.5698
  242MOL0     C32560   5.900  10.202   0.995 -0.3160  0.5822 -0.2322
  242MOL0     C32561   5.833  10.083   0.971  0.1139  0.6375  0.1618
  242MOL0     C32562   5.699  10.063   1.021 -0.2180 -0.7790  1.0308
  242MOL0     C32563   5.641   9.931   0.985  0.4147 -0.1184 -0.0792
  242MOL0     C32564   5.629  10.175   1.073 -0.5363 -0.8036  0.2076
  242MOL0     C32565   5.485  10.178   1.094 -0.1022  0.6837  1.2044
  242MOL0     O32566   5.430  10.295   1.140 -0.1190  0.1631  0.7856
  242MOL0     C32567   5.294  10.305   1.120 -1.0602  0.2073  0.7280
  242MOL0     C32568   5.250  10.397   1.026 -0.4789 -0.4442 -0.3132
  242MOL0     C32569   5.116  10.430   1.028 -0.1927 -0.6563 -0.6149
  242MOL0     C32570   5.017  10.362   1.106 -0.5966  0.1169 -0.4030
  242MOL0     O32571   4.891  10.403   1.085  0.1286 -0.2069  0.0648
  242MOL0     C32572   4.785  10.313   1.120 -0.4223  0.0003  0.1208
  242MOL0     C32573   4.653  10.345   1.053 -0.4807 -0.6878 -0.5295
  242MOL0     C32574   4.552  10.234   1.071 -0.5181  0.3323  0.2385
  242MOL0     C32575   4.467  10.208   0.950 -0.3167  0.1296 -0.5431
  242MOL0     C32576   4.375  10.317   0.917  0.3601 -0.3957 -0.0667
  242MOL0     C32577   4.311  10.306   0.784  0.0601 -0.1800  0.5481
  242MOL0     C32578   4.238  10.442   0.765 -0.3360 -0.4628  0.3537
  242MOL0     C32579   4.146  10.439   0.643 -0.2972 -0.2515  0.2135
  242MOL0    Cl32580   4.007  10.327   0.662  0.0375 -0.5142 -0.1400
  242MOL0     C32581   5.063  10.260   1.191  0.1901 -0.3451  0.0596
  242MOL0     C32582   5.201  10.229   1.199 -0.3036 -0.1679  0.2142
  242MOL0     O32583   5.413  10.080   1.061 -0.4116  0.3648 -0.2105
  242MOL0     C32584   5.700  10.298   1.096 -0.5354  0.9091  0.3193
  242MOL0     C32585   5.834  10.304   1.055  0.7310 -0.2067  0.4075
  242MOL0     N32586   6.632  10.218   1.033 -0.2818 -0.4963  0.0520
  242MOL0     N32587   6.706  10.186   1.128 -0.5677 -0.2014 -0.0829
  242MOL0     C32588   7.600   9.562   1.138  0.3317  0.0513  0.3903
  242MOL0     C32589   7.723   9.511   1.101 -0.4440 -0.3459 -0.0407
  242MOL0     C32590   8.119   9.322   1.050  0.7330 -0.0318  0.4591
  242MOL0     C32591   8.228   9.402   1.009 -0.1166 -0.9003  0.4493
  242MOL0     C32592   8.352   9.347   0.971 -0.0807 -0.8335 -0.0551
  242MOL0     C32593   8.362   9.211   0.946  0.4794  0.3460  0.6699
  242MOL0     O32594   8.462   9.159   0.875  0.6058 -0.0865 -0.0892
  242MOL0     C32595   8.480   9.022   0.884  0.2702 -0.1115  0.7540
  242MOL0     C32596   8.623   8.980   0.854 -0.5552  0.9502  0.1119
  242MOL0     C32597   8.714   9.037   0.963 -1.3845  0.6955 -0.0345
  242MOL0     C32598   8.844   8.946   0.983  0.1113  0.0229  0.1099
  242MOL0     C32599   8.815   8.802   1.021  0.5399 -0.3966  0.0464
  242MOL0     C32600   8.794   8.681   1.014  0.5442  0.0042  0.1678
  242MOL0     C32601   8.250   9.134   0.973 -0.3602 -0.5729 -0.1592
  242MOL0     C32602   8.131   9.188   1.033 -1.1564 -0.0258  0.5799
  242MOL0     H32603   7.940   9.705   1.278  2.7910 -3.1287 -0.7813
  242MOL0     H32604   7.702   9.780   1.374 -3.1927  0.2029 -0.6190
  242MOL0     H32605   7.392   9.742   1.106 -0.6232  0.0786 -0.5613
  242MOL0     H32606   7.343   9.584   1.173  0.3792 -0.0503  0.7421
  242MOL0     H32607   7.219   9.730   1.349  1.2826 -0.0834 -0.4518
  242MOL0     H32608   7.265   9.874   1.273  0.6027  0.3982 -0.2257
  242MOL0     H32609   7.143   9.763   1.060 -1.3234  1.1533 -0.5885
  242MOL0     H32610   7.087   9.640   1.175 -0.1249 -0.1882 -1.5367
  242MOL0     H32611   6.975   9.805   1.309 -1.1214  2.7075  1.0530
  242MOL0     H32612   7.043   9.947   1.221  0.6904 -0.1866  0.1605
  242MOL0     H32613   6.877   9.951   1.084 -0.3358  1.4985  2.4062
  242MOL0     H32614   6.908   9.788   1.035 -2.7080 -1.5791  0.5968
  242MOL0     H32615   6.677   9.817   1.101  1.1027  0.0390 -1.2133
  242MOL0     H32616   6.760   9.694   1.197 -1.9338 -0.5536 -0.3299
  242MOL0     H32617   6.600   9.836   1.325  0.2727 -2.7878  1.5151
  242MOL0     H32618   6.759   9.814   1.393 -6.4987 -2.0087  4.1835
  242MOL0     H32619   6.839  10.045   1.332 -0.7138  0.2675  0.0381
  242MOL0     H32620   6.694  10.043   1.419 -1.1571 -2.6392  0.3567
  242MOL0     H32621   6.455   9.988   1.189 -2.0164  1.7102 -0.6082
  242MOL0     H32622   6.452  10.078   0.858  0.4504  1.6539 -0.6171
  242MOL0     H32623   6.337  10.040   0.983 -3.4871  1.5235 -2.4730
  242MOL0     H32624   6.396  10.305   0.856  1.4435 -0.7989  0.0591
  242MOL0     H32625   6.304  10.295   1.002  0.8751 -1.2372  1.2109
  242MOL0     H32626   6.233  10.139   0.734 -2.4945  2.5391 -2.6537
  242MOL0     H32627   6.187  10.303   0.760 -0.7711 -0.7718  0.4735
  242MOL0     H32628   6.139  10.059   0.939 -2.7283  0.8946  3.6602
  242MOL0     H32629   6.030  10.106   0.801  1.0119 -0.2775 -0.3595
  242MOL0     H32630   5.880   9.994   0.930  2.3212  1.3194  1.0572
  242MOL0     H32631   5.724   9.878   0.936  2.1652  1.2937  1.2094
  242MOL0     H32632   5.594   9.878   1.068 -1.5946  0.5979 -0.7087
  242MOL0     H32633   5.564   9.943   0.908 -0.2268 -0.7291  0.4639
  242MOL0     H32634   5.332  10.452   0.981  0.8525 -2.1994 -0.1565
  242MOL0     H32635   5.094  10.517   0.966  1.0954  0.0422 -0.1342
  242MOL0     H32636   4.817  10.211   1.096  2.1559  0.8073 -0.0986
  242MOL0     H32637   4.768  10.300   1.227  0.5569 -0.6679  0.2029
  242MOL0     H32638   4.613  10.433   1.105  1.2785  0.3786 -0.8842
  242MOL0     H32639   4.660  10.369   0.946 -2.2430  1.9659 -0.1726
  242MOL0     H32640   4.497  10.274   1.157 -0.4300  2.3769 -0.5911
  242MOL0     H32641   4.597  10.138   1.098  0.0167  0.8498  1.2661
  242MOL0     H32642   4.534  10.182   0.868 -0.5882 -1.5461 -0.2710
  242MOL0     H32643   4.403  10.121   0.968 -1.9738  1.1994 -0.9428
  242MOL0     H32644   4.427  10.413   0.925  0.8860 -0.7461  0.8931
  242MOL0     H32645   4.290  10.309   0.986  0.6952 -2.5031  0.1520
  242MOL0     H32646   4.386  10.287   0.706 -0.2960  0.3200  0.0777
  242MOL0     H32647   4.245  10.218   0.778 -2.2054  1.3907  1.1283
  242MOL0     H32648   4.304  10.527   0.753 -2.2558  1.0037 -0.4428
  242MOL0     H32649   4.172  10.447   0.852 -2.1974 -0.9238 -0.9381
  242MOL0     H32650   4.203  10.409   0.554 -1.1437 -0.0789 -0.4078
  242MOL0     H32651   4.115  10.540   0.615  3.4493  0.5714 -1.5986
  242MOL0     H32652   5.005  10.202   1.262 -0.3439 -0.7085 -0.6601
  242MOL0     H32653   5.220  10.153   1.275 -2.0240  0.5355  1.4138
  242MOL0     H32654   5.653  10.389   1.132  1.2557  1.3948  1.5105
  242MOL0     H32655   5.878  10.400   1.080 -2.1825  1.4078 -0.1503
  242MOL0     H32656   7.514   9.517   1.091 -0.1735  0.4755  0.8895
  242MOL0     H32657   7.721   9.437   1.022  5.6589 -2.6996  1.4386
  242MOL0     H32658   8.226   9.510   1.006 -1.6561 -0.9040  0.1453
  242MOL0     H32659   8.435   9.414   0.952 -0.5715 -0.2461 -0.1445
  242MOL0     H32660   8.453   8.986   0.983 -2.3211 -0.6427 -0.0628
  242MOL0     H32661   8.415   8.976   0.809  2.1310 -0.7482 -0.5626
  242MOL0     H32662   8.659   9.001   0.753  1.9037 -3.7467 -0.2344
  242MOL0     H32663   8.615   8.871   0.860  0.2945  0.8235 -0.7535
  242MOL0     H32664   8.665   9.035   1.061 -0.6128 -0.5252  0.3649
  242MOL0     H32665   8.744   9.137   0.932  0.0031  0.0518 -0.8884
  242MOL0     H32666   8.908   8.991   1.060  1.8668  0.4040 -1.4930
  242MOL0     H32667   8.906   8.963   0.895 -0.7225  0.3856 -0.4182
  242MOL0     H32668   8.773   8.577   1.001  0.2707  0.3140 -2.4436
  242MOL0     H32669   8.258   9.026   0.960 -0.2953 -0.5533 -0.2863
  242MOL0     H32670   8.060   9.109   1.057 -1.7590  0.5682  0.7703
  243MOL0     O32671   4.559   2.294   1.912  0.2624 -0.0167  0.5825
  243MOL0     C32672   4.620   2.309   2.016 -0.9882  0.3994  0.6553
  243MOL0     O32673   4.565   2.310   2.136  0.2674 -0.6788 -0.5122
  243MOL0     C32674   4.427   2.293   2.168 -0.3737  0.1247  0.2243
  243MOL0     C32675   4.400   2.292   2.302 -0.7550  0.1858 -0.2953
  243MOL0     C32676   4.270   2.270   2.348 -0.5498 -0.5484 -0.6774
  243MOL0     C32677   4.162   2.269   2.268 -0.2990 -0.1367  0.7084
  243MOL0     O32678   4.032   2.246   2.300  0.4022  0.1152  0.3483
  243MOL0     C32679   3.993   2.210   2.436 -0.1987 -0.5447  0.2397
  243MOL0     C32680   3.992   2.334   2.524 -0.0284  0.1932 -0.1986
  243MOL0     C32681   3.876   2.432   2.496 -0.0062  0.0851  0.5828
  243MOL0     C32682   3.742   2.406   2.564 -0.6945  0.8929 -0.1814
  243MOL0     C32683   3.734   2.476   2.702 -0.4521  0.1075 -0.7522
  243MOL0     C32684   3.681   2.618   2.706 -0.0215 -0.1589 -0.0136
  243MOL0     C32685   3.532   2.634   2.674  0.1400  0.0309  0.0218
  243MOL0     C32686   3.435   2.618   2.791  0.1427  0.5197 -0.6076
  243MOL0     N32687   3.304   2.575   2.743  0.4617 -0.0898  0.3284
  243MOL0     C32688   3.281   2.458   2.677 -0.0494  0.4601 -0.3744
  243MOL0     C32689   3.151   2.461   2.650  0.2793  1.2145  0.3596
  243MOL0     C32690   3.067   2.379   2.556  0.1999  0.0871 -0.0956
  243MOL0     C32691   3.111   2.398   2.412 -0.4502 -0.8045  0.6948
  243MOL0     C32692   3.013   2.340   2.311 -1.0586 -0.1286  0.7101
  243MOL0     C32693   2.909   2.432   2.260 -0.0457 -0.3523 -0.5338
  243MOL0     O32694   2.826   2.362   2.171 -0.2670 -0.2920  1.2027
  243MOL0     C32695   2.700   2.404   2.154  0.0030  0.2259  0.1815
  243MOL0     C32696   2.666   2.534   2.134  0.1006 -0.4482 -0.2329
  243MOL0     C32697   2.532   2.581   2.121 -1.1354  0.3870 -0.4382
  243MOL0     C32698   2.523   2.736   2.113 -0.5827 -0.5885 -0.9089
  243MOL0     C32699   2.441   2.481   2.108 -0.0675  0.1338  0.7340
  243MOL0     C32700   2.297   2.507   2.092 -0.4976  0.4202 -0.4965
  243MOL0     O32701   2.254   2.631   2.129  0.7538  0.2042  0.0608
  243MOL0     C32702   2.114   2.655   2.140 -0.0894  0.1238  0.2656
  243MOL0     C32703   2.037   2.730   2.045  0.2825  0.2383 -0.4953
  243MOL0     C32704   1.898   2.737   2.065 -0.0337 -0.0475  0.1088
  243MOL0     C32705   1.837   2.688   2.185 -0.5910  0.1478 -0.1084
  243MOL0     O32706   1.704   2.708   2.197 -0.1078  0.0886 -0.4433
  243MOL0     C32707   1.624   2.620   2.275 -0.4164  1.0496  0.1477
  243MOL0     C32708   1.549   2.696   2.388 -0.5021 -0.2017  0.1400
  243MOL0     C32709   1.483   2.610   2.502 -0.0110  0.1148 -0.3195
  243MOL0     C32710   1.425   2.699   2.606  0.5880  0.2569  0.4443
  243MOL0     C32711   1.404   2.624   2.738 -0.0957 -0.7908  0.1456
  243MOL0     C32712   1.277   2.532   2.731 -0.2266 -0.3384 -0.5211
  243MOL0     C32713   1.140   2.604   2.745  0.1245 -0.6014  0.1463
  243MOL0     C32714   1.115   2.640   2.890  0.3434 -0.2981  0.3112
  243MOL0    Cl32715   1.070   2.479   2.968 -0.2823  0.5760 -0.4666
  243MOL0     C32716   1.915   2.630   2.278  0.0662 -0.1743 -0.7460
  243MOL0     C32717   2.056   2.614   2.256  0.0304 -0.4004  0.4697
  243MOL0     O32718   2.222   2.413   2.059 -0.2113  0.3392  0.4218
  243MOL0     C32719   2.475   2.347   2.098 -0.2614  0.0168 -0.2843
  243MOL0     C32720   2.602   2.306   2.112 -1.0092  0.4943 -0.6530
  243MOL0     N32721   3.095   2.563   2.720 -0.2702 -0.3751  0.1762
  243MOL0     N32722   3.188   2.640   2.768 -0.1636  0.8738  0.5829
  243MOL0     C32723   4.181   2.285   2.131  0.2198 -0.4585  1.7030
  243MOL0     C32724   4.314   2.310   2.080 -0.5695  0.4354  0.1478
  243MOL0     C32725   4.765   2.323   2.015  0.6427 -0.3701 -0.6858
  243MOL0     C32726   4.842   2.299   2.138 -0.7792  1.0459  0.8280
  243MOL0     C32727   4.979   2.309   2.125  0.1378  0.4890 -0.7438
  243MOL0     C32728   5.051   2.339   2.006 -0.5014 -0.4145  0.4355
  243MOL0     O32729   5.189   2.365   2.012 -0.0418  0.1326  0.8775
  243MOL0     C32730   5.279   2.254   2.007 -0.4620  0.0883 -0.5759
  243MOL0     C32731   5.269   2.175   1.882  0.0676 -0.2815  0.0823
  243MOL0     C32732   5.402   2.100   1.858  0.1421 -0.5367  0.2690
  243MOL0     C32733   5.397   2.018   1.732 -0.4666  0.2170 -0.4852
  243MOL0     C32734   5.346   1.884   1.754  0.6343  0.1052 -0.1826
  243MOL0     C32735   5.311   1.769   1.781  0.0759  0.1627  0.0224
  243MOL0     C32736   4.973   2.337   1.886 -0.7601 -0.3249 -0.1289
  243MOL0     C32737   4.832   2.330   1.891 -0.6968  0.9042 -0.6984
  243MOL0     H32738   4.477   2.298   2.379 -0.3272  1.7494 -0.8073
  243MOL0     H32739   4.262   2.246   2.454  1.9793 -0.8904 -0.4927
  243MOL0     H32740   3.890   2.175   2.423 -0.7353  0.3643  1.8247
  243MOL0     H32741   4.053   2.124   2.468 -1.1678 -2.4716 -2.7485
  243MOL0     H32742   3.977   2.288   2.622  1.9794 -1.3520 -0.5754
  243MOL0     H32743   4.088   2.387   2.524 -0.2374  0.6037 -1.0024
  243MOL0     H32744   3.905   2.534   2.523 -3.4144  1.2476  0.3691
  243MOL0     H32745   3.850   2.423   2.391  2.8520 -0.2857 -0.1485
  243MOL0     H32746   3.666   2.445   2.496 -0.0699  0.1717 -1.3275
  243MOL0     H32747   3.741   2.297   2.560  2.9087  0.7498 -1.2705
  243MOL0     H32748   3.662   2.418   2.760 -2.0275  0.8976 -1.8577
  243MOL0     H32749   3.834   2.478   2.745 -0.5569  0.3027 -0.5156
  243MOL0     H32750   3.699   2.653   2.809 -2.5756 -3.4119  1.7281
  243MOL0     H32751   3.728   2.679   2.628 -1.3438 -1.3202 -1.7648
  243MOL0     H32752   3.519   2.740   2.653  0.3212  0.1972  0.7458
  243MOL0     H32753   3.498   2.573   2.589 -1.7995 -1.3531  1.7036
  243MOL0     H32754   3.420   2.711   2.847  3.4374 -0.1312  1.6900
  243MOL0     H32755   3.470   2.542   2.862 -2.0256 -1.7948 -1.8372
  243MOL0     H32756   3.350   2.385   2.635  0.6368  0.8091  0.1240
  243MOL0     H32757   3.087   2.276   2.585  1.3727  0.6569  1.2760
  243MOL0     H32758   2.958   2.383   2.566  0.1788  0.4802 -0.4352
  243MOL0     H32759   3.204   2.341   2.404 -0.4067 -0.6017 -0.4431
  243MOL0     H32760   3.128   2.505   2.393  0.8871 -0.6692  2.4170
  243MOL0     H32761   2.971   2.245   2.344 -2.1399  0.4566  1.0416
  243MOL0     H32762   3.079   2.320   2.225 -0.3731  2.2376  0.5983
  243MOL0     H32763   2.956   2.516   2.208 -0.1338  2.5459  3.5372
  243MOL0     H32764   2.846   2.472   2.341  0.4886 -0.0667 -0.2534
  243MOL0     H32765   2.740   2.613   2.140  0.0428 -0.3928 -0.2399
  243MOL0     H32766   2.488   2.764   2.014  0.0229  2.2617 -0.4016
  243MOL0     H32767   2.460   2.772   2.195  3.4230  2.5198  1.2096
  243MOL0     H32768   2.621   2.779   2.139  0.1668 -3.2675  1.3049
  243MOL0     H32769   2.071   2.766   1.948 -0.2249  0.1016 -0.7249
  243MOL0     H32770   1.829   2.791   2.001 -0.4190  0.9684  1.3540
  243MOL0     H32771   1.560   2.570   2.202  1.5124 -3.1602  1.0864
  243MOL0     H32772   1.680   2.533   2.309 -1.2483 -0.6058 -2.4207
  243MOL0     H32773   1.635   2.748   2.429 -0.3107 -1.2830  1.1382
  243MOL0     H32774   1.476   2.765   2.343 -0.0735  1.0111  1.2514
  243MOL0     H32775   1.560   2.545   2.546  2.4546  1.7964 -1.8875
  243MOL0     H32776   1.413   2.538   2.459  1.5986 -4.0560  3.2165
  243MOL0     H32777   1.492   2.785   2.617 -1.9176  2.7390 -1.8977
  243MOL0     H32778   1.336   2.741   2.558  1.9468  1.9423 -0.7294
  243MOL0     H32779   1.398   2.693   2.823 -2.8202  1.4716 -1.6915
  243MOL0     H32780   1.490   2.560   2.757 -0.9371 -1.3714  2.3467
  243MOL0     H32781   1.285   2.486   2.632  1.6880 -1.4142  0.0824
  243MOL0     H32782   1.282   2.457   2.811 -0.8433  0.2938  0.1283
  243MOL0     H32783   1.055   2.547   2.706  0.9884 -3.0192  1.5874
  243MOL0     H32784   1.159   2.703   2.701  0.4045  1.0330  3.6616
  243MOL0     H32785   1.030   2.709   2.892 -1.3968 -2.3255  0.3466
  243MOL0     H32786   1.194   2.684   2.951 -0.6314  1.9981 -0.0017
  243MOL0     H32787   1.880   2.606   2.378  2.7926  0.1731  0.3849
  243MOL0     H32788   2.129   2.573   2.325 -0.2451  0.3919  1.2622
  243MOL0     H32789   2.405   2.266   2.086 -1.8326  1.3930 -0.7544
  243MOL0     H32790   2.624   2.200   2.100 -0.6924  0.7061 -2.0616
  243MOL0     H32791   4.094   2.285   2.066  1.5867 -1.8429 -0.2343
  243MOL0     H32792   4.327   2.321   1.973  2.0605  0.5257  0.4036
  243MOL0     H32793   4.798   2.285   2.236 -1.0960  0.6640  0.6373
  243MOL0     H32794   5.030   2.314   2.220  3.4883  0.7212 -2.4039
  243MOL0     H32795   5.376   2.305   2.011 -0.5471  0.1864  0.4300
  243MOL0     H32796   5.259   2.187   2.091 -0.2687 -0.9019 -1.3041
  243MOL0     H32797   5.244   2.242   1.799  0.5667 -0.9832 -0.6468
  243MOL0     H32798   5.195   2.094   1.887  0.0525 -0.3138 -0.5250
  243MOL0     H32799   5.438   2.057   1.951  1.8849 -0.4227 -0.3212
  243MOL0     H32800   5.479   2.177   1.846 -0.4349  0.8711  4.0677
  243MOL0     H32801   5.500   1.998   1.701  0.0394  1.8556  0.0944
  243MOL0     H32802   5.343   2.069   1.651  2.2107  1.5146 -1.5666
  243MOL0     H32803   5.267   1.672   1.793  0.9204 -0.2355 -0.0139
  243MOL0     H32804   5.021   2.354   1.790  0.1167  0.3074  0.3999
  243MOL0     H32805   4.775   2.340   1.800  2.6028 -0.8352 -3.1761
  244MOL0     O32806   4.235   9.129   0.736  0.0443 -0.4244 -0.5838
  244MOL0     C32807   4.186   9.232   0.690  0.5742  0.1657 -0.1113
  244MOL0     O32808   4.245   9.331   0.623 -0.1371 -0.2618 -0.3101
  244MOL0     C32809   4.383   9.344   0.607 -0.3126  0.2749 -0.4481
  244MOL0     C32810   4.423   9.358   0.477  0.0282  0.5440  0.6816
  244MOL0     C32811   4.560   9.360   0.445 -0.7073 -0.0633 -0.5273
  244MOL0     C32812   4.654   9.352   0.553 -0.5381  0.3165 -0.7307
  244MOL0     O32813   4.791   9.346   0.533  0.7404 -0.2530  0.3536
  244MOL0     C32814   4.830   9.247   0.436 -0.0575 -0.2861  0.0898
  244MOL0     C32815   4.978   9.205   0.457 -0.3361  0.4490  0.1785
  244MOL0     C32816   5.084   9.314   0.451 -0.8971  0.1933  0.4587
  244MOL0     C32817   5.229   9.269   0.470  0.3539  0.2967  0.2543
  244MOL0     C32818   5.259   9.257   0.620  0.2311  0.9041 -0.1935
  244MOL0     C32819   5.396   9.196   0.654  0.0851 -0.8866 -0.1064
  244MOL0     C32820   5.415   9.049   0.608  0.5385 -0.5308 -0.1929
  244MOL0     C32821   5.556   9.000   0.640 -0.0824  0.3222  0.1047
  244MOL0     N32822   5.565   8.855   0.591  0.4202  0.1914 -0.1342
  244MOL0     C32823   5.670   8.808   0.516 -0.2859  0.7221  0.4085
  244MOL0     C32824   5.667   8.671   0.532  0.6858  0.1535 -0.5593
  244MOL0     C32825   5.769   8.586   0.475  0.0362 -0.1420  0.6043
  244MOL0     C32826   5.802   8.616   0.332 -0.0834 -0.1482  0.2282
  244MOL0     C32827   5.683   8.652   0.241 -0.2038  0.6700 -0.3306
  244MOL0     C32828   5.579   8.537   0.227 -1.0691 -0.1658  0.5535
  244MOL0     O32829   5.496   8.564   0.117 -0.1775  0.3706 -0.2258
  244MOL0     C32830   5.391   8.651   0.121 -0.2768  0.0006  0.8258
  244MOL0     C32831   5.349   8.720   0.235  0.1850 -0.1232 -0.3471
  244MOL0     C32832   5.242   8.807   0.223  0.2147  0.3816  0.4035
  244MOL0     C32833   5.197   8.876   0.348 -0.3364 -0.9973 -0.5592
  244MOL0     C32834   5.170   8.823   0.097 -0.7772  0.7461 -0.0855
  244MOL0     C32835   5.043   8.901   0.077 -0.4493 -0.3188  0.7983
  244MOL0     O32836   4.989   8.906  -0.051 -0.0394  0.1514 -0.4815
  244MOL0     C32837   4.869   8.982  -0.066  0.6448  0.1098 -0.6128
  244MOL0     C32838   4.743   8.927  -0.031  0.1049  0.0390 -0.8763
  244MOL0     C32839   4.629   9.006  -0.044 -0.0148  0.3458 -0.5522
  244MOL0     C32840   4.642   9.140  -0.084  0.2111  0.8423 -0.1094
  244MOL0     O32841   4.524   9.214  -0.109 -0.8233  0.5756 -0.6024
  244MOL0     C32842   4.441   9.235   0.008 -0.3994  0.0623 -0.0664
  244MOL0     C32843   4.335   9.335  -0.026 -0.2193 -1.0966  0.1387
  244MOL0     C32844   4.235   9.279  -0.124 -0.0836 -1.1446 -0.2591
  244MOL0     C32845   4.122   9.385  -0.169 -0.1788  0.4789 -0.2463
  244MOL0     C32846   4.025   9.333  -0.279  0.4883 -0.0775  0.1480
  244MOL0     C32847   3.933   9.220  -0.236 -0.6678 -0.6045 -0.4920
  244MOL0     C32848   3.866   9.250  -0.100  0.7484  0.1092 -0.8285
  244MOL0     C32849   3.755   9.153  -0.066 -0.9312 -0.3374 -0.1519
  244MOL0    Cl32850   3.611   9.172  -0.181  0.1140 -0.1478  0.2929
  244MOL0     C32851   4.763   9.184  -0.140  0.8771  0.5190 -0.4858
  244MOL0     C32852   4.881   9.109  -0.125  0.0912  0.3231  0.0549
  244MOL0     O32853   5.003   8.970   0.167  0.5066 -0.1189  0.1719
  244MOL0     C32854   5.217   8.752  -0.010  0.1311  0.0512  0.3013
  244MOL0     C32855   5.325   8.670  -0.001 -0.0465 -0.0147  0.1765
  244MOL0     N32856   5.556   8.639   0.612  0.3417 -0.1563  0.4508
  244MOL0     N32857   5.493   8.750   0.649  0.0417  0.3564  0.1547
  244MOL0     C32858   4.608   9.348   0.680  0.3622  0.3786 -0.1421
  244MOL0     C32859   4.474   9.346   0.710 -0.2561 -0.4233 -0.4725
  244MOL0     C32860   4.036   9.239   0.701 -0.8458 -0.7649 -0.7275
  244MOL0     C32861   3.959   9.319   0.628 -0.6088  0.4995  0.2217
  244MOL0     C32862   3.820   9.328   0.646  0.3688  0.4826 -0.9535
  244MOL0     C32863   3.752   9.255   0.747  0.5251  1.1845  0.0607
  244MOL0     O32864   3.620   9.275   0.786 -0.4548 -0.3588  0.3895
  244MOL0     C32865   3.522   9.323   0.691 -0.4765 -0.6255 -0.6834
  244MOL0     C32866   3.380   9.286   0.751 -0.9063 -0.1533 -0.4129
  244MOL0     C32867   3.333   9.374   0.869  0.4714 -0.2320  0.6944
  244MOL0     C32868   3.292   9.510   0.812  0.3914 -0.0577 -0.3366
  244MOL0     C32869   3.154   9.514   0.758 -0.7163  0.8385  0.3356
  244MOL0     C32870   3.038   9.517   0.712  0.5070 -0.6621 -0.2732
  244MOL0     C32871   3.828   9.163   0.818 -0.0321 -0.1527  0.8552
  244MOL0     C32872   3.969   9.165   0.802  0.1357  0.5676 -0.4626
  244MOL0     H32873   4.348   9.366   0.398  1.4220  0.5404 -0.6788
  244MOL0     H32874   4.604   9.359   0.346  3.0882  1.1742  0.9631
  244MOL0     H32875   4.772   9.155   0.440  1.9301 -1.5351  2.6974
  244MOL0     H32876   4.827   9.278   0.331 -0.4706 -0.0297  0.1765
  244MOL0     H32877   4.980   9.152   0.553  3.3422  1.1502  0.6411
  244MOL0     H32878   5.014   9.134   0.382 -1.0414  1.3751 -1.0691
  244MOL0     H32879   5.095   9.360   0.352 -1.0261 -2.4145 -0.8472
  244MOL0     H32880   5.068   9.389   0.529  0.9077 -0.5186  1.5625
  244MOL0     H32881   5.245   9.174   0.419 -0.7979  0.3550 -0.2471
  244MOL0     H32882   5.301   9.342   0.430 -0.5032  3.1017  3.3433
  244MOL0     H32883   5.259   9.353   0.673  0.7140  2.2832 -2.5686
  244MOL0     H32884   5.187   9.191   0.668  1.4971 -1.0234 -0.8458
  244MOL0     H32885   5.475   9.254   0.606 -0.6545  0.0088 -0.2739
  244MOL0     H32886   5.414   9.195   0.762  0.5995 -1.6992 -0.1935
  244MOL0     H32887   5.342   8.988   0.661 -1.7641  0.9816 -1.4790
  244MOL0     H32888   5.396   9.039   0.501  3.6676 -2.3192 -0.7152
  244MOL0     H32889   5.578   9.001   0.747  2.5063 -2.3395 -0.2714
  244MOL0     H32890   5.638   9.057   0.597  1.1983 -2.8585 -2.0804
  244MOL0     H32891   5.751   8.862   0.468  0.1460 -0.7516 -0.5795
  244MOL0     H32892   5.864   8.589   0.531 -0.2316 -2.9627  1.3817
  244MOL0     H32893   5.730   8.484   0.480 -0.8519  0.1035 -0.7903
  244MOL0     H32894   5.849   8.534   0.278  1.3781  0.8609 -0.0903
  244MOL0     H32895   5.873   8.699   0.329  1.6610 -1.5282  1.4229
  244MOL0     H32896   5.727   8.673   0.144 -1.1491  1.3544 -0.6327
  244MOL0     H32897   5.635   8.747   0.270 -0.4763  0.5994 -0.5434
  244MOL0     H32898   5.524   8.529   0.321 -2.4868 -0.8347 -0.2972
  244MOL0     H32899   5.626   8.442   0.198 -2.2158 -0.5869  0.0253
  244MOL0     H32900   5.399   8.715   0.331 -0.3553  0.2615 -0.0479
  244MOL0     H32901   5.093   8.853   0.374 -0.0907 -1.0834  0.3630
  244MOL0     H32902   5.264   8.849   0.430 -0.5157 -2.5493 -0.8949
  244MOL0     H32903   5.215   8.982   0.327  0.4474 -0.1538  3.5437
  244MOL0     H32904   4.732   8.825   0.003  1.8922 -0.1678 -0.8388
  244MOL0     H32905   4.541   8.948  -0.018  0.9706 -1.6222 -1.3665
  244MOL0     H32906   4.403   9.134   0.028  3.3064 -1.1950  1.4950
  244MOL0     H32907   4.494   9.266   0.099  0.2683 -0.1867 -0.3656
  244MOL0     H32908   4.282   9.372   0.063  1.3503 -1.5719  1.3124
  244MOL0     H32909   4.385   9.421  -0.071 -2.1604 -1.2086 -2.4721
  244MOL0     H32910   4.187   9.192  -0.077 -0.2482  0.2461  2.3085
  244MOL0     H32911   4.291   9.252  -0.214 -0.0471  2.1547 -1.3710
  244MOL0     H32912   4.068   9.405  -0.077 -0.8350 -0.7559 -0.3389
  244MOL0     H32913   4.167   9.479  -0.201  1.2548  0.2607  0.9878
  244MOL0     H32914   4.085   9.294  -0.363  0.7349  0.0940  0.2422
  244MOL0     H32915   3.961   9.418  -0.305  0.4806  0.3159  1.4035
  244MOL0     H32916   3.859   9.206  -0.315  0.0349 -0.6022 -1.1651
  244MOL0     H32917   3.992   9.128  -0.227  0.0902  0.0670  2.2536
  244MOL0     H32918   3.824   9.351  -0.100 -0.5428 -0.3350  2.0713
  244MOL0     H32919   3.941   9.238  -0.022 -0.9399  2.5859  1.3283
  244MOL0     H32920   3.722   9.157   0.038 -3.8083 -1.4189 -0.9067
  244MOL0     H32921   3.796   9.054  -0.085  2.3010  0.1332  3.2743
  244MOL0     H32922   4.761   9.283  -0.183 -0.1544  0.4060 -0.7410
  244MOL0     H32923   4.981   9.142  -0.154 -0.0403  0.1944 -0.5560
  244MOL0     H32924   5.160   8.743  -0.102  0.3662  2.2735 -0.1203
  244MOL0     H32925   5.372   8.626  -0.088 -1.2354 -1.5314  0.2697
  244MOL0     H32926   4.669   9.345   0.770 -1.8915  0.1556  1.4642
  244MOL0     H32927   4.436   9.320   0.808 -2.1344  0.5926 -0.8880
  244MOL0     H32928   4.009   9.377   0.551  0.0241  3.5339  2.7363
  244MOL0     H32929   3.761   9.401   0.592  1.9425  0.4518 -2.7944
  244MOL0     H32930   3.542   9.428   0.669  0.1152 -1.2420 -3.4566
  244MOL0     H32931   3.533   9.268   0.597  1.1394 -2.5350  0.5451
  244MOL0     H32932   3.386   9.180   0.778  2.0237 -0.4025 -1.6029
  244MOL0     H32933   3.304   9.295   0.673 -0.8348  0.4108 -0.4236
  244MOL0     H32934   3.410   9.403   0.941  1.3158 -0.1157 -0.2324
  244MOL0     H32935   3.253   9.329   0.929 -0.9595  2.6858  1.1413
  244MOL0     H32936   3.357   9.537   0.728  0.3010  2.6064  0.3381
  244MOL0     H32937   3.305   9.586   0.889 -3.4475  0.6616 -0.2175
  244MOL0     H32938   2.939   9.536   0.677  0.6087  0.1048 -0.1680
  244MOL0     H32939   3.777   9.109   0.896  0.2309 -2.4705 -0.4975
  244MOL0     H32940   4.034   9.096   0.856 -2.8114 -1.7240  0.4011
  245MOL0     O32941   3.572   5.089   4.129 -0.0476  0.0998  0.0174
  245MOL0     C32942   3.681   5.141   4.122  0.0007 -0.1519 -0.9905
  245MOL0     O32943   3.700   5.275   4.099 -0.0346  0.0699  0.1590
  245MOL0     C32944   3.604   5.373   4.098 -0.4593  0.4306 -0.1942
  245MOL0     C32945   3.470   5.359   4.128 -0.5514  0.3081 -0.6300
  245MOL0     C32946   3.383   5.472   4.127 -0.8898  0.5928  0.4568
  245MOL0     C32947   3.439   5.604   4.122  0.6556  0.3667 -0.2251
  245MOL0     O32948   3.363   5.720   4.144  0.5642  0.0552  0.0664
  245MOL0     C32949   3.243   5.734   4.063 -0.1345 -0.4277 -0.0897
  245MOL0     C32950   3.136   5.789   4.151 -0.0171 -0.6494 -0.6499
  245MOL0     C32951   3.008   5.825   4.068  0.1959  0.2422 -0.4066
  245MOL0     C32952   2.893   5.875   4.148 -0.0121 -0.9691  0.1741
  245MOL0     C32953   2.786   5.921   4.054 -0.2473  0.8158  0.9094
  245MOL0     C32954   2.691   6.006   4.134  0.9887 -0.1776  0.1816
  245MOL0     C32955   2.570   6.056   4.046 -0.3751  0.3221 -0.3535
  245MOL0     C32956   2.453   6.065   4.133 -0.2184  0.2967 -0.3555
  245MOL0     N32957   2.336   6.031   4.055 -0.5803  0.6314 -0.4336
  245MOL0     C32958   2.251   6.114   3.993  0.7288 -0.6427  0.0099
  245MOL0     C32959   2.150   6.040   3.934 -0.7155 -0.0426 -0.2594
  245MOL0     C32960   2.040   6.089   3.840  0.6673  0.9246  0.2289
  245MOL0     C32961   1.907   6.062   3.906  0.0430  0.0611 -0.3760
  245MOL0     C32962   1.860   5.920   3.895 -0.0377  1.1575  0.5952
  245MOL0     C32963   1.716   5.922   3.951  0.1864  0.3854  0.1550
  245MOL0     O32964   1.664   5.790   3.956 -0.8139 -0.0099 -0.0718
  245MOL0     C32965   1.533   5.770   3.998  0.0468  0.3891 -0.0823
  245MOL0     C32966   1.450   5.693   3.918 -0.1688  1.2419 -0.2010
  245MOL0     C32967   1.308   5.675   3.932  0.4099  0.7404 -0.3870
  245MOL0     C32968   1.238   5.592   3.831 -0.3194 -0.0679 -0.3444
  245MOL0     C32969   1.251   5.738   4.048  0.2981  0.6444 -0.0099
  245MOL0     C32970   1.105   5.738   4.079  0.0141  0.4306  0.9254
  245MOL0     O32971   1.055   5.822   4.175 -0.4469 -0.1081 -0.0870
  245MOL0     C32972   0.923   5.806   4.206 -0.9963 -0.2394  0.2300
  245MOL0     C32973   0.892   5.735   4.322  0.4420 -0.2157  0.5223
  245MOL0     C32974   0.758   5.722   4.364  0.3644 -0.9359 -0.4214
  245MOL0     C32975   0.654   5.779   4.293  0.2053 -1.1066  0.0340
  245MOL0     O32976   0.525   5.772   4.343  0.5816  0.2402  0.3319
  245MOL0     C32977   0.482   5.873   4.433  0.1314  0.2915 -0.2341
  245MOL0     C32978   0.333   5.866   4.466 -0.3028  0.1281 -0.8003
  245MOL0     C32979   0.310   5.765   4.583  0.8500  0.3052 -0.1425
  245MOL0     C32980   0.160   5.738   4.593  0.4099  1.0800 -0.3496
  245MOL0     C32981   0.074   5.864   4.598 -0.1499  0.1729 -0.4197
  245MOL0     C32982  -0.074   5.822   4.623  0.1724  0.4144  0.5038
  245MOL0     C32983  -0.168   5.942   4.665  0.4335  0.1799 -0.6807
  245MOL0     C32984  -0.309   5.892   4.702 -0.2968 -0.1263  0.1443
  245MOL0    Cl32985  -0.318   5.824   4.863 -0.0009  0.1659  0.0129
  245MOL0     C32986   0.680   5.857   4.179 -0.9434  0.0381 -0.3486
  245MOL0     C32987   0.819   5.875   4.140  0.1814  0.2249  0.3265
  245MOL0     O32988   1.046   5.637   4.035 -0.1749  0.2113 -0.2760
  245MOL0     C32989   1.338   5.810   4.141 -0.6590 -0.5488  1.1423
  245MOL0     C32990   1.476   5.823   4.110  0.6198 -0.7146 -0.0379
  245MOL0     N32991   2.193   5.913   3.948  0.6214 -0.3275  0.2702
  245MOL0     N32992   2.303   5.907   4.016  0.4301  0.0732  0.4717
  245MOL0     C32993   3.572   5.621   4.102  1.0619 -0.0751  0.2918
  245MOL0     C32994   3.648   5.506   4.084 -0.3162 -0.6383 -0.2039
  245MOL0     C32995   3.802   5.051   4.111 -0.2878  0.0535 -0.4149
  245MOL0     C32996   3.785   4.921   4.142 -0.2208  1.0072  0.1496
  245MOL0     C32997   3.896   4.832   4.149  0.1455  0.4922  0.0169
  245MOL0     C32998   4.023   4.881   4.117  0.1476 -0.2139 -0.0527
  245MOL0     O32999   4.141   4.807   4.112 -0.3747 -0.0221  0.2358
  245MOL0     C33000   4.140   4.667   4.123  0.0470 -0.2468  0.1003
  245MOL0     C33001   4.289   4.622   4.125  0.0796 -0.7746 -1.0197
  245MOL0     C33002   4.346   4.673   4.258  0.0191 -0.5272 -1.2266
  245MOL0     C33003   4.500   4.660   4.275 -0.0789 -0.4105 -0.2174
  245MOL0     C33004   4.547   4.529   4.247 -0.7390  0.8064 -0.0753
  245MOL0     C33005   4.594   4.423   4.213  0.2095 -0.2997  0.0500
  245MOL0     C33006   4.042   5.016   4.091  0.5644 -0.5281  0.5054
  245MOL0     C33007   3.929   5.098   4.078  0.3342 -0.3249  0.4724
  245MOL0     H33008   3.430   5.263   4.158 -0.0362 -0.1881 -1.4804
  245MOL0     H33009   3.277   5.457   4.142 -0.8340 -0.7384 -0.2738
  245MOL0     H33010   3.267   5.808   3.986 -0.5004  0.3064  0.4868
  245MOL0     H33011   3.210   5.643   4.012 -0.2535  0.1856 -1.1324
  245MOL0     H33012   3.113   5.730   4.241 -0.0986  0.6718  0.2213
  245MOL0     H33013   3.177   5.884   4.188  0.0006 -0.9430  0.1058
  245MOL0     H33014   3.038   5.910   4.007 -0.4298 -0.9382 -2.4624
  245MOL0     H33015   2.974   5.744   4.002 -0.0678  1.6068 -2.0049
  245MOL0     H33016   2.856   5.801   4.219  0.9361 -0.9764  0.6731
  245MOL0     H33017   2.946   5.951   4.206  1.6537 -3.2639  1.7960
  245MOL0     H33018   2.831   5.975   3.971 -1.9829 -1.4416 -1.6701
  245MOL0     H33019   2.748   5.825   4.017  1.1063  0.0152  1.5133
  245MOL0     H33020   2.664   5.950   4.224 -1.1645 -0.0397 -0.3364
  245MOL0     H33021   2.745   6.094   4.170 -1.8354  1.3540  0.9415
  245MOL0     H33022   2.593   6.142   3.982 -1.2889  0.9246  0.1106
  245MOL0     H33023   2.562   5.975   3.973  0.6918  0.4509 -0.6378
  245MOL0     H33024   2.436   6.162   4.181 -0.4619 -0.1669  0.5247
  245MOL0     H33025   2.459   5.993   4.216 -2.7110 -0.8292 -1.0527
  245MOL0     H33026   2.262   6.222   3.988 -0.0450 -0.5776 -0.3946
  245MOL0     H33027   2.053   6.193   3.808 -0.7119  0.6606 -1.2766
  245MOL0     H33028   2.037   6.036   3.745  0.2458  1.6727 -0.1837
  245MOL0     H33029   1.838   6.121   3.846 -0.4961 -0.8405 -0.6564
  245MOL0     H33030   1.905   6.112   4.004 -0.2497 -0.0480 -0.3272
  245MOL0     H33031   1.916   5.852   3.960  0.9864  1.0334 -0.3902
  245MOL0     H33032   1.861   5.882   3.792  2.9872 -2.9510  1.9106
  245MOL0     H33033   1.657   5.994   3.894  3.7846  1.9874 -1.9234
  245MOL0     H33034   1.724   5.971   4.048 -1.1564  0.5553  0.1954
  245MOL0     H33035   1.497   5.667   3.823 -1.1583  0.9279 -0.6130
  245MOL0     H33036   1.310   5.560   3.755 -0.1037  0.8877 -0.5575
  245MOL0     H33037   1.200   5.504   3.885  2.0224 -0.5740  0.6087
  245MOL0     H33038   1.155   5.648   3.788  0.9147  3.0604  0.9748
  245MOL0     H33039   0.969   5.690   4.384  0.5166  2.6882  2.7476
  245MOL0     H33040   0.734   5.658   4.448 -1.5918 -3.0623 -2.4342
  245MOL0     H33041   0.543   5.868   4.523  0.7536 -0.3920 -0.6849
  245MOL0     H33042   0.503   5.972   4.393 -1.4962  1.0065  0.5784
  245MOL0     H33043   0.298   5.965   4.496 -1.4490 -0.0129 -1.5827
  245MOL0     H33044   0.276   5.837   4.377 -2.4887  0.3869  0.4455
  245MOL0     H33045   0.345   5.804   4.679  0.0207 -0.6116  0.5490
  245MOL0     H33046   0.368   5.673   4.571  0.9447 -0.1112  2.8360
  245MOL0     H33047   0.121   5.678   4.511 -0.0472  2.3652 -1.0827
  245MOL0     H33048   0.146   5.671   4.679 -0.8585 -0.8034 -1.9433
  245MOL0     H33049   0.084   5.905   4.497  5.2080 -0.6660 -0.5248
  245MOL0     H33050   0.106   5.931   4.678 -0.6143  0.5608 -0.5485
  245MOL0     H33051  -0.112   5.771   4.534  0.9682  1.6302 -0.5716
  245MOL0     H33052  -0.081   5.747   4.701 -0.3464 -0.5261 -0.4225
  245MOL0     H33053  -0.170   6.010   4.580 -1.4983  1.6809  0.4900
  245MOL0     H33054  -0.127   5.989   4.755  1.8015 -2.3910  0.1659
  245MOL0     H33055  -0.342   5.812   4.636  1.2761  0.0187 -0.8837
  245MOL0     H33056  -0.377   5.978   4.703  0.9294  0.8817  0.1990
  245MOL0     H33057   0.594   5.912   4.141 -3.1593 -3.3413 -0.7136
  245MOL0     H33058   0.840   5.954   4.068  1.8750  1.3795  1.9838
  245MOL0     H33059   1.305   5.858   4.233  0.0017 -0.6612  1.4409
  245MOL0     H33060   1.537   5.877   4.182  1.3471  0.0582 -1.2080
  245MOL0     H33061   3.617   5.717   4.077 -0.0977  1.1422  2.5785
  245MOL0     H33062   3.751   5.525   4.055 -0.7964  1.1404 -0.9126
  245MOL0     H33063   3.689   4.873   4.156  0.3802 -0.5172 -0.7994
  245MOL0     H33064   3.885   4.727   4.175 -1.7239  1.4035  3.5783
  245MOL0     H33065   4.087   4.647   4.217  0.5795  2.8246  1.1622
  245MOL0     H33066   4.087   4.619   4.040 -1.0112 -0.9736  1.1518
  245MOL0     H33067   4.351   4.673   4.051  2.6497 -1.1851  0.7130
  245MOL0     H33068   4.304   4.515   4.107 -2.2083 -1.2450 -0.3693
  245MOL0     H33069   4.305   4.612   4.339  0.6790  3.2676  2.2789
  245MOL0     H33070   4.315   4.777   4.271  2.4867  0.0989  0.3444
  245MOL0     H33071   4.536   4.683   4.376  0.5521 -4.0436  0.5115
  245MOL0     H33072   4.547   4.732   4.207  0.0681 -1.7833 -1.6356
  245MOL0     H33073   4.637   4.330   4.184  1.6002  0.8790 -1.9073
  245MOL0     H33074   4.142   5.054   4.072  0.4998 -1.3737 -1.8550
  245MOL0     H33075   3.933   5.203   4.051 -0.8778 -0.3787 -0.0022
  246MOL0     O33076  10.589   5.564   7.344  0.7420  0.0580  0.4607
  246MOL0     C33077  10.614   5.631   7.239 -0.6133  0.1429 -0.1899
  246MOL0     O33078  10.532   5.654   7.136  0.3639  0.5232 -0.2259
  246MOL0     C33079  10.404   5.618   7.174 -0.5763 -0.1250  0.5415
  246MOL0     C33080  10.338   5.497   7.137  0.5616  0.4492 -0.6487
  246MOL0     C33081  10.203   5.467   7.155  0.2474  0.0746 -0.8788
  246MOL0     C33082  10.124   5.575   7.212  0.1996 -0.1807 -0.2025
  246MOL0     O33083   9.990   5.570   7.218  0.7713  0.0567  0.8157
  246MOL0     C33084   9.942   5.478   7.319  0.2420  0.3701 -0.2651
  246MOL0     C33085   9.933   5.329   7.267  0.5816 -0.5544 -0.2526
  246MOL0     C33086   9.857   5.316   7.139 -0.1531 -0.4843  0.3659
  246MOL0     C33087   9.719   5.386   7.129 -0.7424 -0.0821 -0.4000
  246MOL0     C33088   9.614   5.323   7.026 -0.2260 -1.1957 -0.2252
  246MOL0     C33089   9.549   5.192   7.084 -0.6304 -0.3319  0.2370
  246MOL0     C33090   9.447   5.152   6.978 -0.6028 -0.3110 -0.0687
  246MOL0     C33091   9.388   5.011   6.997  0.5346  0.5699  0.5709
  246MOL0     N33092   9.315   5.005   7.120 -0.1132  0.5789 -0.8640
  246MOL0     C33093   9.182   5.038   7.147  0.3363 -1.0255  1.6244
  246MOL0     C33094   9.173   5.033   7.277  0.7186  0.4063 -0.8781
  246MOL0     C33095   9.037   5.066   7.340 -0.1322  0.4995  0.8042
  246MOL0     C33096   9.044   5.213   7.379  0.3447  0.4712 -0.8832
  246MOL0     C33097   8.932   5.252   7.479 -0.2569  0.3756  0.1670
  246MOL0     C33098   8.781   5.235   7.427  0.6066  1.0997  0.0144
  246MOL0     O33099   8.741   5.096   7.408 -0.7237  0.0518  0.2591
  246MOL0     C33100   8.627   5.071   7.333 -0.0037 -0.4112 -0.8392
  246MOL0     C33101   8.600   4.940   7.302 -0.0598 -0.8779  0.1928
  246MOL0     C33102   8.490   4.907   7.221 -0.3181 -0.8645  0.6169
  246MOL0     C33103   8.476   4.764   7.185 -0.7992 -0.8275  0.0630
  246MOL0     C33104   8.399   5.004   7.173  0.4873  0.0779  0.3636
  246MOL0     C33105   8.277   4.983   7.085  0.1005 -0.6446 -0.2089
  246MOL0     O33106   8.207   5.087   7.044  0.2561 -0.1524  0.5113
  246MOL0     C33107   8.103   5.053   6.955 -0.7979  0.2868 -0.3168
  246MOL0     C33108   7.993   4.986   7.001 -0.2506 -0.1491 -0.5777
  246MOL0     C33109   7.887   4.941   6.925  0.3470 -0.4682  0.8811
  246MOL0     C33110   7.882   4.972   6.787  0.6322  0.1654  0.0033
  246MOL0     O33111   7.789   4.951   6.691  0.6363 -0.5143 -0.7487
  246MOL0     C33112   7.652   4.942   6.738 -0.0098 -0.6215 -0.8168
  246MOL0     C33113   7.547   4.924   6.624  0.1156 -0.2399  0.3407
  246MOL0     C33114   7.410   4.981   6.656 -0.1927 -0.1696 -0.5905
  246MOL0     C33115   7.298   4.921   6.571 -0.1247  0.0292  0.2793
  246MOL0     C33116   7.234   4.806   6.651  0.1394  0.5328  0.3828
  246MOL0     C33117   7.101   4.773   6.586  0.3485 -1.1217 -0.8838
  246MOL0     C33118   6.984   4.852   6.631  0.5475  0.0817  0.0026
  246MOL0     C33119   6.952   4.856   6.788 -0.1765 -0.4107  0.1923
  246MOL0    Cl33120   6.927   4.687   6.835 -0.0451 -0.1424  0.0196
  246MOL0     C33121   7.988   5.051   6.743 -0.4367  0.4457 -0.0784
  246MOL0     C33122   8.095   5.089   6.823  0.2393 -0.1770  0.3540
  246MOL0     O33123   8.240   4.866   7.064 -0.4251  0.1023  0.4426
  246MOL0     C33124   8.433   5.137   7.200  0.2301  0.0069  0.2880
  246MOL0     C33125   8.536   5.167   7.287 -0.0150 -0.6147  0.5967
  246MOL0     N33126   9.289   4.984   7.332  0.3937 -0.9783 -0.3570
  246MOL0     N33127   9.375   4.975   7.238  0.4965  0.0298 -0.1780
  246MOL0     C33128  10.187   5.697   7.257  0.5938  0.6926  0.1498
  246MOL0     C33129  10.327   5.713   7.235  1.1845  0.1110  0.3801
  246MOL0     C33130  10.759   5.678   7.231  0.4985 -0.3714  0.6249
  246MOL0     C33131  10.842   5.650   7.339  0.2203  0.2588  0.0995
  246MOL0     C33132  10.981   5.689   7.344  0.3720  0.5522  0.0941
  246MOL0     C33133  11.024   5.771   7.249  0.3131 -0.0970  0.4186
  246MOL0     O33134  11.150   5.819   7.243 -0.3689 -0.7239  0.2826
  246MOL0     C33135  11.193   5.862   7.364 -0.0385  0.0547 -0.2382
  246MOL0     C33136  11.320   5.940   7.352 -0.5770  0.3357 -0.2608
  246MOL0     C33137  11.446   5.853   7.336  0.0767 -0.0634  0.5342
  246MOL0     C33138  11.444   5.734   7.242  1.5627 -0.3940 -0.3622
  246MOL0     C33139  11.575   5.683   7.234 -1.1742  0.0041 -0.4498
  246MOL0     C33140  11.686   5.623   7.227 -0.2128 -0.2981  0.7094
  246MOL0     C33141  10.942   5.813   7.142 -0.0866  0.1783  0.3947
  246MOL0     C33142  10.810   5.766   7.137  0.1882 -0.2718  1.3455
  246MOL0     H33143  10.398   5.424   7.084 -1.2054 -1.3531 -0.2991
  246MOL0     H33144  10.172   5.365   7.136  0.0234 -0.1830  0.7577
  246MOL0     H33145  10.007   5.484   7.406 -0.7905 -1.9368  0.7440
  246MOL0     H33146   9.843   5.510   7.350  0.4881  1.3444 -0.4176
  246MOL0     H33147  10.032   5.282   7.265  1.0970  0.5009 -2.3028
  246MOL0     H33148   9.869   5.268   7.331 -0.0182  1.2867  1.0007
  246MOL0     H33149   9.917   5.355   7.056  0.8556 -0.4036  1.1222
  246MOL0     H33150   9.845   5.210   7.114  0.4131  0.0818 -2.8183
  246MOL0     H33151   9.668   5.381   7.226 -2.7363  0.9958 -1.3366
  246MOL0     H33152   9.734   5.491   7.103 -0.5270  0.0352  0.1785
  246MOL0     H33153   9.533   5.395   7.036  1.0030 -0.0758  4.4523
  246MOL0     H33154   9.650   5.310   6.924 -0.7103  0.0512 -0.5662
  246MOL0     H33155   9.623   5.111   7.079 -0.5216 -0.1749 -1.1603
  246MOL0     H33156   9.502   5.197   7.183  0.0943 -1.1622  0.6404
  246MOL0     H33157   9.367   5.223   6.957  0.5447  2.0492  2.8685
  246MOL0     H33158   9.508   5.140   6.888 -2.4588  1.1841 -1.6507
  246MOL0     H33159   9.457   4.928   6.981 -0.5023 -0.6085  1.9287
  246MOL0     H33160   9.318   4.997   6.914  2.2385 -2.3665 -0.5291
  246MOL0     H33161   9.120   5.094   7.078 -0.2007 -1.3986  1.7999
  246MOL0     H33162   8.956   5.043   7.270  1.3696 -1.4721 -0.3915
  246MOL0     H33163   9.002   5.007   7.425 -2.3715  1.1879  0.4335
  246MOL0     H33164   9.026   5.285   7.298  0.5594  4.1756  2.0755
  246MOL0     H33165   9.141   5.233   7.425 -0.0994 -0.8701  0.7343
  246MOL0     H33166   8.936   5.359   7.504 -4.1059 -0.1160  4.1073
  246MOL0     H33167   8.942   5.194   7.571 -0.4864 -0.4100 -0.2980
  246MOL0     H33168   8.772   5.299   7.339 -0.4358 -0.2785 -0.9214
  246MOL0     H33169   8.709   5.270   7.501 -1.7295 -0.4987 -1.3669
  246MOL0     H33170   8.651   4.854   7.345  1.6759 -0.5660 -1.1410
  246MOL0     H33171   8.556   4.708   7.234 -0.9908 -2.2028 -1.1163
  246MOL0     H33172   8.376   4.729   7.215 -0.1559 -1.8158  1.1729
  246MOL0     H33173   8.487   4.747   7.078  0.9176  0.4706  0.0021
  246MOL0     H33174   7.990   4.956   7.105 -0.6843  1.6627 -0.0213
  246MOL0     H33175   7.803   4.881   6.959 -1.4713 -1.0105 -3.8105
  246MOL0     H33176   7.647   4.853   6.802  2.3190  0.5883  1.2478
  246MOL0     H33177   7.635   5.028   6.803  1.6172  1.0804 -2.4904
  246MOL0     H33178   7.587   4.965   6.531 -2.2749 -1.6714 -1.4372
  246MOL0     H33179   7.538   4.816   6.612  1.2402 -0.6224  2.3944
  246MOL0     H33180   7.405   5.089   6.639 -3.0207 -0.3784 -1.7141
  246MOL0     H33181   7.394   4.956   6.761  1.3955 -1.5682 -0.6419
  246MOL0     H33182   7.225   5.000   6.552  1.4655  1.0222 -2.2865
  246MOL0     H33183   7.335   4.905   6.469  0.1796  1.0668  0.2080
  246MOL0     H33184   7.225   4.828   6.757  0.9850 -1.5865  0.9588
  246MOL0     H33185   7.300   4.718   6.646  0.3109  0.6961 -0.2988
  246MOL0     H33186   7.120   4.791   6.480 -0.7536 -1.1568 -1.1027
  246MOL0     H33187   7.084   4.667   6.603  3.3521 -1.3084  1.7272
  246MOL0     H33188   6.899   4.808   6.577  0.2246  0.0241  0.5549
  246MOL0     H33189   6.992   4.956   6.597  1.3265  0.4734  1.3151
  246MOL0     H33190   6.860   4.915   6.780 -1.2647 -2.2704 -2.4338
  246MOL0     H33191   7.032   4.906   6.844 -0.3716 -1.7588  1.7360
  246MOL0     H33192   8.000   5.085   6.641 -1.2143 -0.0957 -0.3543
  246MOL0     H33193   8.180   5.147   6.788 -0.2758  1.7240  2.0147
  246MOL0     H33194   8.374   5.221   7.164 -2.9578 -1.0723  2.5567
  246MOL0     H33195   8.545   5.271   7.317  0.0131 -0.0471 -1.2352
  246MOL0     H33196  10.128   5.781   7.292  0.4787  0.4886  0.4430
  246MOL0     H33197  10.376   5.800   7.276  0.2941  1.0514 -0.5104
  246MOL0     H33198  10.807   5.595   7.425  0.8221  1.0442  0.8642
  246MOL0     H33199  11.047   5.647   7.419 -0.1622 -1.0349 -0.2724
  246MOL0     H33200  11.116   5.921   7.416 -0.6679 -1.6163  0.8077
  246MOL0     H33201  11.205   5.789   7.445 -0.9121 -1.7450 -1.6645
  246MOL0     H33202  11.327   5.991   7.449 -0.8870 -0.1499  0.0239
  246MOL0     H33203  11.307   6.013   7.272 -2.6090  0.3218 -0.0041
  246MOL0     H33204  11.443   5.811   7.437 -1.6249 -0.6914  0.2552
  246MOL0     H33205  11.541   5.906   7.326 -1.1293  1.9663 -0.9321
  246MOL0     H33206  11.411   5.778   7.147 -0.5866  0.5312  0.7272
  246MOL0     H33207  11.370   5.660   7.273  1.5319  0.0599  0.6864
  246MOL0     H33208  11.781   5.573   7.229  1.3302  2.2614 -1.8817
  246MOL0     H33209  10.983   5.880   7.066 -3.1130  3.4069  1.3795
  246MOL0     H33210  10.753   5.810   7.055  1.1013  2.5981  2.1265
  247MOL0     O33211  11.017   6.493   2.233 -0.2839  0.2292 -0.4995
  247MOL0     C33212  11.096   6.448   2.311  0.5742 -0.2586  0.4486
  247MOL0     O33213  11.078   6.423   2.448  0.0465  0.5025 -0.6114
  247MOL0     C33214  10.976   6.477   2.523 -0.6873  0.2345  0.1871
  247MOL0     C33215  10.966   6.417   2.646 -0.3778 -0.4458 -0.6972
  247MOL0     C33216  10.863   6.454   2.737  0.8974  0.0738  0.3806
  247MOL0     C33217  10.775   6.557   2.704 -0.0804  0.1177 -0.0129
  247MOL0     O33218  10.680   6.593   2.795  0.5536 -0.3055 -0.1942
  247MOL0     C33219  10.595   6.484   2.842  0.5291  0.3075 -0.5911
  247MOL0     C33220  10.457   6.535   2.906 -1.7219 -0.5657 -0.3439
  247MOL0     C33221  10.375   6.594   2.792  0.0389 -0.0101 -0.3028
  247MOL0     C33222  10.275   6.702   2.841  0.3939  0.6824 -0.1296
  247MOL0     C33223  10.131   6.647   2.874 -0.1889  0.7502  0.3754
  247MOL0     C33224  10.061   6.763   2.941  0.9685  0.3843  0.3469
  247MOL0     C33225   9.920   6.734   3.001  0.0374  1.0321 -0.6387
  247MOL0     C33226   9.916   6.647   3.126  0.8681 -0.1563 -0.7179
  247MOL0     N33227   9.777   6.612   3.145  0.1068  0.8604 -0.4457
  247MOL0     C33228   9.700   6.689   3.225  0.5742 -0.1531 -0.0293
  247MOL0     C33229   9.584   6.627   3.218  0.8807  0.1744  0.2878
  247MOL0     C33230   9.456   6.665   3.287 -0.4515 -1.1264  0.6631
  247MOL0     C33231   9.405   6.783   3.200 -0.5918 -0.0314 -0.4090
  247MOL0     C33232   9.305   6.728   3.098 -0.2365 -0.2852  0.3964
  247MOL0     C33233   9.267   6.836   3.001  0.1474 -0.5975 -0.3338
  247MOL0     O33234   9.197   6.938   3.061 -0.6017  0.1888  0.2435
  247MOL0     C33235   9.056   6.932   3.079 -0.0032 -0.4292  0.4079
  247MOL0     C33236   8.984   7.042   3.123  0.0148 -0.2852  0.6727
  247MOL0     C33237   8.837   7.047   3.135  0.1225 -0.0388 -0.4102
  247MOL0     C33238   8.772   7.168   3.198  0.2779  0.0275  0.3146
  247MOL0     C33239   8.761   6.933   3.097  0.3858 -0.2954 -0.0314
  247MOL0     C33240   8.615   6.912   3.106 -0.1454 -0.0972 -0.2518
  247MOL0     O33241   8.554   6.831   3.015 -0.0317 -0.0172  0.1250
  247MOL0     C33242   8.421   6.809   3.024 -0.1748  0.1857 -0.1502
  247MOL0     C33243   8.332   6.914   3.018 -0.0950 -0.2939 -0.2837
  247MOL0     C33244   8.198   6.896   3.052 -0.1570 -0.2679  0.2188
  247MOL0     C33245   8.149   6.766   3.085 -0.6313  0.2629  0.2224
  247MOL0     O33246   8.019   6.732   3.106  0.5858  0.3141 -0.2290
  247MOL0     C33247   7.917   6.836   3.104 -0.5607  0.0880  0.9156
  247MOL0     C33248   7.785   6.772   3.147  0.1325  0.3898 -0.1629
  247MOL0     C33249   7.665   6.849   3.098 -0.9974  0.4820  0.3976
  247MOL0     C33250   7.535   6.772   3.123 -0.0769 -0.2674 -0.9221
  247MOL0     C33251   7.414   6.852   3.070  0.0938  0.6538 -0.7796
  247MOL0     C33252   7.280   6.773   3.080  0.0958 -1.2092 -0.0645
  247MOL0     C33253   7.159   6.855   3.014 -0.0045  0.3603  0.3162
  247MOL0     C33254   7.027   6.800   3.059  0.0981 -0.6430  0.0840
  247MOL0    Cl33255   6.909   6.918   2.982  0.3250 -0.2995 -0.2660
  247MOL0     C33256   8.234   6.662   3.085  0.0687 -0.0461  0.1065
  247MOL0     C33257   8.372   6.683   3.061 -0.6806 -0.1711 -0.5490
  247MOL0     O33258   8.566   6.964   3.200 -0.1917  0.3797 -0.4640
  247MOL0     C33259   8.839   6.825   3.047  0.7107 -0.7981  0.8848
  247MOL0     C33260   8.978   6.823   3.043  0.5491  0.7979 -0.4014
  247MOL0     N33261   9.591   6.507   3.141 -0.5885 -0.6234 -0.4575
  247MOL0     N33262   9.714   6.495   3.115 -0.2655 -0.1054 -0.1031
  247MOL0     C33263  10.791   6.616   2.584  0.6226  0.5703 -0.9888
  247MOL0     C33264  10.893   6.579   2.491 -0.6216  0.4706  0.1004
  247MOL0     C33265  11.220   6.389   2.255 -0.8206 -0.4713  0.2063
  247MOL0     C33266  11.336   6.389   2.327  0.2596  0.5070 -0.3048
  247MOL0     C33267  11.446   6.327   2.272 -0.3018  0.2537 -0.1460
  247MOL0     C33268  11.459   6.307   2.138  0.0428  0.6690 -1.3861
  247MOL0     O33269  11.574   6.269   2.077 -0.1563 -0.5260 -0.3066
  247MOL0     C33270  11.686   6.212   2.156 -0.5593 -0.2825 -0.7851
  247MOL0     C33271  11.814   6.166   2.081 -0.0066  0.1546  0.3491
  247MOL0     C33272  11.922   6.269   2.089  0.5626  1.2818  0.6887
  247MOL0     C33273  12.054   6.234   2.016  0.2686 -0.7888  0.0765
  247MOL0     C33274  12.120   6.110   2.044  0.1960 -0.6659  0.2389
  247MOL0     C33275  12.181   6.016   2.076  0.0362 -0.3053  0.3737
  247MOL0     C33276  11.353   6.334   2.059  0.0909  0.1829  0.4922
  247MOL0     C33277  11.229   6.363   2.115 -0.3136 -0.0850 -0.0872
  247MOL0     H33278  11.040   6.342   2.674  0.5189  0.5249 -0.4066
  247MOL0     H33279  10.869   6.403   2.833  6.0998  2.0330  1.3761
  247MOL0     H33280  10.581   6.409   2.763  1.4354  0.2818 -0.7293
  247MOL0     H33281  10.644   6.425   2.920  0.4690  0.7692 -0.1970
  247MOL0     H33282  10.412   6.443   2.944 -0.9077  0.2419  2.9057
  247MOL0     H33283  10.458   6.593   2.999 -0.2410 -1.5758  0.3068
  247MOL0     H33284  10.433   6.645   2.715  0.3784 -1.8585 -1.3332
  247MOL0     H33285  10.325   6.510   2.743 -0.3282 -0.7083  1.2059
  247MOL0     H33286  10.322   6.756   2.924  0.5270  1.9375 -0.9809
  247MOL0     H33287  10.269   6.776   2.760  1.1059 -1.4479 -2.2708
  247MOL0     H33288  10.089   6.621   2.777  0.8519  3.1160 -0.7782
  247MOL0     H33289  10.134   6.565   2.947 -0.9630  0.8448  0.5211
  247MOL0     H33290  10.126   6.807   3.017 -0.3453 -0.2746  1.9252
  247MOL0     H33291  10.045   6.838   2.863 -4.0946 -1.2993 -0.6137
  247MOL0     H33292   9.879   6.834   3.017 -1.3716  0.1924  1.3963
  247MOL0     H33293   9.859   6.683   2.925  0.9513 -0.5547 -0.3577
  247MOL0     H33294   9.953   6.706   3.210  3.7901 -0.9038 -1.3611
  247MOL0     H33295   9.970   6.552   3.124 -0.2850 -0.8363 -1.6403
  247MOL0     H33296   9.734   6.784   3.266  2.4741 -0.1458 -1.4806
  247MOL0     H33297   9.383   6.584   3.293  0.6776 -2.5179 -2.6129
  247MOL0     H33298   9.469   6.701   3.390  1.6189 -1.6923  0.6342
  247MOL0     H33299   9.476   6.841   3.141 -0.7706  0.1562 -0.4397
  247MOL0     H33300   9.361   6.857   3.267  0.6148  1.3363 -1.0840
  247MOL0     H33301   9.214   6.679   3.133 -1.7572  0.5700 -2.1617
  247MOL0     H33302   9.352   6.652   3.034 -0.2789  0.3735 -0.4281
  247MOL0     H33303   9.205   6.795   2.921 -1.4292  0.7824  0.1150
  247MOL0     H33304   9.357   6.863   2.945 -0.6091 -2.4324 -2.5800
  247MOL0     H33305   9.044   7.132   3.126 -2.5868  1.6292 -0.7012
  247MOL0     H33306   8.723   7.136   3.290 -1.7552 -0.6812 -0.9510
  247MOL0     H33307   8.841   7.251   3.219 -1.2657  1.6013 -0.5604
  247MOL0     H33308   8.691   7.207   3.136 -1.2450  1.4975  3.0417
  247MOL0     H33309   8.356   7.013   2.981  1.5895 -0.6117 -0.1163
  247MOL0     H33310   8.138   6.986   3.047  2.0171  1.2581 -0.2865
  247MOL0     H33311   7.947   6.926   3.158  1.8759 -0.4362  0.5520
  247MOL0     H33312   7.900   6.868   3.000 -0.7996  1.9386  1.4978
  247MOL0     H33313   7.762   6.670   3.116  0.2682 -0.4463  2.2905
  247MOL0     H33314   7.785   6.762   3.256  1.6705  1.1828 -0.0661
  247MOL0     H33315   7.681   6.864   2.991  3.6937 -0.8407  0.6750
  247MOL0     H33316   7.655   6.946   3.148 -0.0602  0.9575 -0.3196
  247MOL0     H33317   7.525   6.671   3.082 -0.0189 -0.9045  0.5696
  247MOL0     H33318   7.521   6.761   3.231 -0.4406  0.8375 -0.8446
  247MOL0     H33319   7.435   6.874   2.965 -2.3512  0.1730 -1.4403
  247MOL0     H33320   7.416   6.950   3.120 -1.0047 -0.0184  0.6641
  247MOL0     H33321   7.284   6.675   3.030  0.3347 -1.1591 -0.1445
  247MOL0     H33322   7.266   6.767   3.188 -0.7928  2.7381  0.1748
  247MOL0     H33323   7.166   6.858   2.905 -3.2063  1.5335  0.0461
  247MOL0     H33324   7.168   6.960   3.043  1.7820  0.2253  0.3353
  247MOL0     H33325   7.022   6.806   3.168 -1.0419 -1.4617  0.0949
  247MOL0     H33326   7.018   6.696   3.027  1.0044 -0.1755 -1.7938
  247MOL0     H33327   8.211   6.559   3.106  2.1417 -1.0676 -2.1333
  247MOL0     H33328   8.449   6.608   3.073  0.9852  0.8048 -3.8184
  247MOL0     H33329   8.787   6.738   3.009  0.6205 -0.0006 -0.8629
  247MOL0     H33330   9.016   6.725   3.015 -1.0828  0.7190 -2.6364
  247MOL0     H33331  10.721   6.697   2.568  0.4109  0.1765 -2.2050
  247MOL0     H33332  10.909   6.638   2.402  0.0129 -1.1761 -0.9088
  247MOL0     H33333  11.331   6.421   2.431  2.2561  0.0718 -0.0496
  247MOL0     H33334  11.539   6.326   2.329  0.2998 -1.2950 -1.0884
  247MOL0     H33335  11.718   6.286   2.230 -1.1549  2.6641 -3.2906
  247MOL0     H33336  11.643   6.129   2.213  2.1425 -0.8162  0.6496
  247MOL0     H33337  11.791   6.150   1.976 -1.2540  0.4121  0.5700
  247MOL0     H33338  11.842   6.074   2.133  0.7113  0.3953  0.4002
  247MOL0     H33339  11.944   6.267   2.196 -0.2704 -1.0354  0.8603
  247MOL0     H33340  11.889   6.370   2.063  0.2543  1.2849  1.0911
  247MOL0     H33341  12.121   6.310   2.059 -0.2427 -0.3792  0.1691
  247MOL0     H33342  12.038   6.253   1.910  1.7193 -1.1198 -0.2259
  247MOL0     H33343  12.253   5.945   2.111 -0.5076 -2.5893 -2.8150
  247MOL0     H33344  11.354   6.329   1.951  2.1583  0.8462  0.4452
  247MOL0     H33345  11.139   6.364   2.054  0.8103 -1.3261 -1.8201
  248MOL0     O33346   6.856   5.957   9.709 -0.2996 -0.3379 -0.0206
  248MOL0     C33347   6.928   5.873   9.655 -0.1419 -0.2868 -0.3919
  248MOL0     O33348   6.890   5.759   9.584 -0.0761  0.4047 -0.0935
  248MOL0     C33349   6.759   5.728   9.570 -0.1593  0.1800  0.3973
  248MOL0     C33350   6.663   5.815   9.512 -0.0722 -0.3489 -0.2231
  248MOL0     C33351   6.527   5.789   9.502  0.5642  0.2904  0.2486
  248MOL0     C33352   6.486   5.659   9.533  0.0011  0.4996  0.2413
  248MOL0     O33353   6.351   5.628   9.508  0.2534  0.4132 -0.1059
  248MOL0     C33354   6.263   5.615   9.619  0.0277  0.3133  0.9375
  248MOL0     C33355   6.114   5.640   9.592  0.8300  0.1972  0.3997
  248MOL0     C33356   6.077   5.781   9.553 -0.8605 -0.5608  0.1410
  248MOL0     C33357   5.926   5.794   9.541  0.2608 -0.1807  0.5930
  248MOL0     C33358   5.885   5.941   9.548  0.8478 -0.3328 -0.6391
  248MOL0     C33359   5.731   5.954   9.567  0.5035 -1.1901  0.7087
  248MOL0     C33360   5.694   5.931   9.712  0.2670 -0.7446 -0.1140
  248MOL0     C33361   5.554   5.994   9.741 -0.3517 -0.4734 -0.1421
  248MOL0     N33362   5.487   5.914   9.849 -0.3324 -0.4810  0.2694
  248MOL0     C33363   5.531   5.902   9.984 -0.1351 -0.6644 -0.0828
  248MOL0     C33364   5.431   5.832  10.051  0.0022  0.2136  0.3088
  248MOL0     C33365   5.437   5.778  10.197 -0.3676  0.2490 -0.3765
  248MOL0     C33366   5.470   5.897  10.290  0.3385  0.3102  0.1389
  248MOL0     C33367   5.380   6.019  10.279  0.1186  0.0634 -0.6278
  248MOL0     C33368   5.234   5.977  10.309 -0.1618  0.2611 -0.2872
  248MOL0     O33369   5.245   5.928  10.446 -0.1832 -0.0958 -0.1398
  248MOL0     C33370   5.128   5.872  10.496 -0.3801  0.4512 -0.2031
  248MOL0     C33371   4.989   5.864  10.450 -0.7229  0.2376  0.6394
  248MOL0     C33372   4.889   5.791  10.512 -0.3026  1.0334  0.0367
  248MOL0     C33373   4.754   5.779  10.449  0.0186 -0.0978  0.6845
  248MOL0     C33374   4.916   5.731  10.640 -1.1691 -0.5068  0.4160
  248MOL0     C33375   4.820   5.658  10.727  1.1252 -0.2559  0.4198
  248MOL0     O33376   4.866   5.594  10.841 -0.3028  0.2021  0.1456
  248MOL0     C33377   4.789   5.513  10.919 -0.7158 -0.1540 -0.3878
  248MOL0     C33378   4.853   5.487  11.041 -0.0485  0.3996  0.2437
  248MOL0     C33379   4.774   5.437  11.139 -0.3177  0.9202  0.1158
  248MOL0     C33380   4.638   5.401  11.120  0.1600  0.7311  0.7698
  248MOL0     O33381   4.580   5.336  11.229 -0.3913 -0.3078  0.0048
  248MOL0     C33382   4.442   5.296  11.227 -0.2220  0.2945  0.0079
  248MOL0     C33383   4.396   5.181  11.324 -0.3036 -0.4779  0.8141
  248MOL0     C33384   4.434   5.229  11.470 -0.1086  0.3329  0.0654
  248MOL0     C33385   4.358   5.343  11.522 -0.5182 -0.2742  0.0746
  248MOL0     C33386   4.342   5.346  11.669 -0.4646 -0.2745 -0.2734
  248MOL0     C33387   4.236   5.450  11.701  0.5779  0.3519  0.4693
  248MOL0     C33388   4.210   5.454  11.845  0.8671 -0.1071 -0.7657
  248MOL0     C33389   4.123   5.573  11.878  0.0028 -0.0961 -0.3067
  248MOL0    Cl33390   4.210   5.733  11.850  0.2828 -0.3990 -0.1967
  248MOL0     C33391   4.583   5.412  10.992  0.4935 -0.1089  0.4851
  248MOL0     C33392   4.655   5.476  10.891  0.1284 -0.0861  0.2526
  248MOL0     O33393   4.704   5.673  10.704  0.1802 -0.8635 -0.2400
  248MOL0     C33394   5.048   5.741  10.692 -0.5845 -0.0208  0.4179
  248MOL0     C33395   5.147   5.804  10.614  0.0326 -0.5064 -0.2277
  248MOL0     N33396   5.330   5.812   9.957  0.1366 -0.9701 -0.4170
  248MOL0     N33397   5.361   5.869   9.839 -0.0240 -0.2055 -0.5899
  248MOL0     C33398   6.581   5.566   9.575  0.4721 -0.6447  0.4970
  248MOL0     C33399   6.711   5.600   9.601 -0.9583  1.2388  0.5459
  248MOL0     C33400   7.074   5.900   9.660  0.7604 -0.5933  0.2966
  248MOL0     C33401   7.125   6.023   9.706 -0.3777  0.4788  0.0517
  248MOL0     C33402   7.264   6.050   9.692  0.0606  0.5015  1.0043
  248MOL0     C33403   7.354   5.949   9.648 -0.1526  0.7160 -0.6202
  248MOL0     O33404   7.487   5.980   9.646 -0.0472 -0.4208  0.1262
  248MOL0     C33405   7.573   5.905   9.728 -0.4455  0.7307 -0.2501
  248MOL0     C33406   7.607   5.989   9.850 -0.6714 -0.1464  0.6665
  248MOL0     C33407   7.702   6.111   9.819  0.3465  0.8315 -0.2076
  248MOL0     C33408   7.691   6.239   9.907 -0.3984  0.3254 -0.0502
  248MOL0     C33409   7.757   6.226  10.043  0.7962 -0.4484  0.3866
  248MOL0     C33410   7.812   6.238  10.150  0.0183 -0.1788  0.1342
  248MOL0     C33411   7.297   5.827   9.610 -1.3047 -0.0461 -1.0357
  248MOL0     C33412   7.158   5.811   9.605 -0.6071  0.0784  0.1536
  248MOL0     H33413   6.704   5.912   9.485 -1.2104  0.1191 -0.3206
  248MOL0     H33414   6.449   5.854   9.464 -0.0791 -0.8758 -0.4776
  248MOL0     H33415   6.279   5.512   9.651  1.7328  0.5733  1.0131
  248MOL0     H33416   6.287   5.688   9.697 -2.0719  0.4079  1.5703
  248MOL0     H33417   6.072   5.564   9.524  2.8510 -2.0097  1.4581
  248MOL0     H33418   6.075   5.616   9.692  0.2051  1.2845  0.4344
  248MOL0     H33419   6.112   5.846   9.634  0.4545  2.6946 -2.7940
  248MOL0     H33420   6.138   5.805   9.465  2.1132 -0.2315  2.1140
  248MOL0     H33421   5.880   5.750   9.453 -1.2124 -1.8409  2.1229
  248MOL0     H33422   5.885   5.753   9.634 -3.3142  2.2685  0.2908
  248MOL0     H33423   5.940   6.001   9.621 -2.0379  2.7769 -0.7599
  248MOL0     H33424   5.911   5.989   9.452  0.5585  0.6997 -0.2212
  248MOL0     H33425   5.710   6.055   9.529  2.9228 -1.6788 -2.4018
  248MOL0     H33426   5.691   5.878   9.500  2.2400 -0.2947 -1.4823
  248MOL0     H33427   5.678   5.824   9.723  2.0908 -0.9312  1.1283
  248MOL0     H33428   5.777   5.954   9.779 -0.0530 -4.2066  1.6898
  248MOL0     H33429   5.486   5.977   9.656  0.6120 -1.1374 -0.8037
  248MOL0     H33430   5.550   6.102   9.754  0.6229 -0.3382 -0.8215
  248MOL0     H33431   5.628   5.939  10.017 -0.8230  0.7155  0.4442
  248MOL0     H33432   5.341   5.731  10.222 -1.5022  1.9884 -1.2525
  248MOL0     H33433   5.514   5.701  10.204  0.9158  1.3354 -1.8711
  248MOL0     H33434   5.567   5.936  10.258 -0.3851  2.7563  0.7161
  248MOL0     H33435   5.479   5.870  10.395 -1.3902  0.1880  0.2977
  248MOL0     H33436   5.395   6.065  10.180  0.2337 -0.1744 -0.7208
  248MOL0     H33437   5.405   6.095  10.353 -1.2649  0.5878 -0.6827
  248MOL0     H33438   5.192   5.893  10.253 -0.3856 -0.8485  1.4761
  248MOL0     H33439   5.160   6.058  10.303  0.0274  0.5497  1.0691
  248MOL0     H33440   4.962   5.908  10.355 -1.0140 -2.0999 -0.4367
  248MOL0     H33441   4.686   5.843  10.506 -0.4528 -0.3352  0.3918
  248MOL0     H33442   4.753   5.818  10.347  0.5088  0.6379  0.9492
  248MOL0     H33443   4.721   5.676  10.437  2.7087 -0.9288 -0.5347
  248MOL0     H33444   4.942   5.541  11.074  0.4192 -0.1371 -0.1229
  248MOL0     H33445   4.822   5.423  11.236  3.6223 -0.2838 -1.7795
  248MOL0     H33446   4.387   5.388  11.251  0.3660  0.8656 -0.7958
  248MOL0     H33447   4.410   5.271  11.125 -1.6641  0.4713  0.3941
  248MOL0     H33448   4.288   5.166  11.317 -0.2044 -0.5961 -0.7621
  248MOL0     H33449   4.460   5.093  11.309  0.7216  0.5226 -0.9404
  248MOL0     H33450   4.537   5.265  11.463 -0.3382  1.3742  1.4815
  248MOL0     H33451   4.424   5.149  11.544  1.2563  1.8391  1.9936
  248MOL0     H33452   4.403   5.439  11.494  0.0609 -1.3996 -3.2695
  248MOL0     H33453   4.258   5.339  11.478 -1.6128  0.1347  2.3937
  248MOL0     H33454   4.439   5.378  11.710 -0.5833 -1.4049  0.9575
  248MOL0     H33455   4.316   5.248  11.710 -2.1561  0.9925  1.9388
  248MOL0     H33456   4.262   5.548  11.659 -1.3819  0.8022  0.2181
  248MOL0     H33457   4.141   5.419  11.656 -0.4494  2.5222  1.0126
  248MOL0     H33458   4.302   5.460  11.903 -0.5312  2.7503  1.4184
  248MOL0     H33459   4.160   5.360  11.870 -1.0211  0.9739 -0.3260
  248MOL0     H33460   4.087   5.560  11.981 -0.5446 -0.5473 -0.5511
  248MOL0     H33461   4.033   5.569  11.817 -1.2936 -3.2342  1.5675
  248MOL0     H33462   4.483   5.376  10.970  1.3848 -1.6241 -1.3752
  248MOL0     H33463   4.597   5.480  10.800  0.3626 -1.1486  0.0414
  248MOL0     H33464   5.071   5.700  10.790  0.9808  2.0955  1.0062
  248MOL0     H33465   5.242   5.810  10.666 -0.5564 -0.6478  0.8991
  248MOL0     H33466   6.567   5.461   9.601  1.0166 -0.9017 -0.2245
  248MOL0     H33467   6.775   5.524   9.646 -1.1437  1.8973  2.0021
  248MOL0     H33468   7.066   6.105   9.745  1.1275  1.8756 -0.4794
  248MOL0     H33469   7.294   6.151   9.719 -1.3219  0.7355  1.7711
  248MOL0     H33470   7.524   5.813   9.763  2.1847 -1.1099 -1.0788
  248MOL0     H33471   7.666   5.869   9.683 -0.6240  1.0301 -0.8752
  248MOL0     H33472   7.650   5.921   9.925 -0.9542 -1.8170 -0.6157
  248MOL0     H33473   7.513   6.028   9.889 -1.2338  0.9285 -1.6000
  248MOL0     H33474   7.680   6.152   9.720 -0.7452 -1.8648 -1.1975
  248MOL0     H33475   7.804   6.073   9.833 -1.6299 -4.4105  2.7307
  248MOL0     H33476   7.587   6.263   9.930 -0.5984 -1.0105  0.5069
  248MOL0     H33477   7.735   6.321   9.848  0.0061 -0.6259 -1.1054
  248MOL0     H33478   7.867   6.246  10.242  3.2696 -0.6998 -1.6137
  248MOL0     H33479   7.367   5.750   9.579 -0.0861  0.2816  0.7711
  248MOL0     H33480   7.117   5.722   9.558 -1.2419  1.0538 -1.2244
  249MOL0     O33481   3.717   0.398   1.998 -0.5300  0.2205 -0.3320
  249MOL0     C33482   3.731   0.386   2.119 -0.0852 -0.4297 -0.0041
  249MOL0     O33483   3.631   0.343   2.207  0.1318  0.2020  0.4023
  249MOL0     C33484   3.501   0.352   2.175 -0.2025  0.1474  0.8007
  249MOL0     C33485   3.412   0.372   2.271 -0.0382  0.9719 -0.9287
  249MOL0     C33486   3.275   0.369   2.256 -0.0735  0.0567  0.3964
  249MOL0     C33487   3.222   0.358   2.128 -0.1463 -0.1846  0.7589
  249MOL0     O33488   3.093   0.356   2.082 -0.2265 -0.4596  0.0037
  249MOL0     C33489   2.981   0.348   2.164  0.3746  0.1860  0.5394
  249MOL0     C33490   2.870   0.325   2.061  0.0526 -1.0542  0.7608
  249MOL0     C33491   2.719   0.367   2.106  0.2124  0.2904 -0.0939
  249MOL0     C33492   2.612   0.261   2.068 -0.5241 -0.4440  0.0519
  249MOL0     C33493   2.475   0.306   2.128 -0.8058 -0.1605 -0.0260
  249MOL0     C33494   2.372   0.226   2.054  0.2949 -0.5665 -0.2646
  249MOL0     C33495   2.245   0.228   2.125  1.1157  0.2602 -0.6722
  249MOL0     C33496   2.138   0.138   2.063 -0.2222 -1.0675  0.3292
  249MOL0     N33497   2.007   0.163   2.118  0.3455 -0.2388 -0.4350
  249MOL0     C33498   1.920   0.259   2.084 -0.5069 -0.1513  0.4390
  249MOL0     C33499   1.820   0.248   2.178 -0.6297 -0.4135 -0.2407
  249MOL0     C33500   1.695   0.326   2.173  0.0458 -0.0405  0.6538
  249MOL0     C33501   1.624   0.314   2.041  1.1780  0.3808  0.2842
  249MOL0     C33502   1.487   0.380   2.046 -0.1211 -0.8356  1.7148
  249MOL0     C33503   1.388   0.365   2.161 -0.5922  0.8839 -1.4850
  249MOL0     O33504   1.340   0.231   2.180 -0.2417  0.0353  0.1379
  249MOL0     C33505   1.245   0.172   2.098 -0.0060  0.7223 -0.0179
  249MOL0     C33506   1.111   0.218   2.103 -1.1320  0.0808 -0.8302
  249MOL0     C33507   1.004   0.144   2.044 -0.8887  0.1292  0.0852
  249MOL0     C33508   0.858   0.176   2.073  0.2655 -0.3139  0.0784
  249MOL0     C33509   1.045   0.031   1.971  0.1509 -0.5237  0.7447
  249MOL0     C33510   0.954  -0.074   1.900 -0.6629 -0.3126  0.5246
  249MOL0     O33511   1.013  -0.190   1.867  0.9766 -0.1866 -0.4755
  249MOL0     C33512   0.923  -0.292   1.845  0.4121  0.2015  0.8328
  249MOL0     C33513   0.849  -0.349   1.949  1.1904 -0.6531 -0.1531
  249MOL0     C33514   0.751  -0.449   1.932  0.4073  0.1399  0.2349
  249MOL0     C33515   0.742  -0.500   1.803 -0.5398  0.2933  0.0372
  249MOL0     O33516   0.646  -0.604   1.793  0.5439 -0.5458 -0.3545
  249MOL0     C33517   0.582  -0.629   1.660 -0.3489  0.0997  0.6164
  249MOL0     C33518   0.460  -0.711   1.669 -0.2180  0.1650 -0.4440
  249MOL0     C33519   0.428  -0.759   1.530 -0.1287  0.0084  1.3615
  249MOL0     C33520   0.297  -0.832   1.521 -0.1780 -0.7338 -0.3302
  249MOL0     C33521   0.223  -0.833   1.382  0.0560  0.4771 -0.4451
  249MOL0     C33522   0.070  -0.885   1.399 -0.0612  0.9923 -0.1677
  249MOL0     C33523   0.062  -1.024   1.458  0.2454 -0.5094  0.3438
  249MOL0     C33524  -0.081  -1.072   1.469 -0.2514  0.4643 -0.4105
  249MOL0    Cl33525  -0.132  -1.143   1.313  0.2663 -0.0103 -0.1206
  249MOL0     C33526   0.821  -0.449   1.697 -0.5603  0.2465  0.4368
  249MOL0     C33527   0.901  -0.342   1.715  0.1080  0.1870  0.5326
  249MOL0     O33528   0.837  -0.045   1.872  0.2430 -0.0311 -0.1344
  249MOL0     C33529   1.178  -0.010   1.962  0.1194 -0.6321  0.3543
  249MOL0     C33530   1.281   0.067   2.023  0.4627  0.3178  0.4159
  249MOL0     N33531   1.849   0.132   2.253  0.7341 -0.3307  0.0408
  249MOL0     N33532   1.955   0.085   2.213  0.1977  0.0337  0.5927
  249MOL0     C33533   3.307   0.355   2.018 -0.3845  1.1823  0.3229
  249MOL0     C33534   3.442   0.342   2.041  0.1206 -1.1758  0.3596
  249MOL0     C33535   3.869   0.397   2.169 -0.4181  1.4065 -0.4765
  249MOL0     C33536   3.896   0.389   2.308  0.1019 -0.8360  0.4022
  249MOL0     C33537   4.025   0.391   2.355  0.1618 -0.8619 -0.0027
  249MOL0     C33538   4.136   0.390   2.270  1.3743  0.2687 -0.8597
  249MOL0     O33539   4.261   0.398   2.331 -0.7519 -0.2500  0.0567
  249MOL0     C33540   4.373   0.439   2.242 -0.4531 -0.0192 -0.3180
  249MOL0     C33541   4.506   0.429   2.317 -0.2803 -0.6336 -0.4151
  249MOL0     C33542   4.625   0.487   2.225 -0.4861  0.0716  0.9026
  249MOL0     C33543   4.601   0.620   2.148 -0.2725  0.1739 -0.8715
  249MOL0     C33544   4.725   0.655   2.077 -0.5183  0.4322 -0.0269
  249MOL0     C33545   4.822   0.693   2.019  0.1356  0.8902  0.9103
  249MOL0     C33546   4.108   0.401   2.134 -0.1368 -0.2380 -0.2694
  249MOL0     C33547   3.977   0.403   2.078 -0.6990  0.1107  0.1920
  249MOL0     H33548   3.436   0.387   2.375 -0.5154  1.6603 -0.9128
  249MOL0     H33549   3.212   0.384   2.343 -0.0218 -0.1040  0.4623
  249MOL0     H33550   2.989   0.269   2.240 -0.8528  0.9810  1.5353
  249MOL0     H33551   2.969   0.448   2.206  3.2871  1.7130 -1.8728
  249MOL0     H33552   2.893   0.379   1.969 -0.3594 -0.6735  0.8742
  249MOL0     H33553   2.871   0.220   2.031  2.0166 -1.3730  1.7581
  249MOL0     H33554   2.723   0.369   2.215 -1.8933  0.7828  0.0034
  249MOL0     H33555   2.678   0.458   2.062 -1.5908 -0.3614  0.1437
  249MOL0     H33556   2.604   0.237   1.961  2.8615 -2.7167  0.1240
  249MOL0     H33557   2.645   0.170   2.120  0.8103  0.5430  0.9818
  249MOL0     H33558   2.461   0.287   2.235  0.3121 -2.9553 -0.2907
  249MOL0     H33559   2.452   0.411   2.110 -0.6754  0.3207  2.2485
  249MOL0     H33560   2.356   0.277   1.958 -1.6946  2.6220  1.5645
  249MOL0     H33561   2.399   0.121   2.041 -1.2166 -0.9591 -0.4490
  249MOL0     H33562   2.260   0.186   2.225 -0.3810 -0.8200 -0.8565
  249MOL0     H33563   2.199   0.326   2.132 -2.4016 -1.2683 -0.3501
  249MOL0     H33564   2.180   0.039   2.081  1.7773 -0.2233  0.6578
  249MOL0     H33565   2.145   0.159   1.956  3.6227  0.2686  0.6664
  249MOL0     H33566   1.939   0.334   2.008  0.2241  1.1083  1.8066
  249MOL0     H33567   1.618   0.296   2.245 -0.8688 -1.1270 -0.7143
  249MOL0     H33568   1.718   0.432   2.179  2.8832 -0.2879 -2.5856
  249MOL0     H33569   1.615   0.211   2.007  0.0866  0.2873  0.8457
  249MOL0     H33570   1.683   0.367   1.965  2.5623  0.4076  1.3446
  249MOL0     H33571   1.434   0.346   1.957  0.0303  3.6724 -0.3526
  249MOL0     H33572   1.517   0.483   2.024 -1.0218 -1.3700 -3.0291
  249MOL0     H33573   1.306   0.424   2.119 -0.4677  0.6011 -2.1453
  249MOL0     H33574   1.423   0.405   2.256  1.3574 -4.6946  0.5280
  249MOL0     H33575   1.081   0.299   2.169  0.2121 -1.1503  1.3724
  249MOL0     H33576   0.862   0.226   2.171  0.4617  1.0528 -0.6081
  249MOL0     H33577   0.825   0.249   1.999 -3.0345 -0.5414  1.1468
  249MOL0     H33578   0.784   0.096   2.083  0.2403 -0.0208  3.8400
  249MOL0     H33579   0.870  -0.304   2.046  0.0018 -1.3601  0.4584
  249MOL0     H33580   0.689  -0.492   2.010 -2.4346  0.6715 -1.5943
  249MOL0     H33581   0.547  -0.535   1.617 -2.0473 -0.4871  0.6133
  249MOL0     H33582   0.656  -0.680   1.598  1.5137  1.1518  1.8761
  249MOL0     H33583   0.466  -0.794   1.739  1.0495 -0.7851 -1.6238
  249MOL0     H33584   0.392  -0.634   1.707  1.5593  1.6870 -0.1982
  249MOL0     H33585   0.511  -0.823   1.501  0.7626  0.2617  3.1486
  249MOL0     H33586   0.419  -0.673   1.463 -2.0029 -1.1060  0.0974
  249MOL0     H33587   0.306  -0.932   1.564 -0.9565  0.9087  4.1502
  249MOL0     H33588   0.228  -0.789   1.594 -0.6930  0.2635 -1.3753
  249MOL0     H33589   0.282  -0.903   1.322 -0.9731  1.1012 -2.2553
  249MOL0     H33590   0.228  -0.731   1.342 -1.7776  3.1456  5.0709
  249MOL0     H33591   0.031  -0.812   1.472  3.3330  0.0515  2.9076
  249MOL0     H33592   0.015  -0.880   1.305 -0.5470  1.7431  0.1383
  249MOL0     H33593   0.088  -1.008   1.563 -0.8904  0.1577  0.5313
  249MOL0     H33594   0.129  -1.092   1.404  1.8271  3.1471 -2.7230
  249MOL0     H33595  -0.150  -0.998   1.509  0.0894  0.7515 -0.3524
  249MOL0     H33596  -0.086  -1.146   1.550 -1.0782 -0.0262 -0.8953
  249MOL0     H33597   0.813  -0.499   1.601  0.3843  1.1478 -0.1314
  249MOL0     H33598   0.958  -0.305   1.629  0.5235 -1.0932  0.2364
  249MOL0     H33599   1.205  -0.089   1.892 -2.5497 -1.2888 -0.0511
  249MOL0     H33600   1.380   0.025   2.036 -0.7032 -2.2466  1.9007
  249MOL0     H33601   3.265   0.345   1.918  0.5965  2.1294 -0.2130
  249MOL0     H33602   3.510   0.328   1.958  1.5307  2.5655  0.6625
  249MOL0     H33603   3.814   0.386   2.378  1.0082  1.0732  1.6551
  249MOL0     H33604   4.034   0.373   2.462 -1.5862  0.6189  0.4567
  249MOL0     H33605   4.372   0.363   2.163  0.5487  0.7358 -1.0935
  249MOL0     H33606   4.359   0.537   2.196 -0.4371  0.4548  0.6565
  249MOL0     H33607   4.532   0.325   2.337 -1.3531 -1.1249 -1.4352
  249MOL0     H33608   4.505   0.478   2.414  0.7904 -1.5709  0.0895
  249MOL0     H33609   4.645   0.402   2.159 -0.0220  2.1580 -1.8428
  249MOL0     H33610   4.707   0.504   2.295 -1.9136 -0.3219  2.7366
  249MOL0     H33611   4.576   0.687   2.231  2.3424  1.2680 -0.8908
  249MOL0     H33612   4.515   0.620   2.079 -2.2800  3.9531  1.2743
  249MOL0     H33613   4.912   0.721   1.967 -1.3768  0.6109 -2.0610
  249MOL0     H33614   4.184   0.404   2.057 -0.7444 -5.3980 -1.4435
  249MOL0     H33615   3.956   0.416   1.973 -0.7717  0.2110  0.2189
  250MOL0     O33616   2.341   8.656  10.894 -0.5294 -0.5945  0.8438
  250MOL0     C33617   2.371   8.738  10.981  0.4958  0.0813 -0.4730
  250MOL0     O33618   2.299   8.858  11.006 -0.2197  0.4039  0.0555
  250MOL0     C33619   2.190   8.897  10.926 -0.5800  0.4670 -0.0741
  250MOL0     C33620   2.150   8.858  10.798  0.2249 -0.4831 -0.3695
  250MOL0     C33621   2.035   8.898  10.742 -0.6289  0.1168 -0.0020
  250MOL0     C33622   1.936   8.964  10.811  0.6769 -0.7511  0.2085
  250MOL0     O33623   1.815   9.005  10.756  0.0253 -0.2189  0.1104
  250MOL0     C33624   1.698   8.935  10.802  0.6703  0.6214  0.0943
  250MOL0     C33625   1.620   9.015  10.905 -0.4752 -0.3669  0.3628
  250MOL0     C33626   1.494   8.951  10.969  0.6534  0.3736 -0.0273
  250MOL0     C33627   1.384   8.915  10.874 -0.0095 -0.2629  0.7352
  250MOL0     C33628   1.241   8.882  10.915 -0.2441  1.0489 -0.0677
  250MOL0     C33629   1.150   8.891  10.788  0.2667  0.9479 -0.6688
  250MOL0     C33630   1.005   8.847  10.811  0.5395  0.3831 -0.5662
  250MOL0     C33631   0.923   8.957  10.877  0.4274 -0.3733 -0.2883
  250MOL0     N33632   0.774   8.950  10.876  0.3055 -0.7081  0.1226
  250MOL0     C33633   0.708   8.831  10.861  0.0756  0.3000 -0.1462
  250MOL0     C33634   0.574   8.863  10.851 -0.1396 -1.1163 -0.3331
  250MOL0     C33635   0.446   8.779  10.831  0.0751 -0.4419  0.1600
  250MOL0     C33636   0.330   8.850  10.749  0.3765  0.0229  0.7414
  250MOL0     C33637   0.244   8.936  10.847 -0.9479 -0.4715  0.3890
  250MOL0     C33638   0.170   9.053  10.776 -0.9653  0.1842 -0.2317
  250MOL0     O33639   0.054   9.007  10.716  0.3303 -0.1014  0.6739
  250MOL0     C33640  -0.069   9.005  10.774  0.0677  0.0830 -0.0125
  250MOL0     C33641  -0.176   8.932  10.711 -0.6463 -0.1384  0.4881
  250MOL0     C33642  -0.319   8.944  10.743 -0.6226 -0.4374 -0.5041
  250MOL0     C33643  -0.410   8.886  10.637 -0.1498 -0.2501  0.1875
  250MOL0     C33644  -0.351   9.008  10.864 -0.0654  0.2975  0.4381
  250MOL0     C33645  -0.493   9.027  10.914  0.7865 -1.0595  0.0650
  250MOL0     O33646  -0.512   9.090  11.037 -0.2168 -0.9905  0.6071
  250MOL0     C33647  -0.637   9.085  11.093 -0.1633 -0.0766 -0.4078
  250MOL0     C33648  -0.678   8.977  11.178 -0.1095 -0.5153  0.3538
  250MOL0     C33649  -0.810   8.965  11.231  0.5500 -0.4927  0.3669
  250MOL0     C33650  -0.913   9.060  11.202  0.3352 -0.7115 -0.3025
  250MOL0     O33651  -1.047   9.055  11.239  0.1536  0.7709  0.0053
  250MOL0     C33652  -1.110   8.929  11.233 -0.5252  0.2257  0.1703
  250MOL0     C33653  -1.256   8.941  11.269  0.1738 -0.1420 -0.1448
  250MOL0     C33654  -1.342   8.812  11.299 -0.5677 -0.0882  0.5687
  250MOL0     C33655  -1.458   8.839  11.389 -0.1369  0.0532  0.5521
  250MOL0     C33656  -1.548   8.722  11.426  0.2420  0.8402  0.5663
  250MOL0     C33657  -1.473   8.604  11.475  0.2211 -0.4763  0.8221
  250MOL0     C33658  -1.565   8.507  11.561  0.2288 -0.0093 -0.2925
  250MOL0     C33659  -1.483   8.379  11.589 -0.1298  0.5054 -0.2158
  250MOL0    Cl33660  -1.325   8.425  11.658 -0.0597  0.6012  0.4155
  250MOL0     C33661  -0.874   9.166  11.108 -0.2847  0.1837  0.4002
  250MOL0     C33662  -0.736   9.182  11.065  0.4680  0.2037 -0.5579
  250MOL0     O33663  -0.589   8.987  10.847 -0.0730  0.3289  0.2707
  250MOL0     C33664  -0.246   9.064  10.935  0.0944  0.4829 -0.0021
  250MOL0     C33665  -0.114   9.060  10.894 -0.3609 -0.0526 -0.0092
  250MOL0     N33666   0.575   9.003  10.874 -0.6613  0.1464 -0.0907
  250MOL0     N33667   0.690   9.051  10.895 -0.2564  0.0962 -0.0419
  250MOL0     C33668   1.979   9.019  10.937  0.9683  0.6946  0.0102
  250MOL0     C33669   2.095   8.976  10.996 -0.8013  0.1137  0.0531
  250MOL0     C33670   2.491   8.708  11.056  0.1162  0.8785 -0.2506
  250MOL0     C33671   2.548   8.585  11.042 -0.7475 -0.3743 -0.6845
  250MOL0     C33672   2.666   8.558  11.121 -0.4970 -0.1145 -0.4332
  250MOL0     C33673   2.730   8.651  11.203  0.7293 -0.9082 -0.7150
  250MOL0     O33674   2.834   8.619  11.285 -0.3895  0.2143 -0.4915
  250MOL0     C33675   2.918   8.506  11.258 -0.1424  0.3098  0.2084
  250MOL0     C33676   3.063   8.543  11.299 -0.5965 -0.3472  0.3271
  250MOL0     C33677   3.166   8.429  11.264  0.4921  0.1826  0.1876
  250MOL0     C33678   3.308   8.482  11.292  0.2202 -0.2243 -0.3055
  250MOL0     C33679   3.428   8.391  11.273  0.3401 -0.1202  0.1138
  250MOL0     C33680   3.513   8.310  11.251 -0.2263 -0.1876 -0.5303
  250MOL0     C33681   2.654   8.771  11.231 -0.2068  0.6015  0.5258
  250MOL0     C33682   2.536   8.797  11.158  0.5628  0.2604 -0.5272
  250MOL0     H33683   2.215   8.796  10.738  0.6226 -0.3690 -0.0650
  250MOL0     H33684   2.025   8.868  10.638 -1.0767 -0.0705  0.0921
  250MOL0     H33685   1.635   8.916  10.715  1.6735  0.2173 -0.5633
  250MOL0     H33686   1.725   8.838  10.845 -1.4146  0.2906  0.7505
  250MOL0     H33687   1.687   9.030  10.991 -1.5567 -2.8519  1.7577
  250MOL0     H33688   1.595   9.110  10.858  0.4498 -0.7048 -0.8607
  250MOL0     H33689   1.521   8.861  11.025 -1.2769 -0.2183  0.0006
  250MOL0     H33690   1.459   9.015  11.051  4.2659 -0.0662  2.0899
  250MOL0     H33691   1.378   9.011  10.822  0.7979 -1.9460 -2.7172
  250MOL0     H33692   1.422   8.834  10.812  1.4969  1.4729 -0.7450
  250MOL0     H33693   1.245   8.780  10.954  1.2082  0.6407 -1.2067
  250MOL0     H33694   1.217   8.961  10.987 -0.8878  2.0803 -1.3786
  250MOL0     H33695   1.159   8.990  10.743  4.5961  1.1695  0.2365
  250MOL0     H33696   1.183   8.819  10.713 -0.2230  0.5816 -0.5386
  250MOL0     H33697   0.957   8.819  10.717  2.7255 -0.0714 -1.6055
  250MOL0     H33698   1.007   8.765  10.883 -0.5655  1.9913  1.4413
  250MOL0     H33699   0.951   9.057  10.843  1.2416 -0.7932 -0.9005
  250MOL0     H33700   0.947   8.954  10.983  0.4446  0.9449 -0.2407
  250MOL0     H33701   0.749   8.732  10.847 -0.2551  0.2849 -1.0709
  250MOL0     H33702   0.468   8.694  10.765  0.7469  1.0665 -1.6566
  250MOL0     H33703   0.413   8.735  10.925 -0.7522 -0.7773 -0.2682
  250MOL0     H33704   0.259   8.780  10.705 -0.1656  1.2830 -0.4621
  250MOL0     H33705   0.377   8.918  10.678  1.4863  1.9539  3.1691
  250MOL0     H33706   0.307   8.999  10.910  1.1238 -1.5628 -0.4974
  250MOL0     H33707   0.171   8.875  10.901 -1.2639 -0.8470 -0.4428
  250MOL0     H33708   0.233   9.106  10.704 -2.4999  3.1359  0.4409
  250MOL0     H33709   0.150   9.130  10.851 -0.7361  0.1723 -0.1605
  250MOL0     H33710  -0.151   8.872  10.624 -1.8120 -2.8460  1.8858
  250MOL0     H33711  -0.357   8.812  10.577 -0.2546  0.4123 -0.7419
  250MOL0     H33712  -0.494   8.831  10.680  0.5649 -2.6044 -1.2456
  250MOL0     H33713  -0.440   8.968  10.572  1.1707 -0.2997 -0.5149
  250MOL0     H33714  -0.609   8.895  11.191 -0.2144 -0.9502 -1.5312
  250MOL0     H33715  -0.833   8.879  11.294  1.7285 -0.2183  1.2042
  250MOL0     H33716  -1.103   8.897  11.129  0.7173  0.0093  0.2995
  250MOL0     H33717  -1.059   8.848  11.287 -0.8074  0.1197  0.2777
  250MOL0     H33718  -1.264   9.008  11.356  2.6808 -1.9656  1.6279
  250MOL0     H33719  -1.314   8.987  11.189 -0.6175  0.3334  0.6748
  250MOL0     H33720  -1.272   8.741  11.343 -1.7872 -1.5793  0.1771
  250MOL0     H33721  -1.370   8.774  11.201 -1.4222  2.9659 -0.4908
  250MOL0     H33722  -1.410   8.886  11.476  0.6706  1.8031 -0.7789
  250MOL0     H33723  -1.530   8.909  11.347 -0.8234 -1.2731 -0.5626
  250MOL0     H33724  -1.605   8.691  11.338  2.5784  0.9655 -1.1070
  250MOL0     H33725  -1.615   8.762  11.502 -2.9639 -0.6866 -1.2334
  250MOL0     H33726  -1.433   8.552  11.387 -0.3280  1.2657 -0.5078
  250MOL0     H33727  -1.395   8.649  11.537  1.0246 -0.3266 -0.2544
  250MOL0     H33728  -1.658   8.477  11.511 -0.2398 -1.4209  1.3456
  250MOL0     H33729  -1.593   8.547  11.659 -0.8315 -1.5999  0.0872
  250MOL0     H33730  -1.476   8.340  11.487 -3.5262 -0.8875 -0.0209
  250MOL0     H33731  -1.527   8.309  11.661  4.9597 -2.2302  0.6933
  250MOL0     H33732  -0.955   9.226  11.069  0.6614 -0.1758 -2.3123
  250MOL0     H33733  -0.701   9.257  10.995  0.8003  1.2590  0.6995
  250MOL0     H33734  -0.263   9.113  11.030  0.5823 -0.6757  0.7072
  250MOL0     H33735  -0.043   9.110  10.958  0.3565 -2.6077  1.3308
  250MOL0     H33736   1.913   9.086  10.991  0.7694 -1.3757  2.5324
  250MOL0     H33737   2.132   8.994  11.096 -1.4123  0.2893  0.2485
  250MOL0     H33738   2.502   8.501  10.990 -1.0014  1.1051 -2.9853
  250MOL0     H33739   2.702   8.458  11.100  4.0365  1.1061  0.3281
  250MOL0     H33740   2.890   8.417  11.314  0.9478  0.7109  1.4368
  250MOL0     H33741   2.907   8.478  11.153 -0.4436  1.4127 -0.0763
  250MOL0     H33742   3.072   8.561  11.407  1.2830 -2.0349  0.5135
  250MOL0     H33743   3.084   8.636  11.245 -1.0495 -1.3897 -1.7402
  250MOL0     H33744   3.168   8.389  11.162 -1.6866  1.2929 -0.3560
  250MOL0     H33745   3.139   8.344  11.328  2.4385 -0.9207 -0.3698
  250MOL0     H33746   3.301   8.510  11.398 -5.3345  1.6344 -0.8536
  250MOL0     H33747   3.324   8.575  11.237  0.0184  1.3990  2.1886
  250MOL0     H33748   3.594   8.241  11.240  0.5532  0.4872  0.7645
  250MOL0     H33749   2.686   8.838  11.310  1.7441 -0.2677  0.5276
  250MOL0     H33750   2.479   8.882  11.191 -0.3675 -0.6571  0.3046
  251MOL0     O33751   7.394   1.259   9.197  0.3631 -0.2641 -0.6402
  251MOL0     C33752   7.485   1.179   9.218  0.5587  0.2566  0.0072
  251MOL0     O33753   7.472   1.042   9.208 -0.0033  0.1588 -0.6546
  251MOL0     C33754   7.351   1.003   9.157  0.8044  0.9124 -0.5447
  251MOL0     C33755   7.251   0.955   9.248 -0.3813  0.2881 -0.2614
  251MOL0     C33756   7.137   0.889   9.209 -1.0725 -0.0007  0.3392
  251MOL0     C33757   7.108   0.880   9.069 -0.2951 -0.0438 -0.6010
  251MOL0     O33758   7.007   0.807   9.017  0.6073  0.9777 -0.1590
  251MOL0     C33759   6.899   0.766   9.109  0.5403 -0.4042  0.2595
  251MOL0     C33760   6.789   0.702   9.025 -0.1651 -0.2054  0.6736
  251MOL0     C33761   6.666   0.649   9.104  0.3860  0.1847 -0.1295
  251MOL0     C33762   6.530   0.662   9.035 -0.3514  0.4605  0.2863
  251MOL0     C33763   6.427   0.556   9.090 -0.6356  0.1765 -0.4021
  251MOL0     C33764   6.294   0.564   9.019  0.4367  0.2510 -0.8121
  251MOL0     C33765   6.187   0.464   9.074  0.4939 -0.5978  0.2145
  251MOL0     C33766   6.152   0.481   9.222 -0.3287 -0.5014 -0.3961
  251MOL0     N33767   6.033   0.398   9.264 -0.4508  1.0139  0.5124
  251MOL0     C33768   5.920   0.365   9.192 -0.5211 -0.8097 -0.0405
  251MOL0     C33769   5.829   0.321   9.288  0.2415 -0.2445  0.1958
  251MOL0     C33770   5.683   0.281   9.288 -0.2454 -0.5319  0.3774
  251MOL0     C33771   5.589   0.401   9.289 -0.4133  0.0291 -1.0826
  251MOL0     C33772   5.448   0.351   9.270  0.3994 -0.4990 -0.3269
  251MOL0     C33773   5.359   0.473   9.266 -0.0985  0.8031  0.2382
  251MOL0     O33774   5.225   0.422   9.252  0.1418 -0.1792  0.0894
  251MOL0     C33775   5.125   0.514   9.237  0.6711 -0.3090 -0.2987
  251MOL0     C33776   4.997   0.481   9.192 -0.6178 -0.0149  0.5514
  251MOL0     C33777   4.894   0.572   9.180 -0.0058 -0.5229 -0.1203
  251MOL0     C33778   4.765   0.509   9.136 -1.1392 -0.4008  0.2266
  251MOL0     C33779   4.915   0.711   9.205  0.4941 -0.4186  0.3265
  251MOL0     C33780   4.804   0.812   9.200 -0.8080 -0.8332  0.2149
  251MOL0     O33781   4.682   0.773   9.176 -0.3734 -0.0538  0.0692
  251MOL0     C33782   4.569   0.856   9.178 -0.3221  0.2313  0.9067
  251MOL0     C33783   4.563   0.989   9.220  0.3691  0.3673  0.0970
  251MOL0     C33784   4.440   1.063   9.207 -1.0585  0.6589  0.0168
  251MOL0     C33785   4.328   1.003   9.138 -0.1140  0.2994 -0.8523
  251MOL0     O33786   4.210   1.074   9.140 -0.7100  0.0535  0.6710
  251MOL0     C33787   4.082   1.004   9.141 -0.3484 -0.2679  0.5443
  251MOL0     C33788   4.033   0.992   8.989 -0.5642 -0.6430 -0.8183
  251MOL0     C33789   4.038   1.132   8.919 -0.9322  0.1633 -0.2257
  251MOL0     C33790   3.958   1.248   8.993  0.4518  1.7310  0.0758
  251MOL0     C33791   4.023   1.350   9.077  0.5607  0.7750  0.0227
  251MOL0     C33792   3.927   1.475   9.110  1.1315 -0.3265 -0.2140
  251MOL0     C33793   3.804   1.441   9.187 -0.0486  0.4086 -0.4721
  251MOL0     C33794   3.700   1.556   9.195  0.4226  1.3470  0.4028
  251MOL0    Cl33795   3.550   1.497   9.283  0.3072  0.0978 -0.2639
  251MOL0     C33796   4.336   0.860   9.108  0.2018 -0.8327 -0.0975
  251MOL0     C33797   4.460   0.792   9.118 -0.1058 -0.5616  0.2453
  251MOL0     O33798   4.842   0.929   9.211 -0.2343 -0.0551  0.1161
  251MOL0     C33799   5.045   0.751   9.244  0.1587  0.6339 -0.6209
  251MOL0     C33800   5.142   0.653   9.257 -0.1597  0.9776  0.5051
  251MOL0     N33801   5.893   0.321   9.415  0.1115 -0.4862  0.1441
  251MOL0     N33802   6.011   0.370   9.394 -0.2520 -0.2354  0.0525
  251MOL0     C33803   7.192   0.946   8.978  1.0797  0.4478 -0.5524
  251MOL0     C33804   7.315   0.998   9.024  0.0689  0.4466 -0.6859
  251MOL0     C33805   7.616   1.231   9.257  0.1622  0.4967  0.6781
  251MOL0     C33806   7.659   1.353   9.213  0.2459  0.2298  0.2173
  251MOL0     C33807   7.786   1.397   9.257  0.5714 -0.2570 -0.3707
  251MOL0     C33808   7.862   1.324   9.355  0.0356 -0.8050  0.2316
  251MOL0     O33809   7.982   1.378   9.391  0.2501 -0.0730 -0.5729
  251MOL0     C33810   8.092   1.291   9.427 -0.3500 -0.3962  0.4088
  251MOL0     C33811   8.229   1.358   9.418  0.7985 -1.1343 -1.0568
  251MOL0     C33812   8.255   1.469   9.532 -0.2439 -0.7088  1.0434
  251MOL0     C33813   8.267   1.414   9.675  0.1462 -0.0633  0.3161
  251MOL0     C33814   8.396   1.339   9.686  0.4767 -0.0545  0.0102
  251MOL0     C33815   8.494   1.274   9.723 -0.1280 -0.2311  0.0725
  251MOL0     C33816   7.802   1.209   9.407 -0.1931  0.3342 -0.3329
  251MOL0     C33817   7.689   1.157   9.348  0.1355  0.3050  0.3039
  251MOL0     H33818   7.278   0.954   9.353 -0.2904 -2.3100 -0.2614
  251MOL0     H33819   7.068   0.862   9.288 -1.7418 -2.3003 -0.9269
  251MOL0     H33820   6.934   0.689   9.178  0.9653  1.7021  2.5365
  251MOL0     H33821   6.859   0.857   9.155  1.0771  0.0657 -0.1905
  251MOL0     H33822   6.753   0.784   8.962 -0.1211  2.0632  3.3879
  251MOL0     H33823   6.823   0.621   8.960 -0.2363  2.0987 -2.4959
  251MOL0     H33824   6.678   0.540   9.109 -2.0809 -0.2749 -2.1667
  251MOL0     H33825   6.666   0.692   9.205  0.4175 -1.2274  0.4906
  251MOL0     H33826   6.492   0.764   9.041 -0.4126  0.3619  2.8537
  251MOL0     H33827   6.557   0.643   8.931  0.5365  2.5742  0.0828
  251MOL0     H33828   6.467   0.455   9.078 -3.3879 -1.2355  1.3546
  251MOL0     H33829   6.407   0.571   9.197 -1.8961  1.2275 -0.7667
  251MOL0     H33830   6.267   0.670   9.027  3.6166  1.1675 -1.0927
  251MOL0     H33831   6.302   0.549   8.911 -1.6369  0.1938 -1.0098
  251MOL0     H33832   6.099   0.459   9.010  1.4365 -1.8346 -1.0523
  251MOL0     H33833   6.239   0.368   9.062 -0.8898 -1.3220 -0.2194
  251MOL0     H33834   6.134   0.588   9.234  0.1029 -0.5542  0.9216
  251MOL0     H33835   6.233   0.442   9.285 -1.0153 -1.4607 -0.0981
  251MOL0     H33836   5.914   0.382   9.085  2.8168  1.8883  0.0235
  251MOL0     H33837   5.666   0.224   9.196 -1.4185 -1.7790  1.3324
  251MOL0     H33838   5.675   0.211   9.371  1.9497 -1.1608  0.1167
  251MOL0     H33839   5.615   0.463   9.204  2.2308  1.0465  0.3609
  251MOL0     H33840   5.609   0.457   9.381  2.5568 -0.7146 -1.1939
  251MOL0     H33841   5.425   0.291   9.359  2.6027  1.2924  1.5999
  251MOL0     H33842   5.441   0.286   9.183 -1.1857 -1.4800  0.4756
  251MOL0     H33843   5.389   0.543   9.187  0.3409 -1.1909 -1.4573
  251MOL0     H33844   5.367   0.519   9.364 -1.3666  0.1606  0.6669
  251MOL0     H33845   4.996   0.377   9.162 -1.4728  0.5546 -1.5825
  251MOL0     H33846   4.688   0.516   9.213 -2.5625  2.9407 -1.2978
  251MOL0     H33847   4.730   0.570   9.052  1.5435  2.4106  0.9811
  251MOL0     H33848   4.782   0.405   9.106 -1.3617 -0.3386 -0.1130
  251MOL0     H33849   4.646   1.043   9.263  0.5558  1.9145 -2.0714
  251MOL0     H33850   4.443   1.170   9.227  1.5281  0.5746  0.4307
  251MOL0     H33851   4.090   0.905   9.186  0.3309 -0.1767  0.6320
  251MOL0     H33852   4.008   1.057   9.203 -0.2649 -1.3040  1.5511
  251MOL0     H33853   4.096   0.918   8.939  1.1801 -1.1629  1.9579
  251MOL0     H33854   3.930   0.955   8.977 -1.6442  2.0162 -0.6061
  251MOL0     H33855   3.990   1.119   8.822 -2.6207 -0.2874  0.6224
  251MOL0     H33856   4.141   1.167   8.922 -0.1553 -1.9728  0.2829
  251MOL0     H33857   3.908   1.298   8.909  1.2012  1.9415 -0.2480
  251MOL0     H33858   3.875   1.196   9.041  3.3864 -2.1090  1.4526
  251MOL0     H33859   4.105   1.384   9.013 -0.5341 -0.0709 -1.9099
  251MOL0     H33860   4.075   1.318   9.168  1.3361  2.3999  0.1787
  251MOL0     H33861   3.989   1.544   9.168  1.6195 -1.1125  0.2184
  251MOL0     H33862   3.894   1.528   9.021 -2.6446  0.9907  1.7433
  251MOL0     H33863   3.829   1.402   9.286 -1.1828 -2.0368 -1.0631
  251MOL0     H33864   3.758   1.350   9.149  0.3222 -0.5133  1.1925
  251MOL0     H33865   3.679   1.598   9.096 -0.5160 -0.2688 -0.1234
  251MOL0     H33866   3.746   1.643   9.244 -0.9813  3.3027 -1.5309
  251MOL0     H33867   4.253   0.813   9.056 -1.2809  0.6258  0.8499
  251MOL0     H33868   4.463   0.688   9.088  1.5045  0.0635 -2.0846
  251MOL0     H33869   5.057   0.853   9.281  1.9442 -0.5281  2.3755
  251MOL0     H33870   5.235   0.697   9.291 -1.9925  5.2342  0.5777
  251MOL0     H33871   7.155   0.949   8.876 -3.3311  1.3813  0.8618
  251MOL0     H33872   7.382   1.042   8.951  3.5076 -2.2600  0.5393
  251MOL0     H33873   7.593   1.420   9.160 -1.1527 -0.9335  0.4286
  251MOL0     H33874   7.836   1.490   9.230 -1.6001  1.2498  0.6002
  251MOL0     H33875   8.064   1.269   9.530 -0.6337  0.1750  0.4531
  251MOL0     H33876   8.095   1.199   9.367  1.1159 -0.5805  0.7156
  251MOL0     H33877   8.237   1.394   9.315 -0.5348 -1.4607 -1.2945
  251MOL0     H33878   8.305   1.283   9.440 -1.7574 -2.8145  3.1952
  251MOL0     H33879   8.184   1.552   9.540 -2.7180 -2.7357  1.4335
  251MOL0     H33880   8.350   1.514   9.500 -0.4878 -0.9928 -0.1495
  251MOL0     H33881   8.175   1.360   9.696 -0.6308  0.8222 -0.6990
  251MOL0     H33882   8.281   1.505   9.734 -1.8991  0.3769  0.1823
  251MOL0     H33883   8.584   1.221   9.750 -0.7327 -1.9640 -1.1024
  251MOL0     H33884   7.848   1.145   9.482 -0.0183  0.6400 -0.1805
  251MOL0     H33885   7.647   1.063   9.382  0.0068  0.2414 -0.0284
  252MOL0     O33886   1.876  10.130   1.869  0.4872 -0.0822  0.0429
  252MOL0     C33887   1.921  10.189   1.963  0.4898 -0.6807  0.1097
  252MOL0     O33888   1.846  10.246   2.062  0.4264  0.1188 -0.2027
  252MOL0     C33889   1.706  10.229   2.059 -0.1600  0.4007  0.0199
  252MOL0     C33890   1.635  10.321   1.988 -0.2282  0.2496  0.7239
  252MOL0     C33891   1.494  10.312   1.980  0.4985  0.0355 -0.1231
  252MOL0     C33892   1.430  10.204   2.041  0.5752 -0.4128  0.2183
  252MOL0     O33893   1.293  10.209   2.040 -1.0423  0.3880  0.0333
  252MOL0     C33894   1.221  10.104   2.099 -0.2315  0.5585 -0.3762
  252MOL0     C33895   1.080  10.091   2.032 -0.2934  0.8327 -0.6949
  252MOL0     C33896   0.994   9.984   2.094  0.0166  0.5251 -0.3909
  252MOL0     C33897   0.858   9.982   2.029 -1.0472 -0.6198  0.6320
  252MOL0     C33898   0.760   9.891   2.090 -0.1907  0.1507 -0.1527
  252MOL0     C33899   0.623   9.892   2.007 -0.2141 -0.4995  0.6083
  252MOL0     C33900   0.500   9.833   2.083 -0.0809  0.1958 -0.7131
  252MOL0     C33901   0.373   9.865   2.004  0.1623  0.0899 -1.2323
  252MOL0     N33902   0.257   9.817   2.078  0.6074 -0.1156  0.1652
  252MOL0     C33903   0.188   9.880   2.178  0.7841 -0.2170  0.3670
  252MOL0     C33904   0.109   9.780   2.220  0.4551 -0.2945 -0.3847
  252MOL0     C33905   0.004   9.795   2.330  0.2967  0.1453 -0.0666
  252MOL0     C33906  -0.141   9.779   2.269 -0.7525  0.2524 -0.0340
  252MOL0     C33907  -0.253   9.873   2.331 -0.2509 -0.1694 -0.0268
  252MOL0     C33908  -0.294   9.823   2.471 -0.5367  0.2520  0.2663
  252MOL0     O33909  -0.410   9.876   2.524 -0.1347 -0.9078  0.8668
  252MOL0     C33910  -0.542   9.857   2.478  0.5017  0.9771 -0.2172
  252MOL0     C33911  -0.579   9.752   2.389  0.5508  0.2596 -0.2072
  252MOL0     C33912  -0.700   9.763   2.324 -0.1889  0.1537  0.7082
  252MOL0     C33913  -0.731   9.658   2.223  0.3320  0.1745 -0.0866
  252MOL0     C33914  -0.794   9.860   2.357  0.0700 -0.2013  0.0949
  252MOL0     C33915  -0.925   9.872   2.298  0.5346 -0.1349 -0.2176
  252MOL0     O33916  -1.009   9.964   2.358 -0.6268  0.6064 -0.1299
  252MOL0     C33917  -1.130   9.990   2.300  0.2108  0.0208  0.0479
  252MOL0     C33918  -1.160  10.127   2.288  0.2395 -0.1052 -0.1635
  252MOL0     C33919  -1.264  10.178   2.210 -0.0379  1.2821  0.2495
  252MOL0     C33920  -1.359  10.086   2.159 -0.3496  0.3054 -0.0152
  252MOL0     O33921  -1.469  10.132   2.087  0.0077  0.8536  0.2785
  252MOL0     C33922  -1.587  10.051   2.075  0.2046  0.9048  0.3815
  252MOL0     C33923  -1.704  10.134   2.019 -0.0063 -0.9647  1.1720
  252MOL0     C33924  -1.832  10.047   2.009  0.2079  0.1495 -0.5377
  252MOL0     C33925  -1.965  10.119   1.974 -0.5292 -0.4139  0.6484
  252MOL0     C33926  -2.088  10.035   2.028  0.1993  0.0445  0.1893
  252MOL0     C33927  -2.227  10.100   1.982  0.6581 -0.4537 -0.7595
  252MOL0     C33928  -2.272  10.103   1.833 -0.7615  0.2508  0.8235
  252MOL0     C33929  -2.424  10.116   1.801  0.2551  1.5211  0.4595
  252MOL0    Cl33930  -2.458  10.054   1.628 -0.1091 -0.2438  0.5511
  252MOL0     C33931  -1.348   9.946   2.198 -0.0315 -0.2784  1.0500
  252MOL0     C33932  -1.229   9.901   2.263 -0.1691 -0.2363 -0.1260
  252MOL0     O33933  -0.947   9.829   2.189  0.0007  0.6385 -0.0877
  252MOL0     C33934  -0.763   9.952   2.458 -0.0764  0.3002  0.4526
  252MOL0     C33935  -0.635   9.948   2.520  0.3198  0.7322 -0.4805
  252MOL0     N33936   0.129   9.659   2.156 -0.2748  0.2254  0.7651
  252MOL0     N33937   0.214   9.684   2.069 -0.1210  0.5728 -0.6708
  252MOL0     C33938   1.503  10.107   2.108 -0.1216 -1.3020  0.6336
  252MOL0     C33939   1.643  10.124   2.119  0.0837  0.6333 -0.1665
  252MOL0     C33940   2.069  10.177   1.978 -1.1454  0.6372 -0.2698
  252MOL0     C33941   2.127  10.219   2.099  0.2814  0.2329  0.0457
  252MOL0     C33942   2.266  10.209   2.120  0.1023 -0.4012  0.8716
  252MOL0     C33943   2.342  10.166   2.006  0.6359  0.4989 -1.2413
  252MOL0     O33944   2.476  10.144   2.020 -0.0759  0.1135  0.2063
  252MOL0     C33945   2.545  10.226   2.111  0.7849  0.2886 -0.3018
  252MOL0     C33946   2.578  10.165   2.253 -0.4375 -0.0316 -0.0194
  252MOL0     C33947   2.665  10.268   2.336 -0.0109  0.3846  0.2870
  252MOL0     C33948   2.769  10.206   2.426 -0.4465  0.0142  0.0883
  252MOL0     C33949   2.856  10.309   2.486  0.6088  0.3359  0.2241
  252MOL0     C33950   2.908  10.393   2.543  0.2135  0.0078 -0.5147
  252MOL0     C33951   2.293  10.132   1.886 -0.1879  0.2774 -0.4437
  252MOL0     C33952   2.156  10.139   1.879 -0.1954  0.7783 -0.3081
  252MOL0     H33953   1.700  10.394   1.940  2.5198 -2.1432  0.5028
  252MOL0     H33954   1.448  10.392   1.923  0.3096  1.4060  1.8539
  252MOL0     H33955   1.276  10.011   2.085  0.0189  0.1344  2.7265
  252MOL0     H33956   1.212  10.118   2.207  2.3021  1.0429 -0.1735
  252MOL0     H33957   1.031  10.188   2.034  0.8305  1.4172  1.2621
  252MOL0     H33958   1.093  10.044   1.933  1.0140 -1.5555  0.5163
  252MOL0     H33959   1.050   9.893   2.072  2.3884  2.4496 -3.0220
  252MOL0     H33960   0.979   9.998   2.202  2.2581  3.7165 -0.3258
  252MOL0     H33961   0.829  10.088   2.030 -2.7725 -1.0128  2.6445
  252MOL0     H33962   0.875   9.957   1.924  1.5430 -1.0746  1.1062
  252MOL0     H33963   0.806   9.792   2.085  0.4206  0.3916  0.5030
  252MOL0     H33964   0.746   9.916   2.196 -0.9425  2.6656 -0.7681
  252MOL0     H33965   0.602   9.996   1.981 -0.5269 -0.7977 -0.3609
  252MOL0     H33966   0.637   9.824   1.922 -0.1123 -0.5072  0.6319
  252MOL0     H33967   0.496   9.725   2.100 -2.9598  0.6038  2.1761
  252MOL0     H33968   0.493   9.881   2.181  1.5745 -0.3579 -0.2973
  252MOL0     H33969   0.391   9.819   1.906 -1.0337 -0.8082 -1.0609
  252MOL0     H33970   0.368   9.974   1.997 -1.9355  0.1211  0.0840
  252MOL0     H33971   0.205   9.983   2.206  1.9965 -0.1464 -0.5262
  252MOL0     H33972   0.021   9.738   2.422  1.8995 -2.6040 -1.9309
  252MOL0     H33973   0.004   9.899   2.363  4.3827  0.2785  0.1039
  252MOL0     H33974  -0.164   9.673   2.268  1.9438 -0.4422  1.3528
  252MOL0     H33975  -0.122   9.813   2.167  0.5859 -1.8582 -0.5507
  252MOL0     H33976  -0.340   9.861   2.267 -0.2209 -1.3070  0.1251
  252MOL0     H33977  -0.228   9.979   2.346  2.2814 -0.5888 -0.7357
  252MOL0     H33978  -0.219   9.831   2.550  0.0609  0.9401 -0.3527
  252MOL0     H33979  -0.306   9.715   2.463 -0.1091  0.2536 -0.5547
  252MOL0     H33980  -0.498   9.683   2.366  1.4345  1.0673  0.4199
  252MOL0     H33981  -0.829   9.616   2.247  0.2063  1.1522  1.2369
  252MOL0     H33982  -0.726   9.693   2.119  0.0120  1.1458  0.2089
  252MOL0     H33983  -0.663   9.573   2.234  1.2066  0.8692  0.0128
  252MOL0     H33984  -1.088  10.193   2.336 -0.6493  1.6477 -1.1585
  252MOL0     H33985  -1.264  10.286   2.208  2.7337  1.4128  2.0269
  252MOL0     H33986  -1.559   9.977   2.000  1.2481  2.3867 -0.7589
  252MOL0     H33987  -1.622   9.993   2.161  0.1904 -2.1152 -1.4962
  252MOL0     H33988  -1.740  10.211   2.088 -2.6452 -0.4232 -0.6682
  252MOL0     H33989  -1.680  10.180   1.923 -0.4162 -2.5582  0.2632
  252MOL0     H33990  -1.852   9.996   2.104 -0.4899 -0.5880 -1.0747
  252MOL0     H33991  -1.825   9.962   1.941 -0.8571 -0.5095  0.1473
  252MOL0     H33992  -1.956  10.211   2.031  4.2401 -0.0772 -0.2620
  252MOL0     H33993  -1.979  10.137   1.867 -3.5552 -2.3826  0.5714
  252MOL0     H33994  -2.081  10.035   2.137  0.4311 -0.0110  0.1739
  252MOL0     H33995  -2.071   9.931   2.000  1.3572  0.1623  0.4262
  252MOL0     H33996  -2.307  10.047   2.034  2.5822 -1.8394  0.9596
  252MOL0     H33997  -2.235  10.204   2.014  4.1157 -0.3800  0.2929
  252MOL0     H33998  -2.236  10.009   1.790  0.6072  0.9028  0.4809
  252MOL0     H33999  -2.209  10.183   1.794  0.9913 -1.4592 -0.0193
  252MOL0     H34000  -2.452  10.221   1.808  0.0661  1.6206 -1.3604
  252MOL0     H34001  -2.475  10.047   1.869 -0.1825 -1.8073 -2.9433
  252MOL0     H34002  -1.424   9.874   2.169  1.3886 -0.2199 -3.7613
  252MOL0     H34003  -1.210   9.797   2.288 -1.1758 -1.1041 -2.6004
  252MOL0     H34004  -0.829  10.034   2.486 -2.9777 -2.2255  1.5801
  252MOL0     H34005  -0.609  10.030   2.587 -2.9345  2.1616 -0.7739
  252MOL0     H34006   1.465  10.017   2.157 -2.4293 -0.4411  0.5259
  252MOL0     H34007   1.701  10.051   2.175 -0.7185  0.1582  0.0643
  252MOL0     H34008   2.073  10.268   2.179  0.0221  1.1529 -0.6728
  252MOL0     H34009   2.314  10.228   2.216  0.4172  0.3364  0.5714
  252MOL0     H34010   2.643  10.247   2.066 -0.3849  0.3575 -2.9778
  252MOL0     H34011   2.499  10.323   2.130 -2.2182 -1.3049  1.1976
  252MOL0     H34012   2.635  10.072   2.241 -2.1525 -1.2970  1.2203
  252MOL0     H34013   2.492  10.127   2.309 -0.2901 -0.0976  0.1607
  252MOL0     H34014   2.599  10.334   2.394  1.5561  3.1258 -0.8723
  252MOL0     H34015   2.714  10.335   2.266 -3.0792  4.6357  1.7847
  252MOL0     H34016   2.839  10.137   2.377 -0.3447  1.4050 -1.8524
  252MOL0     H34017   2.720  10.143   2.500 -0.7421 -0.3176 -0.3790
  252MOL0     H34018   2.963  10.467   2.597 -0.3662  0.8995 -1.0914
  252MOL0     H34019   2.359  10.113   1.802  1.7076 -0.1154  1.0801
  252MOL0     H34020   2.110  10.116   1.783 -1.7084 -0.4644  0.6642
  253MOL0     O34021   0.734   0.690   5.114  0.0434 -0.0530 -0.5100
  253MOL0     C34022   0.797   0.612   5.042  0.5846  0.4220  0.0583
  253MOL0     O34023   0.763   0.561   4.920  0.0839 -0.4818 -0.3810
  253MOL0     C34024   0.628   0.582   4.865 -1.4869 -1.1899 -0.5209
  253MOL0     C34025   0.601   0.578   4.730  0.4897  0.7597  0.1921
  253MOL0     C34026   0.471   0.589   4.679  0.4002  0.2646  0.1342
  253MOL0     C34027   0.360   0.587   4.765  0.9493 -0.6047  0.4634
  253MOL0     O34028   0.227   0.606   4.728  0.4223 -0.6571  0.0894
  253MOL0     C34029   0.194   0.690   4.623  0.2058 -0.0020  0.5808
  253MOL0     C34030   0.053   0.752   4.649  0.2705  0.0727 -0.1612
  253MOL0     C34031  -0.056   0.641   4.658  0.5550 -0.7617 -0.1775
  253MOL0     C34032  -0.190   0.710   4.704 -0.5067  0.3681  0.1068
  253MOL0     C34033  -0.313   0.624   4.699 -0.3452 -0.9043  0.4900
  253MOL0     C34034  -0.436   0.695   4.762 -0.3406  0.6577 -0.4681
  253MOL0     C34035  -0.560   0.603   4.750 -0.0225 -0.3208  0.1985
  253MOL0     C34036  -0.662   0.628   4.857 -0.3220 -0.1003 -0.5611
  253MOL0     N34037  -0.629   0.557   4.981 -0.5868  0.0041 -0.1166
  253MOL0     C34038  -0.635   0.421   5.001 -1.0253 -0.0107  1.1726
  253MOL0     C34039  -0.618   0.401   5.136 -0.6427 -0.8578  0.6189
  253MOL0     C34040  -0.619   0.262   5.200 -0.0258 -0.4610 -0.9008
  253MOL0     C34041  -0.748   0.249   5.278  0.6785 -0.7433 -0.5135
  253MOL0     C34042  -0.874   0.292   5.199  0.1416 -0.0224  0.1058
  253MOL0     C34043  -0.994   0.242   5.275  0.1490 -0.2478 -0.1522
  253MOL0     O34044  -1.120   0.281   5.222  0.2816 -0.0086 -0.2811
  253MOL0     C34045  -1.231   0.263   5.295  0.0526 -0.1208  1.1230
  253MOL0     C34046  -1.344   0.329   5.254  0.3779  0.2185 -0.7694
  253MOL0     C34047  -1.475   0.304   5.306  0.9167 -0.6758  0.2769
  253MOL0     C34048  -1.592   0.387   5.251  0.7554  0.4061 -0.3780
  253MOL0     C34049  -1.487   0.220   5.424 -0.2024  0.1905 -0.4212
  253MOL0     C34050  -1.622   0.189   5.485  0.6521 -0.8147 -0.1677
  253MOL0     O34051  -1.612   0.151   5.617  0.0499  0.8171  0.0153
  253MOL0     C34052  -1.735   0.102   5.670  0.0229  0.1853  0.3346
  253MOL0     C34053  -1.802   0.181   5.769  0.0623 -0.4119 -0.2097
  253MOL0     C34054  -1.918   0.133   5.826 -0.5799  0.2500  0.5928
  253MOL0     C34055  -1.973   0.012   5.774  0.1436  0.3822 -0.1365
  253MOL0     O34056  -2.088  -0.041   5.827  0.3013  0.1652  0.4322
  253MOL0     C34057  -2.123  -0.019   5.965  0.7815  0.5520  0.1724
  253MOL0     C34058  -2.225  -0.130   6.020  0.3960  0.4193 -0.1424
  253MOL0     C34059  -2.362  -0.102   5.951 -1.1869 -0.2895 -0.6250
  253MOL0     C34060  -2.387  -0.146   5.803  0.1720  0.4381 -0.3605
  253MOL0     C34061  -2.536  -0.138   5.780  0.1904 -0.0041 -0.3343
  253MOL0     C34062  -2.561  -0.154   5.630 -0.2139  0.9118  0.3283
  253MOL0     C34063  -2.703  -0.105   5.599 -0.0426  0.2364  0.8660
  253MOL0     C34064  -2.754  -0.162   5.463 -0.1791  0.0972 -0.1552
  253MOL0    Cl34065  -2.652  -0.101   5.333  0.0322  0.1293 -0.2014
  253MOL0     C34066  -1.907  -0.065   5.678 -0.7399 -0.1405  0.3283
  253MOL0     C34067  -1.779  -0.025   5.629  0.0827 -0.6717  0.5531
  253MOL0     O34068  -1.723   0.178   5.416  0.2923 -0.5511 -0.2334
  253MOL0     C34069  -1.366   0.167   5.472  0.6740 -0.1030  0.3949
  253MOL0     C34070  -1.246   0.175   5.403 -0.2642  0.3393  0.2393
  253MOL0     N34071  -0.579   0.528   5.186  0.2253 -0.3528  0.5482
  253MOL0     N34072  -0.594   0.619   5.098  0.0844  0.1270  0.8362
  253MOL0     C34073   0.388   0.579   4.907  0.8404  0.5410  1.0000
  253MOL0     C34074   0.521   0.570   4.954  0.1879 -0.0726  0.3096
  253MOL0     C34075   0.927   0.555   5.101  0.1273  0.8224 -0.3016
  253MOL0     C34076   0.995   0.448   5.032 -0.0556 -0.6356  0.0917
  253MOL0     C34077   1.127   0.430   5.067 -0.2510 -0.0991 -0.0001
  253MOL0     C34078   1.175   0.462   5.194 -0.5560 -0.6487  0.3679
  253MOL0     O34079   1.303   0.438   5.231 -0.0463 -0.2598 -0.1525
  253MOL0     C34080   1.312   0.358   5.359  0.5259 -0.1961  0.4702
  253MOL0     C34081   1.459   0.356   5.409 -0.4247 -0.1205  0.4725
  253MOL0     C34082   1.491   0.322   5.550  0.5138 -0.9531  0.2332
  253MOL0     C34083   1.638   0.320   5.583  0.4213 -0.0548  0.3326
  253MOL0     C34084   1.706   0.452   5.602 -0.0090  0.0954  0.1076
  253MOL0     C34085   1.764   0.551   5.615  0.4219 -0.5984  0.3061
  253MOL0     C34086   1.087   0.533   5.272  0.6198 -1.2236 -0.4725
  253MOL0     C34087   0.969   0.593   5.231 -0.2994  0.5416  0.0477
  253MOL0     H34088   0.692   0.569   4.671  0.4549  0.6252  0.1587
  253MOL0     H34089   0.439   0.583   4.575 -0.1073  1.9440  0.1636
  253MOL0     H34090   0.275   0.763   4.631  1.5731 -1.5142  1.0444
  253MOL0     H34091   0.202   0.641   4.525  0.4280  0.0736  0.5608
  253MOL0     H34092   0.056   0.813   4.740  0.5813  3.1313 -2.0749
  253MOL0     H34093   0.020   0.816   4.567 -1.8886  0.0479  0.6117
  253MOL0     H34094  -0.057   0.578   4.568  0.8123  0.0448 -0.7533
  253MOL0     H34095  -0.033   0.590   4.752 -2.7439  0.9935  1.7489
  253MOL0     H34096  -0.183   0.757   4.803 -0.1780  1.6122 -0.4855
  253MOL0     H34097  -0.207   0.792   4.633  0.4102  0.5646  0.0965
  253MOL0     H34098  -0.320   0.589   4.596 -0.2382 -1.2644  0.6042
  253MOL0     H34099  -0.301   0.535   4.760 -2.2651 -0.3942  1.7155
  253MOL0     H34100  -0.423   0.725   4.866  1.7402  2.2020 -1.0891
  253MOL0     H34101  -0.455   0.791   4.713 -2.4364  0.1104 -0.8199
  253MOL0     H34102  -0.602   0.634   4.654 -3.9794 -2.7707  0.9153
  253MOL0     H34103  -0.553   0.494   4.745 -1.0178 -0.6639  3.5524
  253MOL0     H34104  -0.764   0.599   4.830 -0.6848  1.2857 -0.7572
  253MOL0     H34105  -0.662   0.736   4.874 -0.2323  0.1740 -2.1075
  253MOL0     H34106  -0.673   0.351   4.927 -0.0047  2.9769 -2.4917
  253MOL0     H34107  -0.586   0.190   5.125 -1.7678 -1.3760 -0.8543
  253MOL0     H34108  -0.537   0.253   5.272  0.9116 -3.7881 -2.2058
  253MOL0     H34109  -0.729   0.319   5.360  3.4863  3.4538 -4.2930
  253MOL0     H34110  -0.750   0.144   5.309  3.7214 -1.0686 -1.1405
  253MOL0     H34111  -0.869   0.238   5.104  1.2877  1.1529 -0.5331
  253MOL0     H34112  -0.900   0.397   5.184 -1.3765 -0.5021 -0.9139
  253MOL0     H34113  -0.983   0.265   5.381  0.9436 -6.7828  1.5855
  253MOL0     H34114  -1.001   0.133   5.279 -0.5524 -0.1763  0.8813
  253MOL0     H34115  -1.327   0.409   5.183  2.3017 -1.3255 -2.1485
  253MOL0     H34116  -1.655   0.417   5.335 -1.5716 -1.4276 -1.3478
  253MOL0     H34117  -1.568   0.473   5.188  2.4551  0.0521 -0.2876
  253MOL0     H34118  -1.651   0.311   5.199  1.2597 -0.6693  0.5560
  253MOL0     H34119  -1.766   0.275   5.810  1.1176 -1.5032  1.5073
  253MOL0     H34120  -1.971   0.191   5.901  1.5204  1.5571  1.1689
  253MOL0     H34121  -2.033  -0.034   6.024  0.6870 -0.6479  0.0439
  253MOL0     H34122  -2.172   0.076   5.989  2.5722  1.2197  1.3594
  253MOL0     H34123  -2.200  -0.234   5.999  0.1428  0.6415 -1.7043
  253MOL0     H34124  -2.236  -0.120   6.128  0.5048 -3.8118  0.4438
  253MOL0     H34125  -2.387   0.003   5.969  3.8015  0.9236  1.0239
  253MOL0     H34126  -2.432  -0.158   6.014 -0.5610  1.8191  2.1335
  253MOL0     H34127  -2.333  -0.082   5.732  1.1796 -0.7283 -0.6619
  253MOL0     H34128  -2.363  -0.247   5.772 -2.5650 -0.8402  1.2747
  253MOL0     H34129  -2.573  -0.039   5.808 -3.7614 -1.7636  1.5256
  253MOL0     H34130  -2.597  -0.206   5.840 -0.3958  1.2594  0.5584
  253MOL0     H34131  -2.491  -0.093   5.571 -1.9348  1.4061 -1.3090
  253MOL0     H34132  -2.545  -0.259   5.602 -1.1062  1.1208 -1.1082
  253MOL0     H34133  -2.706   0.004   5.591  2.3435  0.2233 -1.6024
  253MOL0     H34134  -2.769  -0.157   5.669 -0.2689 -1.5960 -0.6317
  253MOL0     H34135  -2.858  -0.132   5.444  0.1299  0.6435 -1.0029
  253MOL0     H34136  -2.749  -0.271   5.472 -0.8673  0.1938  2.1583
  253MOL0     H34137  -1.946  -0.163   5.652  0.8820 -1.0920  1.3651
  253MOL0     H34138  -1.720  -0.081   5.557 -0.4444 -1.9801  1.0922
  253MOL0     H34139  -1.382   0.120   5.568 -0.9540 -0.1538  0.1270
  253MOL0     H34140  -1.164   0.108   5.428  0.4130  1.7994  2.1784
  253MOL0     H34141   0.308   0.570   4.980 -1.3681 -0.7019 -1.3905
  253MOL0     H34142   0.539   0.552   5.059  0.2187 -3.7474 -0.1810
  253MOL0     H34143   0.960   0.409   4.937 -0.2027  0.8646 -0.5031
  253MOL0     H34144   1.180   0.362   5.002 -1.0367 -0.7371  0.0061
  253MOL0     H34145   1.253   0.398   5.442 -0.1956  0.0274 -0.1389
  253MOL0     H34146   1.265   0.262   5.337 -0.3993  0.5474 -0.9140
  253MOL0     H34147   1.484   0.462   5.399 -0.5836 -0.0251  1.0404
  253MOL0     H34148   1.525   0.295   5.347 -1.4463 -1.6186  0.8232
  253MOL0     H34149   1.439   0.225   5.555  1.4460 -1.4100  2.5936
  253MOL0     H34150   1.440   0.395   5.614  1.5408  0.5638 -0.6065
  253MOL0     H34151   1.696   0.267   5.507 -0.1818 -1.5411  0.8821
  253MOL0     H34152   1.639   0.269   5.680 -0.2185 -0.8411 -0.0641
  253MOL0     H34153   1.817   0.642   5.637 -2.1528  1.3316 -0.9759
  253MOL0     H34154   1.109   0.556   5.376  0.0755  0.0586 -0.6257
  253MOL0     H34155   0.911   0.657   5.296 -0.8899  0.2439 -0.1848
  254MOL0     O34156   3.164   3.219   4.666 -0.1011  0.4030  0.3482
  254MOL0     C34157   3.248   3.275   4.736 -1.1638 -0.1657  0.0515
  254MOL0     O34158   3.230   3.363   4.836  0.5905 -0.3719  0.0025
  254MOL0     C34159   3.102   3.406   4.865  0.5121  0.6312  0.8053
  254MOL0     C34160   3.020   3.345   4.956  0.3425 -0.3554 -0.2565
  254MOL0     C34161   2.895   3.395   4.987  0.7994 -0.4164 -0.3440
  254MOL0     C34162   2.840   3.508   4.931 -0.4897 -0.2553 -0.0694
  254MOL0     O34163   2.724   3.547   4.987  0.0058 -0.5377 -0.1338
  254MOL0     C34164   2.673   3.676   4.940 -0.3561 -0.4942  0.0587
  254MOL0     C34165   2.610   3.766   5.054 -0.8881  0.4838  0.1665
  254MOL0     C34166   2.731   3.800   5.148  0.4695  0.1365 -1.0546
  254MOL0     C34167   2.830   3.900   5.083  0.1764  0.0637  0.3245
  254MOL0     C34168   2.907   3.993   5.170  0.0032 -0.2525  0.2906
  254MOL0     C34169   3.002   3.916   5.263 -0.4241  0.7508  0.3364
  254MOL0     C34170   3.099   4.011   5.333 -0.2008  0.2573  0.0862
  254MOL0     C34171   3.219   3.929   5.382 -1.1728 -0.6105  0.4106
  254MOL0     N34172   3.320   4.031   5.423 -0.0016  0.1236 -0.3571
  254MOL0     C34173   3.320   4.108   5.539  0.4795 -0.4952 -0.0622
  254MOL0     C34174   3.448   4.165   5.540  1.0292  0.6585 -0.3818
  254MOL0     C34175   3.494   4.269   5.631 -0.2448 -0.3582 -0.0380
  254MOL0     C34176   3.488   4.231   5.783  0.1155 -0.0878  0.4460
  254MOL0     C34177   3.561   4.330   5.865 -0.0510  0.1312 -0.4882
  254MOL0     C34178   3.568   4.274   6.008 -0.2165 -0.3013 -0.0953
  254MOL0     O34179   3.630   4.381   6.090  0.4605  0.7739 -0.1508
  254MOL0     C34180   3.624   4.342   6.223 -0.6402 -0.0044 -0.2221
  254MOL0     C34181   3.745   4.297   6.280  0.3364  0.2140  0.2186
  254MOL0     C34182   3.763   4.243   6.412 -1.2444  0.5082  0.2305
  254MOL0     C34183   3.907   4.217   6.477 -0.8328  0.0608 -0.1244
  254MOL0     C34184   3.645   4.222   6.482  0.6448  0.9244  0.2545
  254MOL0     C34185   3.645   4.167   6.617 -0.9093 -0.0962  0.8589
  254MOL0     O34186   3.752   4.108   6.676  0.4276 -0.0824 -0.2666
  254MOL0     C34187   3.754   4.046   6.800 -0.5002  0.7647 -0.1279
  254MOL0     C34188   3.814   3.920   6.812  0.5518 -0.2618  0.2738
  254MOL0     C34189   3.818   3.857   6.936 -0.1159 -0.9277  0.6618
  254MOL0     C34190   3.765   3.919   7.048  0.3706  0.7443  0.0813
  254MOL0     O34191   3.777   3.851   7.169  0.0902  0.0542 -0.2195
  254MOL0     C34192   3.723   3.896   7.296  0.0319  0.0559 -0.8195
  254MOL0     C34193   3.749   3.804   7.413  0.0437 -0.1868 -1.1844
  254MOL0     C34194   3.898   3.810   7.446  0.4025  0.1025 -0.4127
  254MOL0     C34195   3.930   3.924   7.554  0.3471  0.6792 -0.1534
  254MOL0     C34196   4.076   3.965   7.552  0.0088  0.0497 -0.5570
  254MOL0     C34197   4.161   3.873   7.631  0.1422  0.3478  0.1709
  254MOL0     C34198   4.307   3.910   7.626  0.5088 -0.1461 -0.6626
  254MOL0     C34199   4.388   3.816   7.714 -0.5294 -0.0120 -0.1185
  254MOL0    Cl34200   4.525   3.896   7.782  0.0285  0.1802  0.1085
  254MOL0     C34201   3.697   4.047   7.038 -0.4088  0.3622  0.4555
  254MOL0     C34202   3.701   4.109   6.910  0.3392  0.4181  0.1981
  254MOL0     O34203   3.543   4.187   6.672  0.0603  0.1151 -0.1064
  254MOL0     C34204   3.526   4.280   6.429  0.3675 -1.1951  0.3780
  254MOL0     C34205   3.518   4.341   6.299 -1.0033 -0.1598  0.0298
  254MOL0     N34206   3.506   4.120   5.425 -0.2880  0.0001  0.0153
  254MOL0     N34207   3.439   4.042   5.358  0.3722 -0.7490  0.8722
  254MOL0     C34208   2.922   3.567   4.837  0.2539 -0.2010  0.2497
  254MOL0     C34209   3.050   3.519   4.803  0.0392  0.3486  0.1774
  254MOL0     C34210   3.399   3.250   4.702  0.2737 -0.1624 -0.1460
  254MOL0     C34211   3.505   3.311   4.776  0.0858  0.8512 -0.8778
  254MOL0     C34212   3.646   3.283   4.755  0.8516  0.6150 -0.6480
  254MOL0     C34213   3.682   3.206   4.641  0.4946 -0.1957  0.1553
  254MOL0     O34214   3.815   3.197   4.622  0.1224 -0.4990  0.0551
  254MOL0     C34215   3.853   3.163   4.487  0.1583  0.8063 -0.1135
  254MOL0     C34216   3.998   3.125   4.496  0.9422 -0.1826  0.2969
  254MOL0     C34217   4.076   3.256   4.503 -0.1343  0.3486 -0.5911
  254MOL0     C34218   4.218   3.227   4.530  0.1171 -0.0425  0.0422
  254MOL0     C34219   4.288   3.156   4.424  0.1397 -0.1099  0.0748
  254MOL0     C34220   4.351   3.083   4.352  0.3168 -0.7877  0.3317
  254MOL0     C34221   3.579   3.153   4.556 -1.4016 -0.1103  0.5519
  254MOL0     C34222   3.445   3.173   4.593  0.5921 -0.7993 -0.2710
  254MOL0     H34223   3.049   3.253   5.007 -5.0067 -1.1480  2.0947
  254MOL0     H34224   2.843   3.361   5.076  0.3797 -2.3737 -1.2882
  254MOL0     H34225   2.736   3.738   4.876 -1.3936  1.4623  0.8471
  254MOL0     H34226   2.595   3.645   4.869  1.9161  1.8073 -3.8153
  254MOL0     H34227   2.542   3.838   5.009 -3.6739 -0.8466  1.9773
  254MOL0     H34228   2.540   3.700   5.106  0.2659 -0.2014  0.8853
  254MOL0     H34229   2.709   3.834   5.250  2.9603 -3.2431  0.7971
  254MOL0     H34230   2.775   3.703   5.172 -0.7253  0.2785  2.1780
  254MOL0     H34231   2.901   3.834   5.033 -0.1554 -1.4413  1.7405
  254MOL0     H34232   2.773   3.955   5.008  0.2984 -0.3334 -0.0636
  254MOL0     H34233   2.973   4.052   5.105  0.5987 -0.5085  0.6639
  254MOL0     H34234   2.838   4.062   5.219  2.6693  2.3188  0.6965
  254MOL0     H34235   2.949   3.858   5.340 -2.7509  2.3248  0.0467
  254MOL0     H34236   3.058   3.849   5.198  0.5992  1.6638  0.2560
  254MOL0     H34237   3.121   4.096   5.268  0.4964  0.4161  0.5113
  254MOL0     H34238   3.051   4.049   5.424 -1.0978  1.0264 -0.6898
  254MOL0     H34239   3.256   3.854   5.312 -1.3680 -1.1781  0.9139
  254MOL0     H34240   3.194   3.870   5.471 -1.1865 -3.0688 -1.1357
  254MOL0     H34241   3.240   4.127   5.610  1.6677 -0.2884  1.2713
  254MOL0     H34242   3.599   4.282   5.602 -0.8633  2.1182 -1.4223
  254MOL0     H34243   3.444   4.365   5.616 -0.3586 -0.3625  0.3100
  254MOL0     H34244   3.515   4.127   5.803 -0.3884 -0.0018  1.5904
  254MOL0     H34245   3.383   4.243   5.807 -0.1418 -1.2128 -0.0478
  254MOL0     H34246   3.508   4.425   5.868 -1.6203 -0.7118 -0.3420
  254MOL0     H34247   3.666   4.329   5.832  1.2310  0.7237  3.1488
  254MOL0     H34248   3.628   4.183   6.012 -0.0055 -0.5413 -4.3429
  254MOL0     H34249   3.465   4.264   6.044 -1.6956 -1.0428 -4.0845
  254MOL0     H34250   3.837   4.303   6.222  1.6847 -0.3691  2.1912
  254MOL0     H34251   3.977   4.239   6.396 -0.3583 -2.4364 -0.4874
  254MOL0     H34252   3.912   4.284   6.563 -1.5036  0.8922 -0.7111
  254MOL0     H34253   3.926   4.112   6.504 -2.5939 -0.9753 -2.5028
  254MOL0     H34254   3.864   3.871   6.729  1.4638  0.8029  0.1598
  254MOL0     H34255   3.872   3.764   6.941 -0.2704 -0.9423  3.3583
  254MOL0     H34256   3.766   3.992   7.326 -1.1598  0.4107 -0.1991
  254MOL0     H34257   3.616   3.917   7.294  0.2265  1.7634  1.7247
  254MOL0     H34258   3.686   3.826   7.500  0.5875 -0.6974 -0.6451
  254MOL0     H34259   3.730   3.697   7.395  0.5571 -0.5233  0.1035
  254MOL0     H34260   3.953   3.828   7.353  0.9619  1.2774  0.1329
  254MOL0     H34261   3.933   3.713   7.481  0.2803  0.3075  0.3004
  254MOL0     H34262   3.861   4.007   7.536 -1.4340 -0.5034  0.8826
  254MOL0     H34263   3.900   3.888   7.653  0.7709  0.3743 -0.1327
  254MOL0     H34264   4.080   4.065   7.595  0.6956 -1.0278  2.0794
  254MOL0     H34265   4.118   3.966   7.450 -0.0871  1.2347 -0.5964
  254MOL0     H34266   4.131   3.856   7.735  2.1357  2.7415  1.2476
  254MOL0     H34267   4.167   3.775   7.584  3.4860 -0.3621  1.7401
  254MOL0     H34268   4.323   4.006   7.677  0.0077  0.8666 -2.3276
  254MOL0     H34269   4.347   3.912   7.524  1.9403 -0.7417 -0.1483
  254MOL0     H34270   4.413   3.729   7.654  0.9594 -0.0511  0.5156
  254MOL0     H34271   4.325   3.767   7.788 -1.6089 -1.6584 -2.0322
  254MOL0     H34272   3.648   4.096   7.121  1.8345  1.4224  1.2288
  254MOL0     H34273   3.671   4.212   6.895 -2.3133 -0.4294 -0.9977
  254MOL0     H34274   3.439   4.284   6.492  1.4677  1.9014  1.9380
  254MOL0     H34275   3.428   4.388   6.263 -0.7508 -0.3432 -0.8803
  254MOL0     H34276   2.887   3.654   4.782 -0.9592  0.8674  2.5658
  254MOL0     H34277   3.121   3.566   4.736  1.2903 -1.9240 -0.1859
  254MOL0     H34278   3.480   3.377   4.859  0.2754  0.2751 -0.3504
  254MOL0     H34279   3.729   3.338   4.799  0.4800  0.2200  0.5896
  254MOL0     H34280   3.800   3.070   4.465 -0.9717  1.1625  0.9918
  254MOL0     H34281   3.824   3.237   4.412 -3.4831 -1.8701 -1.6471
  254MOL0     H34282   4.030   3.073   4.404 -2.2679  1.2351 -1.8077
  254MOL0     H34283   4.028   3.066   4.583  3.0676  1.8241  1.0359
  254MOL0     H34284   4.035   3.326   4.576  0.4948 -0.7521  0.8803
  254MOL0     H34285   4.077   3.301   4.403 -0.3470 -1.4538 -1.4447
  254MOL0     H34286   4.238   3.175   4.624  1.6129  0.4506  0.0216
  254MOL0     H34287   4.259   3.328   4.542 -1.7867  0.8612 -0.7200
  254MOL0     H34288   4.407   3.013   4.292  0.0094  0.7339 -1.8554
  254MOL0     H34289   3.610   3.094   4.470  1.3016  4.0092 -1.6672
  254MOL0     H34290   3.374   3.127   4.525  1.0567 -1.8907 -0.0348
  255MOL0     O34291   7.308  10.057   0.717  0.1071  0.4324 -0.3461
  255MOL0     C34292   7.380  10.016   0.809  0.2785  0.0163  0.7165
  255MOL0     O34293   7.375  10.053   0.940  1.0501 -0.0893  0.5066
  255MOL0     C34294   7.292  10.150   0.983 -0.2242  0.7816 -0.0851
  255MOL0     C34295   7.155  10.121   0.998  0.6020 -0.3489 -0.1218
  255MOL0     C34296   7.061  10.218   1.029 -0.6401 -0.3106  0.2402
  255MOL0     C34297   7.104  10.351   1.054  0.1038  0.3473  0.4401
  255MOL0     O34298   7.027  10.462   1.088 -0.4553  0.7513  1.1274
  255MOL0     C34299   6.896  10.438   1.131 -0.2856  0.1217  0.5468
  255MOL0     C34300   6.824  10.574   1.157  0.7577  0.8785 -0.2408
  255MOL0     C34301   6.702  10.554   1.254  0.2413 -0.1932  0.1541
  255MOL0     C34302   6.615  10.681   1.244 -0.4492  0.7163  0.2845
  255MOL0     C34303   6.488  10.666   1.319 -0.0698 -0.4309 -0.0039
  255MOL0     C34304   6.387  10.576   1.249 -0.3306  0.3579 -0.4355
  255MOL0     C34305   6.246  10.561   1.327  1.0424  0.4126  0.6600
  255MOL0     C34306   6.132  10.483   1.254  0.5513  0.2387 -0.6678
  255MOL0     N34307   6.009  10.465   1.338 -0.0068 -0.1315 -0.4208
  255MOL0     C34308   5.982  10.386   1.439  0.6189  0.7070  0.6887
  255MOL0     C34309   5.846  10.395   1.457 -0.1324  0.2842  0.3000
  255MOL0     C34310   5.759  10.319   1.545 -0.8451 -0.5098  0.2447
  255MOL0     C34311   5.665  10.240   1.457  0.6188  1.3932  0.5224
  255MOL0     C34312   5.586  10.144   1.551  0.9785  0.2481  0.3042
  255MOL0     C34313   5.484  10.069   1.472 -0.5272  0.5118  0.4707
  255MOL0     O34314   5.418   9.983   1.564  0.3229 -0.4625 -0.1838
  255MOL0     C34315   5.302   9.924   1.509 -0.4367 -0.2494  0.5147
  255MOL0     C34316   5.259   9.924   1.372  0.5549  0.5561 -0.8304
  255MOL0     C34317   5.137   9.863   1.323 -0.1975 -0.0747 -0.1381
  255MOL0     C34318   5.118   9.858   1.174  0.1803  0.1324 -0.1643
  255MOL0     C34319   5.048   9.808   1.415  0.3931 -0.0242 -0.0152
  255MOL0     C34320   4.926   9.730   1.384 -0.3061 -0.1978 -0.0059
  255MOL0     O34321   4.875   9.649   1.489  0.0216 -0.0974  0.3397
  255MOL0     C34322   4.754   9.594   1.470 -1.0657  0.0662  0.1217
  255MOL0     C34323   4.745   9.475   1.394 -0.5231 -0.1823  0.1663
  255MOL0     C34324   4.622   9.400   1.406 -0.9750  1.0068  0.8039
  255MOL0     C34325   4.518   9.457   1.484  0.0290  0.5040 -0.0785
  255MOL0     O34326   4.411   9.374   1.493  0.2115  0.3631  0.0344
  255MOL0     C34327   4.285   9.442   1.480 -0.9201  0.4465  0.8688
  255MOL0     C34328   4.162   9.353   1.459 -0.1948 -0.6816  0.5798
  255MOL0     C34329   4.036   9.433   1.465 -0.9089 -0.0737 -0.2268
  255MOL0     C34330   3.908   9.356   1.425  0.3297 -0.5759 -0.0022
  255MOL0     C34331   3.786   9.442   1.461 -0.6224  0.4095  1.1268
  255MOL0     C34332   3.662   9.368   1.431  0.2419 -0.0676  0.5153
  255MOL0     C34333   3.546   9.459   1.462  0.1235  0.6079  0.8392
  255MOL0     C34334   3.420   9.392   1.423  0.3373  0.1987 -0.6507
  255MOL0    Cl34335   3.415   9.387   1.239  0.1230  0.0676  0.4613
  255MOL0     C34336   4.519   9.591   1.528  0.3963 -0.1180 -0.4867
  255MOL0     C34337   4.641   9.662   1.522 -0.5022  0.0377 -0.5605
  255MOL0     O34338   4.877   9.740   1.269 -0.1393 -0.6231  0.0921
  255MOL0     C34339   5.092   9.805   1.549 -0.2567 -0.4178 -0.2825
  255MOL0     C34340   5.213   9.854   1.593 -0.5855  0.3700  0.9675
  255MOL0     N34341   5.793  10.495   1.377  0.4757 -0.1455 -0.1145
  255MOL0     N34342   5.895  10.532   1.314 -0.2823 -0.2416 -0.8154
  255MOL0     C34343   7.244  10.379   1.042  0.5476 -0.1743 -0.5674
  255MOL0     C34344   7.332  10.285   1.002  0.2020  0.5200  0.1732
  255MOL0     C34345   7.481   9.911   0.774 -0.8283 -0.1677  0.5942
  255MOL0     C34346   7.533   9.908   0.647 -0.0585  0.4658 -0.0033
  255MOL0     C34347   7.626   9.810   0.605 -0.1869 -0.1980  0.1674
  255MOL0     C34348   7.661   9.700   0.686  0.3469  0.0780 -0.8534
  255MOL0     O34349   7.766   9.621   0.646  0.2082  0.2809  0.5686
  255MOL0     C34350   7.731   9.492   0.586 -0.8890  0.1976  0.2043
  255MOL0     C34351   7.704   9.392   0.699  0.0376  0.4247  0.3169
  255MOL0     C34352   7.686   9.247   0.647 -0.3339 -0.3165  0.3955
  255MOL0     C34353   7.557   9.229   0.564 -0.0124 -0.4187 -0.5442
  255MOL0     C34354   7.437   9.231   0.646  0.6646 -0.0265 -0.3860
  255MOL0     C34355   7.344   9.237   0.724 -0.4348  0.3721  0.1127
  255MOL0     C34356   7.618   9.710   0.814 -0.9793  0.1465  0.0614
  255MOL0     C34357   7.532   9.813   0.864 -0.3717 -0.8376  0.1158
  255MOL0     H34358   7.114  10.021   0.987 -3.1190  1.1680 -1.4184
  255MOL0     H34359   6.955  10.200   1.048 -0.4615 -1.5979  0.1135
  255MOL0     H34360   6.833  10.383   1.060  0.1659 -4.2023  3.1288
  255MOL0     H34361   6.905  10.386   1.227  0.4652  1.9705  1.5195
  255MOL0     H34362   6.893  10.627   1.223 -1.0333  0.4963  2.1305
  255MOL0     H34363   6.790  10.617   1.063  1.0382  3.2064  0.6705
  255MOL0     H34364   6.644  10.465   1.228 -0.9225  0.8149 -0.8555
  255MOL0     H34365   6.728  10.542   1.359  1.5139  1.7567  0.1130
  255MOL0     H34366   6.670  10.766   1.284  1.3925 -0.3452  0.1306
  255MOL0     H34367   6.586  10.684   1.139 -1.8535 -2.9585  0.3922
  255MOL0     H34368   6.511  10.628   1.419 -0.1765  2.9570  1.4728
  255MOL0     H34369   6.433  10.760   1.332 -0.8037 -0.9610  0.8228
  255MOL0     H34370   6.369  10.630   1.156 -1.1612  1.1082  0.1321
  255MOL0     H34371   6.435  10.479   1.232 -1.0868  0.2671 -2.2347
  255MOL0     H34372   6.263  10.509   1.422  0.3081 -0.7992  0.1527
  255MOL0     H34373   6.224  10.667   1.343  1.6143  0.6597 -0.1581
  255MOL0     H34374   6.161  10.378   1.245  2.6779  0.4715  2.2034
  255MOL0     H34375   6.103  10.528   1.158  0.6943  1.7214 -0.0458
  255MOL0     H34376   6.043  10.315   1.495 -1.3865 -1.1423  0.6646
  255MOL0     H34377   5.830  10.257   1.601  0.6402  1.0856  0.1999
  255MOL0     H34378   5.712  10.392   1.611 -0.8649 -1.1375  0.9381
  255MOL0     H34379   5.721  10.179   1.385  0.8696 -0.6404  2.3381
  255MOL0     H34380   5.597  10.298   1.394  1.5595  1.0338 -0.8690
  255MOL0     H34381   5.519  10.204   1.614  0.5109  2.8271 -2.4177
  255MOL0     H34382   5.652  10.073   1.602  2.5682  2.7193  1.9174
  255MOL0     H34383   5.525  10.014   1.387 -1.8837  1.9013 -1.1512
  255MOL0     H34384   5.420  10.149   1.433 -0.5812 -0.1694 -0.8719
  255MOL0     H34385   5.333   9.960   1.301  1.4242 -0.0076 -0.2393
  255MOL0     H34386   5.042   9.934   1.158  2.0071  2.0754 -0.1202
  255MOL0     H34387   5.202   9.901   1.118 -0.5502  3.7260  1.2393
  255MOL0     H34388   5.094   9.758   1.136  0.2360  0.1798 -0.3257
  255MOL0     H34389   4.834   9.436   1.345  0.8732  0.9652  1.6826
  255MOL0     H34390   4.616   9.297   1.374  0.2708  1.4871 -1.1658
  255MOL0     H34391   4.267   9.489   1.577 -2.9108 -2.7795  2.1946
  255MOL0     H34392   4.295   9.510   1.395 -0.3783  0.1468  0.6900
  255MOL0     H34393   4.165   9.300   1.363 -0.3094  2.0738 -1.0324
  255MOL0     H34394   4.154   9.279   1.539  1.6139 -1.9325 -0.3200
  255MOL0     H34395   4.052   9.528   1.414  2.6749  0.9227  2.3581
  255MOL0     H34396   4.039   9.460   1.571 -0.1536 -1.3144  0.0853
  255MOL0     H34397   3.905   9.342   1.317 -1.8122 -1.2195  0.0926
  255MOL0     H34398   3.911   9.257   1.471  2.1986 -0.4936  0.1358
  255MOL0     H34399   3.781   9.532   1.399  0.0738  0.5504  1.2658
  255MOL0     H34400   3.787   9.473   1.566  0.0205 -0.5093  1.4017
  255MOL0     H34401   3.664   9.352   1.323 -0.1741  1.1030  0.3135
  255MOL0     H34402   3.656   9.272   1.482 -2.1701 -0.1800  0.1513
  255MOL0     H34403   3.551   9.550   1.402 -1.6949 -0.5369 -1.1929
  255MOL0     H34404   3.546   9.485   1.568 -2.6517 -2.2312  1.6633
  255MOL0     H34405   3.339   9.453   1.463  1.4800  0.9519  0.5956
  255MOL0     H34406   3.420   9.294   1.473 -1.0532  0.7026  0.4246
  255MOL0     H34407   4.435   9.629   1.586 -0.0609 -1.9123  0.0918
  255MOL0     H34408   4.654   9.748   1.588 -2.5715 -1.9376  2.7597
  255MOL0     H34409   5.034   9.748   1.621  0.8349  0.0659  1.0135
  255MOL0     H34410   5.246   9.839   1.695  0.1412  0.8633  0.8095
  255MOL0     H34411   7.268  10.485   1.036 -4.0643  0.9799 -3.2249
  255MOL0     H34412   7.431  10.313   0.967  0.5113 -0.2462  0.4080
  255MOL0     H34413   7.490   9.980   0.578 -4.2104  0.9247  2.6894
  255MOL0     H34414   7.673   9.811   0.507 -1.7386 -0.6364 -0.6237
  255MOL0     H34415   7.640   9.495   0.526 -0.5849 -3.5529 -0.6782
  255MOL0     H34416   7.818   9.465   0.526 -1.2110 -1.6811  0.5072
  255MOL0     H34417   7.612   9.409   0.755 -0.4734 -4.9197  1.6441
  255MOL0     H34418   7.777   9.394   0.780 -0.5648 -0.7259  0.9038
  255MOL0     H34419   7.685   9.175   0.730  2.5435 -0.2329  0.5830
  255MOL0     H34420   7.772   9.222   0.585  0.4174 -0.2896  1.3958
  255MOL0     H34421   7.569   9.133   0.513 -3.3007 -0.6097 -1.1616
  255MOL0     H34422   7.548   9.305   0.486 -0.6915  0.4459  0.3468
  255MOL0     H34423   7.268   9.230   0.800 -0.6473 -2.0825 -0.2451
  255MOL0     H34424   7.659   9.640   0.886  1.3584  1.0209 -0.3402
  255MOL0     H34425   7.508   9.813   0.970  1.0692  1.6209  0.5075
  256MOL0     O34426   2.555   9.490  10.732 -0.5878  0.4010  0.4305
  256MOL0     C34427   2.626   9.569  10.667  0.1793 -0.3502  0.0228
  256MOL0     O34428   2.588   9.647  10.567  0.2946 -0.0682  0.2511
  256MOL0     C34429   2.455   9.642  10.536  0.6008  0.3337 -0.4232
  256MOL0     C34430   2.398   9.526  10.483  0.0991 -0.7624  0.0200
  256MOL0     C34431   2.265   9.522  10.433 -0.2575  0.4495  0.2716
  256MOL0     C34432   2.184   9.634  10.430  0.1373  0.0498  0.0584
  256MOL0     O34433   2.050   9.626  10.401  0.3272  0.0965 -0.4772
  256MOL0     C34434   2.030   9.593  10.261 -0.8620 -0.7680 -0.1751
  256MOL0     C34435   1.881   9.589  10.226 -0.0034 -0.2370  0.2680
  256MOL0     C34436   1.851   9.596  10.078  0.0034  0.6930  0.6178
  256MOL0     C34437   1.698   9.609  10.058 -0.0841  0.8723  1.1010
  256MOL0     C34438   1.661   9.641   9.918  0.0555  0.9088 -0.4804
  256MOL0     C34439   1.514   9.664   9.892 -0.3619 -0.3826  0.1418
  256MOL0     C34440   1.472   9.683   9.739  0.0641 -0.0213 -0.4060
  256MOL0     C34441   1.322   9.686   9.724  0.5159  0.3095 -0.5691
  256MOL0     N34442   1.282   9.675   9.579  0.2765 -0.0315 -0.4595
  256MOL0     C34443   1.292   9.562   9.504 -0.3082 -0.6959 -0.0732
  256MOL0     C34444   1.288   9.619   9.380  0.0948  0.5375  0.8039
  256MOL0     C34445   1.278   9.540   9.252 -0.5863 -0.1995 -0.2761
  256MOL0     C34446   1.131   9.520   9.204 -0.4399 -0.6006 -0.1187
  256MOL0     C34447   1.069   9.653   9.151  0.7309  0.2740  0.4685
  256MOL0     C34448   0.921   9.658   9.110 -0.0089  0.0022  0.0118
  256MOL0     O34449   0.891   9.776   9.031  0.4722  0.2419  0.7343
  256MOL0     C34450   0.762   9.772   8.979 -0.0182 -0.0231  0.3120
  256MOL0     C34451   0.724   9.883   8.889 -0.7072  0.8096 -0.5433
  256MOL0     C34452   0.589   9.902   8.845  0.3291  0.8115 -0.2667
  256MOL0     C34453   0.559  10.028   8.769  0.6968 -0.3238  0.4768
  256MOL0     C34454   0.487   9.807   8.875 -0.1863  0.6993  0.8581
  256MOL0     C34455   0.339   9.814   8.848  0.1282  0.2812 -0.2179
  256MOL0     O34456   0.263   9.745   8.944 -0.4926 -0.5547  0.6886
  256MOL0     C34457   0.126   9.742   8.942 -0.0592 -1.1147 -0.5169
  256MOL0     C34458   0.046   9.863   8.900  0.2631  0.5215 -0.8972
  256MOL0     C34459  -0.093   9.854   8.916  0.1090 -0.0314 -0.1368
  256MOL0     C34460  -0.155   9.742   8.976  1.4934  0.2085 -0.2211
  256MOL0     O34461  -0.293   9.730   9.009  0.0789 -0.3488 -0.7816
  256MOL0     C34462  -0.383   9.776   8.907  0.6233  0.1826  0.1408
  256MOL0     C34463  -0.536   9.731   8.924  0.2023  0.6534  0.4983
  256MOL0     C34464  -0.601   9.821   9.034 -0.9657 -0.5707  0.1212
  256MOL0     C34465  -0.757   9.797   9.036 -0.0296 -0.6023  0.2182
  256MOL0     C34466  -0.829   9.908   9.127 -0.4979  0.1700  0.1521
  256MOL0     C34467  -0.979   9.887   9.129 -0.2929  0.7068 -0.0000
  256MOL0     C34468  -1.050  10.010   9.189  0.0020  1.0925 -0.0170
  256MOL0     C34469  -1.205   9.991   9.184  0.2833 -0.4544 -1.0477
  256MOL0    Cl34470  -1.255   9.845   9.262  0.3739  0.1470 -0.3259
  256MOL0     C34471  -0.077   9.628   9.002 -0.8829  0.3351 -0.2990
  256MOL0     C34472   0.058   9.631   8.991 -0.3305 -0.7032  0.1104
  256MOL0     O34473   0.302   9.849   8.739 -0.2917 -0.5497 -0.0486
  256MOL0     C34474   0.531   9.697   8.950  0.6217  0.0750  0.0521
  256MOL0     C34475   0.662   9.683   9.004  1.4068 -0.2399 -0.2543
  256MOL0     N34476   1.264   9.755   9.381 -0.8074 -0.4070 -0.4892
  256MOL0     N34477   1.264   9.790   9.507  0.3919 -0.3070 -0.0096
  256MOL0     C34478   2.234   9.750  10.483 -1.1376  0.0861 -0.7162
  256MOL0     C34479   2.371   9.758  10.532  0.1766  0.0655 -0.2625
  256MOL0     C34480   2.772   9.561  10.686  0.3319 -0.4643  0.5964
  256MOL0     C34481   2.863   9.620  10.591 -0.6914 -0.1455  0.2119
  256MOL0     C34482   3.006   9.619  10.618  0.2262 -0.0003  0.0469
  256MOL0     C34483   3.059   9.547  10.735 -0.0269 -0.5739 -0.0558
  256MOL0     O34484   3.190   9.532  10.774  0.2855  0.2664 -0.8284
  256MOL0     C34485   3.294   9.594  10.698  0.6471 -0.4402 -0.0141
  256MOL0     C34486   3.355   9.498  10.596  0.3976  0.6252 -0.1026
  256MOL0     C34487   3.382   9.357  10.651 -0.6387 -0.3861 -0.3404
  256MOL0     C34488   3.458   9.356  10.791 -0.3303 -0.5112 -0.1649
  256MOL0     C34489   3.596   9.397  10.800 -0.1184 -0.6430 -0.4396
  256MOL0     C34490   3.707   9.441  10.798  0.2334  0.5996 -0.4189
  256MOL0     C34491   2.964   9.478  10.814 -0.4883  0.1192 -0.0726
  256MOL0     C34492   2.829   9.492  10.797  0.1373  0.1064  0.1907
  256MOL0     H34493   2.451   9.431  10.475  1.3693 -0.4591  3.2124
  256MOL0     H34494   2.231   9.425  10.396 -3.4589  2.1416 -1.7035
  256MOL0     H34495   2.080   9.672  10.204 -1.3703 -0.7853 -0.6601
  256MOL0     H34496   2.080   9.502  10.227  4.5168  1.1449  1.5581
  256MOL0     H34497   1.831   9.501  10.267  0.5906  0.3678  2.4555
  256MOL0     H34498   1.834   9.676  10.274 -0.2143  0.7109 -1.5512
  256MOL0     H34499   1.893   9.692  10.044  0.7368  1.9414  4.5697
  256MOL0     H34500   1.888   9.508  10.025 -2.1480 -0.9037  1.5928
  256MOL0     H34501   1.647   9.519  10.093 -1.3960  0.9978 -0.3814
  256MOL0     H34502   1.657   9.685  10.125 -0.5502  1.3932  0.2356
  256MOL0     H34503   1.721   9.727   9.885  1.5962 -0.4926 -1.4647
  256MOL0     H34504   1.690   9.558   9.853  2.5560 -0.0265  1.7114
  256MOL0     H34505   1.465   9.570   9.919  0.2058 -0.6150  0.3787
  256MOL0     H34506   1.480   9.746   9.956  0.7339 -2.2438  3.3463
  256MOL0     H34507   1.522   9.763   9.684  2.4074 -3.4986 -3.8952
  256MOL0     H34508   1.500   9.592   9.685 -0.0797 -1.6553  2.1093
  256MOL0     H34509   1.269   9.769   9.772 -0.0055 -1.7044  2.6484
  256MOL0     H34510   1.280   9.597   9.771 -0.0655  0.9505  0.1631
  256MOL0     H34511   1.306   9.457   9.526  0.6380 -0.2223  1.7167
  256MOL0     H34512   1.344   9.585   9.177 -0.3661  0.4861  0.3198
  256MOL0     H34513   1.313   9.438   9.269 -0.9431 -0.4771 -1.1287
  256MOL0     H34514   1.056   9.476   9.270 -0.9973 -0.3124 -0.5534
  256MOL0     H34515   1.140   9.445   9.125  2.8435  0.1348 -0.5931
  256MOL0     H34516   1.126   9.677   9.061  0.9869 -1.9551 -0.0254
  256MOL0     H34517   1.086   9.737   9.219 -0.2757 -0.8894  2.2599
  256MOL0     H34518   0.858   9.665   9.200  0.8377 -1.3684  0.7351
  256MOL0     H34519   0.884   9.577   9.047 -0.2396 -0.8721  1.2385
  256MOL0     H34520   0.799   9.961   8.873 -0.4044  0.8957  1.0566
  256MOL0     H34521   0.640  10.101   8.784  1.0788 -0.3780 -1.1375
  256MOL0     H34522   0.546  10.004   8.663 -0.6554  0.0461  0.5393
  256MOL0     H34523   0.466  10.064   8.815 -0.6136 -3.7950  0.8482
  256MOL0     H34524   0.093   9.955   8.866 -0.4959  1.2893  0.0609
  256MOL0     H34525  -0.151   9.942   8.890  1.0287  0.5995 -0.1077
  256MOL0     H34526  -0.378   9.885   8.907 -1.8421  0.3502  0.0792
  256MOL0     H34527  -0.348   9.749   8.806  1.5892 -2.4398  1.0767
  256MOL0     H34528  -0.591   9.744   8.831  0.4862 -1.5032 -0.0280
  256MOL0     H34529  -0.538   9.623   8.941  0.7045  0.4636 -0.6057
  256MOL0     H34530  -0.594   9.927   9.011  0.1969 -1.1186 -2.3082
  256MOL0     H34531  -0.552   9.805   9.131 -0.5301 -3.4559 -0.4849
  256MOL0     H34532  -0.783   9.810   8.930 -1.6285  2.1477  0.8597
  256MOL0     H34533  -0.767   9.698   9.082  1.0909 -1.0382 -0.4395
  256MOL0     H34534  -0.796  10.004   9.085 -1.5448  0.9802  1.1485
  256MOL0     H34535  -0.787   9.905   9.228  1.3934  0.4890 -0.5725
  256MOL0     H34536  -1.007   9.874   9.024 -1.2156 -1.9004  0.4928
  256MOL0     H34537  -0.996   9.796   9.188  1.3857  0.6968  0.5355
  256MOL0     H34538  -1.010  10.094   9.131  2.4893  1.7307  2.3939
  256MOL0     H34539  -1.022  10.004   9.295 -0.1442 -0.1319 -0.0338
  256MOL0     H34540  -1.236   9.991   9.080 -0.5533  0.8183 -0.8193
  256MOL0     H34541  -1.249  10.075   9.239 -1.6246 -2.1551  0.1795
  256MOL0     H34542  -0.131   9.540   9.034 -0.2953 -0.5341 -1.6229
  256MOL0     H34543   0.115   9.543   9.018  1.7142  0.7304  0.7253
  256MOL0     H34544   0.463   9.615   8.967 -1.1336  1.3606 -0.5314
  256MOL0     H34545   0.676   9.599   9.070  0.0281 -1.1935 -1.1240
  256MOL0     H34546   2.170   9.837  10.488 -0.0902  0.9221 -1.4026
  256MOL0     H34547   2.412   9.852  10.568  0.7694 -0.7108  1.1285
  256MOL0     H34548   2.826   9.682  10.510  1.2800 -1.7463 -2.0505
  256MOL0     H34549   3.075   9.681  10.561 -0.6816  0.8891 -0.1112
  256MOL0     H34550   3.263   9.689  10.653 -1.1160 -0.3725  1.2792
  256MOL0     H34551   3.368   9.621  10.774 -2.3215  1.5270  2.4081
  256MOL0     H34552   3.447   9.547  10.561  0.0627 -1.5906 -4.8986
  256MOL0     H34553   3.290   9.471  10.512 -0.4039 -0.0697  0.7304
  256MOL0     H34554   3.450   9.309  10.580  4.0056  2.1662  1.8790
  256MOL0     H34555   3.285   9.309  10.669 -0.1655 -0.8818  1.0475
  256MOL0     H34556   3.455   9.249  10.815 -0.1767 -0.0939  1.9320
  256MOL0     H34557   3.398   9.402  10.870  0.7765 -2.3117  1.8520
  256MOL0     H34558   3.802   9.490  10.797  1.1680 -0.8875  2.5791
  256MOL0     H34559   3.002   9.417  10.895  0.1186  1.7495  0.9193
  256MOL0     H34560   2.761   9.441  10.864  0.1151  0.5819  0.5326
  257MOL0     O34561   1.523   4.593   5.564  0.7306 -0.6044  0.3316
  257MOL0     C34562   1.552   4.696   5.506  0.0092  0.2780 -0.6609
  257MOL0     O34563   1.458   4.783   5.457  0.6082  0.5806 -0.5525
  257MOL0     C34564   1.327   4.766   5.491  0.4521 -0.2719 -0.0726
  257MOL0     C34565   1.268   4.783   5.614  0.2014 -0.0918 -0.3707
  257MOL0     C34566   1.132   4.763   5.631 -0.0995  0.1467  0.9364
  257MOL0     C34567   1.044   4.729   5.527 -0.0242  0.4403  0.1931
  257MOL0     O34568   0.915   4.706   5.543  0.2235 -0.1400 -0.0660
  257MOL0     C34569   0.850   4.764   5.658 -0.5206 -0.6501  0.2792
  257MOL0     C34570   0.708   4.720   5.642  0.1856  0.3427 -0.2730
  257MOL0     C34571   0.601   4.744   5.746 -0.0316  0.3425  1.1492
  257MOL0     C34572   0.563   4.893   5.761 -0.0742  0.1459  0.4969
  257MOL0     C34573   0.418   4.922   5.723 -0.5923  0.3508  0.9213
  257MOL0     C34574   0.325   4.852   5.818 -0.2511 -0.2511  0.2530
  257MOL0     C34575   0.177   4.865   5.790 -0.2461  0.1566  0.3521
  257MOL0     C34576   0.112   4.993   5.830  0.3885  0.8737 -0.2962
  257MOL0     N34577  -0.036   5.002   5.789  0.2935 -0.5693 -0.3655
  257MOL0     C34578  -0.147   4.970   5.856 -0.1250 -1.2439 -0.5860
  257MOL0     C34579  -0.250   5.021   5.782 -0.3551 -0.0592 -0.2225
  257MOL0     C34580  -0.388   5.027   5.840  0.4807 -0.3469  0.4584
  257MOL0     C34581  -0.470   4.915   5.762  0.3579 -0.1759 -0.0454
  257MOL0     C34582  -0.614   4.922   5.815 -0.1089  0.7665  0.8188
  257MOL0     C34583  -0.715   4.857   5.724  0.6976  0.4166  0.3309
  257MOL0     O34584  -0.729   4.927   5.602  0.3862 -0.0310 -0.7496
  257MOL0     C34585  -0.803   5.048   5.606  0.5816  0.2144  0.7221
  257MOL0     C34586  -0.952   5.045   5.618 -0.5259 -0.4564  0.1662
  257MOL0     C34587  -1.024   5.166   5.636  0.3416 -0.2954 -0.1061
  257MOL0     C34588  -1.173   5.160   5.665 -0.4222 -0.2662 -0.3050
  257MOL0     C34589  -0.952   5.289   5.654  0.1143  0.5359  0.3906
  257MOL0     C34590  -1.011   5.415   5.700  0.6215  0.1419  0.2539
  257MOL0     O34591  -1.123   5.461   5.640 -0.2027  0.2826  0.3181
  257MOL0     C34592  -1.215   5.535   5.700  1.3640  0.0251  0.1350
  257MOL0     C34593  -1.282   5.638   5.632  0.1121 -0.2168  0.1373
  257MOL0     C34594  -1.377   5.723   5.688  0.7894 -0.3129 -0.2113
  257MOL0     C34595  -1.436   5.681   5.811 -0.2712  0.1961 -0.7245
  257MOL0     O34596  -1.537   5.742   5.884  1.1444  0.2572  0.0460
  257MOL0     C34597  -1.633   5.819   5.808 -0.3968 -0.1562 -0.3497
  257MOL0     C34598  -1.763   5.843   5.892 -0.1538  0.1001  0.2627
  257MOL0     C34599  -1.877   5.913   5.814  0.6375 -0.2382  0.1765
  257MOL0     C34600  -1.983   5.981   5.904 -0.8003 -1.4049 -0.6155
  257MOL0     C34601  -2.061   5.870   5.965 -0.1237 -0.1306  0.0387
  257MOL0     C34602  -2.174   5.918   6.056  0.1915  0.2672  0.2264
  257MOL0     C34603  -2.302   5.971   5.973 -0.9091 -0.3172  0.6571
  257MOL0     C34604  -2.426   6.016   6.054 -0.6901  0.8519 -0.5060
  257MOL0    Cl34605  -2.543   6.088   5.941  0.3511  0.6411 -0.0309
  257MOL0     C34606  -1.375   5.576   5.876 -0.3373 -0.4204  0.2289
  257MOL0     C34607  -1.257   5.509   5.828 -0.1634 -0.4222  0.3270
  257MOL0     O34608  -0.949   5.475   5.784  0.5572 -0.9977  0.2599
  257MOL0     C34609  -0.816   5.290   5.634 -0.8506  1.1244  0.7986
  257MOL0     C34610  -0.747   5.170   5.605  0.5209  0.0938  0.0149
  257MOL0     N34611  -0.204   5.082   5.667  0.1974 -0.4286  0.0945
  257MOL0     N34612  -0.080   5.063   5.677 -0.3163 -0.4806 -0.0383
  257MOL0     C34613   1.102   4.719   5.401  0.2900 -0.0164  0.1467
  257MOL0     C34614   1.242   4.736   5.382  0.5235 -0.2926  0.1602
  257MOL0     C34615   1.697   4.724   5.484  0.2546 -0.7424  0.8508
  257MOL0     C34616   1.744   4.804   5.375  0.6510 -0.3019  0.3121
  257MOL0     C34617   1.875   4.841   5.362 -0.5073 -1.1520  0.2799
  257MOL0     C34618   1.970   4.794   5.453 -0.9101 -0.2796  0.3087
  257MOL0     O34619   2.098   4.842   5.446  0.6907  0.4947 -0.3654
  257MOL0     C34620   2.193   4.741   5.410 -0.8296  0.4914 -0.2950
  257MOL0     C34621   2.322   4.793   5.352 -0.0465  0.0313  0.1428
  257MOL0     C34622   2.303   4.860   5.211  0.1831  0.3359 -0.5039
  257MOL0     C34623   2.400   4.812   5.106 -0.0433 -0.1012  0.8576
  257MOL0     C34624   2.414   4.666   5.093 -0.6336  0.1064  0.9298
  257MOL0     C34625   2.435   4.547   5.063  0.5099  0.1797  0.0240
  257MOL0     C34626   1.930   4.704   5.552  0.1128 -0.0681  0.8452
  257MOL0     C34627   1.793   4.681   5.573  0.6582 -0.1791  1.8134
  257MOL0     H34628   1.326   4.800   5.704 -2.3649 -1.0131  1.5640
  257MOL0     H34629   1.106   4.782   5.735 -1.5058  0.1386  0.6148
  257MOL0     H34630   0.897   4.734   5.753  0.2656  1.8317  0.7605
  257MOL0     H34631   0.862   4.872   5.642  1.2633 -1.1779 -2.5694
  257MOL0     H34632   0.678   4.750   5.541  0.8584 -1.1530 -0.9548
  257MOL0     H34633   0.718   4.611   5.636 -2.4974  0.0941 -1.6848
  257MOL0     H34634   0.513   4.686   5.718 -1.1224  2.6758 -0.5198
  257MOL0     H34635   0.643   4.712   5.842  0.4335 -1.4018  0.4158
  257MOL0     H34636   0.584   4.925   5.864  2.0508  1.7645 -0.3615
  257MOL0     H34637   0.631   4.953   5.699  0.2014 -1.0073 -0.3307
  257MOL0     H34638   0.405   5.030   5.729  1.0042  0.5241  1.7360
  257MOL0     H34639   0.407   4.892   5.619 -0.9429  1.7876  0.5241
  257MOL0     H34640   0.343   4.745   5.833  2.9074  0.2018  0.2890
  257MOL0     H34641   0.335   4.888   5.921  0.8021 -1.6919  0.6806
  257MOL0     H34642   0.172   4.854   5.681  1.0087  2.8286 -0.0447
  257MOL0     H34643   0.109   4.788   5.828 -3.2395  1.9071 -1.1158
  257MOL0     H34644   0.182   5.072   5.801  1.8665 -0.4716 -0.5466
  257MOL0     H34645   0.122   4.980   5.939 -0.8800  0.2488 -0.2313
  257MOL0     H34646  -0.162   4.919   5.950 -0.9390 -0.8460 -0.4894
  257MOL0     H34647  -0.388   5.023   5.949  0.5445  0.2327  0.4862
  257MOL0     H34648  -0.436   5.124   5.822 -0.3512 -0.8760 -0.2352
  257MOL0     H34649  -0.443   4.811   5.781  0.7355  0.0366  0.6154
  257MOL0     H34650  -0.463   4.949   5.658  1.6808  3.1375  0.9718
  257MOL0     H34651  -0.646   5.024   5.837 -1.0032  1.0572 -1.6038
  257MOL0     H34652  -0.612   4.862   5.907  2.0714  0.2880  0.5147
  257MOL0     H34653  -0.810   4.842   5.777  1.0437 -0.2013  0.7921
  257MOL0     H34654  -0.680   4.757   5.696 -0.9739 -1.1356  3.2577
  257MOL0     H34655  -1.019   4.960   5.607 -2.6012  1.2840 -1.8049
  257MOL0     H34656  -1.192   5.059   5.702 -0.2931  0.7511  2.7831
  257MOL0     H34657  -1.203   5.220   5.751 -0.0949 -2.1286  1.1721
  257MOL0     H34658  -1.244   5.177   5.584 -1.6365 -0.1603  0.7501
  257MOL0     H34659  -1.251   5.663   5.531 -0.2778 -1.1322 -0.2267
  257MOL0     H34660  -1.415   5.810   5.637  1.2656  1.0027  1.5839
  257MOL0     H34661  -1.600   5.917   5.774  0.2170 -1.1925 -2.9502
  257MOL0     H34662  -1.650   5.761   5.717  4.2674 -1.0465 -0.8934
  257MOL0     H34663  -1.801   5.743   5.913 -1.3933  0.1287 -1.6195
  257MOL0     H34664  -1.734   5.885   5.989  0.2132 -1.5332  0.9055
  257MOL0     H34665  -1.922   5.847   5.739 -0.0141  1.9010 -1.4049
  257MOL0     H34666  -1.845   5.991   5.746 -1.8570  0.7916  0.0687
  257MOL0     H34667  -1.924   6.044   5.972 -0.8213  0.2412 -2.0480
  257MOL0     H34668  -2.049   6.043   5.843 -1.7612  0.0365  1.7449
  257MOL0     H34669  -1.986   5.820   6.027 -0.8423 -0.4035  0.7126
  257MOL0     H34670  -2.095   5.809   5.882  2.6080  0.2876 -1.5015
  257MOL0     H34671  -2.202   5.830   6.116  0.5464  0.8790  1.3163
  257MOL0     H34672  -2.133   5.996   6.121 -2.3896 -0.3583  2.8024
  257MOL0     H34673  -2.315   5.901   5.890  1.8471 -1.8611  1.3959
  257MOL0     H34674  -2.269   6.063   5.924 -0.5760  0.2336  1.8633
  257MOL0     H34675  -2.406   6.083   6.137  0.6022  1.1067 -0.9917
  257MOL0     H34676  -2.470   5.926   6.098 -2.0202  0.4208 -2.5492
  257MOL0     H34677  -1.416   5.532   5.967  1.1948 -0.5172  0.9008
  257MOL0     H34678  -1.210   5.438   5.894 -0.3430  1.0638  2.1394
  257MOL0     H34679  -0.760   5.383   5.628 -0.1930  1.3272  5.9616
  257MOL0     H34680  -0.639   5.181   5.596  0.6678 -1.2484 -0.0715
  257MOL0     H34681   1.038   4.711   5.314  2.7590  0.7963 -1.8702
  257MOL0     H34682   1.272   4.738   5.278 -0.2819  1.8586 -0.0770
  257MOL0     H34683   1.673   4.839   5.301  1.3212 -2.7926 -1.6312
  257MOL0     H34684   1.907   4.918   5.293 -0.2967 -0.3075  1.2919
  257MOL0     H34685   2.214   4.690   5.505 -0.4305  3.3474  1.2782
  257MOL0     H34686   2.152   4.670   5.338  0.0852  0.5103 -0.8503
  257MOL0     H34687   2.397   4.714   5.362 -0.2038  0.0999  2.1991
  257MOL0     H34688   2.355   4.872   5.421 -1.1030  0.2109  0.4569
  257MOL0     H34689   2.313   4.968   5.209 -0.6340  0.4171 -2.6554
  257MOL0     H34690   2.207   4.828   5.169 -0.7773  1.3486  0.8417
  257MOL0     H34691   2.496   4.860   5.131 -1.1375  2.0722  1.1797
  257MOL0     H34692   2.365   4.853   5.011  2.1105 -0.4298 -0.1318
  257MOL0     H34693   2.462   4.444   5.051 -0.0688  0.2081 -1.7817
  257MOL0     H34694   2.002   4.681   5.631  1.4540  0.4217 -0.2053
  257MOL0     H34695   1.756   4.634   5.664 -1.1319  0.3294  1.3939
  258MOL0     O34696  11.268   6.742   8.124 -0.7087 -0.1274 -0.4108
  258MOL0     C34697  11.357   6.739   8.042 -0.2035 -0.1656  0.6004
  258MOL0     O34698  11.353   6.663   7.923 -0.2664  0.5845 -1.2348
  258MOL0     C34699  11.243   6.586   7.902  0.1599 -0.6103 -0.3182
  258MOL0     C34700  11.175   6.613   7.789  0.1029  0.2786 -0.0225
  258MOL0     C34701  11.058   6.539   7.761 -0.0081 -0.1626 -0.0514
  258MOL0     C34702  11.012   6.441   7.847  0.3794  0.1009  0.3554
  258MOL0     O34703  10.886   6.385   7.824  0.0668  0.4709  0.4587
  258MOL0     C34704  10.815   6.306   7.923 -0.5118 -0.3621 -0.0234
  258MOL0     C34705  10.686   6.258   7.855 -0.2936 -0.4661 -0.2669
  258MOL0     C34706  10.587   6.191   7.950  0.0695 -0.3094  0.1978
  258MOL0     C34707  10.459   6.136   7.888 -0.3374 -0.6949 -0.1914
  258MOL0     C34708  10.373   6.055   7.991  0.2492  0.3158 -0.0363
  258MOL0     C34709  10.249   6.003   7.934  0.2004  0.0393 -0.0257
  258MOL0     C34710  10.179   5.920   8.033  0.5947 -0.4435  0.2831
  258MOL0     C34711  10.045   5.884   7.968 -0.5900  0.5411  0.2461
  258MOL0     N34712   9.929   5.853   8.053  0.5172 -0.3507  0.4175
  258MOL0     C34713   9.929   5.740   8.126  0.0559 -0.3101 -0.0470
  258MOL0     C34714   9.799   5.720   8.155  0.0347  0.8328  0.2264
  258MOL0     C34715   9.757   5.606   8.249 -0.5810  0.0354  0.3605
  258MOL0     C34716   9.690   5.654   8.377 -0.0922 -0.1874 -0.0856
  258MOL0     C34717   9.642   5.531   8.447 -0.1723 -0.5406  0.1457
  258MOL0     C34718   9.554   5.564   8.580  0.5077 -0.1240  0.1345
  258MOL0     O34719   9.431   5.640   8.551 -0.6222 -0.2797 -0.2860
  258MOL0     C34720   9.330   5.634   8.645 -0.9741  0.5220  0.7948
  258MOL0     C34721   9.314   5.557   8.762  0.2200 -0.5905  0.3727
  258MOL0     C34722   9.198   5.569   8.846 -0.6270 -0.1155 -0.2086
  258MOL0     C34723   9.189   5.495   8.979  0.2106 -0.1528  1.0838
  258MOL0     C34724   9.093   5.654   8.797  0.3915 -0.3121  0.0047
  258MOL0     C34725   8.964   5.655   8.853  0.5614 -0.0079  0.3189
  258MOL0     O34726   8.862   5.605   8.778  0.4465  0.6565  0.2189
  258MOL0     C34727   8.733   5.606   8.823 -0.7199 -0.4933  0.0989
  258MOL0     C34728   8.682   5.726   8.881  0.2609  0.4596  0.1375
  258MOL0     C34729   8.549   5.733   8.914  0.1357 -0.2005 -1.3603
  258MOL0     C34730   8.472   5.614   8.917 -0.4755  0.0486  0.2814
  258MOL0     O34731   8.341   5.599   8.969 -0.1123 -0.4914 -0.3727
  258MOL0     C34732   8.285   5.687   9.062 -0.3429 -0.1807 -0.5273
  258MOL0     C34733   8.136   5.683   9.067 -0.1666  0.6430 -0.7593
  258MOL0     C34734   8.084   5.769   9.182  0.5069 -0.4641  0.8130
  258MOL0     C34735   7.929   5.777   9.200 -0.0484  0.4906  0.7051
  258MOL0     C34736   7.897   5.907   9.291 -0.8321  0.1723 -0.4055
  258MOL0     C34737   7.989   5.924   9.410  0.1166 -0.7793  0.4628
  258MOL0     C34738   7.952   6.051   9.474  0.8101 -0.3015 -0.4120
  258MOL0     C34739   7.997   6.067   9.625 -0.4472 -0.4025  0.0628
  258MOL0    Cl34740   8.180   6.021   9.621  0.2416 -0.0241 -0.0409
  258MOL0     C34741   8.520   5.503   8.851 -0.0763 -0.4494 -0.1990
  258MOL0     C34742   8.649   5.500   8.805  0.6091  0.3807  0.4035
  258MOL0     O34743   8.956   5.697   8.967  1.5063  0.2802  0.6424
  258MOL0     C34744   9.110   5.728   8.683  0.3026 -0.3227  0.5218
  258MOL0     C34745   9.232   5.727   8.611 -0.4124  0.3817  0.3868
  258MOL0     N34746   9.716   5.817   8.087 -0.2244 -0.5877  0.3793
  258MOL0     N34747   9.797   5.879   8.012 -0.7033 -0.2436  0.2321
  258MOL0     C34748  11.079   6.420   7.969 -0.1720  0.1837  0.6701
  258MOL0     C34749  11.196   6.487   7.990  0.0086  0.1820  0.9669
  258MOL0     C34750  11.474   6.811   8.069  0.2585 -0.6865  0.6181
  258MOL0     C34751  11.578   6.784   7.978  0.7166  0.1956 -0.0029
  258MOL0     C34752  11.697   6.851   7.999  0.3295  0.3800 -0.4341
  258MOL0     C34753  11.721   6.931   8.106 -0.1315  0.1269  0.6208
  258MOL0     O34754  11.846   6.973   8.119  0.3441 -0.1260 -1.0929
  258MOL0     C34755  11.879   7.071   8.222 -0.0786 -0.1874 -0.4989
  258MOL0     C34756  12.017   7.137   8.207 -0.8352  0.4480 -0.0804
  258MOL0     C34757  12.032   7.205   8.065  0.4250  0.9471 -0.1578
  258MOL0     C34758  12.167   7.273   8.037  0.5706 -0.5146 -0.3985
  258MOL0     C34759  12.284   7.192   8.064  0.5332  0.0657  0.3529
  258MOL0     C34760  12.375   7.122   8.090 -0.1264 -0.3014  0.0862
  258MOL0     C34761  11.616   6.953   8.192 -0.6458  0.5079 -0.2812
  258MOL0     C34762  11.492   6.898   8.178  0.2584 -0.6596 -0.3326
  258MOL0     H34763  11.204   6.694   7.723 -0.3827  0.2427 -0.2873
  258MOL0     H34764  11.007   6.558   7.668 -0.5057 -1.3002 -0.0249
  258MOL0     H34765  10.874   6.218   7.950  1.6478  1.9086  3.5876
  258MOL0     H34766  10.801   6.373   8.008 -1.3755 -0.0610 -0.3892
  258MOL0     H34767  10.635   6.338   7.800 -1.2608 -1.1125 -0.3243
  258MOL0     H34768  10.714   6.193   7.772 -1.5013 -0.2329 -0.8656
  258MOL0     H34769  10.633   6.109   8.006  0.6894  1.3877  2.3601
  258MOL0     H34770  10.554   6.263   8.027 -2.8253 -1.3420  0.0733
  258MOL0     H34771  10.399   6.225   7.868 -1.4973 -1.4733 -0.2687
  258MOL0     H34772  10.490   6.077   7.802 -1.2557 -0.3739 -0.7532
  258MOL0     H34773  10.446   5.977   8.014  1.7017  1.5179 -0.3978
  258MOL0     H34774  10.348   6.109   8.083 -1.2805 -0.4259  0.0144
  258MOL0     H34775  10.184   6.081   7.894 -0.8030 -0.1917  1.1194
  258MOL0     H34776  10.265   5.939   7.847  0.9924  1.3553 -0.8730
  258MOL0     H34777  10.232   5.830   8.064 -0.1308 -0.1784  2.5128
  258MOL0     H34778  10.158   5.975   8.126 -0.2497 -0.2087 -0.0363
  258MOL0     H34779  10.067   5.802   7.900  2.7098 -0.9204  2.7524
  258MOL0     H34780  10.004   5.966   7.908 -1.4477  1.3302  1.8329
  258MOL0     H34781  10.016   5.683   8.154  0.6556  1.4839  2.0217
  258MOL0     H34782   9.698   5.530   8.199  1.3506 -1.9608  0.9350
  258MOL0     H34783   9.852   5.556   8.272 -0.5852  0.0100  0.3225
  258MOL0     H34784   9.614   5.727   8.348  0.1334  0.2142  0.3262
  258MOL0     H34785   9.771   5.696   8.437 -0.4540 -0.5069  0.6327
  258MOL0     H34786   9.729   5.471   8.477 -0.5239 -1.4653 -0.6389
  258MOL0     H34787   9.571   5.479   8.383 -0.2150  0.1371 -0.3714
  258MOL0     H34788   9.616   5.619   8.651  0.8283  0.6094 -0.6909
  258MOL0     H34789   9.537   5.465   8.623 -1.9344  0.6768  1.1621
  258MOL0     H34790   9.395   5.489   8.786 -0.0680 -0.6213  1.2848
  258MOL0     H34791   9.103   5.428   8.984  0.5239 -0.9955 -2.2573
  258MOL0     H34792   9.284   5.441   8.987 -0.2496 -1.2563 -0.5109
  258MOL0     H34793   9.190   5.565   9.063  1.7283  0.2594  0.7675
  258MOL0     H34794   8.744   5.814   8.890  1.3197 -0.3484  0.9454
  258MOL0     H34795   8.504   5.824   8.953  1.8005 -0.2631  0.9507
  258MOL0     H34796   8.326   5.654   9.159 -0.0231  1.6179 -0.0149
  258MOL0     H34797   8.315   5.789   9.038 -0.2885 -1.0698 -4.9518
  258MOL0     H34798   8.094   5.729   8.976 -2.3292  2.0013  0.8333
  258MOL0     H34799   8.109   5.578   9.073  0.8368  0.4362  0.2830
  258MOL0     H34800   8.126   5.869   9.169  1.5365 -1.1987 -2.1108
  258MOL0     H34801   8.125   5.728   9.275  1.2989  1.6562  1.4668
  258MOL0     H34802   7.881   5.781   9.102 -0.0270  1.7186  0.7381
  258MOL0     H34803   7.888   5.694   9.259 -2.1756  1.8553  1.2262
  258MOL0     H34804   7.796   5.895   9.329 -0.1810 -3.0705  0.6118
  258MOL0     H34805   7.897   6.000   9.233  0.4895  0.7466  0.4585
  258MOL0     H34806   7.973   5.840   9.479 -0.0805 -1.4868 -0.4202
  258MOL0     H34807   8.095   5.927   9.383 -0.8046  1.4578 -3.7070
  258MOL0     H34808   7.847   6.076   9.460  0.5780 -0.0091  1.6251
  258MOL0     H34809   8.007   6.129   9.419  4.3105 -1.0956  1.6802
  258MOL0     H34810   7.944   6.001   9.694 -1.8536  0.6319  0.0160
  258MOL0     H34811   7.977   6.170   9.657 -2.2141 -0.4342 -0.7912
  258MOL0     H34812   8.460   5.413   8.853 -0.6840 -0.0471 -0.0006
  258MOL0     H34813   8.694   5.407   8.769 -0.2661  0.1898 -0.2393
  258MOL0     H34814   9.032   5.798   8.654  1.1801  1.0926  1.4340
  258MOL0     H34815   9.244   5.795   8.527  0.6813 -1.0359 -0.6547
  258MOL0     H34816  11.050   6.348   8.045  2.1449  0.9853  2.4574
  258MOL0     H34817  11.244   6.481   8.087 -0.2746  0.8192  1.1497
  258MOL0     H34818  11.578   6.718   7.892  1.8152 -0.7858  0.7141
  258MOL0     H34819  11.775   6.831   7.927 -2.7115 -1.1737 -3.6383
  258MOL0     H34820  11.808   7.154   8.218 -2.3444 -1.9161  1.2818
  258MOL0     H34821  11.873   7.030   8.323  0.5857  1.7068  0.3627
  258MOL0     H34822  12.093   7.058   8.218 -2.5116 -1.5313 -1.7865
  258MOL0     H34823  12.024   7.209   8.289 -0.1407 -0.3404  0.5793
  258MOL0     H34824  11.949   7.273   8.047 -0.8200 -1.0304 -2.6413
  258MOL0     H34825  12.020   7.121   7.996 -0.4079  1.1179 -0.2301
  258MOL0     H34826  12.155   7.360   8.102 -2.9533 -1.0201 -0.1920
  258MOL0     H34827  12.167   7.302   7.932 -2.2500 -0.2946 -0.4218
  258MOL0     H34828  12.444   7.045   8.117  1.5773 -0.3477 -3.7750
  258MOL0     H34829  11.630   7.009   8.284  0.8343  0.0653 -0.2137
  258MOL0     H34830  11.415   6.917   8.251  1.5007  1.3920  0.5516
  259MOL0     O34831   1.478   4.681   2.535  0.5515  0.2279  0.0736
  259MOL0     C34832   1.526   4.561   2.538 -0.2273 -1.2332 -0.5512
  259MOL0     O34833   1.457   4.443   2.541  0.0340 -0.4060  0.2820
  259MOL0     C34834   1.329   4.441   2.586  0.1057  0.1218 -0.9680
  259MOL0     C34835   1.234   4.496   2.503  0.8740  0.3179 -0.4408
  259MOL0     C34836   1.099   4.494   2.553 -0.1106 -0.8321 -0.6043
  259MOL0     C34837   1.057   4.435   2.676 -0.6907  0.2079  0.0941
  259MOL0     O34838   0.925   4.459   2.711  0.0599 -0.5017  0.0288
  259MOL0     C34839   0.900   4.449   2.853 -0.1590  0.0671  0.2371
  259MOL0     C34840   0.759   4.503   2.875 -0.1300 -0.0301  0.0853
  259MOL0     C34841   0.645   4.435   2.797 -0.0370 -0.6180  0.3402
  259MOL0     C34842   0.523   4.444   2.890 -0.0781 -0.3787 -0.0347
  259MOL0     C34843   0.412   4.386   2.817 -0.3926  0.4513  0.8326
  259MOL0     C34844   0.277   4.447   2.853  0.4605  0.3504  0.5920
  259MOL0     C34845   0.163   4.377   2.764 -0.4813  0.0733 -0.6500
  259MOL0     C34846   0.080   4.266   2.846 -0.4428 -0.6839 -0.1066
  259MOL0     N34847   0.164   4.173   2.926 -0.4981  0.0435 -0.1883
  259MOL0     C34848   0.237   4.077   2.869 -0.4255  0.5104 -0.1628
  259MOL0     C34849   0.295   4.022   2.983 -0.0286 -0.3776  0.0256
  259MOL0     C34850   0.398   3.921   2.998 -0.3407  0.2374  0.1767
  259MOL0     C34851   0.532   3.968   3.063  0.4454  0.5057 -0.2000
  259MOL0     C34852   0.601   4.070   2.977 -0.1089 -0.5933 -0.0304
  259MOL0     C34853   0.740   4.101   3.033 -0.2609  0.7862 -0.5040
  259MOL0     O34854   0.840   3.990   3.004  0.6506 -0.4294 -0.1976
  259MOL0     C34855   0.974   4.013   2.995 -0.2003  1.1063  0.1050
  259MOL0     C34856   1.057   3.913   2.937  0.9973  0.0240  1.1163
  259MOL0     C34857   1.194   3.930   2.910  0.6094  0.1652  0.3524
  259MOL0     C34858   1.264   3.806   2.861  0.2254 -0.7250 -0.2088
  259MOL0     C34859   1.256   4.049   2.951  0.3490 -0.0063 -0.2989
  259MOL0     C34860   1.409   4.083   2.930  0.8187 -0.7926  0.4143
  259MOL0     O34861   1.483   3.983   2.882 -0.2874  0.2464 -0.1464
  259MOL0     C34862   1.618   3.992   2.896  0.5860  0.2009  1.5466
  259MOL0     C34863   1.693   3.884   2.955  0.6069 -0.4586 -0.7877
  259MOL0     C34864   1.829   3.881   2.967  0.0229 -0.4068 -0.2400
  259MOL0     C34865   1.905   3.985   2.920 -0.2135 -0.3812  0.5049
  259MOL0     O34866   2.042   3.994   2.934 -0.0902  0.2000 -0.0053
  259MOL0     C34867   2.113   3.893   2.858  0.4201  0.1172 -0.4176
  259MOL0     C34868   2.258   3.924   2.866 -1.2752  0.3158 -0.8349
  259MOL0     C34869   2.359   3.824   2.801  0.5157 -0.7222 -0.0179
  259MOL0     C34870   2.479   3.908   2.752 -0.3590  1.3402  0.5572
  259MOL0     C34871   2.605   3.813   2.732  0.0763  0.7472  0.0709
  259MOL0     C34872   2.730   3.892   2.708 -0.1248 -0.2188 -0.5967
  259MOL0     C34873   2.832   3.810   2.639 -1.0573  0.7570 -0.2338
  259MOL0     C34874   2.961   3.891   2.620  0.1678  0.3348 -0.3640
  259MOL0    Cl34875   2.927   3.983   2.476  0.2446  0.3779 -0.5616
  259MOL0     C34876   1.840   4.085   2.843  0.0357 -0.0034  0.1401
  259MOL0     C34877   1.707   4.094   2.834 -0.3918  0.2584  0.2080
  259MOL0     O34878   1.447   4.203   2.950  0.1553  0.5585 -0.3957
  259MOL0     C34879   1.178   4.143   3.023 -0.0103  0.3418 -0.1169
  259MOL0     C34880   1.040   4.125   3.036 -0.2265 -0.0368  0.5348
  259MOL0     N34881   0.251   4.082   3.098  0.2296  0.5657 -0.3287
  259MOL0     N34882   0.170   4.174   3.060  0.5854  0.0356 -1.1614
  259MOL0     C34883   1.159   4.383   2.752 -1.0003 -0.1634  0.4676
  259MOL0     C34884   1.294   4.389   2.713 -0.5800  0.2636 -0.0654
  259MOL0     C34885   1.673   4.551   2.515  0.8806 -1.7346  0.3854
  259MOL0     C34886   1.748   4.670   2.484 -1.1836 -0.4914 -0.5539
  259MOL0     C34887   1.883   4.672   2.507  0.8891  0.0962 -0.2566
  259MOL0     C34888   1.952   4.568   2.550 -0.1926  0.4141 -0.9493
  259MOL0     O34889   2.085   4.584   2.585 -0.1426 -0.0471  0.3002
  259MOL0     C34890   2.154   4.467   2.640 -0.3985 -0.3043 -0.7863
  259MOL0     C34891   2.302   4.515   2.676 -0.6590  0.0707 -1.2783
  259MOL0     C34892   2.409   4.414   2.727  0.0069  0.0038 -0.2780
  259MOL0     C34893   2.417   4.295   2.637 -0.0783 -0.6739 -0.3897
  259MOL0     C34894   2.554   4.249   2.627  0.1669 -0.0957 -0.2167
  259MOL0     C34895   2.673   4.226   2.610  0.9059 -0.3950 -0.0451
  259MOL0     C34896   1.884   4.449   2.573  0.4866  0.2442 -0.1808
  259MOL0     C34897   1.742   4.435   2.554 -1.0179  1.0156 -0.3002
  259MOL0     H34898   1.261   4.542   2.409  0.1238 -0.2456 -0.9498
  259MOL0     H34899   1.026   4.537   2.486 -1.3081  3.0080  2.7477
  259MOL0     H34900   0.901   4.345   2.888  0.4217 -0.6129 -1.6867
  259MOL0     H34901   0.975   4.501   2.914 -1.2726  2.0006  0.0244
  259MOL0     H34902   0.731   4.502   2.980  3.0802 -1.7837  1.0760
  259MOL0     H34903   0.763   4.611   2.857  1.2302 -0.2481 -1.1890
  259MOL0     H34904   0.629   4.482   2.700 -2.8038 -3.0229 -0.4794
  259MOL0     H34905   0.661   4.328   2.781  3.0660 -0.3970  1.2675
  259MOL0     H34906   0.544   4.398   2.987  1.1791 -0.4441 -0.3190
  259MOL0     H34907   0.491   4.547   2.911 -2.1355 -0.1440 -3.4193
  259MOL0     H34908   0.414   4.400   2.708 -3.2940 -0.9207  0.5065
  259MOL0     H34909   0.409   4.278   2.835 -3.4120  0.3590  0.3272
  259MOL0     H34910   0.255   4.432   2.959 -0.9206 -1.5871  0.0779
  259MOL0     H34911   0.274   4.552   2.823  1.6800  0.1229 -0.3937
  259MOL0     H34912   0.085   4.446   2.731 -2.2712 -0.6439  1.7637
  259MOL0     H34913   0.200   4.316   2.680  2.5357 -0.2218  0.7793
  259MOL0     H34914   0.007   4.210   2.787  0.8398 -0.8502 -1.6270
  259MOL0     H34915   0.026   4.329   2.917  4.2596  2.3477  1.2775
  259MOL0     H34916   0.258   4.070   2.763  0.3584  0.7060 -0.0241
  259MOL0     H34917   0.358   3.835   3.052 -0.0619  0.7698  1.2499
  259MOL0     H34918   0.417   3.884   2.896 -0.5472  1.0074 -0.1450
  259MOL0     H34919   0.604   3.887   3.075  0.6261  0.8239  1.0082
  259MOL0     H34920   0.514   4.001   3.165 -1.8774  0.3135 -0.5130
  259MOL0     H34921   0.546   4.164   2.989 -0.5377 -0.5656 -1.8540
  259MOL0     H34922   0.615   4.040   2.873 -2.2757 -0.6858 -0.3469
  259MOL0     H34923   0.736   4.124   3.139 -0.9645 -0.3388 -0.2722
  259MOL0     H34924   0.779   4.194   2.989 -2.1281  1.0387 -1.7602
  259MOL0     H34925   1.007   3.820   2.908  0.7989  0.7533 -1.0445
  259MOL0     H34926   1.331   3.760   2.934  1.1842  1.5433  0.4414
  259MOL0     H34927   1.189   3.737   2.820  0.6154 -0.7118 -0.9657
  259MOL0     H34928   1.321   3.832   2.771  3.1610  2.4172  2.3151
  259MOL0     H34929   1.633   3.804   2.997 -2.7243  2.5930  0.7882
  259MOL0     H34930   1.877   3.799   3.019 -1.7949 -1.1270  0.3998
  259MOL0     H34931   2.101   3.795   2.905  2.0994  0.7896  1.5749
  259MOL0     H34932   2.074   3.887   2.756 -0.0464  1.8996 -0.3853
  259MOL0     H34933   2.266   4.021   2.814  2.6863  1.2551  1.0786
  259MOL0     H34934   2.288   3.939   2.970  0.0524  0.0872 -1.1645
  259MOL0     H34935   2.308   3.774   2.718  1.3959  0.5568 -1.3772
  259MOL0     H34936   2.398   3.749   2.871  1.2454  0.5259  0.9634
  259MOL0     H34937   2.440   3.967   2.669 -2.3722  0.4612  0.8148
  259MOL0     H34938   2.503   3.983   2.828  3.1671  0.5781  0.4030
  259MOL0     H34939   2.577   3.753   2.645 -2.1403  1.4774  0.2127
  259MOL0     H34940   2.635   3.754   2.818  1.1433  0.3879 -0.5323
  259MOL0     H34941   2.700   3.970   2.637  1.0557 -1.0017 -2.0140
  259MOL0     H34942   2.774   3.935   2.798 -2.6119 -0.7894  0.9859
  259MOL0     H34943   2.806   3.770   2.540  3.7628  1.0269 -1.8916
  259MOL0     H34944   2.852   3.720   2.697  0.0455 -0.1026 -1.8681
  259MOL0     H34945   3.042   3.818   2.608 -1.4541 -2.6063  4.1666
  259MOL0     H34946   2.978   3.955   2.707 -0.3372 -1.7873  1.3908
  259MOL0     H34947   1.902   4.163   2.801  2.5732 -1.7105  0.4366
  259MOL0     H34948   1.657   4.162   2.766  1.3605  0.4246 -0.9658
  259MOL0     H34949   1.228   4.230   3.063  2.8358 -0.0099 -2.5207
  259MOL0     H34950   0.985   4.205   3.084  1.2820 -0.8052  3.8318
  259MOL0     H34951   1.132   4.357   2.854 -2.6981  1.1431  0.3983
  259MOL0     H34952   1.381   4.353   2.766  1.4093  1.9907 -1.9648
  259MOL0     H34953   1.698   4.763   2.460 -3.4303 -0.9679  1.7922
  259MOL0     H34954   1.931   4.766   2.480 -1.2322  0.9703 -1.1963
  259MOL0     H34955   2.096   4.426   2.724 -2.9191 -0.1218 -2.3242
  259MOL0     H34956   2.158   4.387   2.565 -0.0507 -1.4923  0.4549
  259MOL0     H34957   2.295   4.605   2.737  1.7553 -0.1308 -0.5976
  259MOL0     H34958   2.333   4.552   2.578  0.9030  0.8731 -0.5218
  259MOL0     H34959   2.378   4.363   2.819  2.1872 -2.6531 -0.8823
  259MOL0     H34960   2.503   4.468   2.740 -1.2250  1.9351  1.2408
  259MOL0     H34961   2.384   4.319   2.536  0.9554  1.1055 -0.3407
  259MOL0     H34962   2.358   4.214   2.682  0.5065 -0.8039  0.1685
  259MOL0     H34963   2.766   4.226   2.556 -0.4134 -1.0224 -2.4410
  259MOL0     H34964   1.933   4.360   2.610 -0.1442 -0.3636 -0.7656
  259MOL0     H34965   1.685   4.349   2.588 -1.2592  0.7558 -1.3220
  260MOL0     O34966   3.949   9.313   4.831  0.4240  0.0008  0.2036
  260MOL0     C34967   3.998   9.382   4.918  0.2252 -0.1194  0.3666
  260MOL0     O34968   4.074   9.338   5.017  0.1622 -0.0418  0.3496
  260MOL0     C34969   4.144   9.224   5.005  0.0251  0.7623  0.6714
  260MOL0     C34970   4.159   9.143   5.111 -0.4971  0.6057 -0.7484
  260MOL0     C34971   4.242   9.029   5.109 -0.4607 -0.1879 -0.2650
  260MOL0     C34972   4.295   8.989   4.988 -0.6575 -0.5570  0.2876
  260MOL0     O34973   4.366   8.868   4.966  0.0140 -0.4379 -0.3579
  260MOL0     C34974   4.291   8.774   4.894  0.0805  0.2064  0.3520
  260MOL0     C34975   4.186   8.692   4.972 -0.5002  0.4023  0.4869
  260MOL0     C34976   4.113   8.593   4.889  0.8485  0.7121  0.6228
  260MOL0     C34977   4.201   8.477   4.847 -0.7478 -0.5103  0.0109
  260MOL0     C34978   4.128   8.398   4.734 -0.1872  0.1348  0.1855
  260MOL0     C34979   4.006   8.320   4.796 -0.1860  0.6314 -0.1123
  260MOL0     C34980   3.958   8.207   4.699  0.3051 -0.4781 -1.0746
  260MOL0     C34981   3.870   8.108   4.763  0.4125 -0.5395 -0.2490
  260MOL0     N34982   3.728   8.141   4.758 -0.8151  0.0806 -0.0369
  260MOL0     C34983   3.634   8.085   4.673 -0.4161 -0.1162 -0.2113
  260MOL0     C34984   3.520   8.158   4.707 -0.0341  0.9514  0.4127
  260MOL0     C34985   3.384   8.149   4.636  0.0617 -0.1216  0.0227
  260MOL0     C34986   3.277   8.054   4.703 -0.2575  0.9751  0.3194
  260MOL0     C34987   3.156   8.036   4.609 -0.2003  0.2634 -0.9097
  260MOL0     C34988   3.051   7.936   4.677 -0.2751  0.2136  0.3906
  260MOL0     O34989   2.941   7.935   4.593 -0.3759 -0.0146 -0.0401
  260MOL0     C34990   2.836   7.856   4.614 -0.6241 -0.1164 -0.0948
  260MOL0     C34991   2.825   7.746   4.700 -0.5246  0.3503  0.4797
  260MOL0     C34992   2.711   7.664   4.706 -1.1103 -0.2278 -0.7209
  260MOL0     C34993   2.713   7.570   4.817  0.0534 -0.7634  0.4835
  260MOL0     C34994   2.598   7.695   4.629  0.3597  0.3210 -0.1301
  260MOL0     C34995   2.463   7.634   4.646  0.5815  0.1586  0.0839
  260MOL0     O34996   2.380   7.633   4.537 -0.2068  0.3202 -0.3082
  260MOL0     C34997   2.245   7.613   4.539  1.4956  0.0525  0.4714
  260MOL0     C34998   2.177   7.530   4.634 -0.2799  0.5485 -0.5512
  260MOL0     C34999   2.036   7.497   4.618  0.0235 -0.4323  0.2359
  260MOL0     C35000   1.963   7.548   4.518 -0.9445 -0.1368  0.5674
  260MOL0     O35001   1.827   7.527   4.522 -0.3781  0.3450 -1.0414
  260MOL0     C35002   1.748   7.551   4.400  0.7903  0.1898  0.5282
  260MOL0     C35003   1.603   7.525   4.425 -0.0803  0.1224  0.1510
  260MOL0     C35004   1.586   7.370   4.444  0.2953 -0.2463  0.3825
  260MOL0     C35005   1.441   7.337   4.478  0.0592  0.0297  0.8936
  260MOL0     C35006   1.428   7.321   4.628  1.2435 -0.3691 -0.2253
  260MOL0     C35007   1.309   7.225   4.652 -0.5929  0.4511 -0.8314
  260MOL0     C35008   1.281   7.198   4.804  0.0963 -0.1733  0.1780
  260MOL0     C35009   1.181   7.096   4.837  0.3992 -0.3686 -0.6013
  260MOL0    Cl35010   1.013   7.137   4.801  0.3896  0.0730 -0.1287
  260MOL0     C35011   2.028   7.637   4.425 -0.1016  0.3824 -0.1129
  260MOL0     C35012   2.168   7.662   4.438 -0.3695  0.0336  0.2536
  260MOL0     O35013   2.425   7.603   4.758 -0.0409  0.1608 -0.4430
  260MOL0     C35014   2.613   7.798   4.531 -0.4050 -0.0723  0.0540
  260MOL0     C35015   2.730   7.873   4.520 -0.0521  0.8002  0.9593
  260MOL0     N35016   3.545   8.246   4.806  0.2731  0.0635  0.1519
  260MOL0     N35017   3.670   8.235   4.840  0.9547 -0.3353 -0.0373
  260MOL0     C35018   4.290   9.073   4.875  0.6254  0.7802 -0.5822
  260MOL0     C35019   4.214   9.192   4.884  0.1930  0.0352 -0.7125
  260MOL0     C35020   3.958   9.529   4.917 -0.7421  0.2673  0.0524
  260MOL0     C35021   4.013   9.609   5.015  0.3103 -0.0521 -0.1388
  260MOL0     C35022   3.963   9.739   5.041  0.6069  0.5084  0.3357
  260MOL0     C35023   3.891   9.796   4.939  0.9442  0.4714  0.5291
  260MOL0     O35024   3.846   9.920   4.952 -0.8907  0.1136  0.3875
  260MOL0     C35025   3.939  10.018   4.992 -0.9102 -0.3360 -0.6211
  260MOL0     C35026   4.044  10.051   4.892  0.2181  0.8608  0.6037
  260MOL0     C35027   4.154  10.158   4.930  0.0698 -0.0565 -0.1475
  260MOL0     C35028   4.241  10.176   4.811  0.3214  1.0786 -0.2209
  260MOL0     C35029   4.166  10.214   4.691 -0.3610  0.7645  0.5048
  260MOL0     C35030   4.098  10.268   4.607  0.2393 -0.3719  0.2995
  260MOL0     C35031   3.854   9.720   4.824  0.2422  0.1475 -0.7393
  260MOL0     C35032   3.866   9.584   4.822 -0.7341 -0.3491  0.3582
  260MOL0     H35033   4.108   9.165   5.204  0.9786 -1.8469  0.7208
  260MOL0     H35034   4.263   8.966   5.194  0.1918 -0.1962 -0.4207
  260MOL0     H35035   4.233   8.832   4.822  0.3267 -0.8788 -0.7483
  260MOL0     H35036   4.358   8.714   4.833 -0.5082  3.3727 -3.8156
  260MOL0     H35037   4.232   8.638   5.055 -0.3773 -2.2505 -1.1913
  260MOL0     H35038   4.119   8.766   5.017  1.0666  0.8486  2.2159
  260MOL0     H35039   4.021   8.563   4.941  2.1985  0.5782  3.0847
  260MOL0     H35040   4.079   8.653   4.804  1.2275  1.4643  0.9864
  260MOL0     H35041   4.297   8.508   4.804 -0.3110 -1.3309  0.3548
  260MOL0     H35042   4.223   8.419   4.937 -0.1944 -1.1359 -0.5113
  260MOL0     H35043   4.099   8.471   4.658  1.0196  1.9461  1.3868
  260MOL0     H35044   4.187   8.313   4.697 -0.5404 -1.2939  2.7025
  260MOL0     H35045   4.042   8.273   4.888  0.6216  1.6362  0.1050
  260MOL0     H35046   3.919   8.382   4.822 -2.0297 -2.1532  0.9266
  260MOL0     H35047   3.914   8.236   4.603 -0.4177 -1.9643 -1.2203
  260MOL0     H35048   4.049   8.158   4.665  1.1483  1.6664 -2.1069
  260MOL0     H35049   3.900   8.112   4.868  0.0452  0.1666 -0.1662
  260MOL0     H35050   3.879   8.005   4.728 -2.8261 -1.1455  0.4206
  260MOL0     H35051   3.648   7.995   4.613 -1.4469  0.4016 -1.2617
  260MOL0     H35052   3.341   8.250   4.630  2.9175  1.2091  0.1492
  260MOL0     H35053   3.390   8.107   4.535 -3.5239 -3.6078  0.9775
  260MOL0     H35054   3.262   8.096   4.803  1.9947  0.6932  0.8376
  260MOL0     H35055   3.322   7.954   4.706 -0.0232  1.0441 -0.6506
  260MOL0     H35056   3.194   7.997   4.514  0.8382  0.7737 -0.7136
  260MOL0     H35057   3.107   8.134   4.602 -0.2135  0.6303  2.5404
  260MOL0     H35058   3.017   7.983   4.770  0.3834 -0.1725  0.8338
  260MOL0     H35059   3.105   7.841   4.686  2.5458  1.8056  1.1548
  260MOL0     H35060   2.909   7.730   4.767 -0.4142 -2.2672 -0.1696
  260MOL0     H35061   2.814   7.531   4.832  0.4437  0.9192  2.8204
  260MOL0     H35062   2.680   7.617   4.910  0.2034  1.3523 -0.4685
  260MOL0     H35063   2.643   7.492   4.785 -1.2869  0.2464  0.8708
  260MOL0     H35064   2.231   7.495   4.721  0.8726  2.0305 -0.6499
  260MOL0     H35065   1.989   7.435   4.693  1.8181 -0.3850  1.4782
  260MOL0     H35066   1.765   7.649   4.354  1.3633  1.2179  2.8041
  260MOL0     H35067   1.790   7.476   4.333  3.2771  0.7003  1.4150
  260MOL0     H35068   1.567   7.567   4.520 -1.8532 -1.3476  0.1765
  260MOL0     H35069   1.537   7.558   4.345 -1.8644  1.0409  1.9033
  260MOL0     H35070   1.648   7.335   4.527 -2.7123  1.4238  3.6088
  260MOL0     H35071   1.613   7.331   4.346  0.5970 -1.0902  0.7939
  260MOL0     H35072   1.371   7.408   4.434 -0.1523 -1.5743 -1.5860
  260MOL0     H35073   1.419   7.244   4.424  0.7235 -0.2201  1.0434
  260MOL0     H35074   1.410   7.417   4.676 -0.0442 -0.1244 -1.1557
  260MOL0     H35075   1.517   7.273   4.670  1.2156 -1.2186 -1.0872
  260MOL0     H35076   1.222   7.268   4.603 -1.4860 -0.4454 -0.0850
  260MOL0     H35077   1.335   7.131   4.603  1.2466  1.3077 -1.6086
  260MOL0     H35078   1.245   7.294   4.844  0.1721 -0.0576 -0.0294
  260MOL0     H35079   1.369   7.169   4.863 -1.1233  0.7994  2.6453
  260MOL0     H35080   1.187   7.084   4.946  0.4556  0.6686 -0.4828
  260MOL0     H35081   1.199   6.994   4.803  2.4598  0.1529 -1.2534
  260MOL0     H35082   1.973   7.675   4.340  2.5176  3.9066 -0.4903
  260MOL0     H35083   2.208   7.725   4.360  0.8736 -1.4647 -0.3685
  260MOL0     H35084   2.542   7.809   4.449  0.4154  1.3586 -0.4967
  260MOL0     H35085   2.741   7.948   4.442  0.1660 -1.5041 -1.3454
  260MOL0     H35086   4.349   9.042   4.790 -0.8765 -1.5380 -0.8691
  260MOL0     H35087   4.211   9.262   4.802 -0.3363  2.4849  1.2899
  260MOL0     H35088   4.080   9.550   5.077  1.3180 -2.6047 -3.4140
  260MOL0     H35089   3.992   9.794   5.130  2.4451 -1.0859  0.8091
  260MOL0     H35090   3.879  10.109   5.004  0.3568  0.4971 -0.4410
  260MOL0     H35091   3.985   9.991   5.087 -0.7655 -1.0188 -0.8831
  260MOL0     H35092   3.985  10.074   4.803 -1.0963 -0.5945  1.0475
  260MOL0     H35093   4.089   9.955   4.866  0.4077  0.7850  1.1822
  260MOL0     H35094   4.224  10.116   5.002 -1.9079 -1.1719  1.2422
  260MOL0     H35095   4.104  10.251   4.959 -1.3281 -0.2340 -1.8046
  260MOL0     H35096   4.281  10.078   4.786 -4.2342 -0.6181 -1.9310
  260MOL0     H35097   4.319  10.249   4.836 -0.3788  1.7882 -0.0392
  260MOL0     H35098   4.048  10.312   4.523  4.5115 -0.9399 -2.9039
  260MOL0     H35099   3.787   9.779   4.762 -1.4259  1.3612  2.0492
  260MOL0     H35100   3.816   9.526   4.745  1.1552  1.4505 -2.4187
  261MOL0     O35101   2.918   2.207   2.916  0.1903 -0.2248  0.0352
  261MOL0     C35102   2.972   2.304   2.973 -0.9163 -0.3440  0.2309
  261MOL0     O35103   2.906   2.418   3.005 -0.1945  0.0796  0.0823
  261MOL0     C35104   2.778   2.420   2.967 -0.1538  0.0770  0.2770
  261MOL0     C35105   2.675   2.381   3.054  0.5792  0.8300 -0.3434
  261MOL0     C35106   2.539   2.368   3.006  0.0189  1.0007  0.7285
  261MOL0     C35107   2.506   2.396   2.869  0.6833 -0.5387 -0.0184
  261MOL0     O35108   2.373   2.392   2.816  0.9555 -0.1302  0.1408
  261MOL0     C35109   2.261   2.338   2.898 -0.1462 -0.1427 -0.3894
  261MOL0     C35110   2.210   2.429   3.010 -0.0168 -0.0577 -0.2224
  261MOL0     C35111   2.123   2.332   3.097 -0.1945  0.5820  0.0741
  261MOL0     C35112   1.988   2.297   3.029 -0.2304 -0.0524  0.2255
  261MOL0     C35113   1.869   2.285   3.129 -0.6173  1.0461  0.5151
  261MOL0     C35114   1.739   2.305   3.046  0.3172 -0.2011  0.1910
  261MOL0     C35115   1.715   2.201   2.945  0.5266 -0.1699  1.0742
  261MOL0     C35116   1.677   2.062   2.979 -1.0157 -0.1140  0.3081
  261MOL0     N35117   1.551   2.052   3.040 -0.0461 -0.0996 -0.4850
  261MOL0     C35118   1.429   2.090   2.996  0.4433  0.5567 -0.2298
  261MOL0     C35119   1.340   2.075   3.102  0.0357  0.9245 -0.0180
  261MOL0     C35120   1.193   2.110   3.092 -0.3661  0.5397 -0.3597
  261MOL0     C35121   1.112   1.978   3.104  0.2922 -0.5035  0.2587
  261MOL0     C35122   0.959   2.004   3.096 -0.1561  0.4635  0.0893
  261MOL0     C35123   0.877   1.878   3.143 -0.5297 -0.0015  0.3917
  261MOL0     O35124   0.743   1.903   3.120  0.1495  0.3862  0.4479
  261MOL0     C35125   0.638   1.835   3.186  0.0710  0.8208 -0.8364
  261MOL0     C35126   0.640   1.704   3.233 -0.3530  0.0999  0.1432
  261MOL0     C35127   0.526   1.640   3.279  0.1783 -0.0907 -0.1515
  261MOL0     C35128   0.550   1.492   3.323  0.0175 -0.6009 -0.0295
  261MOL0     C35129   0.402   1.709   3.280 -1.4081 -0.7227  0.3513
  261MOL0     C35130   0.286   1.650   3.338  0.5541 -0.8836  0.4272
  261MOL0     O35131   0.269   1.516   3.330  0.0706 -0.3227 -0.1817
  261MOL0     C35132   0.211   1.439   3.431 -0.2595 -0.4061 -0.0263
  261MOL0     C35133   0.249   1.451   3.560 -0.6290 -0.0897 -0.0527
  261MOL0     C35134   0.208   1.360   3.652  0.0249 -0.4299 -0.0190
  261MOL0     C35135   0.110   1.259   3.624  0.6342  0.5319  0.0366
  261MOL0     O35136   0.086   1.162   3.730  0.1505  0.7543 -0.1266
  261MOL0     C35137  -0.028   1.075   3.717 -0.1688  0.6505  0.3907
  261MOL0     C35138  -0.149   1.162   3.735 -0.1815 -0.3166 -0.5661
  261MOL0     C35139  -0.278   1.098   3.693  0.1713 -1.1800 -0.3648
  261MOL0     C35140  -0.394   1.186   3.737 -0.3876  0.8107 -0.1963
  261MOL0     C35141  -0.506   1.168   3.641 -0.2492 -0.2403  0.5443
  261MOL0     C35142  -0.646   1.214   3.693 -0.1318 -0.4412 -0.0718
  261MOL0     C35143  -0.741   1.209   3.572  0.4400  0.1499 -0.7937
  261MOL0     C35144  -0.874   1.259   3.611  0.6937  0.1508  0.3516
  261MOL0    Cl35145  -0.981   1.125   3.659 -0.4713 -0.0179 -0.1402
  261MOL0     C35146   0.064   1.257   3.494 -0.0878  0.7738 -0.6266
  261MOL0     C35147   0.114   1.339   3.392 -0.5739 -0.6714 -0.9164
  261MOL0     O35148   0.200   1.724   3.384  0.2349  0.1189  0.9185
  261MOL0     C35149   0.407   1.846   3.246  0.1513  0.0508 -0.0771
  261MOL0     C35150   0.520   1.907   3.200 -0.6310 -0.1821  0.4175
  261MOL0     N35151   1.419   2.043   3.207  0.5078 -0.1898  0.1530
  261MOL0     N35152   1.541   2.023   3.173  0.6526 -0.0411 -0.5071
  261MOL0     C35153   2.608   2.446   2.789 -0.1272  0.8676  0.0868
  261MOL0     C35154   2.739   2.457   2.837  0.1554 -0.8456  0.0163
  261MOL0     C35155   3.113   2.294   3.001  0.6503 -0.0187 -0.4141
  261MOL0     C35156   3.189   2.179   2.951  0.2054 -1.0898 -0.0007
  261MOL0     C35157   3.325   2.181   2.976  0.4939  0.3200  0.1998
  261MOL0     C35158   3.389   2.285   3.037 -0.2835  0.3362 -0.1666
  261MOL0     O35159   3.517   2.276   3.075 -0.0993  0.2200  0.2894
  261MOL0     C35160   3.614   2.225   2.976  0.2305 -0.5032 -0.6839
  261MOL0     C35161   3.745   2.272   3.031 -0.6437  0.1952  0.7291
  261MOL0     C35162   3.765   2.424   3.052  0.3952 -0.4178 -0.6746
  261MOL0     C35163   3.860   2.463   3.161  0.5616  0.0648 -0.3648
  261MOL0     C35164   3.993   2.444   3.108 -0.3456  0.1986 -0.0344
  261MOL0     C35165   4.111   2.428   3.083 -0.3012 -0.4613  0.1304
  261MOL0     C35166   3.310   2.395   3.077 -0.3821  0.2106 -0.4278
  261MOL0     C35167   3.174   2.406   3.058 -0.2511 -0.5160  0.0057
  261MOL0     H35168   2.705   2.342   3.150  2.1326 -0.1484 -1.1761
  261MOL0     H35169   2.466   2.328   3.075 -1.6270  1.3134 -0.7696
  261MOL0     H35170   2.176   2.319   2.832  1.0631 -0.6914 -1.8554
  261MOL0     H35171   2.307   2.248   2.938  1.3481  1.1249  0.8852
  261MOL0     H35172   2.298   2.467   3.063 -0.2551 -0.2435  0.3082
  261MOL0     H35173   2.152   2.514   2.973  0.2767  0.9846  1.5781
  261MOL0     H35174   2.175   2.243   3.132  0.4194  1.1696  0.6592
  261MOL0     H35175   2.110   2.388   3.190 -0.7122  1.6775 -0.6298
  261MOL0     H35176   1.970   2.380   2.959  1.8429  1.4722  1.4033
  261MOL0     H35177   1.990   2.212   2.960 -0.2266 -0.5125  0.7866
  261MOL0     H35178   1.865   2.188   3.181 -0.9518  2.3594  3.1083
  261MOL0     H35179   1.878   2.360   3.209 -0.3390  1.8693 -0.2738
  261MOL0     H35180   1.650   2.308   3.110 -0.0061 -1.5015 -0.1684
  261MOL0     H35181   1.754   2.399   2.993  0.4135 -0.5278 -0.3747
  261MOL0     H35182   1.637   2.243   2.881  1.2154 -2.2531 -1.2989
  261MOL0     H35183   1.796   2.179   2.874  0.7995  2.7491  0.3269
  261MOL0     H35184   1.750   2.021   3.048 -0.6280 -0.9966 -0.6063
  261MOL0     H35185   1.671   2.000   2.889 -2.8249  0.9450 -0.3740
  261MOL0     H35186   1.390   2.130   2.903 -0.3557 -0.7860 -0.4937
  261MOL0     H35187   1.177   2.190   3.165  0.6106 -1.0531  1.7128
  261MOL0     H35188   1.168   2.153   2.995  1.5268  1.3116 -0.5532
  261MOL0     H35189   1.132   1.939   3.205  1.8907  2.4860  1.2186
  261MOL0     H35190   1.135   1.918   3.016 -1.5642  1.0535 -1.3939
  261MOL0     H35191   0.939   2.019   2.990 -0.0606  0.9455  0.1370
  261MOL0     H35192   0.927   2.089   3.158  1.0298  0.4905  0.7003
  261MOL0     H35193   0.911   1.861   3.246  6.8548 -0.3493 -1.5296
  261MOL0     H35194   0.913   1.793   3.084  0.2028 -0.5656  1.6202
  261MOL0     H35195   0.738   1.657   3.227  0.3258  1.5763 -1.3622
  261MOL0     H35196   0.644   1.453   3.282  0.1133 -1.0801  0.6395
  261MOL0     H35197   0.549   1.478   3.431 -0.9826 -0.2679  0.0091
  261MOL0     H35198   0.477   1.424   3.278  1.4150 -2.5866  0.5375
  261MOL0     H35199   0.321   1.530   3.581  1.7196 -1.8168 -1.0600
  261MOL0     H35200   0.254   1.364   3.750  0.4983 -3.1846 -0.0707
  261MOL0     H35201  -0.025   1.023   3.621  1.9366 -0.8216  1.1873
  261MOL0     H35202  -0.029   1.000   3.797 -3.5982 -1.3536 -1.2989
  261MOL0     H35203  -0.154   1.182   3.843 -0.1748 -0.3105 -0.5668
  261MOL0     H35204  -0.137   1.257   3.682  0.9530 -0.4033 -0.4851
  261MOL0     H35205  -0.269   1.008   3.754  0.7563 -0.6963  0.2942
  261MOL0     H35206  -0.277   1.075   3.586 -1.0862 -1.6369 -0.2944
  261MOL0     H35207  -0.414   1.156   3.840  0.8355 -0.1396 -0.2151
  261MOL0     H35208  -0.376   1.294   3.749 -0.9602  0.6000  4.5534
  261MOL0     H35209  -0.517   1.062   3.618  2.6060 -0.2472 -1.3428
  261MOL0     H35210  -0.490   1.223   3.548 -0.0404 -0.8023  0.2426
  261MOL0     H35211  -0.681   1.156   3.778 -1.3092  1.2872  0.6907
  261MOL0     H35212  -0.636   1.319   3.724 -0.8632  0.1017 -1.6057
  261MOL0     H35213  -0.738   1.103   3.542  2.6315 -0.4334  1.2081
  261MOL0     H35214  -0.699   1.273   3.493  2.4035  0.3421  0.3386
  261MOL0     H35215  -0.925   1.290   3.520  1.2384  0.7082  0.2345
  261MOL0     H35216  -0.882   1.339   3.686 -0.5550 -0.6359  1.0986
  261MOL0     H35217  -0.016   1.186   3.476 -0.8890  0.9686  1.7303
  261MOL0     H35218   0.073   1.330   3.292 -0.7104  0.9510 -1.0421
  261MOL0     H35219   0.317   1.906   3.250 -2.8615 -4.1057  2.8703
  261MOL0     H35220   0.514   2.012   3.171  0.0164 -0.3017 -0.1901
  261MOL0     H35221   2.596   2.461   2.682 -1.4015 -1.7130 -0.2241
  261MOL0     H35222   2.814   2.493   2.767 -0.3151 -1.0091 -0.5885
  261MOL0     H35223   3.140   2.086   2.924  1.8449 -1.7938 -0.7024
  261MOL0     H35224   3.376   2.091   2.943 -3.7551 -1.2526 -2.8678
  261MOL0     H35225   3.611   2.116   2.970  4.5830 -0.7213 -2.9420
  261MOL0     H35226   3.601   2.271   2.877  1.4206 -3.9002 -2.5776
  261MOL0     H35227   3.825   2.244   2.962  1.3891 -0.8854  3.3590
  261MOL0     H35228   3.770   2.215   3.121  0.2935  0.0849  0.4107
  261MOL0     H35229   3.671   2.468   3.087  0.9329 -1.8041  2.9928
  261MOL0     H35230   3.794   2.481   2.964  2.0149  2.7308  1.6785
  261MOL0     H35231   3.826   2.401   3.244  0.1709 -0.5632 -0.9779
  261MOL0     H35232   3.854   2.569   3.186  1.5466 -0.0746  0.5089
  261MOL0     H35233   4.212   2.394   3.075 -0.1265  0.0757  0.0101
  261MOL0     H35234   3.366   2.472   3.130 -1.3188  0.6607 -0.0619
  261MOL0     H35235   3.108   2.484   3.094 -2.5302 -1.5317 -1.6946
  262MOL0     O35236  11.220   5.138   8.319  0.3331  0.1516 -0.6988
  262MOL0     C35237  11.239   5.223   8.231  0.4191  0.0529  0.3997
  262MOL0     O35238  11.139   5.291   8.168  0.6659 -0.0659 -0.6481
  262MOL0     C35239  11.007   5.292   8.224  0.0356  0.6414  0.2574
  262MOL0     C35240  10.906   5.193   8.193 -0.3962 -1.1427 -0.5467
  262MOL0     C35241  10.781   5.192   8.256  0.3329  0.0023  0.0095
  262MOL0     C35242  10.750   5.278   8.364  0.8523 -0.3182  0.0625
  262MOL0     O35243  10.634   5.275   8.446 -1.1616 -0.2753  0.2501
  262MOL0     C35244  10.557   5.150   8.451 -0.9994  0.5970 -0.3140
  262MOL0     C35245  10.453   5.155   8.584 -0.2181  0.2115  0.3617
  262MOL0     C35246  10.340   5.261   8.579  0.0089 -0.5286  0.4007
  262MOL0     C35247  10.246   5.243   8.689  0.0690  0.7621 -0.2523
  262MOL0     C35248  10.135   5.346   8.684  0.2976 -0.1165 -0.2316
  262MOL0     C35249  10.043   5.312   8.796 -0.0654  0.3071 -0.1828
  262MOL0     C35250   9.928   5.409   8.809  1.5207 -0.3447  0.7369
  262MOL0     C35251   9.847   5.392   8.942 -0.4144  0.3124  0.2001
  262MOL0     N35252   9.741   5.490   8.958 -0.3203 -0.3019 -0.1012
  262MOL0     C35253   9.762   5.609   9.025  0.3069  0.2701 -0.3602
  262MOL0     C35254   9.638   5.644   9.058  0.0925  0.4129 -0.0627
  262MOL0     C35255   9.603   5.777   9.117 -0.2505  0.8280  0.1418
  262MOL0     C35256   9.631   5.888   9.035  0.0074  0.2254  0.4600
  262MOL0     C35257   9.517   5.920   8.929  0.0078  0.2964 -0.3623
  262MOL0     C35258   9.374   5.930   8.970 -0.7091 -1.0385  0.0670
  262MOL0     O35259   9.308   5.966   8.854  0.3310  0.0269 -0.0382
  262MOL0     C35260   9.175   6.002   8.861 -0.4154 -0.0398  0.2230
  262MOL0     C35261   9.087   5.987   8.976  0.2315  0.1442  0.3537
  262MOL0     C35262   8.949   6.037   8.983  0.5495 -0.3112 -0.1547
  262MOL0     C35263   8.871   6.023   9.110  0.4444  0.5602 -1.2130
  262MOL0     C35264   8.894   6.094   8.861 -1.0566 -0.6252  0.2876
  262MOL0     C35265   8.753   6.124   8.845  0.7468 -0.0424 -0.4865
  262MOL0     O35266   8.706   6.201   8.738 -0.1304  0.3527  0.0835
  262MOL0     C35267   8.574   6.200   8.713  0.6067  0.3844  0.4127
  262MOL0     C35268   8.502   6.322   8.695 -0.1424  0.6808 -0.0726
  262MOL0     C35269   8.366   6.325   8.673 -0.9285  0.5025 -1.3002
  262MOL0     C35270   8.293   6.211   8.668  0.1199  0.5746  0.1447
  262MOL0     O35271   8.158   6.223   8.649 -0.9862  0.3404 -1.0012
  262MOL0     C35272   8.076   6.108   8.671 -0.0017 -0.3429 -0.8940
  262MOL0     C35273   7.925   6.137   8.630 -0.0912 -0.6057 -0.1511
  262MOL0     C35274   7.848   6.254   8.707 -0.1180 -0.6562  0.3953
  262MOL0     C35275   7.822   6.215   8.848 -0.2631  0.0582  0.3330
  262MOL0     C35276   7.773   6.323   8.941  0.0364 -0.0375 -0.1456
  262MOL0     C35277   7.760   6.273   9.086 -0.2611  0.5274 -0.1281
  262MOL0     C35278   7.647   6.172   9.102 -0.7112  0.1023  0.2898
  262MOL0     C35279   7.603   6.164   9.247 -0.0215 -0.6230 -0.6491
  262MOL0    Cl35280   7.444   6.094   9.244 -0.0067  0.2402  0.1811
  262MOL0     C35281   8.355   6.089   8.678 -0.5141 -1.0043 -0.5326
  262MOL0     C35282   8.499   6.081   8.692 -0.2608  0.7619 -0.3525
  262MOL0     O35283   8.681   6.055   8.919 -0.2863 -0.8690  0.6487
  262MOL0     C35284   8.981   6.112   8.749 -0.0447  0.3433 -0.9955
  262MOL0     C35285   9.118   6.076   8.751 -0.1237 -0.2628  0.0787
  262MOL0     N35286   9.546   5.555   9.012  0.0665  0.3672  0.3102
  262MOL0     N35287   9.609   5.463   8.949  0.0028  0.7753 -0.6837
  262MOL0     C35288  10.837   5.387   8.386 -0.3012  0.0992 -0.4502
  262MOL0     C35289  10.962   5.386   8.324 -0.9545  0.2904  0.0776
  262MOL0     C35290  11.374   5.245   8.174  0.0120 -0.0842 -0.0267
  262MOL0     C35291  11.492   5.199   8.233  1.4078  0.0014 -0.7459
  262MOL0     C35292  11.615   5.222   8.181  0.2274 -0.8357  0.4740
  262MOL0     C35293  11.629   5.306   8.072  0.9155 -0.8691 -0.3506
  262MOL0     O35294  11.753   5.332   8.028 -0.2042 -0.4203  0.7752
  262MOL0     C35295  11.785   5.400   7.906  0.1711  0.0130 -0.4269
  262MOL0     C35296  11.916   5.341   7.850 -0.0587 -0.4403  0.1843
  262MOL0     C35297  12.031   5.376   7.956 -0.5972  0.0393  0.5047
  262MOL0     C35298  12.089   5.518   7.954 -0.4823  0.2958 -0.2977
  262MOL0     C35299  12.191   5.551   8.053 -0.4086  0.2726  0.8486
  262MOL0     C35300  12.259   5.556   8.151  0.7091 -0.4202  0.7961
  262MOL0     C35301  11.509   5.358   8.009 -0.1576  0.5041 -0.0647
  262MOL0     C35302  11.386   5.322   8.057  1.2068  0.0032 -0.4442
  262MOL0     H35303  10.917   5.118   8.114 -1.8926 -1.0855 -0.8439
  262MOL0     H35304  10.703   5.124   8.221 -0.1100  0.2464  0.5081
  262MOL0     H35305  10.490   5.153   8.364  0.4813 -0.8647 -1.5652
  262MOL0     H35306  10.626   5.065   8.444 -2.9798 -1.0493 -1.0583
  262MOL0     H35307  10.407   5.056   8.582  0.8325 -0.2984  0.7815
  262MOL0     H35308  10.515   5.148   8.673  1.8436 -2.2100 -1.1284
  262MOL0     H35309  10.381   5.362   8.586 -0.0814 -0.3373 -1.3240
  262MOL0     H35310  10.280   5.260   8.487  1.5554  2.4073 -0.7671
  262MOL0     H35311  10.188   5.151   8.677 -1.1514  1.1398  2.1091
  262MOL0     H35312  10.297   5.247   8.786 -0.7212  0.1752  0.2040
  262MOL0     H35313  10.171   5.449   8.690  2.3296 -0.7269 -1.0204
  262MOL0     H35314  10.085   5.344   8.587  0.4303 -0.8829 -0.2924
  262MOL0     H35315  10.001   5.213   8.780  0.8242 -0.0573 -0.3595
  262MOL0     H35316  10.093   5.305   8.893  0.0445  0.9907 -0.1795
  262MOL0     H35317   9.952   5.514   8.792 -0.7971  0.2677  0.9303
  262MOL0     H35318   9.871   5.396   8.717  2.0807  1.5088  0.0841
  262MOL0     H35319   9.913   5.403   9.028  0.0643 -0.6677 -0.0180
  262MOL0     H35320   9.806   5.291   8.947 -1.4722  0.8005  3.1577
  262MOL0     H35321   9.853   5.651   9.065 -0.0393  0.3389  0.3773
  262MOL0     H35322   9.499   5.766   9.148  0.3289 -0.5165  1.7351
  262MOL0     H35323   9.662   5.771   9.208  0.1157  0.6043 -0.1079
  262MOL0     H35324   9.731   5.875   8.991 -1.2529 -0.0682 -2.5457
  262MOL0     H35325   9.644   5.975   9.101  0.4908  0.3782  0.1690
  262MOL0     H35326   9.508   5.836   8.859  1.9034 -0.0073 -0.2878
  262MOL0     H35327   9.544   6.014   8.880 -1.4626  0.0313 -1.7978
  262MOL0     H35328   9.367   6.005   9.049 -0.6417 -2.9278  1.9313
  262MOL0     H35329   9.328   5.839   9.008 -2.6687 -0.1040  0.1143
  262MOL0     H35330   9.134   5.941   9.062 -0.0479 -1.0898 -0.1354
  262MOL0     H35331   8.941   5.991   9.188 -0.6056 -0.5643 -0.6945
  262MOL0     H35332   8.815   6.109   9.147 -1.6984 -1.2346 -0.0119
  262MOL0     H35333   8.811   5.933   9.095  2.3926 -0.9947 -0.1359
  262MOL0     H35334   8.551   6.418   8.709 -2.3696  1.8504  0.2526
  262MOL0     H35335   8.328   6.426   8.686 -0.4041  0.7935 -1.9523
  262MOL0     H35336   8.105   6.025   8.605  0.1749 -1.1156  0.1249
  262MOL0     H35337   8.077   6.062   8.770 -0.2741  1.2433 -0.1286
  262MOL0     H35338   7.942   6.167   8.526 -0.2950 -3.5054 -1.1266
  262MOL0     H35339   7.864   6.046   8.631 -1.9583  0.6048  0.0182
  262MOL0     H35340   7.756   6.283   8.655 -1.8527 -0.5834  3.2723
  262MOL0     H35341   7.915   6.340   8.715 -1.6863  0.6651  0.0332
  262MOL0     H35342   7.754   6.129   8.843 -0.5584  0.1760  1.7763
  262MOL0     H35343   7.920   6.179   8.881  0.4156  2.0586  0.5891
  262MOL0     H35344   7.682   6.367   8.897  1.1617 -0.5387 -3.2572
  262MOL0     H35345   7.847   6.403   8.928  0.9586 -1.3542 -5.9789
  262MOL0     H35346   7.861   6.235   9.107 -0.2509  0.4003 -0.4049
  262MOL0     H35347   7.736   6.361   9.146 -0.4804  0.5201 -0.2049
  262MOL0     H35348   7.671   6.072   9.065 -0.5500  0.7624 -1.4871
  262MOL0     H35349   7.569   6.203   9.032 -0.1492  0.5107 -0.1591
  262MOL0     H35350   7.588   6.263   9.289  0.7537 -0.7010 -0.1720
  262MOL0     H35351   7.669   6.098   9.305 -0.9597 -0.8189  0.2263
  262MOL0     H35352   8.297   5.997   8.682 -2.7661  0.3429 -0.3390
  262MOL0     H35353   8.544   5.982   8.685 -0.1905  0.8027 -0.4744
  262MOL0     H35354   8.938   6.146   8.655 -0.2493 -0.7709 -1.3281
  262MOL0     H35355   9.168   6.088   8.656  1.9795  0.6140  1.2267
  262MOL0     H35356  10.817   5.462   8.461 -0.7502  0.5016 -0.9645
  262MOL0     H35357  11.034   5.464   8.349 -1.0917  0.6253 -0.5437
  262MOL0     H35358  11.479   5.143   8.325 -0.2438 -0.2678 -1.1064
  262MOL0     H35359  11.699   5.164   8.219 -0.6514 -2.0921  0.5614
  262MOL0     H35360  11.706   5.396   7.830  0.8374 -0.9434 -1.1037
  262MOL0     H35361  11.797   5.508   7.918 -0.8152  0.6621 -4.0329
  262MOL0     H35362  11.934   5.388   7.753 -1.8620  1.5842  0.7688
  262MOL0     H35363  11.896   5.235   7.833 -0.4279 -0.9711  3.2869
  262MOL0     H35364  12.116   5.309   7.941  0.5426  1.2760  1.3145
  262MOL0     H35365  11.991   5.358   8.056  0.6545 -0.2425  0.9609
  262MOL0     H35366  12.009   5.589   7.974 -0.6274 -0.7900  3.9742
  262MOL0     H35367  12.135   5.541   7.857  0.0951 -1.9654 -0.6184
  262MOL0     H35368  12.316   5.559   8.241  0.1220  0.1863  1.1651
  262MOL0     H35369  11.513   5.422   7.921 -0.1847  2.1100  1.0494
  262MOL0     H35370  11.294   5.355   8.009  0.4095  2.3647  2.3754
  263MOL0     O35371   3.449   0.750   8.652  0.2415 -0.5794  0.3903
  263MOL0     C35372   3.493   0.634   8.642  0.1620  0.2706 -0.1798
  263MOL0     O35373   3.432   0.525   8.583  0.0231  0.3326 -0.0899
  263MOL0     C35374   3.302   0.522   8.541 -0.9754  0.4873 -0.5412
  263MOL0     C35375   3.202   0.617   8.570 -0.4408  0.0959 -0.2406
  263MOL0     C35376   3.084   0.615   8.501 -0.0322 -0.1491  0.3549
  263MOL0     C35377   3.050   0.509   8.410 -0.4308 -0.0848  0.6512
  263MOL0     O35378   2.943   0.491   8.333 -0.3243  1.0359  0.0189
  263MOL0     C35379   2.822   0.563   8.370 -0.3786  0.1582 -0.7019
  263MOL0     C35380   2.704   0.533   8.273  0.2212 -1.0110  0.1692
  263MOL0     C35381   2.685   0.388   8.236  0.6668 -0.0867  0.3134
  263MOL0     C35382   2.637   0.364   8.092 -0.4008  0.3913  0.2109
  263MOL0     C35383   2.494   0.421   8.052 -0.0129  0.1145  0.3049
  263MOL0     C35384   2.376   0.360   8.124  0.1664  0.3664  0.7523
  263MOL0     C35385   2.260   0.449   8.096  0.5455 -0.4656 -0.2190
  263MOL0     C35386   2.206   0.435   7.958 -0.0459 -0.1213 -0.5091
  263MOL0     N35387   2.088   0.515   7.933 -0.0582 -0.0574  0.2046
  263MOL0     C35388   2.084   0.640   7.875  0.3670 -0.4010  0.0471
  263MOL0     C35389   1.962   0.699   7.907  0.2161 -0.0230  0.0025
  263MOL0     C35390   1.933   0.843   7.869 -0.4002  0.5424  0.1048
  263MOL0     C35391   1.938   0.935   7.993  0.2893 -0.7875  0.4715
  263MOL0     C35392   1.832   1.044   7.999  0.2827 -0.4038 -0.2425
  263MOL0     C35393   1.688   1.006   8.017  0.5088  0.1313 -0.3839
  263MOL0     O35394   1.612   1.116   8.054 -0.0067 -0.7876 -0.2866
  263MOL0     C35395   1.483   1.099   8.090 -0.6134  0.2810  0.5239
  263MOL0     C35396   1.414   0.980   8.098 -0.2067  0.4169 -0.0939
  263MOL0     C35397   1.270   0.984   8.119  1.0116  0.1725  0.1790
  263MOL0     C35398   1.202   0.849   8.142  0.5576  0.3081 -0.1264
  263MOL0     C35399   1.204   1.109   8.143  0.5331 -0.1073  0.2785
  263MOL0     C35400   1.059   1.125   8.180 -0.3053 -0.4360  0.3007
  263MOL0     O35401   1.018   1.255   8.191  0.2891  0.5238  0.5291
  263MOL0     C35402   0.891   1.301   8.199  0.1503  0.4613  0.2936
  263MOL0     C35403   0.777   1.237   8.143 -0.8029 -0.1099 -0.0824
  263MOL0     C35404   0.654   1.293   8.172 -0.5860  0.2299 -0.5505
  263MOL0     C35405   0.640   1.398   8.270  0.2046 -0.5815  0.6045
  263MOL0     O35406   0.521   1.453   8.316  0.2957  0.7942 -0.0655
  263MOL0     C35407   0.398   1.420   8.252 -0.2531 -0.6679  0.2554
  263MOL0     C35408   0.273   1.466   8.333 -0.3047  0.1313 -0.4764
  263MOL0     C35409   0.141   1.406   8.280  1.4452 -0.5427  0.5678
  263MOL0     C35410   0.024   1.449   8.371 -0.5415  0.2005  0.0529
  263MOL0     C35411  -0.117   1.389   8.323  0.4820  0.3480  0.0098
  263MOL0     C35412  -0.245   1.447   8.375  0.2591 -0.4583 -0.0585
  263MOL0     C35413  -0.371   1.372   8.325 -1.2942 -0.5243 -0.5259
  263MOL0     C35414  -0.494   1.425   8.390 -0.0621  0.4246 -0.1941
  263MOL0    Cl35415  -0.501   1.385   8.566 -0.4005  0.2320  0.2615
  263MOL0     C35416   0.751   1.453   8.330 -0.5836 -0.3991  0.6437
  263MOL0     C35417   0.874   1.408   8.290  0.5796 -0.2488  0.7509
  263MOL0     O35418   0.986   1.025   8.191  0.0483 -0.3834  0.0667
  263MOL0     C35419   1.276   1.224   8.130 -0.8161 -0.4663 -0.1292
  263MOL0     C35420   1.419   1.218   8.116  0.3419 -0.1744  0.2520
  263MOL0     N35421   1.889   0.610   7.977 -0.5876  0.1798 -0.4965
  263MOL0     N35422   1.961   0.499   7.994 -0.1689 -0.8971 -0.7272
  263MOL0     C35423   3.152   0.421   8.384 -0.3216  0.3762 -0.0958
  263MOL0     C35424   3.282   0.426   8.445  1.3117  0.0153 -0.7690
  263MOL0     C35425   3.625   0.625   8.695  0.0961 -0.2998 -1.1261
  263MOL0     C35426   3.691   0.734   8.763  0.1847 -0.5100  0.8594
  263MOL0     C35427   3.822   0.732   8.807 -0.1649  0.5745 -0.4322
  263MOL0     C35428   3.895   0.611   8.793  0.6036 -0.0031 -0.1626
  263MOL0     O35429   4.022   0.620   8.855  0.1573 -0.0841 -0.1377
  263MOL0     C35430   4.104   0.506   8.871  0.5960  0.7183  0.0885
  263MOL0     C35431   4.042   0.404   8.974 -0.5816 -0.7074 -0.5656
  263MOL0     C35432   4.027   0.474   9.106  0.2028  0.3947  1.1430
  263MOL0     C35433   3.879   0.505   9.131  0.4488  0.7907  0.0773
  263MOL0     C35434   3.795   0.388   9.134 -0.1783  0.9435  0.2159
  263MOL0     C35435   3.714   0.297   9.156 -0.2439  0.2691  0.2811
  263MOL0     C35436   3.833   0.502   8.730 -1.1348  0.2142  0.4315
  263MOL0     C35437   3.702   0.506   8.688  0.0402 -0.3678  0.0262
  263MOL0     H35438   3.204   0.682   8.656  0.7237  1.2592 -1.1134
  263MOL0     H35439   3.005   0.686   8.524  0.3131  0.8255 -1.3567
  263MOL0     H35440   2.798   0.544   8.475 -0.0646 -0.8271 -0.7930
  263MOL0     H35441   2.838   0.670   8.356  1.0022  0.0133 -0.3959
  263MOL0     H35442   2.620   0.588   8.315  0.4853 -0.1780 -0.3656
  263MOL0     H35443   2.726   0.587   8.181  1.0955  2.1374  2.0922
  263MOL0     H35444   2.779   0.335   8.257  1.8349  2.7265  3.0001
  263MOL0     H35445   2.607   0.344   8.298 -0.4381 -0.6205 -1.3878
  263MOL0     H35446   2.718   0.403   8.028  1.2298  2.3656  3.2290
  263MOL0     H35447   2.634   0.256   8.074 -0.0571 -0.2723  3.5982
  263MOL0     H35448   2.501   0.529   8.068 -1.8846  0.4787 -1.0973
  263MOL0     H35449   2.487   0.415   7.943  3.2990  1.2169 -0.0896
  263MOL0     H35450   2.357   0.258   8.091 -0.3164  0.9203 -0.7417
  263MOL0     H35451   2.396   0.372   8.231 -2.0785 -0.5644  1.3291
  263MOL0     H35452   2.175   0.417   8.157 -0.6770 -1.2698 -2.2099
  263MOL0     H35453   2.280   0.555   8.113  1.1697 -0.8726  1.8535
  263MOL0     H35454   2.178   0.329   7.953  0.6855 -0.2646 -2.0868
  263MOL0     H35455   2.275   0.461   7.877 -0.1829  2.3628  0.0889
  263MOL0     H35456   2.172   0.690   7.835 -0.3484  0.5072 -0.4279
  263MOL0     H35457   2.003   0.881   7.795 -0.5554 -2.0447 -1.5015
  263MOL0     H35458   1.835   0.838   7.820 -0.1348 -3.3690 -0.3329
  263MOL0     H35459   2.033   0.989   7.996  0.2040 -0.3476 -2.3160
  263MOL0     H35460   1.943   0.876   8.085 -0.4495 -2.3491 -0.4347
  263MOL0     H35461   1.825   1.112   7.914 -1.5719  0.3504  0.4653
  263MOL0     H35462   1.855   1.121   8.074  1.5696  0.4762 -1.4834
  263MOL0     H35463   1.682   0.928   8.092  1.6523  2.3863  2.2207
  263MOL0     H35464   1.648   0.968   7.922 -1.0734 -0.0577  0.3362
  263MOL0     H35465   1.455   0.881   8.080 -0.2801  0.0062  1.8408
  263MOL0     H35466   1.277   0.770   8.130  1.5658  0.5536  3.3673
  263MOL0     H35467   1.172   0.836   8.246  0.5501  2.6318  0.2169
  263MOL0     H35468   1.122   0.826   8.071  2.1364 -1.3079 -1.5073
  263MOL0     H35469   0.781   1.158   8.069  1.5717 -0.7251  0.6401
  263MOL0     H35470   0.566   1.260   8.118 -1.2963  0.7866  0.2228
  263MOL0     H35471   0.401   1.463   8.152  3.3284  3.0340  1.6461
  263MOL0     H35472   0.381   1.312   8.248  1.3001 -1.0356  2.2550
  263MOL0     H35473   0.289   1.442   8.438  0.5961  2.1471 -0.1006
  263MOL0     H35474   0.278   1.575   8.332  2.5161  0.1233  1.4031
  263MOL0     H35475   0.141   1.297   8.282 -3.3720 -0.7580  1.4488
  263MOL0     H35476   0.120   1.441   8.179  1.3970  0.8595  1.0298
  263MOL0     H35477   0.055   1.404   8.465  1.5638  1.6022  0.0869
  263MOL0     H35478   0.012   1.557   8.360 -2.0953 -0.0940 -1.7085
  263MOL0     H35479  -0.114   1.287   8.363 -0.2530  0.9871  1.7922
  263MOL0     H35480  -0.119   1.388   8.214 -1.0743  2.4588 -0.0514
  263MOL0     H35481  -0.250   1.428   8.482  0.2680 -4.1063 -0.5869
  263MOL0     H35482  -0.256   1.552   8.345  1.4179 -1.0742 -3.0195
  263MOL0     H35483  -0.366   1.266   8.349 -0.2819 -0.6061 -1.0209
  263MOL0     H35484  -0.366   1.373   8.216 -0.0645 -1.4964 -0.5026
  263MOL0     H35485  -0.578   1.372   8.345  1.5166 -0.7061 -1.9562
  263MOL0     H35486  -0.499   1.534   8.385  3.4184  0.8338  2.1866
  263MOL0     H35487   0.729   1.534   8.399 -0.5875  0.3499 -0.2306
  263MOL0     H35488   0.959   1.466   8.326  1.4378 -1.6681  1.0578
  263MOL0     H35489   1.240   1.324   8.154  0.5910 -0.1977  1.0587
  263MOL0     H35490   1.476   1.309   8.132 -2.1975  2.0968 -2.4748
  263MOL0     H35491   3.131   0.336   8.321  2.2946 -1.3313  1.1480
  263MOL0     H35492   3.353   0.351   8.412 -0.1914 -0.6357 -2.7601
  263MOL0     H35493   3.653   0.833   8.789  0.7928 -0.6017  2.2209
  263MOL0     H35494   3.880   0.810   8.855  1.5680 -1.8553  1.6861
  263MOL0     H35495   4.110   0.447   8.779  0.1965  0.0180  0.4995
  263MOL0     H35496   4.206   0.528   8.901  0.0971  1.6709  1.1749
  263MOL0     H35497   4.113   0.322   8.987  0.1386 -0.3672 -2.1446
  263MOL0     H35498   3.951   0.353   8.941 -1.3719 -0.5372  1.2106
  263MOL0     H35499   4.088   0.565   9.115 -0.0476  0.5249  1.5542
  263MOL0     H35500   4.066   0.404   9.181  0.6435 -1.8366 -1.0201
  263MOL0     H35501   3.844   0.578   9.057  2.0281  1.7621  0.2382
  263MOL0     H35502   3.871   0.555   9.228 -0.3074  1.9881 -0.5731
  263MOL0     H35503   3.658   0.210   9.185 -2.9186  1.0705 -1.9631
  263MOL0     H35504   3.896   0.415   8.717  3.1972  3.3262 -1.8018
  263MOL0     H35505   3.659   0.419   8.638  1.1480 -0.4920 -0.7582
  264MOL0     O35506   9.804   0.488  10.495 -0.6729  0.1793 -0.1917
  264MOL0     C35507   9.891   0.511  10.580  0.1037  0.0079 -0.0925
  264MOL0     O35508   9.872   0.578  10.697  0.1740 -0.3168 -0.8219
  264MOL0     C35509   9.761   0.645  10.735 -0.1770 -1.0927 -0.0936
  264MOL0     C35510   9.758   0.675  10.879 -0.0262  0.1948 -0.8901
  264MOL0     C35511   9.652   0.752  10.926 -0.1991 -0.8626  0.1490
  264MOL0     C35512   9.543   0.791  10.846 -0.4475  0.5601 -0.3132
  264MOL0     O35513   9.436   0.870  10.877 -0.1727  0.5705  0.6398
  264MOL0     C35514   9.404   0.902  11.015  0.6147  0.4016  0.8304
  264MOL0     C35515   9.312   1.024  11.023 -0.0034 -0.4501  0.2346
  264MOL0     C35516   9.181   0.988  10.957  0.4233  0.7128  0.1059
  264MOL0     C35517   9.081   1.105  10.976  0.8019 -0.4110  0.6084
  264MOL0     C35518   8.944   1.057  10.926  0.6300 -0.8166 -0.1228
  264MOL0     C35519   8.846   1.180  10.940  0.0264  0.8609  0.5864
  264MOL0     C35520   8.695   1.131  10.915 -0.4425  0.5379 -0.0950
  264MOL0     C35521   8.660   1.126  10.762 -0.6668 -0.3122  0.0727
  264MOL0     N35522   8.524   1.092  10.725  0.5802  1.1248  0.2024
  264MOL0     C35523   8.465   0.969  10.752 -0.2597 -0.2149  0.2062
  264MOL0     C35524   8.330   0.985  10.718 -0.1150  0.2851  0.6423
  264MOL0     C35525   8.230   0.874  10.722  0.0424  0.0270 -1.0518
  264MOL0     C35526   8.087   0.917  10.693  0.4245 -0.6402  0.1725
  264MOL0     C35527   8.018   0.789  10.650  0.9427 -0.6282  0.1870
  264MOL0     C35528   7.865   0.793  10.631  0.1746 -0.1794 -0.0797
  264MOL0     O35529   7.839   0.929  10.588 -0.1053  0.2134  0.6852
  264MOL0     C35530   7.715   0.965  10.547 -0.0578 -0.3984 -0.6901
  264MOL0     C35531   7.671   1.093  10.580 -0.5830  0.0368 -0.0170
  264MOL0     C35532   7.541   1.143  10.580 -0.0757 -0.2514  0.4742
  264MOL0     C35533   7.514   1.268  10.654 -0.3855 -0.1785  0.1891
  264MOL0     C35534   7.438   1.055  10.515 -0.6965  0.1270  0.0369
  264MOL0     C35535   7.297   1.077  10.520  0.0596 -0.3262  0.0653
  264MOL0     O35536   7.228   0.991  10.445  0.5592 -0.2627 -0.4342
  264MOL0     C35537   7.093   0.996  10.446 -0.0302  0.3898  1.0247
  264MOL0     C35538   7.024   0.872  10.442 -0.7550 -0.1431 -0.5999
  264MOL0     C35539   6.885   0.867  10.448  0.0041  0.0679  0.0112
  264MOL0     C35540   6.809   0.980  10.459 -0.2334 -0.1243  0.8742
  264MOL0     O35541   6.672   0.952  10.449  0.4868  0.1605 -0.1967
  264MOL0     C35542   6.575   1.068  10.437 -0.3999  0.5621 -0.1059
  264MOL0     C35543   6.430   1.028  10.410 -0.0095  0.0445  0.0013
  264MOL0     C35544   6.388   0.912  10.511  0.4814 -0.3491  0.5658
  264MOL0     C35545   6.385   0.767  10.455  0.4379  0.4830 -0.1734
  264MOL0     C35546   6.342   0.665  10.576  0.4645  0.6512  0.5142
  264MOL0     C35547   6.205   0.649  10.626  1.3156  0.3120 -0.2717
  264MOL0     C35548   6.104   0.646  10.513  0.8734  0.8382 -0.4158
  264MOL0     C35549   5.964   0.623  10.566  0.0810  0.8320 -0.2771
  264MOL0    Cl35550   5.866   0.580  10.426 -0.0812  0.4339  0.8898
  264MOL0     C35551   6.871   1.102  10.464  0.4861 -0.4677  0.8056
  264MOL0     C35552   7.006   1.114  10.463 -0.1420  0.5060  1.1134
  264MOL0     O35553   7.250   1.161  10.594 -0.3678 -0.0815 -0.0001
  264MOL0     C35554   7.485   0.936  10.457 -0.2946  0.3363  0.3507
  264MOL0     C35555   7.618   0.888  10.480 -0.2371 -0.7546  0.7583
  264MOL0     N35556   8.312   1.121  10.693 -0.0831  0.2994  0.2033
  264MOL0     N35557   8.427   1.173  10.692 -0.1707 -0.0990  0.1783
  264MOL0     C35558   9.541   0.740  10.717 -0.7868  0.3499  0.2923
  264MOL0     C35559   9.646   0.669  10.659 -0.0375 -0.0148  0.2224
  264MOL0     C35560  10.027   0.458  10.553 -0.2734 -0.3291  0.2723
  264MOL0     C35561  10.135   0.515  10.615 -0.7614  0.1862  0.1494
  264MOL0     C35562  10.267   0.470  10.585 -0.4279 -0.8131 -0.3130
  264MOL0     C35563  10.290   0.370  10.497  0.1066 -0.3749 -0.8705
  264MOL0     O35564  10.415   0.327  10.481  0.0006  0.0759 -0.0101
  264MOL0     C35565  10.453   0.196  10.438  0.1924  0.4653 -0.1724
  264MOL0     C35566  10.586   0.142  10.477  0.2754  0.4004 -0.5598
  264MOL0     C35567  10.584   0.111  10.631  0.1194  0.6779 -0.0723
  264MOL0     C35568  10.728   0.119  10.691  0.2747  0.3795 -0.3858
  264MOL0     C35569  10.824   0.035  10.628  0.2533  0.7482  0.4159
  264MOL0     C35570  10.900  -0.032  10.559  0.3999  0.4818 -0.2160
  264MOL0     C35571  10.184   0.326  10.426  0.1915  0.7374 -0.4358
  264MOL0     C35572  10.056   0.361  10.459  0.5764 -0.4392  0.5569
  264MOL0     H35573   9.840   0.649  10.944 -2.9565 -1.0555  2.6672
  264MOL0     H35574   9.671   0.786  11.028 -2.1583 -1.6673  0.8425
  264MOL0     H35575   9.357   0.811  11.053  0.7117 -0.3271 -0.7345
  264MOL0     H35576   9.492   0.915  11.079  0.2739  0.8745  1.2123
  264MOL0     H35577   9.310   1.052  11.129  1.4569  2.0596 -0.3079
  264MOL0     H35578   9.351   1.108  10.964 -3.4039  1.2335  0.0693
  264MOL0     H35579   9.193   0.950  10.855  0.5040 -1.9340  1.0299
  264MOL0     H35580   9.132   0.906  11.011  2.0138  0.1988  0.8006
  264MOL0     H35581   9.063   1.131  11.080 -0.7539  0.2997  0.1929
  264MOL0     H35582   9.127   1.188  10.920  1.3015 -0.7344  0.5318
  264MOL0     H35583   8.957   1.042  10.819 -0.7949  1.1734 -0.6164
  264MOL0     H35584   8.911   0.962  10.970 -1.2687  0.0948  0.5060
  264MOL0     H35585   8.865   1.216  11.041  1.2405 -2.9482  1.8711
  264MOL0     H35586   8.873   1.254  10.864 -1.8771 -0.7597 -1.8173
  264MOL0     H35587   8.674   1.040  10.971  0.3424  1.5216  1.9333
  264MOL0     H35588   8.627   1.194  10.972 -0.5530 -0.9996  1.5408
  264MOL0     H35589   8.726   1.054  10.713 -1.0099  0.1788 -1.1502
  264MOL0     H35590   8.697   1.220  10.720  3.2700 -0.6960  2.1880
  264MOL0     H35591   8.521   0.883  10.788  1.6876  1.4189  1.2899
  264MOL0     H35592   8.251   0.812  10.634  0.2338 -0.3948 -0.7067
  264MOL0     H35593   8.234   0.809  10.809 -0.5474  2.2758  0.7426
  264MOL0     H35594   8.086   0.991  10.612  4.2518  1.6408  1.9324
  264MOL0     H35595   8.044   0.960  10.784  1.0866  2.0927 -0.6892
  264MOL0     H35596   8.041   0.714  10.726 -3.3561 -1.7025  0.6556
  264MOL0     H35597   8.058   0.758  10.553 -0.3599  0.9031 -0.8801
  264MOL0     H35598   7.828   0.775  10.732  1.9921 -1.9243  0.3354
  264MOL0     H35599   7.822   0.714  10.569 -2.3235  0.4920  0.6759
  264MOL0     H35600   7.740   1.150  10.641  0.7816 -0.3014 -1.1776
  264MOL0     H35601   7.610   1.310  10.688 -0.7552  0.3104  0.6338
  264MOL0     H35602   7.451   1.343  10.605  0.4357  0.8826  0.6912
  264MOL0     H35603   7.468   1.239  10.748  2.1001  0.1650  1.6011
  264MOL0     H35604   7.077   0.778  10.437 -1.4441 -0.5494 -0.4125
  264MOL0     H35605   6.823   0.778  10.447 -0.4724  0.3598  1.3449
  264MOL0     H35606   6.564   1.124  10.531 -2.6444 -0.3469  0.2401
  264MOL0     H35607   6.609   1.136  10.358  0.4270 -1.8829 -1.9519
  264MOL0     H35608   6.361   1.109  10.436 -0.5174  0.1207 -1.4838
  264MOL0     H35609   6.429   1.001  10.304 -2.6212 -0.8347  0.1613
  264MOL0     H35610   6.293   0.950  10.550 -0.2174  2.9558 -3.5667
  264MOL0     H35611   6.460   0.918  10.593  1.9123 -0.5742 -0.6387
  264MOL0     H35612   6.320   0.765  10.367  0.7750 -1.6193 -0.4357
  264MOL0     H35613   6.487   0.741  10.423  0.7595  2.3652 -0.7658
  264MOL0     H35614   6.407   0.679  10.662 -0.0384  3.0297  0.5565
  264MOL0     H35615   6.351   0.564  10.535 -2.7170  0.1006  0.9566
  264MOL0     H35616   6.183   0.556  10.679 -1.8077  2.6343  3.0419
  264MOL0     H35617   6.192   0.739  10.688  3.9425  1.3148 -1.0733
  264MOL0     H35618   6.137   0.575  10.436  1.2103 -0.4870  0.9128
  264MOL0     H35619   6.096   0.746  10.470 -0.7947  1.1558  0.5452
  264MOL0     H35620   5.922   0.714  10.612 -0.4911  0.7543 -0.6315
  264MOL0     H35621   5.962   0.544  10.642  0.2588  2.1546  1.1584
  264MOL0     H35622   6.816   1.196  10.463  1.1510  0.1341 -3.7574
  264MOL0     H35623   7.056   1.207  10.485  0.9301  0.2055  0.0635
  264MOL0     H35624   7.426   0.858  10.410 -0.9142  0.7122  0.4898
  264MOL0     H35625   7.650   0.789  10.448  1.7914  0.2623 -0.5803
  264MOL0     H35626   9.460   0.756  10.647 -0.1396 -2.0877 -1.1498
  264MOL0     H35627   9.625   0.623  10.563 -0.2360 -0.0413  0.2765
  264MOL0     H35628  10.119   0.593  10.689  1.3708  0.9962 -0.1438
  264MOL0     H35629  10.353   0.501  10.644 -0.3428 -1.4719 -0.0885
  264MOL0     H35630  10.383   0.119  10.472  1.8518 -0.2504  1.8566
  264MOL0     H35631  10.456   0.210  10.330  2.1548 -0.3663 -0.2599
  264MOL0     H35632  10.659   0.220  10.453 -0.0261  0.3730 -1.6315
  264MOL0     H35633  10.604   0.050  10.421 -0.3534  1.0981 -1.9584
  264MOL0     H35634  10.540   0.014  10.654 -2.7029  1.4751 -1.6579
  264MOL0     H35635  10.529   0.187  10.688 -3.3977 -2.2326  0.7472
  264MOL0     H35636  10.731   0.105  10.800 -1.0608 -0.4910 -0.4449
  264MOL0     H35637  10.765   0.221  10.681 -1.4680  1.0463 -0.3845
  264MOL0     H35638  10.969  -0.085  10.496  0.2035 -1.8218  1.4057
  264MOL0     H35639  10.219   0.254  10.352 -0.6348  1.0632 -1.1523
  264MOL0     H35640   9.967   0.329  10.406 -1.0134  3.5451  0.4791
  265MOL0     O35641   0.003   3.886   0.685 -0.3696  0.3000 -0.4721
  265MOL0     C35642   0.085   3.848   0.767 -0.4974  0.8388 -0.3790
  265MOL0     O35643   0.084   3.867   0.904  0.0114 -0.0205 -0.2119
  265MOL0     C35644  -0.025   3.906   0.977 -0.3323  0.5701 -0.0216
  265MOL0     C35645  -0.008   3.948   1.110  0.0968  1.2780  0.0121
  265MOL0     C35646  -0.120   3.985   1.187 -0.5478 -0.2292  0.5457
  265MOL0     C35647  -0.247   3.977   1.142  0.2769 -0.4716 -0.2785
  265MOL0     O35648  -0.355   4.005   1.225  0.0643 -0.0352  0.3730
  265MOL0     C35649  -0.420   4.127   1.201 -0.6455 -0.3294  0.1334
  265MOL0     C35650  -0.466   4.188   1.333  0.1703 -0.4087 -0.3223
  265MOL0     C35651  -0.558   4.083   1.412 -0.3032 -0.1877 -0.5743
  265MOL0     C35652  -0.538   4.117   1.561  0.5151  1.2345 -0.5222
  265MOL0     C35653  -0.581   4.016   1.670  0.2509  0.3939 -0.4262
  265MOL0     C35654  -0.507   3.878   1.654  0.2424  0.5543  0.0171
  265MOL0     C35655  -0.365   3.880   1.595  0.7932  0.2841 -0.2251
  265MOL0     C35656  -0.294   3.742   1.603 -0.4987 -0.0611 -0.6228
  265MOL0     N35657  -0.174   3.740   1.518  0.1511 -0.0850 -0.1751
  265MOL0     C35658  -0.115   3.625   1.466  0.6076  0.2379 -0.1311
  265MOL0     C35659   0.004   3.666   1.411  0.8283 -0.4122  0.5579
  265MOL0     C35660   0.108   3.580   1.349  0.5012  0.2111 -0.2402
  265MOL0     C35661   0.228   3.549   1.446 -0.3110  0.1694  0.4687
  265MOL0     C35662   0.320   3.446   1.405 -0.8649 -0.2231 -0.1315
  265MOL0     C35663   0.404   3.483   1.293 -1.3900 -1.1365  0.2840
  265MOL0     O35664   0.496   3.376   1.273 -0.2004 -0.2968 -0.3871
  265MOL0     C35665   0.601   3.380   1.186  0.2939 -0.6652 -0.6711
  265MOL0     C35666   0.640   3.493   1.113 -0.1102 -0.0991 -0.2378
  265MOL0     C35667   0.762   3.496   1.039 -0.0445 -0.2102  1.4398
  265MOL0     C35668   0.783   3.629   0.962 -0.3261 -0.4726 -0.6235
  265MOL0     C35669   0.847   3.385   1.032 -0.2468  0.0767  0.2335
  265MOL0     C35670   0.971   3.369   0.936  0.0370 -0.5405 -0.7414
  265MOL0     O35671   1.024   3.245   0.921  0.1468  0.3123  0.3591
  265MOL0     C35672   1.138   3.230   0.851 -0.3257  0.6814 -0.2019
  265MOL0     C35673   1.261   3.267   0.910  0.8850  1.2217  0.1502
  265MOL0     C35674   1.378   3.258   0.836 -0.8127 -0.5762  0.0955
  265MOL0     C35675   1.381   3.216   0.699  0.5661 -0.2996  0.6088
  265MOL0     O35676   1.486   3.239   0.617 -0.1831  0.4027  0.2677
  265MOL0     C35677   1.617   3.210   0.666  0.6371  0.2611  0.1971
  265MOL0     C35678   1.693   3.204   0.534 -0.7272 -0.3160 -0.6537
  265MOL0     C35679   1.756   3.333   0.493 -0.5793 -0.7684  1.0341
  265MOL0     C35680   1.811   3.319   0.353  0.4229  0.2139  0.6910
  265MOL0     C35681   1.855   3.439   0.277  0.3368  0.0624 -0.0628
  265MOL0     C35682   1.897   3.399   0.129  0.0223 -0.0441 -0.9727
  265MOL0     C35683   1.908   3.525   0.045  0.1213 -0.6260 -0.1939
  265MOL0     C35684   1.947   3.503  -0.098 -0.6631 -0.0702  0.1553
  265MOL0    Cl35685   1.924   3.658  -0.199 -0.4291 -0.4067  0.1189
  265MOL0     C35686   1.261   3.162   0.646 -0.7463  0.5271  0.3855
  265MOL0     C35687   1.148   3.170   0.720 -0.4589  0.2023  0.4502
  265MOL0     O35688   1.026   3.470   0.886 -0.0381 -0.0748  0.1633
  265MOL0     C35689   0.797   3.269   1.103 -0.4350 -0.4433 -0.6294
  265MOL0     C35690   0.685   3.275   1.177  0.2898 -0.7901  0.0358
  265MOL0     N35691   0.008   3.805   1.430 -0.4004  0.3498 -0.4176
  265MOL0     N35692  -0.088   3.849   1.497  0.2174  0.2527 -0.1126
  265MOL0     C35693  -0.267   3.942   1.008 -0.0939  0.2118 -0.3310
  265MOL0     C35694  -0.156   3.913   0.923 -0.2636  0.0410  0.5598
  265MOL0     C35695   0.213   3.784   0.727  0.1769 -0.2064 -0.0856
  265MOL0     C35696   0.236   3.749   0.590 -0.3012 -0.6844 -0.9465
  265MOL0     C35697   0.351   3.699   0.543 -0.6288  0.0395  0.7619
  265MOL0     C35698   0.453   3.654   0.630 -0.0760  0.1055 -0.1699
  265MOL0     O35699   0.570   3.597   0.602 -0.4566  0.9585  0.5684
  265MOL0     C35700   0.610   3.579   0.461  0.1543  0.5219 -1.0423
  265MOL0     C35701   0.743   3.511   0.451 -0.7574 -0.2169  0.2872
  265MOL0     C35702   0.852   3.579   0.534  0.0555  0.2086 -0.1379
  265MOL0     C35703   0.979   3.495   0.536 -0.6766  0.0486 -0.0252
  265MOL0     C35704   1.040   3.482   0.402  0.2088  0.3083  0.0913
  265MOL0     C35705   1.109   3.450   0.305  1.2768  0.2425  0.0447
  265MOL0     C35706   0.428   3.679   0.768 -1.0297 -0.0712 -0.0901
  265MOL0     C35707   0.314   3.738   0.815  0.1901 -0.2074 -0.0782
  265MOL0     H35708   0.093   3.955   1.148  0.4797  2.4001 -1.1197
  265MOL0     H35709  -0.087   4.013   1.287 -0.1671 -1.0880  0.6725
  265MOL0     H35710  -0.366   4.197   1.137  0.2132 -0.8522  0.2562
  265MOL0     H35711  -0.511   4.102   1.147 -0.8442 -0.3291  0.4690
  265MOL0     H35712  -0.376   4.216   1.388  0.5130 -0.9260 -0.6179
  265MOL0     H35713  -0.515   4.285   1.318 -0.5966 -0.5941  0.8500
  265MOL0     H35714  -0.663   4.100   1.387  0.3323  1.8999 -2.1702
  265MOL0     H35715  -0.533   3.979   1.391  0.2310 -0.8007  2.5959
  265MOL0     H35716  -0.432   4.132   1.586  0.2894  2.1696 -0.0642
  265MOL0     H35717  -0.591   4.210   1.585 -0.2572  0.0938  2.7074
  265MOL0     H35718  -0.563   4.057   1.770 -0.9167 -0.4018  0.1469
  265MOL0     H35719  -0.689   4.000   1.664  0.3008  0.1048 -0.5736
  265MOL0     H35720  -0.504   3.825   1.750 -0.1510  1.6897  0.6693
  265MOL0     H35721  -0.563   3.824   1.577  0.7024  1.2573 -0.8335
  265MOL0     H35722  -0.372   3.902   1.488  0.8156 -1.4966 -0.6213
  265MOL0     H35723  -0.297   3.954   1.640  0.2727  0.6062  0.0361
  265MOL0     H35724  -0.363   3.667   1.564  0.5652 -2.0197  1.0951
  265MOL0     H35725  -0.264   3.751   1.708 -0.3643  3.4874 -0.8408
  265MOL0     H35726  -0.148   3.522   1.475  1.7614 -0.0394  1.4801
  265MOL0     H35727   0.071   3.483   1.313  2.5638 -0.1469 -1.5513
  265MOL0     H35728   0.160   3.636   1.271  3.6625  0.1067  1.6347
  265MOL0     H35729   0.202   3.522   1.549 -0.9610 -0.3627  0.1701
  265MOL0     H35730   0.283   3.644   1.454 -0.7394  0.2437  4.4815
  265MOL0     H35731   0.260   3.362   1.371 -0.6617  0.3209 -1.8982
  265MOL0     H35732   0.373   3.415   1.496 -0.5359  0.6493 -0.0185
  265MOL0     H35733   0.451   3.577   1.322 -4.3118  0.3157  0.7343
  265MOL0     H35734   0.347   3.508   1.202 -1.6479 -3.2989 -0.2052
  265MOL0     H35735   0.570   3.575   1.102  1.5131  1.1753 -1.7249
  265MOL0     H35736   0.774   3.622   0.854 -1.1139  3.2002 -0.9419
  265MOL0     H35737   0.718   3.712   0.992  1.3461  0.8299 -0.3890
  265MOL0     H35738   0.878   3.680   0.984 -1.1645 -0.2111  3.0311
  265MOL0     H35739   1.243   3.309   1.008 -1.4583  2.2495 -0.6508
  265MOL0     H35740   1.461   3.305   0.887  0.0522 -0.9347 -0.9522
  265MOL0     H35741   1.657   3.291   0.727  2.3060 -0.2841 -0.1265
  265MOL0     H35742   1.614   3.117   0.723  2.8905  0.7128  1.1704
  265MOL0     H35743   1.781   3.140   0.541  0.4594  1.3344  0.0400
  265MOL0     H35744   1.624   3.177   0.454 -1.7997 -0.9877  0.4495
  265MOL0     H35745   1.836   3.360   0.561 -0.0074 -0.8171  0.3905
  265MOL0     H35746   1.674   3.404   0.482 -0.5487 -1.0617 -2.2121
  265MOL0     H35747   1.896   3.250   0.359  1.6972  1.8326  2.7346
  265MOL0     H35748   1.728   3.281   0.294  1.4397  1.4187 -1.6611
  265MOL0     H35749   1.933   3.493   0.331  0.0189 -0.4905  0.9868
  265MOL0     H35750   1.775   3.514   0.273 -0.9213 -1.2528 -0.8090
  265MOL0     H35751   1.993   3.347   0.121  0.6975  1.1017 -0.5195
  265MOL0     H35752   1.830   3.325   0.083  1.4333 -2.4989  0.6812
  265MOL0     H35753   1.986   3.586   0.091  1.0607 -0.7646 -1.5405
  265MOL0     H35754   1.819   3.589   0.039  0.1831 -0.6264 -1.2390
  265MOL0     H35755   1.910   3.412  -0.146  2.0848 -0.2224 -1.9647
  265MOL0     H35756   2.051   3.470  -0.092 -0.4961  0.1425 -1.1986
  265MOL0     H35757   1.266   3.128   0.543  0.6645 -2.8994  1.4340
  265MOL0     H35758   1.055   3.124   0.685 -0.1600  0.2508 -0.4181
  265MOL0     H35759   0.856   3.178   1.096 -1.4725 -1.2466  0.5672
  265MOL0     H35760   0.652   3.184   1.226 -0.9712 -0.7986 -0.7817
  265MOL0     H35761  -0.364   3.942   0.961  0.2999  0.3767 -1.1597
  265MOL0     H35762  -0.171   3.876   0.822  0.0965 -1.4196  1.0163
  265MOL0     H35763   0.155   3.763   0.519 -1.1750 -0.6064  0.0565
  265MOL0     H35764   0.357   3.690   0.435 -0.2360  2.1654  0.5568
  265MOL0     H35765   0.544   3.507   0.413  0.6422  0.4409 -1.5970
  265MOL0     H35766   0.607   3.674   0.406 -1.3393  0.9243 -0.3202
  265MOL0     H35767   0.773   3.474   0.352 -0.3280  1.5887 -0.3047
  265MOL0     H35768   0.733   3.414   0.500 -2.9947 -0.1205  0.0860
  265MOL0     H35769   0.822   3.575   0.639  1.6199  0.8410  0.3540
  265MOL0     H35770   0.864   3.685   0.512 -1.1443  0.5370  0.6801
  265MOL0     H35771   0.958   3.398   0.582  2.8498 -1.5996 -1.5248
  265MOL0     H35772   1.054   3.546   0.598 -3.5640  2.0222  2.1382
  265MOL0     H35773   1.179   3.424   0.229 -0.5141  0.1234 -1.6298
  265MOL0     H35774   0.511   3.671   0.838 -0.5930 -0.8735 -0.6714
  265MOL0     H35775   0.303   3.760   0.921  0.8257  3.8150 -0.7163
  266MOL0     O35776   6.618   8.189   7.080 -0.2098  0.3694 -0.7439
  266MOL0     C35777   6.714   8.253   7.044 -1.0753  0.5606  0.6333
  266MOL0     O35778   6.736   8.390   7.063  0.2367  0.1617  0.4079
  266MOL0     C35779   6.635   8.452   7.139 -0.5640  0.3899  0.3156
  266MOL0     C35780   6.657   8.475   7.278 -0.0551 -0.4421  0.1419
  266MOL0     C35781   6.569   8.545   7.362  0.1974  0.3790  0.5348
  266MOL0     C35782   6.453   8.587   7.301 -0.0909  0.8011 -0.0044
  266MOL0     O35783   6.366   8.656   7.377 -0.1535 -0.1533 -0.5306
  266MOL0     C35784   6.247   8.700   7.314  0.3536 -0.2148  0.5082
  266MOL0     C35785   6.178   8.790   7.414  0.3161 -0.7741  0.4314
  266MOL0     C35786   6.250   8.924   7.431 -0.2738  0.3511 -0.0237
  266MOL0     C35787   6.178   9.017   7.329  0.0877 -0.1879  0.5064
  266MOL0     C35788   6.243   9.155   7.334  0.0204  0.3272 -0.3277
  266MOL0     C35789   6.192   9.235   7.219  0.2789 -0.0799 -0.3146
  266MOL0     C35790   6.038   9.275   7.242 -0.7110 -0.4383  0.1098
  266MOL0     C35791   6.005   9.359   7.118 -0.0283  0.2816  0.2346
  266MOL0     N35792   5.861   9.400   7.119  0.1066  0.1312  0.2343
  266MOL0     C35793   5.786   9.439   7.225  0.4145 -0.5118 -0.3138
  266MOL0     C35794   5.664   9.471   7.181 -0.3694  0.1473  0.6862
  266MOL0     C35795   5.556   9.510   7.275  0.3809 -0.0858 -0.4484
  266MOL0     C35796   5.422   9.516   7.210  0.2400 -0.4931  0.3196
  266MOL0     C35797   5.409   9.640   7.121 -0.7093  0.6048  0.0333
  266MOL0     C35798   5.282   9.642   7.030 -0.7940  0.0945 -0.1191
  266MOL0     O35799   5.166   9.640   7.120  0.1262  0.3501 -0.2076
  266MOL0     C35800   5.047   9.675   7.073 -0.0696 -0.2437 -0.1339
  266MOL0     C35801   4.967   9.743   7.166  0.5104 -0.4260  0.0083
  266MOL0     C35802   4.837   9.782   7.141  0.0640 -0.1348 -0.0304
  266MOL0     C35803   4.761   9.842   7.253  0.4290  0.4935  0.0631
  266MOL0     C35804   4.770   9.737   7.023  0.8131 -0.5548 -0.9488
  266MOL0     C35805   4.628   9.774   6.992  0.4351 -0.3336  0.2870
  266MOL0     O35806   4.607   9.793   6.856  0.7525  0.6207  0.1628
  266MOL0     C35807   4.476   9.811   6.813  0.1455  0.6574  0.8458
  266MOL0     C35808   4.398   9.696   6.772 -0.5767  0.2470  0.0048
  266MOL0     C35809   4.278   9.716   6.710 -0.7655 -0.5078  0.1011
  266MOL0     C35810   4.218   9.841   6.697 -0.4102  0.4498 -0.4071
  266MOL0     O35811   4.106   9.845   6.625 -0.4338 -0.0176 -0.1320
  266MOL0     C35812   3.985   9.864   6.698 -0.8804 -1.3586 -0.0454
  266MOL0     C35813   3.858   9.863   6.627  0.9512 -0.3712 -0.0000
  266MOL0     C35814   3.825   9.992   6.551  0.6580  0.9643 -0.2164
  266MOL0     C35815   3.690   9.967   6.477  0.2290  0.0955 -0.5105
  266MOL0     C35816   3.653  10.101   6.415  0.0297 -0.0287  0.7269
  266MOL0     C35817   3.526  10.089   6.345  0.4568  0.1685  0.0703
  266MOL0     C35818   3.492  10.210   6.250  0.0088  0.0598  0.0625
  266MOL0     C35819   3.349  10.206   6.189  0.0635  0.4264  0.1069
  266MOL0    Cl35820   3.331  10.088   6.059 -0.0567  0.1952  0.2327
  266MOL0     C35821   4.287   9.951   6.743 -0.1331 -0.2843  0.5360
  266MOL0     C35822   4.417   9.936   6.803  0.5890  0.4308 -1.1031
  266MOL0     O35823   4.539   9.776   7.081 -0.3857 -0.8928  0.0328
  266MOL0     C35824   4.847   9.668   6.933 -0.0922 -0.6076 -0.5631
  266MOL0     C35825   4.986   9.640   6.954 -0.0493  0.3957  0.7143
  266MOL0     N35826   5.661   9.442   7.043  0.1739  0.0928  0.0661
  266MOL0     N35827   5.778   9.401   7.013  0.3587  1.2290 -0.3985
  266MOL0     C35828   6.431   8.555   7.164 -0.0367  0.2849 -0.1352
  266MOL0     C35829   6.519   8.496   7.080  0.6257  0.6337 -0.3929
  266MOL0     C35830   6.814   8.180   6.957  0.3738 -0.2149 -0.4065
  266MOL0     C35831   6.787   8.048   6.918  0.5197 -0.1068  0.3031
  266MOL0     C35832   6.873   7.974   6.830  1.0973 -0.0148 -0.4165
  266MOL0     C35833   6.988   8.041   6.788  0.2927 -0.0832  0.5005
  266MOL0     O35834   7.060   7.964   6.711 -0.2085  0.0815 -0.0165
  266MOL0     C35835   7.183   8.013   6.652  0.4508 -0.3978 -0.9149
  266MOL0     C35836   7.263   7.900   6.586 -0.0772 -0.7251  1.2180
  266MOL0     C35837   7.274   7.769   6.668  1.7283 -0.9789 -0.9119
  266MOL0     C35838   7.378   7.676   6.615 -0.3367 -0.2470 -0.5777
  266MOL0     C35839   7.323   7.538   6.585 -0.1983 -0.0090  0.0716
  266MOL0     C35840   7.286   7.427   6.557  0.7252  0.0320 -0.1033
  266MOL0     C35841   7.019   8.163   6.844  0.2259 -0.8896  0.3768
  266MOL0     C35842   6.931   8.240   6.919 -0.3091  0.7714  0.0820
  266MOL0     H35843   6.748   8.436   7.320  1.6541  1.7795 -1.2508
  266MOL0     H35844   6.596   8.553   7.467 -1.8161  0.7919  1.0833
  266MOL0     H35845   6.272   8.761   7.227  1.7075  1.3632  1.9241
  266MOL0     H35846   6.178   8.618   7.294  0.3111 -0.0805  0.0805
  266MOL0     H35847   6.073   8.812   7.391  0.0634  1.3607  3.1510
  266MOL0     H35848   6.186   8.744   7.513  3.0042 -1.7361 -0.1648
  266MOL0     H35849   6.227   8.965   7.529  0.8699 -0.3811  0.5720
  266MOL0     H35850   6.358   8.906   7.424 -0.0562  1.1075  1.1750
  266MOL0     H35851   6.182   8.966   7.232  1.4851 -1.2852  1.0992
  266MOL0     H35852   6.072   9.032   7.346  0.3945  1.8341  0.8330
  266MOL0     H35853   6.225   9.197   7.434  0.2045  1.2401 -0.6671
  266MOL0     H35854   6.352   9.150   7.323  0.3370  3.7034  0.2840
  266MOL0     H35855   6.249   9.328   7.213 -1.5794  1.0418 -1.9859
  266MOL0     H35856   6.219   9.178   7.129  0.9016  3.0762 -2.3035
  266MOL0     H35857   5.972   9.188   7.238 -0.2534 -0.7688 -3.3683
  266MOL0     H35858   6.020   9.328   7.336 -0.3156 -0.6478  0.3046
  266MOL0     H35859   6.026   9.287   7.038  1.9967 -1.5862  2.3245
  266MOL0     H35860   6.065   9.450   7.118  1.3088 -0.3458 -4.3950
  266MOL0     H35861   5.818   9.452   7.328  0.6338 -0.8252 -0.3441
  266MOL0     H35862   5.551   9.434   7.354 -0.0601  1.4914  1.1102
  266MOL0     H35863   5.568   9.608   7.322 -2.6312 -0.2846  1.0172
  266MOL0     H35864   5.349   9.515   7.292  0.2103  0.5407  0.3253
  266MOL0     H35865   5.394   9.430   7.149  1.8501 -1.6208  1.1154
  266MOL0     H35866   5.497   9.624   7.059 -0.3639 -0.8367  0.8529
  266MOL0     H35867   5.415   9.731   7.180  0.3068 -0.1194  1.0882
  266MOL0     H35868   5.280   9.554   6.965 -1.0515 -0.0330  0.0621
  266MOL0     H35869   5.281   9.734   6.970 -3.4946  0.4155  0.2867
  266MOL0     H35870   5.014   9.772   7.259  0.4736  0.2865 -0.1892
  266MOL0     H35871   4.682   9.785   7.303 -0.4242  2.5242  1.1682
  266MOL0     H35872   4.831   9.870   7.332  0.9711  3.6287 -1.3639
  266MOL0     H35873   4.705   9.925   7.208 -1.9864 -0.2704  1.4337
  266MOL0     H35874   4.437   9.596   6.785 -2.6863 -0.8201 -1.3301
  266MOL0     H35875   4.232   9.626   6.671  0.0920 -1.2074  0.6671
  266MOL0     H35876   3.964   9.790   6.775 -2.8657  0.6773  1.5068
  266MOL0     H35877   4.002   9.964   6.740 -1.1336  1.2614 -5.2810
  266MOL0     H35878   3.839   9.783   6.554  1.5033 -0.9394  0.4716
  266MOL0     H35879   3.776   9.851   6.698 -0.1236 -0.6947 -1.2439
  266MOL0     H35880   3.904  10.015   6.478  0.8652  0.2577 -0.2238
  266MOL0     H35881   3.821  10.080   6.615 -3.9162  0.7950  0.0531
  266MOL0     H35882   3.694   9.893   6.397 -0.7010 -0.9130  0.3383
  266MOL0     H35883   3.610   9.939   6.546  0.6103 -0.7525 -0.3984
  266MOL0     H35884   3.721  10.118   6.331 -0.5813  0.1118  0.2564
  266MOL0     H35885   3.671  10.179   6.489  1.0942  0.9808 -0.5548
  266MOL0     H35886   3.514   9.994   6.291 -3.1448 -1.1031  2.6593
  266MOL0     H35887   3.442  10.092   6.416 -2.5888 -0.2999 -3.2344
  266MOL0     H35888   3.561  10.196   6.167  0.8662  0.1020  0.7498
  266MOL0     H35889   3.521  10.304   6.299  1.0363 -0.0070 -0.3758
  266MOL0     H35890   3.319  10.303   6.148  2.6685  1.6681  0.8828
  266MOL0     H35891   3.285  10.170   6.271  0.3795 -1.1916 -0.3213
  266MOL0     H35892   4.245  10.051   6.739 -2.5239 -1.1904  1.3188
  266MOL0     H35893   4.465  10.027   6.835  0.3617  0.1367  0.1018
  266MOL0     H35894   4.815   9.641   6.833  5.0825 -1.5969 -2.2225
  266MOL0     H35895   5.035   9.577   6.882 -0.8672 -0.7646  1.1377
  266MOL0     H35896   6.338   8.577   7.113  0.0825 -0.5310 -0.7387
  266MOL0     H35897   6.488   8.469   6.980 -0.7075 -1.3326  0.4706
  266MOL0     H35898   6.694   7.995   6.938  0.4546  0.1283  0.6379
  266MOL0     H35899   6.835   7.878   6.795 -3.0196  0.8002  1.1674
  266MOL0     H35900   7.164   8.081   6.568  2.1370  2.5185  0.9115
  266MOL0     H35901   7.245   8.065   6.726  0.8404 -2.8722  0.6404
  266MOL0     H35902   7.360   7.937   6.551 -0.7225  0.2614  0.4017
  266MOL0     H35903   7.219   7.870   6.491  2.1687 -1.5436  0.3853
  266MOL0     H35904   7.181   7.713   6.659  1.2938 -0.7274  1.4003
  266MOL0     H35905   7.295   7.796   6.772  1.1558  0.8022 -1.2135
  266MOL0     H35906   7.457   7.668   6.690 -1.6028  2.5494  1.2063
  266MOL0     H35907   7.436   7.700   6.525  1.1448  0.1307  0.4362
  266MOL0     H35908   7.264   7.326   6.529 -2.5332  1.0347 -1.6577
  266MOL0     H35909   7.109   8.219   6.819 -0.4940  0.8281  1.3870
  266MOL0     H35910   6.956   8.343   6.944 -0.5816  0.6713  0.8274
  267MOL0     O35911   9.583   8.539   6.613 -0.8711 -0.2408  0.0908
  267MOL0     C35912   9.607   8.426   6.589  0.3628 -0.6640  0.4678
  267MOL0     O35913   9.515   8.324   6.568 -0.1748  0.4361  0.1407
  267MOL0     C35914   9.387   8.347   6.534 -0.5625 -0.3944  0.3713
  267MOL0     C35915   9.329   8.288   6.420 -0.0001  0.1997 -0.3976
  267MOL0     C35916   9.200   8.318   6.370 -0.0374 -0.7209  0.0339
  267MOL0     C35917   9.118   8.409   6.447  0.1703  0.4821 -0.3171
  267MOL0     O35918   8.992   8.445   6.406  0.3311 -0.3505 -0.1641
  267MOL0     C35919   8.898   8.375   6.493  0.4209 -0.9009 -0.8912
  267MOL0     C35920   8.766   8.395   6.431  0.3734 -0.2096  0.1609
  267MOL0     C35921   8.652   8.332   6.508 -0.1190 -0.6552  0.1845
  267MOL0     C35922   8.660   8.184   6.535 -0.3545 -0.9498  0.0799
  267MOL0     C35923   8.537   8.157   6.626 -0.0028 -0.0507  0.3920
  267MOL0     C35924   8.527   8.010   6.669 -0.1361  0.1493  0.5132
  267MOL0     C35925   8.615   7.988   6.790  0.5328 -0.4134 -0.6672
  267MOL0     C35926   8.547   8.026   6.920 -0.3924 -0.5927 -0.6742
  267MOL0     N35927   8.418   7.959   6.947 -0.0226  0.2153  0.1552
  267MOL0     C35928   8.395   7.829   6.936  0.3951  0.5198 -0.5360
  267MOL0     C35929   8.262   7.820   6.948 -0.3326 -0.3336  0.0348
  267MOL0     C35930   8.184   7.693   6.936  1.1690  0.3462  0.7420
  267MOL0     C35931   8.029   7.699   6.964 -0.3027  0.4822 -0.0428
  267MOL0     C35932   7.986   7.790   7.080  0.3897  0.1929 -0.2262
  267MOL0     C35933   7.855   7.743   7.140  0.2187 -0.1984  0.6586
  267MOL0     O35934   7.760   7.773   7.038 -0.1762 -0.8245  0.3712
  267MOL0     C35935   7.634   7.734   7.061 -0.4499  0.2482  0.1274
  267MOL0     C35936   7.553   7.795   7.157  0.4846  0.2237  0.0507
  267MOL0     C35937   7.414   7.758   7.173 -0.1240  0.2485 -0.2386
  267MOL0     C35938   7.338   7.854   7.253 -0.2997 -0.0227 -1.0564
  267MOL0     C35939   7.362   7.646   7.099 -0.7097  0.3564  0.6708
  267MOL0     C35940   7.223   7.587   7.120 -0.6019  0.3334  0.4198
  267MOL0     O35941   7.169   7.517   7.020 -0.6364 -0.1851  0.5009
  267MOL0     C35942   7.044   7.477   7.032  0.4925 -0.2600  0.9505
  267MOL0     C35943   6.935   7.567   7.029  1.0391 -0.2961 -0.6972
  267MOL0     C35944   6.803   7.529   7.073  0.2447  1.0649  0.0956
  267MOL0     C35945   6.779   7.397   7.109  0.2056  0.4359 -0.3938
  267MOL0     O35946   6.652   7.373   7.152 -0.2111 -0.0760 -0.7546
  267MOL0     C35947   6.606   7.239   7.157 -0.2415 -0.9285 -0.2491
  267MOL0     C35948   6.457   7.251   7.205  0.6001 -0.1753 -0.4453
  267MOL0     C35949   6.449   7.262   7.357 -0.3995 -0.0557 -0.2998
  267MOL0     C35950   6.295   7.297   7.380  0.1845 -0.0637 -0.2324
  267MOL0     C35951   6.260   7.309   7.537 -0.3418  0.1002 -0.3681
  267MOL0     C35952   6.104   7.303   7.558  0.0220  0.4423 -0.5080
  267MOL0     C35953   6.073   7.278   7.708  0.4717 -0.3062 -0.2062
  267MOL0     C35954   5.923   7.265   7.729 -0.7663 -0.5621  0.0341
  267MOL0    Cl35955   5.833   7.421   7.691  0.0086  0.0099 -0.1069
  267MOL0     C35956   6.876   7.299   7.104 -0.8536 -0.5243  0.2260
  267MOL0     C35957   7.008   7.343   7.067 -0.2602  0.1773 -0.4207
  267MOL0     O35958   7.170   7.601   7.232 -0.9349  0.2574 -0.5373
  267MOL0     C35959   7.447   7.585   6.999 -0.3082  0.7938 -0.0446
  267MOL0     C35960   7.584   7.623   6.986  1.4404 -0.1629  0.0140
  267MOL0     N35961   8.207   7.946   6.983  0.4955  0.4170 -0.0795
  267MOL0     N35962   8.308   8.026   6.981 -0.6334 -0.8106  0.2851
  267MOL0     C35963   9.181   8.466   6.558 -0.1942 -0.0590  0.0226
  267MOL0     C35964   9.315   8.445   6.602 -0.0187  0.3742  0.4631
  267MOL0     C35965   9.749   8.383   6.579 -0.1753 -0.9053 -0.5268
  267MOL0     C35966   9.856   8.466   6.618  0.0576 -0.3248 -0.4056
  267MOL0     C35967   9.993   8.418   6.619 -0.5441 -0.5960  0.3364
  267MOL0     C35968  10.030   8.294   6.570  0.1436  0.4249  0.4697
  267MOL0     O35969  10.156   8.243   6.572 -0.5488 -0.2113 -0.4007
  267MOL0     C35970  10.263   8.299   6.655  0.6260  0.3838  0.3620
  267MOL0     C35971  10.330   8.422   6.583  0.8262 -0.0306  0.1550
  267MOL0     C35972  10.385   8.386   6.444  0.3934 -0.2499  0.8666
  267MOL0     C35973  10.527   8.318   6.445  0.9741 -0.2523  0.0260
  267MOL0     C35974  10.585   8.293   6.313 -0.4208 -0.5832  0.1589
  267MOL0     C35975  10.626   8.259   6.206  0.0973 -0.6376 -0.1650
  267MOL0     C35976   9.917   8.215   6.529 -0.5022  0.5375  1.2164
  267MOL0     C35977   9.781   8.253   6.533 -0.1873  0.0091 -0.0072
  267MOL0     H35978   9.390   8.217   6.363  0.0957  1.0716 -1.4181
  267MOL0     H35979   9.171   8.266   6.279  2.0909  0.0387 -1.1785
  267MOL0     H35980   8.919   8.268   6.503  2.2100 -0.7060 -2.0511
  267MOL0     H35981   8.889   8.430   6.588 -0.8524  1.9943 -2.5668
  267MOL0     H35982   8.738   8.501   6.426 -1.5897 -0.7024 -0.1200
  267MOL0     H35983   8.776   8.359   6.328  2.4349 -2.2276  0.9828
  267MOL0     H35984   8.631   8.394   6.596  1.8065 -1.0602  0.9799
  267MOL0     H35985   8.568   8.357   6.443  0.0286  1.9292  0.8734
  267MOL0     H35986   8.644   8.132   6.440 -1.1150 -0.8593  0.1474
  267MOL0     H35987   8.753   8.140   6.573  1.3048  2.4761  0.3861
  267MOL0     H35988   8.533   8.221   6.714 -3.2708 -1.7503  1.6265
  267MOL0     H35989   8.444   8.182   6.573  0.8414  2.6952  0.0151
  267MOL0     H35990   8.424   7.985   6.693 -0.1566 -3.1667 -2.1858
  267MOL0     H35991   8.556   7.939   6.591 -1.3755 -2.5089  2.3498
  267MOL0     H35992   8.639   7.881   6.795  0.8329 -0.4943 -2.8122
  267MOL0     H35993   8.711   8.040   6.782  0.2021  0.2468 -0.4533
  267MOL0     H35994   8.526   8.133   6.920 -1.7518 -0.8153  0.5367
  267MOL0     H35995   8.617   8.014   7.003  0.0231  0.0425 -0.9303
  267MOL0     H35996   8.462   7.749   6.906 -0.3436 -0.0787 -0.6475
  267MOL0     H35997   8.204   7.649   6.838 -0.4141  0.0104  0.5380
  267MOL0     H35998   8.224   7.620   7.006 -0.4647  0.5498  1.9541
  267MOL0     H35999   7.991   7.597   6.976 -0.5427  0.3330 -1.7242
  267MOL0     H36000   7.988   7.740   6.871 -0.4081  1.2568  0.3424
  267MOL0     H36001   7.971   7.897   7.065  1.9802  0.7477  1.7050
  267MOL0     H36002   8.067   7.776   7.152  0.4833  0.8282 -0.2024
  267MOL0     H36003   7.826   7.796   7.231  0.8999  0.7395  0.3374
  267MOL0     H36004   7.882   7.639   7.163  1.0099  0.0261  0.7788
  267MOL0     H36005   7.602   7.871   7.217  0.0421  1.5475 -1.1969
  267MOL0     H36006   7.257   7.910   7.204 -3.0394 -1.9564  0.9396
  267MOL0     H36007   7.277   7.805   7.330  1.8175 -2.4029 -0.7750
  267MOL0     H36008   7.402   7.915   7.317  0.4279 -0.5762 -1.2509
  267MOL0     H36009   6.961   7.667   6.998  1.5574 -0.3220 -0.3500
  267MOL0     H36010   6.729   7.608   7.074 -0.5148  0.3915  2.3355
  267MOL0     H36011   6.618   7.211   7.052 -0.3640  4.8766 -2.1461
  267MOL0     H36012   6.662   7.173   7.224  1.1577  0.5797  0.1259
  267MOL0     H36013   6.409   7.342   7.166 -0.1801 -0.5868 -0.4568
  267MOL0     H36014   6.391   7.168   7.178 -1.9665  1.4449  0.5362
  267MOL0     H36015   6.501   7.346   7.403 -0.8799 -1.1240  2.3758
  267MOL0     H36016   6.470   7.165   7.404 -1.0260 -0.3681 -0.6381
  267MOL0     H36017   6.268   7.392   7.333  2.0748  0.7768  0.2602
  267MOL0     H36018   6.229   7.225   7.332  0.4311  0.8833 -2.0448
  267MOL0     H36019   6.304   7.396   7.586  2.0743 -1.6511  0.7544
  267MOL0     H36020   6.312   7.229   7.592  0.5963 -0.3967 -1.9056
  267MOL0     H36021   6.062   7.401   7.535  0.5731  1.2937  1.8366
  267MOL0     H36022   6.062   7.224   7.494  1.5298 -0.7218 -0.1304
  267MOL0     H36023   6.109   7.370   7.755 -1.0418 -0.8740  2.2041
  267MOL0     H36024   6.122   7.187   7.744 -0.2172 -0.5914  0.0201
  267MOL0     H36025   5.915   7.226   7.831  0.8339 -1.9242 -0.3063
  267MOL0     H36026   5.878   7.184   7.670 -2.2780  0.3295 -0.0599
  267MOL0     H36027   6.873   7.198   7.143 -0.9833 -1.4651 -2.0687
  267MOL0     H36028   7.093   7.276   7.077 -0.7167 -0.1143  2.2190
  267MOL0     H36029   7.419   7.501   6.937  0.8351  0.0810  0.3773
  267MOL0     H36030   7.657   7.568   6.927 -0.7884 -1.9167 -1.2849
  267MOL0     H36031   9.122   8.540   6.611  2.2377  3.0429 -1.2474
  267MOL0     H36032   9.347   8.507   6.686 -1.8798 -0.1091  1.5857
  267MOL0     H36033   9.838   8.564   6.661 -2.6149 -1.0987  0.4476
  267MOL0     H36034  10.057   8.494   6.663  0.8408 -2.0646  0.9633
  267MOL0     H36035  10.220   8.325   6.752  1.1637  0.2452  0.6371
  267MOL0     H36036  10.328   8.216   6.683 -0.2416  0.2236  1.9871
  267MOL0     H36037  10.415   8.470   6.634  0.1609 -0.1146  1.3733
  267MOL0     H36038  10.254   8.499   6.568 -0.8879 -1.8012 -0.6167
  267MOL0     H36039  10.373   8.475   6.381 -1.7013 -0.9131  0.2721
  267MOL0     H36040  10.320   8.311   6.398 -2.8917  1.4557  2.4317
  267MOL0     H36041  10.523   8.216   6.485  0.9240 -0.6816 -1.0398
  267MOL0     H36042  10.600   8.374   6.504  0.7424 -0.1650  0.2277
  267MOL0     H36043  10.648   8.225   6.106  0.3140 -1.7408  0.2440
  267MOL0     H36044   9.941   8.116   6.492  2.2899  2.5199 -3.0156
  267MOL0     H36045   9.708   8.181   6.498  1.1602 -1.3676 -0.1314
  268MOL0     O36046   4.791   7.952   6.654  0.1176  0.8941  0.8717
  268MOL0     C36047   4.865   7.941   6.554 -0.2171 -0.7065 -0.0785
  268MOL0     O36048   4.829   7.934   6.421 -0.6592  0.2908  0.6609
  268MOL0     C36049   4.697   7.930   6.388 -0.5008  0.3015 -0.4132
  268MOL0     C36050   4.638   8.015   6.298  0.3184 -0.5768  0.3925
  268MOL0     C36051   4.496   8.010   6.261  0.0773  0.9691 -0.2571
  268MOL0     C36052   4.420   7.913   6.320 -0.3600  0.0683  0.2390
  268MOL0     O36053   4.288   7.917   6.282 -0.5019  0.2926 -0.2962
  268MOL0     C36054   4.226   7.790   6.262 -0.0329 -0.4567 -0.8295
  268MOL0     C36055   4.123   7.801   6.152 -0.1700  0.1506 -0.2413
  268MOL0     C36056   4.011   7.894   6.191  0.0783  0.6710  0.1998
  268MOL0     C36057   3.897   7.896   6.087 -0.0831  0.2973 -0.4507
  268MOL0     C36058   3.782   7.981   6.154 -0.4839  0.1154  0.0532
  268MOL0     C36059   3.805   8.134   6.139 -0.2899 -0.1593  0.4667
  268MOL0     C36060   3.690   8.216   6.199 -0.0764 -0.3091  0.4746
  268MOL0     C36061   3.732   8.360   6.214  0.0657 -0.1501 -0.0972
  268MOL0     N36062   3.626   8.441   6.278  0.1799  1.0952  0.6464
  268MOL0     C36063   3.590   8.436   6.411  0.2278 -0.1242  0.5423
  268MOL0     C36064   3.491   8.529   6.419  0.2467 -0.0770  0.2030
  268MOL0     C36065   3.416   8.566   6.543  0.0751 -0.1432 -0.3773
  268MOL0     C36066   3.266   8.559   6.529  0.0048  0.4536 -0.2555
  268MOL0     C36067   3.203   8.645   6.419  0.1174 -1.0950  0.1009
  268MOL0     C36068   3.054   8.615   6.392  0.4140 -0.7678 -0.4910
  268MOL0     O36069   2.964   8.690   6.479 -0.1150 -0.5964  0.1244
  268MOL0     C36070   2.829   8.665   6.456 -0.4868 -0.3441 -0.4825
  268MOL0     C36071   2.740   8.739   6.532  0.2389  0.7762  0.7063
  268MOL0     C36072   2.598   8.713   6.524  0.3755  0.3516  0.1708
  268MOL0     C36073   2.508   8.802   6.606 -1.4034  1.1089 -0.3058
  268MOL0     C36074   2.550   8.611   6.441  0.2063 -0.3521 -0.0752
  268MOL0     C36075   2.406   8.564   6.420  0.3074 -0.3293  0.0054
  268MOL0     O36076   2.379   8.484   6.314  1.0031  0.3733  0.9706
  268MOL0     C36077   2.250   8.446   6.283 -0.3816  0.0144 -0.4534
  268MOL0     C36078   2.165   8.552   6.253  0.5208  0.7696 -0.3535
  268MOL0     C36079   2.029   8.536   6.219  0.0039 -0.0610 -0.3866
  268MOL0     C36080   1.977   8.408   6.207 -0.1638 -0.2652 -1.2683
  268MOL0     O36081   1.852   8.409   6.167 -0.0129 -0.8699  0.1480
  268MOL0     C36082   1.773   8.306   6.216 -0.2545 -0.0291 -0.5285
  268MOL0     C36083   1.633   8.342   6.170 -0.0273  0.3143  0.9318
  268MOL0     C36084   1.536   8.339   6.286 -0.4350 -0.1961 -0.0031
  268MOL0     C36085   1.563   8.453   6.390  0.7569  0.6505  0.2098
  268MOL0     C36086   1.429   8.469   6.474  1.2280 -0.5238  0.5335
  268MOL0     C36087   1.462   8.557   6.608 -0.2640 -0.9196  0.0830
  268MOL0     C36088   1.328   8.607   6.668  0.6447  0.3227 -0.7427
  268MOL0     C36089   1.272   8.491   6.755  0.1606  0.2081  0.5494
  268MOL0    Cl36090   1.127   8.537   6.862 -0.1435 -0.2565  0.1265
  268MOL0     C36091   2.059   8.296   6.233 -0.0255 -0.6943 -0.6637
  268MOL0     C36092   2.197   8.320   6.268  1.4024  0.7635 -0.5864
  268MOL0     O36093   2.321   8.592   6.500 -0.1764 -0.3102 -0.8754
  268MOL0     C36094   2.646   8.544   6.367  0.3874 -0.6206  0.2239
  268MOL0     C36095   2.780   8.572   6.366  0.1868  0.4198 -0.0931
  268MOL0     N36096   3.481   8.592   6.299  0.3783 -0.0959  0.3672
  268MOL0     N36097   3.566   8.547   6.217 -0.2287  0.1591 -0.3620
  268MOL0     C36098   4.472   7.817   6.416 -0.1143 -0.5895  0.6098
  268MOL0     C36099   4.605   7.838   6.456  0.2402 -1.1527  0.6129
  268MOL0     C36100   5.011   7.942   6.580  0.2279 -0.7205 -0.6880
  268MOL0     C36101   5.068   7.969   6.706 -0.6812 -0.8814  0.5394
  268MOL0     C36102   5.205   7.984   6.714  0.0733  0.5239  0.3630
  268MOL0     C36103   5.283   7.963   6.600  1.0063  0.5246  0.1470
  268MOL0     O36104   5.412   7.983   6.624 -0.7157  0.1064 -0.5252
  268MOL0     C36105   5.511   7.954   6.528 -0.4970  0.1957  0.7374
  268MOL0     C36106   5.653   7.963   6.580  0.7405 -0.1389 -0.1758
  268MOL0     C36107   5.697   7.870   6.691 -0.6182  1.0104  0.1177
  268MOL0     C36108   5.839   7.895   6.728 -0.3411  0.0721 -0.5095
  268MOL0     C36109   5.883   7.805   6.835  0.7531 -0.5210  0.6791
  268MOL0     C36110   5.918   7.720   6.913  0.4288 -0.0918  0.2935
  268MOL0     C36111   5.230   7.931   6.479 -0.2354 -0.1552 -0.8380
  268MOL0     C36112   5.095   7.918   6.474  0.0273 -0.2090  0.1939
  268MOL0     H36113   4.685   8.093   6.239 -1.1344  1.5014  1.8553
  268MOL0     H36114   4.453   8.089   6.200 -2.1734 -0.2537 -0.3506
  268MOL0     H36115   4.293   7.708   6.233 -0.5421 -0.8674 -0.8654
  268MOL0     H36116   4.186   7.753   6.357  2.7408 -0.7306  0.3315
  268MOL0     H36117   4.173   7.845   6.065  1.3811  0.3518  0.7120
  268MOL0     H36118   4.076   7.703   6.144 -1.3197  0.5647  1.0226
  268MOL0     H36119   3.973   7.871   6.291  3.2316 -0.5689  1.2503
  268MOL0     H36120   4.056   7.994   6.182  1.4353  0.0315 -0.4036
  268MOL0     H36121   3.933   7.938   5.993  0.1561 -0.2747 -0.6167
  268MOL0     H36122   3.857   7.798   6.060 -2.2774  1.7187 -2.7290
  268MOL0     H36123   3.694   7.959   6.092 -0.2841  0.3267 -0.3146
  268MOL0     H36124   3.769   7.954   6.259  2.7341  1.0702  0.7936
  268MOL0     H36125   3.890   8.159   6.202 -2.3077 -0.6165  3.5988
  268MOL0     H36126   3.829   8.156   6.034  1.3528 -1.0699  0.6315
  268MOL0     H36127   3.622   8.209   6.113  0.5271 -2.5432  0.1118
  268MOL0     H36128   3.646   8.165   6.285 -0.6110  2.2743  1.8428
  268MOL0     H36129   3.758   8.416   6.123  3.5021  1.5928  1.7602
  268MOL0     H36130   3.824   8.350   6.272 -0.5419 -1.1557  0.7356
  268MOL0     H36131   3.634   8.379   6.492 -1.4871  1.7244  2.9323
  268MOL0     H36132   3.442   8.494   6.621  0.2831  3.6352  3.4344
  268MOL0     H36133   3.432   8.669   6.577  0.6024 -0.1777 -0.5120
  268MOL0     H36134   3.216   8.581   6.624  3.5416  0.2555  1.8358
  268MOL0     H36135   3.242   8.454   6.510  0.3012  0.5209 -1.0277
  268MOL0     H36136   3.254   8.619   6.325  2.2440 -0.4762  1.0208
  268MOL0     H36137   3.225   8.748   6.448  0.3810 -1.5431  1.5587
  268MOL0     H36138   3.033   8.508   6.385 -0.8111 -0.7619  1.9393
  268MOL0     H36139   3.041   8.656   6.292 -0.9672  2.8693  0.9904
  268MOL0     H36140   2.776   8.814   6.602 -0.4527  1.2539  0.5650
  268MOL0     H36141   2.461   8.730   6.674  0.6947 -0.2003 -0.1694
  268MOL0     H36142   2.574   8.871   6.659  0.7343 -2.7257  2.5564
  268MOL0     H36143   2.436   8.856   6.543 -1.2753  1.0420 -0.5108
  268MOL0     H36144   2.199   8.652   6.276  0.1576  0.1060  3.9980
  268MOL0     H36145   1.963   8.622   6.207 -0.2313 -0.1182  0.4350
  268MOL0     H36146   1.804   8.203   6.197 -0.5620 -1.4936  5.0623
  268MOL0     H36147   1.763   8.313   6.325 -0.9632 -0.7565 -0.5383
  268MOL0     H36148   1.630   8.443   6.129 -1.1333  0.7725  2.0771
  268MOL0     H36149   1.605   8.265   6.097  4.0245 -0.0930 -0.4493
  268MOL0     H36150   1.552   8.244   6.339  5.2807  2.0964  3.2478
  268MOL0     H36151   1.435   8.351   6.245 -0.3029  2.1529  0.2148
  268MOL0     H36152   1.652   8.441   6.453 -0.3716 -1.8360  1.4442
  268MOL0     H36153   1.566   8.537   6.320 -2.2746 -0.2861 -1.2213
  268MOL0     H36154   1.387   8.371   6.499  0.5442  0.2341  2.6056
  268MOL0     H36155   1.347   8.521   6.423  2.3654  1.1717  0.3369
  268MOL0     H36156   1.533   8.516   6.680 -0.3614 -1.1297  0.0603
  268MOL0     H36157   1.522   8.647   6.588 -1.0305  0.7202  4.1987
  268MOL0     H36158   1.256   8.635   6.590 -2.5909 -0.3293  1.8039
  268MOL0     H36159   1.355   8.694   6.729 -1.7441 -1.1478  2.7281
  268MOL0     H36160   1.349   8.461   6.826  0.8121 -0.0104 -0.2341
  268MOL0     H36161   1.258   8.401   6.694  1.3022 -0.5438  1.3576
  268MOL0     H36162   2.021   8.196   6.219 -1.9368 -0.1630  0.3562
  268MOL0     H36163   2.250   8.226   6.269  0.1811 -0.0775  3.4255
  268MOL0     H36164   2.604   8.469   6.300 -3.7374  0.4103  1.4109
  268MOL0     H36165   2.846   8.519   6.297  0.2617  1.3186 -0.7322
  268MOL0     H36166   4.419   7.733   6.459  2.2250 -0.9186  3.0863
  268MOL0     H36167   4.648   7.770   6.529  2.4543  0.7252  1.1740
  268MOL0     H36168   5.007   7.982   6.795 -2.6216 -0.2376 -0.8279
  268MOL0     H36169   5.261   8.015   6.802 -0.0906 -0.3741  0.8028
  268MOL0     H36170   5.500   7.853   6.487  0.7594  0.2512  0.2129
  268MOL0     H36171   5.491   8.017   6.441 -1.9168 -2.3098 -0.8849
  268MOL0     H36172   5.670   8.067   6.606  0.6168 -0.2293  0.2694
  268MOL0     H36173   5.722   7.939   6.498  0.1195 -2.6044 -0.0775
  268MOL0     H36174   5.684   7.765   6.664 -0.2928  1.1970 -0.7804
  268MOL0     H36175   5.631   7.889   6.777 -1.7447 -0.2061 -0.4425
  268MOL0     H36176   5.855   7.996   6.765  0.9303 -1.0601  2.3168
  268MOL0     H36177   5.906   7.877   6.642  1.4145 -1.8557  1.1391
  268MOL0     H36178   5.968   7.662   6.988  0.1985  1.7130  1.9352
  268MOL0     H36179   5.292   7.918   6.391 -0.4848 -0.1340 -1.0159
  268MOL0     H36180   5.046   7.898   6.379 -1.1988 -0.7428  0.9100
  269MOL0     O36181   3.693   1.958   2.007 -0.4491 -0.1855 -0.1813
  269MOL0     C36182   3.700   1.907   1.899  0.1743 -0.0096 -0.2053
  269MOL0     O36183   3.592   1.879   1.819 -0.1412 -0.4043 -0.3773
  269MOL0     C36184   3.460   1.924   1.839  0.4782 -0.0089  0.3376
  269MOL0     C36185   3.413   2.025   1.928 -0.0642 -0.3107 -0.8622
  269MOL0     C36186   3.282   2.060   1.929 -0.0056 -0.3458 -0.0260
  269MOL0     C36187   3.187   1.990   1.849 -0.4158 -0.2904  0.4027
  269MOL0     O36188   3.050   2.016   1.843  0.1336 -0.6257 -0.6999
  269MOL0     C36189   2.989   2.046   1.972 -0.2933 -0.2040 -0.3427
  269MOL0     C36190   2.860   1.965   1.998  0.9916  0.1920  0.0436
  269MOL0     C36191   2.759   1.993   1.888 -0.4233 -0.6956 -0.0888
  269MOL0     C36192   2.633   1.911   1.904  0.3501  0.8001 -0.4362
  269MOL0     C36193   2.511   1.988   1.848  0.1773  1.1086  0.0048
  269MOL0     C36194   2.377   1.916   1.867 -0.8830  0.0903 -0.3222
  269MOL0     C36195   2.264   2.004   1.810 -0.2843  0.6662  0.0043
  269MOL0     C36196   2.137   1.941   1.866  1.1289  0.0605 -0.3137
  269MOL0     N36197   2.016   2.008   1.808  0.0301  0.2135 -0.7620
  269MOL0     C36198   1.907   2.054   1.882 -0.6073 -0.8084  0.6584
  269MOL0     C36199   1.820   2.086   1.778  0.2649 -0.2902 -0.6361
  269MOL0     C36200   1.670   2.123   1.796 -0.2568  0.0158  0.8569
  269MOL0     C36201   1.582   2.005   1.817 -0.2610  0.1443 -0.5526
  269MOL0     C36202   1.433   2.038   1.797  0.3284  0.1332  0.3397
  269MOL0     C36203   1.345   1.911   1.813 -0.3848 -0.2552 -0.5817
  269MOL0     O36204   1.255   1.918   1.926  0.3231 -0.6232  0.3115
  269MOL0     C36205   1.134   1.986   1.916  0.1909 -0.5327 -0.5301
  269MOL0     C36206   1.091   2.064   1.808  0.9419 -0.2515 -0.0576
  269MOL0     C36207   0.975   2.140   1.805  0.1299  0.2679  0.0765
  269MOL0     C36208   0.942   2.217   1.666 -0.0645 -0.1762  0.3559
  269MOL0     C36209   0.904   2.151   1.933 -0.0568  0.1938  0.2323
  269MOL0     C36210   0.783   2.234   1.950  0.0651 -0.8740  0.2271
  269MOL0     O36211   0.738   2.269   2.072  0.0345 -0.6587 -0.1333
  269MOL0     C36212   0.651   2.370   2.081  0.7598 -0.0613 -0.5541
  269MOL0     C36213   0.527   2.367   2.144 -0.6952  0.3591 -0.9359
  269MOL0     C36214   0.449   2.483   2.163  0.1133 -0.3331  0.0225
  269MOL0     C36215   0.488   2.599   2.105 -0.1653 -0.2880 -0.0316
  269MOL0     O36216   0.419   2.704   2.129  0.4378 -0.6255  0.2754
  269MOL0     C36217   0.369   2.779   2.015 -0.1874  0.5184 -0.5870
  269MOL0     C36218   0.333   2.916   2.070 -0.6919 -0.0197 -0.4059
  269MOL0     C36219   0.244   2.912   2.192 -0.1637  0.1396 -0.4972
  269MOL0     C36220   0.185   3.055   2.216 -0.4783 -0.6819 -0.6334
  269MOL0     C36221   0.118   3.078   2.365  0.9113  0.5028  0.4426
  269MOL0     C36222   0.103   3.232   2.391 -0.4770  0.0773  0.8032
  269MOL0     C36223   0.060   3.252   2.538 -0.7902 -0.5530  0.9228
  269MOL0     C36224  -0.078   3.326   2.550  0.2413 -0.2690 -0.4907
  269MOL0    Cl36225  -0.218   3.233   2.489  0.0441 -0.0611 -0.3962
  269MOL0     C36226   0.604   2.607   2.038 -0.6742  0.2114 -0.1260
  269MOL0     C36227   0.690   2.492   2.032  0.1794 -0.0321 -0.0200
  269MOL0     O36228   0.728   2.261   1.845  0.5070 -0.0622  0.1625
  269MOL0     C36229   0.943   2.066   2.039 -0.8305 -0.5318  0.2403
  269MOL0     C36230   1.053   1.990   2.026 -0.8588 -0.0421 -0.8477
  269MOL0     N36231   1.875   2.049   1.655  0.4374  0.7222 -0.5520
  269MOL0     N36232   1.997   2.019   1.678 -0.0101  0.2322  0.6496
  269MOL0     C36233   3.237   1.896   1.762  0.2252  0.4103  1.0959
  269MOL0     C36234   3.371   1.867   1.756 -0.1318  0.7612 -0.5984
  269MOL0     C36235   3.828   1.855   1.844 -1.3150 -0.4148  0.4409
  269MOL0     C36236   3.836   1.770   1.734 -0.3177 -0.2555 -0.3129
  269MOL0     C36237   3.964   1.742   1.673 -0.7683  0.5175  0.4726
  269MOL0     C36238   4.086   1.791   1.729 -0.4566  0.0244  0.3553
  269MOL0     O36239   4.208   1.752   1.680  0.3159 -0.8254  0.3368
  269MOL0     C36240   4.335   1.788   1.736  0.9739  0.1493 -0.3063
  269MOL0     C36241   4.375   1.934   1.706 -0.1318 -0.8457  0.0144
  269MOL0     C36242   4.508   1.974   1.756 -0.0494 -0.6394  0.2960
  269MOL0     C36243   4.623   1.873   1.749 -0.6453  0.1628  0.1598
  269MOL0     C36244   4.727   1.943   1.822  0.3071  0.1813 -0.1466
  269MOL0     C36245   4.803   2.002   1.894 -0.1796  0.7021  0.7624
  269MOL0     C36246   4.073   1.875   1.836 -0.3888  0.4150  0.0670
  269MOL0     C36247   3.950   1.909   1.894  0.4136 -0.2185 -0.8272
  269MOL0     H36248   3.473   2.091   1.990  1.6360 -1.4579 -1.1864
  269MOL0     H36249   3.250   2.135   2.000  4.1722  0.2014  1.5493
  269MOL0     H36250   3.056   2.023   2.055 -0.4595  2.5506  0.6535
  269MOL0     H36251   2.977   2.154   1.980  3.5147  0.4019 -0.9342
  269MOL0     H36252   2.891   1.861   2.004 -0.7803 -0.3396  4.9670
  269MOL0     H36253   2.805   1.993   2.089  0.0042  0.5661 -0.6437
  269MOL0     H36254   2.728   2.097   1.895  1.2262 -0.2508  1.2015
  269MOL0     H36255   2.799   1.985   1.787 -0.6395 -0.5866 -0.1837
  269MOL0     H36256   2.645   1.819   1.846 -0.0036 -0.0496  0.7788
  269MOL0     H36257   2.610   1.881   2.007 -0.8719 -0.3396 -0.9966
  269MOL0     H36258   2.496   2.077   1.910  1.4545  0.1781  1.7400
  269MOL0     H36259   2.529   2.017   1.744  0.7448  0.0134 -0.2168
  269MOL0     H36260   2.381   1.825   1.806 -1.3936 -0.4326  0.4167
  269MOL0     H36261   2.352   1.894   1.971  2.0967 -0.8551  0.2831
  269MOL0     H36262   2.265   2.110   1.839  0.1324  0.6670 -0.0056
  269MOL0     H36263   2.267   1.997   1.701 -2.7708 -2.7528 -0.0102
  269MOL0     H36264   2.139   1.945   1.976  2.8850  0.6017 -0.3368
  269MOL0     H36265   2.141   1.838   1.829  1.3009 -0.5739  1.3699
  269MOL0     H36266   1.890   2.066   1.988 -0.2984  1.9264  0.4547
  269MOL0     H36267   1.645   2.194   1.875 -2.7868  1.1350 -0.8415
  269MOL0     H36268   1.630   2.180   1.712  1.4140  1.0654  0.7182
  269MOL0     H36269   1.597   1.965   1.917  0.0314  0.0765 -0.6228
  269MOL0     H36270   1.615   1.931   1.743 -0.6581  0.3618 -0.9591
  269MOL0     H36271   1.419   2.083   1.698  0.8194 -3.2967 -1.4392
  269MOL0     H36272   1.397   2.102   1.878  1.0683 -0.6514  1.3133
  269MOL0     H36273   1.395   1.816   1.832  0.5862  0.2488 -0.5286
  269MOL0     H36274   1.292   1.888   1.720 -1.6220  0.1751  0.0077
  269MOL0     H36275   1.151   2.066   1.717 -1.3656  1.4845 -1.6371
  269MOL0     H36276   1.037   2.223   1.613  2.3112  0.8118  4.2939
  269MOL0     H36277   0.862   2.168   1.610 -0.5474  2.1159 -1.0857
  269MOL0     H36278   0.919   2.323   1.678  4.3480  1.0554 -0.3007
  269MOL0     H36279   0.507   2.272   2.193  2.8576 -1.6022 -2.8387
  269MOL0     H36280   0.364   2.487   2.230  0.0699 -2.4164  0.1405
  269MOL0     H36281   0.438   2.770   1.932  0.4440 -1.3667  0.0796
  269MOL0     H36282   0.268   2.746   1.987 -0.8441  3.4497 -2.0447
  269MOL0     H36283   0.427   2.967   2.094 -0.2993 -0.4637 -0.9626
  269MOL0     H36284   0.276   2.955   1.986 -1.5479  0.5126  0.4106
  269MOL0     H36285   0.291   2.877   2.284 -0.9799  1.2940  0.3831
  269MOL0     H36286   0.160   2.847   2.165  0.6645 -0.8299 -0.8478
  269MOL0     H36287   0.274   3.119   2.213  0.7446 -2.2547  0.5634
  269MOL0     H36288   0.119   3.088   2.136 -0.5052  1.2368  0.1286
  269MOL0     H36289   0.172   3.021   2.441  1.6379 -0.4335 -0.7449
  269MOL0     H36290   0.016   3.039   2.363  0.7423  0.9355  0.3682
  269MOL0     H36291   0.195   3.285   2.367  1.0091 -1.6253  2.4462
  269MOL0     H36292   0.016   3.256   2.329 -0.0222  0.7802  0.4307
  269MOL0     H36293   0.140   3.313   2.580  0.6967 -3.6380  2.8760
  269MOL0     H36294   0.049   3.157   2.592  2.9674 -2.0193 -0.5587
  269MOL0     H36295  -0.072   3.421   2.496 -1.0745 -1.4378 -2.8431
  269MOL0     H36296  -0.090   3.348   2.656 -0.7875 -2.4148 -0.1259
  269MOL0     H36297   0.636   2.702   1.997  0.7942 -0.2093 -0.0270
  269MOL0     H36298   0.788   2.498   1.986 -0.4105 -1.2499 -1.5276
  269MOL0     H36299   0.895   2.072   2.137  1.2816 -0.4864  1.3284
  269MOL0     H36300   1.088   1.934   2.112 -0.5586 -1.4224 -1.8324
  269MOL0     H36301   3.166   1.843   1.700 -0.2659  0.2745  1.7548
  269MOL0     H36302   3.399   1.786   1.689 -2.6567  0.4773 -1.4558
  269MOL0     H36303   3.743   1.738   1.690 -1.2085  0.6121  0.8804
  269MOL0     H36304   3.977   1.687   1.580 -1.6251 -1.2997  1.3771
  269MOL0     H36305   4.342   1.771   1.844  2.3239 -0.1993 -0.4295
  269MOL0     H36306   4.405   1.720   1.688  1.7833  1.6911 -1.3815
  269MOL0     H36307   4.301   1.996   1.758  0.1115 -1.4100  1.0798
  269MOL0     H36308   4.378   1.968   1.602 -0.3773 -1.2898 -0.1422
  269MOL0     H36309   4.496   1.996   1.863  3.1149  0.0238  0.6202
  269MOL0     H36310   4.539   2.065   1.702  0.4942 -1.1181 -0.2107
  269MOL0     H36311   4.648   1.862   1.643 -1.2034  1.2055 -0.0882
  269MOL0     H36312   4.598   1.776   1.793 -0.0141 -0.1601 -0.1707
  269MOL0     H36313   4.873   2.041   1.966 -0.4623  0.3698  1.2209
  269MOL0     H36314   4.155   1.911   1.897  0.9411 -0.3558 -1.1877
  269MOL0     H36315   3.939   1.980   1.975 -2.7293  0.8128 -2.0092
  270MOL0     O36316   4.804   4.020  10.710 -0.3201  0.0785  0.1538
  270MOL0     C36317   4.801   4.068  10.821 -0.2153 -0.3571 -0.1222
  270MOL0     O36318   4.696   4.083  10.899  0.1870  0.9764  0.8614
  270MOL0     C36319   4.589   4.009  10.860  0.1829  0.6288 -0.1665
  270MOL0     C36320   4.476   4.066  10.811 -0.4885 -0.5295 -0.4802
  270MOL0     C36321   4.358   3.994  10.790 -0.2877 -0.6527 -0.2403
  270MOL0     C36322   4.363   3.857  10.809 -0.1663  0.1644  0.4508
  270MOL0     O36323   4.248   3.781  10.802  0.0838  0.2466 -0.0061
  270MOL0     C36324   4.126   3.831  10.862 -0.3232 -0.3590 -0.1895
  270MOL0     C36325   4.021   3.845  10.750 -0.8801  0.1422  0.1236
  270MOL0     C36326   4.003   3.712  10.671 -0.6870 -0.5731 -0.7109
  270MOL0     C36327   3.941   3.720  10.536 -0.4034  0.1999 -0.3229
  270MOL0     C36328   3.800   3.769  10.550  0.2083  0.2603  0.8788
  270MOL0     C36329   3.757   3.889  10.461 -0.2217  0.1723  0.1483
  270MOL0     C36330   3.605   3.885  10.446  0.0324 -1.1617 -0.4140
  270MOL0     C36331   3.534   3.940  10.567 -0.2035 -0.4981 -0.0647
  270MOL0     N36332   3.391   3.954  10.548 -0.0302 -0.0309  0.5646
  270MOL0     C36333   3.292   3.865  10.581  0.4446  0.2225 -0.3384
  270MOL0     C36334   3.179   3.929  10.556  0.7524 -0.2424  0.2354
  270MOL0     C36335   3.051   3.853  10.560 -0.2051 -0.6566 -0.0569
  270MOL0     C36336   2.943   3.958  10.621 -0.1423  0.2921 -0.0192
  270MOL0     C36337   2.803   3.906  10.599  0.2654 -0.3085 -0.5660
  270MOL0     C36338   2.700   3.989  10.675 -0.0859  0.2435  0.1113
  270MOL0     O36339   2.582   3.908  10.688 -0.0863 -0.8200  0.2171
  270MOL0     C36340   2.469   3.953  10.753 -0.5988  0.0945 -0.3322
  270MOL0     C36341   2.362   3.873  10.770  0.2758 -0.6379  0.1776
  270MOL0     C36342   2.243   3.919  10.819  0.5589 -0.9961 -0.7219
  270MOL0     C36343   2.139   3.811  10.850  0.4940  0.0927  0.7944
  270MOL0     C36344   2.219   4.062  10.836  0.3434 -0.2101  0.6406
  270MOL0     C36345   2.084   4.127  10.873  0.2794  0.0825 -0.2157
  270MOL0     O36346   1.972   4.054  10.843  1.1559 -1.0252 -0.4978
  270MOL0     C36347   1.849   4.090  10.896 -0.0411 -0.5532 -0.8491
  270MOL0     C36348   1.741   4.101  10.809 -0.0083 -0.6195 -0.1874
  270MOL0     C36349   1.619   4.132  10.861 -0.9232  0.1357 -0.2113
  270MOL0     C36350   1.602   4.179  10.990  0.1390  0.3493 -0.4210
  270MOL0     O36351   1.487   4.225  11.047  0.0937  0.7332 -0.1804
  270MOL0     C36352   1.389   4.253  10.955  0.3889 -0.2981 -0.2468
  270MOL0     C36353   1.301   4.360  11.012 -0.5453 -0.4645  0.0116
  270MOL0     C36354   1.245   4.327  11.155 -0.5198 -0.7817  1.5155
  270MOL0     C36355   1.155   4.210  11.163  0.1222  0.5271 -0.6041
  270MOL0     C36356   1.014   4.223  11.099  0.3910  0.2823 -0.5259
  270MOL0     C36357   0.920   4.128  11.154 -0.0931  0.3133  0.2487
  270MOL0     C36358   0.794   4.114  11.069  0.0084  0.1075 -0.0278
  270MOL0     C36359   0.693   4.022  11.128  0.5745 -0.5000 -0.6389
  270MOL0    Cl36360   0.554   4.013  11.018  0.2377  0.1500 -0.3048
  270MOL0     C36361   1.701   4.156  11.083 -0.7211  0.0687  0.2881
  270MOL0     C36362   1.828   4.116  11.034 -0.0373  0.2748 -0.4860
  270MOL0     O36363   2.086   4.237  10.925  0.0766  0.6398 -1.0974
  270MOL0     C36364   2.337   4.140  10.828 -0.5168 -0.1999 -0.4625
  270MOL0     C36365   2.458   4.083  10.786 -0.3833  0.1535  0.4240
  270MOL0     N36366   3.203   4.054  10.492 -0.6599 -0.0554 -0.2696
  270MOL0     N36367   3.337   4.072  10.489 -0.5295  0.1596 -0.0128
  270MOL0     C36368   4.473   3.792  10.847 -1.1049  0.6570  1.2474
  270MOL0     C36369   4.586   3.864  10.871 -0.7456  0.2524 -0.6753
  270MOL0     C36370   4.920   4.138  10.879  0.7055 -0.8981 -0.0809
  270MOL0     C36371   4.912   4.227  10.983 -0.0302 -0.7975  0.5288
  270MOL0     C36372   5.026   4.274  11.044 -0.2120 -1.0036  0.4780
  270MOL0     C36373   5.155   4.233  11.004  0.7040 -0.9984  0.2891
  270MOL0     O36374   5.264   4.294  11.052 -0.2036 -0.2730  0.2770
  270MOL0     C36375   5.363   4.209  11.108 -0.2040  0.2552 -0.5572
  270MOL0     C36376   5.441   4.263  11.226 -0.3683  0.3444  0.8994
  270MOL0     C36377   5.459   4.415  11.216 -0.1871  0.6474  0.2445
  270MOL0     C36378   5.567   4.457  11.114 -0.2842 -0.2862  0.2989
  270MOL0     C36379   5.700   4.418  11.154  0.3474  0.1243  0.8631
  270MOL0     C36380   5.814   4.404  11.195 -0.5986 -0.5386  0.3959
  270MOL0     C36381   5.166   4.148  10.891 -0.5381 -0.6267  0.5176
  270MOL0     C36382   5.045   4.102  10.835  0.8165  0.5791 -0.2048
  270MOL0     H36383   4.467   4.172  10.791  1.9589 -0.6084 -2.5280
  270MOL0     H36384   4.269   4.048  10.759  1.0859  0.2697 -2.8162
  270MOL0     H36385   4.098   3.749  10.930 -1.0212 -1.6841 -1.9980
  270MOL0     H36386   4.141   3.927  10.913  0.7398 -0.0229 -1.1144
  270MOL0     H36387   3.924   3.869  10.794 -1.6458 -1.9818 -0.2806
  270MOL0     H36388   4.048   3.929  10.685  1.7212 -1.5214 -1.1278
  270MOL0     H36389   4.101   3.666  10.653  0.1665  1.5411 -1.9046
  270MOL0     H36390   3.947   3.646  10.737  0.1333 -0.0155  0.5917
  270MOL0     H36391   4.000   3.795  10.481  1.0512 -1.5154 -1.2050
  270MOL0     H36392   3.953   3.627  10.479 -0.1390  1.3060 -2.1468
  270MOL0     H36393   3.736   3.681  10.532  1.4445 -0.7284  1.1950
  270MOL0     H36394   3.777   3.809  10.649  1.1006  2.4105  0.2788
  270MOL0     H36395   3.790   3.986  10.499  0.4446  0.4823 -1.1511
  270MOL0     H36396   3.802   3.882  10.361 -1.5054  3.2660 -0.7638
  270MOL0     H36397   3.584   3.966  10.376 -1.3154  0.0353  1.2682
  270MOL0     H36398   3.564   3.791  10.407 -1.3233 -0.1626 -1.5283
  270MOL0     H36399   3.577   4.036  10.597  1.0151 -1.2104  0.5703
  270MOL0     H36400   3.558   3.882  10.658 -1.5878  1.4534  1.6341
  270MOL0     H36401   3.295   3.758  10.601 -3.5088 -0.0804 -0.6586
  270MOL0     H36402   3.027   3.840  10.454 -1.4521 -2.2078  0.3793
  270MOL0     H36403   3.054   3.757  10.613 -0.9395  0.3341  1.8917
  270MOL0     H36404   2.974   4.055  10.580  1.4054  0.5720  1.7174
  270MOL0     H36405   2.949   3.958  10.730 -1.6310  1.3340  0.0910
  270MOL0     H36406   2.802   3.804  10.637  1.0527  0.6874  2.4085
  270MOL0     H36407   2.769   3.911  10.495  0.2456  1.4224 -0.5146
  270MOL0     H36408   2.682   4.080  10.617 -2.5456  1.2797  2.3237
  270MOL0     H36409   2.731   4.018  10.776 -0.6695  1.6909 -0.1039
  270MOL0     H36410   2.368   3.771  10.732  2.0453 -0.5947  0.2690
  270MOL0     H36411   2.200   3.725  10.881  1.7204  0.2666 -1.0236
  270MOL0     H36412   2.070   3.846  10.927 -1.2078  2.6611 -1.6982
  270MOL0     H36413   2.076   3.801  10.761  0.3372  0.2598  0.8849
  270MOL0     H36414   1.759   4.088  10.703  0.8048  3.3770 -0.7065
  270MOL0     H36415   1.541   4.134  10.786 -0.5873 -1.9407 -0.6755
  270MOL0     H36416   1.430   4.301  10.866  0.9126  0.7930  0.5665
  270MOL0     H36417   1.332   4.159  10.950  2.5944 -1.8509  1.6898
  270MOL0     H36418   1.342   4.461  11.018 -1.2832 -0.2355  1.6701
  270MOL0     H36419   1.217   4.371  10.943 -0.8142  1.2176  0.5618
  270MOL0     H36420   1.193   4.415  11.196 -1.3242  0.3730 -1.6812
  270MOL0     H36421   1.328   4.317  11.226  1.0785 -1.6934 -0.4015
  270MOL0     H36422   1.203   4.128  11.110 -0.3162  1.1938 -2.0723
  270MOL0     H36423   1.149   4.190  11.270  0.9345  0.5924 -0.5350
  270MOL0     H36424   1.029   4.210  10.992  0.0400  0.6764 -0.6238
  270MOL0     H36425   0.976   4.323  11.122  1.4640 -0.0143  3.2662
  270MOL0     H36426   0.966   4.030  11.172 -2.2011 -0.4625  1.8371
  270MOL0     H36427   0.888   4.163  11.253  0.5472 -4.2367  2.3211
  270MOL0     H36428   0.821   4.076  10.970  2.6089  1.1332  0.2052
  270MOL0     H36429   0.752   4.215  11.068 -0.9609 -0.1342 -4.5270
  270MOL0     H36430   0.736   3.922  11.135  1.9737  0.1754  2.0500
  270MOL0     H36431   0.663   4.044  11.231  2.6123  0.7628 -0.2431
  270MOL0     H36432   1.700   4.192  11.186  3.0207  3.1893 -0.5247
  270MOL0     H36433   1.918   4.108  11.093  0.3683  0.0470 -1.1248
  270MOL0     H36434   2.335   4.248  10.832  3.9408  0.0106  0.4858
  270MOL0     H36435   2.545   4.149  10.781 -0.8731  0.7953  0.2127
  270MOL0     H36436   4.458   3.684  10.857 -1.5184 -0.0449 -4.0301
  270MOL0     H36437   4.686   3.830  10.897  0.4137  2.6140 -1.7117
  270MOL0     H36438   4.818   4.271  11.015 -0.5893 -1.7524  0.2585
  270MOL0     H36439   5.016   4.346  11.124  4.7271  0.4091  0.1805
  270MOL0     H36440   5.316   4.114  11.136  3.9335 -1.6985  0.5530
  270MOL0     H36441   5.436   4.183  11.031  1.8525 -1.1707  1.7331
  270MOL0     H36442   5.537   4.211  11.229 -0.0485  0.7971 -0.7093
  270MOL0     H36443   5.391   4.238  11.321 -1.1383  1.6612  0.8685
  270MOL0     H36444   5.490   4.465  11.308 -0.8986  0.0681  0.8148
  270MOL0     H36445   5.367   4.468  11.192  0.9858  2.5714 -0.2089
  270MOL0     H36446   5.573   4.566  11.104  0.3039 -0.0103  2.9540
  270MOL0     H36447   5.540   4.405  11.021 -0.4222 -1.5102  0.9991
  270MOL0     H36448   5.914   4.416  11.229 -1.3519  3.2953  1.8433
  270MOL0     H36449   5.260   4.126  10.841 -2.1714 -1.2467 -2.5499
  270MOL0     H36450   5.037   4.035  10.750 -2.4320  4.1657 -3.1491
  271MOL0     O36451   0.131   7.027   4.398 -0.3264  0.6856  0.4631
  271MOL0     C36452   0.112   6.998   4.276 -0.1461 -0.0948 -0.3561
  271MOL0     O36453  -0.008   6.974   4.222  0.3748  0.3908 -0.0217
  271MOL0     C36454  -0.119   6.980   4.299  0.5051  0.1312  0.8437
  271MOL0     C36455  -0.229   7.071   4.264 -0.5577 -0.5323 -0.3742
  271MOL0     C36456  -0.335   7.092   4.348 -0.0557 -0.3233 -0.0663
  271MOL0     C36457  -0.348   7.021   4.469  0.2475  0.3238 -0.1470
  271MOL0     O36458  -0.457   7.044   4.551  0.4110  0.1735 -0.6546
  271MOL0     C36459  -0.524   7.168   4.539 -0.2069  0.2586  0.0703
  271MOL0     C36460  -0.627   7.172   4.648 -0.2486 -0.9311 -0.4839
  271MOL0     C36461  -0.734   7.060   4.632 -0.8871 -0.1003 -0.4417
  271MOL0     C36462  -0.838   7.097   4.740 -0.1609  0.0568  0.0453
  271MOL0     C36463  -0.964   7.011   4.715 -0.1933 -0.2713 -0.2362
  271MOL0     C36464  -1.069   7.046   4.825  0.1171  0.4350 -0.5508
  271MOL0     C36465  -1.193   6.962   4.806 -0.2238 -0.6604 -0.0774
  271MOL0     C36466  -1.289   6.973   4.927 -0.2580  0.7952  0.2763
  271MOL0     N36467  -1.418   6.895   4.910  0.5976 -0.2514  0.3281
  271MOL0     C36468  -1.537   6.905   4.981 -0.8601  0.3744 -0.1736
  271MOL0     C36469  -1.617   6.811   4.922  0.4348  0.5165 -0.2259
  271MOL0     C36470  -1.751   6.785   4.988  0.5987 -0.3016  0.7713
  271MOL0     C36471  -1.834   6.687   4.910  0.0376 -0.4439  0.7230
  271MOL0     C36472  -1.984   6.692   4.951 -0.5872  0.3298 -0.3389
  271MOL0     C36473  -2.073   6.620   4.851  0.1829 -0.2377 -0.5824
  271MOL0     O36474  -2.202   6.677   4.851  0.1177 -0.2243  0.0342
  271MOL0     C36475  -2.302   6.596   4.794  0.0979  0.2357 -0.1116
  271MOL0     C36476  -2.439   6.623   4.827 -0.7382 -0.1535  0.2338
  271MOL0     C36477  -2.543   6.548   4.777  0.3478  0.5080 -0.1179
  271MOL0     C36478  -2.682   6.567   4.834  0.6913 -0.3296 -0.2471
  271MOL0     C36479  -2.521   6.447   4.686  0.0920  0.8240  0.7736
  271MOL0     C36480  -2.625   6.364   4.616  0.7811 -0.1765  0.6625
  271MOL0     O36481  -2.751   6.422   4.583  0.0959 -0.1251 -0.2462
  271MOL0     C36482  -2.830   6.340   4.515  0.6991 -0.2378  0.8925
  271MOL0     C36483  -2.862   6.376   4.377  0.7779 -0.3786 -0.2596
  271MOL0     C36484  -2.964   6.313   4.314 -0.8546 -0.4382  0.7207
  271MOL0     C36485  -3.035   6.213   4.375 -0.2343 -0.0597  0.5869
  271MOL0     O36486  -3.123   6.143   4.301 -0.3216 -0.2215  0.0420
  271MOL0     C36487  -3.198   6.044   4.363  0.4987 -0.6017 -0.5557
  271MOL0     C36488  -3.287   5.980   4.255  0.3683 -0.2457 -0.3973
  271MOL0     C36489  -3.408   5.915   4.299 -0.4377 -0.4230 -0.0448
  271MOL0     C36490  -3.492   5.863   4.179  1.2400 -0.2266 -1.0078
  271MOL0     C36491  -3.543   5.716   4.214 -0.2731 -0.6864 -1.0170
  271MOL0     C36492  -3.669   5.670   4.141 -0.0808  0.2038  0.3808
  271MOL0     C36493  -3.798   5.737   4.198 -0.0721  0.3809  0.2650
  271MOL0     C36494  -3.936   5.715   4.131  0.0157  0.2951 -0.3417
  271MOL0    Cl36495  -3.945   5.547   4.078 -0.1900 -0.2438 -0.5926
  271MOL0     C36496  -3.011   6.182   4.508  0.0913 -0.2913 -0.4165
  271MOL0     C36497  -2.901   6.239   4.578  0.1397  0.3267 -0.2574
  271MOL0     O36498  -2.591   6.250   4.592 -0.1913  0.1595 -0.5751
  271MOL0     C36499  -2.385   6.410   4.660 -0.4348  0.1430 -0.1996
  271MOL0     C36500  -2.281   6.484   4.707 -0.1013  0.4014 -0.4784
  271MOL0     N36501  -1.559   6.757   4.807  0.1240 -1.1606 -0.4188
  271MOL0     N36502  -1.435   6.799   4.815  0.6864 -0.1591 -0.3025
  271MOL0     C36503  -0.247   6.925   4.500 -0.2951 -0.2428  0.5423
  271MOL0     C36504  -0.133   6.914   4.420  0.5284 -0.5331 -0.2955
  271MOL0     C36505   0.237   7.000   4.200 -0.3231  0.0953  0.5010
  271MOL0     C36506   0.366   7.026   4.251 -0.9278 -0.4507 -0.4318
  271MOL0     C36507   0.474   7.028   4.165 -0.3027  0.2752 -0.1435
  271MOL0     C36508   0.468   6.976   4.035 -0.0479 -0.4132 -0.1157
  271MOL0     O36509   0.565   6.970   3.939  0.5614 -0.8691 -0.3146
  271MOL0     C36510   0.705   6.989   3.977  0.0352  0.2377  0.5381
  271MOL0     C36511   0.792   6.992   3.846 -0.1157 -0.3306 -0.2251
  271MOL0     C36512   0.931   7.019   3.894 -0.0670 -0.1040 -0.5391
  271MOL0     C36513   1.035   7.020   3.785  0.0620  0.2339 -0.4858
  271MOL0     C36514   1.061   6.891   3.722 -0.2064 -0.8466 -0.6531
  271MOL0     C36515   1.085   6.797   3.649 -0.0564 -0.2882 -0.2671
  271MOL0     C36516   0.342   6.943   3.987 -0.0260 -0.1383  0.4324
  271MOL0     C36517   0.224   6.955   4.067  0.4139  0.6377 -0.1678
  271MOL0     H36518  -0.221   7.127   4.171  0.5614 -2.1578 -1.3068
  271MOL0     H36519  -0.412   7.158   4.309 -0.5969  1.0928  3.0697
  271MOL0     H36520  -0.454   7.251   4.553 -0.0780  0.7559 -2.8881
  271MOL0     H36521  -0.575   7.183   4.443  2.4281  1.2851 -1.2783
  271MOL0     H36522  -0.575   7.170   4.745 -0.6278 -3.3076 -0.2834
  271MOL0     H36523  -0.678   7.269   4.644 -2.2363 -1.8783  0.4614
  271MOL0     H36524  -0.765   7.044   4.528  1.6499 -0.3436 -1.2122
  271MOL0     H36525  -0.687   6.966   4.662  0.4747  0.7793  0.2470
  271MOL0     H36526  -0.797   7.070   4.838 -2.5522 -1.1174  0.8223
  271MOL0     H36527  -0.857   7.204   4.751  3.6580  0.8743 -0.0390
  271MOL0     H36528  -1.005   7.032   4.615  2.2362 -0.6214 -1.3591
  271MOL0     H36529  -0.935   6.906   4.715  0.4320 -0.1253 -1.9466
  271MOL0     H36530  -1.027   7.016   4.921  0.5356  2.3430 -0.1073
  271MOL0     H36531  -1.094   7.152   4.815  3.4311  1.2527 -1.7239
  271MOL0     H36532  -1.248   7.005   4.722 -0.3807  0.5523  0.6248
  271MOL0     H36533  -1.162   6.858   4.793 -2.6371 -1.2417 -1.8661
  271MOL0     H36534  -1.310   7.079   4.942 -4.5711  0.5133 -2.0854
  271MOL0     H36535  -1.237   6.924   5.010 -1.1857 -1.7645 -0.5355
  271MOL0     H36536  -1.551   6.971   5.066 -1.2114 -1.5637  1.3530
  271MOL0     H36537  -1.739   6.741   5.088 -0.5273 -1.1808  0.5435
  271MOL0     H36538  -1.810   6.875   5.009 -0.7670 -1.2663  1.1951
  271MOL0     H36539  -1.794   6.587   4.932  1.5397 -0.3975 -1.5035
  271MOL0     H36540  -1.828   6.705   4.802 -0.0760  0.4308  0.8561
  271MOL0     H36541  -2.011   6.798   4.947  2.2517  1.1274 -1.2455
  271MOL0     H36542  -1.999   6.661   5.055 -0.9472  2.5453  0.3204
  271MOL0     H36543  -2.071   6.514   4.876 -0.2361  0.4078  2.6162
  271MOL0     H36544  -2.028   6.634   4.752  1.9259 -1.5422 -0.0296
  271MOL0     H36545  -2.456   6.698   4.903 -1.2347 -0.6923  0.6640
  271MOL0     H36546  -2.659   6.595   4.937 -1.4267  0.9598 -0.0659
  271MOL0     H36547  -2.747   6.638   4.782 -1.7303 -0.4005  2.4483
  271MOL0     H36548  -2.741   6.475   4.842 -0.0091  0.2114  1.1343
  271MOL0     H36549  -2.811   6.462   4.335 -0.4204 -0.0925 -1.1654
  271MOL0     H36550  -2.996   6.347   4.216 -0.5144 -0.5043  0.5846
  271MOL0     H36551  -3.132   5.967   4.404  0.8444 -0.4845 -0.8821
  271MOL0     H36552  -3.263   6.082   4.442 -2.5171 -4.0097 -1.1725
  271MOL0     H36553  -3.323   6.065   4.196  2.1834  1.1096  0.3879
  271MOL0     H36554  -3.224   5.922   4.187  2.7872  3.1916 -1.3432
  271MOL0     H36555  -3.472   5.977   4.363  0.2910  0.4453 -0.1377
  271MOL0     H36556  -3.368   5.832   4.359  0.0488  1.1754  1.9642
  271MOL0     H36557  -3.572   5.936   4.164  2.6420  1.5906 -0.0748
  271MOL0     H36558  -3.425   5.873   4.093  0.8556  2.4287 -1.0675
  271MOL0     H36559  -3.549   5.713   4.323 -0.6056 -1.8873 -1.0564
  271MOL0     H36560  -3.461   5.650   4.184  0.4960  0.2449 -0.9883
  271MOL0     H36561  -3.666   5.679   4.031 -1.0476 -3.3298 -0.0344
  271MOL0     H36562  -3.664   5.562   4.152  1.5527  0.0440 -1.3255
  271MOL0     H36563  -3.790   5.845   4.209 -3.9933  0.8303  0.1895
  271MOL0     H36564  -3.807   5.694   4.299 -1.9301 -1.2948 -0.5374
  271MOL0     H36565  -3.938   5.779   4.042  3.0113  1.6374  0.4282
  271MOL0     H36566  -4.019   5.738   4.198 -1.4324 -0.7246 -1.6881
  271MOL0     H36567  -3.072   6.111   4.563 -1.0915 -0.6474 -2.0751
  271MOL0     H36568  -2.878   6.207   4.678 -1.0264 -2.8765 -0.8909
  271MOL0     H36569  -2.365   6.312   4.617 -1.2020 -0.2766  0.3672
  271MOL0     H36570  -2.187   6.459   4.658  0.6914 -0.1561  1.2472
  271MOL0     H36571  -0.257   6.868   4.592 -1.9776 -1.1500 -0.1646
  271MOL0     H36572  -0.048   6.850   4.440 -1.5679 -3.8346 -1.1055
  271MOL0     H36573   0.385   7.056   4.354 -0.1229  2.4856 -1.3395
  271MOL0     H36574   0.569   7.066   4.199 -0.3594 -1.5843  2.3404
  271MOL0     H36575   0.725   7.083   4.028 -0.4559  0.6036  0.0792
  271MOL0     H36576   0.728   6.906   4.044 -0.4253 -0.1009  0.2865
  271MOL0     H36577   0.758   7.075   3.783 -0.3655 -0.2682 -0.0119
  271MOL0     H36578   0.774   6.902   3.787  0.3011 -0.0347 -0.8080
  271MOL0     H36579   0.957   6.946   3.971 -1.1127 -1.0654 -1.0635
  271MOL0     H36580   0.929   7.122   3.931  0.2367  0.7673 -2.7765
  271MOL0     H36581   1.131   7.061   3.820  0.1803  1.5166 -2.1690
  271MOL0     H36582   0.999   7.090   3.709  2.2894  1.3364 -0.6272
  271MOL0     H36583   1.108   6.702   3.606  0.2403 -0.9257  1.2596
  271MOL0     H36584   0.331   6.912   3.884 -1.4013  0.2135  0.4453
  271MOL0     H36585   0.130   6.909   4.036  1.6775 -2.9128  0.7677
  272MOL0     O36586   1.269   3.957   1.420  0.1669 -0.3086 -0.7335
  272MOL0     C36587   1.314   3.878   1.341 -0.1624 -0.3025 -0.3312
  272MOL0     O36588   1.234   3.809   1.249 -0.8078 -0.2546 -0.5532
  272MOL0     C36589   1.102   3.846   1.238 -0.4073  0.6346 -0.2610
  272MOL0     C36590   1.010   3.748   1.273 -0.3537 -0.2305  0.3252
  272MOL0     C36591   0.872   3.779   1.248 -0.1394 -0.7555 -0.2694
  272MOL0     C36592   0.830   3.903   1.192  0.3130 -0.1607  0.1139
  272MOL0     O36593   0.687   3.928   1.189 -0.8430 -0.1268  0.0395
  272MOL0     C36594   0.641   4.065   1.163  0.7370  0.3568 -1.1340
  272MOL0     C36595   0.493   4.061   1.111 -0.1940  0.5660 -0.3982
  272MOL0     C36596   0.400   3.949   1.173 -0.3275 -0.3923  1.4293
  272MOL0     C36597   0.383   3.967   1.327  0.9492  0.6702  0.1663
  272MOL0     C36598   0.295   4.086   1.360  0.2338 -0.3712 -0.2295
  272MOL0     C36599   0.234   4.078   1.502 -0.3196  0.2510  0.2998
  272MOL0     C36600   0.128   4.201   1.508 -0.9628  0.0289  0.1801
  272MOL0     C36601   0.018   4.162   1.609  0.2506  0.1102  0.2925
  272MOL0     N36602  -0.077   4.276   1.617 -0.4685 -0.4867 -0.6637
  272MOL0     C36603  -0.102   4.364   1.728 -0.1566  0.1435  0.3066
  272MOL0     C36604  -0.217   4.434   1.694  0.4206  0.1803 -0.7548
  272MOL0     C36605  -0.283   4.537   1.785 -0.2153 -0.5397  0.2858
  272MOL0     C36606  -0.437   4.538   1.794  0.2770  0.2233 -0.0926
  272MOL0     C36607  -0.493   4.402   1.843  0.4344  0.3360  0.4748
  272MOL0     C36608  -0.639   4.413   1.872  1.1030 -0.8747  0.1939
  272MOL0     O36609  -0.726   4.428   1.757  0.2234 -0.0146  0.7739
  272MOL0     C36610  -0.864   4.431   1.761 -0.0449  0.4533  0.3272
  272MOL0     C36611  -0.940   4.423   1.874 -1.3122 -0.2144 -0.3617
  272MOL0     C36612  -1.080   4.418   1.865 -0.0723  0.3839  0.6557
  272MOL0     C36613  -1.148   4.406   2.008  0.0311  0.5838 -0.2695
  272MOL0     C36614  -1.148   4.419   1.743  0.5614  0.7636 -0.1243
  272MOL0     C36615  -1.297   4.417   1.746 -0.2536 -0.3186 -0.4055
  272MOL0     O36616  -1.343   4.508   1.841  0.1711  0.3335 -0.3051
  272MOL0     C36617  -1.477   4.531   1.847  1.6476  0.4214 -0.1164
  272MOL0     C36618  -1.523   4.575   1.974 -0.5029 -0.1821  0.0380
  272MOL0     C36619  -1.655   4.619   1.992 -0.1282  0.0644 -0.4551
  272MOL0     C36620  -1.746   4.603   1.895  0.0275  0.3200  0.4647
  272MOL0     O36621  -1.867   4.669   1.906  0.2795  0.0364 -0.9300
  272MOL0     C36622  -1.963   4.619   2.008  0.6950  0.5029  0.0974
  272MOL0     C36623  -2.035   4.729   2.082 -0.2829  0.0498  0.0212
  272MOL0     C36624  -2.100   4.836   1.994 -0.0032  0.5320 -0.3844
  272MOL0     C36625  -2.244   4.874   2.045 -0.4998 -0.1204 -0.1133
  272MOL0     C36626  -2.233   4.986   2.146  0.0691  0.2045 -0.2890
  272MOL0     C36627  -2.369   5.049   2.158 -0.4584  0.6151  0.6254
  272MOL0     C36628  -2.375   5.155   2.263  0.2842  0.9314 -0.6340
  272MOL0     C36629  -2.509   5.234   2.264  0.0211 -0.0947  0.0011
  272MOL0    Cl36630  -2.627   5.201   2.400 -0.3675  0.0547 -0.5014
  272MOL0     C36631  -1.707   4.558   1.765 -0.3775 -0.0676  0.0795
  272MOL0     C36632  -1.568   4.530   1.740 -0.7086 -0.3954  0.0009
  272MOL0     O36633  -1.364   4.343   1.684  0.7296  1.1211 -0.0536
  272MOL0     C36634  -1.072   4.428   1.627 -0.0550 -0.3407  0.0904
  272MOL0     C36635  -0.934   4.428   1.636 -0.4902 -0.5018 -0.1891
  272MOL0     N36636  -0.261   4.394   1.569  0.2039  0.4030 -0.5584
  272MOL0     N36637  -0.188   4.296   1.532 -0.2861 -0.2889 -0.2331
  272MOL0     C36638   0.927   4.000   1.162  0.0309  0.3189  0.0102
  272MOL0     C36639   1.059   3.965   1.175 -0.6008 -0.5622  0.8889
  272MOL0     C36640   1.456   3.842   1.351  0.1863  0.2749  0.6966
  272MOL0     C36641   1.533   3.891   1.445 -0.4741 -0.6793 -0.1460
  272MOL0     C36642   1.674   3.866   1.452  0.7157  0.2597 -0.0500
  272MOL0     C36643   1.732   3.783   1.357  0.3407  0.1038  0.1575
  272MOL0     O36644   1.869   3.762   1.369  0.1048 -0.3968 -0.0680
  272MOL0     C36645   1.942   3.698   1.259 -0.1569  0.0418 -0.2215
  272MOL0     C36646   2.039   3.807   1.207 -0.3883  0.5852  0.5187
  272MOL0     C36647   2.121   3.760   1.080  0.9208  0.0752  0.1291
  272MOL0     C36648   2.143   3.875   0.980  0.6565 -1.1980  0.0487
  272MOL0     C36649   2.217   3.832   0.861  0.2672 -0.1887  0.8505
  272MOL0     C36650   2.289   3.799   0.770 -0.4039 -0.2326 -0.5786
  272MOL0     C36651   1.651   3.731   1.255  0.4037  0.3937 -0.9942
  272MOL0     C36652   1.510   3.766   1.248  0.0251 -0.1164  0.1577
  272MOL0     H36653   1.049   3.656   1.315  1.9881  1.6119  2.4894
  272MOL0     H36654   0.801   3.699   1.269 -0.2644 -0.7123 -0.5305
  272MOL0     H36655   0.650   4.123   1.256 -1.1946 -1.3451  0.1983
  272MOL0     H36656   0.701   4.114   1.085 -0.2135  0.4362 -1.8277
  272MOL0     H36657   0.454   4.160   1.138  1.0849  0.5488  1.7531
  272MOL0     H36658   0.503   4.048   1.003 -1.2735 -2.9539 -0.2009
  272MOL0     H36659   0.306   3.950   1.118  1.1052 -3.1400 -1.3717
  272MOL0     H36660   0.443   3.851   1.153  1.2467  0.8406 -1.8640
  272MOL0     H36661   0.338   3.875   1.366  2.4771 -0.2644 -0.1968
  272MOL0     H36662   0.476   3.989   1.380  2.3973  0.2193 -2.0782
  272MOL0     H36663   0.354   4.177   1.348  0.6720 -0.6064  0.1175
  272MOL0     H36664   0.212   4.080   1.289 -0.5377 -0.2754  0.6459
  272MOL0     H36665   0.186   3.981   1.517  0.2082 -0.2147 -0.9469
  272MOL0     H36666   0.310   4.071   1.580  0.5628 -2.7761 -0.6983
  272MOL0     H36667   0.182   4.292   1.535  1.2406 -0.2676 -2.6434
  272MOL0     H36668   0.084   4.220   1.410  0.3960  1.0675 -0.2605
  272MOL0     H36669   0.066   4.143   1.705 -1.3158 -2.7625  0.6197
  272MOL0     H36670  -0.041   4.076   1.577  1.6644 -0.2781 -1.4097
  272MOL0     H36671  -0.046   4.383   1.819  0.1964 -0.1884  0.1670
  272MOL0     H36672  -0.241   4.519   1.884  1.4935 -2.0598 -0.6602
  272MOL0     H36673  -0.258   4.640   1.756 -3.2668 -0.3586 -2.2719
  272MOL0     H36674  -0.476   4.572   1.697  1.2128  0.1822 -0.4967
  272MOL0     H36675  -0.462   4.617   1.866  1.5271 -0.5001  1.1821
  272MOL0     H36676  -0.443   4.384   1.939 -1.2022  2.1659  1.7410
  272MOL0     H36677  -0.473   4.323   1.770  3.4708  0.4869  1.0231
  272MOL0     H36678  -0.653   4.507   1.927  0.6255 -1.6765  1.4776
  272MOL0     H36679  -0.673   4.340   1.946  1.3863  0.4900  1.7343
  272MOL0     H36680  -0.891   4.426   1.971 -1.3335 -4.0043 -0.0668
  272MOL0     H36681  -1.078   4.379   2.088  0.9653  1.5679 -0.7304
  272MOL0     H36682  -1.197   4.497   2.045  0.2841  0.8435 -0.5676
  272MOL0     H36683  -1.228   4.332   2.013  1.2003 -0.6498  1.7323
  272MOL0     H36684  -1.448   4.593   2.051  0.1225  0.5395 -0.7216
  272MOL0     H36685  -1.679   4.677   2.081 -0.6739 -0.4311 -0.2765
  272MOL0     H36686  -2.042   4.562   1.959  0.1523  2.3549 -1.3140
  272MOL0     H36687  -1.904   4.559   2.078 -0.2267  1.7501  1.9938
  272MOL0     H36688  -2.102   4.673   2.148  0.8998 -2.9619 -1.1424
  272MOL0     H36689  -1.962   4.783   2.143 -0.2029 -0.7539  0.6565
  272MOL0     H36690  -2.095   4.797   1.892  2.0233 -0.0682 -0.0949
  272MOL0     H36691  -2.046   4.931   1.997 -1.1557  1.3029 -2.0803
  272MOL0     H36692  -2.291   4.911   1.953 -1.4497 -0.1195  0.3622
  272MOL0     H36693  -2.309   4.796   2.086  1.5091 -1.8659 -0.1033
  272MOL0     H36694  -2.149   5.051   2.123 -0.1587 -0.3912 -3.1371
  272MOL0     H36695  -2.215   4.940   2.244 -0.0401 -1.9734 -1.2439
  272MOL0     H36696  -2.384   5.098   2.061 -0.5927 -0.1973  0.2209
  272MOL0     H36697  -2.449   4.974   2.160  0.8775 -0.8578  0.4274
  272MOL0     H36698  -2.283   5.213   2.271 -0.8016  2.5703  0.7001
  272MOL0     H36699  -2.366   5.097   2.356  0.5190  0.9398 -0.6497
  272MOL0     H36700  -2.558   5.196   2.174  1.8946 -1.2102 -0.6038
  272MOL0     H36701  -2.505   5.342   2.244 -2.1829 -0.1560 -1.0447
  272MOL0     H36702  -1.772   4.580   1.681  2.7653 -1.4606 -2.9606
  272MOL0     H36703  -1.524   4.501   1.645 -0.9735 -3.8376  0.7972
  272MOL0     H36704  -1.119   4.429   1.529  1.1845  1.9537 -0.5352
  272MOL0     H36705  -0.882   4.423   1.541 -3.2467  0.8078 -1.9193
  272MOL0     H36706   0.916   4.101   1.124 -2.7049  0.2095  0.3481
  272MOL0     H36707   1.133   4.038   1.144 -2.4601 -0.0626 -2.9362
  272MOL0     H36708   1.486   3.967   1.507  1.0159 -0.8008  1.2149
  272MOL0     H36709   1.730   3.906   1.537 -1.2271  1.6659  0.6566
  272MOL0     H36710   1.992   3.603   1.280 -1.0247 -1.1737 -3.1428
  272MOL0     H36711   1.881   3.673   1.171 -0.9035 -0.5385  0.4421
  272MOL0     H36712   2.115   3.820   1.284  0.3743  1.4633 -0.3530
  272MOL0     H36713   1.991   3.903   1.186 -0.7131  0.0461 -1.3966
  272MOL0     H36714   2.054   3.691   1.027  1.2265 -2.1538  2.4643
  272MOL0     H36715   2.218   3.720   1.111  0.8517  0.3395  0.6833
  272MOL0     H36716   2.183   3.966   1.026 -3.5357  1.9742 -1.9204
  272MOL0     H36717   2.048   3.920   0.948  1.3843  0.2650 -0.1583
  272MOL0     H36718   2.367   3.791   0.698  2.2518  1.8077  1.8370
  272MOL0     H36719   1.685   3.656   1.184 -1.5346 -0.5883 -0.9454
  272MOL0     H36720   1.447   3.724   1.170  0.4976  0.8143 -0.7615
  273MOL0     O36721   1.019   9.742  10.666 -0.7387 -0.0649  0.0115
  273MOL0     C36722   1.062   9.717  10.555  0.9098 -0.2537 -0.7780
  273MOL0     O36723   0.989   9.686  10.453 -0.0015 -0.2328  1.0951
  273MOL0     C36724   0.857   9.684  10.466  0.8012 -0.2366  0.5698
  273MOL0     C36725   0.784   9.566  10.476 -0.6004 -0.4682 -0.1991
  273MOL0     C36726   0.647   9.557  10.488 -0.2342 -0.2803 -0.4730
  273MOL0     C36727   0.571   9.679  10.486  0.4450  0.1523 -0.5316
  273MOL0     O36728   0.435   9.683  10.510 -0.5048 -0.4468 -0.1928
  273MOL0     C36729   0.359   9.564  10.523 -0.2614 -0.1488  0.0115
  273MOL0     C36730   0.212   9.602  10.512  0.6733 -0.0475  0.9090
  273MOL0     C36731   0.121   9.493  10.462 -0.6937 -0.4354  0.0471
  273MOL0     C36732   0.051   9.430  10.576  0.4510 -0.1665 -0.5876
  273MOL0     C36733  -0.106   9.458  10.580 -0.5642  0.3141 -0.2771
  273MOL0     C36734  -0.128   9.605  10.619 -0.0562  0.4104  0.0313
  273MOL0     C36735  -0.272   9.635  10.645  2.1748  0.3061 -0.1163
  273MOL0     C36736  -0.319   9.582  10.781 -0.1146  0.1581 -0.5653
  273MOL0     N36737  -0.454   9.532  10.763 -0.5655  0.2350 -0.9144
  273MOL0     C36738  -0.570   9.600  10.790  0.0209  0.1646  0.0646
  273MOL0     C36739  -0.666   9.515  10.754 -0.0729  0.3819 -0.7032
  273MOL0     C36740  -0.813   9.544  10.755  0.4871 -0.1841 -0.0633
  273MOL0     C36741  -0.911   9.426  10.742  0.0694 -0.5143  0.4487
  273MOL0     C36742  -1.051   9.482  10.766  0.2286 -1.0365  0.0536
  273MOL0     C36743  -1.157   9.380  10.725 -0.0232  0.2200  0.7149
  273MOL0     O36744  -1.289   9.430  10.756 -0.5310  0.4106 -0.9816
  273MOL0     C36745  -1.399   9.345  10.741 -0.2607  0.4523  0.3820
  273MOL0     C36746  -1.399   9.222  10.681  0.1923  0.3904  0.9032
  273MOL0     C36747  -1.516   9.155  10.648  1.0114  0.3594  0.2352
  273MOL0     C36748  -1.497   9.025  10.569  0.7350 -0.1916 -0.4913
  273MOL0     C36749  -1.648   9.207  10.681 -0.0515 -0.9806 -0.1354
  273MOL0     C36750  -1.777   9.152  10.625  0.7974 -1.1059 -0.0146
  273MOL0     O36751  -1.883   9.232  10.658  0.0766  0.4686  0.0459
  273MOL0     C36752  -2.009   9.196  10.624 -0.1280  0.2689 -0.0630
  273MOL0     C36753  -2.051   9.166  10.491  0.3561 -0.4067 -0.5718
  273MOL0     C36754  -2.187   9.140  10.464 -0.2399 -1.0130 -0.0090
  273MOL0     C36755  -2.283   9.147  10.566  0.4301 -0.2779  0.2505
  273MOL0     O36756  -2.418   9.140  10.526 -0.5675  0.4361  0.4535
  273MOL0     C36757  -2.524   9.094  10.617 -0.3319 -0.2934  0.5543
  273MOL0     C36758  -2.660   9.132  10.559 -0.0429 -0.0541  0.2122
  273MOL0     C36759  -2.779   9.069  10.636 -0.0883  0.8196 -0.3574
  273MOL0     C36760  -2.919   9.119  10.587 -0.4075 -0.1770 -0.0073
  273MOL0     C36761  -3.022   9.016  10.633  0.5420 -0.3592 -0.2983
  273MOL0     C36762  -3.166   9.055  10.597 -0.3410 -0.4628 -0.5923
  273MOL0     C36763  -3.255   8.941  10.645 -0.1175  0.4136  0.1461
  273MOL0     C36764  -3.399   8.990  10.650 -0.0684 -0.0174 -1.5713
  273MOL0    Cl36765  -3.444   9.113  10.760  0.4758  0.2837 -0.0232
  273MOL0     C36766  -2.237   9.185  10.689 -0.1459 -0.5133 -0.1786
  273MOL0     C36767  -2.109   9.222  10.719  0.0141 -0.2228  0.6994
  273MOL0     O36768  -1.785   9.047  10.565 -0.0203 -0.5804 -0.0011
  273MOL0     C36769  -1.642   9.327  10.758 -0.0806  0.2020 -0.2086
  273MOL0     C36770  -1.521   9.395  10.783  0.5706  0.3427  0.2494
  273MOL0     N36771  -0.610   9.391  10.725 -0.5359 -0.2699 -0.5021
  273MOL0     N36772  -0.483   9.405  10.737 -0.3023 -0.0398  0.7508
  273MOL0     C36773   0.637   9.800  10.464  0.1283  0.0316  0.2496
  273MOL0     C36774   0.779   9.799  10.459 -0.3995 -0.7617  0.2412
  273MOL0     C36775   1.207   9.710  10.531 -0.1459 -0.6665  0.0330
  273MOL0     C36776   1.262   9.613  10.454 -0.5033 -0.1960 -0.0750
  273MOL0     C36777   1.401   9.609  10.436 -0.7776  0.8456 -0.8772
  273MOL0     C36778   1.487   9.693  10.494  0.4204  0.2270 -0.5833
  273MOL0     O36779   1.616   9.672  10.457  0.1919  0.1069  0.1960
  273MOL0     C36780   1.723   9.755  10.512 -0.0901  0.0696  0.3710
  273MOL0     C36781   1.737   9.887  10.427  0.3891 -0.3808 -0.4675
  273MOL0     C36782   1.884   9.933  10.419  0.0047 -0.1740  0.6119
  273MOL0     C36783   1.905  10.047  10.322  1.1252 -1.2240  1.0278
  273MOL0     C36784   2.030  10.122  10.343  0.5039 -0.3531  0.6686
  273MOL0     C36785   2.128  10.196  10.334 -0.5794  0.2315  0.8053
  273MOL0     C36786   1.432   9.798  10.567 -0.2724 -0.4277  0.1356
  273MOL0     C36787   1.290   9.809  10.587  0.4191 -0.4635  0.1670
  273MOL0     H36788   0.839   9.473  10.474 -1.8297 -1.2305  0.2516
  273MOL0     H36789   0.608   9.458  10.511  2.6337 -1.7956 -1.6127
  273MOL0     H36790   0.378   9.485  10.450  0.2355  0.3258 -0.3871
  273MOL0     H36791   0.377   9.514  10.619 -1.1109 -0.6796 -0.0973
  273MOL0     H36792   0.179   9.651  10.604  0.3698  1.7767 -0.1384
  273MOL0     H36793   0.203   9.680  10.437  2.1463  0.5774  1.3489
  273MOL0     H36794   0.045   9.532  10.393  1.1264 -0.7740 -2.2922
  273MOL0     H36795   0.183   9.419  10.410  0.0676  0.7716 -0.8029
  273MOL0     H36796   0.064   9.322  10.568 -1.9766 -0.9322  3.1787
  273MOL0     H36797   0.092   9.469  10.670 -1.6181  3.5738 -1.0141
  273MOL0     H36798  -0.151   9.444  10.481 -2.1246  1.7472  0.1958
  273MOL0     H36799  -0.155   9.391  10.651 -0.0925  0.1862 -0.0689
  273MOL0     H36800  -0.073   9.623  10.712 -1.6675 -1.3695  1.4146
  273MOL0     H36801  -0.090   9.674  10.544  3.0534 -2.0397 -0.8532
  273MOL0     H36802  -0.269   9.742  10.663  1.9097  0.3359 -0.2462
  273MOL0     H36803  -0.336   9.599  10.564  0.4848  1.9767  0.4063
  273MOL0     H36804  -0.306   9.659  10.856  0.2732  0.7407 -1.2205
  273MOL0     H36805  -0.248   9.503  10.808 -0.9827 -0.5034 -0.1397
  273MOL0     H36806  -0.580   9.704  10.820 -1.2046 -0.0067  0.2754
  273MOL0     H36807  -0.834   9.582  10.855  1.0073 -0.0308 -0.0061
  273MOL0     H36808  -0.838   9.621  10.681 -1.2019 -0.8234 -0.1872
  273MOL0     H36809  -0.894   9.346  10.815 -0.0324 -1.2093 -0.2711
  273MOL0     H36810  -0.897   9.368  10.650  0.6765  0.5413 -0.1465
  273MOL0     H36811  -1.070   9.572  10.707  0.6159  0.3544  1.9532
  273MOL0     H36812  -1.065   9.505  10.872 -3.5445 -0.6330 -0.4266
  273MOL0     H36813  -1.141   9.280  10.768  0.6730  0.2764  0.5927
  273MOL0     H36814  -1.153   9.376  10.616 -0.3377 -2.3931  0.7161
  273MOL0     H36815  -1.310   9.178  10.636  1.0161 -0.7689  3.4611
  273MOL0     H36816  -1.393   9.009  10.537  0.6117  0.3969 -1.2202
  273MOL0     H36817  -1.523   8.932  10.620  1.2265  1.1055  2.3244
  273MOL0     H36818  -1.553   9.032  10.475 -1.7965 -0.8708  0.8642
  273MOL0     H36819  -1.979   9.169  10.409  1.3397 -0.1238  0.2728
  273MOL0     H36820  -2.226   9.127  10.364 -0.9693  1.3686 -0.0969
  273MOL0     H36821  -2.522   8.986  10.636 -1.8829 -0.6547 -1.1029
  273MOL0     H36822  -2.516   9.145  10.714 -0.9605 -0.2642  0.5914
  273MOL0     H36823  -2.671   9.241  10.555  2.3621  0.2435  0.1658
  273MOL0     H36824  -2.667   9.101  10.455 -0.5659  4.2065 -1.2443
  273MOL0     H36825  -2.763   9.089  10.743  0.1729 -3.6233  0.6375
  273MOL0     H36826  -2.779   8.959  10.632 -0.3296  0.5973  2.7527
  273MOL0     H36827  -2.933   9.220  10.626  1.9388  0.7108 -1.2342
  273MOL0     H36828  -2.920   9.131  10.479  2.2978 -2.3222 -0.3981
  273MOL0     H36829  -3.014   8.996  10.741 -0.6520  0.9490  0.0583
  273MOL0     H36830  -2.992   8.925  10.581  0.8352 -0.5226  0.1532
  273MOL0     H36831  -3.187   9.155  10.637 -2.1795 -1.2177  0.4325
  273MOL0     H36832  -3.178   9.060  10.488  2.3725  2.6735 -0.9096
  273MOL0     H36833  -3.233   8.907  10.747 -3.1239 -1.1972  0.3713
  273MOL0     H36834  -3.247   8.850  10.585 -1.5629  0.2044  0.2255
  273MOL0     H36835  -3.455   8.898  10.669 -0.0783  0.4906  1.4686
  273MOL0     H36836  -3.422   9.041  10.557  0.2138  0.4520 -1.3915
  273MOL0     H36837  -2.311   9.209  10.765 -0.4885 -1.1289 -0.3141
  273MOL0     H36838  -2.082   9.247  10.821 -1.7436  1.2870  0.8399
  273MOL0     H36839  -1.733   9.374  10.793  0.3956  2.7318 -2.0646
  273MOL0     H36840  -1.507   9.489  10.836  2.7485 -0.2786  0.9013
  273MOL0     H36841   0.583   9.894  10.464 -2.2736 -1.2778  1.6991
  273MOL0     H36842   0.825   9.896  10.446 -0.7065 -0.7900 -1.2292
  273MOL0     H36843   1.200   9.543  10.399 -0.6068  0.7641 -1.2200
  273MOL0     H36844   1.436   9.530  10.371  1.3005  1.2007 -0.2445
  273MOL0     H36845   1.714   9.766  10.620  0.7855 -1.1309  0.5913
  273MOL0     H36846   1.809   9.688  10.504  1.1796  1.5939  0.8487
  273MOL0     H36847   1.682   9.963  10.484  2.4157  0.4267  0.4998
  273MOL0     H36848   1.697   9.865  10.327 -2.7556 -0.5437  0.7120
  273MOL0     H36849   1.942   9.848  10.382  0.6986  1.7895 -3.3177
  273MOL0     H36850   1.926   9.958  10.517  1.3949  1.6227 -0.3794
  273MOL0     H36851   1.816  10.107  10.344 -0.1344 -2.4299 -0.5981
  273MOL0     H36852   1.886  10.013  10.220  3.9861 -1.3317  0.4218
  273MOL0     H36853   2.209  10.266  10.333  0.8340 -1.3408 -0.1438
  273MOL0     H36854   1.506   9.868  10.606 -1.5050  0.9160  0.1534
  273MOL0     H36855   1.247   9.896  10.634  1.5617  1.7281 -2.5391
  274MOL0     O36856   2.829   7.371   8.028 -0.8928  0.2168 -0.0877
  274MOL0     C36857   2.882   7.261   8.048 -0.7265 -0.2348 -0.8469
  274MOL0     O36858   2.822   7.139   8.055 -0.1636  0.1540 -0.7523
  274MOL0     C36859   2.690   7.128   8.011 -0.2285  0.3396 -0.2857
  274MOL0     C36860   2.613   7.018   8.061 -0.4652  0.2971 -0.0137
  274MOL0     C36861   2.489   6.981   8.009  0.6365  0.1489 -0.4627
  274MOL0     C36862   2.434   7.057   7.908 -0.1792 -0.4559  0.1265
  274MOL0     O36863   2.309   7.052   7.846 -0.4501  0.2359 -0.4628
  274MOL0     C36864   2.222   6.950   7.894  0.5768 -0.2166  0.2933
  274MOL0     C36865   2.091   6.982   7.815 -0.3834 -0.5023  0.4894
  274MOL0     C36866   1.982   6.913   7.890 -0.4009 -0.9538  0.0861
  274MOL0     C36867   1.849   6.940   7.811  0.4329  0.4099  0.4711
  274MOL0     C36868   1.727   6.901   7.907 -0.3864 -0.9458 -0.5918
  274MOL0     C36869   1.606   6.911   7.819 -0.2094 -0.3903 -0.2054
  274MOL0     C36870   1.479   6.874   7.889 -0.3322 -0.4967  0.1047
  274MOL0     C36871   1.362   6.854   7.796 -0.0197  0.7769 -0.0863
  274MOL0     N36872   1.233   6.833   7.869  0.1065 -0.4718 -0.1647
  274MOL0     C36873   1.111   6.879   7.826  0.6088  0.2852 -0.2502
  274MOL0     C36874   1.021   6.828   7.923 -1.0540 -0.4253  0.6340
  274MOL0     C36875   0.870   6.835   7.929 -1.4001 -0.3127 -0.2896
  274MOL0     C36876   0.794   6.784   7.807  0.0129  0.2175  0.3222
  274MOL0     C36877   0.841   6.642   7.760 -0.3051  0.5058 -0.2195
  274MOL0     C36878   0.791   6.536   7.856 -0.4244 -0.9452 -0.5338
  274MOL0     O36879   0.774   6.407   7.804 -0.2848 -0.9761 -0.1288
  274MOL0     C36880   0.652   6.353   7.778  0.6079  0.4206  0.1887
  274MOL0     C36881   0.526   6.417   7.806  0.5811 -1.1335  0.3200
  274MOL0     C36882   0.402   6.366   7.748 -0.5724  1.4933 -0.2552
  274MOL0     C36883   0.281   6.450   7.780  0.0077  0.0033  0.5243
  274MOL0     C36884   0.404   6.237   7.696 -0.6145  0.1072 -0.4182
  274MOL0     C36885   0.284   6.166   7.647 -1.2124 -0.3543  0.8684
  274MOL0     O36886   0.177   6.179   7.721  0.9211 -0.5501 -0.2087
  274MOL0     C36887   0.062   6.105   7.713 -1.1836 -0.1195 -0.3862
  274MOL0     C36888   0.067   5.961   7.711  0.0052 -0.3050  1.3201
  274MOL0     C36889  -0.052   5.892   7.701 -0.1015  0.2533 -0.1182
  274MOL0     C36890  -0.179   5.957   7.708  0.0591  0.1985 -0.0106
  274MOL0     O36891  -0.297   5.886   7.684  0.5788  0.3712  0.2165
  274MOL0     C36892  -0.424   5.935   7.729 -0.9054 -0.2503  0.3608
  274MOL0     C36893  -0.516   5.817   7.694 -0.2565 -0.3488 -0.2808
  274MOL0     C36894  -0.663   5.828   7.725  0.5884 -0.0671  0.5111
  274MOL0     C36895  -0.734   5.695   7.743 -0.5559  0.7270 -0.5276
  274MOL0     C36896  -0.879   5.709   7.693 -0.3984  0.1453 -0.1196
  274MOL0     C36897  -0.944   5.576   7.709  0.0908  0.0858  0.1569
  274MOL0     C36898  -1.087   5.578   7.662  0.2075 -0.2205  0.0778
  274MOL0     C36899  -1.152   5.436   7.685 -0.4819 -0.0512 -0.2934
  274MOL0    Cl36900  -1.156   5.387   7.862 -0.0326 -0.6959  0.2900
  274MOL0     C36901  -0.183   6.098   7.720 -0.3933 -0.9037  0.0160
  274MOL0     C36902  -0.063   6.175   7.714 -0.0890  0.4172 -0.1066
  274MOL0     O36903   0.293   6.092   7.546  0.1682  0.4305  0.2686
  274MOL0     C36904   0.525   6.168   7.683  0.3074  0.4733  0.8877
  274MOL0     C36905   0.647   6.229   7.720 -0.4567  0.2679  0.2269
  274MOL0     N36906   1.091   6.747   8.006 -0.7059 -0.4658 -0.1927
  274MOL0     N36907   1.215   6.736   7.961 -0.4405 -0.1386 -0.2858
  274MOL0     C36908   2.502   7.163   7.851 -0.1051  0.7453  0.1773
  274MOL0     C36909   2.626   7.206   7.908 -0.3299 -0.6338 -0.0857
  274MOL0     C36910   3.029   7.242   8.058 -0.5512  0.3866  0.7436
  274MOL0     C36911   3.104   7.295   7.951  0.8369 -0.1083 -0.0074
  274MOL0     C36912   3.241   7.293   7.959  0.1620  0.2771  0.0536
  274MOL0     C36913   3.308   7.245   8.066 -0.3399  0.1706  0.2563
  274MOL0     O36914   3.446   7.263   8.071 -0.3013 -0.2520 -0.1060
  274MOL0     C36915   3.525   7.176   8.153 -0.1009  0.3887  0.3577
  274MOL0     C36916   3.662   7.168   8.086  0.9831  1.1811  0.6006
  274MOL0     C36917   3.757   7.073   8.160 -0.2088  1.3809  1.1290
  274MOL0     C36918   3.765   7.106   8.308 -0.8017 -0.4242  0.1905
  274MOL0     C36919   3.836   7.226   8.338  0.6246 -1.6465 -0.8883
  274MOL0     C36920   3.905   7.326   8.361 -0.3962  0.4895 -0.7411
  274MOL0     C36921   3.239   7.182   8.167  0.7511  0.0637 -0.2797
  274MOL0     C36922   3.098   7.173   8.162 -0.2453 -0.7294 -0.3387
  274MOL0     H36923   2.658   6.947   8.129 -0.6747 -1.5118 -1.6466
  274MOL0     H36924   2.439   6.895   8.053 -0.9585  0.9193 -0.6910
  274MOL0     H36925   2.245   6.846   7.872 -2.3320 -1.5536  2.9098
  274MOL0     H36926   2.204   6.969   8.000 -2.6323 -2.9779  0.3929
  274MOL0     H36927   2.081   7.089   7.833  0.6489 -0.3241  0.0590
  274MOL0     H36928   2.110   6.954   7.711  0.7881 -2.9303  1.2730
  274MOL0     H36929   2.003   6.806   7.892  3.1275 -0.4058  1.8293
  274MOL0     H36930   1.971   6.953   7.992  2.5555 -1.3300  0.6570
  274MOL0     H36931   1.837   7.044   7.780  3.8496  0.7236 -0.1945
  274MOL0     H36932   1.861   6.882   7.719  2.6533  1.9375 -0.2777
  274MOL0     H36933   1.736   6.797   7.943 -0.0186 -1.0847 -1.0753
  274MOL0     H36934   1.727   6.980   7.983 -0.6025 -0.1604 -1.4048
  274MOL0     H36935   1.598   7.017   7.791  0.2265 -0.4850 -0.7191
  274MOL0     H36936   1.622   6.856   7.725  1.0160 -0.2660 -0.0903
  274MOL0     H36937   1.492   6.794   7.962 -0.0148 -0.9887 -0.4782
  274MOL0     H36938   1.447   6.961   7.948  0.8591 -2.6083  4.2559
  274MOL0     H36939   1.372   6.774   7.722 -0.6045  1.0854 -0.5119
  274MOL0     H36940   1.350   6.948   7.742 -1.5493  1.1799  0.8697
  274MOL0     H36941   1.071   6.938   7.744 -1.6323 -0.6425  0.1076
  274MOL0     H36942   0.844   6.772   8.016 -0.5038  0.6354  0.6881
  274MOL0     H36943   0.846   6.940   7.948 -0.6742 -0.1105 -0.4644
  274MOL0     H36944   0.813   6.852   7.723 -0.9187 -1.1274 -1.0310
  274MOL0     H36945   0.689   6.787   7.837  0.0214  0.0346  0.3666
  274MOL0     H36946   0.950   6.637   7.756 -0.2992  0.1799  0.2866
  274MOL0     H36947   0.804   6.636   7.658 -1.9849 -2.1791  0.4632
  274MOL0     H36948   0.701   6.572   7.908  0.3275 -0.1882  0.2678
  274MOL0     H36949   0.864   6.525   7.936  2.2143 -2.5592 -2.9606
  274MOL0     H36950   0.530   6.523   7.828  2.3492 -0.8785 -1.0511
  274MOL0     H36951   0.272   6.517   7.694  2.3772  1.2520  1.1700
  274MOL0     H36952   0.190   6.390   7.791  0.9207 -1.5155  0.1437
  274MOL0     H36953   0.288   6.505   7.874 -1.4522  1.1709 -0.0082
  274MOL0     H36954   0.166   5.915   7.709  0.8549  1.4813 -0.8236
  274MOL0     H36955  -0.051   5.784   7.685  0.0772  0.0571  1.1231
  274MOL0     H36956  -0.426   5.960   7.836  0.0815 -0.7259  0.5076
  274MOL0     H36957  -0.458   6.028   7.683 -0.8666  0.1786  1.1854
  274MOL0     H36958  -0.503   5.782   7.591 -2.9787 -2.5085 -0.0235
  274MOL0     H36959  -0.473   5.733   7.750  0.0344 -0.2439 -0.3464
  274MOL0     H36960  -0.716   5.889   7.651  0.4148  0.6637  1.2211
  274MOL0     H36961  -0.684   5.878   7.820  2.2671  2.4937 -0.3346
  274MOL0     H36962  -0.684   5.613   7.692 -1.1953  0.5966 -0.9542
  274MOL0     H36963  -0.743   5.665   7.848 -2.7793  0.6516 -0.7004
  274MOL0     H36964  -0.878   5.730   7.586  1.4649  1.0160  0.0422
  274MOL0     H36965  -0.941   5.778   7.751 -1.5258 -2.7561  2.3988
  274MOL0     H36966  -0.882   5.493   7.673  2.8243 -0.0494  4.3865
  274MOL0     H36967  -0.952   5.549   7.815 -0.6635 -0.9157 -0.1410
  274MOL0     H36968  -1.084   5.597   7.555  2.9409  0.6880  0.2354
  274MOL0     H36969  -1.158   5.651   7.704 -1.6336 -0.2054 -2.8190
  274MOL0     H36970  -1.095   5.355   7.639 -2.9396 -2.3780  0.4956
  274MOL0     H36971  -1.250   5.421   7.639 -0.8209 -0.9229  0.6749
  274MOL0     H36972  -0.276   6.154   7.715  1.0793  1.6778 -0.7461
  274MOL0     H36973  -0.069   6.283   7.709 -0.2292  0.3886 -0.6522
  274MOL0     H36974   0.534   6.071   7.634  1.7499  1.2271 -0.4306
  274MOL0     H36975   0.746   6.184   7.716 -0.8080 -0.7915  2.1788
  274MOL0     H36976   2.450   7.215   7.771 -0.0594  1.2619  0.4742
  274MOL0     H36977   2.684   7.282   7.856  0.9426  0.0911  2.2789
  274MOL0     H36978   3.047   7.351   7.877 -0.0627 -1.1791 -0.1406
  274MOL0     H36979   3.307   7.334   7.883 -1.7710  1.0556 -1.2797
  274MOL0     H36980   3.531   7.229   8.248  0.4046  1.5077 -0.2850
  274MOL0     H36981   3.483   7.075   8.158  0.8897 -0.0545  0.0851
  274MOL0     H36982   3.709   7.267   8.086  1.0302  1.1761 -0.9880
  274MOL0     H36983   3.653   7.131   7.983 -2.7994 -1.2408  1.5915
  274MOL0     H36984   3.856   7.071   8.114 -0.2550 -0.7452  1.0302
  274MOL0     H36985   3.721   6.969   8.160 -0.6545  1.5228  0.2565
  274MOL0     H36986   3.813   7.023   8.360  0.5708  0.1749 -0.0690
  274MOL0     H36987   3.667   7.122   8.355  0.3137 -1.1129  2.9209
  274MOL0     H36988   3.979   7.403   8.363 -1.4367  1.5886 -2.0180
  274MOL0     H36989   3.278   7.174   8.268 -2.3657  1.0875  1.1173
  274MOL0     H36990   3.064   7.127   8.255  1.0501  0.1620  0.6039
  275MOL0     O36991   2.722   8.004   7.571  0.0714 -0.0117 -0.5070
  275MOL0     C36992   2.712   8.108   7.500  0.0173 -0.2869 -0.0491
  275MOL0     O36993   2.595   8.160   7.446 -0.0155  0.3584 -0.2413
  275MOL0     C36994   2.472   8.136   7.503  0.0495  0.6488 -0.1594
  275MOL0     C36995   2.443   8.082   7.626  0.2201  0.5976 -0.4602
  275MOL0     C36996   2.311   8.051   7.661  0.5312  0.2104 -0.5271
  275MOL0     C36997   2.206   8.047   7.564  0.0254 -0.3630 -0.6679
  275MOL0     O36998   2.084   8.001   7.577  0.1707 -0.4667 -0.3369
  275MOL0     C36999   2.052   7.914   7.690  0.3147 -0.3409  0.4574
  275MOL0     C37000   1.916   7.861   7.654 -0.3362  0.4560 -1.1714
  275MOL0     C37001   1.877   7.744   7.745 -0.5349 -0.0131  0.0260
  275MOL0     C37002   1.858   7.787   7.893 -0.0211  0.3325  0.3073
  275MOL0     C37003   1.805   7.666   7.984 -0.4699  0.1228 -0.6304
  275MOL0     C37004   1.818   7.692   8.132  0.6788 -0.1585 -0.3656
  275MOL0     C37005   1.716   7.626   8.228  0.2155 -0.2886 -0.9524
  275MOL0     C37006   1.586   7.708   8.232 -0.5878  0.1128  0.2183
  275MOL0     N37007   1.468   7.641   8.284  0.0643  0.3601  0.2670
  275MOL0     C37008   1.388   7.561   8.204 -0.1276 -0.9451  0.3994
  275MOL0     C37009   1.289   7.533   8.293 -0.8884  0.2672  0.3530
  275MOL0     C37010   1.176   7.455   8.246  0.6243  0.0303 -0.3494
  275MOL0     C37011   1.112   7.381   8.369  0.7250 -0.6480  0.2330
  275MOL0     C37012   1.007   7.478   8.430 -0.3553  0.4575  0.3116
  275MOL0     C37013   0.987   7.468   8.582 -0.1586  0.2772 -0.8577
  275MOL0     O37014   0.933   7.340   8.617  0.3038  0.0190  0.2401
  275MOL0     C37015   0.802   7.319   8.611  0.3306 -0.7184  0.4635
  275MOL0     C37016   0.701   7.410   8.636 -0.6202 -0.6751 -0.2132
  275MOL0     C37017   0.559   7.382   8.635  0.1959  0.4108 -0.0843
  275MOL0     C37018   0.467   7.496   8.668  0.1321  0.0606  0.9149
  275MOL0     C37019   0.518   7.249   8.609 -0.9918  0.5681 -0.4537
  275MOL0     C37020   0.372   7.203   8.606  0.5947 -0.5241 -1.0865
  275MOL0     O37021   0.364   7.068   8.613  0.1888 -0.4787  0.2546
  275MOL0     C37022   0.246   6.991   8.619  0.6100 -0.0532 -0.1224
  275MOL0     C37023   0.121   7.035   8.661  0.2463  0.3362 -1.1222
  275MOL0     C37024   0.010   6.947   8.634 -0.1108  0.1236 -0.0348
  275MOL0     C37025   0.023   6.826   8.558 -0.7205 -0.9068  0.3930
  275MOL0     O37026  -0.085   6.747   8.526 -0.1535 -0.1161  0.2336
  275MOL0     C37027  -0.175   6.808   8.437  0.0349  0.8368 -0.5299
  275MOL0     C37028  -0.300   6.710   8.418 -0.4187 -0.9883  0.2430
  275MOL0     C37029  -0.398   6.785   8.322  0.5223 -0.4841 -0.3996
  275MOL0     C37030  -0.538   6.722   8.317 -0.4343 -1.0502 -0.4710
  275MOL0     C37031  -0.613   6.711   8.452  0.8340  0.4560 -0.4611
  275MOL0     C37032  -0.744   6.640   8.445  0.0054  0.0690  0.2844
  275MOL0     C37033  -0.731   6.506   8.365 -0.4983 -0.3599 -0.2922
  275MOL0     C37034  -0.852   6.409   8.385  0.7466  0.7669  0.8295
  275MOL0    Cl37035  -0.835   6.254   8.287 -0.0253  0.3005 -0.2665
  275MOL0     C37036   0.146   6.789   8.515  0.2185  0.2727 -0.5401
  275MOL0     C37037   0.257   6.873   8.543 -0.2352  1.1336 -0.4105
  275MOL0     O37038   0.276   7.282   8.597  0.1302  0.2847  0.6454
  275MOL0     C37039   0.618   7.158   8.596  0.0635  0.2125 -0.1121
  275MOL0     C37040   0.754   7.193   8.588 -0.3431  0.2232  0.6418
  275MOL0     N37041   1.309   7.597   8.412 -0.0037  0.1686  0.3800
  275MOL0     N37042   1.423   7.660   8.412  0.4971  0.7364  0.5981
  275MOL0     C37043   2.231   8.111   7.445 -0.4907  0.4704  0.4699
  275MOL0     C37044   2.367   8.151   7.418 -0.1612 -0.3406 -0.4141
  275MOL0     C37045   2.835   8.180   7.472 -0.5558  0.1122 -0.4486
  275MOL0     C37046   2.843   8.259   7.362  0.9492 -0.6994  0.3489
  275MOL0     C37047   2.964   8.320   7.331  0.0459 -0.3473  0.7261
  275MOL0     C37048   3.083   8.293   7.402 -0.0795 -0.1259  0.1101
  275MOL0     O37049   3.195   8.360   7.362 -0.0235 -0.2647  0.2326
  275MOL0     C37050   3.320   8.346   7.425 -0.2238 -0.3377  0.0613
  275MOL0     C37051   3.428   8.420   7.354  0.2227 -0.2873 -0.2172
  275MOL0     C37052   3.559   8.409   7.423 -0.0439 -0.0713 -0.1033
  275MOL0     C37053   3.555   8.481   7.560  0.9352 -0.1359  0.6434
  275MOL0     C37054   3.698   8.500   7.607 -0.0760 -0.3368  0.2728
  275MOL0     C37055   3.811   8.504   7.649 -0.5160  0.3797  0.5029
  275MOL0     C37056   3.077   8.200   7.505 -0.0705  0.3287 -0.1636
  275MOL0     C37057   2.950   8.149   7.538  0.0341  0.3161 -0.4766
  275MOL0     H37058   2.522   8.061   7.697  0.5324  1.0021 -0.6854
  275MOL0     H37059   2.290   8.018   7.762  2.0895 -0.7391 -0.4812
  275MOL0     H37060   2.126   7.833   7.691 -0.0957 -0.7212  0.3723
  275MOL0     H37061   2.049   7.965   7.786  1.5475  0.0516  0.3031
  275MOL0     H37062   1.844   7.944   7.658 -0.4155  0.4248 -1.8601
  275MOL0     H37063   1.910   7.812   7.557  1.5704  1.1557 -1.6822
  275MOL0     H37064   1.786   7.698   7.705 -0.9521  1.7549 -1.1779
  275MOL0     H37065   1.957   7.669   7.744 -1.1061 -0.6364 -1.8461
  275MOL0     H37066   1.949   7.821   7.942  0.6428 -0.3344 -0.4362
  275MOL0     H37067   1.779   7.862   7.901  1.6134  1.9379  2.1167
  275MOL0     H37068   1.709   7.621   7.957 -0.3662 -0.9331  0.6377
  275MOL0     H37069   1.874   7.582   7.969  1.0874  1.1129  0.6419
  275MOL0     H37070   1.918   7.654   8.154 -0.4553 -1.7136  2.6754
  275MOL0     H37071   1.826   7.798   8.158  0.1228 -0.9548  3.8851
  275MOL0     H37072   1.702   7.522   8.194  1.3491 -1.4175  1.7687
  275MOL0     H37073   1.748   7.618   8.332 -1.4781 -0.7311 -0.4416
  275MOL0     H37074   1.571   7.746   8.130  0.7486  0.0355 -0.0198
  275MOL0     H37075   1.607   7.794   8.296 -0.0726  0.7352 -0.7562
  275MOL0     H37076   1.408   7.536   8.100  1.5626 -0.5076  0.5913
  275MOL0     H37077   1.107   7.522   8.195 -0.4683 -0.0465  0.9606
  275MOL0     H37078   1.203   7.370   8.184 -0.8428  0.7297 -2.0061
  275MOL0     H37079   1.191   7.348   8.437  2.8640 -0.6363 -2.0904
  275MOL0     H37080   1.047   7.299   8.337 -0.4333  0.1398  0.5079
  275MOL0     H37081   0.909   7.463   8.385  0.2725 -1.6160 -0.4912
  275MOL0     H37082   1.042   7.581   8.416 -0.8775  0.6724  0.5550
  275MOL0     H37083   0.924   7.551   8.615  0.8518  0.0508  1.8949
  275MOL0     H37084   1.078   7.486   8.640  0.0138 -1.1978 -0.6367
  275MOL0     H37085   0.730   7.511   8.666  3.2235 -1.4676 -0.6691
  275MOL0     H37086   0.406   7.468   8.755 -0.3842 -0.9899  0.2375
  275MOL0     H37087   0.523   7.589   8.677  0.8766  0.2841 -3.7381
  275MOL0     H37088   0.395   7.516   8.588  2.0864  1.2567 -0.6387
  275MOL0     H37089   0.098   7.127   8.714  0.8873 -1.4196  2.5279
  275MOL0     H37090  -0.091   6.973   8.663 -0.4920  2.9173 -3.2566
  275MOL0     H37091  -0.210   6.907   8.468 -0.5080  0.3901  0.2993
  275MOL0     H37092  -0.127   6.804   8.338  1.3686 -4.8712 -0.0161
  275MOL0     H37093  -0.285   6.610   8.376  0.1524 -1.5476  1.6793
  275MOL0     H37094  -0.341   6.692   8.518  1.8099 -0.4042  1.3342
  275MOL0     H37095  -0.369   6.791   8.216 -1.4622  2.1238 -0.9074
  275MOL0     H37096  -0.402   6.890   8.352  1.2390 -0.3181 -0.8588
  275MOL0     H37097  -0.612   6.776   8.257 -0.9035 -1.5177 -0.3224
  275MOL0     H37098  -0.532   6.623   8.272  1.1652 -0.5356 -1.4711
  275MOL0     H37099  -0.619   6.807   8.505  0.9618 -0.2422  0.8651
  275MOL0     H37100  -0.568   6.646   8.528 -1.4553 -0.4130  0.2422
  275MOL0     H37101  -0.776   6.617   8.547 -2.0443 -1.2478 -0.6038
  275MOL0     H37102  -0.821   6.706   8.403  0.0782  2.1537  3.1517
  275MOL0     H37103  -0.646   6.460   8.417 -0.1831  2.6262  2.0779
  275MOL0     H37104  -0.715   6.518   8.258 -0.1200  1.1375 -0.0840
  275MOL0     H37105  -0.946   6.458   8.359  0.6675 -0.2888 -1.0492
  275MOL0     H37106  -0.860   6.383   8.491  2.3056 -0.4815  0.6759
  275MOL0     H37107   0.139   6.693   8.464 -4.0575  0.3359 -0.4489
  275MOL0     H37108   0.354   6.837   8.510  0.2235 -0.3380  2.2773
  275MOL0     H37109   0.600   7.052   8.581 -2.7653  0.8283 -1.9628
  275MOL0     H37110   0.821   7.107   8.590 -1.5204 -0.7006  1.5006
  275MOL0     H37111   2.155   8.131   7.371  0.7148  0.0325 -0.9228
  275MOL0     H37112   2.392   8.197   7.323 -2.0711  1.0261 -0.3162
  275MOL0     H37113   2.756   8.279   7.300  2.5427  0.9440 -1.4661
  275MOL0     H37114   2.959   8.382   7.241  1.7384  0.7734  1.3496
  275MOL0     H37115   3.306   8.389   7.524  0.5907  0.0780  0.0132
  275MOL0     H37116   3.347   8.243   7.446 -3.2804 -0.9473  1.4467
  275MOL0     H37117   3.393   8.524   7.364 -0.5546 -0.6406  0.8487
  275MOL0     H37118   3.437   8.395   7.248 -1.5403  1.5008 -0.8689
  275MOL0     H37119   3.639   8.452   7.362  1.2475 -3.1493 -0.7714
  275MOL0     H37120   3.595   8.306   7.433  0.1108 -0.0607 -0.5257
  275MOL0     H37121   3.492   8.413   7.617  1.8060 -2.1419 -0.6862
  275MOL0     H37122   3.502   8.577   7.567 -2.9939 -2.1345  0.9755
  275MOL0     H37123   3.908   8.496   7.694 -0.5693  2.2809  1.0574
  275MOL0     H37124   3.156   8.171   7.573 -1.1199  0.7111  1.2714
  275MOL0     H37125   2.954   8.074   7.616 -0.8729 -0.5242 -1.2111
  276MOL0     O37126   9.484   9.525   0.902 -0.2100  0.1516 -0.5972
  276MOL0     C37127   9.470   9.442   0.813 -1.0468 -0.7314 -0.1404
  276MOL0     O37128   9.391   9.456   0.699 -0.8557 -0.4795 -0.6325
  276MOL0     C37129   9.273   9.530   0.708 -0.1659 -0.6935  0.2324
  276MOL0     C37130   9.203   9.551   0.822 -0.4277 -0.2711 -0.8944
  276MOL0     C37131   9.086   9.631   0.828 -0.2855 -0.3787 -0.7268
  276MOL0     C37132   9.043   9.690   0.710 -0.0792  0.5179 -0.6173
  276MOL0     O37133   8.936   9.770   0.698 -0.2619  0.0517  0.8896
  276MOL0     C37134   8.821   9.728   0.780  0.2227  0.3426 -0.1956
  276MOL0     C37135   8.698   9.781   0.707 -0.5390 -0.4882  0.1480
  276MOL0     C37136   8.562   9.721   0.732 -0.3547  0.0388  0.5558
  276MOL0     C37137   8.448   9.813   0.711  0.5783 -0.4042  0.1943
  276MOL0     C37138   8.314   9.749   0.735  0.8484  0.0970  0.3136
  276MOL0     C37139   8.194   9.849   0.727 -0.9190 -0.0865 -0.2108
  276MOL0     C37140   8.059   9.777   0.720 -0.5381  0.7830  0.0306
  276MOL0     C37141   8.026   9.715   0.857  0.6693  0.2419  0.7509
  276MOL0     N37142   8.008   9.808   0.967 -0.2361 -0.7867 -0.3341
  276MOL0     C37143   7.889   9.890   0.988  0.2485  1.0038  0.4181
  276MOL0     C37144   7.921   9.970   1.097  0.0057 -0.1643  0.3623
  276MOL0     C37145   7.836  10.087   1.155 -0.7717 -0.1173 -0.4145
  276MOL0     C37146   7.716  10.031   1.222  0.3939 -0.3235  0.0734
  276MOL0     C37147   7.605  10.143   1.250  0.7579  0.4575 -0.6420
  276MOL0     C37148   7.501  10.062   1.342  0.9883 -0.1283 -0.5336
  276MOL0     O37149   7.405  10.155   1.365 -0.1194  0.1830  0.3809
  276MOL0     C37150   7.286  10.127   1.424  0.0872  0.1771  0.3965
  276MOL0     C37151   7.184  10.232   1.420  0.2755  0.4894  0.1960
  276MOL0     C37152   7.066  10.221   1.497 -0.1979 -0.3047 -0.0572
  276MOL0     C37153   6.969  10.346   1.481 -0.3608 -0.2746  0.0277
  276MOL0     C37154   7.044  10.103   1.578  0.2127  0.7187  0.4068
  276MOL0     C37155   6.913  10.075   1.652 -0.0597 -0.3613 -0.6116
  276MOL0     O37156   6.891   9.943   1.691 -0.5127  0.4730 -0.2324
  276MOL0     C37157   6.774   9.926   1.763 -0.0083 -0.5781 -0.3152
  276MOL0     C37158   6.787   9.919   1.906  0.5426  1.0481  1.0032
  276MOL0     C37159   6.682   9.893   1.994 -0.0264  0.3459 -0.6964
  276MOL0     C37160   6.565   9.856   1.931 -0.2547 -0.7346  0.7934
  276MOL0     O37161   6.453   9.828   1.998 -0.3908  0.5362 -0.3136
  276MOL0     C37162   6.461   9.704   2.075 -0.6785  0.5432 -0.1217
  276MOL0     C37163   6.351   9.610   2.034  0.1311  0.6040 -0.8722
  276MOL0     C37164   6.210   9.670   2.027  0.0366  0.1210 -0.9415
  276MOL0     C37165   6.102   9.581   2.087 -0.1659 -0.3378  0.2875
  276MOL0     C37166   5.958   9.633   2.082  0.2071 -0.3718  0.4417
  276MOL0     C37167   5.865   9.550   2.174  0.8764 -0.3743  0.5077
  276MOL0     C37168   5.720   9.596   2.184 -0.1361  0.1550  0.0884
  276MOL0     C37169   5.642   9.521   2.293  0.1647  0.6666 -0.2495
  276MOL0    Cl37170   5.483   9.590   2.307  0.1514 -0.2418 -0.0441
  276MOL0     C37171   6.550   9.855   1.793 -0.3106  0.0899  0.4862
  276MOL0     C37172   6.655   9.880   1.714 -0.2962 -0.1042 -0.2931
  276MOL0     O37173   6.837  10.171   1.684  0.2559  0.1535  0.3857
  276MOL0     C37174   7.146  10.009   1.582 -0.0176 -0.1491  0.1492
  276MOL0     C37175   7.263  10.019   1.502 -0.7591  0.3735  0.4702
  276MOL0     N37176   8.036   9.929   1.142 -0.4797  0.5207 -0.1582
  276MOL0     N37177   8.085   9.827   1.080  0.2860  0.4424 -0.4187
  276MOL0     C37178   9.114   9.676   0.593  0.5634 -0.3055 -0.1807
  276MOL0     C37179   9.232   9.604   0.591  0.3320 -0.2869  0.6176
  276MOL0     C37180   9.569   9.339   0.810  0.5652  0.8756  0.0201
  276MOL0     C37181   9.599   9.257   0.700 -0.2533 -0.2503  0.9115
  276MOL0     C37182   9.701   9.156   0.706 -0.4835 -0.7772 -0.1019
  276MOL0     C37183   9.761   9.127   0.830  0.4473  0.8163 -0.2035
  276MOL0     O37184   9.846   9.026   0.845 -0.6060 -0.1834 -0.2257
  276MOL0     C37185   9.927   9.014   0.965  0.0742  0.2864 -0.5782
  276MOL0     C37186  10.051   8.926   0.963 -0.4238  0.1314 -0.1442
  276MOL0     C37187  10.024   8.775   0.925 -0.5342  0.6097  1.4035
  276MOL0     C37188  10.144   8.677   0.923 -0.5050  0.2185  0.4179
  276MOL0     C37189  10.253   8.715   0.833 -0.1895 -1.4217 -0.3828
  276MOL0     C37190  10.350   8.767   0.784 -0.2093  0.4441  0.7578
  276MOL0     C37191   9.737   9.212   0.941 -0.1757 -0.9070  0.3948
  276MOL0     C37192   9.636   9.316   0.933 -0.1848  0.2198 -0.4047
  276MOL0     H37193   9.240   9.508   0.915 -0.0502 -0.1238 -0.9715
  276MOL0     H37194   9.037   9.632   0.925 -0.1085  2.4971 -0.5854
  276MOL0     H37195   8.808   9.620   0.781 -2.2713  0.5083 -2.6602
  276MOL0     H37196   8.817   9.761   0.884 -1.9887 -2.8632  0.8693
  276MOL0     H37197   8.682   9.886   0.734 -0.6315 -0.9632  2.0620
  276MOL0     H37198   8.717   9.764   0.601 -1.9866 -2.2498  0.1194
  276MOL0     H37199   8.540   9.633   0.671 -0.3355  2.5698 -3.4738
  276MOL0     H37200   8.556   9.685   0.835 -4.5754 -3.0094 -0.5075
  276MOL0     H37201   8.446   9.905   0.769 -0.3791  0.5149 -1.2253
  276MOL0     H37202   8.445   9.850   0.608 -1.7309 -0.4264  0.2059
  276MOL0     H37203   8.293   9.674   0.658  2.2160  2.4023 -2.5400
  276MOL0     H37204   8.317   9.697   0.831  1.8104 -0.4024  0.0264
  276MOL0     H37205   8.205   9.919   0.810 -1.8903  1.7249 -1.5396
  276MOL0     H37206   8.200   9.920   0.644 -1.3507  0.8892  0.5774
  276MOL0     H37207   7.979   9.849   0.701 -2.0170 -0.8358 -0.0550
  276MOL0     H37208   8.053   9.701   0.641 -1.1720  0.9709 -0.1100
  276MOL0     H37209   8.101   9.638   0.877 -2.1572 -2.6764  0.9629
  276MOL0     H37210   7.930   9.662   0.848 -0.8700  2.8061  0.9211
  276MOL0     H37211   7.807   9.903   0.919  0.1753  1.4828  0.5905
  276MOL0     H37212   7.891  10.139   1.234 -1.0716 -2.0565  1.1763
  276MOL0     H37213   7.797  10.156   1.080 -1.1006  1.0859  0.8141
  276MOL0     H37214   7.747  10.003   1.323  0.5294 -0.1268  0.0868
  276MOL0     H37215   7.667   9.950   1.167 -1.4352  1.6198 -1.2940
  276MOL0     H37216   7.546  10.177   1.165 -0.0416  0.3172 -0.1508
  276MOL0     H37217   7.650  10.230   1.299  2.3578 -0.2233 -0.8391
  276MOL0     H37218   7.555  10.044   1.435 -0.0052 -0.6591 -0.0371
  276MOL0     H37219   7.462   9.968   1.303  1.9641 -0.7419 -0.0531
  276MOL0     H37220   7.202  10.316   1.353  1.1348 -1.5372 -2.2696
  276MOL0     H37221   7.013  10.426   1.420  0.2119 -0.4265  0.2303
  276MOL0     H37222   6.870  10.324   1.441 -0.2763 -1.0104  0.2087
  276MOL0     H37223   6.954  10.384   1.582 -0.2998  1.1629 -0.4783
  276MOL0     H37224   6.889   9.943   1.937  0.9462 -1.0177  1.4205
  276MOL0     H37225   6.695   9.899   2.101  2.5443 -1.2402 -0.8514
  276MOL0     H37226   6.559   9.656   2.069 -0.0596  1.3809  2.1953
  276MOL0     H37227   6.451   9.735   2.180  0.6593  1.8804 -0.3546
  276MOL0     H37228   6.373   9.559   1.940 -0.2678  1.9704 -1.7214
  276MOL0     H37229   6.344   9.535   2.114 -0.0414  0.5226 -0.9628
  276MOL0     H37230   6.184   9.690   1.922 -2.4658  0.1412 -0.3765
  276MOL0     H37231   6.213   9.764   2.082  0.2371  0.0014 -0.7471
  276MOL0     H37232   6.110   9.476   2.057 -2.4944 -0.7493  0.8493
  276MOL0     H37233   6.114   9.585   2.195 -2.5698 -1.2182  0.6603
  276MOL0     H37234   5.925   9.658   1.981  0.6851 -1.0669  0.1049
  276MOL0     H37235   5.964   9.726   2.139 -2.6782 -0.5399  1.1424
  276MOL0     H37236   5.869   9.450   2.130 -0.1438  0.0681 -0.6341
  276MOL0     H37237   5.917   9.554   2.270 -0.4835  1.3530  1.2320
  276MOL0     H37238   5.663   9.589   2.091 -0.0011  1.2483 -0.0879
  276MOL0     H37239   5.721   9.701   2.213 -0.8669  0.5320 -1.1547
  276MOL0     H37240   5.689   9.532   2.391 -0.1509 -1.1579  0.1423
  276MOL0     H37241   5.638   9.415   2.267 -0.7240  0.7501 -0.4809
  276MOL0     H37242   6.452   9.834   1.751 -1.3508 -1.6790  3.5006
  276MOL0     H37243   6.633   9.882   1.608  2.4335  0.4437 -0.9239
  276MOL0     H37244   7.126   9.923   1.646 -0.3569  0.2655  0.6029
  276MOL0     H37245   7.343   9.951   1.524 -1.2630 -0.7938 -1.1046
  276MOL0     H37246   9.082   9.733   0.507  0.0113  2.0892  1.4936
  276MOL0     H37247   9.287   9.600   0.497 -2.0838 -1.0024 -0.8451
  276MOL0     H37248   9.547   9.285   0.609  0.2419 -0.6691  0.4935
  276MOL0     H37249   9.710   9.089   0.621  1.3730  2.3242 -2.5886
  276MOL0     H37250   9.970   9.109   0.999  0.7493 -0.4453  0.7065
  276MOL0     H37251   9.877   8.966   1.049  1.3339 -0.5255 -0.2614
  276MOL0     H37252  10.105   8.909   1.057  0.4224 -6.5170 -1.3022
  276MOL0     H37253  10.123   8.980   0.901  0.1292 -2.1520 -1.6175
  276MOL0     H37254   9.988   8.771   0.822 -1.4833  1.6350  1.6737
  276MOL0     H37255   9.949   8.734   0.993 -0.1131  0.6583  1.9057
  276MOL0     H37256  10.108   8.579   0.892  0.2136 -0.3159  1.2487
  276MOL0     H37257  10.182   8.666   1.025  0.0047 -4.8472 -0.0839
  276MOL0     H37258  10.436   8.822   0.750  0.6839 -0.5964  1.2953
  276MOL0     H37259   9.779   9.200   1.040  1.0398 -2.2346 -0.2248
  276MOL0     H37260   9.623   9.370   1.026 -2.6864 -0.4328 -0.3098
  277MOL0     O37261   2.466   2.152   9.183  0.3750 -0.0976 -0.0790
  277MOL0     C37262   2.530   2.256   9.199 -0.3086 -0.9467  0.8769
  277MOL0     O37263   2.510   2.355   9.294 -0.1024 -0.6988  0.4574
  277MOL0     C37264   2.381   2.366   9.342 -0.4436 -0.1012 -0.2497
  277MOL0     C37265   2.274   2.397   9.261 -0.1207 -0.4391  0.0538
  277MOL0     C37266   2.145   2.419   9.315 -0.0202  0.2436  0.6224
  277MOL0     C37267   2.130   2.424   9.459 -0.0857 -0.3322  0.5545
  277MOL0     O37268   2.008   2.454   9.515 -0.2064  0.8921  0.1470
  277MOL0     C37269   1.905   2.372   9.470  0.1306  0.9853 -0.0724
  277MOL0     C37270   1.762   2.393   9.521 -0.7321 -0.1032 -0.8790
  277MOL0     C37271   1.719   2.531   9.459 -0.6019  0.0499 -0.2813
  277MOL0     C37272   1.565   2.544   9.454  0.7328  0.5148  0.1056
  277MOL0     C37273   1.510   2.551   9.598  0.6472  0.3506 -1.0614
  277MOL0     C37274   1.364   2.595   9.609  0.1833 -0.2326 -0.2285
  277MOL0     C37275   1.357   2.746   9.575 -0.0141  0.1882  0.7946
  277MOL0     C37276   1.214   2.797   9.560 -0.7124  0.7056  0.2111
  277MOL0     N37277   1.217   2.941   9.527 -0.1792 -0.0827 -0.8410
  277MOL0     C37278   1.243   3.005   9.404 -0.0136 -0.2035  0.0926
  277MOL0     C37279   1.229   3.139   9.441  0.1588 -0.5445 -0.4679
  277MOL0     C37280   1.236   3.252   9.339  0.3790  0.5213 -0.0138
  277MOL0     C37281   1.101   3.305   9.288  0.7586  0.5179 -0.4474
  277MOL0     C37282   1.112   3.418   9.191 -0.7820 -0.6385  0.5731
  277MOL0     C37283   0.998   3.514   9.189  0.0600 -0.0872 -0.2072
  277MOL0     O37284   0.872   3.433   9.181 -0.0459  0.3322  0.1497
  277MOL0     C37285   0.751   3.503   9.169 -0.2121  1.1053 -0.7923
  277MOL0     C37286   0.744   3.636   9.201  0.2378 -0.2295  0.5880
  277MOL0     C37287   0.620   3.711   9.203 -0.1371 -0.8444 -0.2537
  277MOL0     C37288   0.631   3.850   9.237 -1.0059 -1.0432 -0.7883
  277MOL0     C37289   0.505   3.642   9.147 -0.0591  0.0250  0.4239
  277MOL0     C37290   0.369   3.705   9.152  0.1290  0.1490  0.3776
  277MOL0     O37291   0.264   3.622   9.151  0.0937  0.8254 -0.0176
  277MOL0     C37292   0.133   3.660   9.158 -0.0733  0.0763  0.1572
  277MOL0     C37293   0.047   3.565   9.222  0.4431 -0.1083  0.9449
  277MOL0     C37294  -0.089   3.593   9.236  0.8958 -0.2980  0.2948
  277MOL0     C37295  -0.138   3.717   9.177  0.5891 -0.6354  0.3504
  277MOL0     O37296  -0.274   3.750   9.182 -0.5909 -0.2877 -0.6294
  277MOL0     C37297  -0.363   3.697   9.271 -0.2683 -0.1473 -0.8400
  277MOL0     C37298  -0.503   3.728   9.216 -1.0320 -0.0466  0.0786
  277MOL0     C37299  -0.607   3.649   9.281  0.2225  0.2287  0.0482
  277MOL0     C37300  -0.741   3.685   9.219  0.0357 -0.0834 -0.3449
  277MOL0     C37301  -0.854   3.609   9.295 -0.0948 -0.8481 -0.4162
  277MOL0     C37302  -0.989   3.609   9.214  0.0393  0.9662 -0.7454
  277MOL0     C37303  -1.098   3.524   9.295 -0.4007 -0.2133 -0.7503
  277MOL0     C37304  -1.239   3.543   9.228  0.2784  0.3170 -0.7471
  277MOL0    Cl37305  -1.376   3.477   9.324  0.1982  0.5541  0.2647
  277MOL0     C37306  -0.059   3.809   9.129  0.7834  0.5852  0.5380
  277MOL0     C37307   0.073   3.786   9.130  0.3147  0.3971  0.1783
  277MOL0     O37308   0.368   3.831   9.164  0.6819  0.6053 -0.4044
  277MOL0     C37309   0.514   3.508   9.119  0.3311 -0.3708 -0.3262
  277MOL0     C37310   0.632   3.436   9.128 -0.0343 -0.6654  0.0106
  277MOL0     N37311   1.185   3.153   9.575  0.7753  0.1527  0.2126
  277MOL0     N37312   1.187   3.031   9.621 -0.1716 -0.4425 -0.8684
  277MOL0     C37313   2.244   2.394   9.541  0.4367  0.2797 -0.2630
  277MOL0     C37314   2.369   2.366   9.483  0.2982 -0.2646  0.5287
  277MOL0     C37315   2.648   2.276   9.108  0.2946  0.0580  1.2298
  277MOL0     C37316   2.719   2.396   9.115  0.3341 -0.4628  0.5269
  277MOL0     C37317   2.845   2.401   9.054  0.7536 -0.5330  0.2267
  277MOL0     C37318   2.903   2.291   8.997 -1.1650  0.1576 -0.7615
  277MOL0     O37319   3.031   2.305   8.950 -0.4161 -0.6548  0.2722
  277MOL0     C37320   3.108   2.195   8.889  0.2630 -0.9377 -0.2054
  277MOL0     C37321   3.259   2.222   8.883  0.0559  0.3283  0.1589
  277MOL0     C37322   3.305   2.284   9.018 -0.3474 -0.1932  0.4686
  277MOL0     C37323   3.458   2.302   9.016 -0.4422 -0.4626  0.0455
  277MOL0     C37324   3.504   2.368   8.887  0.1075  0.0052 -0.0447
  277MOL0     C37325   3.556   2.430   8.793  0.6831 -0.0496  0.3709
  277MOL0     C37326   2.824   2.178   8.980 -0.4272  0.3235 -0.2378
  277MOL0     C37327   2.700   2.163   9.039 -0.3291  0.0179  0.4182
  277MOL0     H37328   2.288   2.427   9.158  0.2568  2.6384  0.8853
  277MOL0     H37329   2.067   2.430   9.240  1.6617 -2.8245 -1.8564
  277MOL0     H37330   1.903   2.371   9.361 -0.7404  0.1982 -0.0665
  277MOL0     H37331   1.934   2.271   9.502 -1.3324  1.0192  1.4825
  277MOL0     H37332   1.693   2.316   9.484 -0.0029 -1.6138  0.7698
  277MOL0     H37333   1.756   2.396   9.630  3.2349 -0.0586 -0.5465
  277MOL0     H37334   1.754   2.608   9.527 -3.7134 -0.0986  1.6420
  277MOL0     H37335   1.766   2.550   9.362 -0.9479 -2.3532 -1.0047
  277MOL0     H37336   1.532   2.630   9.395 -1.9109 -0.0513  0.6219
  277MOL0     H37337   1.517   2.466   9.395  1.6387 -0.3735  0.5128
  277MOL0     H37338   1.516   2.455   9.651 -4.4717  2.2624  3.9397
  277MOL0     H37339   1.565   2.625   9.658 -1.0868  0.4119  0.5355
  277MOL0     H37340   1.315   2.531   9.536 -0.5924 -0.9343  0.8769
  277MOL0     H37341   1.333   2.584   9.713  0.3995  4.7143  0.6044
  277MOL0     H37342   1.398   2.804   9.658 -0.6691 -1.2818  2.2188
  277MOL0     H37343   1.422   2.773   9.491  0.1225 -1.3895  0.3491
  277MOL0     H37344   1.162   2.786   9.655 -0.7464  1.4464  0.2807
  277MOL0     H37345   1.156   2.750   9.480 -2.0008  1.0407  0.9259
  277MOL0     H37346   1.257   2.957   9.308 -0.7275  1.6257 -0.9656
  277MOL0     H37347   1.283   3.331   9.399  2.2598  0.8047 -1.7396
  277MOL0     H37348   1.307   3.228   9.259 -0.1052  1.3038 -0.6986
  277MOL0     H37349   1.052   3.342   9.379 -0.8502 -1.7825 -0.3107
  277MOL0     H37350   1.037   3.230   9.241 -1.8286  2.8593 -0.9412
  277MOL0     H37351   1.130   3.372   9.093 -0.2564  0.7083 -0.0033
  277MOL0     H37352   1.202   3.477   9.213 -2.0389  0.2612  3.9248
  277MOL0     H37353   1.003   3.596   9.117 -1.4056  0.3635  0.1684
  277MOL0     H37354   1.001   3.565   9.285  0.8157 -3.4057  1.6745
  277MOL0     H37355   0.834   3.690   9.232 -2.0309  3.7974  0.9143
  277MOL0     H37356   0.574   3.877   9.326 -0.7926  0.5166 -1.0980
  277MOL0     H37357   0.736   3.876   9.253 -1.1688  0.5315 -2.0494
  277MOL0     H37358   0.604   3.919   9.157 -0.5549  1.7226  1.3173
  277MOL0     H37359   0.095   3.474   9.257  2.9349  0.4922 -0.6380
  277MOL0     H37360  -0.143   3.527   9.303  0.8486 -1.5418 -0.9117
  277MOL0     H37361  -0.351   3.591   9.294  2.4348  0.1353 -0.7037
  277MOL0     H37362  -0.350   3.752   9.365  0.7245  3.3273 -2.8257
  277MOL0     H37363  -0.525   3.834   9.235  1.8068  0.3088  2.0729
  277MOL0     H37364  -0.513   3.702   9.111  0.2023 -3.9556  0.7861
  277MOL0     H37365  -0.599   3.682   9.385  3.2625  2.7951 -0.8299
  277MOL0     H37366  -0.585   3.542   9.293  0.0218  0.2167  0.3114
  277MOL0     H37367  -0.757   3.793   9.226  2.7023  0.2893  1.8197
  277MOL0     H37368  -0.736   3.665   9.111  1.0785 -0.6463 -0.2110
  277MOL0     H37369  -0.872   3.647   9.396 -2.1424 -1.4676 -0.5199
  277MOL0     H37370  -0.827   3.505   9.317  0.4028 -0.5488  0.4387
  277MOL0     H37371  -1.022   3.714   9.212  0.3219  1.0820  0.2533
  277MOL0     H37372  -0.980   3.570   9.112  0.7587  0.6559 -0.5663
  277MOL0     H37373  -1.103   3.560   9.398 -2.9068 -1.6772 -0.2695
  277MOL0     H37374  -1.079   3.416   9.295  0.1033 -0.1757  1.5743
  277MOL0     H37375  -1.223   3.504   9.127  1.8102  1.8557 -1.1504
  277MOL0     H37376  -1.249   3.651   9.217  2.9796  0.9261  1.4400
  277MOL0     H37377  -0.097   3.908   9.103 -1.1137 -0.9506 -3.2800
  277MOL0     H37378   0.146   3.851   9.084  1.3763  0.2955  1.6173
  277MOL0     H37379   0.429   3.443   9.101  1.0634 -1.3296 -0.3877
  277MOL0     H37380   0.626   3.330   9.103 -1.0139  0.0721 -3.3723
  277MOL0     H37381   2.222   2.388   9.647 -1.4552 -1.0073 -0.6923
  277MOL0     H37382   2.449   2.338   9.551 -0.8508 -1.6853  1.3627
  277MOL0     H37383   2.681   2.476   9.178  1.6313  0.3596  0.2996
  277MOL0     H37384   2.898   2.495   9.066 -3.8670  2.2426  1.1612
  277MOL0     H37385   3.101   2.102   8.947  2.6495 -0.9828  0.1025
  277MOL0     H37386   3.079   2.183   8.784  1.3110 -2.7329 -0.3331
  277MOL0     H37387   3.274   2.288   8.797  0.8562 -0.5758 -0.4209
  277MOL0     H37388   3.310   2.126   8.866  0.0370  0.2518  0.5308
  277MOL0     H37389   3.261   2.230   9.102 -1.8637  1.6064  0.9044
  277MOL0     H37390   3.267   2.386   9.025  1.4122  0.4896  0.5590
  277MOL0     H37391   3.490   2.197   9.017 -0.6499 -0.5262  0.4897
  277MOL0     H37392   3.496   2.351   9.106  1.4212 -0.5821 -0.6287
  277MOL0     H37393   3.598   2.473   8.704  1.6254 -1.3302  0.1821
  277MOL0     H37394   2.871   2.089   8.939  0.1751 -0.3485  1.7959
  277MOL0     H37395   2.649   2.068   9.045  0.1484 -0.1720  2.1799
  278MOL0     O37396   2.167   8.720   3.268  0.6842 -0.6711 -0.9415
  278MOL0     C37397   2.260   8.654   3.214  0.3306 -0.2712 -0.1878
  278MOL0     O37398   2.252   8.521   3.182  0.0165 -0.6971 -0.2272
  278MOL0     C37399   2.131   8.445   3.197  0.3776 -0.8588  0.2705
  278MOL0     C37400   2.004   8.502   3.192  0.3060 -0.1381  0.4419
  278MOL0     C37401   1.889   8.426   3.210  0.3394  0.4918  1.2744
  278MOL0     C37402   1.889   8.292   3.219 -0.4439 -0.0369 -0.1661
  278MOL0     O37403   1.775   8.211   3.219  0.6793  0.2475 -0.5315
  278MOL0     C37404   1.753   8.158   3.351  0.0886 -0.3326 -0.6300
  278MOL0     C37405   1.720   8.251   3.464  0.3466  0.2711  0.5947
  278MOL0     C37406   1.590   8.329   3.429  0.3019  0.1333 -0.2443
  278MOL0     C37407   1.473   8.251   3.486 -0.1218  1.1472  0.7379
  278MOL0     C37408   1.327   8.297   3.450  0.2127 -0.6051 -0.5422
  278MOL0     C37409   1.222   8.240   3.544  0.0357 -0.1099 -0.0330
  278MOL0     C37410   1.195   8.087   3.525 -0.3888 -0.7253  0.6203
  278MOL0     C37411   1.141   8.041   3.395 -0.0916 -0.4969  0.1358
  278MOL0     N37412   1.003   8.068   3.380  0.5739 -0.9446 -0.1110
  278MOL0     C37413   0.889   8.024   3.452  0.3104  0.0549  0.8215
  278MOL0     C37414   0.786   8.075   3.384 -0.2552 -0.2479  0.5331
  278MOL0     C37415   0.638   8.065   3.416  0.4094  0.4679 -0.0127
  278MOL0     C37416   0.565   7.977   3.323  0.7388 -0.4217 -1.1326
  278MOL0     C37417   0.425   7.947   3.368 -0.3576 -1.0443 -0.4107
  278MOL0     C37418   0.323   8.062   3.362  0.7583  0.1428  0.5660
  278MOL0     O37419   0.201   7.987   3.397  0.2812  0.3602  0.5730
  278MOL0     C37420   0.080   8.024   3.340  0.6078 -0.3485 -0.2643
  278MOL0     C37421  -0.025   8.081   3.418 -0.2571 -0.1883  0.3537
  278MOL0     C37422  -0.151   8.096   3.370 -0.5621  0.1352 -0.0814
  278MOL0     C37423  -0.248   8.149   3.471 -0.3800 -0.8628  0.7821
  278MOL0     C37424  -0.178   8.051   3.240 -0.1358 -0.4252  0.3580
  278MOL0     C37425  -0.316   8.051   3.185 -0.0295  0.3073  0.4086
  278MOL0     O37426  -0.338   7.958   3.077 -0.4018 -0.1058 -0.1376
  278MOL0     C37427  -0.456   7.971   3.007  0.0030  0.3660 -0.1825
  278MOL0     C37428  -0.498   8.083   2.940 -0.5706  0.7993  0.2007
  278MOL0     C37429  -0.622   8.088   2.884  0.4755 -0.3602  0.3277
  278MOL0     C37430  -0.696   7.971   2.873  0.4410  0.3389 -0.4815
  278MOL0     O37431  -0.807   7.951   2.798  0.9331  0.4781  0.8525
  278MOL0     C37432  -0.851   8.046   2.698 -0.5536 -0.3708 -0.1719
  278MOL0     C37433  -0.989   7.985   2.650 -0.1149 -0.4644  0.4729
  278MOL0     C37434  -1.113   8.033   2.733 -0.2588  0.0858 -0.6704
  278MOL0     C37435  -1.244   8.045   2.651 -0.3541 -0.4305  0.5931
  278MOL0     C37436  -1.366   8.052   2.743  0.2919 -0.5323 -0.0801
  278MOL0     C37437  -1.370   8.178   2.831  0.0111  0.5062 -0.0354
  278MOL0     C37438  -1.485   8.187   2.932  0.4695  0.2555 -0.0940
  278MOL0     C37439  -1.495   8.325   2.998 -0.9545 -0.1870  0.5609
  278MOL0    Cl37440  -1.385   8.348   3.134  0.0126 -0.1355  0.0895
  278MOL0     C37441  -0.649   7.855   2.930  0.0123 -0.0159 -0.1008
  278MOL0     C37442  -0.529   7.852   2.993  0.5258 -0.1962 -0.7156
  278MOL0     O37443  -0.402   8.123   3.239 -0.4064 -0.6132 -0.0790
  278MOL0     C37444  -0.078   7.983   3.169 -0.1217 -0.0930  0.8543
  278MOL0     C37445   0.053   7.981   3.214 -0.3737  0.9611 -0.1103
  278MOL0     N37446   0.835   8.161   3.281  0.2277  0.2372 -0.8403
  278MOL0     N37447   0.961   8.160   3.281  0.0386 -0.4196  0.0930
  278MOL0     C37448   2.012   8.233   3.214  0.0811 -0.9378  0.0799
  278MOL0     C37449   2.132   8.309   3.204 -0.7141  0.4596 -0.1042
  278MOL0     C37450   2.393   8.717   3.200 -0.7063 -0.3034 -0.3391
  278MOL0     C37451   2.431   8.825   3.283  0.1112 -0.0829 -0.5636
  278MOL0     C37452   2.554   8.874   3.271 -0.0856  0.2316  0.6766
  278MOL0     C37453   2.655   8.811   3.197 -1.0286 -0.5014 -0.1450
  278MOL0     O37454   2.787   8.859   3.208 -0.1886  0.1755 -0.0280
  278MOL0     C37455   2.867   8.871   3.084  0.7922  1.2545  0.7947
  278MOL0     C37456   3.005   8.881   3.124 -0.7904 -0.6834 -0.2613
  278MOL0     C37457   3.109   8.895   3.008  0.4994  0.6514  0.2126
  278MOL0     C37458   3.257   8.870   3.051  0.6264 -0.5669  0.0444
  278MOL0     C37459   3.279   8.948   3.174 -0.4401 -0.5982  0.4793
  278MOL0     C37460   3.298   9.000   3.276  0.1241  0.2388  0.4265
  278MOL0     C37461   2.624   8.701   3.120  0.2404  0.4313 -0.0927
  278MOL0     C37462   2.493   8.655   3.121  0.4188  0.6852  0.0689
  278MOL0     H37463   1.986   8.608   3.177  0.6978 -0.1387 -0.0550
  278MOL0     H37464   1.792   8.474   3.218  0.7449  1.3232  1.3100
  278MOL0     H37465   1.676   8.080   3.347  0.5421 -0.7631 -1.0538
  278MOL0     H37466   1.846   8.109   3.381 -0.8549 -1.2804  0.9352
  278MOL0     H37467   1.710   8.194   3.557  0.3405 -1.2247 -0.2950
  278MOL0     H37468   1.798   8.327   3.468 -1.9196  2.8986 -1.3040
  278MOL0     H37469   1.594   8.423   3.484 -1.6548  0.5683 -0.7437
  278MOL0     H37470   1.578   8.346   3.322  3.1889 -1.5278 -0.9465
  278MOL0     H37471   1.492   8.145   3.468 -1.0266  1.1864 -0.6001
  278MOL0     H37472   1.488   8.258   3.595  2.4945 -1.6072  0.6639
  278MOL0     H37473   1.323   8.405   3.465 -2.0243 -0.7209  0.1701
  278MOL0     H37474   1.307   8.270   3.346  1.5759 -1.8174 -0.5262
  278MOL0     H37475   1.258   8.258   3.645 -2.6314 -1.0885  1.1738
  278MOL0     H37476   1.129   8.296   3.534 -1.1191 -1.7967  0.7550
  278MOL0     H37477   1.295   8.046   3.546  1.0830  0.9184 -2.4543
  278MOL0     H37478   1.117   8.066   3.598 -1.0569 -0.7396 -0.0776
  278MOL0     H37479   1.169   7.935   3.389  0.8700 -0.2664  0.4491
  278MOL0     H37480   1.207   8.067   3.312  0.2878 -2.3105 -0.1857
  278MOL0     H37481   0.886   7.972   3.547  2.3185 -0.8719  0.4292
  278MOL0     H37482   0.641   8.012   3.511  1.3101 -0.5121 -0.5728
  278MOL0     H37483   0.584   8.159   3.433 -2.2585 -0.9651  0.0199
  278MOL0     H37484   0.621   7.883   3.320 -0.3078 -1.3011  2.1334
  278MOL0     H37485   0.565   8.026   3.226 -0.2680  2.4564  0.2256
  278MOL0     H37486   0.430   7.920   3.474  1.7486 -0.9866 -0.4616
  278MOL0     H37487   0.385   7.867   3.305 -1.6503 -1.0632  0.3907
  278MOL0     H37488   0.325   8.105   3.262  0.1719  0.9359  0.8782
  278MOL0     H37489   0.340   8.129   3.447  0.1422 -0.8955  1.5341
  278MOL0     H37490   0.003   8.098   3.522  1.1733 -1.5435  0.2271
  278MOL0     H37491  -0.343   8.094   3.469 -1.0327  0.1915 -1.6434
  278MOL0     H37492  -0.208   8.156   3.572  2.1375  1.3228 -0.2705
  278MOL0     H37493  -0.273   8.245   3.424  0.9986 -1.4258 -1.2586
  278MOL0     H37494  -0.422   8.160   2.929 -0.0024  0.1791 -0.2989
  278MOL0     H37495  -0.656   8.178   2.834  0.8709  0.6434  1.8078
  278MOL0     H37496  -0.862   8.148   2.735 -0.1183 -1.5299  3.6523
  278MOL0     H37497  -0.781   8.043   2.615  0.0594 -1.3233  0.3559
  278MOL0     H37498  -1.006   8.005   2.544 -0.6382 -0.6542  0.5184
  278MOL0     H37499  -0.982   7.876   2.652  0.2458 -0.5504 -2.2361
  278MOL0     H37500  -1.077   8.129   2.771  3.5370 -0.8310 -1.5387
  278MOL0     H37501  -1.130   7.966   2.818  0.3887 -1.2279 -1.5310
  278MOL0     H37502  -1.234   8.130   2.583  2.6416 -0.9614  0.2469
  278MOL0     H37503  -1.255   7.962   2.581 -2.0570  0.3945 -0.1624
  278MOL0     H37504  -1.370   7.967   2.812 -0.2920  0.1453  0.7402
  278MOL0     H37505  -1.449   8.052   2.671  1.2509  3.4692 -1.4213
  278MOL0     H37506  -1.278   8.175   2.890  3.2780 -1.3829 -4.5801
  278MOL0     H37507  -1.373   8.267   2.767  1.0644  0.9082  0.4544
  278MOL0     H37508  -1.479   8.112   3.012 -1.8002  2.0933  1.9760
  278MOL0     H37509  -1.581   8.180   2.881  0.3174  3.6061 -0.4683
  278MOL0     H37510  -1.593   8.353   3.036  0.5775  1.7866  3.3899
  278MOL0     H37511  -1.467   8.399   2.923 -1.0740 -0.5821  0.1178
  278MOL0     H37512  -0.705   7.764   2.911 -1.4371  0.9941 -0.7700
  278MOL0     H37513  -0.485   7.773   3.054  0.8429  0.8617  0.4589
  278MOL0     H37514  -0.110   7.939   3.075 -1.9734  1.4946  0.6709
  278MOL0     H37515   0.130   7.934   3.153  0.3610  2.0067 -0.0242
  278MOL0     H37516   2.029   8.126   3.217  1.8286 -0.6909  0.8563
  278MOL0     H37517   2.231   8.266   3.216 -1.0340 -0.1020  0.6307
  278MOL0     H37518   2.366   8.879   3.351  2.6042  1.4948  0.7159
  278MOL0     H37519   2.584   8.959   3.332 -0.0814 -0.5425  1.7707
  278MOL0     H37520   2.859   8.781   3.021 -0.0099  2.6456 -1.1927
  278MOL0     H37521   2.835   8.950   3.016 -0.9546 -0.4021 -0.4458
  278MOL0     H37522   3.032   8.796   3.188  1.4270  2.1037  2.8358
  278MOL0     H37523   3.022   8.964   3.193 -1.7308 -0.3684 -0.3882
  278MOL0     H37524   3.100   8.995   2.963 -1.1506  0.5818  0.3174
  278MOL0     H37525   3.089   8.818   2.932 -0.5111 -0.8213  1.9105
  278MOL0     H37526   3.326   8.897   2.971  0.4281 -0.0390  0.0483
  278MOL0     H37527   3.263   8.762   3.072 -2.0723 -0.2090  3.7604
  278MOL0     H37528   3.320   9.056   3.365  0.4465 -2.0173  1.8326
  278MOL0     H37529   2.695   8.636   3.070 -1.1383 -1.9564  0.8938
  278MOL0     H37530   2.460   8.569   3.065  0.6986  0.9785 -0.5653
  279MOL0     O37531   9.479   7.668  10.499 -0.4658 -0.0413 -0.0338
  279MOL0     C37532   9.516   7.715  10.388  0.1574  0.3555 -0.0781
  279MOL0     O37533   9.424   7.754  10.287  0.4729  0.2927 -0.1015
  279MOL0     C37534   9.288   7.724  10.306  0.0097  0.4190 -0.2062
  279MOL0     C37535   9.240   7.603  10.352  0.0428  0.4988 -0.0431
  279MOL0     C37536   9.102   7.580  10.365 -0.4387  0.3143  0.6061
  279MOL0     C37537   9.012   7.675  10.323  0.2881 -0.6741 -0.6724
  279MOL0     O37538   8.876   7.645  10.330 -0.3931  0.1245 -0.3745
  279MOL0     C37539   8.813   7.641  10.459  0.4909  0.2210 -0.2520
  279MOL0     C37540   8.662   7.641  10.442  0.6585  0.8387  0.1266
  279MOL0     C37541   8.615   7.498  10.413 -0.1560  0.3405  0.2511
  279MOL0     C37542   8.462   7.490  10.426  0.5795 -0.2139  0.3722
  279MOL0     C37543   8.398   7.572  10.303 -0.2503  0.2443  0.3092
  279MOL0     C37544   8.246   7.572  10.310  1.4570 -1.3803 -0.1846
  279MOL0     C37545   8.189   7.581  10.157 -0.4696  0.3004 -0.5179
  279MOL0     C37546   8.061   7.666  10.145 -0.6171  0.5506 -0.2520
  279MOL0     N37547   8.020   7.696  10.011 -0.5996  0.2678  0.0696
  279MOL0     C37548   7.948   7.615   9.923 -0.3620 -0.0413  0.0597
  279MOL0     C37549   7.929   7.705   9.820 -0.1239 -0.4662  0.8949
  279MOL0     C37550   7.840   7.684   9.702  0.2376  0.1808  0.0257
  279MOL0     C37551   7.698   7.619   9.717 -0.0728 -0.9093 -0.8840
  279MOL0     C37552   7.628   7.610   9.582  0.2671  0.8081  0.7761
  279MOL0     C37553   7.520   7.500   9.602 -0.4170  0.1696 -0.1582
  279MOL0     O37554   7.446   7.504   9.486 -0.1136 -0.6245  0.3185
  279MOL0     C37555   7.351   7.410   9.469  0.3411  0.3447  0.0305
  279MOL0     C37556   7.320   7.290   9.541  0.3953 -0.5419  0.7270
  279MOL0     C37557   7.215   7.208   9.500  0.1575 -0.0098 -0.2891
  279MOL0     C37558   7.194   7.071   9.575  0.8301  0.1180 -0.6656
  279MOL0     C37559   7.120   7.258   9.405 -0.1794 -0.7065 -0.9750
  279MOL0     C37560   6.988   7.188   9.368  0.2665 -0.1608  0.2033
  279MOL0     O37561   6.919   7.233   9.259  0.4549 -0.2623  0.8204
  279MOL0     C37562   6.794   7.185   9.231 -0.2261 -0.7399  0.1146
  279MOL0     C37563   6.798   7.047   9.201  0.7448  0.5280 -0.1541
  279MOL0     C37564   6.673   6.976   9.176 -0.2508 -0.4418 -0.1006
  279MOL0     C37565   6.553   7.036   9.198  0.0895 -0.0561  1.1721
  279MOL0     O37566   6.440   6.958   9.183  0.3648 -0.3636 -0.3099
  279MOL0     C37567   6.315   7.009   9.129 -0.2002  0.9022  0.1585
  279MOL0     C37568   6.197   6.901   9.139 -0.1246 -0.2830  0.0352
  279MOL0     C37569   6.190   6.861   9.289  0.0887  0.0333 -0.1790
  279MOL0     C37570   6.045   6.832   9.328  0.5299  0.9352  0.5176
  279MOL0     C37571   6.021   6.785   9.472  0.4392 -0.2216 -0.2055
  279MOL0     C37572   5.879   6.752   9.505 -0.9248  0.2804  0.2081
  279MOL0     C37573   5.767   6.860   9.488 -0.3089 -0.1591 -0.4256
  279MOL0     C37574   5.644   6.855   9.598 -0.7714 -0.3521 -0.0701
  279MOL0    Cl37575   5.602   6.700   9.665  0.0395  0.1410 -0.0080
  279MOL0     C37576   6.553   7.179   9.221  0.1294  0.4470 -0.0007
  279MOL0     C37577   6.668   7.249   9.227 -0.6467 -1.1393 -0.6000
  279MOL0     O37578   6.948   7.114   9.455 -0.5818 -0.6771  0.3997
  279MOL0     C37579   7.148   7.378   9.334 -0.6629 -0.2922  1.0868
  279MOL0     C37580   7.272   7.445   9.360  0.0002 -0.4496 -0.0910
  279MOL0     N37581   8.010   7.820   9.843 -0.2409 -0.7682 -0.2187
  279MOL0     N37582   8.056   7.818   9.963  0.1199 -0.6592  0.6063
  279MOL0     C37583   9.057   7.789  10.261 -0.2304 -0.6136 -0.3789
  279MOL0     C37584   9.198   7.820  10.263  0.6085 -0.6754 -0.0665
  279MOL0     C37585   9.654   7.740  10.368  0.0297 -0.4371  0.0674
  279MOL0     C37586   9.760   7.694  10.449  0.6053 -0.2801  1.1021
  279MOL0     C37587   9.895   7.720  10.425  0.4083 -0.1229 -0.3754
  279MOL0     C37588   9.926   7.794  10.314 -0.2294 -0.1164  0.5228
  279MOL0     O37589  10.059   7.810  10.266  0.7721  0.0366  0.0873
  279MOL0     C37590  10.142   7.693  10.301  0.5946 -0.5302 -0.5448
  279MOL0     C37591  10.108   7.550  10.249  0.1438 -0.2510 -0.1044
  279MOL0     C37592  10.239   7.470  10.236  0.3365  0.0413  0.2685
  279MOL0     C37593  10.307   7.423  10.366 -0.0696  0.5165 -0.0444
  279MOL0     C37594  10.448   7.384  10.338 -0.0835 -0.2378 -0.8409
  279MOL0     C37595  10.563   7.359  10.337 -0.2155 -0.1584  0.1617
  279MOL0     C37596   9.819   7.842  10.227 -0.1644  0.5183  0.2740
  279MOL0     C37597   9.685   7.814  10.253 -0.2307 -0.7138 -0.5622
  279MOL0     H37598   9.311   7.528  10.385 -1.6515 -0.8475  0.7029
  279MOL0     H37599   9.077   7.483  10.406  2.0011 -0.1436  1.1584
  279MOL0     H37600   8.843   7.555  10.519 -3.9090 -0.1916  1.7268
  279MOL0     H37601   8.838   7.730  10.517 -1.0163  0.8619 -0.5332
  279MOL0     H37602   8.614   7.691  10.526 -2.9368  1.7786 -2.2270
  279MOL0     H37603   8.639   7.698  10.351  1.1031 -1.7579 -1.7621
  279MOL0     H37604   8.649   7.476  10.311  0.7537 -0.5153  0.7208
  279MOL0     H37605   8.654   7.431  10.490  0.0985 -0.8374 -0.8484
  279MOL0     H37606   8.432   7.385  10.417  2.8520 -0.8779 -0.0522
  279MOL0     H37607   8.419   7.537  10.515  1.5253  4.3617 -1.3459
  279MOL0     H37608   8.434   7.674  10.287 -0.4428  0.0045 -1.9689
  279MOL0     H37609   8.432   7.515  10.216  0.4952 -2.0871  2.0213
  279MOL0     H37610   8.207   7.485  10.364 -0.3165  0.3414  1.5071
  279MOL0     H37611   8.209   7.660  10.364  0.8559 -0.8919 -1.3579
  279MOL0     H37612   8.257   7.624  10.083 -0.7383 -1.8076 -2.0989
  279MOL0     H37613   8.150   7.482  10.129 -2.3508 -0.1310  3.1234
  279MOL0     H37614   8.081   7.766  10.186  0.6822  1.2869 -2.5101
  279MOL0     H37615   7.972   7.623  10.191  0.0166 -0.1249  0.3635
  279MOL0     H37616   7.908   7.514   9.935  2.3824 -1.0473  1.8534
  279MOL0     H37617   7.830   7.783   9.657  2.9387  1.1545  1.2922
  279MOL0     H37618   7.894   7.614   9.638 -0.0492  0.2313 -0.2741
  279MOL0     H37619   7.639   7.685   9.781  0.5664  0.2243 -1.4405
  279MOL0     H37620   7.717   7.522   9.765 -0.6877  0.4716  2.4092
  279MOL0     H37621   7.692   7.585   9.497  1.7981 -1.1079  2.3824
  279MOL0     H37622   7.584   7.709   9.567 -0.4133  0.2509 -1.1618
  279MOL0     H37623   7.455   7.522   9.687  0.0287  0.0590  0.2174
  279MOL0     H37624   7.572   7.405   9.618  1.1930  1.1223  0.4803
  279MOL0     H37625   7.390   7.273   9.621 -0.1739 -1.0463  1.1248
  279MOL0     H37626   7.126   7.104   9.654  2.3797  0.6253  0.5173
  279MOL0     H37627   7.159   6.996   9.504 -0.6109 -2.6791  2.7053
  279MOL0     H37628   7.282   7.027   9.623  0.6186  1.6001  1.1972
  279MOL0     H37629   6.891   6.993   9.184  1.3673  0.8851  1.8057
  279MOL0     H37630   6.670   6.871   9.147  4.4278 -0.5510 -1.0185
  279MOL0     H37631   6.283   7.090   9.195 -0.9820  0.9874 -0.3097
  279MOL0     H37632   6.318   7.046   9.026  0.9881  1.1416  0.2729
  279MOL0     H37633   6.105   6.947   9.104 -1.3582 -0.6930  2.5297
  279MOL0     H37634   6.229   6.834   9.058 -1.0215  0.7145 -1.1823
  279MOL0     H37635   6.243   6.939   9.342  0.9941  0.1581 -1.2325
  279MOL0     H37636   6.245   6.769   9.313  1.0037  0.9112  1.1856
  279MOL0     H37637   5.986   6.923   9.315 -0.6189  0.0028 -1.3218
  279MOL0     H37638   5.996   6.769   9.253  1.0802  0.5348  0.4820
  279MOL0     H37639   6.061   6.856   9.546 -0.8633  1.3941 -0.9957
  279MOL0     H37640   6.069   6.691   9.500  2.2185  0.6670 -0.0819
  279MOL0     H37641   5.839   6.670   9.444  1.5845 -0.4747 -0.5525
  279MOL0     H37642   5.871   6.721   9.609 -0.5522  1.7113  0.6895
  279MOL0     H37643   5.720   6.834   9.392  0.5031 -1.2802 -0.5327
  279MOL0     H37644   5.794   6.966   9.483 -3.3241  0.7037 -0.4441
  279MOL0     H37645   5.567   6.907   9.540  0.5489  0.0021 -1.6127
  279MOL0     H37646   5.658   6.921   9.684  0.2777 -4.2170  3.0188
  279MOL0     H37647   6.455   7.222   9.242  0.3546  1.3419 -0.7119
  279MOL0     H37648   6.665   7.355   9.247 -1.6750 -1.4168  0.8551
  279MOL0     H37649   7.083   7.420   9.258  2.1565  0.3112 -1.2082
  279MOL0     H37650   7.319   7.524   9.303  0.8394 -0.6633  0.2935
  279MOL0     H37651   8.983   7.862  10.229 -0.9589 -0.9908  0.4028
  279MOL0     H37652   9.231   7.917  10.227 -0.8607 -0.1155  0.0323
  279MOL0     H37653   9.740   7.638  10.541  0.6491 -3.1065 -0.4791
  279MOL0     H37654   9.965   7.691  10.503 -1.2887  1.4771  1.8926
  279MOL0     H37655  10.240   7.731  10.271 -0.3703  2.5266 -0.2612
  279MOL0     H37656  10.155   7.688  10.409 -0.7902 -0.4616 -0.3504
  279MOL0     H37657  10.071   7.557  10.146  0.1174 -1.1909 -0.1709
  279MOL0     H37658  10.040   7.494  10.314 -1.4693  2.5773  0.7921
  279MOL0     H37659  10.302   7.532  10.172 -0.0964 -2.4155 -2.7933
  279MOL0     H37660  10.225   7.380  10.175  1.5008 -2.0343  2.8657
  279MOL0     H37661  10.256   7.330  10.389 -2.1749  0.4337 -4.1388
  279MOL0     H37662  10.308   7.490  10.453  3.3231  1.8312 -0.9292
  279MOL0     H37663  10.665   7.329  10.352 -0.0040  0.1833 -0.5835
  279MOL0     H37664   9.849   7.910  10.147  0.8555  1.4727  1.4464
  279MOL0     H37665   9.603   7.861  10.200 -0.7196  1.4241  1.9121
  280MOL0     O37666   2.491   6.539   7.037  0.4829 -0.5785 -0.2086
  280MOL0     C37667   2.475   6.660   7.044 -1.0214 -0.7685  0.1538
  280MOL0     O37668   2.364   6.732   7.057  0.2628  0.0400 -0.7753
  280MOL0     C37669   2.240   6.668   7.027 -0.2458  0.0083  0.7633
  280MOL0     C37670   2.142   6.746   6.963 -0.0385 -1.4565  0.2885
  280MOL0     C37671   2.012   6.710   6.956  0.0834  0.4726 -0.1956
  280MOL0     C37672   1.969   6.584   7.007  0.0717 -0.2863  0.6705
  280MOL0     O37673   1.841   6.547   7.012  0.4659 -0.7024  0.2746
  280MOL0     C37674   1.748   6.623   6.941  0.3586  1.3536 -0.3656
  280MOL0     C37675   1.614   6.544   6.926  0.8683 -0.2346 -0.2519
  280MOL0     C37676   1.609   6.411   6.867 -0.0197 -0.4537 -0.7347
  280MOL0     C37677   1.599   6.401   6.718  0.1407 -1.1893  0.6678
  280MOL0     C37678   1.579   6.270   6.665  0.0859  1.0380 -0.0013
  280MOL0     C37679   1.510   6.278   6.531  0.5408  0.2031  0.3661
  280MOL0     C37680   1.468   6.145   6.477 -0.6480  0.1607 -0.5512
  280MOL0     C37681   1.405   6.183   6.340  0.8880  0.4679 -0.5829
  280MOL0     N37682   1.371   6.064   6.272 -0.2995  0.3127  0.4056
  280MOL0     C37683   1.247   6.007   6.257  0.0128  0.5694 -0.4445
  280MOL0     C37684   1.277   5.886   6.199 -0.3036 -0.9909  0.2282
  280MOL0     C37685   1.183   5.781   6.149  0.0953 -0.0227  0.4323
  280MOL0     C37686   1.027   5.828   6.156 -0.1965  0.3518  0.4304
  280MOL0     C37687   0.927   5.725   6.110  0.4530  0.5997 -1.0900
  280MOL0     C37688   0.921   5.599   6.194 -0.6043 -1.0297  0.0079
  280MOL0     O37689   0.808   5.515   6.158  0.0246  0.6540 -0.2573
  280MOL0     C37690   0.681   5.548   6.187 -0.4514  0.6805 -0.2458
  280MOL0     C37691   0.636   5.659   6.267  0.1565  0.5760 -0.2009
  280MOL0     C37692   0.503   5.666   6.310 -0.7932  0.0404  1.2613
  280MOL0     C37693   0.475   5.761   6.420  0.4114 -0.8874 -0.3833
  280MOL0     C37694   0.407   5.574   6.271 -0.3270  1.6976 -0.1330
  280MOL0     C37695   0.269   5.575   6.303  0.6096 -1.1372  0.2006
  280MOL0     O37696   0.214   5.698   6.337 -0.7112  0.1355  0.4196
  280MOL0     C37697   0.077   5.692   6.349  0.0999  0.2655  0.0476
  280MOL0     C37698   0.023   5.659   6.473 -0.2535  0.0992  0.8182
  280MOL0     C37699  -0.112   5.642   6.493  0.0086  0.2151 -0.1505
  280MOL0     C37700  -0.201   5.673   6.388 -0.6980  0.0805 -0.2137
  280MOL0     O37701  -0.332   5.682   6.419  0.6446 -0.6148  0.0720
  280MOL0     C37702  -0.438   5.699   6.317 -1.0441 -0.6491 -0.4110
  280MOL0     C37703  -0.564   5.647   6.378 -0.9508  0.3262  0.0103
  280MOL0     C37704  -0.556   5.501   6.426  1.0002 -0.3728  0.3811
  280MOL0     C37705  -0.706   5.450   6.463 -0.5334  0.4549  1.2730
  280MOL0     C37706  -0.686   5.304   6.491  0.7813 -0.5844 -1.1908
  280MOL0     C37707  -0.807   5.225   6.543  0.2529 -0.3611  0.1033
  280MOL0     C37708  -0.794   5.080   6.580 -0.5626 -0.8838 -1.0735
  280MOL0     C37709  -0.673   5.051   6.667 -0.5735 -0.2211  0.5759
  280MOL0    Cl37710  -0.532   5.044   6.555  0.2883  0.4114 -0.1282
  280MOL0     C37711  -0.151   5.698   6.258 -0.1109  0.4938  0.0169
  280MOL0     C37712  -0.010   5.706   6.240  0.6031  0.0818  0.4632
  280MOL0     O37713   0.206   5.469   6.294  0.1066  0.3434  0.2524
  280MOL0     C37714   0.458   5.460   6.196 -0.5618 -0.0874  0.3546
  280MOL0     C37715   0.596   5.454   6.155  0.6869 -1.1791  0.3181
  280MOL0     N37716   1.413   5.883   6.176 -0.7666  0.2930  0.5571
  280MOL0     N37717   1.461   5.985   6.218 -0.5828 -0.2322 -0.1455
  280MOL0     C37718   2.068   6.494   7.054 -0.0193  0.3063  0.3706
  280MOL0     C37719   2.201   6.539   7.068  0.9592 -0.0361  0.8003
  280MOL0     C37720   2.598   6.747   7.036 -0.4318 -0.6028 -0.3973
  280MOL0     C37721   2.726   6.693   7.034  0.2991  0.1674 -0.3103
  280MOL0     C37722   2.839   6.772   7.030  0.2770  0.3170 -0.0539
  280MOL0     C37723   2.837   6.909   7.046  0.3496  0.0680  0.8726
  280MOL0     O37724   2.957   6.967   7.071 -0.0328  0.4979  0.7446
  280MOL0     C37725   2.970   7.107   7.075  0.9185  0.2452 -0.7204
  280MOL0     C37726   3.122   7.135   7.097  0.5688  0.0234 -0.7674
  280MOL0     C37727   3.203   7.124   6.962  0.7491  0.3373 -1.0065
  280MOL0     C37728   3.354   7.137   6.993  1.0307  0.4360 -0.0425
  280MOL0     C37729   3.438   7.105   6.874  0.5366  0.0247  0.1095
  280MOL0     C37730   3.500   7.086   6.772  0.3902 -0.6445 -0.3436
  280MOL0     C37731   2.710   6.963   7.047 -0.7609 -0.3532 -0.4239
  280MOL0     C37732   2.596   6.887   7.038  0.4156 -0.8155 -0.1847
  280MOL0     H37733   2.173   6.847   6.937 -0.2529 -1.2582  0.7778
  280MOL0     H37734   1.951   6.792   6.920  0.9568  0.7869 -1.0287
  280MOL0     H37735   1.722   6.717   6.991 -1.9024  1.2265 -1.1553
  280MOL0     H37736   1.782   6.639   6.838 -0.0846  1.4282 -0.5046
  280MOL0     H37737   1.561   6.540   7.022  1.3481 -1.6427 -0.0228
  280MOL0     H37738   1.543   6.600   6.865 -0.2129 -1.3665 -0.0635
  280MOL0     H37739   1.691   6.343   6.891 -0.2036 -1.5278 -2.8858
  280MOL0     H37740   1.513   6.366   6.895 -0.2774  2.3793  3.9115
  280MOL0     H37741   1.515   6.466   6.694  1.3050 -0.1801 -0.8815
  280MOL0     H37742   1.688   6.450   6.678  0.9864 -3.4325 -0.3489
  280MOL0     H37743   1.676   6.224   6.641 -0.2979 -0.1233  0.5911
  280MOL0     H37744   1.528   6.208   6.740  1.3563 -0.2956 -0.1872
  280MOL0     H37745   1.412   6.321   6.555 -0.0347  0.3847 -1.9869
  280MOL0     H37746   1.563   6.333   6.453  1.0863 -2.0445 -0.9413
  280MOL0     H37747   1.543   6.067   6.468 -1.4784 -0.5710 -1.3807
  280MOL0     H37748   1.390   6.096   6.537 -1.9266  1.3096 -1.2207
  280MOL0     H37749   1.479   6.239   6.281  4.0152 -1.1250  1.5392
  280MOL0     H37750   1.319   6.248   6.352 -0.0720 -0.3281 -2.5982
  280MOL0     H37751   1.149   6.044   6.288  0.7185  1.4268  0.8380
  280MOL0     H37752   1.209   5.770   6.043 -2.2760  3.9809 -0.8183
  280MOL0     H37753   1.199   5.685   6.198  0.6802 -0.3142 -0.3162
  280MOL0     H37754   1.018   5.921   6.099  1.4882 -0.5730 -1.4496
  280MOL0     H37755   1.003   5.843   6.262 -2.7066 -1.7435  0.2656
  280MOL0     H37756   0.939   5.706   6.003 -0.1575  2.7221 -1.5883
  280MOL0     H37757   0.825   5.764   6.122  1.1186  1.9837  0.5038
  280MOL0     H37758   0.904   5.624   6.299 -0.3538 -0.5535 -0.0599
  280MOL0     H37759   1.014   5.541   6.193 -0.4443 -0.7710 -0.4203
  280MOL0     H37760   0.711   5.732   6.298  0.7251  0.1902 -0.6438
  280MOL0     H37761   0.572   5.781   6.467 -0.4834  3.1920  0.1420
  280MOL0     H37762   0.446   5.857   6.376  1.5397 -1.1946 -1.8839
  280MOL0     H37763   0.402   5.739   6.498 -0.6552 -0.6245 -1.2811
  280MOL0     H37764   0.106   5.643   6.542 -0.6079  0.0292  1.2314
  280MOL0     H37765  -0.145   5.625   6.595  0.2446 -0.6333 -0.2088
  280MOL0     H37766  -0.437   5.807   6.302 -0.4997 -0.4405  0.9623
  280MOL0     H37767  -0.413   5.650   6.223 -2.5190 -0.3711 -0.9700
  280MOL0     H37768  -0.592   5.715   6.460  1.3963  0.9573  0.3744
  280MOL0     H37769  -0.637   5.661   6.298  1.3470  2.0849 -1.9556
  280MOL0     H37770  -0.511   5.506   6.526 -0.1411  1.8091  0.8666
  280MOL0     H37771  -0.513   5.439   6.347 -0.6328  1.9005 -2.5420
  280MOL0     H37772  -0.749   5.509   6.544 -0.2199  0.6622  1.2902
  280MOL0     H37773  -0.777   5.469   6.382 -0.9858  1.2354  1.8403
  280MOL0     H37774  -0.610   5.287   6.568 -1.6743 -0.8904  1.3420
  280MOL0     H37775  -0.644   5.262   6.399  0.8801  1.0001 -1.9046
  280MOL0     H37776  -0.858   5.277   6.624 -1.4399 -2.4134  0.4442
  280MOL0     H37777  -0.881   5.221   6.463  0.7404 -0.3578 -0.3521
  280MOL0     H37778  -0.787   5.021   6.488 -0.5022 -1.0670 -0.9540
  280MOL0     H37779  -0.880   5.049   6.639 -0.8847  0.1487 -0.9857
  280MOL0     H37780  -0.682   4.952   6.714  1.2524 -0.5372  0.3319
  280MOL0     H37781  -0.671   5.126   6.747 -0.6775  0.1242  0.2580
  280MOL0     H37782  -0.220   5.725   6.179  1.2767 -0.0920 -1.4704
  280MOL0     H37783   0.025   5.721   6.139 -1.3699 -1.4979 -0.5278
  280MOL0     H37784   0.396   5.374   6.172 -0.1008 -0.5219  0.7097
  280MOL0     H37785   0.618   5.367   6.093  1.1505  1.0857 -2.9869
  280MOL0     H37786   2.054   6.393   7.088  2.4603 -0.8761 -1.7174
  280MOL0     H37787   2.266   6.470   7.121  0.9919 -0.1726  0.5827
  280MOL0     H37788   2.730   6.586   7.051  0.0661  0.6243  3.5966
  280MOL0     H37789   2.928   6.711   7.044 -2.2264 -4.0212 -1.0492
  280MOL0     H37790   2.933   7.155   6.984  4.2793  0.4772 -2.1393
  280MOL0     H37791   2.911   7.150   7.157 -0.6920  0.7459 -2.0926
  280MOL0     H37792   3.155   7.061   7.171 -0.7098 -1.0304 -1.2112
  280MOL0     H37793   3.131   7.234   7.142  0.9370 -0.4905  0.3412
  280MOL0     H37794   3.162   7.180   6.878  1.5168 -0.2279 -1.7715
  280MOL0     H37795   3.190   7.022   6.924  1.6543 -0.4773  0.7423
  280MOL0     H37796   3.375   7.068   7.075 -1.9669 -1.0687 -0.3866
  280MOL0     H37797   3.369   7.243   7.018  1.3234  0.1973  0.8267
  280MOL0     H37798   3.558   7.077   6.682 -1.1233  0.0705 -1.4441
  280MOL0     H37799   2.693   7.070   7.049  2.5782  0.3737 -2.3368
  280MOL0     H37800   2.509   6.951   7.049  1.4019  0.2854  1.8388
  281MOL0     O37801   0.888   8.103   8.497  0.3343  0.6751  0.5270
  281MOL0     C37802   0.957   8.000   8.474  0.1258  0.3229  0.6894
  281MOL0     O37803   0.928   7.868   8.503  0.3888 -0.0016 -0.1675
  281MOL0     C37804   0.810   7.858   8.574 -0.9958  0.6943 -0.2288
  281MOL0     C37805   0.678   7.893   8.529  0.8569 -0.5469 -0.7972
  281MOL0     C37806   0.569   7.874   8.618  0.2771  0.5302 -0.0143
  281MOL0     C37807   0.578   7.832   8.754  0.3185 -0.0367 -0.0608
  281MOL0     O37808   0.475   7.810   8.840  0.6012 -0.0448  0.0798
  281MOL0     C37809   0.344   7.846   8.792  0.1174 -0.7598  0.0937
  281MOL0     C37810   0.255   7.820   8.910  0.3512 -0.6184  0.3131
  281MOL0     C37811   0.114   7.872   8.896 -0.0584  1.0368 -0.1580
  281MOL0     C37812   0.040   7.824   9.028 -0.3879 -0.1307  0.3391
  281MOL0     C37813  -0.107   7.835   9.007  0.6051 -0.0792 -0.5168
  281MOL0     C37814  -0.183   7.757   9.121  0.2547 -0.4776 -1.0361
  281MOL0     C37815  -0.331   7.798   9.104  0.3604  0.0969 -0.3364
  281MOL0     C37816  -0.409   7.745   9.222  0.4695 -0.3336  0.5228
  281MOL0     N37817  -0.554   7.785   9.202  0.2344 -0.3902 -0.4840
  281MOL0     C37818  -0.632   7.741   9.098 -0.6306  0.2974  0.7592
  281MOL0     C37819  -0.755   7.796   9.101  0.6914 -0.0276  0.2593
  281MOL0     C37820  -0.878   7.771   9.029  0.2253 -0.0805  0.7542
  281MOL0     C37821  -0.893   7.863   8.907 -0.3511 -0.4645  0.0721
  281MOL0     C37822  -0.922   8.010   8.944  0.3109  0.2458  0.2874
  281MOL0     C37823  -0.920   8.111   8.826  0.2901 -0.0321  0.2081
  281MOL0     O37824  -0.886   8.247   8.842  0.0697 -0.0153 -0.4450
  281MOL0     C37825  -0.992   8.318   8.871 -0.2620 -0.5855  0.0872
  281MOL0     C37826  -1.003   8.349   9.007 -0.2458  0.2399 -0.4572
  281MOL0     C37827  -1.106   8.426   9.058  0.6253 -0.1873  1.1221
  281MOL0     C37828  -1.096   8.466   9.212 -0.5801 -0.1280 -0.0768
  281MOL0     C37829  -1.195   8.493   8.967 -0.3253 -0.3986  0.3935
  281MOL0     C37830  -1.299   8.581   9.020  0.5439 -1.0020 -0.4707
  281MOL0     O37831  -1.327   8.699   8.950 -0.0425  0.7965  0.3742
  281MOL0     C37832  -1.432   8.771   9.004  0.3028 -0.7911  0.3139
  281MOL0     C37833  -1.429   8.821   9.137 -1.2745 -0.4058  0.6722
  281MOL0     C37834  -1.543   8.879   9.201 -0.3085  0.2321  0.4372
  281MOL0     C37835  -1.666   8.900   9.130 -0.5672 -0.8946  0.6362
  281MOL0     O37836  -1.780   8.957   9.193 -0.4448 -0.0678  0.5676
  281MOL0     C37837  -1.792   8.943   9.331  0.6580 -0.4790  0.0137
  281MOL0     C37838  -1.939   8.993   9.387  0.4230  0.4509  1.2103
  281MOL0     C37839  -2.043   8.881   9.369  0.0278  0.6979  0.7915
  281MOL0     C37840  -2.178   8.892   9.444 -0.2142 -0.1790 -0.4854
  281MOL0     C37841  -2.271   8.790   9.400  0.1327  0.3722  0.6228
  281MOL0     C37842  -2.224   8.651   9.459  1.1204 -0.2166  0.8037
  281MOL0     C37843  -2.333   8.540   9.429  1.2924 -0.1530  0.9169
  281MOL0     C37844  -2.352   8.464   9.555 -0.2475  0.8164 -0.7184
  281MOL0    Cl37845  -2.461   8.544   9.680 -0.1864  0.0078 -0.3741
  281MOL0     C37846  -1.656   8.863   8.995  0.9326  0.2965 -0.0278
  281MOL0     C37847  -1.548   8.808   8.936 -1.2876  0.3043 -0.4015
  281MOL0     O37848  -1.353   8.545   9.130  0.4831 -0.3809  0.5270
  281MOL0     C37849  -1.181   8.470   8.830 -0.0316  0.1857 -1.1504
  281MOL0     C37850  -1.077   8.390   8.787 -0.1759 -0.6689 -0.1568
  281MOL0     N37851  -0.745   7.878   9.221  0.1203  0.4935  0.0369
  281MOL0     N37852  -0.632   7.867   9.282  0.0521  0.0219  1.0452
  281MOL0     C37853   0.709   7.804   8.796 -0.0819 -0.4861 -1.1373
  281MOL0     C37854   0.818   7.814   8.706  0.3361 -0.2912 -0.6788
  281MOL0     C37855   1.093   8.019   8.415 -0.7311  0.6205  0.3157
  281MOL0     C37856   1.148   8.144   8.411 -0.3030 -0.4166 -0.2936
  281MOL0     C37857   1.267   8.174   8.340  0.2790  0.1067 -0.5525
  281MOL0     C37858   1.337   8.073   8.282  0.1719 -0.5106 -0.1263
  281MOL0     O37859   1.464   8.092   8.227 -0.3018 -0.4295  0.0266
  281MOL0     C37860   1.564   8.172   8.292 -0.2858 -0.1640  0.5421
  281MOL0     C37861   1.705   8.122   8.268 -0.5033  0.6005 -0.8869
  281MOL0     C37862   1.753   8.140   8.129 -0.3580 -1.3432  0.0913
  281MOL0     C37863   1.904   8.163   8.116 -0.2297  0.6058  0.9331
  281MOL0     C37864   1.945   8.193   7.976  0.3096 -0.2207  0.1475
  281MOL0     C37865   1.984   8.200   7.861  0.4001  0.4424 -0.1127
  281MOL0     C37866   1.286   7.946   8.290 -0.1052  0.6513  0.0104
  281MOL0     C37867   1.166   7.914   8.351 -0.4977  0.2232  0.1846
  281MOL0     H37868   0.667   7.932   8.429  0.8952  1.6277 -0.0146
  281MOL0     H37869   0.469   7.907   8.593  0.4079  4.1000  3.0827
  281MOL0     H37870   0.339   7.952   8.765  2.5364 -1.2067 -2.5030
  281MOL0     H37871   0.315   7.799   8.698 -1.0892  1.8747 -0.9530
  281MOL0     H37872   0.252   7.713   8.929  1.5098 -0.7061  0.0440
  281MOL0     H37873   0.287   7.882   8.995 -0.3613 -1.2635  1.0772
  281MOL0     H37874   0.103   7.980   8.878 -1.3755  0.8792 -0.4356
  281MOL0     H37875   0.075   7.812   8.813  0.8746  1.4504 -0.9072
  281MOL0     H37876   0.064   7.720   9.054  0.4722  0.0529  0.3236
  281MOL0     H37877   0.081   7.875   9.115  0.2814  0.4890 -0.3209
  281MOL0     H37878  -0.133   7.941   9.002 -0.9369 -0.4379 -0.7166
  281MOL0     H37879  -0.138   7.790   8.912 -3.6002 -0.9165  1.0282
  281MOL0     H37880  -0.170   7.649   9.107 -0.0215 -0.7722  0.7152
  281MOL0     H37881  -0.140   7.796   9.213 -2.2263  1.9249 -0.7752
  281MOL0     H37882  -0.346   7.906   9.094  1.5581  0.7242  3.3008
  281MOL0     H37883  -0.352   7.758   9.004 -0.2430  3.6594 -1.7887
  281MOL0     H37884  -0.377   7.794   9.314  1.8094 -1.3094  0.6120
  281MOL0     H37885  -0.391   7.637   9.235  0.3146 -0.8205 -2.5386
  281MOL0     H37886  -0.599   7.658   9.037 -2.0682  1.0006 -1.0866
  281MOL0     H37887  -0.886   7.669   8.991  0.9803 -0.4972  1.6896
  281MOL0     H37888  -0.963   7.783   9.097  0.7512 -0.3126  1.4609
  281MOL0     H37889  -0.983   7.829   8.855 -0.0409  0.0671 -0.8388
  281MOL0     H37890  -0.803   7.855   8.845  0.5938 -1.1911  1.4781
  281MOL0     H37891  -0.844   8.047   9.012  1.8312 -1.2270 -0.5728
  281MOL0     H37892  -1.014   8.034   8.999 -0.1333  2.4591 -1.3116
  281MOL0     H37893  -1.024   8.100   8.793  0.9654 -2.4429 -1.3407
  281MOL0     H37894  -0.853   8.066   8.753  0.0758  2.1053 -1.4132
  281MOL0     H37895  -0.936   8.302   9.078 -0.1389 -0.5882 -1.0891
  281MOL0     H37896  -1.141   8.564   9.230  1.1757  0.4122  1.6816
  281MOL0     H37897  -1.145   8.384   9.265  0.0129 -0.9660 -0.7994
  281MOL0     H37898  -0.993   8.469   9.248 -0.4820 -3.0178  0.1100
  281MOL0     H37899  -1.345   8.804   9.204 -0.5372  0.5244  0.0200
  281MOL0     H37900  -1.540   8.915   9.303 -1.3847 -0.2222  0.6418
  281MOL0     H37901  -1.782   8.837   9.356 -3.2072 -0.9143  0.3288
  281MOL0     H37902  -1.710   8.994   9.383 -1.7996  2.8895  0.9498
  281MOL0     H37903  -1.936   9.016   9.494  1.0535 -0.0727  1.3095
  281MOL0     H37904  -1.980   9.081   9.336  0.0695 -0.6694 -0.5400
  281MOL0     H37905  -1.993   8.789   9.398 -1.0319 -0.1719 -0.0841
  281MOL0     H37906  -2.070   8.873   9.263  2.4802  2.5433 -0.0805
  281MOL0     H37907  -2.158   8.870   9.549  2.4881 -0.3620 -0.9716
  281MOL0     H37908  -2.218   8.992   9.424  0.2729 -0.0195 -0.6752
  281MOL0     H37909  -2.288   8.790   9.292  1.3370  0.5222  0.4142
  281MOL0     H37910  -2.371   8.807   9.439 -0.4061  1.0500 -0.9633
  281MOL0     H37911  -2.128   8.620   9.417  1.3691 -1.0896  1.9619
  281MOL0     H37912  -2.209   8.664   9.567  1.2370 -0.7995  0.8583
  281MOL0     H37913  -2.288   8.476   9.351  0.2349  0.2067 -0.0240
  281MOL0     H37914  -2.424   8.578   9.381  1.5462  1.2756  1.5274
  281MOL0     H37915  -2.259   8.439   9.607 -0.4507 -0.5069 -0.9370
  281MOL0     H37916  -2.398   8.370   9.523 -1.5189  1.0605  0.2962
  281MOL0     H37917  -1.750   8.879   8.942 -0.8692  0.3695  2.9895
  281MOL0     H37918  -1.544   8.790   8.829 -1.7393 -0.0606 -0.3620
  281MOL0     H37919  -1.257   8.520   8.771 -0.4510  2.0544  0.8296
  281MOL0     H37920  -1.068   8.368   8.681 -2.2577 -0.1472 -0.4932
  281MOL0     H37921   0.716   7.777   8.901  1.4081  1.7889 -0.5952
  281MOL0     H37922   0.918   7.793   8.744  0.6264 -1.9556 -2.2584
  281MOL0     H37923   1.094   8.224   8.460 -0.9181 -0.8235 -0.2911
  281MOL0     H37924   1.307   8.274   8.332  0.5312  0.0420 -0.1416
  281MOL0     H37925   1.565   8.273   8.249 -2.9192 -0.4626 -0.3652
  281MOL0     H37926   1.545   8.182   8.399  0.2503  1.0332  0.5409
  281MOL0     H37927   1.711   8.017   8.301 -1.6705  1.1850  1.3388
  281MOL0     H37928   1.766   8.184   8.334  2.4679 -1.5445 -1.3683
  281MOL0     H37929   1.709   8.231   8.088  0.5409 -1.5360 -1.3474
  281MOL0     H37930   1.734   8.059   8.057 -2.8166  1.7595 -3.0539
  281MOL0     H37931   1.952   8.066   8.134 -1.4606 -0.5827 -1.6057
  281MOL0     H37932   1.927   8.241   8.188 -0.6532  1.5623  0.0609
  281MOL0     H37933   2.003   8.216   7.757  2.6333 -0.6015  0.0704
  281MOL0     H37934   1.335   7.860   8.244  1.1124  1.2422  0.1578
  281MOL0     H37935   1.140   7.808   8.349  0.5959 -0.0552 -0.0809
  282MOL0     O37936   7.769   3.267   0.479  0.4577  0.3398  0.2838
  282MOL0     C37937   7.839   3.273   0.575 -0.5142 -0.1675 -0.0378
  282MOL0     O37938   7.806   3.324   0.694  0.1711  0.3514 -0.6622
  282MOL0     C37939   7.680   3.368   0.713  0.4616  0.0607 -0.6728
  282MOL0     C37940   7.565   3.331   0.649 -0.0116 -0.1440 -0.3459
  282MOL0     C37941   7.441   3.403   0.666  0.0065 -0.1311  0.4567
  282MOL0     C37942   7.430   3.515   0.752  0.2700  0.0686 -0.1523
  282MOL0     O37943   7.311   3.583   0.774  0.4303 -0.3043 -0.1380
  282MOL0     C37944   7.275   3.674   0.672 -0.6046  0.3545  0.4308
  282MOL0     C37945   7.132   3.698   0.638 -0.2012  0.2595 -0.1083
  282MOL0     C37946   7.118   3.816   0.547  0.2573 -0.8262  0.1757
  282MOL0     C37947   6.971   3.831   0.511  0.0648 -0.0010 -0.2500
  282MOL0     C37948   6.954   3.961   0.442 -0.4347 -0.9123  0.1345
  282MOL0     C37949   6.805   3.999   0.420 -0.3984  0.5384 -0.9293
  282MOL0     C37950   6.799   4.145   0.365 -0.1617  0.0509  1.4807
  282MOL0     C37951   6.882   4.261   0.428  0.3392  0.5012  0.0974
  282MOL0     N37952   6.840   4.295   0.567 -0.0865  0.3722 -0.2061
  282MOL0     C37953   6.753   4.399   0.591  0.3630 -0.6850 -0.5917
  282MOL0     C37954   6.735   4.397   0.731  0.3227 -0.6806 -0.5200
  282MOL0     C37955   6.669   4.502   0.818 -0.1024 -0.0882  0.5816
  282MOL0     C37956   6.526   4.477   0.827  0.0656 -0.0828 -0.2542
  282MOL0     C37957   6.445   4.592   0.891 -0.0677  0.4032  0.3855
  282MOL0     C37958   6.294   4.553   0.872 -0.4119 -0.7890  0.1817
  282MOL0     O37959   6.217   4.680   0.881  0.3861 -0.0811  0.8951
  282MOL0     C37960   6.077   4.673   0.882 -0.1418  0.7598  0.3691
  282MOL0     C37961   5.998   4.556   0.864 -0.3635 -0.1903  0.5130
  282MOL0     C37962   5.864   4.562   0.877  0.6301 -0.0316 -0.1603
  282MOL0     C37963   5.780   4.439   0.859 -0.2769  0.7841 -0.0518
  282MOL0     C37964   5.796   4.681   0.912 -0.3568  0.7087  0.6306
  282MOL0     C37965   5.644   4.700   0.937 -0.5756  0.1820 -0.1955
  282MOL0     O37966   5.598   4.827   0.915 -0.2038 -0.3979 -0.2902
  282MOL0     C37967   5.469   4.859   0.940  0.6963  0.5428  0.2174
  282MOL0     C37968   5.407   4.950   0.864  0.0667  0.4206  0.2084
  282MOL0     C37969   5.272   4.995   0.888 -0.1658  0.0538 -0.2587
  282MOL0     C37970   5.202   4.935   0.990  0.4761 -0.6401 -0.6354
  282MOL0     O37971   5.067   4.957   1.002 -0.0978 -0.4336 -0.3255
  282MOL0     C37972   4.989   4.904   0.893 -0.1777 -0.0643 -0.0840
  282MOL0     C37973   4.837   4.898   0.935 -0.6660  0.1425  0.1166
  282MOL0     C37974   4.746   4.811   0.849  0.4226  0.4286 -0.2038
  282MOL0     C37975   4.596   4.820   0.890 -0.1834  0.4311  1.0575
  282MOL0     C37976   4.519   4.718   0.813  0.0916  0.3237  0.1429
  282MOL0     C37977   4.372   4.699   0.854  0.0526  0.4363  0.2992
  282MOL0     C37978   4.292   4.649   0.735 -1.0354  0.5349  0.5694
  282MOL0     C37979   4.148   4.680   0.769 -0.3572 -0.2068  0.1814
  282MOL0    Cl37980   4.064   4.650   0.608 -0.0978 -0.3605  0.1569
  282MOL0     C37981   5.267   4.844   1.077  0.4213 -0.0257  0.0336
  282MOL0     C37982   5.393   4.805   1.040 -0.1330  0.6950 -0.1635
  282MOL0     O37983   5.578   4.598   0.951  0.2666 -0.2714  0.1186
  282MOL0     C37984   5.882   4.792   0.930  0.4764 -0.3492 -0.2131
  282MOL0     C37985   6.016   4.790   0.920 -1.0156 -0.1022  0.0726
  282MOL0     N37986   6.812   4.283   0.775 -0.5145 -1.4622  0.4464
  282MOL0     N37987   6.875   4.227   0.676  0.1153 -0.1936 -0.4278
  282MOL0     C37988   7.543   3.540   0.826 -0.4111  0.1315  0.0762
  282MOL0     C37989   7.668   3.468   0.805  0.3239 -0.2417 -0.3840
  282MOL0     C37990   7.978   3.218   0.553 -0.2641  0.1707 -0.9224
  282MOL0     C37991   8.017   3.157   0.427 -0.7935  0.0679 -0.2944
  282MOL0     C37992   8.149   3.110   0.412 -0.0056 -0.4458  0.9248
  282MOL0     C37993   8.239   3.118   0.522 -0.8302 -0.1041  0.0255
  282MOL0     O37994   8.373   3.094   0.513  0.0701  0.1174 -0.0168
  282MOL0     C37995   8.418   3.014   0.409  0.2891 -0.0098  0.0561
  282MOL0     C37996   8.565   2.990   0.405  0.1205 -0.1208  0.1552
  282MOL0     C37997   8.615   2.916   0.276  0.0643 -0.1788 -0.7429
  282MOL0     C37998   8.772   2.911   0.279  0.5841  0.4810 -0.0831
  282MOL0     C37999   8.821   2.840   0.164 -0.2371  0.1346 -0.5157
  282MOL0     C38000   8.862   2.784   0.067  0.7875 -0.0424 -0.0989
  282MOL0     C38001   8.193   3.166   0.649 -0.1725  0.6233  0.5014
  282MOL0     C38002   8.072   3.224   0.661  0.0848 -0.0963  0.3581
  282MOL0     H38003   7.562   3.239   0.591 -0.0318 -0.7417  0.5746
  282MOL0     H38004   7.355   3.379   0.605  1.2965 -1.1589 -1.0547
  282MOL0     H38005   7.323   3.771   0.690 -1.6916  0.9059  0.4280
  282MOL0     H38006   7.316   3.635   0.579 -1.5620  1.1666 -0.3529
  282MOL0     H38007   7.095   3.603   0.597 -0.1953 -0.2738  1.0621
  282MOL0     H38008   7.083   3.718   0.734 -0.9217 -0.0876 -0.3976
  282MOL0     H38009   7.146   3.903   0.607  2.0332 -0.0360 -1.6666
  282MOL0     H38010   7.180   3.808   0.457 -0.1060 -1.7521 -0.0032
  282MOL0     H38011   6.934   3.742   0.458  3.3038  0.2862 -3.4728
  282MOL0     H38012   6.908   3.843   0.599  2.6019  1.4512  1.4987
  282MOL0     H38013   6.986   4.039   0.512 -3.1245 -0.8803  1.4429
  282MOL0     H38014   7.012   3.969   0.350 -0.0185 -1.1334  0.3758
  282MOL0     H38015   6.760   3.921   0.357  1.8788 -0.0683 -1.9215
  282MOL0     H38016   6.752   4.025   0.511  2.1950 -1.6575  1.3921
  282MOL0     H38017   6.822   4.138   0.258 -0.9657 -1.6695  1.3888
  282MOL0     H38018   6.694   4.176   0.363 -0.4788 -0.4285 -3.6150
  282MOL0     H38019   6.874   4.345   0.359 -1.6479  1.3591  1.2592
  282MOL0     H38020   6.988   4.238   0.425 -0.0371 -1.3087 -0.4975
  282MOL0     H38021   6.722   4.475   0.520  2.3169  1.4927  0.7286
  282MOL0     H38022   6.716   4.494   0.917  2.1376 -2.5600 -0.5348
  282MOL0     H38023   6.695   4.593   0.763 -1.0331 -0.3517 -0.3278
  282MOL0     H38024   6.513   4.385   0.885  1.4380  0.8615  1.6336
  282MOL0     H38025   6.494   4.458   0.724  1.4249 -1.9864 -0.3672
  282MOL0     H38026   6.467   4.685   0.836 -0.2977  0.0463 -0.3260
  282MOL0     H38027   6.476   4.604   0.995 -1.0156 -0.3848  0.7720
  282MOL0     H38028   6.267   4.483   0.952  0.0114 -0.4826  0.6056
  282MOL0     H38029   6.283   4.512   0.772  0.5324 -0.2744 -0.1491
  282MOL0     H38030   6.043   4.460   0.842 -1.4137  0.0421 -3.5538
  282MOL0     H38031   5.751   4.397   0.955 -1.6280 -0.1828 -0.8616
  282MOL0     H38032   5.690   4.453   0.798 -0.6932 -1.0095  0.1157
  282MOL0     H38033   5.848   4.373   0.805  1.5711  2.7673 -0.3237
  282MOL0     H38034   5.465   4.983   0.778 -2.5384  0.2579 -1.7520
  282MOL0     H38035   5.230   5.058   0.811  1.1088  1.6397  0.2951
  282MOL0     H38036   5.004   4.966   0.805  1.6065 -0.5892 -0.1749
  282MOL0     H38037   5.017   4.802   0.865 -0.5056 -0.0572 -0.4510
  282MOL0     H38038   4.826   4.856   1.035 -0.3951 -1.1940 -0.3906
  282MOL0     H38039   4.805   5.002   0.943  0.8585  0.7556 -1.1999
  282MOL0     H38040   4.774   4.705   0.851  0.5967  0.4859  0.6771
  282MOL0     H38041   4.745   4.848   0.746 -1.3566  0.1481 -0.3223
  282MOL0     H38042   4.590   4.780   0.992 -1.7484 -3.2201 -0.2867
  282MOL0     H38043   4.565   4.925   0.888  0.3202  0.5795 -1.1058
  282MOL0     H38044   4.576   4.624   0.818  0.5911  0.6151  0.0208
  282MOL0     H38045   4.516   4.750   0.709 -0.4508  0.3394  0.1604
  282MOL0     H38046   4.370   4.633   0.941 -0.2551  0.9409  0.6775
  282MOL0     H38047   4.333   4.798   0.877 -0.8205  0.2289 -0.2517
  282MOL0     H38048   4.305   4.542   0.716  0.4238  0.9163 -0.8188
  282MOL0     H38049   4.324   4.711   0.651  0.3832 -0.1345  0.5784
  282MOL0     H38050   4.131   4.784   0.797 -1.0838  0.2464 -1.8023
  282MOL0     H38051   4.116   4.622   0.856 -1.3190 -0.9409 -0.6231
  282MOL0     H38052   5.214   4.791   1.156 -1.5831 -2.1412 -2.5248
  282MOL0     H38053   5.436   4.730   1.105  3.6842  1.7700 -1.1595
  282MOL0     H38054   5.831   4.885   0.952  3.5694  1.6260 -0.8587
  282MOL0     H38055   6.080   4.876   0.938  2.7592 -2.3837 -1.3255
  282MOL0     H38056   7.538   3.625   0.893 -0.4882 -1.0534  1.6581
  282MOL0     H38057   7.756   3.489   0.865 -1.4689  1.3193  1.8295
  282MOL0     H38058   7.947   3.150   0.343 -0.1608 -0.5536 -0.7872
  282MOL0     H38059   8.181   3.067   0.317 -2.5328 -0.2326 -0.0815
  282MOL0     H38060   8.363   2.920   0.396  1.5797 -0.6842 -0.7968
  282MOL0     H38061   8.398   3.072   0.319 -1.7166 -0.4554  0.1766
  282MOL0     H38062   8.600   2.934   0.492  0.9667 -2.3733 -1.5022
  282MOL0     H38063   8.607   3.090   0.410 -2.2083  0.9202 -0.0163
  282MOL0     H38064   8.593   2.983   0.193 -0.4131  1.7044  0.8168
  282MOL0     H38065   8.569   2.817   0.273  2.5764 -1.4577 -0.3164
  282MOL0     H38066   8.801   2.858   0.370 -0.4853 -0.7406 -0.4207
  282MOL0     H38067   8.819   3.010   0.279 -1.0755  1.3284 -1.8432
  282MOL0     H38068   8.879   2.749  -0.033 -0.9491  2.3010 -1.3066
  282MOL0     H38069   8.256   3.172   0.737  2.0593 -0.4516 -0.9355
  282MOL0     H38070   8.044   3.271   0.755 -1.0084 -0.6529  0.3281
  283MOL0     O38071   1.499   2.908   0.101  0.3216 -0.4038  0.3265
  283MOL0     C38072   1.444   2.982   0.184  0.1947  1.2284  0.5722
  283MOL0     O38073   1.348   2.939   0.276 -0.9161  0.7361  0.0751
  283MOL0     C38074   1.351   2.804   0.315  0.5858 -0.5418 -0.0116
  283MOL0     C38075   1.418   2.773   0.433 -0.1589 -0.1105 -0.0384
  283MOL0     C38076   1.412   2.643   0.475 -0.3307  0.6134  0.1760
  283MOL0     C38077   1.349   2.541   0.402  0.3978 -0.1973 -0.6981
  283MOL0     O38078   1.362   2.404   0.417 -0.2326 -0.5406 -0.5963
  283MOL0     C38079   1.306   2.350   0.532  0.8140 -0.3916  0.9589
  283MOL0     C38080   1.405   2.343   0.652  0.7019 -0.2665  0.3398
  283MOL0     C38081   1.329   2.313   0.780  0.0156  0.0564  0.0995
  283MOL0     C38082   1.417   2.316   0.903  0.0639 -0.4077 -0.3126
  283MOL0     C38083   1.343   2.314   1.038  0.1411  0.4065  0.5779
  283MOL0     C38084   1.262   2.447   1.074 -0.1749  0.1230  0.3090
  283MOL0     C38085   1.173   2.438   1.201  1.3166  0.3731  0.8039
  283MOL0     C38086   1.104   2.582   1.216  0.7533 -0.7352 -0.0635
  283MOL0     N38087   0.998   2.571   1.324 -0.5722  1.7308 -0.2166
  283MOL0     C38088   0.871   2.515   1.309 -0.2671 -0.2614  0.1158
  283MOL0     C38089   0.824   2.498   1.435 -1.2898  0.0914 -0.3189
  283MOL0     C38090   0.690   2.454   1.476 -0.6473 -0.3540 -0.0675
  283MOL0     C38091   0.587   2.570   1.480 -0.5235 -0.1120 -0.1676
  283MOL0     C38092   0.638   2.697   1.527 -0.4860 -0.2347 -0.3880
  283MOL0     C38093   0.547   2.818   1.506  0.6746  0.0868  0.5266
  283MOL0     O38094   0.427   2.797   1.588  0.2580 -0.4123 -0.2020
  283MOL0     C38095   0.330   2.896   1.585 -0.2580  0.2428  0.0079
  283MOL0     C38096   0.242   2.888   1.694 -0.0644  0.3957 -0.1357
  283MOL0     C38097   0.133   2.975   1.701 -1.5315 -1.4505 -1.7698
  283MOL0     C38098   0.049   2.961   1.824 -0.2309  0.2705  0.0102
  283MOL0     C38099   0.115   3.073   1.601  0.3349 -0.3435  0.5798
  283MOL0     C38100  -0.001   3.170   1.596  0.2235 -0.1214 -0.3231
  283MOL0     O38101  -0.098   3.153   1.691  0.2561 -0.1379  0.1519
  283MOL0     C38102  -0.204   3.245   1.696 -0.8655 -0.8657 -0.2832
  283MOL0     C38103  -0.194   3.375   1.753 -0.4349 -0.6604 -0.1827
  283MOL0     C38104  -0.301   3.463   1.782 -0.2363 -0.0306  0.7887
  283MOL0     C38105  -0.420   3.421   1.719  1.2063  0.0501  1.0632
  283MOL0     O38106  -0.522   3.519   1.723  0.4094  0.5760  0.1275
  283MOL0     C38107  -0.641   3.497   1.649 -0.5599  0.2364 -0.2895
  283MOL0     C38108  -0.752   3.438   1.734  0.2222 -0.2346 -0.2078
  283MOL0     C38109  -0.884   3.459   1.661 -0.1335  0.6079 -0.1892
  283MOL0     C38110  -0.895   3.372   1.536  0.3439 -0.3156 -0.6924
  283MOL0     C38111  -1.032   3.410   1.470  1.1872 -0.1797  0.6097
  283MOL0     C38112  -1.047   3.330   1.346 -0.3463 -0.6591  0.3212
  283MOL0     C38113  -1.186   3.338   1.275  0.2114  0.1789  0.5747
  283MOL0     C38114  -1.226   3.483   1.234 -0.8266 -0.0325  0.2785
  283MOL0    Cl38115  -1.135   3.518   1.085  0.3151 -0.5501 -0.4791
  283MOL0     C38116  -0.431   3.299   1.654 -0.5099  0.3967  0.4141
  283MOL0     C38117  -0.327   3.213   1.654  0.1549 -0.6750  0.3661
  283MOL0     O38118   0.000   3.256   1.514 -0.2985  0.3152  0.5663
  283MOL0     C38119   0.206   3.086   1.494  0.5901  0.5005  0.9066
  283MOL0     C38120   0.311   2.993   1.479 -0.2416  0.4779  0.8793
  283MOL0     N38121   0.926   2.531   1.519 -0.0980 -0.1036 -0.6038
  283MOL0     N38122   1.024   2.585   1.455  0.0729 -0.1266 -0.7103
  283MOL0     C38123   1.274   2.585   0.291  0.3259 -0.0451 -0.0815
  283MOL0     C38124   1.270   2.712   0.253  0.2372  0.5373 -0.0555
  283MOL0     C38125   1.466   3.117   0.164  0.2840 -0.5688 -0.1306
  283MOL0     C38126   1.419   3.208   0.263  0.1251  0.4108 -0.5308
  283MOL0     C38127   1.445   3.345   0.260 -0.0186 -0.1798 -0.0270
  283MOL0     C38128   1.499   3.398   0.140  0.2559 -0.5223  0.0295
  283MOL0     O38129   1.493   3.533   0.131 -0.0411 -0.2996  0.3497
  283MOL0     C38130   1.458   3.592   0.003  1.1405  0.3345 -0.3883
  283MOL0     C38131   1.375   3.719   0.026  0.2286 -0.7200  0.6903
  283MOL0     C38132   1.450   3.839   0.066  0.2474 -0.2724 -0.8028
  283MOL0     C38133   1.464   3.941  -0.046 -0.5867  0.1145  0.0286
  283MOL0     C38134   1.537   3.886  -0.157 -0.3466 -0.4050  0.4907
  283MOL0     C38135   1.619   3.826  -0.234  0.8518 -0.0934 -0.3339
  283MOL0     C38136   1.547   3.309   0.044 -0.4707  0.0809  0.1162
  283MOL0     C38137   1.542   3.170   0.059 -0.0472  0.2258  0.4631
  283MOL0     H38138   1.468   2.848   0.494  2.2164 -2.8482  1.6504
  283MOL0     H38139   1.482   2.620   0.555  1.0781 -0.8855 -1.4009
  283MOL0     H38140   1.211   2.398   0.555 -0.8193 -1.9121 -2.0589
  283MOL0     H38141   1.268   2.252   0.501 -1.5140  0.6056  0.4591
  283MOL0     H38142   1.466   2.261   0.613 -1.6130 -2.0840  0.3352
  283MOL0     H38143   1.466   2.434   0.659  1.2710 -0.6434  0.3251
  283MOL0     H38144   1.238   2.372   0.795  0.4618  1.2472 -1.5538
  283MOL0     H38145   1.299   2.209   0.769  1.2428 -0.3609  0.6403
  283MOL0     H38146   1.493   2.236   0.897 -0.0046 -0.4225 -0.9795
  283MOL0     H38147   1.472   2.410   0.905 -0.3923 -0.1353 -0.5920
  283MOL0     H38148   1.263   2.240   1.039  1.2203 -0.8304 -0.5090
  283MOL0     H38149   1.419   2.295   1.114  1.2161  1.8316 -0.0876
  283MOL0     H38150   1.330   2.531   1.090 -0.6610  0.9151 -1.4944
  283MOL0     H38151   1.197   2.470   0.989 -0.4283 -1.0247  0.1783
  283MOL0     H38152   1.101   2.357   1.189  3.8587 -2.2108  1.8864
  283MOL0     H38153   1.225   2.404   1.291  1.3567  4.2279  2.4408
  283MOL0     H38154   1.068   2.617   1.119  2.7003 -0.4988 -0.7331
  283MOL0     H38155   1.186   2.642   1.255  1.3281 -0.4599 -1.6055
  283MOL0     H38156   0.810   2.497   1.221 -2.6821  1.7263  1.2603
  283MOL0     H38157   0.652   2.375   1.410 -0.4904  0.0748 -0.6781
  283MOL0     H38158   0.690   2.396   1.569  0.7353  1.3160  1.0266
  283MOL0     H38159   0.506   2.544   1.549  1.7382 -3.7776  1.3944
  283MOL0     H38160   0.544   2.585   1.381  0.9302 -2.2092 -1.1769
  283MOL0     H38161   0.740   2.715   1.491 -0.8836 -0.5269 -1.7398
  283MOL0     H38162   0.653   2.695   1.635 -0.1743  1.2946 -0.3800
  283MOL0     H38163   0.532   2.819   1.398 -0.6704 -1.5446  0.6603
  283MOL0     H38164   0.590   2.917   1.522  0.8933  0.0836 -0.0081
  283MOL0     H38165   0.259   2.810   1.766  2.3106  3.0824  2.4784
  283MOL0     H38166   0.106   2.892   1.888 -0.9152  0.3080  0.6735
  283MOL0     H38167   0.047   3.055   1.881 -2.0148  0.0930  0.2787
  283MOL0     H38168  -0.048   2.916   1.804 -0.3503  0.1105  0.8736
  283MOL0     H38169  -0.100   3.408   1.795 -1.5632  1.3632  0.9342
  283MOL0     H38170  -0.281   3.549   1.845  0.4949  1.0298 -0.8190
  283MOL0     H38171  -0.670   3.595   1.609  0.3301  1.0636  1.0297
  283MOL0     H38172  -0.638   3.431   1.562 -1.9071 -0.8437  0.4282
  283MOL0     H38173  -0.731   3.333   1.756 -0.4022 -0.4970 -0.8335
  283MOL0     H38174  -0.750   3.496   1.827 -0.4064 -1.1266  0.3730
  283MOL0     H38175  -0.908   3.565   1.648 -0.2843  0.2697 -3.3285
  283MOL0     H38176  -0.962   3.429   1.732 -1.2145  0.2319 -1.5081
  283MOL0     H38177  -0.819   3.396   1.461  1.6317  1.3393  1.0344
  283MOL0     H38178  -0.895   3.268   1.567 -0.2177 -0.0200  0.3533
  283MOL0     H38179  -1.036   3.517   1.445 -1.4993 -0.1677  0.7699
  283MOL0     H38180  -1.122   3.395   1.529  1.4086 -2.9380  0.3438
  283MOL0     H38181  -0.973   3.357   1.270 -0.8191 -0.4065 -0.0519
  283MOL0     H38182  -1.037   3.228   1.384  0.0937 -0.7318  0.0199
  283MOL0     H38183  -1.251   3.296   1.352  0.6269  2.4937  2.3153
  283MOL0     H38184  -1.195   3.277   1.185 -2.8941  1.3787 -0.0446
  283MOL0     H38185  -1.202   3.557   1.311  0.8186  0.6833 -0.8367
  283MOL0     H38186  -1.333   3.475   1.212 -1.0737  1.3806  0.8808
  283MOL0     H38187  -0.527   3.260   1.623 -0.3450  0.1259  0.2328
  283MOL0     H38188  -0.331   3.112   1.613  1.4690  0.4634 -2.9132
  283MOL0     H38189   0.194   3.173   1.429 -2.3873 -0.7088 -0.3560
  283MOL0     H38190   0.382   2.999   1.397  0.7889 -2.1648  1.4633
  283MOL0     H38191   1.217   2.514   0.231  0.6650  0.0649 -0.5402
  283MOL0     H38192   1.208   2.736   0.168  1.3599 -0.2744 -1.1427
  283MOL0     H38193   1.359   3.161   0.340  1.9841  2.0349  2.0705
  283MOL0     H38194   1.390   3.412   0.324 -1.0388  0.5095 -1.5550
  283MOL0     H38195   1.536   3.606  -0.072  0.1342  3.1754 -1.0476
  283MOL0     H38196   1.388   3.526  -0.050  3.1746 -1.4527 -1.0015
  283MOL0     H38197   1.311   3.695   0.112 -4.9766  0.9344 -2.2503
  283MOL0     H38198   1.304   3.734  -0.055  0.5850 -0.6135  0.3955
  283MOL0     H38199   1.552   3.806   0.089  0.0635 -0.6966 -0.5909
  283MOL0     H38200   1.404   3.879   0.157  2.3432  1.6250 -0.4614
  283MOL0     H38201   1.522   4.024  -0.004 -1.5284  2.3165 -2.7610
  283MOL0     H38202   1.366   3.980  -0.075 -0.3284 -0.9482 -2.5437
  283MOL0     H38203   1.686   3.779  -0.304 -0.4839 -1.1332 -0.9497
  283MOL0     H38204   1.595   3.344  -0.046 -0.0401 -3.2453 -1.0925
  283MOL0     H38205   1.585   3.112  -0.021  1.8854 -1.4186  2.5666
  284MOL0     O38206   9.152   7.734   2.148  0.4768 -0.3629 -0.8182
  284MOL0     C38207   9.147   7.652   2.239  1.1305  0.1970 -0.8551
  284MOL0     O38208   9.033   7.605   2.298 -0.0844  0.0023  0.1696
  284MOL0     C38209   8.905   7.624   2.243  0.1970 -0.3459 -0.7760
  284MOL0     C38210   8.878   7.681   2.115  0.5870  0.1484  1.1877
  284MOL0     C38211   8.742   7.703   2.083  0.2852  0.0043  0.1658
  284MOL0     C38212   8.642   7.637   2.149  0.7822 -0.3851  0.6393
  284MOL0     O38213   8.511   7.653   2.121  0.8413  0.1277  0.1147
  284MOL0     C38214   8.461   7.745   2.025  0.4435 -0.0141  0.4169
  284MOL0     C38215   8.314   7.749   2.030  0.2086 -0.1670 -0.2570
  284MOL0     C38216   8.243   7.618   1.992 -0.0669  0.2719 -0.5495
  284MOL0     C38217   8.089   7.628   2.015  0.3965 -0.4233 -0.0827
  284MOL0     C38218   8.023   7.490   2.037 -0.7424  0.1250  0.2202
  284MOL0     C38219   7.877   7.483   2.065 -0.6599  0.5637  0.0117
  284MOL0     C38220   7.814   7.340   2.072  0.5285 -0.5946 -0.2320
  284MOL0     C38221   7.667   7.375   2.090  0.0929  0.1771  0.2830
  284MOL0     N38222   7.603   7.252   2.151  0.0296  0.0470  0.3360
  284MOL0     C38223   7.580   7.133   2.087 -0.2634  0.1132  0.0280
  284MOL0     C38224   7.497   7.062   2.172 -0.3115  1.0905 -0.2919
  284MOL0     C38225   7.455   6.924   2.152  0.2337  0.3138 -0.1509
  284MOL0     C38226   7.302   6.922   2.114 -0.3617  0.0579  0.7672
  284MOL0     C38227   7.211   6.968   2.220 -0.3250 -0.0358 -0.0875
  284MOL0     C38228   7.083   6.903   2.229 -0.1475 -0.4162 -0.2475
  284MOL0     O38229   7.007   6.936   2.113  0.4626  0.0671 -0.5829
  284MOL0     C38230   6.889   6.872   2.081  0.5907  0.0370  0.3096
  284MOL0     C38231   6.831   6.767   2.162  0.8940 -0.7620 -0.4729
  284MOL0     C38232   6.722   6.693   2.115  0.8136 -0.2126  0.3196
  284MOL0     C38233   6.668   6.588   2.211 -1.2704  0.0072 -0.2337
  284MOL0     C38234   6.670   6.730   1.991 -0.1063  0.6348 -0.2271
  284MOL0     C38235   6.547   6.667   1.936  0.2477 -0.0887  0.3111
  284MOL0     O38236   6.528   6.664   1.802 -0.4671 -0.8326 -0.1386
  284MOL0     C38237   6.450   6.569   1.746 -0.7187  0.9251  0.7002
  284MOL0     C38238   6.425   6.442   1.794  0.1299  0.1518  0.8756
  284MOL0     C38239   6.350   6.344   1.714 -0.1299  0.1203 -1.1211
  284MOL0     C38240   6.298   6.375   1.583  0.5227  0.4882 -0.2470
  284MOL0     O38241   6.221   6.286   1.512  0.0018  0.0376 -0.3859
  284MOL0     C38242   6.192   6.157   1.561 -0.1637 -0.1874 -0.4041
  284MOL0     C38243   6.139   6.064   1.447  0.5252 -0.1817 -0.8720
  284MOL0     C38244   6.004   6.116   1.407  0.4047 -0.0802  0.2320
  284MOL0     C38245   5.931   6.037   1.293 -0.1692  0.5474  0.6536
  284MOL0     C38246   5.787   6.087   1.287  0.0436  0.1667  0.2387
  284MOL0     C38247   5.706   5.997   1.196  0.0156  0.2287  0.6562
  284MOL0     C38248   5.561   6.038   1.187 -0.8723 -0.2396 -0.1647
  284MOL0     C38249   5.455   5.938   1.128  0.1330 -0.3776  0.3230
  284MOL0    Cl38250   5.310   5.901   1.232  0.2067 -0.1031 -0.2039
  284MOL0     C38251   6.327   6.501   1.533 -0.5972  0.8869 -0.3218
  284MOL0     C38252   6.399   6.595   1.613 -0.5266 -0.1163 -0.1776
  284MOL0     O38253   6.459   6.623   2.015 -0.6120 -0.0134 -0.0056
  284MOL0     C38254   6.738   6.828   1.910 -0.0160  0.3339 -0.8171
  284MOL0     C38255   6.850   6.898   1.952  0.2219  0.9838  0.0417
  284MOL0     N38256   7.475   7.139   2.283 -0.2344 -0.0104 -0.0158
  284MOL0     N38257   7.528   7.254   2.263 -0.3895 -0.4784  0.3307
  284MOL0     C38258   8.675   7.565   2.267 -0.1463  0.2977  0.3896
  284MOL0     C38259   8.803   7.562   2.314  0.2084  0.2634  0.0681
  284MOL0     C38260   9.287   7.619   2.289 -0.1365 -0.5047 -0.6443
  284MOL0     C38261   9.310   7.564   2.419  1.0095 -0.1920  0.0702
  284MOL0     C38262   9.436   7.520   2.454  0.0576  0.2673 -0.2295
  284MOL0     C38263   9.551   7.546   2.374  0.5569 -0.3699 -0.6357
  284MOL0     O38264   9.672   7.509   2.427  0.2680  0.2669  0.1643
  284MOL0     C38265   9.786   7.481   2.343 -0.3639 -0.2408 -0.0306
  284MOL0     C38266   9.787   7.343   2.272  0.0401  0.7344  0.1446
  284MOL0     C38267   9.779   7.222   2.358  0.3109 -0.0961  0.0145
  284MOL0     C38268   9.927   7.187   2.420  0.7948 -0.1763  0.1474
  284MOL0     C38269   9.931   7.078   2.520 -0.0073 -0.8814  0.5201
  284MOL0     C38270   9.935   6.993   2.601 -0.3416  0.0900  0.1501
  284MOL0     C38271   9.529   7.601   2.245 -0.4340  0.3791 -0.7068
  284MOL0     C38272   9.402   7.641   2.205  0.6474 -0.3900  0.3011
  284MOL0     H38273   8.952   7.710   2.040  1.1413 -0.8639  1.3237
  284MOL0     H38274   8.731   7.749   1.986 -0.3345  0.6715  0.5452
  284MOL0     H38275   8.498   7.845   2.048 -1.5567  0.5707  1.3275
  284MOL0     H38276   8.496   7.722   1.924  2.1332  1.5882  0.5791
  284MOL0     H38277   8.279   7.779   2.129 -4.1059 -2.2309 -0.9109
  284MOL0     H38278   8.277   7.820   1.956  0.5455  1.3420  0.9855
  284MOL0     H38279   8.262   7.588   1.888 -0.0117  1.5793 -0.9247
  284MOL0     H38280   8.288   7.537   2.051 -0.1021  0.0592 -0.8091
  284MOL0     H38281   8.069   7.702   2.093 -0.8587  2.9650 -3.3420
  284MOL0     H38282   8.036   7.679   1.934  1.4913 -1.9292 -1.8487
  284MOL0     H38283   8.046   7.434   1.946  0.4769 -1.3330  1.3743
  284MOL0     H38284   8.074   7.436   2.117  1.6034  2.5203  0.4587
  284MOL0     H38285   7.853   7.522   2.164 -1.5514  0.6573 -0.2288
  284MOL0     H38286   7.820   7.540   1.991 -0.0384 -0.6854 -1.4766
  284MOL0     H38287   7.824   7.297   1.972 -1.0098 -1.5759  0.0092
  284MOL0     H38288   7.863   7.285   2.153 -0.9407 -1.7680 -0.0875
  284MOL0     H38289   7.625   7.412   1.995  1.6708  1.1867 -0.0495
  284MOL0     H38290   7.645   7.450   2.167 -1.6391 -0.1807  0.1892
  284MOL0     H38291   7.620   7.095   1.994 -0.0538  1.6338 -0.5250
  284MOL0     H38292   7.496   6.881   2.061 -1.6388  1.4940 -1.6471
  284MOL0     H38293   7.476   6.859   2.237 -1.7331 -3.8627 -2.5743
  284MOL0     H38294   7.274   6.820   2.086 -1.8941  0.7458 -0.2777
  284MOL0     H38295   7.289   6.991   2.030 -4.0552  0.7370  1.7387
  284MOL0     H38296   7.178   7.071   2.203 -4.9441 -1.1662  0.8483
  284MOL0     H38297   7.266   6.958   2.314  1.7255 -1.8523 -1.3843
  284MOL0     H38298   7.031   6.916   2.324  1.9665  0.1500  0.8801
  284MOL0     H38299   7.111   6.797   2.229  2.6991  0.2334  1.8186
  284MOL0     H38300   6.878   6.744   2.257  0.4985 -1.0935 -0.3546
  284MOL0     H38301   6.613   6.507   2.161 -1.2489 -0.6939  0.8318
  284MOL0     H38302   6.756   6.548   2.263 -1.6838  1.4969  1.7195
  284MOL0     H38303   6.608   6.633   2.290  0.0760  2.0979 -0.3424
  284MOL0     H38304   6.433   6.409   1.897 -0.6457 -2.0851  0.2891
  284MOL0     H38305   6.331   6.250   1.764 -1.0014  1.4955  1.3349
  284MOL0     H38306   6.286   6.113   1.596 -0.6893  0.2887  1.7933
  284MOL0     H38307   6.118   6.156   1.642 -0.3608 -0.5933 -0.5888
  284MOL0     H38308   6.199   6.073   1.356  0.0331 -0.6929 -1.2494
  284MOL0     H38309   6.122   5.959   1.473 -2.5837 -0.0877 -2.1001
  284MOL0     H38310   6.000   6.223   1.383 -3.0010 -0.3808 -1.2466
  284MOL0     H38311   5.933   6.120   1.491 -0.2705 -3.2428 -0.0656
  284MOL0     H38312   5.984   6.045   1.197 -0.6906  0.4408  0.3501
  284MOL0     H38313   5.928   5.930   1.316  2.7627  0.3132  0.3432
  284MOL0     H38314   5.779   6.190   1.251 -1.2788  0.5622  1.5078
  284MOL0     H38315   5.750   6.084   1.390 -0.8257  1.8173  0.0200
  284MOL0     H38316   5.749   6.006   1.096 -0.8544 -0.5744  0.1952
  284MOL0     H38317   5.714   5.893   1.228  3.4509  0.5733  1.2872
  284MOL0     H38318   5.560   6.136   1.139 -0.3387  0.3198  0.9243
  284MOL0     H38319   5.525   6.051   1.289 -2.8283 -2.1329 -0.5403
  284MOL0     H38320   5.500   5.839   1.115  4.0853  1.3553 -0.5137
  284MOL0     H38321   5.420   5.963   1.027  2.7631  1.3034 -0.2509
  284MOL0     H38322   6.285   6.532   1.438 -2.6306 -1.2521 -0.2228
  284MOL0     H38323   6.421   6.694   1.574  0.7013 -1.1801 -2.4153
  284MOL0     H38324   6.707   6.852   1.808 -1.5175 -4.6094 -1.8187
  284MOL0     H38325   6.901   6.962   1.881 -2.6746  6.3164  2.2106
  284MOL0     H38326   8.598   7.517   2.328  0.3281  0.6543  1.2868
  284MOL0     H38327   8.810   7.524   2.415 -0.5231  1.2414  0.5088
  284MOL0     H38328   9.228   7.540   2.486  1.8487 -2.7992  0.3020
  284MOL0     H38329   9.436   7.462   2.546 -1.8523  1.5499  0.6502
  284MOL0     H38330   9.791   7.553   2.261  2.6272 -1.2666 -0.8735
  284MOL0     H38331   9.880   7.485   2.397 -0.0464 -1.9964 -0.3907
  284MOL0     H38332   9.874   7.350   2.207  1.0947  0.5688  1.4852
  284MOL0     H38333   9.697   7.342   2.211  0.8493 -1.6403 -1.1180
  284MOL0     H38334   9.740   7.140   2.297  1.5090 -0.7131  0.0518
  284MOL0     H38335   9.710   7.243   2.440  0.6589 -2.5043  0.9996
  284MOL0     H38336   9.969   7.273   2.471 -0.0561 -0.5749  1.5984
  284MOL0     H38337   9.995   7.148   2.343 -1.8007 -3.2354 -0.8649
  284MOL0     H38338   9.936   6.911   2.670  2.5791  1.7613  2.3023
  284MOL0     H38339   9.613   7.639   2.188  0.4826 -0.9474 -0.2829
  284MOL0     H38340   9.391   7.689   2.108  2.7910 -1.5947 -0.6207
  285MOL0     O38341   4.883   4.546   8.079 -0.0798 -0.1080 -0.6164
  285MOL0     C38342   4.941   4.570   8.183 -0.9488 -0.3827 -0.6884
  285MOL0     O38343   4.899   4.637   8.287 -0.1715 -0.0179 -0.3458
  285MOL0     C38344   4.802   4.729   8.292 -0.1122  0.3419 -0.0865
  285MOL0     C38345   4.672   4.707   8.247  0.6138 -0.6172 -0.6101
  285MOL0     C38346   4.567   4.797   8.264 -0.5487  0.0779 -0.4151
  285MOL0     C38347   4.581   4.908   8.347 -0.2959  0.8708 -0.2705
  285MOL0     O38348   4.466   4.984   8.375 -0.5173 -0.5034 -0.5362
  285MOL0     C38349   4.495   5.123   8.353  0.0572 -0.1786  0.0360
  285MOL0     C38350   4.380   5.200   8.402  0.2425 -0.2892 -0.0536
  285MOL0     C38351   4.275   5.194   8.287 -0.2530 -0.0465 -0.1014
  285MOL0     C38352   4.178   5.305   8.304  0.8730 -0.0261  0.4783
  285MOL0     C38353   4.031   5.258   8.254  0.2136 -0.0537  0.1248
  285MOL0     C38354   3.919   5.360   8.282  0.1964 -0.2064 -0.8605
  285MOL0     C38355   3.785   5.293   8.271 -0.5060 -0.0541  0.2282
  285MOL0     C38356   3.677   5.403   8.255 -0.4661  0.4039 -0.7503
  285MOL0     N38357   3.533   5.364   8.267  0.8530  0.6621  0.6034
  285MOL0     C38358   3.471   5.312   8.373  0.0740  0.3335 -0.6233
  285MOL0     C38359   3.336   5.324   8.354  0.3463  0.0348  0.0926
  285MOL0     C38360   3.241   5.273   8.465 -0.1623 -0.4243 -0.7924
  285MOL0     C38361   3.096   5.241   8.412  0.5601  0.4335  0.1899
  285MOL0     C38362   3.012   5.157   8.514 -0.0025  0.2436  0.3080
  285MOL0     C38363   2.867   5.116   8.467 -0.1531 -0.1933  0.2195
  285MOL0     O38364   2.825   5.005   8.550 -0.7847  0.2707 -0.4503
  285MOL0     C38365   2.693   4.973   8.545  0.2567 -0.0625  0.0841
  285MOL0     C38366   2.662   4.847   8.593  0.4884  0.1867  0.4812
  285MOL0     C38367   2.531   4.806   8.612 -0.2821  0.0686 -0.1615
  285MOL0     C38368   2.512   4.660   8.663  0.2125 -0.2994  0.0279
  285MOL0     C38369   2.423   4.891   8.569  0.5385  0.0937 -0.3228
  285MOL0     C38370   2.284   4.863   8.587 -0.4591  0.2741  1.1700
  285MOL0     O38371   2.252   4.785   8.693  0.2456 -0.1463 -0.5003
  285MOL0     C38372   2.121   4.781   8.733 -0.3089  0.3492  0.5139
  285MOL0     C38373   2.032   4.685   8.683  0.0883 -0.0375  0.6545
  285MOL0     C38374   1.903   4.687   8.733 -0.5177 -0.1789 -0.1109
  285MOL0     C38375   1.865   4.768   8.840 -0.1475 -0.4519 -0.4595
  285MOL0     O38376   1.738   4.763   8.900 -0.3570  0.3256 -0.7481
  285MOL0     C38377   1.628   4.689   8.835  0.3634 -0.5293  0.4569
  285MOL0     C38378   1.505   4.718   8.928 -0.2354  0.4790  0.1561
  285MOL0     C38379   1.408   4.812   8.862  0.1960  0.6210 -0.5156
  285MOL0     C38380   1.303   4.847   8.956 -0.0119 -0.3883  1.0197
  285MOL0     C38381   1.184   4.918   8.883  0.0771 -0.7548 -0.3092
  285MOL0     C38382   1.086   4.814   8.821  0.2979 -0.0058 -0.2117
  285MOL0     C38383   0.977   4.896   8.756 -0.4029  0.0228 -0.0407
  285MOL0     C38384   0.851   4.828   8.719  0.0639  0.5674  0.1447
  285MOL0    Cl38385   0.779   4.727   8.838  0.5927 -0.2502 -0.1513
  285MOL0     C38386   1.957   4.857   8.893  0.0709  0.0805  0.1209
  285MOL0     C38387   2.087   4.865   8.837  0.4090 -0.4755  0.2949
  285MOL0     O38388   2.199   4.916   8.516 -0.0979  0.5346  0.4627
  285MOL0     C38389   2.456   5.017   8.513 -0.3842  1.0038  0.6836
  285MOL0     C38390   2.588   5.058   8.498  0.1798 -0.1810 -0.5568
  285MOL0     N38391   3.317   5.384   8.227 -0.0582  0.1342  0.5270
  285MOL0     N38392   3.437   5.395   8.173 -0.0708 -0.4026  0.1829
  285MOL0     C38393   4.714   4.935   8.392 -0.3417 -0.4802  0.6207
  285MOL0     C38394   4.823   4.852   8.353  0.1868 -0.5699 -0.5422
  285MOL0     C38395   5.083   4.520   8.200  0.3598 -0.1580  0.5796
  285MOL0     C38396   5.122   4.419   8.112 -0.7448  0.6890  0.2832
  285MOL0     C38397   5.253   4.368   8.115 -0.0881 -0.3701  0.0583
  285MOL0     C38398   5.342   4.426   8.215 -0.2782 -0.1342 -0.0902
  285MOL0     O38399   5.464   4.362   8.217 -0.1508 -0.0714  0.3793
  285MOL0     C38400   5.566   4.424   8.293 -0.3818  0.5363 -0.1219
  285MOL0     C38401   5.680   4.330   8.270  0.1397 -0.4606  0.4430
  285MOL0     C38402   5.823   4.377   8.318 -0.9238 -0.1605  0.2026
  285MOL0     C38403   5.928   4.265   8.295 -0.1347  0.6937  0.1658
  285MOL0     C38404   6.052   4.303   8.357 -0.7069 -0.4965  0.2207
  285MOL0     C38405   6.148   4.352   8.416  0.6186  0.1569 -0.4762
  285MOL0     C38406   5.303   4.527   8.293 -0.2804 -0.0566  0.1181
  285MOL0     C38407   5.175   4.583   8.280 -0.3733  0.4527  0.7285
  285MOL0     H38408   4.656   4.613   8.194  1.6728 -0.8070 -0.6146
  285MOL0     H38409   4.482   4.767   8.204 -0.1769 -0.2002 -0.8073
  285MOL0     H38410   4.579   5.146   8.420 -0.2011  1.6529 -0.2155
  285MOL0     H38411   4.536   5.149   8.255 -0.0653  1.4728  0.3870
  285MOL0     H38412   4.332   5.155   8.489 -3.0740 -0.9775 -2.0755
  285MOL0     H38413   4.407   5.304   8.420  1.8302 -0.2962 -2.0512
  285MOL0     H38414   4.319   5.205   8.188 -1.1715  3.8879 -0.2507
  285MOL0     H38415   4.233   5.093   8.286  1.5182 -0.8328  0.4417
  285MOL0     H38416   4.174   5.338   8.408 -2.7947  1.3090  0.0429
  285MOL0     H38417   4.200   5.387   8.234 -0.8784 -0.4386 -0.6100
  285MOL0     H38418   4.031   5.228   8.149  0.9276 -1.9365  0.6208
  285MOL0     H38419   4.014   5.169   8.316 -2.5940 -0.0410 -0.4583
  285MOL0     H38420   3.923   5.395   8.386 -0.2807 -1.9476 -0.2292
  285MOL0     H38421   3.919   5.440   8.208 -2.5738 -0.1194 -0.8695
  285MOL0     H38422   3.778   5.223   8.188 -2.0396  1.8717 -1.3535
  285MOL0     H38423   3.774   5.243   8.368  0.6274 -0.4734  0.1585
  285MOL0     H38424   3.694   5.443   8.155  0.1422  2.0402 -0.0254
  285MOL0     H38425   3.693   5.483   8.328  0.3715 -1.1242  0.7896
  285MOL0     H38426   3.515   5.289   8.470 -2.4167  0.6131  0.6749
  285MOL0     H38427   3.285   5.184   8.511  0.3269 -0.5889 -1.5647
  285MOL0     H38428   3.219   5.342   8.547 -0.6360 -0.2565 -1.0594
  285MOL0     H38429   3.108   5.192   8.315 -1.4844 -3.2003  1.6018
  285MOL0     H38430   3.056   5.342   8.401 -1.3534 -0.4183 -1.1444
  285MOL0     H38431   3.006   5.220   8.602 -1.1762 -0.8921  1.0906
  285MOL0     H38432   3.062   5.061   8.527 -1.5717 -1.0052 -1.9732
  285MOL0     H38433   2.869   5.088   8.361  0.5910  0.8503 -0.0675
  285MOL0     H38434   2.805   5.204   8.482 -1.7794 -1.5530  1.9232
  285MOL0     H38435   2.738   4.774   8.620  1.1815 -0.2820 -2.4372
  285MOL0     H38436   2.604   4.600   8.662 -1.8415 -3.6948 -0.8943
  285MOL0     H38437   2.466   4.672   8.762  1.5508  1.0871  0.5280
  285MOL0     H38438   2.445   4.603   8.598  1.0660 -5.8392  3.3160
  285MOL0     H38439   2.040   4.609   8.606 -2.5475 -1.1346  1.3251
  285MOL0     H38440   1.829   4.624   8.685 -2.4933  2.8836 -1.4575
  285MOL0     H38441   1.605   4.705   8.729  2.1531 -0.0196  0.1087
  285MOL0     H38442   1.654   4.583   8.840 -1.5863 -1.0502  0.4616
  285MOL0     H38443   1.456   4.621   8.941 -0.7266  0.8991  1.6396
  285MOL0     H38444   1.536   4.746   9.030  0.6121 -0.4797  0.1864
  285MOL0     H38445   1.356   4.766   8.777 -0.5182 -0.0292  0.2540
  285MOL0     H38446   1.450   4.906   8.824 -1.2785  1.9741  1.0258
  285MOL0     H38447   1.267   4.755   9.004  1.0195  0.1506  2.9542
  285MOL0     H38448   1.349   4.906   9.037  0.5172 -0.1651  0.5574
  285MOL0     H38449   1.226   4.988   8.810  1.0655  0.1249  1.0634
  285MOL0     H38450   1.131   4.977   8.958 -0.2189  1.5703 -2.2274
  285MOL0     H38451   1.138   4.751   8.748  0.1109 -0.1474 -0.2231
  285MOL0     H38452   1.051   4.750   8.903  1.1292 -1.7685 -1.1611
  285MOL0     H38453   1.019   4.949   8.670  1.1881  1.1061  1.3473
  285MOL0     H38454   0.945   4.964   8.836 -0.2296 -2.1557  2.0099
  285MOL0     H38455   0.857   4.770   8.626  1.0128  2.1851 -0.8484
  285MOL0     H38456   0.781   4.909   8.698  0.7814  1.3790  0.8154
  285MOL0     H38457   1.920   4.906   8.982 -1.1620  1.0880 -0.8948
  285MOL0     H38458   2.155   4.938   8.879  0.3959 -0.5350  0.4194
  285MOL0     H38459   2.377   5.084   8.478 -1.6737 -1.6966 -2.0490
  285MOL0     H38460   2.611   5.153   8.452 -2.7014  1.5636  1.2796
  285MOL0     H38461   4.748   5.018   8.452  2.1121 -0.8165 -0.1859
  285MOL0     H38462   4.922   4.885   8.381  0.6441 -2.1119 -0.2753
  285MOL0     H38463   5.070   4.387   8.022  1.3305 -0.1184 -0.7100
  285MOL0     H38464   5.284   4.291   8.045 -1.9329  1.0545 -2.5331
  285MOL0     H38465   5.584   4.526   8.258  1.8168 -0.5576 -2.5500
  285MOL0     H38466   5.553   4.434   8.401 -0.2468  0.2825 -0.0813
  285MOL0     H38467   5.682   4.299   8.165 -2.1737 -1.3262  0.5875
  285MOL0     H38468   5.657   4.239   8.328 -0.7943 -0.2311  0.4542
  285MOL0     H38469   5.815   4.408   8.423 -0.0639  0.1524  0.1790
  285MOL0     H38470   5.852   4.464   8.259 -0.5430  0.7210  1.6340
  285MOL0     H38471   5.939   4.238   8.189 -1.1720  1.0984 -0.0627
  285MOL0     H38472   5.902   4.171   8.345  1.1408  0.1130 -0.2079
  285MOL0     H38473   6.233   4.407   8.451 -1.0411  2.6326 -0.0987
  285MOL0     H38474   5.367   4.573   8.367 -0.3667  0.6605 -0.2424
  285MOL0     H38475   5.145   4.668   8.341 -4.1096 -0.0979 -0.1088
  286MOL0     O38476   5.795   4.045   2.267 -0.0151  0.0492 -0.8612
  286MOL0     C38477   5.856   4.154   2.252  0.9461  0.1223  0.4965
  286MOL0     O38478   5.793   4.274   2.240 -0.1467 -1.1817  0.5291
  286MOL0     C38479   5.654   4.281   2.247 -0.3351 -0.7733 -1.0900
  286MOL0     C38480   5.597   4.270   2.376  0.4281 -0.0914 -0.2839
  286MOL0     C38481   5.458   4.264   2.390 -0.1741 -0.7131  0.2090
  286MOL0     C38482   5.373   4.283   2.275 -0.8882 -0.1519 -0.4734
  286MOL0     O38483   5.232   4.285   2.280  0.2833 -0.5210  0.3135
  286MOL0     C38484   5.166   4.254   2.399 -1.0877  0.4097 -0.3120
  286MOL0     C38485   5.021   4.293   2.372  0.9506 -0.0507 -0.5543
  286MOL0     C38486   5.003   4.439   2.349  0.4870 -0.4866 -0.3755
  286MOL0     C38487   4.852   4.479   2.360  0.0742 -0.1732 -0.9461
  286MOL0     C38488   4.834   4.628   2.383  0.2800 -0.4512 -0.4120
  286MOL0     C38489   4.701   4.671   2.327  0.7976 -0.5781  0.5807
  286MOL0     C38490   4.670   4.817   2.336  0.1999 -0.1561 -0.3453
  286MOL0     C38491   4.747   4.898   2.232 -0.5367 -0.3974  0.1002
  286MOL0     N38492   4.715   5.038   2.235  0.2686 -0.2892 -0.6302
  286MOL0     C38493   4.697   5.111   2.126  0.3029  0.3947  0.1054
  286MOL0     C38494   4.684   5.241   2.168  0.2672  0.0737 -0.3493
  286MOL0     C38495   4.635   5.355   2.083  0.0519 -0.4280  0.0065
  286MOL0     C38496   4.478   5.347   2.079  0.3342 -0.2296 -0.9841
  286MOL0     C38497   4.405   5.456   1.992  0.3980  0.0157 -0.1789
  286MOL0     C38498   4.416   5.596   2.057  0.3070 -0.0073 -0.3496
  286MOL0     O38499   4.428   5.582   2.203  0.0071  0.4599  0.0131
  286MOL0     C38500   4.312   5.564   2.273  0.8332 -0.1796  0.5113
  286MOL0     C38501   4.183   5.578   2.218 -1.5694 -0.5266 -0.6154
  286MOL0     C38502   4.066   5.545   2.301 -0.1132 -0.2070  0.4280
  286MOL0     C38503   3.936   5.557   2.233  0.9076 -0.4163  0.3158
  286MOL0     C38504   4.086   5.509   2.435  0.6344  0.5533 -0.1253
  286MOL0     C38505   3.972   5.489   2.535  0.2912 -1.0114  0.1395
  286MOL0     O38506   3.992   5.392   2.631  0.1633  0.3690  0.1847
  286MOL0     C38507   3.886   5.362   2.707  0.5110  0.1007 -0.6307
  286MOL0     C38508   3.768   5.310   2.651  0.7287 -0.7284  0.3881
  286MOL0     C38509   3.661   5.270   2.728  1.2152 -0.5799 -0.6268
  286MOL0     C38510   3.658   5.277   2.871  0.1572 -0.3917 -0.3770
  286MOL0     O38511   3.536   5.258   2.946  0.3418  0.8085  0.3163
  286MOL0     C38512   3.410   5.238   2.879 -1.0565 -0.0714 -0.0608
  286MOL0     C38513   3.309   5.240   2.996 -0.8822 -0.5586  0.2081
  286MOL0     C38514   3.165   5.222   2.961  0.0203  0.5048 -0.1364
  286MOL0     C38515   3.066   5.234   3.080 -0.7421  0.2976 -0.2457
  286MOL0     C38516   2.922   5.220   3.043  0.3780 -0.1714 -0.5542
  286MOL0     C38517   2.841   5.220   3.172 -0.0519  0.0369  0.4526
  286MOL0     C38518   2.687   5.230   3.144  0.7198  0.2417  0.1277
  286MOL0     C38519   2.612   5.221   3.272 -0.3356 -0.5619 -0.5207
  286MOL0    Cl38520   2.639   5.067   3.368 -0.0406  0.7744 -0.2241
  286MOL0     C38521   3.773   5.331   2.925  0.4177  0.5230  0.3192
  286MOL0     C38522   3.884   5.364   2.848 -0.7033 -0.3925  0.3422
  286MOL0     O38523   3.880   5.575   2.538 -0.6892 -0.7293  0.4109
  286MOL0     C38524   4.215   5.499   2.485 -0.2341  1.0882  0.0711
  286MOL0     C38525   4.327   5.525   2.405 -0.3671  0.0060  0.1862
  286MOL0     N38526   4.682   5.230   2.312 -0.5649  0.1858 -0.2870
  286MOL0     N38527   4.709   5.117   2.350 -0.1191  0.3125  0.3283
  286MOL0     C38528   5.436   4.282   2.149 -0.1937 -1.1152  0.4397
  286MOL0     C38529   5.572   4.283   2.132  0.0124  0.0383  0.3355
  286MOL0     C38530   5.994   4.142   2.244 -0.1216  0.6409 -0.1680
  286MOL0     C38531   6.078   4.254   2.239 -0.2962  0.0319 -0.1127
  286MOL0     C38532   6.221   4.240   2.230  0.2913  0.1518 -0.0704
  286MOL0     C38533   6.281   4.118   2.229  0.2449  0.5376 -0.4616
  286MOL0     O38534   6.416   4.099   2.214 -0.7343  0.4030  0.5423
  286MOL0     C38535   6.501   4.209   2.164  0.0845 -0.1479  0.2457
  286MOL0     C38536   6.645   4.175   2.189  0.3351  0.1821  0.4793
  286MOL0     C38537   6.664   4.204   2.333 -0.1871  0.4591  0.4722
  286MOL0     C38538   6.791   4.145   2.394  0.2382  1.0066 -0.1401
  286MOL0     C38539   6.781   3.993   2.396 -0.2588 -0.4909  0.6865
  286MOL0     C38540   6.770   3.877   2.419 -0.0125  0.3879 -0.0646
  286MOL0     C38541   6.200   4.003   2.238  0.8274  0.9691 -0.4959
  286MOL0     C38542   6.060   4.019   2.248  0.5429  0.2909  0.6534
  286MOL0     H38543   5.665   4.260   2.460 -1.0815  1.0696  1.1453
  286MOL0     H38544   5.421   4.254   2.491  1.9822 -0.0539  1.1252
  286MOL0     H38545   5.176   4.146   2.412  1.0136  0.5515 -0.3567
  286MOL0     H38546   5.216   4.300   2.485  1.1365 -2.4892  0.1029
  286MOL0     H38547   4.977   4.242   2.285 -5.1484  0.7233  1.5823
  286MOL0     H38548   4.956   4.251   2.449  2.9300 -2.3530 -0.0301
  286MOL0     H38549   5.052   4.498   2.426  1.3216  2.1320 -2.7347
  286MOL0     H38550   5.055   4.472   2.258  2.2373  5.0164  2.1967
  286MOL0     H38551   4.806   4.444   2.267 -0.4980 -0.0321 -0.7185
  286MOL0     H38552   4.804   4.427   2.443  3.8054 -2.1289  0.1695
  286MOL0     H38553   4.858   4.663   2.484 -0.2412  1.7157 -0.9985
  286MOL0     H38554   4.907   4.690   2.331  1.1254  2.5948  3.8599
  286MOL0     H38555   4.699   4.636   2.224 -0.7928  2.7122 -0.6539
  286MOL0     H38556   4.629   4.619   2.391  0.7526  0.3708  1.3318
  286MOL0     H38557   4.565   4.844   2.322 -0.1953  1.9663  4.7216
  286MOL0     H38558   4.687   4.859   2.435 -1.0100 -0.6450  0.0851
  286MOL0     H38559   4.740   4.862   2.129 -0.0520  0.4844 -0.2508
  286MOL0     H38560   4.851   4.890   2.263 -0.2597  3.0963  0.5164
  286MOL0     H38561   4.680   5.078   2.024  0.9469  0.8056 -0.1458
  286MOL0     H38562   4.662   5.451   2.129  0.8303 -1.3762  1.6026
  286MOL0     H38563   4.681   5.343   1.985  1.5804 -1.6402  0.8255
  286MOL0     H38564   4.437   5.344   2.180  2.3052  2.5069  0.0440
  286MOL0     H38565   4.452   5.250   2.035 -1.0665  0.7053 -2.3301
  286MOL0     H38566   4.299   5.434   1.975  0.0447  3.2723 -3.5247
  286MOL0     H38567   4.450   5.454   1.892 -0.4816 -0.8772 -0.5743
  286MOL0     H38568   4.361   5.676   2.007  1.6961  0.9603 -0.3850
  286MOL0     H38569   4.516   5.622   2.022  1.1136 -0.2322  1.6305
  286MOL0     H38570   4.167   5.603   2.114 -0.7950  2.8225 -0.0347
  286MOL0     H38571   3.926   5.656   2.188 -0.1602 -0.1071  1.1894
  286MOL0     H38572   3.934   5.484   2.152  0.5119 -0.4514  0.3538
  286MOL0     H38573   3.852   5.554   2.303 -1.1225  0.7182 -1.9192
  286MOL0     H38574   3.749   5.303   2.545 -1.5170  1.6655  0.5472
  286MOL0     H38575   3.570   5.241   2.676  1.6506 -1.4673 -0.9074
  286MOL0     H38576   3.400   5.326   2.816  0.8747  2.1670  2.5213
  286MOL0     H38577   3.400   5.148   2.818  0.2816  0.3814 -0.9927
  286MOL0     H38578   3.339   5.162   3.066  0.5386  1.8857  2.5126
  286MOL0     H38579   3.321   5.336   3.047 -0.3779 -0.5659  0.1128
  286MOL0     H38580   3.157   5.125   2.912  0.5392  0.5461 -0.3074
  286MOL0     H38581   3.139   5.294   2.882  2.0805 -0.7806 -2.0870
  286MOL0     H38582   3.095   5.153   3.147 -1.7236  0.6042  0.5785
  286MOL0     H38583   3.071   5.327   3.138 -3.4201 -0.8385  2.0579
  286MOL0     H38584   2.908   5.124   2.993  2.1547  0.1748 -1.8251
  286MOL0     H38585   2.891   5.300   2.976  3.7760  1.6468 -0.2137
  286MOL0     H38586   2.866   5.128   3.226  0.0949  0.9103  1.9374
  286MOL0     H38587   2.884   5.292   3.242  1.1484 -0.4487  0.2434
  286MOL0     H38588   2.644   5.149   3.084  2.1498 -1.6177  1.4917
  286MOL0     H38589   2.673   5.325   3.092 -2.1575 -0.3816 -0.3977
  286MOL0     H38590   2.505   5.230   3.248 -0.2846 -1.0305 -0.9372
  286MOL0     H38591   2.645   5.305   3.333  0.5169  0.3481 -2.1913
  286MOL0     H38592   3.783   5.352   3.031 -1.7315  2.2714  0.2484
  286MOL0     H38593   3.976   5.399   2.892 -0.0157  0.3095 -1.5268
  286MOL0     H38594   4.220   5.467   2.589  2.6423 -0.4395 -0.4424
  286MOL0     H38595   4.425   5.525   2.451 -0.3547  0.1608  0.1616
  286MOL0     H38596   5.372   4.290   2.061  2.1493  2.1563 -1.1419
  286MOL0     H38597   5.606   4.260   2.032 -0.9886 -3.0988  0.6367
  286MOL0     H38598   6.041   4.356   2.241 -4.0755 -1.1362 -1.0002
  286MOL0     H38599   6.285   4.327   2.239 -0.8618  0.9654  0.4526
  286MOL0     H38600   6.494   4.227   2.056  1.3231  0.2392  0.2100
  286MOL0     H38601   6.478   4.305   2.211  2.0962  0.2705  0.4836
  286MOL0     H38602   6.705   4.247   2.132 -0.0304 -1.4311 -2.0680
  286MOL0     H38603   6.672   4.076   2.151 -1.4166  1.5145 -5.0747
  286MOL0     H38604   6.575   4.164   2.381 -2.0639  1.3729 -2.0305
  286MOL0     H38605   6.671   4.313   2.342 -1.1050  0.9286 -3.0359
  286MOL0     H38606   6.795   4.182   2.497 -0.2996 -2.6249  1.3601
  286MOL0     H38607   6.883   4.173   2.342  0.9573 -1.7423 -0.5177
  286MOL0     H38608   6.767   3.770   2.433 -1.1977  0.2889 -0.9375
  286MOL0     H38609   6.247   3.908   2.214 -0.2861  0.4842 -0.8474
  286MOL0     H38610   6.013   3.923   2.269  1.7732 -0.7360 -1.0683
  287MOL0     O38611  10.094   1.862   7.678  0.3313  0.0975 -0.8082
  287MOL0     C38612  10.169   1.842   7.586 -0.0785 -0.2938  1.0388
  287MOL0     O38613  10.131   1.803   7.463 -0.1633 -0.8928  0.6222
  287MOL0     C38614  10.001   1.779   7.442 -0.8361  0.3123 -0.7942
  287MOL0     C38615   9.932   1.898   7.419  0.0518 -0.2870  0.4425
  287MOL0     C38616   9.794   1.899   7.410  0.5152  0.4860 -0.1476
  287MOL0     C38617   9.727   1.779   7.437 -0.1936 -0.4143  0.4359
  287MOL0     O38618   9.588   1.764   7.444 -0.5416  0.0318 -0.4581
  287MOL0     C38619   9.499   1.877   7.444 -0.3174  0.5787 -0.1142
  287MOL0     C38620   9.355   1.840   7.482  1.0615  0.4982  0.2611
  287MOL0     C38621   9.276   1.797   7.357  0.3115 -0.1238 -0.4187
  287MOL0     C38622   9.128   1.800   7.378  0.6604  0.7553  0.8072
  287MOL0     C38623   9.056   1.732   7.257 -0.2068 -0.6323  0.1180
  287MOL0     C38624   8.906   1.699   7.278  0.7219  0.0473  0.3842
  287MOL0     C38625   8.848   1.832   7.323 -0.1571  0.2746 -0.7981
  287MOL0     C38626   8.689   1.843   7.335 -0.1108 -0.2262 -0.6680
  287MOL0     N38627   8.611   1.828   7.211 -0.1435  0.5077  0.3959
  287MOL0     C38628   8.646   1.891   7.095  0.4510 -0.3000  0.6496
  287MOL0     C38629   8.567   1.830   6.998 -0.4636 -1.0947 -0.4863
  287MOL0     C38630   8.559   1.848   6.854 -0.3486 -0.0701  0.0216
  287MOL0     C38631   8.567   1.720   6.771 -1.0603 -0.6236  0.7825
  287MOL0     C38632   8.565   1.734   6.622  0.5492  0.7992 -0.5478
  287MOL0     C38633   8.433   1.784   6.554  0.8138  0.5606 -0.3031
  287MOL0     O38634   8.421   1.750   6.421  0.2378  0.2600 -0.1825
  287MOL0     C38635   8.333   1.822   6.342  0.2872  0.1467  0.1875
  287MOL0     C38636   8.207   1.876   6.392 -0.3016 -0.0162 -0.9408
  287MOL0     C38637   8.119   1.950   6.310 -0.6636  0.5481  0.4659
  287MOL0     C38638   7.992   1.998   6.377  0.3072 -0.5029 -0.0947
  287MOL0     C38639   8.144   1.977   6.178 -0.5065 -0.5004 -0.2539
  287MOL0     C38640   8.061   2.055   6.093 -0.3871 -0.1687 -0.0496
  287MOL0     O38641   7.927   2.021   6.083  0.2054 -0.0250 -0.3760
  287MOL0     C38642   7.833   2.054   5.984 -0.2123 -0.5271  0.7437
  287MOL0     C38643   7.862   2.103   5.855 -0.2177  0.4064  0.9523
  287MOL0     C38644   7.755   2.133   5.766  0.1647 -0.1731 -0.8963
  287MOL0     C38645   7.627   2.108   5.792  0.6903 -0.7456 -0.1096
  287MOL0     O38646   7.536   2.129   5.695  0.1592  0.5553  0.3910
  287MOL0     C38647   7.397   2.107   5.710  0.0827  0.2876  0.1214
  287MOL0     C38648   7.311   2.169   5.596  0.2791 -0.1810 -0.1889
  287MOL0     C38649   7.160   2.172   5.627 -2.0079 -0.0313 -0.0560
  287MOL0     C38650   7.100   2.271   5.544 -0.2299  0.1447  0.5047
  287MOL0     C38651   6.954   2.292   5.581  0.4647  0.0972  0.1980
  287MOL0     C38652   6.889   2.397   5.488 -0.8558 -0.2496  0.6985
  287MOL0     C38653   6.748   2.423   5.536  0.4930 -0.5482 -0.0770
  287MOL0     C38654   6.707   2.571   5.499 -0.5536  0.2380  0.4001
  287MOL0    Cl38655   6.740   2.611   5.330 -0.0353 -0.2694 -0.3468
  287MOL0     C38656   7.595   2.058   5.926  0.0790  0.8263  0.1137
  287MOL0     C38657   7.697   2.031   6.020 -0.5612 -0.3850 -0.4277
  287MOL0     O38658   8.123   2.136   6.021 -0.1494  0.4859  0.6897
  287MOL0     C38659   8.266   1.914   6.126  0.0076 -0.4441 -0.6339
  287MOL0     C38660   8.356   1.845   6.203 -0.5315 -0.0134 -0.6492
  287MOL0     N38661   8.484   1.740   7.063 -1.2301  0.4926  0.2522
  287MOL0     N38662   8.510   1.744   7.186  0.1300 -0.2061  0.2879
  287MOL0     C38663   9.799   1.663   7.447  0.0634 -0.7236 -0.2114
  287MOL0     C38664   9.934   1.660   7.447  0.0324  0.1116  0.0791
  287MOL0     C38665  10.308   1.854   7.608  0.1063  0.1415  0.6127
  287MOL0     C38666  10.343   1.871   7.742 -0.5256  0.3500 -0.0675
  287MOL0     C38667  10.481   1.891   7.770  0.3561 -0.2952  0.3310
  287MOL0     C38668  10.575   1.913   7.668 -0.4368  0.5710 -0.1876
  287MOL0     O38669  10.706   1.928   7.702  0.3290 -0.2855 -0.0061
  287MOL0     C38670  10.772   1.800   7.710 -0.4292 -0.3989  0.2285
  287MOL0     C38671  10.919   1.821   7.730 -0.3907 -0.8523 -0.4191
  287MOL0     C38672  10.996   1.900   7.615  0.4215  0.1971  0.6075
  287MOL0     C38673  10.979   1.855   7.465  0.0907  0.3987  0.7723
  287MOL0     C38674  11.028   1.723   7.418 -0.4068  0.0284 -0.0051
  287MOL0     C38675  11.065   1.607   7.403 -0.5335  0.6159 -0.8727
  287MOL0     C38676  10.530   1.905   7.535 -0.1806 -0.3415  0.2129
  287MOL0     C38677  10.401   1.865   7.504  0.4613  0.0727  0.4541
  287MOL0     H38678   9.989   1.990   7.416  1.5499 -1.2022 -2.8244
  287MOL0     H38679   9.731   1.987   7.405 -2.4090 -1.2452  2.8471
  287MOL0     H38680   9.528   1.947   7.522 -1.8778 -1.9994  3.0348
  287MOL0     H38681   9.496   1.926   7.346 -3.5843 -2.5542 -1.8537
  287MOL0     H38682   9.341   1.764   7.559 -2.8778  1.5862  0.7916
  287MOL0     H38683   9.314   1.931   7.525  1.6288  0.4181  0.9978
  287MOL0     H38684   9.291   1.873   7.280  1.9192 -0.0278 -0.0383
  287MOL0     H38685   9.314   1.701   7.322  0.2435  0.2524 -1.5366
  287MOL0     H38686   9.106   1.738   7.466  1.2568 -0.2632  0.2566
  287MOL0     H38687   9.078   1.894   7.405 -0.4941  0.2614  0.4758
  287MOL0     H38688   9.056   1.798   7.170 -1.2368 -3.1916 -1.9676
  287MOL0     H38689   9.120   1.650   7.223  1.1589  0.5979 -0.4241
  287MOL0     H38690   8.868   1.665   7.181  1.3596 -1.3994  0.6115
  287MOL0     H38691   8.899   1.619   7.353 -0.9476  1.4174  1.7811
  287MOL0     H38692   8.881   1.836   7.428 -0.5180  0.7602 -0.7008
  287MOL0     H38693   8.873   1.928   7.276 -1.5204  1.6953  1.1879
  287MOL0     H38694   8.672   1.940   7.383  0.6417 -1.7426  2.9932
  287MOL0     H38695   8.649   1.761   7.395  0.8895 -1.4434 -1.6202
  287MOL0     H38696   8.713   1.974   7.078 -1.6603  1.9314  2.4979
  287MOL0     H38697   8.462   1.894   6.836 -1.0933 -0.5853  2.3154
  287MOL0     H38698   8.628   1.926   6.819 -1.4223  1.2895  0.8438
  287MOL0     H38699   8.488   1.650   6.800 -0.1748 -1.3686  1.4744
  287MOL0     H38700   8.666   1.685   6.802 -0.5583 -0.2729 -0.4028
  287MOL0     H38701   8.591   1.631   6.599 -0.1563  0.5091 -0.0572
  287MOL0     H38702   8.652   1.797   6.598  0.2284  2.3369  1.8965
  287MOL0     H38703   8.423   1.892   6.561 -1.8683  0.5011 -1.8173
  287MOL0     H38704   8.341   1.751   6.604 -0.7491  0.6195 -2.9669
  287MOL0     H38705   8.174   1.860   6.495  1.4329  1.2523 -0.1241
  287MOL0     H38706   7.946   2.083   6.325  0.2560 -0.5787 -0.1727
  287MOL0     H38707   7.916   1.920   6.368 -1.0116  0.7537 -0.1876
  287MOL0     H38708   8.015   2.023   6.480  0.8868 -1.2783 -0.0283
  287MOL0     H38709   7.967   2.120   5.833 -0.2920  0.2405  0.4735
  287MOL0     H38710   7.773   2.188   5.674  0.6401  0.5308 -0.3898
  287MOL0     H38711   7.383   1.999   5.703  0.1408  0.3327 -0.9759
  287MOL0     H38712   7.350   2.138   5.803 -1.0889  1.0024 -0.6781
  287MOL0     H38713   7.351   2.269   5.579 -1.2317  0.4144 -0.3591
  287MOL0     H38714   7.324   2.114   5.503 -0.8767 -0.4249 -0.2256
  287MOL0     H38715   7.149   2.188   5.734  1.7524 -0.4203  0.5330
  287MOL0     H38716   7.109   2.078   5.601 -1.4859  0.2415 -2.3064
  287MOL0     H38717   7.143   2.370   5.562  1.4625 -0.6655  1.1317
  287MOL0     H38718   7.113   2.255   5.436 -1.7290  1.2749  0.1247
  287MOL0     H38719   6.954   2.332   5.683 -0.7803  2.1077 -0.5243
  287MOL0     H38720   6.907   2.193   5.582  0.6455 -0.0233 -1.0060
  287MOL0     H38721   6.949   2.488   5.496 -2.5066  0.9920 -0.4331
  287MOL0     H38722   6.896   2.371   5.383 -4.1029  0.3470  0.2084
  287MOL0     H38723   6.750   2.428   5.645  0.6215 -1.2528 -0.0480
  287MOL0     H38724   6.677   2.356   5.487  0.3106  0.3862 -1.1450
  287MOL0     H38725   6.754   2.641   5.568  0.3862 -1.5949  1.7205
  287MOL0     H38726   6.599   2.577   5.518 -1.2108 -0.0166 -2.7087
  287MOL0     H38727   7.494   2.027   5.951  0.4725 -2.1514 -1.5511
  287MOL0     H38728   7.670   1.988   6.116  1.0400 -0.6447 -0.0620
  287MOL0     H38729   8.288   1.921   6.020  0.5193 -1.4933 -0.6103
  287MOL0     H38730   8.448   1.805   6.162 -0.4620 -0.3287 -0.1831
  287MOL0     H38731   9.745   1.570   7.460  0.6516 -1.2804 -1.5692
  287MOL0     H38732   9.995   1.575   7.476  1.4344 -0.2191 -3.3100
  287MOL0     H38733  10.270   1.880   7.822 -2.4239  2.9419 -1.9204
  287MOL0     H38734  10.504   1.902   7.876  0.3411  0.9665  0.2151
  287MOL0     H38735  10.728   1.733   7.784 -0.0129 -1.4511 -0.4673
  287MOL0     H38736  10.767   1.745   7.616 -0.1006 -1.2236  0.6909
  287MOL0     H38737  10.976   1.728   7.742  0.3966 -0.5983 -1.9485
  287MOL0     H38738  10.928   1.878   7.823 -1.3086  2.4042 -2.1659
  287MOL0     H38739  11.103   1.898   7.635  0.2164 -0.2192  1.7701
  287MOL0     H38740  10.960   2.003   7.610 -3.4480 -1.0504 -2.0255
  287MOL0     H38741  11.042   1.924   7.407 -0.6634  1.0322  0.6841
  287MOL0     H38742  10.876   1.869   7.432  0.4793 -3.1144 -2.5689
  287MOL0     H38743  11.112   1.512   7.390 -0.0448  0.7364 -0.0417
  287MOL0     H38744  10.602   1.918   7.455 -2.5599 -1.2925 -2.2552
  287MOL0     H38745  10.374   1.860   7.399  1.1845  0.2782  0.2511
  288MOL0     O38746   3.968   1.902   9.255  0.7838  0.4199 -0.0516
  288MOL0     C38747   4.008   1.826   9.347  0.1864 -0.0751 -0.5547
  288MOL0     O38748   3.965   1.825   9.482 -0.5671 -0.1802 -0.0991
  288MOL0     C38749   3.858   1.909   9.512  0.6232  0.4765  0.4796
  288MOL0     C38750   3.723   1.870   9.496  0.0764  0.1649 -0.6223
  288MOL0     C38751   3.614   1.955   9.519  0.7522 -0.5688 -0.2061
  288MOL0     C38752   3.631   2.074   9.584  0.3590 -0.6219 -0.3324
  288MOL0     O38753   3.530   2.152   9.601 -0.1272  0.1503 -0.6574
  288MOL0     C38754   3.544   2.280   9.672  0.7089 -0.6028 -0.0614
  288MOL0     C38755   3.407   2.345   9.702  0.3744 -0.3488  0.4171
  288MOL0     C38756   3.304   2.359   9.585  0.0755  0.2051 -0.0596
  288MOL0     C38757   3.355   2.446   9.470 -0.3670 -1.2055 -0.0331
  288MOL0     C38758   3.260   2.460   9.360  0.1583  0.5125  0.0088
  288MOL0     C38759   3.172   2.585   9.362 -0.9202 -0.2348 -1.1138
  288MOL0     C38760   3.058   2.583   9.264  0.0685  0.2316  0.7591
  288MOL0     C38761   2.970   2.703   9.259  0.6569 -0.8548 -0.2436
  288MOL0     N38762   2.885   2.722   9.379  0.5533 -0.3427  0.5599
  288MOL0     C38763   2.902   2.817   9.475  0.3088 -0.5804  0.6022
  288MOL0     C38764   2.798   2.804   9.558 -0.6929  0.2659  0.2319
  288MOL0     C38765   2.753   2.908   9.665 -0.0400 -0.6453 -0.9391
  288MOL0     C38766   2.709   3.036   9.589 -1.1535  0.3896 -0.6308
  288MOL0     C38767   2.592   3.012   9.492  0.3472 -0.0956 -0.5615
  288MOL0     C38768   2.462   2.955   9.558  0.0561 -0.2468  0.2706
  288MOL0     O38769   2.417   3.052   9.653  0.0778 -0.4485 -0.2713
  288MOL0     C38770   2.295   3.023   9.715 -0.3080 -0.4984 -0.5190
  288MOL0     C38771   2.200   2.919   9.683 -0.4633 -0.0731 -0.2194
  288MOL0     C38772   2.078   2.906   9.754 -0.3379  0.6937  0.4626
  288MOL0     C38773   2.000   2.787   9.697 -0.1821  0.4415  0.7820
  288MOL0     C38774   2.043   2.989   9.857  0.3076  0.5079 -0.5332
  288MOL0     C38775   1.915   2.964   9.931  0.3973  0.8496  0.8550
  288MOL0     O38776   1.849   2.841   9.927 -0.0621  1.0881  0.1102
  288MOL0     C38777   1.723   2.836   9.981  0.3905 -0.0247 -0.3039
  288MOL0     C38778   1.686   2.866  10.115 -0.2404  0.2920  0.5719
  288MOL0     C38779   1.557   2.836  10.168  0.1662 -0.6622  0.3206
  288MOL0     C38780   1.452   2.801  10.082  0.1150  0.2476  0.7271
  288MOL0     O38781   1.330   2.757  10.115 -0.3213  0.1452  0.4041
  288MOL0     C38782   1.272   2.816  10.227  0.0596 -0.0280  0.1894
  288MOL0     C38783   1.124   2.768  10.235  0.0321 -0.4756 -0.6224
  288MOL0     C38784   1.041   2.805  10.119  0.1102  0.7638  0.2428
  288MOL0     C38785   0.898   2.761  10.138  0.5477  0.0819 -0.6503
  288MOL0     C38786   0.823   2.767   9.997  0.7213  0.3321 -0.6531
  288MOL0     C38787   0.677   2.708  10.003 -0.5200  0.1277 -0.3401
  288MOL0     C38788   0.582   2.780  10.102  0.5993 -0.4390 -1.2777
  288MOL0     C38789   0.442   2.724  10.110  0.7001 -0.0007  0.5476
  288MOL0    Cl38790   0.456   2.569  10.187 -0.0223 -0.0389  0.1848
  288MOL0     C38791   1.482   2.802   9.943 -0.8858 -0.5186  0.2482
  288MOL0     C38792   1.614   2.815   9.897  0.4601  0.7559  0.4801
  288MOL0     O38793   1.890   3.053  10.014  0.8491 -0.3353  0.1857
  288MOL0     C38794   2.132   3.098   9.895  0.2988 -0.3846 -0.8185
  288MOL0     C38795   2.255   3.110   9.824 -0.1787  0.7336  0.1654
  288MOL0     N38796   2.718   2.704   9.503  0.2676  0.6163  0.0625
  288MOL0     N38797   2.777   2.645   9.403  0.1069 -0.6288  0.4491
  288MOL0     C38798   3.763   2.120   9.596  0.2948 -0.2654 -0.3683
  288MOL0     C38799   3.871   2.038   9.557 -0.3869  0.2096  0.1843
  288MOL0     C38800   4.115   1.726   9.310  1.0334  0.6776  0.7152
  288MOL0     C38801   4.151   1.622   9.402 -0.6212 -1.1205 -0.7415
  288MOL0     C38802   4.239   1.526   9.348  0.3394  0.5739  0.0811
  288MOL0     C38803   4.286   1.527   9.219 -0.4647  0.3250 -0.1630
  288MOL0     O38804   4.364   1.425   9.174 -0.2112  0.0305  0.4276
  288MOL0     C38805   4.478   1.451   9.089  1.2403  0.2180  0.3011
  288MOL0     C38806   4.439   1.399   8.943 -0.6755 -0.1369  0.0415
  288MOL0     C38807   4.562   1.405   8.846 -0.2663 -0.2262 -0.1450
  288MOL0     C38808   4.620   1.541   8.807  0.0793  0.4452 -0.8017
  288MOL0     C38809   4.761   1.548   8.799  0.2913 -0.2865  0.7456
  288MOL0     C38810   4.885   1.540   8.802 -0.0134  0.0582 -0.6211
  288MOL0     C38811   4.265   1.642   9.144  0.1512 -0.7757 -0.2321
  288MOL0     C38812   4.187   1.751   9.188 -0.5413 -0.2681  0.2147
  288MOL0     H38813   3.696   1.768   9.474  0.3297  0.0305 -0.3084
  288MOL0     H38814   3.518   1.910   9.497  1.4106 -2.5568  0.7992
  288MOL0     H38815   3.598   2.262   9.765 -1.3970 -1.3148  1.0939
  288MOL0     H38816   3.591   2.354   9.607  2.3704 -1.2711  0.3344
  288MOL0     H38817   3.359   2.290   9.784  2.4481 -1.4848  0.9475
  288MOL0     H38818   3.426   2.449   9.730 -1.7655 -0.1032  1.1466
  288MOL0     H38819   3.291   2.258   9.546 -0.1380 -0.4566  1.6465
  288MOL0     H38820   3.210   2.401   9.620 -0.0394 -0.0999  0.0021
  288MOL0     H38821   3.379   2.540   9.520 -0.5983 -2.4413  2.5792
  288MOL0     H38822   3.448   2.394   9.443  0.1846  0.1974 -0.9003
  288MOL0     H38823   3.329   2.448   9.276  0.1442 -1.7212  0.2684
  288MOL0     H38824   3.197   2.370   9.360  1.3436 -0.3463  0.2333
  288MOL0     H38825   3.128   2.594   9.462 -0.9531  1.8980 -1.2739
  288MOL0     H38826   3.238   2.672   9.352  1.0390 -1.4243  0.8644
  288MOL0     H38827   3.108   2.576   9.167  1.2376 -1.5589  1.4569
  288MOL0     H38828   2.989   2.499   9.273 -2.9593  2.2814 -1.3503
  288MOL0     H38829   2.902   2.691   9.174 -1.5619  0.9173  1.1645
  288MOL0     H38830   3.038   2.789   9.250  1.5017 -1.5246 -0.3630
  288MOL0     H38831   2.990   2.880   9.481 -0.4896  0.6780 -0.2856
  288MOL0     H38832   2.678   2.874   9.737 -0.1969  0.5345 -0.5216
  288MOL0     H38833   2.835   2.931   9.733 -0.1201 -0.1847 -0.9951
  288MOL0     H38834   2.794   3.072   9.531 -1.0327  2.1690  0.5773
  288MOL0     H38835   2.683   3.119   9.655 -2.5438 -0.5561  0.0597
  288MOL0     H38836   2.615   2.949   9.406  0.0319  2.5416 -2.7260
  288MOL0     H38837   2.577   3.107   9.439  1.7037  0.8777  0.7217
  288MOL0     H38838   2.499   2.862   9.602  0.3692 -1.2090 -1.9293
  288MOL0     H38839   2.377   2.936   9.493 -0.0864  1.4916 -0.0974
  288MOL0     H38840   2.217   2.853   9.599 -1.8682  1.9891 -2.2510
  288MOL0     H38841   2.049   2.751   9.607  1.2391  2.4270  0.6918
  288MOL0     H38842   2.002   2.701   9.765 -0.3654 -0.7052 -0.6320
  288MOL0     H38843   1.895   2.812   9.678  0.5396  2.3411 -1.1250
  288MOL0     H38844   1.764   2.897  10.184 -0.5733  0.7968  0.7265
  288MOL0     H38845   1.541   2.843  10.275  1.1526  1.4816  0.3694
  288MOL0     H38846   1.327   2.778  10.314 -0.6275  1.1726  1.1867
  288MOL0     H38847   1.287   2.925  10.233 -2.0158  0.2354  1.7341
  288MOL0     H38848   1.132   2.660  10.243  4.7214 -0.3362 -0.4651
  288MOL0     H38849   1.084   2.807  10.329 -0.5398  2.5302 -1.9763
  288MOL0     H38850   1.077   2.755  10.028  0.1507  0.5007  0.4052
  288MOL0     H38851   1.034   2.914  10.113 -0.2970  0.9778  3.3720
  288MOL0     H38852   0.892   2.659  10.178  0.4836  1.2250  2.6209
  288MOL0     H38853   0.856   2.834  10.209  0.5269  0.9137 -1.5086
  288MOL0     H38854   0.880   2.703   9.928  0.2318 -0.0021 -0.7504
  288MOL0     H38855   0.824   2.867   9.954 -0.8249  0.7862  0.2901
  288MOL0     H38856   0.633   2.704   9.903  0.6567 -1.4213 -0.8360
  288MOL0     H38857   0.700   2.609  10.042  1.6682  0.8292  0.2607
  288MOL0     H38858   0.582   2.886  10.075  0.5598  0.2252  1.1061
  288MOL0     H38859   0.618   2.783  10.205 -1.9301 -0.5521 -0.3166
  288MOL0     H38860   0.402   2.718  10.009  0.5549 -0.9780  0.6531
  288MOL0     H38861   0.371   2.790  10.161 -0.8394 -0.5243 -0.8673
  288MOL0     H38862   1.401   2.775   9.876 -0.8234 -1.3307  0.4885
  288MOL0     H38863   1.635   2.806   9.791  2.5116  0.1204  0.8984
  288MOL0     H38864   2.104   3.168   9.973 -0.4421 -1.2211 -0.3073
  288MOL0     H38865   2.318   3.195   9.848 -1.1441  1.7669 -0.7985
  288MOL0     H38866   3.799   2.219   9.622 -1.9405  1.3430 -2.8451
  288MOL0     H38867   3.967   2.081   9.583  0.3666 -0.8000 -0.8051
  288MOL0     H38868   4.105   1.606   9.499  3.7359  1.7819  2.1590
  288MOL0     H38869   4.254   1.441   9.415 -1.2710 -0.7135 -1.1181
  288MOL0     H38870   4.509   1.556   9.090  0.1278  0.6084 -1.5134
  288MOL0     H38871   4.559   1.384   9.121  1.2782 -0.3158 -0.8602
  288MOL0     H38872   4.354   1.450   8.896  1.2847  1.4855 -1.9768
  288MOL0     H38873   4.405   1.296   8.958  0.7832 -0.5330  0.8174
  288MOL0     H38874   4.550   1.339   8.760  2.4730 -4.6180  2.4137
  288MOL0     H38875   4.644   1.353   8.897  0.7700  1.3182 -0.1585
  288MOL0     H38876   4.594   1.613   8.885 -0.5842  0.5945 -1.1597
  288MOL0     H38877   4.580   1.578   8.712  0.4035  1.5669 -0.5179
  288MOL0     H38878   4.990   1.525   8.819 -0.0762  1.0845  0.8185
  288MOL0     H38879   4.299   1.651   9.042 -1.4406 -2.3546 -0.9597
  288MOL0     H38880   4.184   1.840   9.127  0.0050 -0.7800 -0.5683
  289MOL0     O38881   7.149   3.143   5.807 -0.7345 -0.2456  0.0276
  289MOL0     C38882   7.149   3.098   5.923  0.2922  0.4678  0.7469
  289MOL0     O38883   7.039   3.072   6.003 -0.2723 -0.4967 -0.2037
  289MOL0     C38884   6.927   3.150   5.978  0.3138  0.6507 -0.0354
  289MOL0     C38885   6.933   3.291   5.946 -0.6178  0.4328  0.0362
  289MOL0     C38886   6.823   3.370   5.936  0.4739 -0.5897  0.3199
  289MOL0     C38887   6.697   3.320   5.970  0.5429  0.3196  0.1533
  289MOL0     O38888   6.572   3.382   5.950  0.4436  0.6502 -0.3731
  289MOL0     C38889   6.568   3.512   5.892 -0.7837  0.2589  0.6634
  289MOL0     C38890   6.441   3.568   5.952 -0.1907 -0.6179 -0.4747
  289MOL0     C38891   6.423   3.713   5.908 -0.7525  0.0038 -0.6548
  289MOL0     C38892   6.274   3.752   5.915 -0.1037  0.2248 -0.6958
  289MOL0     C38893   6.263   3.909   5.891  0.4455 -0.2656  0.5004
  289MOL0     C38894   6.124   3.962   5.923  0.3867 -0.1135  0.1709
  289MOL0     C38895   6.022   3.903   5.827 -0.5810 -0.2196 -0.4494
  289MOL0     C38896   5.882   3.916   5.879 -0.4917 -0.1824  0.2274
  289MOL0     N38897   5.842   4.058   5.879 -0.7936 -0.0088 -0.0917
  289MOL0     C38898   5.751   4.112   5.789 -0.3530 -0.4232 -0.1973
  289MOL0     C38899   5.735   4.230   5.837 -0.4681  0.8995 -0.0410
  289MOL0     C38900   5.669   4.340   5.769 -0.7463  0.6667  0.2576
  289MOL0     C38901   5.541   4.294   5.691  0.0591 -0.3578 -0.5329
  289MOL0     C38902   5.453   4.207   5.791 -0.0795 -0.3805 -0.3629
  289MOL0     C38903   5.309   4.253   5.781  0.3065  0.0977 -0.0564
  289MOL0     O38904   5.251   4.215   5.648  0.1555  0.4883  0.1038
  289MOL0     C38905   5.129   4.154   5.632 -0.0204 -0.1420 -0.3107
  289MOL0     C38906   5.099   4.100   5.509 -0.1218  0.6183 -0.6377
  289MOL0     C38907   4.989   4.016   5.492 -0.0848 -0.6494  0.0682
  289MOL0     C38908   4.974   3.961   5.353  0.4976 -0.8662 -0.0660
  289MOL0     C38909   4.890   4.009   5.589  0.5180  0.4149  0.7578
  289MOL0     C38910   4.755   3.943   5.570  0.2532 -0.2025  0.5010
  289MOL0     O38911   4.655   3.991   5.647 -1.3108  0.2314  0.4776
  289MOL0     C38912   4.529   3.935   5.654  0.0658 -0.1175  0.0940
  289MOL0     C38913   4.472   3.949   5.777  0.6559  0.6610 -0.0241
  289MOL0     C38914   4.350   3.881   5.804  0.8666  0.1483  0.4175
  289MOL0     C38915   4.282   3.799   5.714 -0.4734 -0.1639 -0.6302
  289MOL0     O38916   4.172   3.732   5.730  0.4815  0.0726 -0.8745
  289MOL0     C38917   4.086   3.760   5.845 -0.1980  0.4709 -0.2397
  289MOL0     C38918   3.948   3.710   5.816 -0.0828  0.8069  0.6756
  289MOL0     C38919   3.864   3.767   5.934  0.7563  0.1613 -0.0786
  289MOL0     C38920   3.719   3.734   5.907  0.2792 -0.8774  0.9273
  289MOL0     C38921   3.633   3.806   6.014 -0.6167  0.1373 -0.4216
  289MOL0     C38922   3.480   3.791   5.976  0.0909  0.0667 -0.0786
  289MOL0     C38923   3.399   3.877   6.066 -0.5170 -0.7332 -0.1641
  289MOL0     C38924   3.258   3.911   6.021  0.4514  0.8007  0.9062
  289MOL0    Cl38925   3.147   3.946   6.148 -0.0342 -0.2856 -0.2019
  289MOL0     C38926   4.343   3.787   5.588 -0.5937 -0.4511  0.4759
  289MOL0     C38927   4.467   3.850   5.558  0.8059  0.0688  0.7281
  289MOL0     O38928   4.743   3.852   5.488 -0.2600 -0.0193 -0.2842
  289MOL0     C38929   4.919   4.072   5.710 -0.5116 -0.1144  0.2540
  289MOL0     C38930   5.035   4.146   5.733 -0.1525 -0.4542 -0.0648
  289MOL0     N38931   5.819   4.260   5.948 -0.1442 -0.0813 -0.3325
  289MOL0     N38932   5.879   4.153   5.975 -0.4135  0.3723  0.2525
  289MOL0     C38933   6.686   3.185   6.011 -0.2628 -0.2269 -0.2552
  289MOL0     C38934   6.799   3.106   6.018 -0.4030  0.0873  0.3812
  289MOL0     C38935   7.270   3.019   5.963 -0.8212  1.0896  0.9034
  289MOL0     C38936   7.282   2.959   6.086 -0.4046 -0.2935  0.3184
  289MOL0     C38937   7.399   2.902   6.128  0.4025  0.1981  0.2561
  289MOL0     C38938   7.511   2.917   6.055 -0.0665  0.1990  0.1087
  289MOL0     O38939   7.635   2.881   6.105  0.5772  0.9228 -0.1295
  289MOL0     C38940   7.685   2.944   6.222  0.1511  0.0116  0.3582
  289MOL0     C38941   7.738   3.082   6.191  0.3726 -0.2547  0.1165
  289MOL0     C38942   7.873   3.089   6.106  0.5936 -0.9493  0.8245
  289MOL0     C38943   7.913   3.229   6.079 -0.4912  0.2176  0.7187
  289MOL0     C38944   8.056   3.236   6.051 -0.1365  0.6363  0.3408
  289MOL0     C38945   8.173   3.227   6.022  0.8314  0.4818  0.9099
  289MOL0     C38946   7.499   2.964   5.926  0.7373 -0.2851 -0.3225
  289MOL0     C38947   7.379   3.003   5.878 -0.0910 -0.2548  0.3828
  289MOL0     H38948   7.032   3.325   5.917 -0.8165  0.8068 -0.2030
  289MOL0     H38949   6.834   3.473   5.902  0.1474 -1.6630 -3.5153
  289MOL0     H38950   6.650   3.574   5.928  0.2444 -1.4675  1.4201
  289MOL0     H38951   6.562   3.520   5.783 -2.0043  0.0558  0.7029
  289MOL0     H38952   6.358   3.504   5.919  0.5465 -2.4840  1.0492
  289MOL0     H38953   6.450   3.574   6.061  0.3741  0.5424 -0.5737
  289MOL0     H38954   6.472   3.785   5.974 -2.8795  1.2854 -0.3805
  289MOL0     H38955   6.449   3.736   5.804 -0.8510  1.6654 -0.3450
  289MOL0     H38956   6.233   3.684   5.840  3.2155 -3.0014  0.0669
  289MOL0     H38957   6.222   3.733   6.009  0.6871 -0.4609 -0.3827
  289MOL0     H38958   6.337   3.965   5.947  0.3492  0.5985 -0.2073
  289MOL0     H38959   6.276   3.932   5.785 -1.1682  1.9306  0.7081
  289MOL0     H38960   6.106   3.943   6.029 -1.5263 -4.2985 -0.6790
  289MOL0     H38961   6.132   4.069   5.902  0.8535 -0.7494 -3.6531
  289MOL0     H38962   6.032   3.935   5.723 -2.7947  2.8959  0.1513
  289MOL0     H38963   6.036   3.794   5.824 -0.3110 -0.2436  1.0629
  289MOL0     H38964   5.875   3.879   5.981 -1.7684 -0.2708  0.1190
  289MOL0     H38965   5.815   3.856   5.816  1.1563 -0.6079 -1.2153
  289MOL0     H38966   5.707   4.073   5.698 -1.0798 -1.4571  0.5780
  289MOL0     H38967   5.635   4.412   5.845 -2.9376  1.0753 -1.0186
  289MOL0     H38968   5.747   4.390   5.712  0.5320 -2.1883 -0.6796
  289MOL0     H38969   5.576   4.222   5.616 -0.5605 -1.2218 -0.0163
  289MOL0     H38970   5.480   4.371   5.643 -1.3712 -1.4170 -0.4861
  289MOL0     H38971   5.487   4.200   5.895  1.6771 -0.8294 -0.9362
  289MOL0     H38972   5.448   4.103   5.760  0.2819 -1.1657  2.0094
  289MOL0     H38973   5.308   4.361   5.801  2.7885 -0.0871  1.5319
  289MOL0     H38974   5.252   4.220   5.869  2.6290  1.3803  2.0524
  289MOL0     H38975   5.168   4.123   5.429  0.3747 -2.0975 -1.0597
  289MOL0     H38976   5.063   3.980   5.291  0.9200 -1.6926  0.2711
  289MOL0     H38977   4.974   3.851   5.358 -1.1107 -0.8338  1.5290
  289MOL0     H38978   4.880   3.995   5.309  0.8795 -1.6529 -1.5773
  289MOL0     H38979   4.528   3.988   5.861  2.0938 -0.2902 -0.4952
  289MOL0     H38980   4.313   3.887   5.906  0.4257  0.3139  0.2512
  289MOL0     H38981   4.137   3.726   5.936  1.4270 -0.1355 -1.3156
  289MOL0     H38982   4.072   3.868   5.850 -1.6874  0.3225 -0.8051
  289MOL0     H38983   3.899   3.741   5.723 -0.7817 -2.6842 -0.2671
  289MOL0     H38984   3.942   3.601   5.824  2.3129  0.6205  0.6586
  289MOL0     H38985   3.890   3.874   5.941  2.3393 -0.3136  2.3253
  289MOL0     H38986   3.898   3.728   6.030 -0.7065  0.2499  0.4990
  289MOL0     H38987   3.692   3.775   5.809 -0.9545 -0.9654  1.2091
  289MOL0     H38988   3.699   3.627   5.909 -0.1468 -0.8459 -0.4104
  289MOL0     H38989   3.668   3.909   6.024  0.0481  0.0453 -1.6101
  289MOL0     H38990   3.667   3.746   6.099  0.3859 -0.9871 -1.5875
  289MOL0     H38991   3.468   3.813   5.869  2.4616 -1.2564 -0.7003
  289MOL0     H38992   3.462   3.684   5.987 -0.4574 -0.1222 -2.3066
  289MOL0     H38993   3.450   3.972   6.088 -0.8938 -0.2516 -1.2925
  289MOL0     H38994   3.395   3.833   6.166  2.1663  0.7167  0.6788
  289MOL0     H38995   3.222   3.821   5.969 -1.6740  1.0610  1.8033
  289MOL0     H38996   3.246   3.995   5.952  1.1954  0.3061  0.1648
  289MOL0     H38997   4.306   3.720   5.512  0.9579  1.4617 -2.1171
  289MOL0     H38998   4.509   3.836   5.458 -0.1183  2.6367 -0.0930
  289MOL0     H38999   4.841   4.065   5.785 -2.0826  2.9277 -0.9149
  289MOL0     H39000   5.034   4.197   5.829 -3.2960  0.2391 -0.3353
  289MOL0     H39001   6.590   3.139   6.035  0.5928 -1.0145  1.8988
  289MOL0     H39002   6.786   3.001   6.040 -0.5708  0.1445  0.5565
  289MOL0     H39003   7.200   2.955   6.157  0.7617 -0.9141  1.7040
  289MOL0     H39004   7.395   2.863   6.229 -3.4095  1.4044  0.7173
  289MOL0     H39005   7.607   2.947   6.299  0.2134 -1.2613  0.4941
  289MOL0     H39006   7.770   2.893   6.267 -0.3819 -0.4512  0.8679
  289MOL0     H39007   7.757   3.136   6.284  1.2137 -1.7360  0.8310
  289MOL0     H39008   7.657   3.142   6.148 -0.2813 -1.6756 -0.6848
  289MOL0     H39009   7.856   3.036   6.012  1.2521 -1.2768  0.8886
  289MOL0     H39010   7.953   3.034   6.156  1.7327 -0.3939 -0.3585
  289MOL0     H39011   7.887   3.302   6.157 -1.7036  0.3372  0.2330
  289MOL0     H39012   7.863   3.279   5.995  0.0044 -1.2478 -0.4820
  289MOL0     H39013   8.276   3.221   5.993  0.8150 -2.4141  1.2069
  289MOL0     H39014   7.591   2.971   5.867  1.2442  2.4020  0.6508
  289MOL0     H39015   7.373   3.036   5.775 -1.2516  0.6487  0.7226
  290MOL0     O39016   7.008   8.727  10.646 -0.0063  0.0181  0.5137
  290MOL0     C39017   7.059   8.671  10.553 -1.1249  0.1406 -0.0131
  290MOL0     O39018   7.021   8.680  10.417  0.3102 -0.6446 -0.0081
  290MOL0     C39019   6.904   8.741  10.374 -0.3235 -0.4614 -0.4203
  290MOL0     C39020   6.783   8.715  10.436  0.6638 -0.5195  0.4439
  290MOL0     C39021   6.660   8.763  10.387 -0.2726 -0.6839  0.1899
  290MOL0     C39022   6.660   8.854  10.283 -0.1524  0.1720  0.0429
  290MOL0     O39023   6.554   8.919  10.224  0.3188 -0.3702  0.4577
  290MOL0     C39024   6.429   8.924  10.301 -0.5653  0.1787  0.9028
  290MOL0     C39025   6.340   9.019  10.222  0.5868 -0.0008 -0.4965
  290MOL0     C39026   6.210   9.033  10.312 -0.2501  0.0106 -0.4810
  290MOL0     C39027   6.220   9.156  10.408  0.6171 -0.1563  0.3455
  290MOL0     C39028   6.093   9.177  10.491 -0.1131  0.5704  0.6895
  290MOL0     C39029   6.106   9.275  10.612 -0.0124 -0.9835 -1.1655
  290MOL0     C39030   5.965   9.299  10.686  0.5874  0.1779  0.7660
  290MOL0     C39031   5.958   9.406  10.799  0.1604  0.4890 -0.0993
  290MOL0     N39032   5.817   9.443  10.833 -0.2197  0.1994  0.9876
  290MOL0     C39033   5.735   9.514  10.751 -0.0532 -0.3975  0.2352
  290MOL0     C39034   5.625   9.538  10.837  0.3910 -0.0142  0.3750
  290MOL0     C39035   5.503   9.607  10.788  1.0471 -0.2345 -0.0173
  290MOL0     C39036   5.413   9.549  10.677 -0.4532 -0.2412 -0.8606
  290MOL0     C39037   5.364   9.403  10.723  0.2986  0.6949  0.4751
  290MOL0     C39038   5.292   9.334  10.606 -0.4826  0.6332  0.8214
  290MOL0     O39039   5.148   9.359  10.609  0.0581 -0.5689  0.2460
  290MOL0     C39040   5.072   9.319  10.502  0.6131  0.9561 -0.3406
  290MOL0     C39041   4.940   9.373  10.497  0.4334  0.7921 -0.4177
  290MOL0     C39042   4.850   9.336  10.395 -0.0116 -0.4774  0.8627
  290MOL0     C39043   4.719   9.405  10.410  0.4679 -0.5747  0.0002
  290MOL0     C39044   4.893   9.245  10.298 -0.1103  0.2685  0.3216
  290MOL0     C39045   4.806   9.193  10.188 -0.4681 -0.2932  0.3158
  290MOL0     O39046   4.841   9.083  10.116 -0.5469 -0.0148 -0.0293
  290MOL0     C39047   4.747   9.009  10.052  0.4732 -0.6815  0.4066
  290MOL0     C39048   4.734   8.872  10.082 -0.7663  0.5941  0.4574
  290MOL0     C39049   4.634   8.797  10.028 -0.1960 -1.0283  0.6813
  290MOL0     C39050   4.543   8.850   9.935  0.7051  0.2142  0.4734
  290MOL0     O39051   4.440   8.770   9.896 -0.7297 -0.3447  0.2226
  290MOL0     C39052   4.324   8.837   9.854  0.6859  1.0356 -0.3345
  290MOL0     C39053   4.215   8.736   9.876  0.8429 -0.3873  0.0238
  290MOL0     C39054   4.075   8.797   9.843  0.8245 -0.2589  0.0881
  290MOL0     C39055   4.064   8.841   9.696  0.3588 -0.9289 -0.0365
  290MOL0     C39056   3.950   8.947   9.698  0.4843 -0.2122  0.6439
  290MOL0     C39057   3.944   9.016   9.562  0.6365  0.2442  0.3738
  290MOL0     C39058   3.825   9.112   9.563  0.2403 -0.0878  0.0401
  290MOL0     C39059   3.887   9.244   9.586  0.4421 -0.1990 -0.4642
  290MOL0    Cl39060   3.950   9.320   9.436 -0.3182  0.3807  0.0400
  290MOL0     C39061   4.556   8.984   9.895 -0.1060 -0.3803  1.0242
  290MOL0     C39062   4.651   9.065   9.962 -0.0277  0.0385  0.5653
  290MOL0     O39063   4.716   9.262  10.164  0.4482  0.3902  0.6644
  290MOL0     C39064   5.023   9.187  10.309 -0.1804  0.5214  0.3362
  290MOL0     C39065   5.113   9.226  10.406  0.4183 -0.2491  0.7530
  290MOL0     N39066   5.638   9.474  10.954 -1.1769 -0.0568 -0.6344
  290MOL0     N39067   5.764   9.430  10.953 -0.5464  0.0081 -0.7968
  290MOL0     C39068   6.787   8.883  10.225 -0.0784 -0.6882 -0.5901
  290MOL0     C39069   6.906   8.834  10.266  0.4004  0.2409  0.0482
  290MOL0     C39070   7.164   8.568  10.596  0.1904 -0.3764 -0.2235
  290MOL0     C39071   7.170   8.504  10.719 -0.0723 -0.8074  0.0399
  290MOL0     C39072   7.266   8.403  10.749 -0.3028 -1.2489 -0.5520
  290MOL0     C39073   7.356   8.364  10.645 -0.1767  0.8288 -0.6229
  290MOL0     O39074   7.445   8.263  10.644  0.6348  0.5517 -0.7935
  290MOL0     C39075   7.466   8.173  10.757 -0.7655 -0.6353  0.2838
  290MOL0     C39076   7.614   8.180  10.799  0.3555 -0.3394  0.0629
  290MOL0     C39077   7.696   8.115  10.692 -0.4097 -0.4829 -0.7824
  290MOL0     C39078   7.851   8.127  10.720 -0.1726 -0.1540 -0.6640
  290MOL0     C39079   7.888   8.045  10.840 -0.7672  0.0514  0.1830
  290MOL0     C39080   7.901   7.969  10.936  0.8982 -0.2497  0.3297
  290MOL0     C39081   7.362   8.440  10.533 -0.0179 -0.5567 -0.2469
  290MOL0     C39082   7.266   8.538  10.503  0.3816 -0.1443 -0.7623
  290MOL0     H39083   6.784   8.646  10.519 -1.0211  0.3420  1.2217
  290MOL0     H39084   6.569   8.737  10.440 -0.3236 -1.1161 -0.1128
  290MOL0     H39085   6.382   8.825  10.305  0.2326 -0.1939  1.1634
  290MOL0     H39086   6.443   8.947  10.407 -1.0446  0.1219  0.9813
  290MOL0     H39087   6.389   9.116  10.210  0.9985 -0.2218 -0.6029
  290MOL0     H39088   6.318   8.979  10.123 -1.2869 -3.3803  1.1044
  290MOL0     H39089   6.123   9.049  10.248 -1.7536  0.1835  1.5189
  290MOL0     H39090   6.202   8.948  10.381  3.7064  0.4825  0.8063
  290MOL0     H39091   6.305   9.151  10.477 -0.3574 -0.8342  1.5442
  290MOL0     H39092   6.241   9.245  10.347 -1.4060 -0.2321 -0.5405
  290MOL0     H39093   6.020   9.231  10.429  0.4038  2.3241  1.5244
  290MOL0     H39094   6.042   9.084  10.517 -1.0989  1.2356  1.2317
  290MOL0     H39095   6.180   9.235  10.682  1.0235 -0.3383 -1.8602
  290MOL0     H39096   6.139   9.373  10.576  1.9156 -1.3162 -0.4464
  290MOL0     H39097   5.904   9.341  10.605  0.5155  1.4367  1.4433
  290MOL0     H39098   5.931   9.200  10.716 -0.5605 -0.6334 -2.6500
  290MOL0     H39099   6.013   9.498  10.776  1.0275  0.2451  0.9109
  290MOL0     H39100   6.011   9.362  10.884  1.9355 -0.8137 -1.7945
  290MOL0     H39101   5.761   9.556  10.654 -1.9248  0.7451  0.1737
  290MOL0     H39102   5.436   9.618  10.874  1.0500  0.8057 -0.1291
  290MOL0     H39103   5.524   9.711  10.761 -4.0386  0.9917 -0.2276
  290MOL0     H39104   5.462   9.547  10.579 -0.4145  0.9210 -0.8812
  290MOL0     H39105   5.324   9.612  10.670 -1.1319 -1.3522 -3.1902
  290MOL0     H39106   5.294   9.406  10.806  0.6388 -0.9344  0.8519
  290MOL0     H39107   5.446   9.335  10.750 -0.7717  0.1929  2.6695
  290MOL0     H39108   5.312   9.227  10.612 -1.2714  0.4681  0.6339
  290MOL0     H39109   5.346   9.375  10.519  1.6279  3.8025  3.3555
  290MOL0     H39110   4.905   9.441  10.575 -1.3100 -0.7837  0.2546
  290MOL0     H39111   4.720   9.462  10.503  1.7426  3.7598 -2.3774
  290MOL0     H39112   4.695   9.480  10.334  1.6056  0.0632  0.2573
  290MOL0     H39113   4.643   9.326  10.409 -0.5981  0.4167 -0.0573
  290MOL0     H39114   4.800   8.836  10.161 -0.0473  0.9452  0.0338
  290MOL0     H39115   4.611   8.695  10.060 -1.6070 -0.7769  0.5235
  290MOL0     H39116   4.304   8.925   9.916  0.4846  0.7922 -0.0527
  290MOL0     H39117   4.345   8.863   9.750  0.0260  0.4314 -0.6246
  290MOL0     H39118   4.241   8.646   9.819 -3.1244 -2.8996  1.7879
  290MOL0     H39119   4.219   8.705   9.981 -0.8209 -1.2750 -0.1532
  290MOL0     H39120   4.058   8.882   9.911  0.2489  0.2770 -0.7028
  290MOL0     H39121   4.000   8.721   9.863  0.6597  0.0814  0.7902
  290MOL0     H39122   4.149   8.895   9.653  0.5141 -0.0483  1.3125
  290MOL0     H39123   4.031   8.768   9.622 -3.1560  0.5954 -0.1736
  290MOL0     H39124   3.972   9.031   9.764 -0.1551  0.6810 -0.2413
  290MOL0     H39125   3.860   8.904   9.742  0.2464 -2.1091 -1.4886
  290MOL0     H39126   4.045   9.052   9.536  0.2272  0.9608 -0.2759
  290MOL0     H39127   3.920   8.943   9.484 -0.2139  1.4436 -0.5352
  290MOL0     H39128   3.754   9.089   9.644 -1.3319 -0.0217 -1.2793
  290MOL0     H39129   3.770   9.117   9.469 -1.8639  0.8733  1.2495
  290MOL0     H39130   3.966   9.254   9.662  0.0076 -1.2175  0.1463
  290MOL0     H39131   3.804   9.310   9.610  0.2319  0.0780 -1.9116
  290MOL0     H39132   4.493   9.037   9.824  0.4485 -0.4093  0.5026
  290MOL0     H39133   4.667   9.170   9.937  0.2823 -0.4940 -1.6272
  290MOL0     H39134   5.059   9.116  10.236  2.8192 -0.0884  2.2291
  290MOL0     H39135   5.215   9.191  10.392 -0.5963 -2.6942 -1.2566
  290MOL0     H39136   6.791   8.963  10.151  3.5059 -1.1590 -1.0583
  290MOL0     H39137   7.000   8.859  10.218 -0.2390  1.3825 -0.6571
  290MOL0     H39138   7.108   8.526  10.805  0.4124 -0.8680  0.4080
  290MOL0     H39139   7.260   8.349  10.843  1.1336  1.6680  1.3873
  290MOL0     H39140   7.396   8.198  10.837  2.4766  1.8384  2.6306
  290MOL0     H39141   7.447   8.077  10.708 -0.6586 -0.4726 -0.0849
  290MOL0     H39142   7.631   8.136  10.898 -0.9719 -2.4491 -0.5849
  290MOL0     H39143   7.649   8.284  10.804  1.7827 -0.8436  1.2151
  290MOL0     H39144   7.663   8.171  10.603 -0.8711  1.6931  0.6917
  290MOL0     H39145   7.669   8.009  10.683  0.1517 -0.5839 -1.3391
  290MOL0     H39146   7.878   8.229  10.750 -3.3727  0.2267  1.3341
  290MOL0     H39147   7.906   8.107  10.628 -0.6583  1.1562 -1.2586
  290MOL0     H39148   7.906   7.898  11.016 -3.3535 -1.5570 -0.3125
  290MOL0     H39149   7.440   8.420  10.461 -0.3561  1.0258 -1.1091
  290MOL0     H39150   7.277   8.601  10.415 -0.8098 -0.7470 -1.3784
  291MOL0     O39151   7.024  10.030   9.225 -0.1604  0.8045  0.0536
  291MOL0     C39152   7.051  10.041   9.345  0.0809 -0.0515 -0.6672
  291MOL0     O39153   6.967  10.053   9.449  0.0557  0.1795  0.2053
  291MOL0     C39154   6.835  10.046   9.423  0.9848  0.9120 -0.5108
  291MOL0     C39155   6.752  10.141   9.478  0.3883 -0.7591 -0.4432
  291MOL0     C39156   6.614  10.140   9.456 -0.1394 -0.2215 -0.6251
  291MOL0     C39157   6.553  10.035   9.384 -0.4400 -0.5859  0.6733
  291MOL0     O39158   6.416  10.027   9.367 -0.6189  0.4759 -0.7693
  291MOL0     C39159   6.350  10.148   9.347 -0.7594  0.4846 -0.3776
  291MOL0     C39160   6.273  10.192   9.473  0.5071  0.1012 -0.8766
  291MOL0     C39161   6.173  10.086   9.523  0.2233 -0.2581  0.1140
  291MOL0     C39162   6.092  10.140   9.639 -1.1174 -0.4720 -0.8060
  291MOL0     C39163   5.965  10.057   9.684 -0.7317  0.3896  0.4286
  291MOL0     C39164   5.885  10.133   9.785  0.6773 -0.7490 -0.5939
  291MOL0     C39165   5.769  10.038   9.840 -0.7482 -0.8258 -0.2565
  291MOL0     C39166   5.802   9.932   9.942 -0.0882  0.0464  0.2948
  291MOL0     N39167   5.849   9.995  10.069 -0.2959 -0.0737 -0.1537
  291MOL0     C39168   5.761  10.030  10.169 -0.6159 -0.2292 -0.0537
  291MOL0     C39169   5.825  10.129  10.235  0.1259 -0.1874 -0.5630
  291MOL0     C39170   5.755  10.191  10.354 -0.2319 -0.4085  0.4865
  291MOL0     C39171   5.839  10.285  10.452  0.2794 -0.7997  0.4503
  291MOL0     C39172   5.900  10.404  10.373 -1.0230 -0.2134  0.3425
  291MOL0     C39173   5.928  10.514  10.476  0.6284  0.2590  0.4543
  291MOL0     O39174   6.018  10.606  10.419 -1.0998 -0.1723 -0.5075
  291MOL0     C39175   6.066  10.716  10.489 -0.3945  0.0376 -0.4774
  291MOL0     C39176   6.189  10.773  10.461 -0.8989  0.5776  0.4556
  291MOL0     C39177   6.247  10.886  10.522 -0.1622  0.1560 -0.2492
  291MOL0     C39178   6.399  10.896  10.518  0.8280 -0.4578 -0.5825
  291MOL0     C39179   6.165  10.964  10.598 -0.4490  0.4641 -0.5483
  291MOL0     C39180   6.212  11.092  10.650  0.1258  0.7270 -0.8549
  291MOL0     O39181   6.290  11.166  10.567  0.5028  0.1546  0.7023
  291MOL0     C39182   6.333  11.292  10.604 -0.1446 -0.0371 -0.3140
  291MOL0     C39183   6.251  11.411  10.601  0.6122  0.0104 -0.2132
  291MOL0     C39184   6.303  11.536  10.648  0.2246  1.0114  0.6269
  291MOL0     C39185   6.437  11.548  10.694 -0.2918  0.9276  0.1023
  291MOL0     O39186   6.485  11.677  10.738 -0.1537  0.4812  0.6709
  291MOL0     C39187   6.617  11.689  10.790 -0.2557 -0.3750  0.0430
  291MOL0     C39188   6.668  11.837  10.820  0.1996  0.2263  0.3393
  291MOL0     C39189   6.818  11.832  10.830 -0.3710  0.5115 -0.0098
  291MOL0     C39190   6.878  11.971  10.830  0.4533  0.4533  0.3872
  291MOL0     C39191   7.027  11.963  10.823 -0.1496 -0.3553 -0.3512
  291MOL0     C39192   7.080  12.111  10.834 -0.0588  0.0886  0.3018
  291MOL0     C39193   7.229  12.127  10.838 -0.3027 -0.2580 -0.0139
  291MOL0     C39194   7.295  12.041  10.723  0.1441 -1.2917  0.1510
  291MOL0    Cl39195   7.467  12.060  10.733 -0.1930 -0.1335 -0.5023
  291MOL0     C39196   6.519  11.432  10.683  0.0859 -0.5821  0.1187
  291MOL0     C39197   6.471  11.305  10.642  0.1866 -0.0617 -0.8733
  291MOL0     O39198   6.186  11.123  10.771  0.3942 -0.0577  0.8487
  291MOL0     C39199   6.033  10.918  10.630 -0.7609  0.2967 -0.1571
  291MOL0     C39200   5.980  10.797  10.576  0.1570 -0.6666  1.0197
  291MOL0     N39201   5.953  10.152  10.178  1.0663  0.1746 -0.8948
  291MOL0     N39202   5.967  10.059  10.091  0.3941  0.8349  0.4495
  291MOL0     C39203   6.637   9.929   9.345  0.1445  0.2502  0.4767
  291MOL0     C39204   6.774   9.931   9.365  0.2131 -0.2761 -0.0942
  291MOL0     C39205   7.187  10.037   9.382 -0.7973  0.4562  0.3360
  291MOL0     C39206   7.291  10.041   9.289 -0.6142 -0.1084  0.3176
  291MOL0     C39207   7.425  10.034   9.329 -0.5244  0.3070 -0.6139
  291MOL0     C39208   7.463  10.010   9.464 -0.0404  0.3681 -0.5831
  291MOL0     O39209   7.588  10.007   9.517 -0.3415  0.6866  0.3496
  291MOL0     C39210   7.704  10.049   9.440 -0.1445 -0.1920  0.0492
  291MOL0     C39211   7.789   9.933   9.398 -1.0885 -0.5059  0.4877
  291MOL0     C39212   7.742   9.882   9.264  0.5535  1.5040  0.4106
  291MOL0     C39213   7.827   9.771   9.218 -0.3720  1.0252 -0.9852
  291MOL0     C39214   7.755   9.722   9.103 -0.6228 -0.0820  0.0272
  291MOL0     C39215   7.688   9.704   9.004 -0.7638  0.5609  0.1459
  291MOL0     C39216   7.355   9.995   9.557 -0.3418  0.9135  0.3910
  291MOL0     C39217   7.220  10.010   9.513 -0.1807  0.2162 -0.8286
  291MOL0     H39218   6.787  10.212   9.552 -2.6499 -0.9936  1.3873
  291MOL0     H39219   6.566  10.222   9.510 -1.1285  0.0082 -1.8182
  291MOL0     H39220   6.429  10.222   9.330  1.0735 -1.3353 -0.1946
  291MOL0     H39221   6.279  10.137   9.264 -2.1546 -1.2004  0.9434
  291MOL0     H39222   6.349  10.207   9.550  0.6593 -1.5463 -0.6648
  291MOL0     H39223   6.222  10.287   9.457  0.2470  0.0555 -0.3450
  291MOL0     H39224   6.108  10.041   9.448  0.5257 -3.0549  1.3946
  291MOL0     H39225   6.227  10.000   9.564  0.7424 -0.2300 -0.4888
  291MOL0     H39226   6.150  10.146   9.732  0.3658 -2.4883 -1.5211
  291MOL0     H39227   6.062  10.240   9.607 -1.3865 -0.6233 -1.0257
  291MOL0     H39228   5.903  10.037   9.595 -0.8510  0.2997  0.5319
  291MOL0     H39229   5.992   9.962   9.730  0.2228 -0.8418 -2.4546
  291MOL0     H39230   5.958  10.161   9.862  0.5682 -0.2990 -0.6504
  291MOL0     H39231   5.853  10.227   9.739 -2.0714  0.2768  2.9641
  291MOL0     H39232   5.708  10.108   9.899  2.1318  2.0618 -0.4339
  291MOL0     H39233   5.714   9.987   9.761 -1.0728  0.8439 -1.1620
  291MOL0     H39234   5.877   9.865   9.899 -0.5687 -0.3272  0.0393
  291MOL0     H39235   5.720   9.862   9.958  0.9994 -1.3419 -0.0118
  291MOL0     H39236   5.665   9.981  10.183  0.6284 -2.5166  0.9470
  291MOL0     H39237   5.678  10.258  10.314  3.1386  1.4127 -3.6239
  291MOL0     H39238   5.718  10.112  10.421  0.1744  2.3296  4.2519
  291MOL0     H39239   5.921  10.229  10.498  0.9003 -0.5653 -0.3451
  291MOL0     H39240   5.772  10.308  10.535  0.2796 -2.7667  1.0630
  291MOL0     H39241   5.840  10.450  10.294 -2.2133 -1.6516  0.3655
  291MOL0     H39242   5.993  10.361  10.336  0.1080  0.4070  2.3177
  291MOL0     H39243   5.971  10.466  10.564 -1.1070 -2.6453 -0.1317
  291MOL0     H39244   5.834  10.562  10.507 -1.8239 -1.8271 -3.0155
  291MOL0     H39245   6.256  10.713  10.401 -0.2168  1.7278  0.0280
  291MOL0     H39246   6.428  11.001  10.508  0.5657 -0.1943  1.1062
  291MOL0     H39247   6.447  10.865  10.612 -3.0031 -2.4325  0.9362
  291MOL0     H39248   6.430  10.840  10.429  0.9906  0.2393 -0.9743
  291MOL0     H39249   6.155  11.428  10.554  0.2962  1.0467  0.7561
  291MOL0     H39250   6.242  11.626  10.647  2.8646  2.9447  1.0055
  291MOL0     H39251   6.615  11.639  10.887  0.2990 -1.0799 -0.3011
  291MOL0     H39252   6.695  11.642  10.729  2.3063  1.6351  1.5661
  291MOL0     H39253   6.647  11.906  10.738 -3.1461 -0.2200  0.6547
  291MOL0     H39254   6.621  11.873  10.912 -0.2956  1.3904 -0.3429
  291MOL0     H39255   6.853  11.786  10.737 -0.5683  0.8864 -0.2728
  291MOL0     H39256   6.865  11.774  10.910 -0.7023  3.6424  2.6572
  291MOL0     H39257   6.845  12.024  10.740  1.8408 -0.0210 -0.4388
  291MOL0     H39258   6.838  12.025  10.917 -2.0617  0.6359 -0.7875
  291MOL0     H39259   7.047  11.931  10.720  3.0998  0.3927 -0.0487
  291MOL0     H39260   7.067  11.893  10.897 -1.1884 -0.2983  0.2775
  291MOL0     H39261   7.034  12.176  10.758  0.5336 -1.1205 -1.1491
  291MOL0     H39262   7.039  12.144  10.929 -1.8793 -1.0154 -0.0454
  291MOL0     H39263   7.290  12.106  10.926  1.8209  4.8384  0.0871
  291MOL0     H39264   7.251  12.233  10.822 -1.3573 -0.1944 -1.2135
  291MOL0     H39265   7.258  12.085  10.629  2.5922 -0.3552 -0.4342
  291MOL0     H39266   7.269  11.936  10.737 -1.4437 -0.8980  0.4725
  291MOL0     H39267   6.625  11.448  10.702 -0.1798 -0.4878  1.6488
  291MOL0     H39268   6.535  11.217  10.633  1.9312  1.2057 -1.4193
  291MOL0     H39269   5.964  10.978  10.690 -0.4936 -0.4937  0.9603
  291MOL0     H39270   5.876  10.769  10.591 -0.3052  1.7464  2.9046
  291MOL0     H39271   6.605   9.834   9.304  2.5521 -0.6975  0.5847
  291MOL0     H39272   6.830   9.846   9.327 -2.9791 -1.8764 -1.6143
  291MOL0     H39273   7.273  10.053   9.183 -0.5262  1.3994  0.4405
  291MOL0     H39274   7.499  10.040   9.250  2.2542  2.0902  1.8939
  291MOL0     H39275   7.667  10.116   9.362  1.0492  2.0283  1.3218
  291MOL0     H39276   7.761  10.123   9.495  1.8645 -0.3019 -1.7586
  291MOL0     H39277   7.773   9.846   9.463 -1.3751  0.0159  1.1286
  291MOL0     H39278   7.891   9.971   9.395 -1.9130  1.9907  1.6821
  291MOL0     H39279   7.746   9.962   9.188  1.0255 -0.5213 -1.8136
  291MOL0     H39280   7.641   9.843   9.273  1.9196 -2.8103 -0.6358
  291MOL0     H39281   7.839   9.698   9.299  2.3335  0.1334 -2.0765
  291MOL0     H39282   7.930   9.800   9.198 -0.2295 -0.1269 -1.9968
  291MOL0     H39283   7.626   9.678   8.921 -2.2606  0.3728  1.2979
  291MOL0     H39284   7.384   9.972   9.660 -1.5639 -1.4453  0.2737
  291MOL0     H39285   7.143  10.006   9.589  1.5229 -2.9436  0.9429
  292MOL0     O39286   3.087  10.368   1.586 -0.0756 -0.8651  0.1484
  292MOL0     C39287   3.136  10.326   1.476  0.2709 -0.4275 -0.2447
  292MOL0     O39288   3.072  10.310   1.354 -0.7285  0.1469 -0.4665
  292MOL0     C39289   2.948  10.368   1.350  0.3571  1.1493 -0.6320
  292MOL0     C39290   2.926  10.505   1.374  0.1484  1.3597  0.9054
  292MOL0     C39291   2.788  10.547   1.352 -0.6110  0.1265 -0.3640
  292MOL0     C39292   2.686  10.460   1.307 -0.6349 -0.3793 -1.2360
  292MOL0     O39293   2.552  10.511   1.302 -0.6209  0.7739  0.3638
  292MOL0     C39294   2.446  10.419   1.283  0.4865  0.0775 -0.5198
  292MOL0     C39295   2.319  10.496   1.259 -0.0542  0.9090  0.5828
  292MOL0     C39296   2.196  10.404   1.264 -0.2207 -0.0903 -0.2647
  292MOL0     C39297   2.165  10.352   1.402 -0.4222  0.4588 -0.3285
  292MOL0     C39298   2.036  10.274   1.397 -0.4750  0.4923  0.4897
  292MOL0     C39299   2.007  10.183   1.514  0.2133 -0.5920  0.0607
  292MOL0     C39300   1.880  10.103   1.514 -0.3732  0.5263  0.0994
  292MOL0     C39301   1.754  10.179   1.556 -0.3110  0.6881 -0.7595
  292MOL0     N39302   1.637  10.094   1.573  0.0480  0.0075  0.4782
  292MOL0     C39303   1.575  10.065   1.692 -0.4807  0.6884 -0.1538
  292MOL0     C39304   1.490   9.972   1.662  0.5691  0.3373 -1.1091
  292MOL0     C39305   1.386   9.917   1.753  0.3578 -0.1578  0.8695
  292MOL0     C39306   1.455   9.839   1.864  0.3982  0.2389 -0.0446
  292MOL0     C39307   1.357   9.752   1.948  0.0695  0.8494 -0.2653
  292MOL0     C39308   1.426   9.668   2.052 -0.2394 -0.1059 -0.2418
  292MOL0     O39309   1.447   9.737   2.180 -0.3686  0.4726  0.1732
  292MOL0     C39310   1.340   9.741   2.260 -0.0108 -0.7743 -0.9504
  292MOL0     C39311   1.327   9.841   2.355  0.3065 -0.0447  0.2417
  292MOL0     C39312   1.215   9.857   2.437 -0.8419 -0.4875  0.3101
  292MOL0     C39313   1.217   9.967   2.533 -0.8142 -1.0066 -1.0977
  292MOL0     C39314   1.107   9.769   2.420  0.2861 -1.0437  0.6766
  292MOL0     C39315   0.980   9.788   2.492  0.4578  0.8398  0.4470
  292MOL0     O39316   0.914   9.678   2.514  0.2184 -0.6325  0.0050
  292MOL0     C39317   0.782   9.676   2.530 -1.2909  0.0332 -0.4670
  292MOL0     C39318   0.690   9.653   2.430  0.7460 -0.1674  0.6970
  292MOL0     C39319   0.560   9.631   2.461  0.3473 -0.0258 -0.0907
  292MOL0     C39320   0.516   9.636   2.594  0.0419  0.4696  0.5189
  292MOL0     O39321   0.381   9.611   2.619  0.7209 -0.0571  0.1964
  292MOL0     C39322   0.324   9.647   2.741  0.7806  0.1639  0.6347
  292MOL0     C39323   0.168   9.613   2.752  0.3479  1.4473  0.4383
  292MOL0     C39324   0.095   9.691   2.856  0.2334  0.3052  0.3376
  292MOL0     C39325  -0.054   9.662   2.854  0.6724 -0.2877 -0.4821
  292MOL0     C39326  -0.136   9.751   2.956  0.1468 -0.3770  0.0999
  292MOL0     C39327  -0.280   9.703   2.977  0.9201 -0.1043  1.1472
  292MOL0     C39328  -0.365   9.710   2.847  0.1496  0.7233 -0.7178
  292MOL0     C39329  -0.519   9.718   2.868 -0.6072 -0.6093 -0.3624
  292MOL0    Cl39330  -0.553   9.881   2.943  0.1460  0.3169 -0.6712
  292MOL0     C39331   0.611   9.678   2.696 -0.0056  0.7339  0.1623
  292MOL0     C39332   0.743   9.697   2.668  0.0901  0.2692 -0.8705
  292MOL0     O39333   0.934   9.902   2.516 -0.9737  0.3250 -0.3956
  292MOL0     C39334   1.107   9.674   2.319 -0.3710 -0.0676 -0.2766
  292MOL0     C39335   1.223   9.670   2.247 -0.9029 -0.7408  0.7683
  292MOL0     N39336   1.485   9.952   1.526 -0.0539  0.2029  0.7208
  292MOL0     N39337   1.572  10.026   1.470  0.8254 -0.2289 -0.1800
  292MOL0     C39338   2.718  10.325   1.299  1.1163 -0.3650 -0.2151
  292MOL0     C39339   2.845  10.281   1.319  0.5128 -0.6401 -0.1502
  292MOL0     C39340   3.275  10.273   1.473 -0.5382 -0.1905 -0.9020
  292MOL0     C39341   3.330  10.206   1.360  1.2748  0.0676 -0.1665
  292MOL0     C39342   3.462  10.168   1.358  0.7568 -0.5024  0.5746
  292MOL0     C39343   3.540  10.189   1.469  0.4448  0.5908  0.1915
  292MOL0     O39344   3.671  10.159   1.466 -0.0522 -0.5362  0.6580
  292MOL0     C39345   3.764  10.169   1.568 -0.4076  0.6879  0.0356
  292MOL0     C39346   3.903  10.147   1.519 -0.6342 -0.7809 -0.4952
  292MOL0     C39347   4.009  10.185   1.620 -0.2092  0.1210 -0.3623
  292MOL0     C39348   4.150  10.199   1.548  0.2512  0.0291  0.3675
  292MOL0     C39349   4.262  10.203   1.643  0.1416 -0.2976  0.7985
  292MOL0     C39350   4.361  10.218   1.713  0.1445  0.0628 -0.4252
  292MOL0     C39351   3.481  10.249   1.581 -0.5686 -0.1396  0.1528
  292MOL0     C39352   3.352  10.293   1.583 -0.8897  0.6055  0.1812
  292MOL0     H39353   3.016  10.562   1.394  1.0972  0.6760 -1.1025
  292MOL0     H39354   2.765  10.652   1.361 -1.4848 -0.0725 -0.0801
  292MOL0     H39355   2.455  10.350   1.199  0.8618 -0.4870 -0.0237
  292MOL0     H39356   2.437  10.362   1.376 -2.2331  2.1140  0.6455
  292MOL0     H39357   2.311  10.582   1.326  3.6404  1.2473  0.7967
  292MOL0     H39358   2.316  10.539   1.158 -0.6238 -0.2750  0.0721
  292MOL0     H39359   2.109  10.459   1.228  0.8017  1.4828 -0.4235
  292MOL0     H39360   2.215  10.322   1.193  0.1006  0.8306 -1.2791
  292MOL0     H39361   2.246  10.290   1.442 -3.7458 -3.2581  1.2964
  292MOL0     H39362   2.151  10.440   1.466  2.0293 -0.1017  1.1478
  292MOL0     H39363   1.953  10.342   1.377 -0.2872  0.7744  0.6536
  292MOL0     H39364   2.045  10.214   1.306  0.5974  3.8236 -1.7556
  292MOL0     H39365   2.090  10.112   1.519 -0.3347 -1.2671 -0.2538
  292MOL0     H39366   2.018  10.234   1.610 -1.7890 -1.9444  1.0997
  292MOL0     H39367   1.870  10.054   1.417  1.6287 -0.0222  0.1127
  292MOL0     H39368   1.895  10.035   1.599  0.3858  1.8290  1.0645
  292MOL0     H39369   1.735  10.249   1.474  0.3261  1.2256 -0.4628
  292MOL0     H39370   1.775  10.228   1.651  1.3939 -0.9980 -0.1938
  292MOL0     H39371   1.599  10.101   1.791 -1.5470 -1.9919  1.1608
  292MOL0     H39372   1.331  10.005   1.787  1.7900  1.6814 -1.3189
  292MOL0     H39373   1.319   9.851   1.697  0.2414 -0.2827  1.1503
  292MOL0     H39374   1.520   9.898   1.930  1.5397 -0.7134 -0.2824
  292MOL0     H39375   1.521   9.762   1.822  0.5115 -0.4942  1.4192
  292MOL0     H39376   1.314   9.681   1.878  2.1986 -1.0083  0.2079
  292MOL0     H39377   1.276   9.811   1.991 -2.1369 -1.2680 -1.2943
  292MOL0     H39378   1.524   9.634   2.016 -0.1384 -0.7580  0.6364
  292MOL0     H39379   1.375   9.572   2.060  1.6281 -1.1334 -0.0308
  292MOL0     H39380   1.406   9.916   2.358 -0.0236  0.2635  2.6542
  292MOL0     H39381   1.158  10.050   2.493 -0.5273 -0.2609 -0.0300
  292MOL0     H39382   1.180   9.945   2.633 -0.2156 -0.9332 -0.8521
  292MOL0     H39383   1.320  10.006   2.541 -0.7943 -1.1363 -0.7024
  292MOL0     H39384   0.722   9.648   2.327  0.2301 -1.5123  0.5861
  292MOL0     H39385   0.482   9.594   2.396 -0.7456 -0.3874  1.3756
  292MOL0     H39386   0.381   9.595   2.819  2.7541  0.1309 -0.7647
  292MOL0     H39387   0.333   9.755   2.753 -0.6298  0.3098  0.4878
  292MOL0     H39388   0.133   9.637   2.651  0.5092 -0.3146 -0.0646
  292MOL0     H39389   0.163   9.508   2.780  1.0786  0.9033 -1.3489
  292MOL0     H39390   0.115   9.796   2.833  0.8106 -0.4992 -3.6346
  292MOL0     H39391   0.150   9.667   2.947  1.1470  1.0651 -0.0037
  292MOL0     H39392  -0.107   9.680   2.760 -2.2494 -0.1641  1.0675
  292MOL0     H39393  -0.072   9.556   2.874  0.0808 -0.3556 -1.3457
  292MOL0     H39394  -0.128   9.858   2.933  1.5586  0.2163  2.9303
  292MOL0     H39395  -0.086   9.736   3.052  0.2488  0.3812  0.1757
  292MOL0     H39396  -0.266   9.601   3.012  0.0908  0.4859  3.3521
  292MOL0     H39397  -0.329   9.765   3.052 -0.5359 -0.7850  0.7855
  292MOL0     H39398  -0.349   9.614   2.795 -0.0621  0.7892 -0.9042
  292MOL0     H39399  -0.332   9.791   2.782  1.0484  1.1602  0.2587
  292MOL0     H39400  -0.551   9.636   2.933 -1.4022 -0.6983 -0.8583
  292MOL0     H39401  -0.574   9.704   2.775 -1.9967  2.9271 -0.2353
  292MOL0     H39402   0.586   9.674   2.801  0.3458 -2.9609  0.2574
  292MOL0     H39403   0.817   9.717   2.746 -0.6544  1.6825 -0.5149
  292MOL0     H39404   1.024   9.605   2.302 -0.3080  0.8913 -6.8907
  292MOL0     H39405   1.206   9.598   2.167  1.6739 -0.9027  0.2861
  292MOL0     H39406   2.651  10.245   1.271 -0.3142  1.3124 -1.9212
  292MOL0     H39407   2.870  10.175   1.309 -1.3350 -0.9010 -3.4614
  292MOL0     H39408   3.278  10.185   1.267  0.8778  2.3937 -0.5330
  292MOL0     H39409   3.503  10.117   1.272 -0.8071  1.0965 -1.2012
  292MOL0     H39410   3.762  10.266   1.617  1.5643  1.2764 -0.9721
  292MOL0     H39411   3.742  10.091   1.642 -0.8158 -2.1042 -2.7994
  292MOL0     H39412   3.899  10.222   1.439 -3.7382  0.2803  0.4867
  292MOL0     H39413   3.926  10.047   1.483  1.3122 -1.2440  1.8217
  292MOL0     H39414   4.022  10.098   1.686  0.9581  1.1595  0.8509
  292MOL0     H39415   3.973  10.268   1.682 -0.5144 -1.1936  1.3150
  292MOL0     H39416   4.154  10.294   1.494 -1.9137 -0.0309 -0.0047
  292MOL0     H39417   4.172  10.114   1.483 -1.9429  0.0809 -0.5466
  292MOL0     H39418   4.438  10.235   1.786  0.5410 -0.5468 -0.6926
  292MOL0     H39419   3.540  10.262   1.672 -0.3874 -3.4755  0.6168
  292MOL0     H39420   3.309  10.345   1.668 -4.8086 -0.5887 -0.8350
  293MOL0     O39421   6.189  10.983   2.511 -0.1817 -0.0837  0.2073
  293MOL0     C39422   6.202  11.017   2.631  0.0895 -0.8311  0.4664
  293MOL0     O39423   6.101  11.042   2.722 -0.4457 -0.4813 -0.6180
  293MOL0     C39424   5.975  11.026   2.677 -0.5215  0.2536  1.0852
  293MOL0     C39425   5.922  11.070   2.551 -0.8971 -0.5250  0.0084
  293MOL0     C39426   5.789  11.045   2.511  0.2393  0.4360  0.3174
  293MOL0     C39427   5.698  10.982   2.591  0.7257  0.2895 -1.3862
  293MOL0     O39428   5.562  10.988   2.567  0.3485  1.0496 -0.1685
  293MOL0     C39429   5.519  10.969   2.426  0.0177 -0.5896  0.1816
  293MOL0     C39430   5.500  11.099   2.344 -0.8160 -0.6438 -0.4682
  293MOL0     C39431   5.365  11.166   2.375 -0.1879 -0.3930 -0.3230
  293MOL0     C39432   5.258  11.098   2.289 -0.1942  0.4570  0.4626
  293MOL0     C39433   5.121  11.166   2.317  1.0913  0.0673 -0.5925
  293MOL0     C39434   5.001  11.105   2.250 -0.1382 -1.4046  0.3563
  293MOL0     C39435   4.859  11.141   2.308  0.5379  0.2712 -0.1193
  293MOL0     C39436   4.755  11.045   2.254  0.2140  0.0417  0.6806
  293MOL0     N39437   4.619  11.088   2.248 -0.1152 -0.0106  0.4908
  293MOL0     C39438   4.566  11.169   2.160  0.5328 -0.8869  0.3116
  293MOL0     C39439   4.438  11.162   2.186  0.7882  0.3372 -0.7200
  293MOL0     C39440   4.338  11.237   2.103  0.4550  0.0696 -1.0994
  293MOL0     C39441   4.245  11.141   2.023 -0.7718  0.2315 -0.0432
  293MOL0     C39442   4.127  11.094   2.108  0.2233 -0.4364  0.1196
  293MOL0     C39443   4.049  10.978   2.048  0.3133 -0.1783 -0.7539
  293MOL0     O39444   4.004  11.006   1.914  0.2586  0.7079 -0.3041
  293MOL0     C39445   3.871  11.035   1.901  0.3040  0.3085  0.0374
  293MOL0     C39446   3.833  11.160   1.853 -0.9659  0.6737  0.2340
  293MOL0     C39447   3.701  11.199   1.837 -0.3595 -0.1517 -0.1627
  293MOL0     C39448   3.675  11.344   1.802 -0.1318 -0.3358  0.7268
  293MOL0     C39449   3.601  11.098   1.876  0.2190 -0.3189  0.0683
  293MOL0     C39450   3.453  11.114   1.856 -0.1656 -0.0481  0.2783
  293MOL0     O39451   3.411  11.245   1.839 -0.1517 -0.7527 -0.0616
  293MOL0     C39452   3.279  11.268   1.813 -0.2647 -0.3301  0.0814
  293MOL0     C39453   3.260  11.382   1.723 -0.6044  0.7188 -0.6270
  293MOL0     C39454   3.137  11.429   1.693  0.2153 -0.2528  0.1550
  293MOL0     C39455   3.024  11.372   1.747 -0.2891  0.0534 -0.4944
  293MOL0     O39456   2.903  11.423   1.725  0.2459 -0.0510  0.6778
  293MOL0     C39457   2.859  11.476   1.592  0.0394 -0.2621 -0.2330
  293MOL0     C39458   2.736  11.565   1.608  0.1472  0.3145 -0.2128
  293MOL0     C39459   2.656  11.585   1.475 -0.5436 -0.6040  0.5908
  293MOL0     C39460   2.666  11.732   1.429 -0.5874  0.0345  0.4108
  293MOL0     C39461   2.797  11.761   1.349 -0.8027 -0.0517 -0.1593
  293MOL0     C39462   2.811  11.914   1.324 -0.3558  0.5989  0.0682
  293MOL0     C39463   2.949  11.936   1.270 -0.4063 -0.0782  0.5024
  293MOL0     C39464   2.993  12.085   1.299 -0.3331  0.1758  0.3094
  293MOL0    Cl39465   3.164  12.110   1.280 -0.3854  0.0490  0.0040
  293MOL0     C39466   3.039  11.278   1.847  0.4662  0.1112 -0.1929
  293MOL0     C39467   3.166  11.226   1.879 -0.7270 -0.4157 -0.8227
  293MOL0     O39468   3.382  11.015   1.857  0.2308 -0.2146 -0.2611
  293MOL0     C39469   3.642  10.963   1.911  0.5442  0.3781 -0.3449
  293MOL0     C39470   3.774  10.933   1.925  0.6235 -0.3521  0.1081
  293MOL0     N39471   4.410  11.074   2.287  0.0026  0.7761  0.2410
  293MOL0     N39472   4.525  11.041   2.333 -0.1467  0.1203 -0.2146
  293MOL0     C39473   5.753  10.934   2.714  0.5965  0.5651 -0.1583
  293MOL0     C39474   5.889  10.949   2.755  0.2744 -0.0432  0.6135
  293MOL0     C39475   6.346  11.053   2.670  0.4240 -0.6163  0.5726
  293MOL0     C39476   6.379  11.074   2.804  1.1240 -0.7464  0.2481
  293MOL0     C39477   6.514  11.077   2.837 -0.1828 -0.7481 -0.6539
  293MOL0     C39478   6.619  11.078   2.737 -0.1270 -0.2625 -0.2883
  293MOL0     O39479   6.750  11.092   2.772 -0.0470  0.1150  0.0945
  293MOL0     C39480   6.784  11.224   2.816  0.1058 -0.6940 -0.0813
  293MOL0     C39481   6.823  11.327   2.705  0.3252 -0.8880 -0.2627
  293MOL0     C39482   6.931  11.271   2.603 -0.2281 -0.1993  0.1426
  293MOL0     C39483   6.948  11.368   2.483  1.2953 -0.1677 -0.2923
  293MOL0     C39484   7.032  11.312   2.382  0.7735 -0.0535 -0.0544
  293MOL0     C39485   7.085  11.277   2.277 -0.4715 -0.1753 -0.1030
  293MOL0     C39486   6.583  11.041   2.607  0.4395 -1.0378  0.2766
  293MOL0     C39487   6.444  11.045   2.573  0.4293 -0.0901 -0.0275
  293MOL0     H39488   5.993  11.135   2.501 -1.0706 -0.3809 -0.0483
  293MOL0     H39489   5.760  11.089   2.417  2.7541  2.3193  0.3098
  293MOL0     H39490   5.592  10.914   2.367 -0.3451  1.4238 -2.2993
  293MOL0     H39491   5.427  10.910   2.424 -0.0798 -0.4040 -1.3734
  293MOL0     H39492   5.574  11.175   2.370 -0.1927 -1.5331  0.4574
  293MOL0     H39493   5.512  11.077   2.238 -1.3300  0.3680 -0.7435
  293MOL0     H39494   5.341  11.156   2.482 -1.5002  0.6351 -0.4903
  293MOL0     H39495   5.368  11.272   2.348 -0.5598 -0.3307 -0.1320
  293MOL0     H39496   5.273  11.107   2.181 -1.1258  0.6945  0.3470
  293MOL0     H39497   5.260  10.989   2.305  0.3808  0.3468 -0.2769
  293MOL0     H39498   5.110  11.147   2.424  0.0313 -4.0552 -1.2620
  293MOL0     H39499   5.142  11.268   2.284 -0.6547 -0.1246 -2.5171
  293MOL0     H39500   5.003  11.139   2.146  0.6498 -0.7427  0.5695
  293MOL0     H39501   5.012  10.997   2.255 -1.6457 -1.6010 -0.2447
  293MOL0     H39502   4.858  11.137   2.418 -1.8040  1.4596 -0.0393
  293MOL0     H39503   4.832  11.242   2.276  1.3089  0.4054 -0.3752
  293MOL0     H39504   4.763  10.951   2.310  2.7907 -0.0919  0.1759
  293MOL0     H39505   4.783  11.029   2.150  0.2247 -0.8703  0.8156
  293MOL0     H39506   4.609  11.232   2.082 -0.5442  0.7985  1.0221
  293MOL0     H39507   4.277  11.303   2.166 -1.2703 -1.9787 -0.5114
  293MOL0     H39508   4.392  11.299   2.031 -1.5611  2.3188 -0.7958
  293MOL0     H39509   4.299  11.052   1.990 -1.3281  0.2918 -1.1620
  293MOL0     H39510   4.202  11.195   1.938 -3.1432  0.5788  1.2943
  293MOL0     H39511   4.066  11.185   2.113  0.2726 -0.4134  0.3244
  293MOL0     H39512   4.160  11.064   2.208  2.2383 -1.6544 -0.8568
  293MOL0     H39513   3.962  10.952   2.108 -0.9602  0.9016 -2.0362
  293MOL0     H39514   4.107  10.886   2.041  0.0572 -0.3668 -0.4119
  293MOL0     H39515   3.920  11.216   1.822 -0.0492 -1.5853 -1.6236
  293MOL0     H39516   3.634  11.399   1.887  1.1501  1.1307  0.4303
  293MOL0     H39517   3.763  11.401   1.774 -0.7908  0.0372 -0.6382
  293MOL0     H39518   3.608  11.342   1.715 -0.7369  0.9958  1.1309
  293MOL0     H39519   3.349  11.426   1.678 -0.2883  0.7872  0.0534
  293MOL0     H39520   3.113  11.515   1.631 -2.0640 -1.4739 -0.7688
  293MOL0     H39521   2.933  11.533   1.535 -0.5983  0.0903 -0.7290
  293MOL0     H39522   2.831  11.383   1.541 -1.2122  0.1384 -0.3117
  293MOL0     H39523   2.673  11.502   1.671  1.1888  0.2587  0.8081
  293MOL0     H39524   2.752  11.660   1.661 -2.4482  0.1529  1.0166
  293MOL0     H39525   2.553  11.548   1.481 -1.8653  2.1642 -2.4825
  293MOL0     H39526   2.687  11.521   1.392  0.6304  1.2893 -0.4916
  293MOL0     H39527   2.584  11.748   1.358  0.0457  0.1701 -0.3096
  293MOL0     H39528   2.654  11.801   1.512  1.5996 -0.5638  1.2986
  293MOL0     H39529   2.803  11.707   1.254  2.3745  0.3538 -0.3020
  293MOL0     H39530   2.876  11.725   1.416 -0.2696 -0.0817 -0.7971
  293MOL0     H39531   2.734  11.947   1.254  0.7642  0.9560 -1.0251
  293MOL0     H39532   2.800  11.969   1.418 -1.8909  2.4685 -1.1336
  293MOL0     H39533   2.953  11.926   1.161 -0.8398 -4.2531  0.6845
  293MOL0     H39534   3.023  11.867   1.313  0.9682  0.4158 -0.9910
  293MOL0     H39535   2.966  12.117   1.400  2.1660  1.6272  0.5948
  293MOL0     H39536   2.949  12.151   1.223 -1.4385 -0.1703  0.6328
  293MOL0     H39537   2.951  11.268   1.910 -0.0925 -0.0135 -0.9727
  293MOL0     H39538   3.175  11.145   1.951  0.2424  1.6690  1.5420
  293MOL0     H39539   3.574  10.879   1.924  2.2842 -1.2962 -1.5105
  293MOL0     H39540   3.810  10.832   1.939  1.1510 -0.0819  0.7362
  293MOL0     H39541   5.690  10.875   2.780  1.9930 -0.6261  0.1649
  293MOL0     H39542   5.934  10.907   2.843  1.0746 -0.3581  0.0624
  293MOL0     H39543   6.306  11.073   2.884  2.7082 -0.3678  1.7569
  293MOL0     H39544   6.544  11.081   2.942 -0.7263  1.4187 -0.5328
  293MOL0     H39545   6.714  11.277   2.881 -0.4420 -0.0612 -1.1545
  293MOL0     H39546   6.867  11.205   2.885 -1.0329 -2.3690  0.8930
  293MOL0     H39547   6.866  11.415   2.752  1.4003 -1.8382  0.6017
  293MOL0     H39548   6.727  11.353   2.659  0.0504 -3.0280 -1.0418
  293MOL0     H39549   6.889  11.176   2.570  2.7288 -0.9481 -1.8181
  293MOL0     H39550   7.024  11.248   2.655 -0.2418  0.7572  0.6160
  293MOL0     H39551   6.991  11.464   2.514 -1.5294  0.9076  0.5854
  293MOL0     H39552   6.849  11.390   2.442 -0.0435 -0.1859  2.6772
  293MOL0     H39553   7.136  11.249   2.187 -1.5750  2.5350 -1.6851
  293MOL0     H39554   6.660  11.041   2.531  0.8514 -1.6731  0.6912
  293MOL0     H39555   6.409  11.024   2.473  1.4877  2.6343 -1.0766
  294MOL0     O39556   1.481   3.772   6.904  0.1160 -0.0075  0.0311
  294MOL0     C39557   1.525   3.700   6.996  0.2323 -0.5734  1.1713
  294MOL0     O39558   1.459   3.677   7.109 -0.7252  0.9782 -0.7903
  294MOL0     C39559   1.348   3.749   7.123 -0.5812  0.2880 -0.2323
  294MOL0     C39560   1.224   3.690   7.083 -0.4436 -0.3109  0.8504
  294MOL0     C39561   1.102   3.760   7.096  0.4540 -0.1631  0.0738
  294MOL0     C39562   1.098   3.889   7.144  0.8072 -0.2164 -0.4956
  294MOL0     O39563   0.979   3.955   7.177 -0.6253  0.6796  0.1541
  294MOL0     C39564   0.853   3.886   7.191 -0.0729 -0.5137  0.8992
  294MOL0     C39565   0.757   3.980   7.276 -0.2356  0.0838 -0.5289
  294MOL0     C39566   0.637   3.916   7.352  0.1387 -0.1914  0.3717
  294MOL0     C39567   0.533   4.017   7.392 -0.5123  0.0830  0.7452
  294MOL0     C39568   0.448   3.984   7.512 -0.0312  0.0177 -0.2154
  294MOL0     C39569   0.340   4.092   7.542  0.3328  0.3423  0.0450
  294MOL0     C39570   0.331   4.139   7.686  0.2059 -0.2593 -0.7072
  294MOL0     C39571   0.231   4.247   7.693  0.4428  0.4960 -0.5090
  294MOL0     N39572   0.094   4.182   7.697  0.2074  0.2633 -0.0133
  294MOL0     C39573   0.043   4.120   7.808  0.3456 -0.1851 -0.6992
  294MOL0     C39574  -0.088   4.096   7.779  0.1967  0.1833  0.1085
  294MOL0     C39575  -0.183   4.029   7.874  0.6525  0.5807  0.1876
  294MOL0     C39576  -0.209   4.091   8.009 -0.4015 -0.4726  0.1771
  294MOL0     C39577  -0.352   4.057   8.065  0.2139 -0.5997 -0.5813
  294MOL0     C39578  -0.371   4.120   8.207 -0.6650 -0.5245  0.0396
  294MOL0     O39579  -0.460   4.049   8.293  0.1703  0.2173  0.0918
  294MOL0     C39580  -0.597   4.046   8.265  0.3224  0.3008  0.4052
  294MOL0     C39581  -0.685   3.953   8.330 -0.5014  0.8282  0.1849
  294MOL0     C39582  -0.825   3.937   8.308  0.4202 -0.4346  0.0166
  294MOL0     C39583  -0.902   3.840   8.383  0.4005 -0.6619  0.0576
  294MOL0     C39584  -0.884   4.036   8.224  0.3862  0.2888 -0.1606
  294MOL0     C39585  -1.033   4.038   8.181  0.8413  0.6757 -0.3424
  294MOL0     O39586  -1.084   4.151   8.138 -0.0637  0.5819  0.1739
  294MOL0     C39587  -1.216   4.164   8.137 -0.2441 -0.0042  0.3611
  294MOL0     C39588  -1.295   4.152   8.254 -0.0979  0.6862 -0.2606
  294MOL0     C39589  -1.422   4.196   8.255  0.3227 -0.7334  0.1270
  294MOL0     C39590  -1.480   4.250   8.143  0.0020 -1.1265  0.6940
  294MOL0     O39591  -1.598   4.298   8.151  0.2604 -0.2713  0.1732
  294MOL0     C39592  -1.681   4.319   8.035  0.4336 -0.5686  0.2955
  294MOL0     C39593  -1.813   4.351   8.089  0.0411  0.0815 -0.0622
  294MOL0     C39594  -1.912   4.379   7.970 -0.0539  0.5905 -0.0844
  294MOL0     C39595  -2.054   4.402   8.031  0.7305 -0.2355  0.5505
  294MOL0     C39596  -2.143   4.439   7.912  0.3890  0.2606 -0.1202
  294MOL0     C39597  -2.188   4.323   7.823  0.0522 -0.1937  0.5820
  294MOL0     C39598  -2.239   4.198   7.905 -0.6113  0.1341 -0.1147
  294MOL0     C39599  -2.343   4.107   7.828 -0.4750 -0.6068  0.2996
  294MOL0    Cl39600  -2.336   3.934   7.856 -0.3716  0.3308 -0.0619
  294MOL0     C39601  -1.410   4.257   8.015  0.0577  1.2948 -0.0165
  294MOL0     C39602  -1.274   4.221   8.020 -0.3368  0.5998  0.1410
  294MOL0     O39603  -1.110   3.942   8.213 -0.2070  0.1378  0.4106
  294MOL0     C39604  -0.803   4.131   8.157 -0.1109 -0.1156  0.1467
  294MOL0     C39605  -0.660   4.133   8.176  0.7153 -0.0017  0.6554
  294MOL0     N39606  -0.113   4.126   7.648  0.8892 -0.1192  0.5893
  294MOL0     N39607  -0.012   4.194   7.609 -0.3496 -0.4351 -0.1307
  294MOL0     C39608   1.215   3.947   7.185  0.2285 -0.0336 -0.3219
  294MOL0     C39609   1.338   3.881   7.165  1.1275  0.8227  0.5447
  294MOL0     C39610   1.657   3.649   6.971  0.1892  0.7556 -0.0158
  294MOL0     C39611   1.725   3.576   7.069 -0.1585  0.0823 -0.4755
  294MOL0     C39612   1.845   3.517   7.035  0.4640 -0.5594  0.4964
  294MOL0     C39613   1.903   3.522   6.912  0.5023 -0.3486  1.4669
  294MOL0     O39614   2.026   3.463   6.888 -0.4278  0.5627 -0.0179
  294MOL0     C39615   2.009   3.320   6.879 -0.0487 -1.4670  0.2356
  294MOL0     C39616   2.085   3.275   6.757 -1.0578 -0.1071 -0.4354
  294MOL0     C39617   2.237   3.292   6.782 -0.0343  1.0551  0.2513
  294MOL0     C39618   2.303   3.244   6.655 -0.7137 -0.5939  0.3961
  294MOL0     C39619   2.436   3.313   6.637  0.1385  0.3832  0.3510
  294MOL0     C39620   2.541   3.367   6.610 -0.0307 -0.2514 -0.7813
  294MOL0     C39621   1.847   3.604   6.822  0.6123 -0.4589  0.3415
  294MOL0     C39622   1.722   3.653   6.848 -0.7368 -0.2126  0.6772
  294MOL0     H39623   1.229   3.596   7.030  2.7818 -0.1302  0.6777
  294MOL0     H39624   1.005   3.715   7.077  0.2309  0.6427 -0.7665
  294MOL0     H39625   0.809   3.869   7.093 -0.1220 -0.9887  0.9981
  294MOL0     H39626   0.864   3.794   7.249 -1.9351 -1.8994 -0.7929
  294MOL0     H39627   0.819   4.024   7.354 -1.6776 -1.0756  1.3670
  294MOL0     H39628   0.716   4.065   7.221 -5.2261 -0.6023  1.6129
  294MOL0     H39629   0.601   3.833   7.290 -1.4705 -1.1024  2.4122
  294MOL0     H39630   0.670   3.864   7.442  1.6509 -2.8976 -1.5575
  294MOL0     H39631   0.580   4.115   7.406 -0.5052  0.1753  0.1192
  294MOL0     H39632   0.467   4.045   7.310 -2.9964  2.3017  3.2856
  294MOL0     H39633   0.404   3.884   7.515 -0.0261 -0.0821 -2.0060
  294MOL0     H39634   0.518   3.975   7.596 -0.9012  1.9560  0.7704
  294MOL0     H39635   0.356   4.173   7.469 -0.5459 -1.2973 -2.0813
  294MOL0     H39636   0.246   4.044   7.513  1.1817  0.0731 -2.5419
  294MOL0     H39637   0.307   4.059   7.757 -1.5127  0.8288  0.0003
  294MOL0     H39638   0.429   4.173   7.720 -0.1705  0.3136 -0.1888
  294MOL0     H39639   0.251   4.309   7.605 -0.3002  1.3510 -0.1005
  294MOL0     H39640   0.251   4.304   7.784  6.8284 -0.4545 -0.8507
  294MOL0     H39641   0.080   4.099   7.908 -1.4836 -0.0631  0.0276
  294MOL0     H39642  -0.277   4.030   7.817  1.1393  0.3575 -0.6413
  294MOL0     H39643  -0.165   3.921   7.881 -4.4632 -0.4713  1.7762
  294MOL0     H39644  -0.211   4.198   7.986  1.0285 -0.2522  0.9509
  294MOL0     H39645  -0.127   4.065   8.078  0.6241  0.4161 -0.6627
  294MOL0     H39646  -0.353   3.947   8.070  0.4569 -0.5299  2.0803
  294MOL0     H39647  -0.427   4.103   8.000  0.9240  1.3629 -0.0787
  294MOL0     H39648  -0.399   4.225   8.201  0.5549 -0.2507 -2.5385
  294MOL0     H39649  -0.272   4.125   8.253 -0.7801  0.9781  0.1716
  294MOL0     H39650  -0.633   3.893   8.404 -0.6971  0.9556  0.4261
  294MOL0     H39651  -0.839   3.782   8.451  1.3892  0.3194 -0.0124
  294MOL0     H39652  -0.976   3.893   8.444  0.2645 -0.4310 -0.3024
  294MOL0     H39653  -0.955   3.768   8.319  1.2049 -0.0145 -1.3966
  294MOL0     H39654  -1.243   4.112   8.340  0.3801  1.7714 -0.0420
  294MOL0     H39655  -1.478   4.187   8.347 -2.1915  0.8475 -1.1405
  294MOL0     H39656  -1.642   4.409   7.987  1.2953 -0.3923  1.2752
  294MOL0     H39657  -1.675   4.235   7.965 -0.1277 -0.4460  0.0989
  294MOL0     H39658  -1.865   4.269   8.141 -2.0593  1.2273 -0.2428
  294MOL0     H39659  -1.805   4.436   8.157 -0.5901  0.6107 -0.6295
  294MOL0     H39660  -1.918   4.292   7.904  0.9387 -0.4692  1.1413
  294MOL0     H39661  -1.874   4.463   7.911  0.7191 -0.8631 -1.7601
  294MOL0     H39662  -2.080   4.306   8.077 -0.3976 -0.5951 -0.7805
  294MOL0     H39663  -2.059   4.473   8.115  1.0997  0.1653  0.2384
  294MOL0     H39664  -2.090   4.514   7.852 -1.0343  0.5788 -1.0253
  294MOL0     H39665  -2.239   4.480   7.944  0.1665 -0.6271  0.3717
  294MOL0     H39666  -2.264   4.372   7.761  0.1603 -0.3260  0.3461
  294MOL0     H39667  -2.111   4.287   7.756  2.6526  3.8245  1.0493
  294MOL0     H39668  -2.286   4.226   8.000  0.2142  2.6760 -0.3794
  294MOL0     H39669  -2.153   4.139   7.938 -0.2154  1.8268  2.1105
  294MOL0     H39670  -2.323   4.116   7.721  3.0998 -0.5969  0.8358
  294MOL0     H39671  -2.443   4.146   7.846  0.0667  0.4368  1.1437
  294MOL0     H39672  -1.445   4.287   7.917 -1.2293 -2.3462 -0.8155
  294MOL0     H39673  -1.208   4.256   7.942  1.0645 -1.9655  0.0664
  294MOL0     H39674  -0.856   4.199   8.091 -1.0359 -0.9080  0.0433
  294MOL0     H39675  -0.609   4.209   8.118 -0.4713 -0.5896 -1.2616
  294MOL0     H39676   1.218   4.047   7.228 -1.4245 -0.8946  2.0119
  294MOL0     H39677   1.435   3.929   7.181  1.6695 -0.3214  0.7793
  294MOL0     H39678   1.691   3.572   7.172 -0.0839 -2.4683 -0.4965
  294MOL0     H39679   1.902   3.466   7.112  1.1681 -0.3942  0.0998
  294MOL0     H39680   2.047   3.281   6.974  0.7601  2.7083  1.8526
  294MOL0     H39681   1.906   3.285   6.869 -0.6144 -1.3193  4.0498
  294MOL0     H39682   2.067   3.326   6.661  1.2783 -2.0609 -2.0268
  294MOL0     H39683   2.059   3.171   6.738  0.9077 -0.6672 -0.2394
  294MOL0     H39684   2.259   3.237   6.874 -0.9210  0.3900  0.0767
  294MOL0     H39685   2.255   3.396   6.811  1.8791  0.1128  2.8149
  294MOL0     H39686   2.239   3.254   6.567  0.2117 -0.1652 -0.2456
  294MOL0     H39687   2.320   3.136   6.660  1.0139 -0.3577  0.2030
  294MOL0     H39688   2.631   3.413   6.575 -0.1421 -0.7064 -1.7112
  294MOL0     H39689   1.901   3.613   6.728  2.6983 -2.5628  1.2321
  294MOL0     H39690   1.665   3.698   6.767 -1.5093 -1.5967  0.4278
  295MOL0     O39691   8.547  10.877   5.862  0.6396 -0.2133 -0.4950
  295MOL0     C39692   8.573  10.784   5.784 -0.8219  1.1746 -0.3798
  295MOL0     O39693   8.487  10.705   5.713 -0.2770  0.1810  0.1383
  295MOL0     C39694   8.359  10.731   5.701 -0.4555 -0.7855 -0.2683
  295MOL0     C39695   8.325  10.855   5.639  0.3938 -0.0054 -0.6483
  295MOL0     C39696   8.189  10.884   5.640  0.7810 -0.6331  0.1513
  295MOL0     C39697   8.088  10.803   5.690  0.5728  1.1338 -0.1822
  295MOL0     O39698   7.967  10.854   5.666  0.4830 -1.2535  0.7834
  295MOL0     C39699   7.855  10.772   5.661  0.4974 -0.0258 -1.1202
  295MOL0     C39700   7.731  10.864   5.632 -0.9127  0.0948 -1.0598
  295MOL0     C39701   7.701  10.934   5.759 -0.3159  0.8209  0.2225
  295MOL0     C39702   7.584  11.026   5.751 -0.5326 -0.5951  0.0786
  295MOL0     C39703   7.524  11.065   5.890  0.0072 -0.5700  0.0625
  295MOL0     C39704   7.387  11.139   5.884  0.1271  0.1156  0.0548
  295MOL0     C39705   7.278  11.041   5.855  0.3431  0.5059  0.5853
  295MOL0     C39706   7.142  11.101   5.830  0.0566  0.5674 -0.6954
  295MOL0     N39707   7.090  11.152   5.954 -0.5194  0.3107  0.1735
  295MOL0     C39708   7.101  11.277   6.005 -0.5765  0.2281 -0.3275
  295MOL0     C39709   7.042  11.264   6.127  1.2048 -0.0583 -0.0313
  295MOL0     C39710   7.015  11.373   6.226  0.2750  0.1679  0.4564
  295MOL0     C39711   6.870  11.402   6.258 -0.6334 -0.0507  0.0292
  295MOL0     C39712   6.871  11.518   6.362  0.1911 -0.3870 -0.1198
  295MOL0     C39713   6.728  11.571   6.392 -0.3996  0.3949 -0.6040
  295MOL0     O39714   6.663  11.622   6.278  0.1672  0.2305 -0.4956
  295MOL0     C39715   6.528  11.669   6.297 -0.4678  0.2763  0.4708
  295MOL0     C39716   6.480  11.721   6.416  0.1551  0.7052  0.0881
  295MOL0     C39717   6.343  11.758   6.417 -0.2449 -0.3679 -0.8138
  295MOL0     C39718   6.295  11.805   6.551  0.7392  0.6083 -0.4026
  295MOL0     C39719   6.262  11.741   6.300  0.1993  0.1604  0.2970
  295MOL0     C39720   6.120  11.771   6.297  0.3712  0.4648  0.6452
  295MOL0     O39721   6.044  11.716   6.194 -0.1037 -0.4405 -0.4101
  295MOL0     C39722   5.906  11.728   6.208 -0.8376  1.3066  0.2490
  295MOL0     C39723   5.842  11.825   6.132  0.2183 -0.3201  0.6418
  295MOL0     C39724   5.700  11.841   6.142 -0.0266  0.3833  0.1507
  295MOL0     C39725   5.634  11.748   6.231 -0.6412  0.1175  0.1347
  295MOL0     O39726   5.498  11.738   6.248 -0.5648 -0.3675  0.8860
  295MOL0     C39727   5.425  11.857   6.212  0.2543  0.0296  0.3962
  295MOL0     C39728   5.285  11.846   6.251 -0.0332 -0.5817 -0.5417
  295MOL0     C39729   5.248  11.785   6.385 -0.1349 -0.0590  0.0031
  295MOL0     C39730   5.103  11.829   6.401 -0.1187 -0.6396 -0.7689
  295MOL0     C39731   5.050  11.766   6.528  0.3652  0.2930 -0.1080
  295MOL0     C39732   4.895  11.784   6.536  0.3891  0.2798 -0.7853
  295MOL0     C39733   4.832  11.726   6.659 -0.0987  0.0986 -0.2930
  295MOL0     C39734   4.691  11.755   6.663  0.2167 -0.7743 -0.3809
  295MOL0    Cl39735   4.647  11.929   6.708 -0.1151 -0.0539 -0.2842
  295MOL0     C39736   5.702  11.652   6.295 -0.3350  0.4111  0.3803
  295MOL0     C39737   5.832  11.637   6.284 -0.0327  0.0382  0.2774
  295MOL0     O39738   6.073  11.848   6.380  0.2751 -0.1488  0.0146
  295MOL0     C39739   6.319  11.720   6.178 -0.6805  0.0411  0.1648
  295MOL0     C39740   6.452  11.674   6.176  0.4418 -0.7562 -0.9684
  295MOL0     N39741   7.003  11.134   6.141  0.4648 -0.5347 -0.7198
  295MOL0     N39742   7.028  11.069   6.036  0.7708  0.0115 -0.1718
  295MOL0     C39743   8.126  10.675   5.735 -0.2883 -0.6875 -0.7011
  295MOL0     C39744   8.261  10.647   5.743 -0.0558 -0.0579  0.3835
  295MOL0     C39745   8.726  10.774   5.779 -0.6055 -0.1668 -0.3542
  295MOL0     C39746   8.821  10.823   5.878 -0.2589 -0.4166  0.0851
  295MOL0     C39747   8.955  10.790   5.870 -0.3525 -0.4771 -0.3536
  295MOL0     C39748   9.009  10.718   5.759  0.0972 -0.1778  0.3022
  295MOL0     O39749   9.137  10.695   5.733  0.2196  0.1221 -0.0199
  295MOL0     C39750   9.237  10.725   5.832  0.4872 -0.6192  0.2047
  295MOL0     C39751   9.300  10.860   5.826 -0.1016 -0.4379 -0.0172
  295MOL0     C39752   9.425  10.864   5.919 -0.3790  0.4432 -0.1712
  295MOL0     C39753   9.486  11.007   5.927  0.5364 -0.3299  0.7838
  295MOL0     C39754   9.603  11.020   6.007 -0.4487 -0.7325 -0.3376
  295MOL0     C39755   9.699  11.046   6.073 -0.4768 -0.5921 -0.3527
  295MOL0     C39756   8.917  10.674   5.664  0.5161 -0.1449  0.5908
  295MOL0     C39757   8.778  10.704   5.673 -0.0060  0.2364 -0.4683
  295MOL0     H39758   8.406  10.920   5.606 -1.0965  1.9358 -0.6691
  295MOL0     H39759   8.156  10.976   5.592 -0.2252  1.3199  4.2141
  295MOL0     H39760   7.859  10.693   5.586  0.8932 -1.6422  0.5217
  295MOL0     H39761   7.833  10.712   5.750  0.5114 -2.3986 -2.6291
  295MOL0     H39762   7.762  10.943   5.563 -0.4593 -0.1549 -1.1433
  295MOL0     H39763   7.649  10.800   5.598  1.4623 -2.2328 -2.7842
  295MOL0     H39764   7.664  10.857   5.827  1.8752 -1.4384 -0.9579
  295MOL0     H39765   7.785  10.990   5.800 -0.9960  1.0354  1.3603
  295MOL0     H39766   7.617  11.107   5.684  0.4354 -3.0320 -2.5873
  295MOL0     H39767   7.507  10.971   5.697  2.1938 -3.5459 -1.1382
  295MOL0     H39768   7.503  10.979   5.954 -1.8870 -1.7734 -2.0234
  295MOL0     H39769   7.598  11.120   5.948 -0.9858  0.1398  0.6944
  295MOL0     H39770   7.362  11.187   5.979 -0.5831 -1.1678  0.5383
  295MOL0     H39771   7.387  11.208   5.799  1.7601 -3.0057 -2.7354
  295MOL0     H39772   7.315  10.990   5.765 -3.2463  2.4700 -2.2902
  295MOL0     H39773   7.277  10.972   5.940 -0.9722  2.8019  2.5811
  295MOL0     H39774   7.076  11.027   5.785 -0.9635  0.2656  1.2019
  295MOL0     H39775   7.159  11.187   5.764 -2.9128  0.9742 -1.0553
  295MOL0     H39776   7.138  11.368   5.957  1.3271 -0.6226 -0.5645
  295MOL0     H39777   7.073  11.359   6.318  0.4779  0.4311  0.3714
  295MOL0     H39778   7.053  11.464   6.178  1.3084  0.5559  1.9298
  295MOL0     H39779   6.822  11.316   6.306  1.7383 -1.1862  0.4759
  295MOL0     H39780   6.807  11.434   6.174 -0.1914  1.7309  0.3504
  295MOL0     H39781   6.912  11.600   6.302 -0.6393 -0.4647 -0.8127
  295MOL0     H39782   6.914  11.480   6.455 -2.0286 -1.4527  0.5471
  295MOL0     H39783   6.738  11.655   6.461 -1.7529  1.7095 -1.9177
  295MOL0     H39784   6.661  11.499   6.440  1.0475 -0.8017 -0.3263
  295MOL0     H39785   6.546  11.719   6.502  0.7608  0.6238 -0.3711
  295MOL0     H39786   6.200  11.755   6.568  2.6869 -3.9133 -1.1773
  295MOL0     H39787   6.370  11.761   6.617  0.4086 -2.0028 -1.6001
  295MOL0     H39788   6.283  11.913   6.557 -1.0568  0.3551  1.3560
  295MOL0     H39789   5.900  11.883   6.061 -0.4168 -1.9207 -1.2807
  295MOL0     H39790   5.651  11.921   6.089  2.0785  0.5923 -1.6337
  295MOL0     H39791   5.477  11.942   6.258 -0.2159 -0.3414  1.6689
  295MOL0     H39792   5.426  11.873   6.104  0.9871 -0.8596  0.2642
  295MOL0     H39793   5.241  11.946   6.249 -0.6586 -0.8408 -2.5304
  295MOL0     H39794   5.238  11.790   6.169  0.2811 -0.9091 -0.4999
  295MOL0     H39795   5.319  11.831   6.455  1.3374 -0.6295 -1.0491
  295MOL0     H39796   5.254  11.675   6.384 -1.1343 -0.1400  0.9729
  295MOL0     H39797   5.098  11.938   6.408  0.7689 -0.5742 -0.9845
  295MOL0     H39798   5.045  11.806   6.311 -2.3749  3.1483 -0.5117
  295MOL0     H39799   5.101  11.804   6.616 -0.1511  2.1266 -0.5606
  295MOL0     H39800   5.069  11.658   6.525  2.2191  0.5826 -0.0509
  295MOL0     H39801   4.864  11.888   6.526 -1.0467 -0.0614 -0.0867
  295MOL0     H39802   4.850  11.725   6.455  2.3888 -1.0447 -1.0180
  295MOL0     H39803   4.875  11.759   6.754 -1.0910 -0.1375  0.2459
  295MOL0     H39804   4.841  11.618   6.649  0.6133  0.3591 -3.6900
  295MOL0     H39805   4.652  11.699   6.749 -1.6843  2.0815  0.7450
  295MOL0     H39806   4.630  11.719   6.579 -1.0065 -0.4996  0.3808
  295MOL0     H39807   5.647  11.581   6.356 -0.6376  0.7928  0.5577
  295MOL0     H39808   5.895  11.564   6.334 -2.5502 -2.4833  0.0064
  295MOL0     H39809   6.272  11.738   6.081 -2.1737  2.5795  1.2836
  295MOL0     H39810   6.510  11.666   6.085  1.0669 -1.5913 -0.5150
  295MOL0     H39811   8.054  10.597   5.758 -2.4304  1.7954  1.6713
  295MOL0     H39812   8.300  10.548   5.764 -3.2748 -1.4898  0.1279
  295MOL0     H39813   8.790  10.881   5.965  1.0129  1.8193 -0.8542
  295MOL0     H39814   9.013  10.818   5.958 -1.9981 -3.7086  1.9966
  295MOL0     H39815   9.213  10.714   5.939  2.3878  3.3357  1.2437
  295MOL0     H39816   9.320  10.654   5.829  0.7927 -0.4543  2.4223
  295MOL0     H39817   9.225  10.932   5.860 -1.3147 -1.4796 -0.3822
  295MOL0     H39818   9.330  10.884   5.724  1.0177  0.5559  0.5279
  295MOL0     H39819   9.503  10.806   5.870  1.0775  1.5719  0.7301
  295MOL0     H39820   9.388  10.826   6.015  0.6150  0.4935  0.2443
  295MOL0     H39821   9.407  11.061   5.982 -0.1274 -2.1184  1.6779
  295MOL0     H39822   9.508  11.053   5.831  0.7154  0.1943  1.0726
  295MOL0     H39823   9.782  11.079   6.132  0.5305  0.0186 -2.0304
  295MOL0     H39824   8.954  10.608   5.586 -0.6415  0.4904 -0.5251
  295MOL0     H39825   8.711  10.657   5.602  0.0531 -0.4338 -0.0907
  296MOL0     O39826   9.355   7.305   0.126 -0.6398  1.0775 -0.4773
  296MOL0     C39827   9.316   7.337   0.011 -0.5652 -0.0008 -0.4394
  296MOL0     O39828   9.399   7.372  -0.093  0.3875 -0.5043  0.1618
  296MOL0     C39829   9.532   7.366  -0.081 -0.2799 -0.0010 -0.2366
  296MOL0     C39830   9.605   7.481  -0.098 -0.2842  0.0132 -0.2528
  296MOL0     C39831   9.747   7.483  -0.101 -0.8141  0.2548  0.5830
  296MOL0     C39832   9.821   7.363  -0.075 -0.0282 -0.7288 -0.1595
  296MOL0     O39833   9.956   7.370  -0.085 -0.3473 -0.4894  0.2857
  296MOL0     C39834  10.036   7.277  -0.016 -0.6244  0.2359  0.0317
  296MOL0     C39835  10.185   7.300  -0.048  0.4696  0.2515  0.6159
  296MOL0     C39836  10.280   7.183   0.000  0.2732  0.0982  0.7809
  296MOL0     C39837  10.354   7.225   0.120 -1.0833  0.0083 -0.3030
  296MOL0     C39838  10.454   7.111   0.153  0.2018 -0.6154 -0.6866
  296MOL0     C39839  10.415   7.045   0.286 -0.1058 -0.3317 -0.3473
  296MOL0     C39840  10.492   6.913   0.320 -0.4387 -0.3315 -0.9012
  296MOL0     C39841  10.531   6.892   0.470 -0.4505 -0.6531  0.3391
  296MOL0     N39842  10.409   6.908   0.556  0.3536  0.1609  0.5395
  296MOL0     C39843  10.282   6.861   0.525 -0.1210 -1.0010  0.1319
  296MOL0     C39844  10.194   6.940   0.592  0.3871  0.1075  0.5974
  296MOL0     C39845  10.046   6.925   0.619 -0.5495  0.3670 -0.1738
  296MOL0     C39846  10.015   6.817   0.731  0.1056 -0.0007 -0.3014
  296MOL0     C39847  10.025   6.868   0.877 -0.1596 -0.4977  0.5646
  296MOL0     C39848   9.940   6.794   0.975 -0.5333 -0.3837 -0.0949
  296MOL0     O39849   9.804   6.771   0.934 -0.0832  0.6896 -0.7447
  296MOL0     C39850   9.704   6.857   0.979  0.6407 -0.2115 -0.8823
  296MOL0     C39851   9.577   6.812   0.949  0.5768  0.5996 -0.5022
  296MOL0     C39852   9.463   6.876   0.991 -0.0017  1.0565 -0.4814
  296MOL0     C39853   9.322   6.823   0.942 -0.3401  0.1930  0.4832
  296MOL0     C39854   9.482   6.999   1.059  0.9705 -0.1301 -0.2900
  296MOL0     C39855   9.367   7.085   1.096  0.1315  0.2564 -0.0689
  296MOL0     O39856   9.383   7.221   1.075 -0.3953 -0.6347  0.5120
  296MOL0     C39857   9.288   7.309   1.099 -0.2933  0.2530  0.4307
  296MOL0     C39858   9.236   7.318   1.230 -0.7013 -0.5924  0.1577
  296MOL0     C39859   9.122   7.402   1.262 -0.0987 -0.5750 -0.5271
  296MOL0     C39860   9.071   7.487   1.166 -0.1128  0.0797  0.0052
  296MOL0     O39861   8.962   7.566   1.179  0.2106  0.4275 -0.0732
  296MOL0     C39862   8.885   7.579   1.304  0.3326  0.1642  0.4224
  296MOL0     C39863   8.751   7.644   1.273  1.2580 -0.7022  0.3759
  296MOL0     C39864   8.765   7.790   1.250 -0.3745 -0.3669 -0.3775
  296MOL0     C39865   8.632   7.847   1.212  0.3182 -0.0769 -0.1697
  296MOL0     C39866   8.639   8.002   1.208  0.0300 -0.0578 -0.0977
  296MOL0     C39867   8.505   8.064   1.175  0.2957  1.0385  0.2481
  296MOL0     C39868   8.500   8.217   1.206 -0.9174 -0.7092 -1.3259
  296MOL0     C39869   8.378   8.298   1.162  0.1448  0.1530  0.3611
  296MOL0    Cl39870   8.249   8.242   1.272  0.4785 -0.2692  0.2757
  296MOL0     C39871   9.124   7.467   1.035 -0.4820  0.4899  0.5331
  296MOL0     C39872   9.228   7.383   0.997 -1.0043 -0.0586 -0.7038
  296MOL0     O39873   9.261   7.035   1.128  0.3743 -0.1585 -0.4304
  296MOL0     C39874   9.610   7.053   1.078  0.6292  1.0347  0.4396
  296MOL0     C39875   9.716   6.979   1.043  0.1522 -0.0378  0.3954
  296MOL0     N39876  10.274   7.023   0.668  0.4582  0.2094  0.5267
  296MOL0     N39877  10.399   7.002   0.646 -0.1257  0.1266  0.1414
  296MOL0     C39878   9.744   7.255  -0.048  0.2083  0.6434 -0.8137
  296MOL0     C39879   9.602   7.249  -0.038  0.0262  0.7358  0.6051
  296MOL0     C39880   9.170   7.350  -0.016  0.1768 -0.0299 -0.3774
  296MOL0     C39881   9.121   7.305  -0.140 -0.3996 -0.9515  0.0261
  296MOL0     C39882   8.985   7.308  -0.170  0.3658 -0.2183 -0.1953
  296MOL0     C39883   8.893   7.357  -0.075 -0.6995  0.0546  0.0607
  296MOL0     O39884   8.758   7.348  -0.107  0.6212 -0.2623  0.0383
  296MOL0     C39885   8.664   7.382  -0.005  0.6730  0.0396 -0.0218
  296MOL0     C39886   8.531   7.385  -0.072 -0.1774  0.1161  0.2550
  296MOL0     C39887   8.432   7.452   0.036  0.1448  0.6949 -0.2380
  296MOL0     C39888   8.308   7.502  -0.038  0.7661 -0.4725 -0.3759
  296MOL0     C39889   8.196   7.529   0.060  0.8610  0.4523  0.2366
  296MOL0     C39890   8.118   7.540   0.154  0.6261 -0.4715  0.3973
  296MOL0     C39891   8.942   7.418   0.043 -0.0629 -0.0167 -0.2110
  296MOL0     C39892   9.074   7.413   0.070 -0.5366  0.2207  0.0989
  296MOL0     H39893   9.549   7.573  -0.105 -0.1690  0.2098  1.0919
  296MOL0     H39894   9.809   7.571  -0.115  1.9898 -1.6838  0.0084
  296MOL0     H39895  10.032   7.300   0.091 -2.8760  1.4483 -0.2541
  296MOL0     H39896  10.011   7.172  -0.032 -1.4041  0.5320 -0.7207
  296MOL0     H39897  10.192   7.297  -0.157 -2.6757 -1.8225  0.3623
  296MOL0     H39898  10.206   7.404  -0.024 -3.0098  1.0671  0.5690
  296MOL0     H39899  10.228   7.091   0.028 -0.0008 -0.3285 -1.0639
  296MOL0     H39900  10.342   7.163  -0.088 -0.8176 -0.5844  0.1404
  296MOL0     H39901  10.408   7.319   0.103 -0.7293 -0.2886 -0.8558
  296MOL0     H39902  10.278   7.232   0.199  0.7749 -0.0762  1.5947
  296MOL0     H39903  10.467   7.038   0.072  1.3960 -0.3221 -0.7780
  296MOL0     H39904  10.554   7.154   0.163 -0.2348  0.2573  0.0584
  296MOL0     H39905  10.444   7.120   0.361  2.9795  0.0710 -1.7857
  296MOL0     H39906  10.309   7.020   0.289 -0.0801 -0.6128 -1.4204
  296MOL0     H39907  10.433   6.826   0.290 -0.7092 -1.4164  2.4549
  296MOL0     H39908  10.585   6.909   0.262 -0.4772 -2.4905 -0.8854
  296MOL0     H39909  10.609   6.964   0.496 -1.6426 -0.1750  2.8909
  296MOL0     H39910  10.564   6.788   0.482  0.3505 -0.4380  0.0607
  296MOL0     H39911  10.241   6.782   0.462 -3.7025  1.6656 -1.2256
  296MOL0     H39912  10.015   7.025   0.650  0.9071  0.2848  1.6702
  296MOL0     H39913   9.990   6.914   0.525 -0.9209 -2.7430  0.3224
  296MOL0     H39914  10.075   6.728   0.711  1.0933  0.4075  0.7645
  296MOL0     H39915   9.908   6.791   0.738  0.7906 -2.7155  3.3707
  296MOL0     H39916   9.997   6.973   0.875  2.7781  0.3598  0.5970
  296MOL0     H39917  10.130   6.863   0.906 -0.0695  0.8501  0.4904
  296MOL0     H39918   9.946   6.846   1.072 -0.5780  0.0984 -0.3455
  296MOL0     H39919   9.988   6.698   0.995  0.2840  0.1850  0.8295
  296MOL0     H39920   9.560   6.711   0.913 -0.9194  0.7792 -0.3277
  296MOL0     H39921   9.335   6.760   0.855  0.7153 -1.3258  1.6937
  296MOL0     H39922   9.271   6.765   1.020 -1.7474  1.7118  0.7584
  296MOL0     H39923   9.261   6.906   0.903  0.0833 -0.1148 -0.8568
  296MOL0     H39924   9.293   7.255   1.297 -1.1032 -3.2397 -1.8570
  296MOL0     H39925   9.073   7.403   1.360 -0.4649  0.0169 -0.7099
  296MOL0     H39926   8.866   7.477   1.338  0.4004  1.8611  6.9308
  296MOL0     H39927   8.942   7.625   1.386  2.9984 -2.2048  0.0606
  296MOL0     H39928   8.706   7.611   1.179 -1.0738 -1.2091  1.5923
  296MOL0     H39929   8.678   7.622   1.353  0.8464 -0.5879  0.0341
  296MOL0     H39930   8.842   7.810   1.175 -0.6053 -2.0665 -1.1047
  296MOL0     H39931   8.791   7.831   1.348 -2.6056  1.6110 -0.5321
  296MOL0     H39932   8.611   7.810   1.111  0.8903  0.8125 -0.6320
  296MOL0     H39933   8.568   7.815   1.294  0.1380  1.1574  0.1978
  296MOL0     H39934   8.715   8.030   1.135  0.0608 -1.6548 -0.7299
  296MOL0     H39935   8.666   8.034   1.309  0.1620  0.6140 -0.3449
  296MOL0     H39936   8.493   8.046   1.068 -0.3928 -0.3948  0.5427
  296MOL0     H39937   8.428   8.005   1.226  0.7380 -1.2656 -1.5817
  296MOL0     H39938   8.591   8.268   1.172 -0.2007 -1.3592 -0.4287
  296MOL0     H39939   8.495   8.214   1.315 -1.9620  0.3873 -1.3216
  296MOL0     H39940   8.347   8.283   1.058 -0.3974 -0.9220  0.6639
  296MOL0     H39941   8.404   8.403   1.176  3.4542 -0.5220  0.0092
  296MOL0     H39942   9.074   7.523   0.956 -2.5392 -1.5826  0.2678
  296MOL0     H39943   9.257   7.379   0.892  1.3826 -3.7310 -0.1361
  296MOL0     H39944   9.617   7.151   1.126 -0.8648  1.4151 -0.0849
  296MOL0     H39945   9.815   7.020   1.056  0.1314 -0.6795  3.0323
  296MOL0     H39946   9.783   7.159  -0.016 -1.4989 -0.2671 -1.2919
  296MOL0     H39947   9.543   7.166  -0.002  1.5334 -0.3873  0.5806
  296MOL0     H39948   9.186   7.261  -0.215 -3.1447 -3.8601 -0.8368
  296MOL0     H39949   8.942   7.275  -0.264 -2.8464  2.0726  0.3147
  296MOL0     H39950   8.658   7.313   0.079 -2.8537  1.2615  0.9006
  296MOL0     H39951   8.682   7.481   0.037 -1.9180  0.2815  0.6793
  296MOL0     H39952   8.502   7.281  -0.089 -0.7121  0.4869 -1.2508
  296MOL0     H39953   8.546   7.441  -0.164  1.0038 -0.0759  0.3217
  296MOL0     H39954   8.486   7.540   0.072  1.0746  0.4265 -0.9277
  296MOL0     H39955   8.414   7.389   0.123 -1.7365  2.4256  0.7192
  296MOL0     H39956   8.283   7.431  -0.117 -2.4819  1.8241 -1.6213
  296MOL0     H39957   8.334   7.593  -0.094  1.1157 -0.4634 -0.1983
  296MOL0     H39958   8.045   7.550   0.232  0.8848  0.9708  0.4711
  296MOL0     H39959   8.874   7.464   0.115  0.3856  1.0916 -0.4714
  296MOL0     H39960   9.103   7.453   0.167 -3.8086 -2.4899  2.4010
  297MOL0     O39961   2.953   1.985   6.066  0.1269  0.3923  0.5302
  297MOL0     C39962   3.020   1.923   5.985  0.5879  0.4688  0.0057
  297MOL0     O39963   2.996   1.799   5.932  0.3584 -0.6211  0.1856
  297MOL0     C39964   2.891   1.722   5.984 -0.3633 -0.2886  0.0592
  297MOL0     C39965   2.869   1.702   6.118 -1.5195  0.1261  0.0375
  297MOL0     C39966   2.762   1.628   6.151  0.0874  0.4513 -0.2461
  297MOL0     C39967   2.673   1.574   6.058  0.6772 -0.6874  0.1967
  297MOL0     O39968   2.572   1.489   6.083 -0.3166  0.0535 -1.0063
  297MOL0     C39969   2.529   1.461   6.213  0.3057 -0.7400 -0.1155
  297MOL0     C39970   2.416   1.370   6.230 -0.0406  0.4592 -0.1970
  297MOL0     C39971   2.407   1.309   6.367  0.3643  0.3816 -1.6305
  297MOL0     C39972   2.282   1.214   6.375 -0.3791 -0.0657 -0.2684
  297MOL0     C39973   2.157   1.290   6.420 -0.3479 -0.0185 -0.1750
  297MOL0     C39974   2.028   1.204   6.424 -0.3143 -0.3545 -0.2403
  297MOL0     C39975   1.979   1.140   6.292  0.1307 -0.2537  0.3061
  297MOL0     C39976   1.838   1.095   6.294  0.4785 -0.0177 -0.0882
  297MOL0     N39977   1.744   1.206   6.258 -0.4918  0.0121 -0.2725
  297MOL0     C39978   1.703   1.305   6.346 -0.8356  1.0904 -0.6685
  297MOL0     C39979   1.626   1.383   6.263 -0.3053  0.5394 -0.4066
  297MOL0     C39980   1.567   1.516   6.298 -0.1540 -0.4483 -0.8935
  297MOL0     C39981   1.425   1.498   6.351 -0.9606  0.8254  0.0341
  297MOL0     C39982   1.329   1.472   6.235 -0.2247  0.2035  0.4209
  297MOL0     C39983   1.190   1.448   6.283  0.1295  0.0568 -0.3811
  297MOL0     O39984   1.125   1.408   6.164 -0.0632  0.2213 -0.3648
  297MOL0     C39985   0.987   1.385   6.155 -0.4755  0.0576  0.3428
  297MOL0     C39986   0.901   1.404   6.264  0.1425 -0.3966 -0.4162
  297MOL0     C39987   0.760   1.378   6.249 -0.3340  0.4121 -0.2662
  297MOL0     C39988   0.690   1.373   6.381 -0.5721 -0.0865  0.2598
  297MOL0     C39989   0.709   1.329   6.129 -0.7468 -0.4913 -0.3515
  297MOL0     C39990   0.570   1.302   6.103  0.0041  0.3249  0.2128
  297MOL0     O39991   0.538   1.280   5.967 -0.4053  0.4826  0.1731
  297MOL0     C39992   0.410   1.242   5.919 -0.9542 -0.0885  0.6369
  297MOL0     C39993   0.293   1.283   5.979  0.0496  0.2009  0.3232
  297MOL0     C39994   0.171   1.229   5.928 -0.7478  0.1853 -0.7777
  297MOL0     C39995   0.171   1.147   5.814  0.6763 -0.0062 -0.3100
  297MOL0     O39996   0.048   1.102   5.772  0.0307 -0.2971  0.0261
  297MOL0     C39997   0.041   0.955   5.769 -0.8041  1.3147  0.2559
  297MOL0     C39998  -0.102   0.913   5.770 -0.1574  0.5443  0.3624
  297MOL0     C39999  -0.166   0.957   5.641  0.7627 -0.0969 -0.0936
  297MOL0     C40000  -0.312   0.965   5.646 -0.0843 -0.4447  0.5678
  297MOL0     C40001  -0.370   0.984   5.497  0.0012 -0.6027  1.3157
  297MOL0     C40002  -0.381   0.851   5.416  0.1430 -0.3265 -0.3325
  297MOL0     C40003  -0.471   0.741   5.478  0.5296  0.1314  1.2701
  297MOL0     C40004  -0.618   0.769   5.444  0.0968 -0.0400 -0.4478
  297MOL0    Cl40005  -0.724   0.633   5.451 -0.2555 -0.0962 -0.3745
  297MOL0     C40006   0.289   1.109   5.757 -0.4536  0.0513 -0.3280
  297MOL0     C40007   0.407   1.170   5.800  0.0515  0.3772  0.3210
  297MOL0     O40008   0.491   1.303   6.192  0.9372 -0.0210  0.1669
  297MOL0     C40009   0.807   1.301   6.023  0.2568  0.9236  0.9093
  297MOL0     C40010   0.942   1.335   6.035  0.7232 -0.5266  0.0278
  297MOL0     N40011   1.617   1.328   6.139 -0.4516 -0.6554 -0.7445
  297MOL0     N40012   1.690   1.221   6.138 -0.0476 -0.2407  0.5293
  297MOL0     C40013   2.700   1.591   5.926  0.0708  0.2654  0.0907
  297MOL0     C40014   2.811   1.661   5.885 -0.1412  0.9086 -0.2401
  297MOL0     C40015   3.151   1.984   5.941  0.0980  0.1079  0.1535
  297MOL0     C40016   3.236   1.924   5.843  0.4829 -0.5657  0.2088
  297MOL0     C40017   3.368   1.968   5.821  0.0394  0.1080 -0.9118
  297MOL0     C40018   3.412   2.080   5.887 -0.0691  0.8824 -0.7243
  297MOL0     O40019   3.530   2.129   5.853 -0.8026 -0.0618 -0.3254
  297MOL0     C40020   3.600   2.220   5.937 -0.3082 -0.7389  1.0733
  297MOL0     C40021   3.742   2.241   5.882  0.9191  0.5470  0.9336
  297MOL0     C40022   3.824   2.344   5.961 -0.3594  0.8244 -0.5117
  297MOL0     C40023   3.964   2.351   5.896  1.0747 -0.2495  0.1043
  297MOL0     C40024   4.039   2.455   5.962  0.4663 -1.1332  0.2815
  297MOL0     C40025   4.108   2.546   6.008  0.2189  0.0164  0.3617
  297MOL0     C40026   3.318   2.149   5.959  0.0493 -0.2518  0.4390
  297MOL0     C40027   3.186   2.107   5.992  0.5160  0.6703 -0.8610
  297MOL0     H40028   2.932   1.747   6.194 -0.4583  2.4021 -2.0525
  297MOL0     H40029   2.734   1.624   6.256 -1.3795  1.3226 -0.5897
  297MOL0     H40030   2.608   1.431   6.281 -0.4987  1.5634  1.9783
  297MOL0     H40031   2.490   1.555   6.252  1.9589 -0.5401  1.1232
  297MOL0     H40032   2.328   1.419   6.190  0.7111  1.6026 -0.5027
  297MOL0     H40033   2.437   1.284   6.166  1.9765 -1.9198  3.2648
  297MOL0     H40034   2.488   1.238   6.386 -1.6999 -1.6983 -0.0794
  297MOL0     H40035   2.397   1.386   6.445  0.9163  1.8503 -2.9529
  297MOL0     H40036   2.267   1.159   6.282 -0.4567 -0.3066 -0.1141
  297MOL0     H40037   2.310   1.139   6.449 -1.4069 -0.6773 -0.4829
  297MOL0     H40038   2.182   1.332   6.518  4.9097 -0.7294 -0.9201
  297MOL0     H40039   2.141   1.366   6.343 -3.6909 -1.6881 -1.3177
  297MOL0     H40040   2.028   1.132   6.506 -0.2939  0.2875  0.3327
  297MOL0     H40041   1.955   1.276   6.462 -1.3949 -1.5467  0.0452
  297MOL0     H40042   1.987   1.210   6.209 -1.1659 -0.5397 -0.0815
  297MOL0     H40043   2.042   1.054   6.266 -0.8165 -0.4893 -1.3512
  297MOL0     H40044   1.799   1.057   6.389 -2.4412 -0.6937 -1.4265
  297MOL0     H40045   1.826   1.018   6.218 -0.8114 -1.2593  1.3113
  297MOL0     H40046   1.735   1.314   6.449 -0.8140  0.0400 -0.5736
  297MOL0     H40047   1.624   1.571   6.374 -1.2864 -0.7863  0.2318
  297MOL0     H40048   1.570   1.580   6.209 -1.5236 -2.4545 -2.4621
  297MOL0     H40049   1.392   1.593   6.394  0.9172  1.4031  0.3022
  297MOL0     H40050   1.419   1.416   6.423 -0.8248  0.5977 -0.2096
  297MOL0     H40051   1.363   1.380   6.187 -1.5406 -0.6857  1.1295
  297MOL0     H40052   1.331   1.561   6.171  0.3600  0.1085  0.3023
  297MOL0     H40053   1.141   1.531   6.334  0.3806 -1.6422  2.9192
  297MOL0     H40054   1.191   1.363   6.353  1.2849  0.1201 -0.3076
  297MOL0     H40055   0.940   1.420   6.364  2.3386  1.2991 -1.4679
  297MOL0     H40056   0.608   1.444   6.379 -0.3241  0.2238 -2.5292
  297MOL0     H40057   0.647   1.275   6.405  1.9682 -1.4252 -0.2381
  297MOL0     H40058   0.748   1.414   6.465 -0.0704 -1.6928  0.7399
  297MOL0     H40059   0.288   1.343   6.069 -0.7277  0.1798  0.3009
  297MOL0     H40060   0.075   1.249   5.976 -1.2381 -1.7169 -0.8816
  297MOL0     H40061   0.091   0.917   5.680  2.1145 -1.7809  2.9253
  297MOL0     H40062   0.092   0.898   5.847 -1.1513 -2.5654 -2.1243
  297MOL0     H40063  -0.125   0.807   5.783  0.2879  0.6955  3.2260
  297MOL0     H40064  -0.145   0.955   5.861 -0.6363 -1.4244  1.0881
  297MOL0     H40065  -0.144   0.889   5.559 -1.6482  1.4559 -2.1908
  297MOL0     H40066  -0.121   1.055   5.620  0.3946  0.7872  2.7286
  297MOL0     H40067  -0.348   0.869   5.683 -2.9755  0.8202  1.3400
  297MOL0     H40068  -0.340   1.042   5.719 -1.6056 -0.1143 -0.3118
  297MOL0     H40069  -0.314   1.055   5.436 -3.4777  1.1672 -0.1306
  297MOL0     H40070  -0.468   1.032   5.505  0.6748  0.9493  0.6636
  297MOL0     H40071  -0.405   0.873   5.312 -0.1799 -0.6129 -0.3180
  297MOL0     H40072  -0.286   0.797   5.412  1.0310  1.2253 -3.5249
  297MOL0     H40073  -0.447   0.724   5.583  1.6575 -1.2771  0.8149
  297MOL0     H40074  -0.443   0.644   5.435 -0.2352  0.5743 -0.3132
  297MOL0     H40075  -0.634   0.818   5.347 -1.6009  2.6794  1.0547
  297MOL0     H40076  -0.664   0.842   5.512 -1.9900 -0.2266 -1.5694
  297MOL0     H40077   0.290   1.035   5.678  0.3110 -0.7201  0.3886
  297MOL0     H40078   0.499   1.144   5.748 -0.7477 -1.4353 -0.2451
  297MOL0     H40079   0.767   1.261   5.930 -1.5687  0.3775  1.8818
  297MOL0     H40080   1.012   1.326   5.953 -0.5314 -3.5419 -0.8280
  297MOL0     H40081   2.634   1.542   5.855  2.6337 -0.0718 -2.2370
  297MOL0     H40082   2.825   1.679   5.779  0.5094 -1.6597 -0.6515
  297MOL0     H40083   3.193   1.847   5.779  1.0812 -1.0295  0.3544
  297MOL0     H40084   3.422   1.914   5.744 -0.3373 -2.5236  0.5531
  297MOL0     H40085   3.547   2.315   5.925 -0.5042 -0.6161  2.7624
  297MOL0     H40086   3.609   2.189   6.041 -1.4500 -1.7668  0.8938
  297MOL0     H40087   3.733   2.284   5.781  2.3242  0.9458  0.9597
  297MOL0     H40088   3.788   2.142   5.873  1.6688  0.7318  2.5172
  297MOL0     H40089   3.828   2.320   6.067 -4.7342  1.7882  0.0705
  297MOL0     H40090   3.770   2.439   5.963 -1.9899  0.0341 -2.7859
  297MOL0     H40091   3.960   2.383   5.791  3.2287 -1.2887 -0.3636
  297MOL0     H40092   4.008   2.251   5.902  0.4027 -0.5958 -0.5074
  297MOL0     H40093   4.173   2.612   6.062 -0.8547  0.4764  1.1266
  297MOL0     H40094   3.351   2.250   5.982  0.5795 -0.3790  0.2509
  297MOL0     H40095   3.129   2.159   6.069  0.4667 -0.8628  0.1842
  298MOL0     O40096  10.042   6.368   9.018 -0.6640  0.5656  0.3149
  298MOL0     C40097  10.023   6.258   8.965  0.4140  0.6334  0.1690
  298MOL0     O40098   9.900   6.195   8.941 -0.0071 -0.4336  0.2064
  298MOL0     C40099   9.785   6.260   8.977  0.6843 -0.5328 -0.0730
  298MOL0     C40100   9.667   6.221   8.914  0.0803  0.5175  0.5401
  298MOL0     C40101   9.544   6.268   8.953 -0.5814  0.2813  1.4108
  298MOL0     C40102   9.523   6.348   9.063  0.2171 -0.0794  0.4202
  298MOL0     O40103   9.410   6.404   9.114 -0.0208 -0.2040  0.1112
  298MOL0     C40104   9.291   6.375   9.036  0.8668 -0.0967  0.5912
  298MOL0     C40105   9.181   6.449   9.108 -0.1152 -0.2397 -0.5820
  298MOL0     C40106   9.049   6.415   9.042  0.2203 -0.7072  0.4921
  298MOL0     C40107   8.930   6.476   9.118 -1.1671 -0.4857  0.4944
  298MOL0     C40108   8.797   6.440   9.045  0.1288  0.8060 -0.1104
  298MOL0     C40109   8.685   6.528   9.106 -0.2409 -0.6979  0.2857
  298MOL0     C40110   8.573   6.550   9.010 -0.6225 -0.7215 -0.8155
  298MOL0     C40111   8.584   6.673   8.915  0.6263  0.7667  0.0934
  298MOL0     N40112   8.473   6.656   8.824  0.2155  0.8608  0.1002
  298MOL0     C40113   8.341   6.685   8.858  0.0585 -0.1726 -0.0452
  298MOL0     C40114   8.281   6.702   8.735  0.0269 -0.3086 -0.4908
  298MOL0     C40115   8.136   6.744   8.706  0.1159 -0.1590  0.5692
  298MOL0     C40116   8.038   6.642   8.754  0.9778  0.4536  0.3770
  298MOL0     C40117   7.894   6.690   8.707  0.2876  0.3738 -0.2226
  298MOL0     C40118   7.829   6.786   8.798 -0.7122 -0.6716  0.2571
  298MOL0     O40119   7.763   6.722   8.907 -0.4716  0.0744 -0.7101
  298MOL0     C40120   7.630   6.726   8.922  0.2651 -0.3021  0.6139
  298MOL0     C40121   7.582   6.621   9.003  0.7647 -0.3740 -0.5571
  298MOL0     C40122   7.437   6.607   9.027  0.0585 -0.0990  0.7287
  298MOL0     C40123   7.397   6.491   9.108  0.0758 -0.0503 -0.1541
  298MOL0     C40124   7.354   6.705   8.989 -0.6436  0.2257  0.0018
  298MOL0     C40125   7.211   6.701   9.030 -1.4664 -0.2671  0.5068
  298MOL0     O40126   7.185   6.714   9.160 -0.1589 -0.3325 -0.3100
  298MOL0     C40127   7.058   6.714   9.209  0.4254  0.0229  0.4262
  298MOL0     C40128   7.037   6.794   9.318  0.0985  0.2828 -0.1675
  298MOL0     C40129   6.905   6.795   9.378 -0.0172 -0.2092 -0.5915
  298MOL0     C40130   6.806   6.721   9.323  1.0819 -0.9473 -0.8205
  298MOL0     O40131   6.677   6.709   9.375  0.6139  0.5215 -0.0306
  298MOL0     C40132   6.643   6.783   9.495  0.0933  0.1172 -0.0982
  298MOL0     C40133   6.504   6.763   9.537  0.1389  0.1308 -0.3412
  298MOL0     C40134   6.503   6.630   9.611  0.5650  0.0525  0.4645
  298MOL0     C40135   6.355   6.600   9.654 -0.3663 -0.6046 -0.1363
  298MOL0     C40136   6.353   6.462   9.721  0.0508 -0.5652  0.2780
  298MOL0     C40137   6.216   6.428   9.762  0.8421  0.3540 -0.8577
  298MOL0     C40138   6.197   6.292   9.831  0.4354 -1.0340  0.1233
  298MOL0     C40139   6.058   6.271   9.886  0.5167 -0.1258  0.6008
  298MOL0    Cl40140   5.938   6.250   9.754  0.0353 -0.5848  0.3659
  298MOL0     C40141   6.827   6.642   9.207 -0.0600 -0.2331  0.3986
  298MOL0     C40142   6.959   6.633   9.155 -0.1088 -0.7414  0.1250
  298MOL0     O40143   7.135   6.712   8.938  0.1885  0.0445  0.2746
  298MOL0     C40144   7.410   6.819   8.922 -1.1386 -0.6929 -0.6568
  298MOL0     C40145   7.547   6.835   8.893  0.5653  0.0444  0.0561
  298MOL0     N40146   8.371   6.670   8.636 -0.9860  0.0825 -0.5620
  298MOL0     N40147   8.488   6.651   8.689  0.0068 -0.2634 -0.0557
  298MOL0     C40148   9.640   6.377   9.134 -0.5787 -0.2016 -0.4325
  298MOL0     C40149   9.769   6.336   9.096 -0.8477 -0.5011 -0.6073
  298MOL0     C40150  10.149   6.194   8.908  0.2560 -0.3258  0.0804
  298MOL0     C40151  10.143   6.068   8.847 -0.4790 -0.4915  0.2870
  298MOL0     C40152  10.256   6.000   8.807  0.0130 -0.0601  0.1523
  298MOL0     C40153  10.388   6.051   8.819  1.0360 -0.0929 -0.6964
  298MOL0     O40154  10.487   5.969   8.763  0.1488  0.0319 -0.4533
  298MOL0     C40155  10.615   6.019   8.733 -0.0875 -0.2180 -0.6312
  298MOL0     C40156  10.612   6.086   8.593  0.6973 -0.4816  0.3921
  298MOL0     C40157  10.738   6.165   8.574 -0.4467 -0.4597  0.3910
  298MOL0     C40158  10.757   6.302   8.650 -0.3882  0.7150  0.7412
  298MOL0     C40159  10.807   6.280   8.792 -0.0222  0.1241  0.3827
  298MOL0     C40160  10.839   6.261   8.909  1.7306 -0.9228  0.1590
  298MOL0     C40161  10.397   6.192   8.859 -0.2088 -1.0602 -1.2067
  298MOL0     C40162  10.278   6.255   8.907 -0.6822 -1.1272 -0.3294
  298MOL0     H40163   9.679   6.163   8.823 -1.0198  0.4224  0.4400
  298MOL0     H40164   9.457   6.248   8.891 -0.0799  2.2806 -0.0567
  298MOL0     H40165   9.307   6.417   8.936  2.6072  0.6671  1.1549
  298MOL0     H40166   9.270   6.267   9.033  1.1496 -0.1636 -3.1815
  298MOL0     H40167   9.173   6.417   9.212 -0.0845  0.3656 -0.3867
  298MOL0     H40168   9.189   6.558   9.113 -1.9928 -0.0831 -0.3962
  298MOL0     H40169   9.056   6.461   8.943 -1.8278 -0.1854  0.5405
  298MOL0     H40170   9.044   6.306   9.037  1.5666 -0.7458 -0.9188
  298MOL0     H40171   8.940   6.439   9.221 -1.0669 -1.6926  0.0577
  298MOL0     H40172   8.939   6.585   9.112  0.1496 -0.6649 -2.9540
  298MOL0     H40173   8.803   6.481   8.943  0.2867  1.5494  0.1925
  298MOL0     H40174   8.767   6.334   9.041  1.5260  0.3817  0.0779
  298MOL0     H40175   8.638   6.481   9.193 -2.1186  3.7473  2.0290
  298MOL0     H40176   8.723   6.624   9.142 -1.5593  0.6960 -1.8017
  298MOL0     H40177   8.558   6.461   8.949 -3.0391 -4.6732  4.6419
  298MOL0     H40178   8.483   6.556   9.072  1.0154  2.3194  1.5282
  298MOL0     H40179   8.687   6.689   8.882  0.6911  0.6639  0.2416
  298MOL0     H40180   8.561   6.757   8.982 -1.1646 -1.4994  2.5273
  298MOL0     H40181   8.302   6.693   8.959 -0.5025  0.6247 -0.3241
  298MOL0     H40182   8.122   6.845   8.745 -0.2678 -0.3680  0.9769
  298MOL0     H40183   8.130   6.758   8.598  0.5859 -3.0248  0.0978
  298MOL0     H40184   8.046   6.614   8.860  3.1302 -0.6189 -0.0040
  298MOL0     H40185   8.053   6.552   8.694 -1.7974  1.1119 -1.5089
  298MOL0     H40186   7.830   6.602   8.718 -0.1818  0.7616  0.2825
  298MOL0     H40187   7.895   6.725   8.604  1.5387  0.6320 -0.1347
  298MOL0     H40188   7.760   6.852   8.744  2.1120  1.1232 -1.4392
  298MOL0     H40189   7.909   6.851   8.834  0.1334 -0.3641 -1.9981
  298MOL0     H40190   7.649   6.545   9.040  3.3194  1.2150 -1.6358
  298MOL0     H40191   7.473   6.481   9.186  1.4020 -2.4736 -1.6292
  298MOL0     H40192   7.300   6.500   9.159  1.3140  1.3112  2.1430
  298MOL0     H40193   7.398   6.394   9.058  1.8349 -0.6744  0.9873
  298MOL0     H40194   7.111   6.867   9.349 -2.4005  2.3526  1.3722
  298MOL0     H40195   6.895   6.856   9.467 -0.7996 -2.9451  1.3089
  298MOL0     H40196   6.712   6.758   9.576 -0.5291 -4.3978 -0.6845
  298MOL0     H40197   6.643   6.889   9.467 -1.2798 -0.3999 -2.3727
  298MOL0     H40198   6.468   6.837   9.609 -0.7665 -0.9657  0.3866
  298MOL0     H40199   6.432   6.750   9.456  1.1646  0.3171 -1.3019
  298MOL0     H40200   6.563   6.641   9.702  0.5145 -0.3719  0.5512
  298MOL0     H40201   6.541   6.538   9.566 -1.3499 -0.5039 -0.1294
  298MOL0     H40202   6.317   6.680   9.718  1.5577 -0.3746  0.8046
  298MOL0     H40203   6.298   6.592   9.561 -1.2683  1.8005  0.1430
  298MOL0     H40204   6.415   6.461   9.811 -1.8707  0.2643  1.7042
  298MOL0     H40205   6.391   6.386   9.652 -2.2828 -1.6300  0.0787
  298MOL0     H40206   6.177   6.507   9.827 -2.5779 -3.0914  1.7531
  298MOL0     H40207   6.153   6.425   9.673  1.8292  1.6687 -1.6221
  298MOL0     H40208   6.268   6.290   9.915 -0.3253 -0.0446  0.8232
  298MOL0     H40209   6.228   6.216   9.759 -0.1276 -1.5094  0.3798
  298MOL0     H40210   6.010   6.349   9.945 -3.0617  0.2450 -2.4478
  298MOL0     H40211   6.062   6.190   9.959  1.8782  0.3104  1.0382
  298MOL0     H40212   6.753   6.577   9.161 -0.2632  0.1683  0.1504
  298MOL0     H40213   6.972   6.573   9.066 -0.3508  0.1347 -0.5194
  298MOL0     H40214   7.341   6.898   8.893 -0.7428  0.5577  1.5596
  298MOL0     H40215   7.593   6.922   8.848 -0.1862  0.2543 -0.3330
  298MOL0     H40216   9.633   6.438   9.223 -3.0003 -1.2458  0.1563
  298MOL0     H40217   9.852   6.359   9.163  0.0802  0.7233 -2.1116
  298MOL0     H40218  10.052   6.010   8.848 -0.2323 -1.0308  3.2354
  298MOL0     H40219  10.250   5.902   8.760  0.3209  0.0735 -0.1637
  298MOL0     H40220  10.661   6.090   8.803  2.6210 -3.2207  0.8921
  298MOL0     H40221  10.680   5.932   8.732 -1.8034 -1.5513 -1.1295
  298MOL0     H40222  10.519   6.144   8.596  0.3747 -0.8690 -1.0661
  298MOL0     H40223  10.601   6.017   8.508 -1.0363  0.6534 -0.3555
  298MOL0     H40224  10.752   6.199   8.470 -0.3504  0.9475  0.8441
  298MOL0     H40225  10.829   6.109   8.598  1.3317  2.7715  1.7259
  298MOL0     H40226  10.659   6.350   8.651  0.5089  2.6355  0.0653
  298MOL0     H40227  10.823   6.369   8.594  0.7574  0.7846  2.1265
  298MOL0     H40228  10.876   6.256   9.010  3.8420  2.1352 -0.3163
  298MOL0     H40229  10.490   6.246   8.860 -0.5602 -0.4099 -2.2795
  298MOL0     H40230  10.291   6.353   8.953 -2.1535 -0.5920 -0.9973
  299MOL0     O40231   0.709   2.991   4.934  0.4094 -0.7780  0.3149
  299MOL0     C40232   0.775   3.084   4.980 -0.2806  0.4929 -0.0641
  299MOL0     O40233   0.747   3.154   5.094 -0.0674  0.7385 -0.7554
  299MOL0     C40234   0.621   3.156   5.149  0.0258 -0.1769  0.0717
  299MOL0     C40235   0.500   3.138   5.075 -0.0533 -0.6186 -0.2051
  299MOL0     C40236   0.381   3.137   5.145  1.0411 -0.6060  0.3418
  299MOL0     C40237   0.373   3.149   5.283 -0.1515 -0.4119  0.5993
  299MOL0     O40238   0.254   3.158   5.349 -0.4357 -0.4353  0.1505
  299MOL0     C40239   0.130   3.214   5.291 -0.7337  0.2298  0.3252
  299MOL0     C40240   0.051   3.303   5.395  0.0563 -0.6415  0.5784
  299MOL0     C40241  -0.094   3.326   5.354 -0.8546  0.1885 -0.5336
  299MOL0     C40242  -0.151   3.449   5.432 -0.0923  0.2077 -0.8254
  299MOL0     C40243  -0.299   3.430   5.485  0.8517  0.7022 -0.0072
  299MOL0     C40244  -0.394   3.432   5.368  0.6798  0.6645  0.3628
  299MOL0     C40245  -0.528   3.371   5.393 -0.0788  0.1109  0.5758
  299MOL0     C40246  -0.606   3.461   5.495  0.0050  0.2924  0.7082
  299MOL0     N40247  -0.750   3.434   5.492 -0.3984 -0.5961  0.2690
  299MOL0     C40248  -0.810   3.322   5.527  1.1815 -0.3016  0.2614
  299MOL0     C40249  -0.940   3.333   5.511  0.2015 -0.0098 -0.1858
  299MOL0     C40250  -1.043   3.224   5.527  0.3022 -0.0261 -0.2694
  299MOL0     C40251  -1.180   3.278   5.565  0.5947 -0.3559  0.1338
  299MOL0     C40252  -1.271   3.174   5.624 -0.0011  0.2332 -0.5034
  299MOL0     C40253  -1.405   3.249   5.668 -0.7011 -0.8951 -0.3229
  299MOL0     O40254  -1.467   3.292   5.546 -0.0410 -0.0471  0.9483
  299MOL0     C40255  -1.589   3.350   5.561 -0.4395 -0.2599  0.3999
  299MOL0     C40256  -1.650   3.406   5.450  0.1937 -0.6068  0.1565
  299MOL0     C40257  -1.781   3.462   5.457  0.0490  0.0408  0.1247
  299MOL0     C40258  -1.840   3.520   5.332  0.6189  1.1678 -0.3957
  299MOL0     C40259  -1.857   3.453   5.580  0.3913  0.5511 -0.2990
  299MOL0     C40260  -1.995   3.500   5.597  0.0750  0.4259  0.1611
  299MOL0     O40261  -2.032   3.543   5.723 -0.2443  0.1144 -0.1286
  299MOL0     C40262  -2.146   3.619   5.729 -0.0940  0.3116  0.0525
  299MOL0     C40263  -2.251   3.578   5.813 -0.1396  0.3209 -0.3297
  299MOL0     C40264  -2.363   3.657   5.842  0.5605  0.1148 -0.3137
  299MOL0     C40265  -2.368   3.778   5.777  1.2019 -0.5551 -0.5964
  299MOL0     O40266  -2.463   3.869   5.802 -0.5524  0.0374  0.2583
  299MOL0     C40267  -2.581   3.829   5.872 -0.2052  0.4289 -0.3110
  299MOL0     C40268  -2.672   3.950   5.851  0.1727 -0.2167  0.6116
  299MOL0     C40269  -2.807   3.935   5.919 -0.3882 -0.4614  1.0867
  299MOL0     C40270  -2.813   3.986   6.063 -1.0612 -0.2532 -0.5404
  299MOL0     C40271  -2.780   4.140   6.081  0.0353 -0.8450  0.7385
  299MOL0     C40272  -2.849   4.206   6.198  0.1200  0.0200  0.3836
  299MOL0     C40273  -2.797   4.160   6.334 -0.1707 -0.8066  0.2860
  299MOL0     C40274  -2.646   4.136   6.352 -0.4503 -0.0908 -0.1005
  299MOL0    Cl40275  -2.537   4.279   6.355 -0.0395 -0.2880 -0.0618
  299MOL0     C40276  -2.268   3.815   5.687  0.3477  0.1459  0.4319
  299MOL0     C40277  -2.158   3.744   5.657  0.0469  0.4829 -0.5503
  299MOL0     O40278  -2.071   3.484   5.505  0.4738 -0.0311  0.0067
  299MOL0     C40279  -1.788   3.389   5.687  0.9384 -0.3064  0.7872
  299MOL0     C40280  -1.662   3.339   5.677  0.6352 -0.5248 -0.8845
  299MOL0     N40281  -0.958   3.465   5.462  0.7034  0.1775  0.0969
  299MOL0     N40282  -0.841   3.520   5.457  0.3442 -0.5096 -0.9990
  299MOL0     C40283   0.494   3.169   5.351 -0.2660  0.3650  0.6479
  299MOL0     C40284   0.615   3.170   5.284  1.3099 -0.5783 -0.0658
  299MOL0     C40285   0.892   3.134   4.900 -0.1667  0.4134  0.1231
  299MOL0     C40286   0.997   3.211   4.955 -0.3818  0.0798  0.1458
  299MOL0     C40287   1.106   3.253   4.873  0.9353  0.3106  0.4291
  299MOL0     C40288   1.118   3.216   4.735 -0.2405 -0.0999  0.0801
  299MOL0     O40289   1.226   3.236   4.649 -0.4430 -0.1832 -0.6021
  299MOL0     C40290   1.287   3.368   4.659 -0.7564  0.4338  0.4108
  299MOL0     C40291   1.415   3.378   4.744 -0.3903  0.7413  0.1435
  299MOL0     C40292   1.525   3.278   4.711  0.1298 -0.5534 -1.1206
  299MOL0     C40293   1.665   3.347   4.711  0.4523  0.0638  0.2163
  299MOL0     C40294   1.715   3.376   4.847 -0.7743 -0.8159  0.0222
  299MOL0     C40295   1.750   3.398   4.963  0.6532 -0.6077  0.0591
  299MOL0     C40296   1.000   3.156   4.682 -0.7848  0.5913 -0.2475
  299MOL0     C40297   0.889   3.118   4.762  0.3565 -0.8071 -0.4620
  299MOL0     H40298   0.505   3.140   4.967 -0.0810  0.8466 -0.2063
  299MOL0     H40299   0.287   3.145   5.091  1.1241  0.4693  0.3291
  299MOL0     H40300   0.147   3.279   5.205 -3.1286  0.3722 -0.1212
  299MOL0     H40301   0.066   3.135   5.251  0.8658 -0.1918 -1.5110
  299MOL0     H40302   0.053   3.256   5.493 -0.4780 -1.7551  0.0728
  299MOL0     H40303   0.106   3.396   5.416 -1.4003 -0.3742  3.8470
  299MOL0     H40304  -0.109   3.348   5.248 -1.0301 -0.1633 -0.5835
  299MOL0     H40305  -0.154   3.246   5.398  0.6750 -1.0247 -0.5941
  299MOL0     H40306  -0.092   3.460   5.523  0.3315 -1.6232 -0.8457
  299MOL0     H40307  -0.138   3.540   5.372 -0.2329  1.0270  0.3579
  299MOL0     H40308  -0.314   3.330   5.526  0.7047  0.6507 -0.1840
  299MOL0     H40309  -0.331   3.507   5.555  1.4712  1.2908 -0.3656
  299MOL0     H40310  -0.409   3.536   5.338 -0.8412 -0.2103 -2.3334
  299MOL0     H40311  -0.353   3.378   5.282 -2.6377 -0.8782 -0.4147
  299MOL0     H40312  -0.572   3.371   5.293  1.1747  2.8282 -0.0697
  299MOL0     H40313  -0.522   3.268   5.429  3.1759  0.4643  1.3977
  299MOL0     H40314  -0.591   3.566   5.466 -2.7369  0.3957 -0.6264
  299MOL0     H40315  -0.577   3.442   5.599 -1.3083  3.9130  1.8889
  299MOL0     H40316  -0.749   3.236   5.552  1.2357 -1.0431 -2.2142
  299MOL0     H40317  -1.058   3.157   5.442  0.6532 -1.2601  0.6098
  299MOL0     H40318  -1.004   3.163   5.608 -0.0064  0.7468  0.4773
  299MOL0     H40319  -1.222   3.332   5.479  0.6203  0.7716  0.8045
  299MOL0     H40320  -1.171   3.351   5.646 -0.4235 -0.4993  0.3889
  299MOL0     H40321  -1.221   3.128   5.710 -1.2205  0.3507  0.3064
  299MOL0     H40322  -1.291   3.096   5.551  1.4265 -0.1462 -0.5248
  299MOL0     H40323  -1.401   3.327   5.744  1.0296 -4.0882  3.2512
  299MOL0     H40324  -1.467   3.173   5.717 -0.0908 -1.8064 -0.9318
  299MOL0     H40325  -1.591   3.401   5.359  4.4767 -0.0676  2.6218
  299MOL0     H40326  -1.767   3.526   5.251  1.1139 -1.3594 -0.2402
  299MOL0     H40327  -1.910   3.445   5.292  0.8640  3.0245 -4.9648
  299MOL0     H40328  -1.894   3.613   5.349  3.0641  2.0265  3.9607
  299MOL0     H40329  -2.248   3.483   5.865  2.3785  0.6987  0.3274
  299MOL0     H40330  -2.446   3.628   5.906 -1.1533  1.5112 -1.7549
  299MOL0     H40331  -2.636   3.748   5.822  0.6120 -1.0063  1.0196
  299MOL0     H40332  -2.567   3.796   5.975  0.8198  0.4623 -0.4312
  299MOL0     H40333  -2.622   4.038   5.894 -2.1533  1.4460  0.1171
  299MOL0     H40334  -2.682   3.961   5.742 -0.4979  1.1453  0.7810
  299MOL0     H40335  -2.830   3.828   5.912  2.1433 -0.9391 -1.5449
  299MOL0     H40336  -2.876   3.990   5.854  0.3836 -0.6274  0.0909
  299MOL0     H40337  -2.917   3.970   6.091 -1.6003  2.2367 -0.8486
  299MOL0     H40338  -2.745   3.925   6.123  1.6628  0.5966 -2.5352
  299MOL0     H40339  -2.817   4.194   5.993 -0.0684  1.1436  1.9442
  299MOL0     H40340  -2.674   4.163   6.086 -0.1411 -0.2729  2.5616
  299MOL0     H40341  -2.836   4.313   6.179  4.8141 -0.8575 -3.0628
  299MOL0     H40342  -2.957   4.191   6.184  0.3111  0.0458 -1.3979
  299MOL0     H40343  -2.849   4.069   6.364 -0.9146 -0.4225  0.1919
  299MOL0     H40344  -2.832   4.229   6.412 -2.1372  0.4136 -1.5642
  299MOL0     H40345  -2.606   4.053   6.293  2.5904  0.7567  0.5815
  299MOL0     H40346  -2.629   4.085   6.447 -1.2673 -2.3882 -1.1187
  299MOL0     H40347  -2.275   3.913   5.642  1.7813  0.4449  0.8111
  299MOL0     H40348  -2.087   3.782   5.585 -0.0186 -0.2906 -1.0388
  299MOL0     H40349  -1.849   3.363   5.773  2.2717 -3.1591  0.9689
  299MOL0     H40350  -1.627   3.295   5.771  2.4001  2.1069 -0.2052
  299MOL0     H40351   0.495   3.184   5.459 -2.8607  2.0755  0.5230
  299MOL0     H40352   0.699   3.196   5.347 -0.5287  1.7109  1.6058
  299MOL0     H40353   0.997   3.237   5.061  0.1650 -0.2247  0.2242
  299MOL0     H40354   1.177   3.317   4.924 -0.2846  1.4708  0.7354
  299MOL0     H40355   1.311   3.385   4.554  0.6996 -1.5630  0.3639
  299MOL0     H40356   1.220   3.450   4.688 -0.9548  0.6434 -0.6129
  299MOL0     H40357   1.390   3.359   4.849 -0.9566  0.7283  0.0089
  299MOL0     H40358   1.459   3.479   4.743 -0.9974  1.0082 -0.4185
  299MOL0     H40359   1.491   3.244   4.612 -0.1773  3.6108 -2.6760
  299MOL0     H40360   1.527   3.199   4.786  0.2725  0.1344 -0.3847
  299MOL0     H40361   1.654   3.445   4.664  1.5012 -0.8287 -2.0569
  299MOL0     H40362   1.751   3.292   4.671  1.4696  1.6060  0.1734
  299MOL0     H40363   1.783   3.412   5.064 -2.0381 -0.3542  1.0050
  299MOL0     H40364   0.978   3.128   4.580 -2.9885  0.8720  0.0997
  299MOL0     H40365   0.792   3.088   4.723 -0.8835  1.3090  0.7847
  300MOL0     O40366   9.446   5.493  10.951 -0.5494 -1.0564 -0.0950
  300MOL0     C40367   9.461   5.410  10.860 -0.0695  0.2004 -0.5241
  300MOL0     O40368   9.367   5.373  10.766 -0.0988  0.2501 -0.1946
  300MOL0     C40369   9.243   5.425  10.773 -0.3306 -0.0268  0.1836
  300MOL0     C40370   9.161   5.421  10.659 -0.0598  0.3206  0.3222
  300MOL0     C40371   9.027   5.451  10.660 -0.4906 -0.4443  0.6339
  300MOL0     C40372   8.956   5.493  10.768  0.0338 -0.4010  0.5186
  300MOL0     O40373   8.824   5.534  10.771  0.2191 -0.5134  0.3390
  300MOL0     C40374   8.756   5.520  10.898  0.7699  0.3224  0.3172
  300MOL0     C40375   8.601   5.522  10.877  1.3091  0.7007  0.5142
  300MOL0     C40376   8.527   5.479  11.001 -0.7382 -0.3889 -0.6165
  300MOL0     C40377   8.380   5.493  10.994 -0.9625 -0.2455 -1.0629
  300MOL0     C40378   8.315   5.383  10.912 -0.2362 -0.1786 -0.2280
  300MOL0     C40379   8.162   5.399  10.900 -0.4095 -0.4274 -0.0919
  300MOL0     C40380   8.088   5.279  10.824 -0.4662 -0.4085  1.1424
  300MOL0     C40381   8.059   5.156  10.916 -0.5661  0.4182 -0.0689
  300MOL0     N40382   7.998   5.052  10.846 -0.2026  0.6693  0.2401
  300MOL0     C40383   7.863   5.045  10.815 -0.5220 -0.6170  0.1548
  300MOL0     C40384   7.847   4.943  10.725 -0.9330  0.9743  0.1765
  300MOL0     C40385   7.729   4.892  10.656  0.5957  0.2932  0.2145
  300MOL0     C40386   7.687   4.977  10.539  0.5969 -0.1142 -0.8326
  300MOL0     C40387   7.626   5.110  10.586 -0.8611  0.7736  0.0801
  300MOL0     C40388   7.502   5.102  10.679  0.2715 -0.0273 -0.2542
  300MOL0     O40389   7.428   5.221  10.660 -0.2861  0.5367  0.2537
  300MOL0     C40390   7.299   5.194  10.608  0.6831  0.9953 -0.5039
  300MOL0     C40391   7.195   5.274  10.664 -0.2270 -0.3786 -0.2180
  300MOL0     C40392   7.057   5.258  10.620  0.8807 -0.7153  0.4085
  300MOL0     C40393   6.955   5.361  10.673  0.0914 -0.5832  0.0418
  300MOL0     C40394   7.029   5.159  10.526  0.1219  0.6925  0.1641
  300MOL0     C40395   6.888   5.108  10.476  0.1162 -0.5874 -0.2401
  300MOL0     O40396   6.884   4.982  10.423  0.3537  0.1614 -0.7820
  300MOL0     C40397   6.762   4.932  10.374  0.5388  0.3825 -0.4220
  300MOL0     C40398   6.679   5.012  10.289  0.3797 -0.0808 -0.3460
  300MOL0     C40399   6.566   4.951  10.239 -0.4656  0.4840 -0.9933
  300MOL0     C40400   6.527   4.818  10.281 -0.1058  0.2458 -0.2420
  300MOL0     O40401   6.408   4.761  10.225 -0.6932 -0.4303 -0.3734
  300MOL0     C40402   6.367   4.625  10.269  0.2002 -0.3254 -0.5497
  300MOL0     C40403   6.253   4.578  10.175 -0.2922  0.3528 -0.6118
  300MOL0     C40404   6.177   4.451  10.223 -0.7456 -0.0138  0.0279
  300MOL0     C40405   6.035   4.455  10.159  0.0425  0.4002 -0.3630
  300MOL0     C40406   5.945   4.343  10.229 -1.2385 -0.7539  0.1249
  300MOL0     C40407   5.802   4.343  10.165  0.2015 -0.1698  0.6256
  300MOL0     C40408   5.726   4.230  10.231  0.4133  0.6107  0.5962
  300MOL0     C40409   5.578   4.203  10.186  0.1151 -0.6730  0.5900
  300MOL0    Cl40410   5.592   4.133  10.017 -0.0255 -0.3735  0.6005
  300MOL0     C40411   6.610   4.749  10.368  0.2677 -0.3401  0.0995
  300MOL0     C40412   6.727   4.807  10.417  0.1799  0.0942 -1.1655
  300MOL0     O40413   6.792   5.169  10.509  0.6449 -0.2459 -0.6277
  300MOL0     C40414   7.138   5.090  10.463  0.3724  0.2630 -0.3811
  300MOL0     C40415   7.266   5.108  10.506 -0.5085 -0.4956  0.1008
  300MOL0     N40416   7.976   4.896  10.698 -0.0593 -0.8750 -0.8341
  300MOL0     N40417   8.067   4.958  10.775  0.7665 -0.4861  0.1063
  300MOL0     C40418   9.032   5.487  10.889  0.8775 -0.3675  0.2558
  300MOL0     C40419   9.169   5.466  10.895  0.1953 -0.3218  0.2923
  300MOL0     C40420   9.596   5.365  10.835 -0.1567  1.1014 -0.0263
  300MOL0     C40421   9.709   5.422  10.899 -0.6603  0.5051 -0.2463
  300MOL0     C40422   9.846   5.387  10.863  0.0931 -0.1020 -0.4445
  300MOL0     C40423   9.865   5.288  10.768  0.5647 -1.0128  0.1351
  300MOL0     O40424   9.988   5.246  10.725  0.1739  0.4263 -0.3992
  300MOL0     C40425  10.111   5.301  10.767  0.2186 -0.0743 -0.3709
  300MOL0     C40426  10.228   5.247  10.684  0.2283 -0.4161  0.5498
  300MOL0     C40427  10.253   5.096  10.696  0.7104 -0.4198  0.3298
  300MOL0     C40428  10.383   5.046  10.622  0.4157  0.0535 -0.5759
  300MOL0     C40429  10.359   5.068  10.480  1.3254  0.1421  0.1071
  300MOL0     C40430  10.327   5.056  10.359 -0.8751 -0.3575  0.2366
  300MOL0     C40431   9.753   5.217  10.719 -0.4810  0.3701 -0.3253
  300MOL0     C40432   9.620   5.261  10.746 -0.1076  0.0186 -0.5138
  300MOL0     H40433   9.206   5.382  10.568 -1.4773  2.5366 -1.4474
  300MOL0     H40434   8.977   5.461  10.564  1.1898  0.7274 -0.1527
  300MOL0     H40435   8.778   5.421  10.940 -0.2096 -0.2268 -0.4192
  300MOL0     H40436   8.779   5.601  10.968 -0.1930  0.9403 -0.0555
  300MOL0     H40437   8.564   5.622  10.854 -0.6410 -0.1709 -0.3038
  300MOL0     H40438   8.578   5.459  10.791  1.1336  1.7788 -0.2464
  300MOL0     H40439   8.563   5.379  11.026  1.5391  0.6851  0.6565
  300MOL0     H40440   8.558   5.542  11.085  0.0765  0.2285 -1.3677
  300MOL0     H40441   8.345   5.480  11.097  1.1307  0.0845 -0.2587
  300MOL0     H40442   8.351   5.589  10.951 -1.7643 -0.9467 -2.1357
  300MOL0     H40443   8.362   5.388  10.814  1.9259  3.4927  0.8014
  300MOL0     H40444   8.334   5.289  10.965 -1.5536  0.3301  1.2098
  300MOL0     H40445   8.120   5.419  10.999  1.5781  3.4966  0.1474
  300MOL0     H40446   8.139   5.490  10.843 -0.8847 -1.0592 -0.9501
  300MOL0     H40447   7.992   5.309  10.782  0.3814 -0.3152 -0.8528
  300MOL0     H40448   8.146   5.252  10.735  0.9334  1.3245  1.4622
  300MOL0     H40449   8.008   5.182  11.009  1.6334  1.1028  1.0072
  300MOL0     H40450   8.157   5.121  10.949 -0.4455  3.4824  3.4234
  300MOL0     H40451   7.778   5.098  10.857  1.2884  0.4583  2.6193
  300MOL0     H40452   7.752   4.794  10.613  2.5267  1.1725 -0.8906
  300MOL0     H40453   7.645   4.879  10.725  0.7828 -0.8182  0.2502
  300MOL0     H40454   7.609   4.913  10.498  1.4263 -0.9083 -1.2127
  300MOL0     H40455   7.769   4.993  10.467  1.3913  0.5230  0.1892
  300MOL0     H40456   7.593   5.150  10.490  2.0053 -0.5172 -1.5451
  300MOL0     H40457   7.699   5.172  10.638  1.3367 -0.8022 -0.9941
  300MOL0     H40458   7.535   5.108  10.783 -4.4073  0.9205  1.4501
  300MOL0     H40459   7.434   5.016  10.676 -1.9338  1.5407  1.2040
  300MOL0     H40460   7.225   5.351  10.734 -1.1614  0.4426 -0.6986
  300MOL0     H40461   6.870   5.317  10.725  1.7264 -1.3261  2.2610
  300MOL0     H40462   7.004   5.426  10.747 -0.4340 -0.5617  0.3761
  300MOL0     H40463   6.919   5.419  10.588  0.2919  0.6966  0.7978
  300MOL0     H40464   6.703   5.115  10.264 -0.2682  0.2825  0.4537
  300MOL0     H40465   6.496   5.003  10.174  0.1686  1.1123 -1.1827
  300MOL0     H40466   6.453   4.557  10.271 -0.0691 -0.7907  3.4536
  300MOL0     H40467   6.325   4.624  10.370 -1.0461 -0.2045 -1.0447
  300MOL0     H40468   6.175   4.654  10.173 -0.1331  0.8396  3.3707
  300MOL0     H40469   6.291   4.546  10.078 -1.7619  1.0709 -1.4506
  300MOL0     H40470   6.177   4.435  10.331  1.0178  1.8544  0.3574
  300MOL0     H40471   6.228   4.366  10.176  1.4897  2.6985 -2.8814
  300MOL0     H40472   5.992   4.555  10.168  1.3603  0.8311  2.2722
  300MOL0     H40473   6.049   4.437  10.052  0.7582  0.2224 -0.2432
  300MOL0     H40474   5.922   4.375  10.331  0.9963  2.1724 -0.1621
  300MOL0     H40475   6.002   4.250  10.224  1.2818  0.7313  0.0540
  300MOL0     H40476   5.751   4.440  10.171  2.1122  1.1088 -1.7267
  300MOL0     H40477   5.804   4.319  10.058 -0.0929 -0.0966  0.6043
  300MOL0     H40478   5.727   4.249  10.339 -1.8273  0.4249  0.7074
  300MOL0     H40479   5.788   4.145  10.201 -1.4609  0.5539 -3.8198
  300MOL0     H40480   5.510   4.289  10.194 -3.0020 -2.9128 -0.0920
  300MOL0     H40481   5.540   4.124  10.251 -1.4182 -0.3715  0.0997
  300MOL0     H40482   6.587   4.656  10.420  0.1904 -0.3445  0.0581
  300MOL0     H40483   6.782   4.755  10.495  0.4785  1.3528 -0.5067
  300MOL0     H40484   7.115   5.028  10.377 -0.2980 -2.4527  1.6366
  300MOL0     H40485   7.342   5.046  10.459  0.9658 -0.4104  2.2112
  300MOL0     H40486   8.994   5.505  10.989  1.6216  0.5096  0.3954
  300MOL0     H40487   9.216   5.464  10.994  0.5416  0.4811  0.1522
  300MOL0     H40488   9.703   5.486  10.986 -0.4268 -1.3024  1.1806
  300MOL0     H40489   9.929   5.441  10.907  1.0721 -3.0352  1.6273
  300MOL0     H40490  10.110   5.409  10.752  0.6635 -0.0747 -0.4154
  300MOL0     H40491  10.137   5.277  10.870  0.4362  2.8657  0.3556
  300MOL0     H40492  10.322   5.298  10.710 -1.3860  2.7412  0.6743
  300MOL0     H40493  10.210   5.272  10.579 -2.2679 -0.1990  0.9712
  300MOL0     H40494  10.170   5.035  10.659 -0.6233  1.3055  0.3371
  300MOL0     H40495  10.260   5.076  10.803  2.2558  0.8463  0.5149
  300MOL0     H40496  10.404   4.941  10.645  3.3090  0.5152 -0.7612
  300MOL0     H40497  10.475   5.100  10.645  0.5497  0.4838 -1.9999
  300MOL0     H40498  10.295   5.031  10.260  0.9929  0.9510 -0.7776
  300MOL0     H40499   9.771   5.127  10.660 -1.7356 -0.6181  0.7492
  300MOL0     H40500   9.535   5.196  10.730  0.4553 -1.2371  1.3079
  301MOL0     O40501   5.556   4.623   7.961  0.3628 -0.3239  0.0464
  301MOL0     C40502   5.624   4.724   7.986 -1.2922  0.1111 -0.5033
  301MOL0     O40503   5.579   4.847   7.991 -0.6996 -0.0138 -0.2097
  301MOL0     C40504   5.446   4.878   8.001  0.5141  0.0306 -0.2550
  301MOL0     C40505   5.413   5.014   7.995 -0.1089 -0.0966 -0.0073
  301MOL0     C40506   5.282   5.064   8.009  0.1714  0.2904 -0.5572
  301MOL0     C40507   5.176   4.975   8.033 -0.3874  1.8912 -0.2888
  301MOL0     O40508   5.050   5.027   8.025 -0.1673 -0.0586 -0.3071
  301MOL0     C40509   4.949   4.935   7.999 -0.7439  0.4678  0.6831
  301MOL0     C40510   4.831   5.009   7.937  0.0516 -0.3738 -0.2577
  301MOL0     C40511   4.747   5.089   8.030  0.3664  0.8963  0.1678
  301MOL0     C40512   4.630   5.136   7.947  0.4207 -0.0775 -0.4234
  301MOL0     C40513   4.524   5.028   7.913 -0.3063 -0.3524 -0.0048
  301MOL0     C40514   4.380   5.080   7.869 -1.1847  0.8006 -0.3304
  301MOL0     C40515   4.272   4.994   7.934 -0.3356  0.3662 -0.5507
  301MOL0     C40516   4.298   4.847   7.894  0.0576 -0.1931 -0.3719
  301MOL0     N40517   4.173   4.766   7.880 -0.2406  0.3482  0.0281
  301MOL0     C40518   4.137   4.667   7.970  0.4882 -0.3079  1.3692
  301MOL0     C40519   4.023   4.629   7.914  0.2057  0.5668  0.0007
  301MOL0     C40520   3.938   4.503   7.947  0.1303  0.1783 -0.2638
  301MOL0     C40521   3.797   4.526   7.948 -0.1267  0.4638 -0.5275
  301MOL0     C40522   3.728   4.427   8.049  0.5302  0.5044  0.4930
  301MOL0     C40523   3.581   4.454   8.061  0.1065 -0.4173  0.3200
  301MOL0     O40524   3.515   4.454   7.934 -0.6935 -0.1799 -0.0704
  301MOL0     C40525   3.381   4.455   7.941  0.0730  0.1512  0.2909
  301MOL0     C40526   3.310   4.465   7.817 -0.1564  0.6398 -0.9508
  301MOL0     C40527   3.175   4.499   7.812  0.7698 -0.6947  0.3310
  301MOL0     C40528   3.121   4.526   7.665  0.4632  0.4806 -0.2957
  301MOL0     C40529   3.097   4.493   7.923 -0.2955 -0.1861 -0.4882
  301MOL0     C40530   2.946   4.508   7.925  0.1121  0.3788  1.4885
  301MOL0     O40531   2.861   4.460   7.826 -0.3761  0.2651 -0.1085
  301MOL0     C40532   2.731   4.488   7.833  0.5849  0.3142 -0.3833
  301MOL0     C40533   2.682   4.612   7.801 -0.0081 -0.2065 -0.6935
  301MOL0     C40534   2.544   4.629   7.808  0.0118  0.1761 -0.3278
  301MOL0     C40535   2.459   4.529   7.852 -0.1411  0.3738 -0.4256
  301MOL0     O40536   2.323   4.558   7.860 -0.2995  0.5466  0.0951
  301MOL0     C40537   2.234   4.469   7.930  0.8790  0.1022 -0.8790
  301MOL0     C40538   2.109   4.547   7.956 -0.0303 -0.8871  1.2287
  301MOL0     C40539   2.033   4.567   7.822  0.1015 -0.8614 -0.1119
  301MOL0     C40540   1.894   4.637   7.848 -0.1423  0.1648 -0.4812
  301MOL0     C40541   1.775   4.588   7.769  0.4227 -0.4736  0.0195
  301MOL0     C40542   1.655   4.672   7.800 -0.0567 -0.0649 -0.7826
  301MOL0     C40543   1.524   4.604   7.769 -0.3445  0.0295  0.6720
  301MOL0     C40544   1.403   4.677   7.826 -0.4218  0.2292  0.4165
  301MOL0    Cl40545   1.274   4.569   7.828  0.0666 -0.2013 -0.0445
  301MOL0     C40546   2.513   4.403   7.888  0.0438  0.3502 -0.2922
  301MOL0     C40547   2.655   4.384   7.875  1.3291 -0.0982 -0.1070
  301MOL0     O40548   2.903   4.565   8.025  0.4383  0.0571  0.1538
  301MOL0     C40549   3.162   4.476   8.044 -0.5742  0.2839  0.0492
  301MOL0     C40550   3.296   4.455   8.056 -0.4866  0.2464 -0.3080
  301MOL0     N40551   3.988   4.696   7.795  0.4165  0.2330  0.0380
  301MOL0     N40552   4.078   4.781   7.782  0.7922  0.4301 -0.1032
  301MOL0     C40553   5.211   4.841   8.040 -0.3101  0.0496 -0.3317
  301MOL0     C40554   5.337   4.793   8.028  0.1687 -1.5363  0.0417
  301MOL0     C40555   5.774   4.722   7.975 -0.8042  0.4416  0.3577
  301MOL0     C40556   5.846   4.616   8.025  0.8002  0.6768 -0.1657
  301MOL0     C40557   5.983   4.616   8.049 -0.5991 -0.4675 -0.4950
  301MOL0     C40558   6.057   4.724   8.008 -0.8292  0.0854  0.9628
  301MOL0     O40559   6.190   4.744   8.018 -0.5751  0.0466  0.1885
  301MOL0     C40560   6.258   4.690   8.135 -1.0503  0.9370  0.4323
  301MOL0     C40561   6.228   4.770   8.269  0.3662  0.1580  0.2136
  301MOL0     C40562   6.283   4.918   8.254  0.4781  0.6139  0.3251
  301MOL0     C40563   6.425   4.943   8.215  0.1016 -0.5285 -0.2004
  301MOL0     C40564   6.529   4.849   8.254  0.8439  0.0529  0.9316
  301MOL0     C40565   6.615   4.768   8.299 -0.0295 -1.1007 -0.1430
  301MOL0     C40566   5.987   4.832   7.942 -0.4300  0.2341 -0.0645
  301MOL0     C40567   5.855   4.825   7.930  0.6836  0.0787 -1.0632
  301MOL0     H40568   5.494   5.079   7.963  1.7139 -1.2365  2.0584
  301MOL0     H40569   5.264   5.171   7.998 -2.4502  0.2427  2.1477
  301MOL0     H40570   4.975   4.866   7.918  0.2896  1.1169  0.4563
  301MOL0     H40571   4.915   4.870   8.081 -0.6905  0.1995  0.4925
  301MOL0     H40572   4.867   5.059   7.846 -1.3309 -1.3963 -1.4274
  301MOL0     H40573   4.769   4.928   7.897  1.2146 -1.2599 -0.3258
  301MOL0     H40574   4.711   5.024   8.111 -2.3233 -3.5012 -4.0275
  301MOL0     H40575   4.809   5.173   8.064  3.5769 -1.5413  0.7880
  301MOL0     H40576   4.573   5.210   8.004  1.9924  0.8479  0.0223
  301MOL0     H40577   4.671   5.173   7.852 -0.8589 -1.7145 -1.6692
  301MOL0     H40578   4.553   4.961   7.831  0.0186 -0.5938  0.3055
  301MOL0     H40579   4.513   4.971   8.006  1.7415  3.2030  2.6710
  301MOL0     H40580   4.377   5.185   7.901  1.1943  0.5618  0.9400
  301MOL0     H40581   4.367   5.069   7.761  0.0775  0.0318 -0.4272
  301MOL0     H40582   4.289   5.008   8.041 -1.0718  2.7584 -0.6782
  301MOL0     H40583   4.172   5.030   7.906 -0.7597 -0.7820 -0.5660
  301MOL0     H40584   4.366   4.790   7.958  3.2713  0.2934 -3.0941
  301MOL0     H40585   4.356   4.845   7.802  1.4058  1.1365  0.4151
  301MOL0     H40586   4.200   4.633   8.051  2.1747  0.4827  0.4431
  301MOL0     H40587   3.954   4.428   7.870 -1.7092  0.6794 -1.1987
  301MOL0     H40588   3.974   4.456   8.039 -1.6006 -1.6442 -0.4609
  301MOL0     H40589   3.760   4.512   7.846 -0.4586 -0.0643 -0.3392
  301MOL0     H40590   3.770   4.625   7.987 -0.0525  0.3048 -0.0691
  301MOL0     H40591   3.775   4.452   8.144  2.4184 -1.5221  0.1608
  301MOL0     H40592   3.749   4.325   8.017 -0.4502  0.6854 -0.8367
  301MOL0     H40593   3.554   4.545   8.115 -0.2793 -0.0895 -0.4145
  301MOL0     H40594   3.531   4.373   8.116  1.1909 -0.8604  0.7031
  301MOL0     H40595   3.376   4.451   7.732  0.2808 -0.1351 -0.4967
  301MOL0     H40596   3.205   4.546   7.599  1.7896 -1.2862  0.7705
  301MOL0     H40597   3.070   4.434   7.636 -0.5012  0.6571  0.7536
  301MOL0     H40598   3.046   4.606   7.659 -1.4867 -1.3093 -1.1944
  301MOL0     H40599   2.750   4.682   7.754 -2.0529  1.0865 -1.9434
  301MOL0     H40600   2.491   4.720   7.782 -0.6763  0.3836  1.6092
  301MOL0     H40601   2.205   4.377   7.879 -1.2925 -0.7517  1.6428
  301MOL0     H40602   2.273   4.449   8.030  1.5924  5.3775  0.1758
  301MOL0     H40603   2.044   4.478   8.011  0.6740 -2.0309  0.6666
  301MOL0     H40604   2.128   4.642   8.006  2.9128  0.1984 -1.6134
  301MOL0     H40605   2.019   4.477   7.762 -2.4287 -0.0695 -0.8470
  301MOL0     H40606   2.087   4.640   7.761 -1.2540  0.2307 -0.0529
  301MOL0     H40607   1.877   4.636   7.956  2.1602  0.0329 -0.0673
  301MOL0     H40608   1.901   4.744   7.828 -1.9781  0.2847 -0.6252
  301MOL0     H40609   1.760   4.482   7.789  1.7910 -1.0276 -1.5461
  301MOL0     H40610   1.804   4.600   7.664 -0.3916 -0.9784 -0.2738
  301MOL0     H40611   1.660   4.690   7.907  4.2419  0.1277 -0.8168
  301MOL0     H40612   1.654   4.770   7.751 -3.7366 -0.2085 -1.2764
  301MOL0     H40613   1.525   4.503   7.811 -2.7371 -0.2881  0.0636
  301MOL0     H40614   1.513   4.582   7.663 -0.8566 -1.4592  1.0182
  301MOL0     H40615   1.383   4.759   7.757  1.1304 -0.4477 -0.8912
  301MOL0     H40616   1.416   4.713   7.929 -2.9947 -3.0551  2.0999
  301MOL0     H40617   2.449   4.320   7.918 -0.5202  1.2271  1.0243
  301MOL0     H40618   2.701   4.288   7.896 -0.1596 -0.7989  0.0734
  301MOL0     H40619   3.097   4.471   8.131 -2.1659 -1.4285 -1.1700
  301MOL0     H40620   3.329   4.447   8.159 -4.1935 -0.8447  0.9365
  301MOL0     H40621   5.139   4.760   8.053 -0.7857  0.4029 -0.7230
  301MOL0     H40622   5.354   4.687   8.042 -0.2992 -1.5300  0.6821
  301MOL0     H40623   5.783   4.536   8.062 -0.5751  2.9391  2.7444
  301MOL0     H40624   6.024   4.530   8.100  1.0346  1.6373  2.0462
  301MOL0     H40625   6.248   4.582   8.151  0.8907  1.0158  2.7921
  301MOL0     H40626   6.363   4.698   8.106 -0.0884  0.9225  3.4976
  301MOL0     H40627   6.259   4.725   8.365  0.1270  2.1377  1.2596
  301MOL0     H40628   6.119   4.778   8.274  0.2707  1.1605 -2.4133
  301MOL0     H40629   6.260   4.978   8.342 -2.0348 -0.5354  0.5503
  301MOL0     H40630   6.224   4.970   8.178  1.1048  1.2185  0.2529
  301MOL0     H40631   6.446   5.048   8.235 -0.3195 -0.4841  0.0254
  301MOL0     H40632   6.420   4.941   8.106 -1.6053  2.2301 -0.2772
  301MOL0     H40633   6.686   4.704   8.348  0.1998 -1.7172 -1.2528
  301MOL0     H40634   6.043   4.919   7.908  1.1377 -0.4046  0.7502
  301MOL0     H40635   5.808   4.909   7.880 -0.4450 -0.7624 -1.4544
  302MOL0     O40636   6.705   5.517  10.351 -0.0836 -0.0938 -0.6458
  302MOL0     C40637   6.623   5.611  10.374  0.0494  1.2749 -0.5172
  302MOL0     O40638   6.487   5.591  10.393 -0.4273 -0.1138 -0.2537
  302MOL0     C40639   6.428   5.466  10.382 -1.7895 -0.7718 -0.2556
  302MOL0     C40640   6.299   5.468  10.334 -0.9230  0.3269  0.0673
  302MOL0     C40641   6.233   5.353  10.299 -0.5665 -0.1682 -0.4250
  302MOL0     C40642   6.294   5.229  10.321 -0.0356 -0.0457 -0.3412
  302MOL0     O40643   6.230   5.109  10.310 -0.4609 -0.3242  0.0166
  302MOL0     C40644   6.162   5.085  10.183  0.3970 -0.3768  0.1190
  302MOL0     C40645   6.016   5.035  10.194  0.2856  0.1155 -0.6944
  302MOL0     C40646   5.957   5.019  10.057 -0.6847  0.1224 -0.4588
  302MOL0     C40647   5.894   5.141   9.987 -0.5519  1.0927  0.0355
  302MOL0     C40648   5.796   5.106   9.873 -0.4150  0.7422 -0.5544
  302MOL0     C40649   5.672   5.030   9.919 -0.1595  0.4337 -0.1019
  302MOL0     C40650   5.558   5.004   9.815  0.3484  0.7870  0.0271
  302MOL0     C40651   5.531   5.111   9.710  0.3475 -0.8109  0.1345
  302MOL0     N40652   5.426   5.058   9.626  0.5079  0.5312  0.3629
  302MOL0     C40653   5.290   5.086   9.636  0.1705 -0.5050 -0.5397
  302MOL0     C40654   5.237   5.031   9.524  0.3832 -0.1374 -0.8961
  302MOL0     C40655   5.094   5.039   9.479 -0.8078  0.1051  0.2683
  302MOL0     C40656   4.999   5.040   9.597 -0.0430 -0.7031 -0.1359
  302MOL0     C40657   4.856   5.026   9.546  0.9581  0.2980 -0.1563
  302MOL0     C40658   4.749   4.983   9.643  0.1876 -0.8260  0.0247
  302MOL0     O40659   4.713   5.067   9.759 -0.1932 -0.0278 -0.3488
  302MOL0     C40660   4.600   5.139   9.746 -0.7033  0.1930  0.4987
  302MOL0     C40661   4.618   5.277   9.756 -0.2028  0.1215  0.3572
  302MOL0     C40662   4.513   5.366   9.739  0.0952 -0.4691  0.2037
  302MOL0     C40663   4.559   5.508   9.736  0.2065 -0.1278  0.0969
  302MOL0     C40664   4.376   5.317   9.721 -0.1448  0.6126  0.5203
  302MOL0     C40665   4.261   5.413   9.715 -0.0913  0.3844  0.3345
  302MOL0     O40666   4.146   5.354   9.694 -0.6885 -0.2020  0.1767
  302MOL0     C40667   4.032   5.433   9.704 -0.7774 -0.4505 -0.6004
  302MOL0     C40668   3.967   5.468   9.588 -0.5979  0.0742  0.2773
  302MOL0     C40669   3.861   5.555   9.595 -0.4542  0.3287 -0.3128
  302MOL0     C40670   3.797   5.584   9.714 -0.2136 -0.4142  0.4448
  302MOL0     O40671   3.680   5.655   9.716  0.6503 -0.4783  0.0197
  302MOL0     C40672   3.649   5.719   9.844 -0.3349 -0.5323 -0.2746
  302MOL0     C40673   3.503   5.757   9.838 -0.2538 -0.0692  1.1122
  302MOL0     C40674   3.462   5.846   9.962 -0.1050  0.4341  0.0982
  302MOL0     C40675   3.317   5.903   9.931 -0.4109  0.1432  1.2215
  302MOL0     C40676   3.283   5.999  10.041 -0.6231 -0.7700  0.4500
  302MOL0     C40677   3.248   5.938  10.173  0.0908 -0.8394  1.6654
  302MOL0     C40678   3.225   6.037  10.281 -0.0776  1.1517  0.0924
  302MOL0     C40679   3.198   5.958  10.405  0.2159  0.3426 -0.5890
  302MOL0    Cl40680   3.352   5.885  10.484  0.0121  0.5184  0.0524
  302MOL0     C40681   3.855   5.530   9.832  0.7718  0.1490 -0.4134
  302MOL0     C40682   3.979   5.469   9.827  0.3898  0.5298 -0.1767
  302MOL0     O40683   4.277   5.534   9.743 -0.5178 -0.5724  0.0677
  302MOL0     C40684   4.361   5.181   9.707  0.4439 -0.0338  0.4758
  302MOL0     C40685   4.467   5.092   9.722 -0.5254  0.1083  0.2028
  302MOL0     N40686   5.338   4.974   9.451  0.2589 -0.0594 -0.0244
  302MOL0     N40687   5.444   4.982   9.510 -0.0094 -0.4638  0.0041
  302MOL0     C40688   6.417   5.224  10.390  0.0608  0.4313 -0.7775
  302MOL0     C40689   6.483   5.341  10.429 -0.0985  0.3884 -0.3898
  302MOL0     C40690   6.686   5.746  10.382  0.0878 -0.3802  0.2343
  302MOL0     C40691   6.822   5.763  10.364 -0.4577 -0.2568  0.3714
  302MOL0     C40692   6.879   5.894  10.356 -0.0670  0.3723 -0.2330
  302MOL0     C40693   6.799   6.012  10.383  0.4407  0.7242 -0.3274
  302MOL0     O40694   6.868   6.129  10.396 -0.4908  0.2343 -0.6486
  302MOL0     C40695   6.797   6.247  10.447  0.4365  0.0598 -0.1529
  302MOL0     C40696   6.891   6.372  10.460 -0.4274  0.1406 -0.1436
  302MOL0     C40697   6.972   6.390  10.326 -0.9533 -0.5872 -0.2424
  302MOL0     C40698   7.016   6.539  10.313  0.3566  0.1613 -0.0595
  302MOL0     C40699   7.122   6.572  10.411  0.1140  0.3205  0.4054
  302MOL0     C40700   7.217   6.592  10.484  1.1530  0.2374 -0.8356
  302MOL0     C40701   6.663   5.990  10.394  0.7918  0.4947  0.3105
  302MOL0     C40702   6.600   5.862  10.391 -1.1410  0.2820 -0.5881
  302MOL0     H40703   6.245   5.561  10.316 -0.1469  0.5791 -1.0466
  302MOL0     H40704   6.134   5.356  10.255 -0.6838  0.1989 -0.1389
  302MOL0     H40705   6.163   5.172  10.117  0.3987  0.4330  1.1830
  302MOL0     H40706   6.217   4.997  10.148  0.5821 -1.6093  3.2315
  302MOL0     H40707   6.003   4.941  10.249 -2.0976  1.6617  1.6348
  302MOL0     H40708   5.955   5.108  10.248  0.8594 -0.3281  0.6051
  302MOL0     H40709   6.031   4.980   9.986  1.4806  2.5166  0.3046
  302MOL0     H40710   5.876   4.946  10.063 -1.2892  0.7023 -1.3213
  302MOL0     H40711   5.836   5.198  10.060 -0.1073  4.6023 -2.0625
  302MOL0     H40712   5.975   5.210   9.959  2.4187 -1.2523  2.2655
  302MOL0     H40713   5.772   5.206   9.835  1.0710  1.6387  0.7452
  302MOL0     H40714   5.857   5.064   9.792 -1.7104  1.2077 -1.8126
  302MOL0     H40715   5.697   4.938   9.973  0.3752  1.0092  0.6618
  302MOL0     H40716   5.622   5.089   9.996  0.0070  0.1519  0.2255
  302MOL0     H40717   5.585   4.911   9.763 -1.4004 -0.1414  0.6776
  302MOL0     H40718   5.465   4.983   9.869  0.2755  1.2513  0.0832
  302MOL0     H40719   5.616   5.128   9.643 -2.4683  1.4716 -3.2416
  302MOL0     H40720   5.496   5.205   9.754 -0.6689 -1.6815  1.2671
  302MOL0     H40721   5.227   5.139   9.707  2.5828 -2.0860  3.0552
  302MOL0     H40722   5.086   5.119   9.405  3.8866  0.6680  0.0948
  302MOL0     H40723   5.079   4.948   9.420  1.1710 -0.2791  0.2840
  302MOL0     H40724   5.009   5.134   9.650 -0.4489 -0.7705  0.0596
  302MOL0     H40725   5.016   4.960   9.669  2.0841 -0.7977 -0.6486
  302MOL0     H40726   4.845   4.943   9.476  2.8771 -1.3932  1.4183
  302MOL0     H40727   4.831   5.117   9.491 -0.2484 -0.3579 -0.7185
  302MOL0     H40728   4.779   4.881   9.671 -0.6697 -0.9110  0.6589
  302MOL0     H40729   4.659   4.977   9.582 -0.7167  1.4179  1.0352
  302MOL0     H40730   4.719   5.315   9.762  0.8162 -1.2410 -4.3220
  302MOL0     H40731   4.666   5.513   9.713  0.1965 -0.4944 -0.0436
  302MOL0     H40732   4.500   5.565   9.663  2.4364 -0.2483 -1.9134
  302MOL0     H40733   4.557   5.545   9.839  4.3114 -0.7397  0.5537
  302MOL0     H40734   4.001   5.441   9.488  0.8075  3.5465 -0.3124
  302MOL0     H40735   3.821   5.572   9.495  2.5984 -0.3441 -1.7693
  302MOL0     H40736   3.663   5.651   9.928 -1.7174 -2.0881 -1.2441
  302MOL0     H40737   3.710   5.808   9.864 -2.2926  0.5253  1.2539
  302MOL0     H40738   3.486   5.818   9.749  1.4275 -0.8333  0.2117
  302MOL0     H40739   3.430   5.676   9.831 -1.1875  0.8151  0.4188
  302MOL0     H40740   3.539   5.921   9.975  1.1458 -0.7019 -0.4802
  302MOL0     H40741   3.455   5.783  10.051 -1.3910  1.2437  0.5910
  302MOL0     H40742   3.316   5.963   9.839 -2.2058  1.4326  2.0212
  302MOL0     H40743   3.243   5.824   9.922  0.2759 -0.7325  2.8852
  302MOL0     H40744   3.197   6.063  10.019  0.0788  2.1219  4.9375
  302MOL0     H40745   3.371   6.064  10.051 -3.1583  3.1889 -0.7091
  302MOL0     H40746   3.154   5.884  10.155 -3.6422  4.1240  3.7864
  302MOL0     H40747   3.329   5.870  10.200  0.2060 -0.7597  1.5202
  302MOL0     H40748   3.135   6.097  10.264 -0.4969  0.4128 -0.3228
  302MOL0     H40749   3.315   6.099  10.291  1.0967  0.1072 -3.0268
  302MOL0     H40750   3.120   5.884  10.386  0.8828 -0.3790 -0.5502
  302MOL0     H40751   3.155   6.031  10.474  0.3194  0.9224 -1.1271
  302MOL0     H40752   3.814   5.547   9.931 -3.3884  4.0242 -2.4332
  302MOL0     H40753   4.022   5.445   9.924 -0.7974  0.0224  0.2435
  302MOL0     H40754   4.274   5.135   9.661  1.9854 -0.9923 -1.6955
  302MOL0     H40755   4.451   4.985   9.721 -0.6149  0.0504  2.7466
  302MOL0     H40756   6.460   5.131  10.426 -3.2056 -0.6209  0.7300
  302MOL0     H40757   6.583   5.339  10.471 -0.4364  0.7478  0.4453
  302MOL0     H40758   6.887   5.677  10.351 -2.2442 -1.7260  0.7711
  302MOL0     H40759   6.983   5.919  10.342  0.3056 -0.2555  1.2327
  302MOL0     H40760   6.718   6.272  10.376  1.8864  1.0045 -1.5187
  302MOL0     H40761   6.748   6.228  10.543 -3.6309  1.3140 -1.7808
  302MOL0     H40762   6.967   6.349  10.535  0.8907  0.8298 -1.2390
  302MOL0     H40763   6.835   6.460  10.493  0.6678  0.2996  1.3810
  302MOL0     H40764   6.914   6.369  10.236 -1.0271  0.4724 -0.4659
  302MOL0     H40765   7.053   6.318  10.321  1.8648  2.3947 -4.2565
  302MOL0     H40766   6.926   6.599  10.329  0.6284  0.6237 -0.2647
  302MOL0     H40767   7.051   6.551  10.211 -0.2654 -1.3719 -0.4882
  302MOL0     H40768   7.289   6.609  10.562 -1.9696  1.2249  2.1050
  302MOL0     H40769   6.620   6.088  10.410  0.1554  0.1748  0.5652
  302MOL0     H40770   6.493   5.847  10.396 -1.2988  1.1164 -1.2221
  303MOL0     O40771   2.784   9.525   9.820  0.0860  0.0823 -0.2009
  303MOL0     C40772   2.853   9.620   9.776 -1.0223  0.1684  0.4959
  303MOL0     O40773   2.810   9.705   9.678 -0.7100  0.3849 -0.3835
  303MOL0     C40774   2.683   9.699   9.634  0.3443  0.3069 -0.3263
  303MOL0     C40775   2.642   9.595   9.543 -0.3277 -0.2870 -0.4994
  303MOL0     C40776   2.511   9.595   9.496 -0.1089 -0.5761  0.4454
  303MOL0     C40777   2.418   9.686   9.549  0.4587  0.2650 -0.6727
  303MOL0     O40778   2.292   9.668   9.505 -0.1103  0.0575  0.5605
  303MOL0     C40779   2.203   9.781   9.512 -0.0960  1.0745 -0.7981
  303MOL0     C40780   2.074   9.778   9.427 -0.2251 -0.3365 -0.5191
  303MOL0     C40781   1.954   9.823   9.504  0.0383 -0.6963 -0.1862
  303MOL0     C40782   1.821   9.774   9.449  0.7716  0.1317  0.7422
  303MOL0     C40783   1.754   9.859   9.337  1.0306  0.5224  0.0958
  303MOL0     C40784   1.623   9.788   9.289 -0.0639  0.4736 -0.5329
  303MOL0     C40785   1.559   9.860   9.167 -0.4188  0.3211  0.3571
  303MOL0     C40786   1.477   9.989   9.198 -0.0518 -0.4110  0.2651
  303MOL0     N40787   1.378  10.029   9.096 -0.9596  0.2224  0.7213
  303MOL0     C40788   1.253   9.981   9.077  0.8020 -0.5214 -0.6610
  303MOL0     C40789   1.208  10.048   8.966  0.3717  0.4149 -0.0755
  303MOL0     C40790   1.072  10.050   8.901  0.3819  0.1792 -0.0228
  303MOL0     C40791   0.994  10.175   8.964 -0.1724 -0.0220  0.0134
  303MOL0     C40792   0.927  10.150   9.107 -0.6223  0.6321  0.3769
  303MOL0     C40793   0.934  10.276   9.195 -1.1425  0.9092  0.1453
  303MOL0     O40794   0.848  10.251   9.303  0.4051  0.4802  0.6985
  303MOL0     C40795   0.796  10.351   9.373 -0.4958 -0.0959  0.7021
  303MOL0     C40796   0.832  10.485   9.367  0.1080 -0.3906  0.3986
  303MOL0     C40797   0.761  10.584   9.441  0.3715 -0.5533  0.5885
  303MOL0     C40798   0.811  10.725   9.452 -0.4056 -0.6638  0.9767
  303MOL0     C40799   0.643  10.555   9.519  0.0283  0.4570 -0.0413
  303MOL0     C40800   0.567  10.653   9.596  0.9391  0.5155 -0.6006
  303MOL0     O40801   0.531  10.604   9.723  0.1810 -0.4198 -0.3429
  303MOL0     C40802   0.425  10.659   9.789  0.3350  1.0907 -0.4073
  303MOL0     C40803   0.294  10.632   9.758 -0.4513  0.6366 -1.0830
  303MOL0     C40804   0.192  10.663   9.852 -0.7813 -0.3539  0.5962
  303MOL0     C40805   0.217  10.751   9.959 -0.2368  0.2565  0.4530
  303MOL0     O40806   0.114  10.806  10.030 -0.1557  0.0533  0.3776
  303MOL0     C40807   0.128  10.907  10.135  0.3444 -0.3728  0.7502
  303MOL0     C40808  -0.001  10.980  10.181 -0.6482  0.9837 -0.5327
  303MOL0     C40809  -0.110  10.868  10.200  0.3836  0.1137 -0.4378
  303MOL0     C40810  -0.243  10.929  10.249 -0.4786  0.4389 -0.4727
  303MOL0     C40811  -0.363  10.837  10.248 -0.4519 -1.0519 -0.0149
  303MOL0     C40812  -0.494  10.919  10.265 -0.0560 -0.3815  0.2244
  303MOL0     C40813  -0.616  10.836  10.283  0.7285  0.3071  0.1806
  303MOL0     C40814  -0.741  10.915  10.326 -0.9785  0.1961 -0.3254
  303MOL0    Cl40815  -0.879  10.821  10.290  0.4155  0.0212 -0.0595
  303MOL0     C40816   0.349  10.781   9.995 -0.2211 -0.0754  1.1873
  303MOL0     C40817   0.448  10.734   9.906  0.8631  1.0181 -0.0596
  303MOL0     O40818   0.529  10.752   9.547  0.0226 -1.2161  0.1185
  303MOL0     C40819   0.599  10.417   9.501  0.5279  0.5629 -0.7356
  303MOL0     C40820   0.679  10.322   9.435  0.2359 -0.0242  0.4402
  303MOL0     N40821   1.313  10.119   8.913  0.0707 -0.9754  0.1838
  303MOL0     N40822   1.409  10.115   8.998 -0.0737  0.0520 -0.6405
  303MOL0     C40823   2.458   9.785   9.645 -0.3697 -0.1348 -0.1785
  303MOL0     C40824   2.592   9.781   9.691  0.1547  0.0694 -0.2601
  303MOL0     C40825   3.001   9.632   9.805 -0.8500  0.1476  0.1654
  303MOL0     C40826   3.060   9.566   9.910  0.3661  0.8432 -0.7948
  303MOL0     C40827   3.196   9.581   9.938  0.0331 -0.1255 -0.3718
  303MOL0     C40828   3.282   9.649   9.849 -0.0000  1.2720 -1.6992
  303MOL0     O40829   3.419   9.641   9.869 -0.1966  0.0841 -1.0475
  303MOL0     C40830   3.501   9.674   9.761  0.4779 -0.6580  0.0850
  303MOL0     C40831   3.639   9.692   9.815 -0.0374 -0.4116 -0.4909
  303MOL0     C40832   3.697   9.569   9.895  0.0097 -0.8799  0.3583
  303MOL0     C40833   3.735   9.606  10.047 -0.1097  0.0125  0.9602
  303MOL0     C40834   3.869   9.660  10.062  0.3383 -0.2134  0.1134
  303MOL0     C40835   3.987   9.680  10.073  0.2147 -0.3288 -0.0348
  303MOL0     C40836   3.223   9.706   9.739  0.4038 -0.2228 -0.1838
  303MOL0     C40837   3.083   9.694   9.712 -0.6654  0.4333 -0.1338
  303MOL0     H40838   2.714   9.520   9.513 -1.9893 -0.7698 -3.7661
  303MOL0     H40839   2.477   9.522   9.423  0.8471  1.2145 -1.9032
  303MOL0     H40840   2.171   9.789   9.617 -1.7349  0.1637 -1.1802
  303MOL0     H40841   2.256   9.875   9.494 -0.5217  1.3828 -0.4678
  303MOL0     H40842   2.082   9.840   9.338 -1.6168  2.2981  1.0885
  303MOL0     H40843   2.046   9.675   9.400 -0.1818 -0.6453  0.5549
  303MOL0     H40844   1.960   9.798   9.610  1.4002  2.1056  0.4720
  303MOL0     H40845   1.952   9.932   9.505  0.9736 -0.6764  0.5280
  303MOL0     H40846   1.815   9.671   9.413  2.2032  1.3086 -3.4451
  303MOL0     H40847   1.755   9.773   9.536 -0.4465 -0.9299 -0.1470
  303MOL0     H40848   1.736   9.958   9.382 -0.5462 -0.1858  1.1242
  303MOL0     H40849   1.819   9.870   9.251  3.7069  3.2998  2.2292
  303MOL0     H40850   1.650   9.688   9.252  1.7497  0.9272 -0.5497
  303MOL0     H40851   1.552   9.772   9.371  0.0585  1.4105 -0.2338
  303MOL0     H40852   1.635   9.885   9.092  0.3195 -1.0737  0.5875
  303MOL0     H40853   1.483   9.800   9.117  0.8735 -0.6139 -0.5682
  303MOL0     H40854   1.546  10.070   9.222  0.5950 -0.9992  0.4449
  303MOL0     H40855   1.414   9.980   9.287 -1.4989 -0.5469 -0.7527
  303MOL0     H40856   1.195   9.912   9.137 -0.8100  0.6282 -0.8235
  303MOL0     H40857   1.063  10.053   8.792 -2.4833  3.5482  0.1305
  303MOL0     H40858   1.029   9.956   8.937  0.6579 -0.2938 -0.9240
  303MOL0     H40859   0.916  10.198   8.892  1.4845  0.0745 -1.8304
  303MOL0     H40860   1.067  10.257   8.971  2.2287 -1.7256 -2.9832
  303MOL0     H40861   0.987  10.073   9.157 -0.0148  0.7959 -0.0818
  303MOL0     H40862   0.824  10.114   9.096  0.8784 -4.4663  0.3999
  303MOL0     H40863   0.904  10.371   9.150 -2.8972  0.0983 -0.4903
  303MOL0     H40864   1.034  10.296   9.235 -0.2725 -0.1720 -1.4080
  303MOL0     H40865   0.926  10.501   9.315  1.0740 -1.9592  1.5598
  303MOL0     H40866   0.741  10.806   9.433 -2.5567 -2.0024  2.6822
  303MOL0     H40867   0.860  10.741   9.548 -0.6334  0.8088  0.8571
  303MOL0     H40868   0.885  10.733   9.372 -1.1072 -0.3292  0.3516
  303MOL0     H40869   0.281  10.582   9.662  2.2652  0.1056 -1.2649
  303MOL0     H40870   0.098  10.616   9.825  0.0485 -1.7233 -0.0010
  303MOL0     H40871   0.168  10.851  10.221  3.1113 -0.1787 -0.2987
  303MOL0     H40872   0.197  10.983  10.096 -2.7039  3.1991  1.7570
  303MOL0     H40873   0.007  11.040  10.272 -2.3595  0.7148 -0.1730
  303MOL0     H40874  -0.039  11.045  10.102 -0.3555 -1.2838 -2.6728
  303MOL0     H40875  -0.082  10.799  10.280 -1.4646  0.0629  0.2128
  303MOL0     H40876  -0.128  10.821  10.104  2.8945 -0.5655 -0.6402
  303MOL0     H40877  -0.227  10.946  10.356  0.9100 -3.0521 -0.0032
  303MOL0     H40878  -0.265  11.021  10.193 -1.2508 -0.9250 -2.5391
  303MOL0     H40879  -0.354  10.762  10.327 -0.4980 -0.4175  0.6000
  303MOL0     H40880  -0.364  10.797  10.146 -1.5272 -0.1334 -0.3927
  303MOL0     H40881  -0.482  10.987  10.350  4.3891  1.2671 -1.4216
  303MOL0     H40882  -0.495  10.978  10.173  0.8928 -1.5676 -0.5785
  303MOL0     H40883  -0.600  10.766  10.366 -0.2951 -0.1814 -0.0075
  303MOL0     H40884  -0.649  10.794  10.188  1.4813 -2.3068  0.9776
  303MOL0     H40885  -0.750  11.004  10.263 -2.7838 -1.5668 -2.7967
  303MOL0     H40886  -0.739  10.947  10.430 -3.4802 -1.3710  0.2844
  303MOL0     H40887   0.376  10.837  10.085  1.3787 -0.2652  0.8497
  303MOL0     H40888   0.550  10.760   9.931  1.1612 -0.3519  0.2288
  303MOL0     H40889   0.500  10.393   9.539  0.2586  0.3996 -1.5363
  303MOL0     H40890   0.653  10.217   9.433  0.0451 -0.0133  1.4363
  303MOL0     H40891   2.402   9.864   9.693  0.9494  2.3151 -2.4130
  303MOL0     H40892   2.610   9.849   9.773 -1.1473  0.2290 -0.0833
  303MOL0     H40893   2.998   9.505   9.974 -0.2040  0.3910 -1.7644
  303MOL0     H40894   3.237   9.539  10.029 -1.4805  1.7830  1.2879
  303MOL0     H40895   3.493   9.593   9.688  0.8806 -0.8929  0.2995
  303MOL0     H40896   3.477   9.770   9.713  1.5534  1.3430  3.1973
  303MOL0     H40897   3.640   9.775   9.886  1.4691 -0.8538  0.0468
  303MOL0     H40898   3.702   9.718   9.730 -0.5243 -1.1686 -1.0999
  303MOL0     H40899   3.781   9.514   9.851  0.6102 -1.9518  2.6313
  303MOL0     H40900   3.618   9.494   9.902 -1.1795  0.4567  2.3871
  303MOL0     H40901   3.734   9.510  10.100  1.0423 -0.4895  0.1356
  303MOL0     H40902   3.666   9.674  10.095 -0.2952  1.7566 -1.5814
  303MOL0     H40903   4.088   9.711  10.087  0.6211 -1.5377 -0.1383
  303MOL0     H40904   3.280   9.767   9.670  1.1738  3.0704  2.9939
  303MOL0     H40905   3.038   9.751   9.632 -1.7170 -1.6763 -1.0947
  304MOL0     O40906   9.948   2.524  10.137  0.1608 -0.1464 -0.7751
  304MOL0     C40907   9.963   2.605  10.221  0.5570  0.7392  0.3265
  304MOL0     O40908   9.862   2.657  10.299  0.4277  0.3655  0.4952
  304MOL0     C40909   9.731   2.609  10.281 -0.2054  0.3368  1.0687
  304MOL0     C40910   9.687   2.476  10.253  0.1744 -0.0738 -0.2645
  304MOL0     C40911   9.552   2.444  10.240  0.7679 -0.2314 -0.3703
  304MOL0     C40912   9.451   2.544  10.259 -0.3143  0.3949 -0.3651
  304MOL0     O40913   9.313   2.524  10.250 -0.8650  0.1873 -0.1741
  304MOL0     C40914   9.272   2.440  10.352  1.2762 -0.6530  0.9670
  304MOL0     C40915   9.120   2.411  10.329  0.5479  0.2638  0.1160
  304MOL0     C40916   9.031   2.539  10.327 -0.5889 -0.1073 -0.3924
  304MOL0     C40917   8.896   2.506  10.272 -0.2939 -0.1634  0.5576
  304MOL0     C40918   8.798   2.477  10.385 -0.4264 -0.2804 -0.0458
  304MOL0     C40919   8.673   2.417  10.321  0.3347  0.1660 -0.0330
  304MOL0     C40920   8.558   2.423  10.414  0.1739  0.0449 -0.2757
  304MOL0     C40921   8.440   2.343  10.364  0.6036  0.8217 -0.3054
  304MOL0     N40922   8.313   2.368  10.435 -0.2607  0.7072  0.2734
  304MOL0     C40923   8.272   2.312  10.549  0.3511 -0.2980 -0.6372
  304MOL0     C40924   8.165   2.392  10.584  0.4399  0.2841  0.0895
  304MOL0     C40925   8.087   2.367  10.710  0.1154 -0.1751 -0.2469
  304MOL0     C40926   8.128   2.477  10.817 -0.0052  0.0443 -0.1443
  304MOL0     C40927   8.061   2.469  10.963  0.0302  0.5657  0.5116
  304MOL0     C40928   7.914   2.472  10.950  0.4357  0.5460  0.2856
  304MOL0     O40929   7.868   2.597  10.904 -0.0409  0.5485 -0.2249
  304MOL0     C40930   7.734   2.610  10.897 -0.0844  0.1217 -0.1526
  304MOL0     C40931   7.688   2.731  10.845 -1.0824  0.4114  0.4343
  304MOL0     C40932   7.555   2.757  10.815  0.7272 -0.7866  0.3031
  304MOL0     C40933   7.523   2.893  10.752 -0.5161  0.1923  0.0735
  304MOL0     C40934   7.462   2.653  10.846 -0.0845 -0.0798 -0.5703
  304MOL0     C40935   7.319   2.679  10.833  0.4133  0.8763  0.1323
  304MOL0     O40936   7.240   2.633  10.937  0.1672  0.3652  0.5068
  304MOL0     C40937   7.109   2.664  10.938 -0.0081  0.7898 -0.3380
  304MOL0     C40938   7.029   2.644  10.828  0.7320  0.0740  0.5239
  304MOL0     C40939   6.894   2.672  10.839  0.4741  0.1320  0.8946
  304MOL0     C40940   6.840   2.732  10.947  0.4249  0.2198  0.0975
  304MOL0     O40941   6.704   2.754  10.938 -0.8414  0.3153 -0.0859
  304MOL0     C40942   6.649   2.832  11.042  0.2773 -0.8113 -0.0208
  304MOL0     C40943   6.497   2.868  11.021 -0.2569  0.5344 -0.0079
  304MOL0     C40944   6.415   2.742  11.038 -0.5833 -0.2448  0.4250
  304MOL0     C40945   6.257   2.759  11.033 -0.1140  0.6516  0.9350
  304MOL0     C40946   6.182   2.633  11.086 -0.2232  0.4799 -0.1155
  304MOL0     C40947   6.035   2.662  11.099  0.5383 -0.4854 -0.2329
  304MOL0     C40948   5.968   2.594  11.223  0.8200  0.5690 -0.0373
  304MOL0     C40949   5.826   2.639  11.253  1.0930 -0.1673  0.5795
  304MOL0    Cl40950   5.718   2.582  11.119  0.4662  0.1518 -0.1939
  304MOL0     C40951   6.918   2.750  11.060  0.0179 -0.8958  0.4846
  304MOL0     C40952   7.051   2.712  11.060 -0.6818  0.6554 -0.8062
  304MOL0     O40953   7.283   2.713  10.717 -0.8210 -0.8652  0.2812
  304MOL0     C40954   7.502   2.530  10.904  0.3779 -0.2402  0.2266
  304MOL0     C40955   7.639   2.514  10.927 -0.8553 -0.1223 -0.1955
  304MOL0     N40956   8.146   2.491  10.492  0.2511 -0.3617  0.1666
  304MOL0     N40957   8.233   2.472  10.406 -0.6274  0.0390  0.3024
  304MOL0     C40958   9.498   2.668  10.286 -0.6430 -0.4449  0.1795
  304MOL0     C40959   9.628   2.708  10.291 -0.8493  0.4210 -0.2321
  304MOL0     C40960  10.091   2.645  10.252 -0.1675  0.0460 -0.3043
  304MOL0     C40961  10.202   2.616  10.175 -0.4859  1.2973 -0.3103
  304MOL0     C40962  10.331   2.659  10.204  0.1214 -0.3818  0.7523
  304MOL0     C40963  10.353   2.742  10.307  0.1082 -0.3297  0.0643
  304MOL0     O40964  10.485   2.791  10.328  0.1349  0.7564 -0.0141
  304MOL0     C40965  10.510   2.862  10.455 -0.5315  0.4020  0.1672
  304MOL0     C40966  10.661   2.861  10.498  0.3141  0.2058  0.6707
  304MOL0     C40967  10.733   2.952  10.403  0.5814 -0.0221 -0.4291
  304MOL0     C40968  10.878   2.976  10.441 -0.0702  0.5283 -0.5201
  304MOL0     C40969  10.928   3.105  10.393 -0.1904 -0.1170  0.2437
  304MOL0     C40970  10.968   3.206  10.342  0.7642 -0.7014 -0.7331
  304MOL0     C40971  10.244   2.793  10.369  0.0535  0.1448  0.0273
  304MOL0     C40972  10.113   2.746  10.345  0.0518 -0.6919  0.1821
  304MOL0     H40973   9.759   2.397  10.233  0.1429 -0.1286 -0.1651
  304MOL0     H40974   9.523   2.346  10.201  1.5656 -1.4616  1.9289
  304MOL0     H40975   9.332   2.349  10.343 -0.2835 -1.5036 -1.5832
  304MOL0     H40976   9.288   2.495  10.446  1.2701  2.4295 -0.6930
  304MOL0     H40977   9.116   2.349  10.239  0.3485  1.3357 -0.6243
  304MOL0     H40978   9.101   2.352  10.419  2.5230  0.9293  1.0371
  304MOL0     H40979   9.022   2.565  10.433 -1.1797  2.1766 -0.9354
  304MOL0     H40980   9.086   2.618  10.274  0.2437  1.4709  2.5784
  304MOL0     H40981   8.856   2.589  10.213  0.5570 -1.5923 -2.2375
  304MOL0     H40982   8.904   2.416  10.211  4.4594 -0.4679  1.2514
  304MOL0     H40983   8.837   2.407  10.459 -0.2840 -1.8869 -1.5672
  304MOL0     H40984   8.778   2.577  10.426 -1.5886  0.4846 -2.2860
  304MOL0     H40985   8.644   2.470  10.230  0.0714 -2.6392 -1.6686
  304MOL0     H40986   8.690   2.315  10.286 -0.8811  0.2532 -0.9550
  304MOL0     H40987   8.595   2.378  10.506 -0.6811  2.2139  1.2117
  304MOL0     H40988   8.530   2.524  10.445 -0.9332 -0.7780  1.5377
  304MOL0     H40989   8.475   2.240  10.377 -2.0535  0.1109  2.1406
  304MOL0     H40990   8.421   2.366  10.258 -0.7235  1.8432  0.1243
  304MOL0     H40991   8.315   2.231  10.607  2.6269  1.1581 -0.1513
  304MOL0     H40992   7.979   2.369  10.691  0.2873 -1.6468 -1.6431
  304MOL0     H40993   8.109   2.264  10.740  2.3017 -0.1878 -1.7018
  304MOL0     H40994   8.099   2.573  10.774  0.4838  0.3193  0.1239
  304MOL0     H40995   8.235   2.479  10.838 -0.5750  0.0748  3.3020
  304MOL0     H40996   8.076   2.558  11.024 -1.8294  0.4248  1.2383
  304MOL0     H40997   8.081   2.378  11.019 -0.9838 -0.1950 -0.3064
  304MOL0     H40998   7.876   2.440  11.048  1.0912 -4.9185 -0.9350
  304MOL0     H40999   7.881   2.386  10.892 -2.0694  0.8047  1.2141
  304MOL0     H41000   7.759   2.803  10.807 -1.9231  0.0868 -1.9183
  304MOL0     H41001   7.617   2.943  10.726  0.2955 -1.1286  0.3672
  304MOL0     H41002   7.466   2.882  10.659  0.0036  0.6268 -0.3062
  304MOL0     H41003   7.459   2.946  10.823 -3.1629 -3.3942  0.6399
  304MOL0     H41004   7.071   2.613  10.732  1.3876  4.9692 -1.0740
  304MOL0     H41005   6.826   2.657  10.756  0.8098  0.8292  0.4815
  304MOL0     H41006   6.662   2.788  11.142  0.6563  0.2151  0.3935
  304MOL0     H41007   6.699   2.929  11.044 -0.4939 -0.4042 -0.4027
  304MOL0     H41008   6.462   2.942  11.094 -1.4095 -1.0673  1.1113
  304MOL0     H41009   6.479   2.917  10.925 -2.4763 -0.2139 -0.0107
  304MOL0     H41010   6.447   2.687  11.127  1.2968 -1.0425 -0.6942
  304MOL0     H41011   6.443   2.684  10.950  0.0293  2.2568 -1.1233
  304MOL0     H41012   6.234   2.831  11.113  0.4780  0.7679  1.0063
  304MOL0     H41013   6.218   2.782  10.933 -2.1805 -0.6315  1.3820
  304MOL0     H41014   6.226   2.615  11.184  1.7369  1.7611 -0.7134
  304MOL0     H41015   6.192   2.547  11.018 -0.8193  1.0725 -0.9809
  304MOL0     H41016   6.006   2.764  11.124 -1.4563 -1.3666  1.3144
  304MOL0     H41017   5.976   2.631  11.012 -0.1618 -2.0730  0.7615
  304MOL0     H41018   6.026   2.608  11.315  0.3343 -3.6632  1.1052
  304MOL0     H41019   5.965   2.486  11.206  0.6253  0.1823  2.1196
  304MOL0     H41020   5.818   2.746  11.274  0.8088 -0.3340  1.3621
  304MOL0     H41021   5.800   2.588  11.346  3.4908 -2.8315 -0.0615
  304MOL0     H41022   6.882   2.789  11.154 -0.7844 -0.6787  0.0916
  304MOL0     H41023   7.121   2.711  11.142  0.6454  2.6879 -1.8516
  304MOL0     H41024   7.426   2.454  10.919  0.5607 -0.6475 -0.8500
  304MOL0     H41025   7.676   2.418  10.962  3.2988  1.1289 -0.5732
  304MOL0     H41026   9.423   2.744  10.307 -4.2005 -2.9728 -2.1203
  304MOL0     H41027   9.641   2.813  10.314  3.9762  0.1264 -0.5458
  304MOL0     H41028  10.195   2.542  10.096 -0.6941 -0.3592  1.1995
  304MOL0     H41029  10.410   2.616  10.144 -1.4777  0.2830 -2.0027
  304MOL0     H41030  10.494   2.968  10.435  1.8510  0.7265 -0.3065
  304MOL0     H41031  10.450   2.828  10.540 -0.0122  0.4250  0.5460
  304MOL0     H41032  10.704   2.761  10.485  0.3947  0.4314 -0.9907
  304MOL0     H41033  10.677   2.892  10.602  0.5836 -2.3733  1.4731
  304MOL0     H41034  10.680   3.047  10.405 -1.4932 -1.0960  2.1452
  304MOL0     H41035  10.732   2.902  10.306 -3.1027 -0.3170 -0.3661
  304MOL0     H41036  10.947   2.901  10.401  1.1010  0.8079  0.8771
  304MOL0     H41037  10.884   2.984  10.550 -1.8013  1.9699 -0.4909
  304MOL0     H41038  11.003   3.289  10.283  2.0891 -0.7596 -0.0834
  304MOL0     H41039  10.252   2.872  10.443 -1.0662  0.5148 -0.2295
  304MOL0     H41040  10.031   2.773  10.411 -1.5632 -2.6202 -0.9447
  305MOL0     O41041  10.154   9.318   4.743 -0.4005 -0.7337 -0.1857
  305MOL0     C41042  10.246   9.345   4.665  0.5822 -0.3091  0.0623
  305MOL0     O41043  10.229   9.396   4.535 -0.0544 -0.3039  0.4572
  305MOL0     C41044  10.107   9.387   4.479  0.1596 -0.4250 -0.8687
  305MOL0     C41045  10.038   9.264   4.480 -0.7631 -0.8742  0.0418
  305MOL0     C41046   9.915   9.258   4.406 -0.2941 -0.7675 -0.3081
  305MOL0     C41047   9.868   9.372   4.342 -0.0625  0.2623  0.5642
  305MOL0     O41048   9.744   9.357   4.274  0.1820 -0.3487 -0.0753
  305MOL0     C41049   9.629   9.378   4.344 -0.2634 -0.2947 -0.1944
  305MOL0     C41050   9.526   9.275   4.298  0.7239  0.1715 -0.0257
  305MOL0     C41051   9.397   9.281   4.383  0.4591 -0.4489 -0.2518
  305MOL0     C41052   9.304   9.408   4.360  0.6787 -0.3376 -0.1676
  305MOL0     C41053   9.180   9.401   4.450  0.5290  0.3458  0.1547
  305MOL0     C41054   9.099   9.533   4.436  0.0726 -0.2181  0.0653
  305MOL0     C41055   8.987   9.551   4.539 -0.3288 -0.3666 -0.1453
  305MOL0     C41056   8.880   9.445   4.511 -0.1737 -0.7078  0.3366
  305MOL0     N41057   8.766   9.461   4.602  0.5105  0.2529 -0.3943
  305MOL0     C41058   8.684   9.571   4.605  0.6787  0.1176 -0.5889
  305MOL0     C41059   8.600   9.548   4.713  1.0368  0.5014  0.3257
  305MOL0     C41060   8.498   9.640   4.790 -0.8198 -0.1949 -0.0657
  305MOL0     C41061   8.418   9.730   4.697 -0.2052  0.5891  0.8800
  305MOL0     C41062   8.500   9.855   4.681 -0.1108  0.2454  0.6959
  305MOL0     C41063   8.431   9.971   4.600  0.1134  0.2811  0.1989
  305MOL0     O41064   8.420   9.925   4.467 -0.5590 -0.1924 -1.2277
  305MOL0     C41065   8.309   9.957   4.391  0.0250 -0.3502 -0.8859
  305MOL0     C41066   8.227  10.071   4.408 -0.4839  0.6209  1.1935
  305MOL0     C41067   8.126  10.104   4.311  0.4998  0.5876 -0.7324
  305MOL0     C41068   8.029  10.218   4.348 -0.3234  0.1092  0.3368
  305MOL0     C41069   8.098  10.017   4.197  0.7006  0.1175  0.2344
  305MOL0     C41070   7.991  10.044   4.096  1.2917 -0.7269  0.1037
  305MOL0     O41071   7.937  10.167   4.092  0.6544  0.0030 -0.4575
  305MOL0     C41072   7.834  10.176   4.001 -0.1996 -0.7200 -0.0782
  305MOL0     C41073   7.849  10.171   3.861 -0.3351 -0.2771 -1.0787
  305MOL0     C41074   7.745  10.199   3.780  0.1842  0.3207  0.5270
  305MOL0     C41075   7.621  10.248   3.824  0.0532 -0.6457  0.5403
  305MOL0     O41076   7.517  10.290   3.746  0.5915  0.3018  0.7061
  305MOL0     C41077   7.498  10.246   3.611 -0.5640  0.6652  0.8137
  305MOL0     C41078   7.363  10.287   3.565 -0.1531 -0.4405  1.3845
  305MOL0     C41079   7.324  10.207   3.445  0.2927 -0.2132  0.8103
  305MOL0     C41080   7.197  10.266   3.375  0.0723  0.0694 -0.4436
  305MOL0     C41081   7.149  10.159   3.273  1.2784  0.7045 -0.0392
  305MOL0     C41082   7.035  10.193   3.179 -0.2534 -0.0002  0.1825
  305MOL0     C41083   6.906  10.228   3.250 -2.1114 -0.6706 -0.5976
  305MOL0     C41084   6.789  10.277   3.158  0.2357  0.3667 -0.4601
  305MOL0    Cl41085   6.630  10.292   3.244  0.1588 -0.1986  0.2133
  305MOL0     C41086   7.605  10.248   3.962 -0.3374  0.9508  0.9231
  305MOL0     C41087   7.707  10.223   4.052 -0.5854  0.1863 -0.1501
  305MOL0     O41088   7.959   9.952   4.018 -0.0166  0.4393 -0.1558
  305MOL0     C41089   8.185   9.907   4.186 -0.4318  0.4004  0.3383
  305MOL0     C41090   8.283   9.882   4.275 -1.1471 -0.1060 -0.4850
  305MOL0     N41091   8.616   9.411   4.746  0.1824  0.2531  0.6265
  305MOL0     N41092   8.717   9.366   4.691 -0.6351 -1.1436  0.9833
  305MOL0     C41093   9.941   9.487   4.347  0.4162  0.4569  0.1545
  305MOL0     C41094  10.063   9.497   4.408  0.5252 -0.2107  0.1585
  305MOL0     C41095  10.385   9.338   4.713  0.4164 -0.4891 -0.0970
  305MOL0     C41096  10.492   9.379   4.631 -0.1572  0.2465  0.0558
  305MOL0     C41097  10.618   9.380   4.682 -0.6717  0.1523  0.8584
  305MOL0     C41098  10.646   9.354   4.816  0.6604  0.1996  0.1336
  305MOL0     O41099  10.776   9.360   4.852  0.0150 -0.0191 -0.4110
  305MOL0     C41100  10.798   9.402   4.988 -1.2916  0.1900  0.2140
  305MOL0     C41101  10.949   9.447   5.012  0.1556  0.2940  0.1613
  305MOL0     C41102  11.033   9.335   4.972 -0.3913  0.2889 -0.9146
  305MOL0     C41103  11.184   9.372   4.994  0.4747  0.1442  0.3521
  305MOL0     C41104  11.273   9.254   4.986 -0.2776 -0.2831  0.2956
  305MOL0     C41105  11.352   9.162   4.978 -0.2627 -0.0622 -0.3590
  305MOL0     C41106  10.543   9.317   4.908 -0.3600  0.6532  0.4044
  305MOL0     C41107  10.416   9.302   4.850 -0.0225 -0.6499 -0.0027
  305MOL0     H41108  10.080   9.179   4.532 -1.4227 -1.5490 -0.5174
  305MOL0     H41109   9.842   9.181   4.387 -1.7545  0.3645  0.5381
  305MOL0     H41110   9.649   9.346   4.447 -1.7638 -2.7029 -0.5540
  305MOL0     H41111   9.592   9.479   4.330 -0.8164 -0.3118  1.0394
  305MOL0     H41112   9.505   9.308   4.196 -0.4391  4.5117  1.3882
  305MOL0     H41113   9.570   9.175   4.295  0.5742 -0.0398  2.7245
  305MOL0     H41114   9.325   9.204   4.352 -1.5632  1.0566  0.5268
  305MOL0     H41115   9.430   9.270   4.486  1.0467  2.1927 -0.0911
  305MOL0     H41116   9.365   9.499   4.365 -1.9190  1.4440  2.0888
  305MOL0     H41117   9.266   9.400   4.258  0.0209  0.9774 -0.0504
  305MOL0     H41118   9.113   9.320   4.421  0.7538  0.1185  0.2700
  305MOL0     H41119   9.206   9.385   4.555 -0.6286  1.5708  0.6639
  305MOL0     H41120   9.170   9.616   4.439  0.3031 -0.2579 -2.3288
  305MOL0     H41121   9.052   9.533   4.337 -1.2663  3.0661  0.5732
  305MOL0     H41122   9.025   9.545   4.641 -1.9431 -1.2867  0.4505
  305MOL0     H41123   8.944   9.652   4.533 -0.5846 -0.3573  1.4653
  305MOL0     H41124   8.923   9.344   4.511  0.4932 -0.4222  0.1644
  305MOL0     H41125   8.842   9.450   4.409  2.2251  2.3161 -0.5111
  305MOL0     H41126   8.700   9.667   4.556  0.4162  0.7563  0.5306
  305MOL0     H41127   8.423   9.584   4.847 -1.4654  0.9315  0.2074
  305MOL0     H41128   8.565   9.694   4.858  0.4976 -1.3777 -0.3656
  305MOL0     H41129   8.319   9.754   4.736 -0.6144  3.7121 -1.6489
  305MOL0     H41130   8.397   9.680   4.602  0.1905  0.9952  0.5737
  305MOL0     H41131   8.594   9.826   4.634  0.0950  0.3774  1.0266
  305MOL0     H41132   8.522   9.895   4.780  3.8314 -0.6345  0.3629
  305MOL0     H41133   8.483  10.067   4.590 -0.2281  0.5041  0.5301
  305MOL0     H41134   8.342   9.998   4.658  0.8083 -0.7743  1.8421
  305MOL0     H41135   8.244  10.127   4.499  0.5754 -0.7963  1.9129
  305MOL0     H41136   7.928  10.186   4.320  1.3248 -3.4822 -2.3099
  305MOL0     H41137   8.026  10.234   4.456 -1.0088 -2.7904  0.8546
  305MOL0     H41138   8.056  10.306   4.290 -1.3550  1.5296  1.9032
  305MOL0     H41139   7.944  10.136   3.820  0.8713  0.8167  0.6553
  305MOL0     H41140   7.752  10.181   3.673 -0.1386 -3.4809  0.9936
  305MOL0     H41141   7.576  10.280   3.542 -0.6834  0.3815  0.5317
  305MOL0     H41142   7.499  10.136   3.613 -0.2833  0.4211 -3.2528
  305MOL0     H41143   7.283  10.264   3.636 -2.3231  1.8897 -0.1267
  305MOL0     H41144   7.358  10.394   3.541 -1.1873 -0.9404 -0.9224
  305MOL0     H41145   7.301  10.106   3.481 -3.8766  0.9909  2.1357
  305MOL0     H41146   7.404  10.203   3.370 -2.1404 -3.8556 -1.9743
  305MOL0     H41147   7.118  10.286   3.447  0.0272  1.9238 -0.9730
  305MOL0     H41148   7.225  10.363   3.333 -0.4833  0.5715  0.3166
  305MOL0     H41149   7.122  10.067   3.326  1.1826  1.2969  0.9673
  305MOL0     H41150   7.236  10.123   3.216  0.5426 -1.0411 -0.1300
  305MOL0     H41151   7.077  10.275   3.120  0.2803  0.2905  0.9539
  305MOL0     H41152   7.024  10.104   3.117  1.2711  0.2352 -0.4641
  305MOL0     H41153   6.926  10.310   3.320 -0.7423 -1.2342 -0.3102
  305MOL0     H41154   6.883  10.132   3.296  1.0028 -1.3331 -0.2674
  305MOL0     H41155   6.785  10.199   3.081  0.9627 -0.9108  0.7341
  305MOL0     H41156   6.835  10.365   3.114  1.9103  0.0631  0.5819
  305MOL0     H41157   7.504  10.260   4.000 -1.2311  0.9566 -1.3025
  305MOL0     H41158   7.685  10.221   4.159  0.2727 -0.9906  0.0245
  305MOL0     H41159   8.172   9.849   4.096  0.6849  2.2627 -1.0972
  305MOL0     H41160   8.333   9.787   4.256 -3.2905 -1.8109  1.6686
  305MOL0     H41161   9.896   9.566   4.289 -1.4809 -0.3531  0.4409
  305MOL0     H41162  10.120   9.588   4.397 -3.1500  2.1723 -1.1548
  305MOL0     H41163  10.474   9.396   4.525  0.6116 -1.5974 -0.4047
  305MOL0     H41164  10.697   9.403   4.612 -0.0008 -0.1716  1.4902
  305MOL0     H41165  10.728   9.481   5.016 -2.1281 -1.0788  1.8541
  305MOL0     H41166  10.791   9.308   5.044  1.1575 -1.6050 -2.1868
  305MOL0     H41167  10.967   9.483   5.114  1.8014  3.1708 -1.0437
  305MOL0     H41168  10.959   9.533   4.945 -0.1277  0.0117 -0.2488
  305MOL0     H41169  11.006   9.306   4.870 -3.7313 -1.3420  0.2881
  305MOL0     H41170  11.015   9.250   5.039  0.0330  0.1574 -0.9584
  305MOL0     H41171  11.206   9.426   5.086  0.7359 -0.3288  0.5693
  305MOL0     H41172  11.223   9.437   4.916  2.3865  1.3536  2.2249
  305MOL0     H41173  11.411   9.073   4.975  0.8107  0.6521 -0.8578
  305MOL0     H41174  10.558   9.283   5.010 -0.2447 -0.5416  0.0051
  305MOL0     H41175  10.344   9.256   4.917  0.1929  3.1053  3.1278
  306MOL0     O41176   1.257   0.334  10.491 -0.3765  0.2049  0.1889
  306MOL0     C41177   1.190   0.349  10.391  0.2424 -0.3515 -0.2176
  306MOL0     O41178   1.047   0.341  10.390  0.0994  0.5441  0.5710
  306MOL0     C41179   0.966   0.344  10.504 -0.1169  0.3690 -0.5191
  306MOL0     C41180   1.002   0.422  10.620 -0.1670  0.2013 -0.0566
  306MOL0     C41181   0.928   0.416  10.743  0.2792  0.1995 -0.4223
  306MOL0     C41182   0.799   0.349  10.738 -0.5888  0.0660  0.5578
  306MOL0     O41183   0.726   0.331  10.858 -0.1882  0.2257 -0.3422
  306MOL0     C41184   0.590   0.372  10.858  0.6910 -0.0897 -0.4273
  306MOL0     C41185   0.536   0.382  11.002 -0.2799  0.4377  0.4071
  306MOL0     C41186   0.392   0.429  11.012  0.1074  0.2174  0.3039
  306MOL0     C41187   0.324   0.369  11.134  0.5518 -0.4275 -0.4269
  306MOL0     C41188   0.175   0.412  11.129 -0.0652 -0.8473 -0.0514
  306MOL0     C41189   0.111   0.375  11.267  0.0120 -0.4931  0.0690
  306MOL0     C41190  -0.025   0.442  11.285  0.0089 -0.1670 -0.2473
  306MOL0     C41191  -0.140   0.397  11.183 -0.2568 -0.4587 -0.4527
  306MOL0     N41192  -0.252   0.493  11.182 -1.0857 -0.2055  0.2331
  306MOL0     C41193  -0.293   0.551  11.305  0.5953 -0.2529  0.0620
  306MOL0     C41194  -0.355   0.669  11.269  0.0146 -0.5511 -0.5219
  306MOL0     C41195  -0.411   0.777  11.355  0.2076  0.6131 -0.0128
  306MOL0     C41196  -0.558   0.770  11.395  0.8215 -0.5956  0.4140
  306MOL0     C41197  -0.609   0.644  11.462  0.1620 -0.4969  0.0048
  306MOL0     C41198  -0.760   0.651  11.484 -0.9149 -0.3751 -0.6411
  306MOL0     O41199  -0.824   0.653  11.355 -0.0144 -0.2300 -0.4722
  306MOL0     C41200  -0.959   0.660  11.353  0.1203  0.1553 -0.4999
  306MOL0     C41201  -1.008   0.660  11.228  1.2363  0.1011 -0.4209
  306MOL0     C41202  -1.145   0.677  11.206  0.4481 -0.3005  0.8813
  306MOL0     C41203  -1.202   0.660  11.066 -0.5933 -0.6537  0.2002
  306MOL0     C41204  -1.235   0.710  11.312 -0.1534 -0.0013 -0.1913
  306MOL0     C41205  -1.375   0.754  11.305  0.1443 -0.0494 -0.0118
  306MOL0     O41206  -1.429   0.810  11.420 -0.1442 -0.1281 -0.2019
  306MOL0     C41207  -1.566   0.829  11.419 -0.6174 -0.6594  0.8226
  306MOL0     C41208  -1.606   0.950  11.373  0.4919 -0.2299 -0.0003
  306MOL0     C41209  -1.739   0.975  11.382  0.9936 -0.8222 -0.6460
  306MOL0     C41210  -1.834   0.891  11.430  0.4462 -0.1156 -0.5897
  306MOL0     O41211  -1.967   0.923  11.450  0.1349 -0.0433  0.3689
  306MOL0     C41212  -2.048   0.877  11.344 -0.0054 -0.0664  0.0297
  306MOL0     C41213  -2.152   0.769  11.393 -0.1635  0.0201 -0.6740
  306MOL0     C41214  -2.214   0.713  11.269 -0.1391 -0.3137 -0.1235
  306MOL0     C41215  -2.326   0.619  11.319  0.0424 -0.0867  0.5144
  306MOL0     C41216  -2.356   0.521  11.203 -0.2501 -0.0847  0.1191
  306MOL0     C41217  -2.457   0.417  11.258 -1.0216 -0.0045 -0.6154
  306MOL0     C41218  -2.586   0.472  11.318 -0.1272 -0.0420 -0.1324
  306MOL0     C41219  -2.696   0.504  11.208 -0.9951 -0.4072 -0.6097
  306MOL0    Cl41220  -2.747   0.351  11.128  0.2349  0.0907 -0.0850
  306MOL0     C41221  -1.785   0.771  11.484 -0.2979 -0.5855 -0.2830
  306MOL0     C41222  -1.653   0.738  11.483 -0.3282 -0.5499  0.3875
  306MOL0     O41223  -1.437   0.743  11.201 -0.5888  0.0626 -0.5955
  306MOL0     C41224  -1.179   0.695  11.436  0.1037 -0.5947 -0.3510
  306MOL0     C41225  -1.045   0.677  11.461 -0.0644 -0.6834  1.2612
  306MOL0     N41226  -0.353   0.679  11.131 -0.0747  0.3538  0.3843
  306MOL0     N41227  -0.301   0.570  11.080 -0.0406 -0.2940 -0.5991
  306MOL0     C41228   0.766   0.288  10.618  0.2649  0.4953  1.2230
  306MOL0     C41229   0.843   0.278  10.505 -0.0960 -0.4224  0.4231
  306MOL0     C41230   1.262   0.366  10.256  0.3808 -0.8644  0.2750
  306MOL0     C41231   1.408   0.364  10.257  0.3255  0.8902  0.3569
  306MOL0     C41232   1.477   0.369  10.142  0.3889 -1.0072  0.1630
  306MOL0     C41233   1.411   0.376  10.021 -0.6547  0.0869 -0.1206
  306MOL0     O41234   1.474   0.376   9.899 -0.0092  0.3959 -0.4684
  306MOL0     C41235   1.615   0.361   9.894 -0.2117  0.0639  0.1628
  306MOL0     C41236   1.655   0.398   9.752 -0.4283  0.7973 -0.4862
  306MOL0     C41237   1.795   0.338   9.720 -0.1908  0.1009 -0.4249
  306MOL0     C41238   1.833   0.370   9.576  0.0998 -0.3487 -0.5764
  306MOL0     C41239   1.756   0.292   9.476 -0.3560 -0.2007  0.2253
  306MOL0     C41240   1.677   0.243   9.394  0.5167  1.2646  0.1975
  306MOL0     C41241   1.270   0.381  10.022 -0.1003  0.4479  0.4824
  306MOL0     C41242   1.192   0.388  10.134  0.1089  0.3826 -0.9188
  306MOL0     H41243   1.098   0.471  10.624 -0.0602 -0.0906  2.8945
  306MOL0     H41244   0.956   0.452  10.841  1.9686 -0.7356 -0.5239
  306MOL0     H41245   0.575   0.472  10.815 -1.4978  0.9508  2.4177
  306MOL0     H41246   0.532   0.292  10.810  0.5804  0.0039 -0.4501
  306MOL0     H41247   0.539   0.283  11.048 -0.6197  0.0212 -0.4394
  306MOL0     H41248   0.604   0.449  11.056  2.8652 -2.1624 -0.0315
  306MOL0     H41249   0.385   0.538  11.018 -0.8261  0.2272 -0.6311
  306MOL0     H41250   0.326   0.401  10.930 -1.1510  1.1693  0.9545
  306MOL0     H41251   0.299   0.264  11.116 -3.6324  0.3422 -0.2478
  306MOL0     H41252   0.380   0.393  11.225 -0.9615  0.4641  0.3111
  306MOL0     H41253   0.170   0.521  11.116 -0.4690 -0.6299  1.7297
  306MOL0     H41254   0.130   0.363  11.042  0.5158  0.5648 -1.1979
  306MOL0     H41255   0.104   0.266  11.268  3.4470 -0.8659 -1.7261
  306MOL0     H41256   0.177   0.413  11.346 -2.3869  1.7020  1.1593
  306MOL0     H41257  -0.050   0.426  11.391  3.2790 -0.8021  0.5411
  306MOL0     H41258  -0.011   0.550  11.277 -2.4587  0.2638  0.4578
  306MOL0     H41259  -0.192   0.306  11.213 -0.1399 -1.0469 -1.9668
  306MOL0     H41260  -0.091   0.380  11.087  1.7565 -3.1677  0.9353
  306MOL0     H41261  -0.268   0.519  11.406 -0.3517  0.9185  0.6845
  306MOL0     H41262  -0.352   0.771  11.447  0.7014 -0.1567 -0.3722
  306MOL0     H41263  -0.391   0.872  11.304  3.1568 -1.0298 -2.2335
  306MOL0     H41264  -0.613   0.797  11.304  2.2295  0.0108 -0.2942
  306MOL0     H41265  -0.564   0.853  11.465  1.1440  0.4398 -0.7541
  306MOL0     H41266  -0.566   0.638  11.563  0.0589  0.5082  0.1147
  306MOL0     H41267  -0.580   0.554  11.406  0.6053 -0.3086 -0.0701
  306MOL0     H41268  -0.792   0.735  11.546 -0.4744 -1.6793  1.4563
  306MOL0     H41269  -0.801   0.566  11.540  0.0851 -0.8555 -0.6104
  306MOL0     H41270  -0.931   0.660  11.151  2.0358  3.8067  0.1489
  306MOL0     H41271  -1.262   0.747  11.036 -0.4965 -0.1029  1.5408
  306MOL0     H41272  -1.114   0.650  11.003 -0.2371 -1.8573  0.8624
  306MOL0     H41273  -1.254   0.564  11.060  1.0406 -1.7489  2.2917
  306MOL0     H41274  -1.540   1.033  11.355  0.9020 -0.5528 -0.0045
  306MOL0     H41275  -1.772   1.078  11.368 -1.7598 -1.8177 -2.2016
  306MOL0     H41276  -2.109   0.960  11.306  2.4565  0.8876 -2.0566
  306MOL0     H41277  -1.983   0.850  11.261  1.6345  1.3590  0.7761
  306MOL0     H41278  -2.098   0.683  11.434  0.0830 -0.1629 -1.3683
  306MOL0     H41279  -2.221   0.812  11.467 -0.6975 -2.1784  0.1776
  306MOL0     H41280  -2.139   0.660  11.210  1.0716  1.9690 -0.7574
  306MOL0     H41281  -2.264   0.788  11.207 -2.5278 -1.1510  0.6677
  306MOL0     H41282  -2.288   0.559  11.403  1.1041 -1.6307 -1.0061
  306MOL0     H41283  -2.409   0.681  11.354  1.0158  2.3366 -1.2153
  306MOL0     H41284  -2.265   0.467  11.177 -0.1479  0.4774 -0.7437
  306MOL0     H41285  -2.401   0.575  11.119 -2.1269 -0.0697  1.0732
  306MOL0     H41286  -2.476   0.347  11.177  3.4914 -1.2537 -0.8585
  306MOL0     H41287  -2.411   0.357  11.337 -5.7245 -0.4926  2.1328
  306MOL0     H41288  -2.565   0.558  11.383 -0.4067  0.0161 -0.1163
  306MOL0     H41289  -2.612   0.386  11.380 -1.2482  0.6984  0.4620
  306MOL0     H41290  -2.644   0.571  11.139  0.0752  0.1799  0.7188
  306MOL0     H41291  -2.787   0.547  11.252 -0.8328 -0.7716  0.1076
  306MOL0     H41292  -1.856   0.704  11.532  0.5345  0.7419  3.0442
  306MOL0     H41293  -1.617   0.646  11.528 -1.2567 -2.1521 -1.8964
  306MOL0     H41294  -1.228   0.715  11.530 -0.9121  0.7514 -1.1175
  306MOL0     H41295  -0.989   0.674  11.553  0.9512 -0.9021  0.6541
  306MOL0     H41296   0.669   0.239  10.619  0.5043  0.0237  1.9562
  306MOL0     H41297   0.818   0.207  10.426  1.6980 -0.3942 -0.2108
  306MOL0     H41298   1.463   0.352  10.350  0.3906 -2.1711  0.0316
  306MOL0     H41299   1.586   0.368  10.143  0.3938 -2.1301 -0.4000
  306MOL0     H41300   1.668   0.438   9.950 -1.5043  0.9713  0.1905
  306MOL0     H41301   1.652   0.260   9.916  1.3264  0.4499 -0.5197
  306MOL0     H41302   1.669   0.504   9.729  2.9512  0.7637  0.6949
  306MOL0     H41303   1.578   0.357   9.687  0.0186 -0.6600 -0.1413
  306MOL0     H41304   1.812   0.230   9.728  1.6967  0.1442 -2.5739
  306MOL0     H41305   1.867   0.379   9.791  0.8933 -1.7584 -0.3894
  306MOL0     H41306   1.942   0.358   9.569  0.0981 -0.4603 -0.4147
  306MOL0     H41307   1.817   0.477   9.557  0.3107 -0.1578  0.2844
  306MOL0     H41308   1.610   0.205   9.319 -1.3864 -1.6006  3.0738
  306MOL0     H41309   1.227   0.381   9.922 -0.0406 -2.5060  0.3552
  306MOL0     H41310   1.084   0.396  10.131  0.0742  0.1430 -0.4123
  307MOL0     O41311   7.496   4.910   5.395 -0.2468  0.5138  0.1462
  307MOL0     C41312   7.506   4.789   5.398 -0.2422 -0.6562  0.6816
  307MOL0     O41313   7.406   4.699   5.342  0.1505 -0.2201 -0.1187
  307MOL0     C41314   7.276   4.733   5.307  0.2367 -0.4508  0.1501
  307MOL0     C41315   7.202   4.835   5.371 -1.1287 -1.0267  0.7362
  307MOL0     C41316   7.069   4.862   5.321 -0.1675  0.5032  0.0055
  307MOL0     C41317   7.019   4.811   5.192 -0.2128  0.5021 -1.0117
  307MOL0     O41318   6.895   4.837   5.133 -0.6483 -0.1856  0.1353
  307MOL0     C41319   6.791   4.877   5.225  0.3671 -0.1467 -0.5257
  307MOL0     C41320   6.661   4.872   5.146 -0.3821  0.3642 -0.2085
  307MOL0     C41321   6.629   4.737   5.090  0.4307  0.1311 -0.1916
  307MOL0     C41322   6.484   4.733   5.046 -0.0362 -0.3758  0.5221
  307MOL0     C41323   6.444   4.589   4.987 -0.3570 -0.0531 -0.1878
  307MOL0     C41324   6.389   4.492   5.092  0.3946 -0.1678  0.1314
  307MOL0     C41325   6.351   4.358   5.032 -0.3127 -0.0790 -0.5941
  307MOL0     C41326   6.261   4.261   5.111  0.3736  0.9716 -0.3087
  307MOL0     N41327   6.205   4.142   5.039  0.1671 -0.5956  0.1877
  307MOL0     C41328   6.176   4.133   4.906  0.4145 -1.1303  0.8309
  307MOL0     C41329   6.126   4.006   4.892  0.3081  0.0397  0.6638
  307MOL0     C41330   6.096   3.936   4.760 -0.1054 -0.7192 -0.1340
  307MOL0     C41331   6.221   3.886   4.697 -0.2811 -0.2467  0.2360
  307MOL0     C41332   6.305   3.998   4.633 -0.5990  0.0856  0.3300
  307MOL0     C41333   6.442   3.942   4.578 -0.6481 -0.1518  0.3539
  307MOL0     O41334   6.521   4.043   4.514 -0.1328  0.3368  0.5501
  307MOL0     C41335   6.588   4.140   4.587 -0.9507  1.2201  0.4995
  307MOL0     C41336   6.624   4.130   4.715 -0.0362  0.3148 -0.4919
  307MOL0     C41337   6.704   4.226   4.786  0.5378  0.4389 -0.7073
  307MOL0     C41338   6.726   4.199   4.936 -0.0903  0.0548 -0.4214
  307MOL0     C41339   6.748   4.343   4.718 -0.5014 -0.5130 -0.3206
  307MOL0     C41340   6.838   4.443   4.772  0.3322  0.0435 -0.9515
  307MOL0     O41341   6.888   4.543   4.690 -0.3628  0.0941  0.1190
  307MOL0     C41342   7.025   4.580   4.698  1.0749  0.4737 -0.7238
  307MOL0     C41343   7.063   4.663   4.593  0.0488 -0.8377  0.3260
  307MOL0     C41344   7.195   4.702   4.580 -0.2207  0.7305  0.4055
  307MOL0     C41345   7.296   4.654   4.665 -0.0676 -0.1824  0.8887
  307MOL0     O41346   7.419   4.703   4.628  0.0220 -0.2572  1.3908
  307MOL0     C41347   7.541   4.647   4.676  0.3381  0.3225  0.0133
  307MOL0     C41348   7.662   4.686   4.594 -0.1711  0.0163 -0.2441
  307MOL0     C41349   7.666   4.836   4.543 -0.5382  0.6814 -0.4621
  307MOL0     C41350   7.796   4.868   4.470 -0.4169 -0.0504  0.8499
  307MOL0     C41351   7.800   5.024   4.455  0.2886  0.3586 -0.1754
  307MOL0     C41352   7.921   5.045   4.351 -0.1431  0.2873  0.5289
  307MOL0     C41353   7.929   5.198   4.326  0.1640  0.1649 -0.1148
  307MOL0     C41354   8.032   5.280   4.410 -0.0282 -0.9162 -0.5671
  307MOL0    Cl41355   8.037   5.451   4.371 -0.2535  0.4904 -0.2331
  307MOL0     C41356   7.263   4.565   4.770  0.9291  0.1859 -0.5423
  307MOL0     C41357   7.128   4.531   4.784  0.1750  0.4492 -0.2307
  307MOL0     O41358   6.848   4.453   4.896  0.5026  0.0870  0.2261
  307MOL0     C41359   6.703   4.355   4.577 -1.1158  0.4517  0.3096
  307MOL0     C41360   6.630   4.253   4.523 -0.5977 -0.3683 -0.5609
  307MOL0     N41361   6.114   3.955   5.015  0.0181 -0.3236  0.2971
  307MOL0     N41362   6.159   4.033   5.102 -0.6667 -0.0407  0.5675
  307MOL0     C41363   7.094   4.708   5.137  0.4600 -0.7373 -0.2845
  307MOL0     C41364   7.220   4.672   5.187 -0.4216 -0.4662 -0.3187
  307MOL0     C41365   7.639   4.740   5.415  0.0108 -0.1192 -0.2802
  307MOL0     C41366   7.666   4.612   5.362 -0.0785 -0.6332 -0.0874
  307MOL0     C41367   7.806   4.573   5.378  1.1506  0.5442 -0.1626
  307MOL0     C41368   7.901   4.659   5.437 -0.8787  1.2782 -0.4193
  307MOL0     O41369   8.034   4.643   5.446 -0.0523  0.2959 -0.2373
  307MOL0     C41370   8.084   4.562   5.337  0.1244  0.1350  0.1503
  307MOL0     C41371   8.233   4.594   5.314 -0.4209 -0.1628  0.0171
  307MOL0     C41372   8.336   4.525   5.416 -0.1231  0.6383  1.1681
  307MOL0     C41373   8.484   4.572   5.410  0.1775 -0.2255  0.0576
  307MOL0     C41374   8.573   4.495   5.321 -0.4066 -0.5359 -0.4990
  307MOL0     C41375   8.653   4.428   5.261 -0.4214 -0.8214  0.1184
  307MOL0     C41376   7.860   4.771   5.498 -0.0452 -0.9384 -0.5658
  307MOL0     C41377   7.723   4.814   5.500 -0.2720  0.5534  0.6735
  307MOL0     H41378   7.237   4.894   5.455 -0.0987  2.7358 -2.0907
  307MOL0     H41379   7.007   4.930   5.379  0.6507  0.4287  0.9981
  307MOL0     H41380   6.776   4.817   5.315 -3.5192 -0.0247 -0.9401
  307MOL0     H41381   6.816   4.977   5.261  2.5614 -0.3136 -1.4218
  307MOL0     H41382   6.592   4.903   5.225 -1.9439 -2.1663 -0.4504
  307MOL0     H41383   6.658   4.936   5.058 -0.6592 -0.9119 -1.1537
  307MOL0     H41384   6.695   4.717   5.006 -0.3654  2.0202 -1.3486
  307MOL0     H41385   6.636   4.667   5.174 -0.3173  1.0404  0.6700
  307MOL0     H41386   6.409   4.748   5.124 -0.1338 -0.7024  0.4910
  307MOL0     H41387   6.469   4.811   4.971 -1.3777 -0.5429  0.5943
  307MOL0     H41388   6.371   4.605   4.907  1.6168 -0.4197 -2.1758
  307MOL0     H41389   6.525   4.539   4.933 -0.8285 -1.7216  0.5859
  307MOL0     H41390   6.463   4.480   5.171  2.4988  0.6224 -1.6115
  307MOL0     H41391   6.288   4.526   5.118  0.2634  0.5196 -1.1713
  307MOL0     H41392   6.287   4.383   4.947 -0.8287 -0.9504 -0.4736
  307MOL0     H41393   6.444   4.305   5.009  2.0420  1.6771  3.5671
  307MOL0     H41394   6.173   4.304   5.161 -0.5040 -0.6109 -0.4195
  307MOL0     H41395   6.331   4.225   5.187 -1.0600  0.1327  0.6605
  307MOL0     H41396   6.179   4.211   4.831  0.4322 -0.8013  1.1732
  307MOL0     H41397   6.032   3.850   4.783 -0.2548 -1.8984 -4.0928
  307MOL0     H41398   6.023   3.996   4.705 -0.4775  0.3620  1.4736
  307MOL0     H41399   6.209   3.798   4.633 -0.5758 -0.8201  1.0595
  307MOL0     H41400   6.282   3.837   4.774  2.3985 -4.8862 -4.2547
  307MOL0     H41401   6.322   4.080   4.703 -2.6932  2.0758 -1.3419
  307MOL0     H41402   6.250   4.041   4.549 -0.9431  2.1276  1.5322
  307MOL0     H41403   6.437   3.858   4.507 -0.2573  1.1391 -1.2700
  307MOL0     H41404   6.505   3.898   4.655 -1.1992 -0.0848  0.8493
  307MOL0     H41405   6.609   4.040   4.773  2.6705  0.0097 -0.1551
  307MOL0     H41406   6.715   4.285   5.002  3.2406  1.6185 -1.7207
  307MOL0     H41407   6.650   4.125   4.963  1.8681 -1.7838  0.3816
  307MOL0     H41408   6.827   4.165   4.962 -0.4030 -0.7803 -0.2658
  307MOL0     H41409   6.985   4.697   4.526  0.6687 -1.1144 -0.5522
  307MOL0     H41410   7.230   4.770   4.503 -1.7771 -0.1535 -1.1627
  307MOL0     H41411   7.555   4.670   4.782 -0.9370  2.3818 -0.2004
  307MOL0     H41412   7.535   4.538   4.673  0.3082  0.2176  2.3337
  307MOL0     H41413   7.755   4.666   4.648  2.6271  3.2815 -3.3708
  307MOL0     H41414   7.665   4.630   4.500 -0.9466 -0.6130  0.0958
  307MOL0     H41415   7.645   4.894   4.634 -2.1003 -1.4044  0.5826
  307MOL0     H41416   7.579   4.849   4.478 -1.6527 -2.4419  0.2392
  307MOL0     H41417   7.883   4.842   4.531 -0.9338 -0.8497  1.2767
  307MOL0     H41418   7.797   4.809   4.378  1.0148 -0.0148  0.8258
  307MOL0     H41419   7.818   5.070   4.553  2.2177 -0.8950  0.1039
  307MOL0     H41420   7.709   5.061   4.406  0.3836  1.4309  0.4333
  307MOL0     H41421   8.012   5.015   4.403  1.9432  2.9360 -1.2916
  307MOL0     H41422   7.903   4.987   4.260  0.9410 -1.7003  1.5101
  307MOL0     H41423   7.832   5.248   4.328 -0.1228 -0.3355 -0.8498
  307MOL0     H41424   7.975   5.211   4.228  1.3694 -0.9664  0.2741
  307MOL0     H41425   8.132   5.239   4.396  0.5301  0.3842 -0.5323
  307MOL0     H41426   8.009   5.269   4.517  1.9825  2.4759  0.3378
  307MOL0     H41427   7.342   4.533   4.837 -0.8201 -1.0831  1.0227
  307MOL0     H41428   7.097   4.453   4.852 -0.3447  0.5255 -0.3775
  307MOL0     H41429   6.727   4.428   4.501 -0.9637 -0.6093 -0.6988
  307MOL0     H41430   6.591   4.269   4.423  0.5162  0.2774 -0.9140
  307MOL0     H41431   7.053   4.664   5.046  0.9403 -0.2162 -0.7632
  307MOL0     H41432   7.275   4.597   5.131  3.0560  1.9982 -0.4623
  307MOL0     H41433   7.601   4.552   5.300 -0.7333  0.5445 -0.5641
  307MOL0     H41434   7.841   4.480   5.334  1.0852  0.2336  0.4287
  307MOL0     H41435   8.089   4.454   5.355  3.2263 -0.4271 -3.1302
  307MOL0     H41436   8.021   4.575   5.249 -1.3412 -2.8988  0.6057
  307MOL0     H41437   8.245   4.703   5.315 -1.0729 -0.0893  0.9584
  307MOL0     H41438   8.256   4.563   5.212 -1.9712  0.4948 -0.5607
  307MOL0     H41439   8.342   4.426   5.370 -3.4389  1.0692 -0.4650
  307MOL0     H41440   8.298   4.522   5.519  2.4939 -1.0416  2.1977
  307MOL0     H41441   8.518   4.587   5.513 -0.0273  3.2708 -0.2904
  307MOL0     H41442   8.487   4.676   5.377 -0.4965  0.2409  1.3836
  307MOL0     H41443   8.736   4.378   5.215  1.0839  0.2398  1.5790
  307MOL0     H41444   7.927   4.842   5.546 -3.2285  1.5882  0.5255
  307MOL0     H41445   7.703   4.915   5.531  0.2338  1.3229 -1.3269
  308MOL0     O41446   5.845   2.954   9.357 -0.2821  0.0985  0.5893
  308MOL0     C41447   5.827   2.877   9.257  0.2714 -0.7715  0.3950
  308MOL0     O41448   5.712   2.799   9.228 -0.3271  0.1433 -0.6357
  308MOL0     C41449   5.639   2.761   9.337 -0.3547  0.8871  0.5331
  308MOL0     C41450   5.503   2.743   9.306  0.3769 -0.0940  0.5210
  308MOL0     C41451   5.414   2.701   9.409 -0.2520 -0.0368 -0.8365
  308MOL0     C41452   5.462   2.673   9.545 -0.0284 -0.3052  1.2311
  308MOL0     O41453   5.379   2.644   9.644 -0.2306 -0.1369  0.2364
  308MOL0     C41454   5.246   2.701   9.663 -0.9758  0.4728  0.2318
  308MOL0     C41455   5.145   2.591   9.667  1.2556 -0.0591  0.7966
  308MOL0     C41456   5.148   2.508   9.802 -0.1841 -0.7175  0.3502
  308MOL0     C41457   5.044   2.565   9.908 -0.4848  0.5053 -0.4596
  308MOL0     C41458   5.046   2.486  10.040  0.7880 -0.3689  0.5233
  308MOL0     C41459   5.015   2.344  10.036 -0.4107 -0.4181 -0.1225
  308MOL0     C41460   4.993   2.276  10.177 -0.2685 -0.1248  0.6475
  308MOL0     C41461   4.988   2.126  10.170  0.0368  0.3064 -0.3820
  308MOL0     N41462   4.882   2.076  10.077 -1.0863  0.2125 -0.0189
  308MOL0     C41463   4.758   2.124  10.042  1.0663 -0.4211 -0.5223
  308MOL0     C41464   4.714   2.027   9.957 -0.8636  0.1559  0.0661
  308MOL0     C41465   4.571   2.014   9.901  0.0061  1.1399 -0.4242
  308MOL0     C41466   4.583   2.051   9.751 -0.2498  0.2445  0.1169
  308MOL0     C41467   4.582   1.921   9.661 -0.6418 -0.0664 -0.4557
  308MOL0     C41468   4.447   1.850   9.656 -0.6721  0.2078  0.5150
  308MOL0     O41469   4.354   1.913   9.573 -0.5530  0.1217  0.3366
  308MOL0     C41470   4.383   1.928   9.440  0.1885  0.3703 -0.4664
  308MOL0     C41471   4.321   2.040   9.386 -0.0550 -0.3175  0.1448
  308MOL0     C41472   4.342   2.079   9.247 -0.4262 -0.0737 -0.1844
  308MOL0     C41473   4.297   2.218   9.188  1.0538  0.2212 -0.1256
  308MOL0     C41474   4.420   1.996   9.166  0.5286  0.2378 -0.3495
  308MOL0     C41475   4.454   2.017   9.023  0.3472  0.3793 -0.6286
  308MOL0     O41476   4.439   1.906   8.942 -0.2956  0.0263 -0.0153
  308MOL0     C41477   4.513   1.925   8.825  0.2840  0.4665  0.0326
  308MOL0     C41478   4.645   1.889   8.819  0.3239 -0.6073  0.1985
  308MOL0     C41479   4.723   1.908   8.697 -0.9501 -0.2764 -0.6837
  308MOL0     C41480   4.658   1.960   8.580  0.2858 -0.8151  0.0443
  308MOL0     O41481   4.719   1.968   8.459 -0.0820 -0.5025 -0.2799
  308MOL0     C41482   4.839   1.892   8.433 -0.2557 -0.1667 -0.6753
  308MOL0     C41483   4.889   1.921   8.295 -0.1400  0.5307 -0.7060
  308MOL0     C41484   4.983   1.800   8.259  0.6693  0.0534 -0.3163
  308MOL0     C41485   5.039   1.824   8.118 -0.0377  0.2093 -1.2422
  308MOL0     C41486   5.107   1.707   8.048 -0.4625  0.5484  0.4635
  308MOL0     C41487   5.021   1.580   8.031  0.1751 -0.8049 -0.7600
  308MOL0     C41488   5.095   1.468   7.959 -0.6245  0.7296 -0.5996
  308MOL0     C41489   4.979   1.361   7.919 -0.0087 -0.1530  0.0057
  308MOL0    Cl41490   5.054   1.224   7.824 -0.6041 -0.5445 -0.2020
  308MOL0     C41491   4.524   2.000   8.593 -0.2891  0.2713 -1.5998
  308MOL0     C41492   4.449   1.985   8.718 -0.1889 -0.4200 -0.4811
  308MOL0     O41493   4.488   2.126   8.977  0.5041  0.0818  0.0046
  308MOL0     C41494   4.495   1.892   9.223  0.9648 -0.0944 -0.7511
  308MOL0     C41495   4.473   1.857   9.358 -0.3644  0.2612 -0.1200
  308MOL0     N41496   4.807   1.931   9.939 -0.5977 -0.3336 -0.2806
  308MOL0     N41497   4.909   1.961  10.011  0.3028  0.2135 -0.0280
  308MOL0     C41498   5.600   2.690   9.566  0.3024 -0.6972  0.2523
  308MOL0     C41499   5.689   2.731   9.467 -0.0422 -0.8216  0.6337
  308MOL0     C41500   5.913   2.903   9.146 -0.2224 -0.6868  0.8115
  308MOL0     C41501   6.039   2.973   9.164  0.3636 -0.6862  0.1819
  308MOL0     C41502   6.124   3.007   9.060  0.8923 -0.9615  0.1780
  308MOL0     C41503   6.090   2.978   8.930  0.4793 -0.3262  0.9231
  308MOL0     O41504   6.161   2.982   8.811  0.1692 -0.2592  0.1589
  308MOL0     C41505   6.299   3.028   8.821  0.7203  0.4372  0.4084
  308MOL0     C41506   6.343   3.085   8.687  0.2189  0.0987 -0.3428
  308MOL0     C41507   6.489   3.101   8.690  0.4865  0.1164  0.6969
  308MOL0     C41508   6.539   3.182   8.565 -0.3269  0.7066  0.7720
  308MOL0     C41509   6.542   3.082   8.451  0.3622 -0.1879 -0.1478
  308MOL0     C41510   6.528   2.998   8.363  0.3044  0.1589  0.1847
  308MOL0     C41511   5.967   2.906   8.909 -0.0041  0.4277 -0.1690
  308MOL0     C41512   5.889   2.870   9.014 -0.1379  0.0975 -0.8000
  308MOL0     H41513   5.471   2.769   9.206  1.8122  0.0850  0.0782
  308MOL0     H41514   5.308   2.693   9.390 -1.3263 -1.1219  4.1090
  308MOL0     H41515   5.244   2.750   9.762 -0.7779  2.9119 -0.8939
  308MOL0     H41516   5.223   2.773   9.584  1.1859 -1.2314 -2.1030
  308MOL0     H41517   5.046   2.636   9.648  2.2805  0.9284 -3.1413
  308MOL0     H41518   5.149   2.514   9.590 -0.5979 -0.3100  0.8872
  308MOL0     H41519   5.114   2.405   9.787 -1.9923 -0.0531 -0.4797
  308MOL0     H41520   5.252   2.509   9.833 -0.6205  4.6407  2.7065
  308MOL0     H41521   5.064   2.671   9.925 -0.1610  0.2751  0.7035
  308MOL0     H41522   4.949   2.562   9.855 -0.2757  1.4617 -0.9100
  308MOL0     H41523   5.138   2.514  10.092  0.1631  1.1624  0.8558
  308MOL0     H41524   4.971   2.536  10.102  2.1209  1.2102  0.9079
  308MOL0     H41525   4.929   2.323   9.972 -1.1533 -0.7590  0.9536
  308MOL0     H41526   5.108   2.294  10.009  0.1087  1.6643 -2.5112
  308MOL0     H41527   5.068   2.293  10.254  2.7757  2.8058 -2.5999
  308MOL0     H41528   4.897   2.317  10.211 -0.6399 -1.8030  1.7957
  308MOL0     H41529   4.955   2.088  10.267 -1.8163 -0.3968 -1.2481
  308MOL0     H41530   5.084   2.080  10.144 -0.4239  0.0799 -1.7159
  308MOL0     H41531   4.703   2.208  10.081  1.5232 -1.0351  1.5533
  308MOL0     H41532   4.532   1.913   9.912  1.3698  0.3528 -2.2924
  308MOL0     H41533   4.494   2.082   9.938 -2.1968 -1.1108 -0.5964
  308MOL0     H41534   4.679   2.101   9.734 -1.7269  3.2776  0.0893
  308MOL0     H41535   4.498   2.108   9.713  0.8323  1.9497  0.1541
  308MOL0     H41536   4.648   1.849   9.710  0.6911  0.1680 -1.8139
  308MOL0     H41537   4.617   1.946   9.560  0.0793 -0.2929 -0.2651
  308MOL0     H41538   4.400   1.839   9.755 -1.6451 -1.4138 -0.0764
  308MOL0     H41539   4.468   1.747   9.627  0.0547  0.2475  0.8844
  308MOL0     H41540   4.247   2.104   9.432  1.1724  2.5519 -1.6129
  308MOL0     H41541   4.251   2.282   9.264  0.6388  0.0104 -0.1998
  308MOL0     H41542   4.380   2.277   9.148 -0.1312  1.1778 -1.2373
  308MOL0     H41543   4.226   2.197   9.108 -1.4142 -0.2227  2.0407
  308MOL0     H41544   4.702   1.858   8.906  1.9409  2.9673  0.6093
  308MOL0     H41545   4.822   1.865   8.694 -1.3168 -1.2260  0.2632
  308MOL0     H41546   4.920   1.921   8.501 -0.1492 -1.7705 -0.0771
  308MOL0     H41547   4.817   1.786   8.446 -1.5434  0.1765  0.0640
  308MOL0     H41548   4.812   1.934   8.217 -0.3619  0.7961 -0.4489
  308MOL0     H41549   4.956   2.008   8.295  2.0754 -1.0832 -1.9802
  308MOL0     H41550   4.931   1.704   8.258  3.6603 -1.7210 -2.8044
  308MOL0     H41551   5.060   1.766   8.330  0.7081 -1.9141 -1.2371
  308MOL0     H41552   4.950   1.847   8.058 -1.8878  1.7988  1.8581
  308MOL0     H41553   5.111   1.906   8.129  1.3194 -0.7854 -2.3920
  308MOL0     H41554   5.198   1.686   8.104 -1.7854  0.0407  2.5793
  308MOL0     H41555   5.138   1.728   7.945 -0.0019  2.3766  0.9371
  308MOL0     H41556   4.978   1.537   8.122 -1.0457 -2.4243 -2.0321
  308MOL0     H41557   4.935   1.607   7.970 -0.7951  0.6190  1.1663
  308MOL0     H41558   5.161   1.430   8.038 -3.0843  0.5645  1.4723
  308MOL0     H41559   5.150   1.501   7.870  0.1857  0.1515 -0.3264
  308MOL0     H41560   4.919   1.410   7.841 -0.0619  0.4351  0.4138
  308MOL0     H41561   4.920   1.327   8.004  1.2482  1.7173  1.7104
  308MOL0     H41562   4.470   2.069   8.528 -1.4285  1.9279  0.9370
  308MOL0     H41563   4.352   2.031   8.726 -0.9485 -1.7552 -1.5813
  308MOL0     H41564   4.557   1.830   9.159 -0.8055  0.7834 -3.4878
  308MOL0     H41565   4.515   1.771   9.410  2.1704  1.8403  0.6153
  308MOL0     H41566   5.627   2.675   9.670 -0.3796  2.1068  0.9204
  308MOL0     H41567   5.795   2.754   9.478 -0.5675  3.6729 -1.3821
  308MOL0     H41568   6.067   3.019   9.258 -2.0719 -0.8147  1.0520
  308MOL0     H41569   6.216   3.060   9.082 -0.1770  0.2512  1.9417
  308MOL0     H41570   6.315   3.104   8.898 -0.5882 -1.0607  2.2433
  308MOL0     H41571   6.360   2.939   8.842 -0.2083 -0.6938 -1.4050
  308MOL0     H41572   6.299   3.185   8.676  1.1467  0.4248 -1.3245
  308MOL0     H41573   6.310   3.031   8.597 -0.5921  2.7999 -1.7866
  308MOL0     H41574   6.545   3.008   8.704  0.0162 -0.2601  0.0990
  308MOL0     H41575   6.501   3.168   8.777  0.4632 -0.0373  0.8190
  308MOL0     H41576   6.645   3.202   8.583  0.4431 -1.0614 -1.4176
  308MOL0     H41577   6.491   3.276   8.537  1.4415  0.9498 -1.7812
  308MOL0     H41578   6.498   2.920   8.296 -1.2477 -1.0436  2.1760
  308MOL0     H41579   5.941   2.882   8.806  1.3099 -0.4586 -0.3185
  308MOL0     H41580   5.800   2.812   8.991  0.2788  0.6580 -4.2533
  309MOL0     O41581   9.716   3.099   1.572  0.8035  0.6759 -0.3089
  309MOL0     C41582   9.719   3.131   1.686  0.2175  0.3267  1.5264
  309MOL0     O41583   9.819   3.100   1.768 -0.0580 -0.1923 -0.8265
  309MOL0     C41584   9.922   3.021   1.714  0.2856  0.3359 -0.2295
  309MOL0     C41585  10.018   3.066   1.630 -0.2540  0.9501  1.4079
  309MOL0     C41586  10.121   2.977   1.596  0.8922  0.2234 -0.3173
  309MOL0     C41587  10.138   2.854   1.655  0.2805  1.0318 -0.8093
  309MOL0     O41588  10.240   2.781   1.612 -0.3669 -0.2656 -0.8080
  309MOL0     C41589  10.245   2.644   1.639 -0.7727 -0.3576 -0.0129
  309MOL0     C41590  10.152   2.582   1.532  0.5565  0.2388  0.5312
  309MOL0     C41591  10.165   2.430   1.545  0.3477  0.6018 -0.0857
  309MOL0     C41592  10.049   2.372   1.460 -0.8100 -0.0722 -0.3544
  309MOL0     C41593  10.026   2.222   1.477 -0.1847 -0.4353 -0.3114
  309MOL0     C41594   9.900   2.165   1.417 -0.5517  0.3707  0.7756
  309MOL0     C41595   9.890   2.019   1.451 -0.2970  0.4201  0.1585
  309MOL0     C41596   9.773   1.938   1.374 -0.4709  0.0334  0.1123
  309MOL0     N41597   9.809   1.956   1.227 -0.6020  1.0458 -0.2638
  309MOL0     C41598   9.912   1.889   1.162 -0.2596 -0.3431  0.0766
  309MOL0     C41599   9.905   1.927   1.035  0.1542 -0.1457  0.6200
  309MOL0     C41600   9.974   1.853   0.923 -0.4359  0.6236 -0.1817
  309MOL0     C41601   9.932   1.714   0.881 -0.7319 -0.0374  0.1293
  309MOL0     C41602   9.790   1.702   0.839 -0.9655 -0.5532  0.2293
  309MOL0     C41603   9.683   1.715   0.951 -0.6414 -0.2881 -0.1271
  309MOL0     O41604   9.576   1.622   0.934  0.0011  0.5506  0.3972
  309MOL0     C41605   9.453   1.657   0.976 -0.4606 -0.2392 -0.0939
  309MOL0     C41606   9.416   1.771   1.055 -0.1630  0.4775 -0.7794
  309MOL0     C41607   9.284   1.792   1.103 -0.1966  0.1471  0.9031
  309MOL0     C41608   9.253   1.904   1.195  0.1192 -0.4126  0.9697
  309MOL0     C41609   9.185   1.705   1.070  0.1183 -0.5586 -0.0548
  309MOL0     C41610   9.047   1.730   1.102  0.0766  0.8737  0.3660
  309MOL0     O41611   9.014   1.660   1.214  0.3211  0.2735 -0.1524
  309MOL0     C41612   8.884   1.642   1.244 -0.0660  1.0081 -0.1590
  309MOL0     C41613   8.779   1.644   1.148 -0.6295  0.0435 -0.2313
  309MOL0     C41614   8.646   1.614   1.186 -0.4580 -0.5241 -0.1413
  309MOL0     C41615   8.614   1.598   1.317 -0.1610  0.1984  0.8232
  309MOL0     O41616   8.483   1.578   1.364  0.2520  0.6194  0.2409
  309MOL0     C41617   8.466   1.445   1.415  0.3075 -1.0225  0.0656
  309MOL0     C41618   8.335   1.392   1.378 -0.5698 -0.8758  0.0281
  309MOL0     C41619   8.204   1.490   1.414 -0.9150  0.2800  0.5426
  309MOL0     C41620   8.069   1.417   1.376  0.4971 -0.2453 -0.0405
  309MOL0     C41621   7.966   1.519   1.409  0.3611 -0.5675  0.1542
  309MOL0     C41622   7.929   1.509   1.556  0.3109  0.9553  0.3196
  309MOL0     C41623   7.803   1.595   1.583  0.0018 -0.0236  0.4494
  309MOL0     C41624   7.687   1.571   1.491 -0.3097 -0.3198  0.0308
  309MOL0    Cl41625   7.544   1.641   1.560  0.4863  0.1826 -0.1808
  309MOL0     C41626   8.717   1.609   1.414 -0.4552  0.5433 -0.0429
  309MOL0     C41627   8.853   1.618   1.375  0.0102 -0.3722  0.4019
  309MOL0     O41628   8.979   1.807   1.033 -0.9106  0.1018 -0.0069
  309MOL0     C41629   9.217   1.593   0.991 -0.5083  0.0493 -0.2817
  309MOL0     C41630   9.350   1.572   0.947  0.0335  0.1754  0.2244
  309MOL0     N41631   9.808   2.018   1.021 -0.8077 -0.1858  0.2282
  309MOL0     N41632   9.747   2.031   1.134 -0.7144  0.2417 -0.1665
  309MOL0     C41633  10.038   2.812   1.748 -0.0664 -0.4245  0.0430
  309MOL0     C41634   9.935   2.900   1.778 -0.2496  0.4648  0.3871
  309MOL0     C41635   9.614   3.234   1.732 -0.2165 -0.1556 -0.2896
  309MOL0     C41636   9.625   3.294   1.855  0.7355  0.5935  0.7564
  309MOL0     C41637   9.528   3.376   1.909 -0.1968  0.0964  0.8025
  309MOL0     C41638   9.399   3.380   1.851  0.0258  0.6468  1.1143
  309MOL0     O41639   9.289   3.447   1.908  0.1480  0.5291 -0.2631
  309MOL0     C41640   9.295   3.475   2.050  0.6517 -0.0169  0.1273
  309MOL0     C41641   9.143   3.501   2.074  0.5978  0.7314 -0.6547
  309MOL0     C41642   9.052   3.386   2.029  0.7783 -0.4163 -0.4006
  309MOL0     C41643   9.096   3.247   2.066  0.0421  0.4876 -0.1075
  309MOL0     C41644   9.112   3.234   2.210  0.3139  0.0859 -0.2628
  309MOL0     C41645   9.122   3.238   2.330  0.1813  0.2713 -0.4145
  309MOL0     C41646   9.386   3.316   1.717  0.2173  0.0847  0.5875
  309MOL0     C41647   9.489   3.247   1.661 -0.2678  0.5866  0.1698
  309MOL0     H41648  10.016   3.167   1.590 -2.1065  0.3478 -0.1498
  309MOL0     H41649  10.199   3.008   1.527  3.2835 -1.6497  1.3518
  309MOL0     H41650  10.344   2.601   1.625 -1.3130 -1.3297 -1.1290
  309MOL0     H41651  10.210   2.624   1.741 -1.0079  0.2602  0.0300
  309MOL0     H41652  10.047   2.609   1.547  0.1473  2.3637 -4.3916
  309MOL0     H41653  10.184   2.616   1.433  1.7611 -0.5990  0.6098
  309MOL0     H41654  10.266   2.394   1.522  1.0128  1.2440  1.6266
  309MOL0     H41655  10.152   2.416   1.652 -2.2071 -0.2029 -0.4462
  309MOL0     H41656   9.961   2.427   1.494 -0.0706 -0.2486  2.0398
  309MOL0     H41657  10.056   2.388   1.353  0.5580  2.5836  0.0470
  309MOL0     H41658  10.114   2.170   1.438  1.4050  0.5114  1.8220
  309MOL0     H41659  10.030   2.204   1.585 -0.7785  1.2013  0.0026
  309MOL0     H41660   9.806   2.217   1.439 -2.3835 -2.7087  0.8215
  309MOL0     H41661   9.905   2.168   1.308 -2.4426 -0.3642  0.6245
  309MOL0     H41662   9.981   1.962   1.430 -2.5837 -2.8447 -1.8928
  309MOL0     H41663   9.868   1.996   1.556  0.0950 -2.0358 -0.2345
  309MOL0     H41664   9.673   1.982   1.385 -0.7691  0.3477 -2.9405
  309MOL0     H41665   9.770   1.835   1.412 -0.0529  0.5507  1.5982
  309MOL0     H41666   9.960   1.812   1.222  1.1760  0.3029 -0.1818
  309MOL0     H41667   9.977   1.909   0.829 -2.3208 -0.7625 -1.1494
  309MOL0     H41668  10.082   1.848   0.935 -0.6451  0.3313  1.9593
  309MOL0     H41669   9.961   1.642   0.959  0.1618  0.5634  0.3721
  309MOL0     H41670  10.005   1.677   0.808  2.2396 -1.0308  3.2585
  309MOL0     H41671   9.796   1.599   0.803  0.7977  0.4084 -2.5517
  309MOL0     H41672   9.763   1.774   0.761 -1.9004  1.1013  2.0026
  309MOL0     H41673   9.661   1.822   0.961  3.4632  0.5009  3.2756
  309MOL0     H41674   9.731   1.692   1.046  0.0918  0.3281 -0.3330
  309MOL0     H41675   9.499   1.837   1.079  1.6357 -1.2189 -2.0194
  309MOL0     H41676   9.342   1.959   1.226 -0.0190 -0.6344  1.8027
  309MOL0     H41677   9.172   1.963   1.152 -0.7847 -0.3258  2.7174
  309MOL0     H41678   9.217   1.851   1.283 -0.7894 -3.1892 -0.9327
  309MOL0     H41679   8.796   1.674   1.045  1.3938  1.7478  0.5148
  309MOL0     H41680   8.567   1.628   1.114  0.0698  1.7343 -0.3704
  309MOL0     H41681   8.551   1.385   1.382  2.6071  2.9773 -2.0992
  309MOL0     H41682   8.473   1.458   1.524  1.6412  1.4918 -0.2449
  309MOL0     H41683   8.333   1.369   1.271  0.7609 -0.6193 -0.0712
  309MOL0     H41684   8.320   1.298   1.431  0.7238 -1.2069 -0.1602
  309MOL0     H41685   8.209   1.582   1.354 -1.5003  1.9588  2.9258
  309MOL0     H41686   8.223   1.525   1.515 -1.8692  3.6822 -0.3207
  309MOL0     H41687   8.079   1.379   1.274  0.0716 -2.0324  0.5438
  309MOL0     H41688   8.054   1.324   1.432  5.2411 -1.4364 -0.2896
  309MOL0     H41689   7.879   1.496   1.346  0.6285 -0.0356 -0.4301
  309MOL0     H41690   7.997   1.619   1.376 -2.5269 -0.0938 -1.4574
  309MOL0     H41691   7.898   1.408   1.585 -0.2016  1.0777  0.2190
  309MOL0     H41692   8.011   1.528   1.625 -0.4087  0.0459  1.4599
  309MOL0     H41693   7.831   1.701   1.581 -2.3949  0.6801 -1.7977
  309MOL0     H41694   7.774   1.568   1.685 -0.4058  1.0361  0.6343
  309MOL0     H41695   7.677   1.464   1.469  0.0849 -0.1913 -0.8376
  309MOL0     H41696   7.709   1.614   1.392  0.4353 -1.2730 -0.2294
  309MOL0     H41697   8.678   1.594   1.514 -0.2305  0.5949  0.0530
  309MOL0     H41698   8.942   1.629   1.436  2.1160 -1.1901 -2.2884
  309MOL0     H41699   9.145   1.516   0.965 -1.6130  0.6623  0.9010
  309MOL0     H41700   9.378   1.484   0.889 -3.7893  0.2089 -2.0154
  309MOL0     H41701  10.044   2.723   1.810  1.5245 -0.0999  0.3990
  309MOL0     H41702   9.860   2.886   1.855 -0.4139  0.6774  0.2688
  309MOL0     H41703   9.718   3.295   1.911  0.8642  3.0769  0.6347
  309MOL0     H41704   9.545   3.421   2.006  0.5429  5.2163 -1.3421
  309MOL0     H41705   9.327   3.394   2.115  1.7771  0.6897  0.4937
  309MOL0     H41706   9.346   3.567   2.080 -3.3378  2.3433  0.4136
  309MOL0     H41707   9.114   3.592   2.020  1.7582  0.9122 -1.0153
  309MOL0     H41708   9.126   3.525   2.179 -0.4314  1.7700 -1.0355
  309MOL0     H41709   9.032   3.391   1.921 -1.6257 -1.9170 -0.0863
  309MOL0     H41710   8.952   3.402   2.068  0.0464  0.6159 -2.5089
  309MOL0     H41711   9.196   3.222   2.032  1.5919  0.2836  3.9868
  309MOL0     H41712   9.034   3.173   2.014 -2.7298  2.2364  0.4675
  309MOL0     H41713   9.139   3.221   2.435 -0.2910  2.3667  0.0470
  309MOL0     H41714   9.288   3.330   1.672 -1.6833 -2.2527  3.5614
  309MOL0     H41715   9.470   3.195   1.568 -0.9103  2.4401 -0.7846
  310MOL0     O41716  10.537   0.382   4.275  0.0082  0.1564  0.2673
  310MOL0     C41717  10.621   0.295   4.243  0.9106 -0.4185 -0.3486
  310MOL0     O41718  10.598   0.165   4.232 -0.4723  0.9413 -0.0888
  310MOL0     C41719  10.469   0.128   4.250 -0.3788 -0.2014 -0.0861
  310MOL0     C41720  10.431   0.098   4.381  0.5997 -0.8249  0.6520
  310MOL0     C41721  10.297   0.057   4.398  0.0347  0.3548  0.1232
  310MOL0     C41722  10.202   0.045   4.289 -0.6509 -0.5443  0.8629
  310MOL0     O41723  10.066   0.023   4.306  0.0515  0.5280  0.1338
  310MOL0     C41724  10.010  -0.038   4.425 -0.2357  0.4154  0.0593
  310MOL0     C41725   9.869  -0.103   4.391  0.5699 -0.5794 -0.2257
  310MOL0     C41726   9.789  -0.134   4.519 -0.4344 -0.2630 -0.1981
  310MOL0     C41727   9.635  -0.135   4.489 -0.2705  0.9799 -0.4375
  310MOL0     C41728   9.542  -0.207   4.596  0.4833 -0.4109  0.4173
  310MOL0     C41729   9.395  -0.192   4.568  0.5191  0.0777 -0.4687
  310MOL0     C41730   9.317  -0.228   4.697  0.0645  0.4412  0.7982
  310MOL0     C41731   9.176  -0.167   4.690  0.1685  0.6636 -0.2507
  310MOL0     N41732   9.091  -0.232   4.783 -0.2306  0.2431 -0.0173
  310MOL0     C41733   8.982  -0.311   4.771  0.0269 -1.2013  0.3624
  310MOL0     C41734   8.930  -0.315   4.897 -0.8541  0.1141 -0.2544
  310MOL0     C41735   8.811  -0.393   4.943  0.0921  1.0461 -0.5413
  310MOL0     C41736   8.712  -0.306   5.018  0.0132  0.1497 -0.2395
  310MOL0     C41737   8.600  -0.401   5.057 -0.7315  0.4332 -0.0430
  310MOL0     C41738   8.475  -0.327   5.097  0.1132  1.2328 -0.2493
  310MOL0     O41739   8.361  -0.412   5.092 -0.2323  0.4923 -0.1582
  310MOL0     C41740   8.238  -0.359   5.124  0.1322 -0.8683 -0.0761
  310MOL0     C41741   8.135  -0.452   5.147  0.6641  0.3684 -0.1281
  310MOL0     C41742   8.008  -0.414   5.195  0.3740  0.1827  0.8297
  310MOL0     C41743   7.906  -0.526   5.223  0.4011 -0.3015  0.0573
  310MOL0     C41744   7.987  -0.278   5.231  0.6887  0.3459  0.2023
  310MOL0     C41745   7.850  -0.222   5.249 -0.0059 -1.0373  0.6765
  310MOL0     O41746   7.757  -0.302   5.298  0.2306  0.0018 -0.2127
  310MOL0     C41747   7.630  -0.247   5.314 -0.1765  0.1200  0.2195
  310MOL0     C41748   7.512  -0.303   5.256 -0.3949 -0.7239 -0.1992
  310MOL0     C41749   7.389  -0.255   5.288 -0.7835 -0.3193 -0.1401
  310MOL0     C41750   7.374  -0.145   5.367  0.4929 -0.2592 -0.4202
  310MOL0     O41751   7.250  -0.096   5.401  0.1555  0.3452  0.4727
  310MOL0     C41752   7.132  -0.155   5.345  0.2806 -0.2700 -0.0805
  310MOL0     C41753   7.026  -0.122   5.457 -0.4654 -0.4452  0.1004
  310MOL0     C41754   6.881  -0.143   5.407  0.1524 -0.2992 -0.0851
  310MOL0     C41755   6.782  -0.083   5.500  0.2707 -1.1255 -1.0986
  310MOL0     C41756   6.623  -0.103   5.469 -0.1823 -0.4391 -0.3025
  310MOL0     C41757   6.548  -0.053   5.598 -0.2002  0.1136  0.9713
  310MOL0     C41758   6.394  -0.064   5.552 -0.9044 -0.0678  0.9905
  310MOL0     C41759   6.306   0.031   5.626  0.2680  0.1839 -0.2396
  310MOL0    Cl41760   6.143   0.029   5.555  0.5792 -0.2219  0.7249
  310MOL0     C41761   7.487  -0.085   5.428 -0.4982  0.1766  0.0289
  310MOL0     C41762   7.614  -0.132   5.392 -0.0981 -0.0639  0.1532
  310MOL0     O41763   7.829  -0.106   5.217 -0.5554  0.5119  0.2872
  310MOL0     C41764   8.097  -0.186   5.210  0.6451 -0.6180 -0.3856
  310MOL0     C41765   8.214  -0.229   5.153 -0.0001 -1.0152  0.0461
  310MOL0     N41766   9.006  -0.242   4.981 -0.8485  0.3821 -0.2937
  310MOL0     N41767   9.102  -0.201   4.914 -1.0974 -0.1061 -0.2871
  310MOL0     C41768  10.256   0.066   4.161  1.0687  0.7996 -1.2715
  310MOL0     C41769  10.387   0.098   4.142  0.4820  0.3052  0.4273
  310MOL0     C41770  10.760   0.340   4.241 -0.3934 -0.2748  0.0223
  310MOL0     C41771  10.794   0.477   4.255  0.1708 -0.6578 -0.2564
  310MOL0     C41772  10.927   0.524   4.256  0.0117 -0.3374  0.1054
  310MOL0     C41773  11.032   0.430   4.232  0.5727  0.5250  0.1783
  310MOL0     O41774  11.162   0.459   4.206  0.6296  0.0937 -0.2695
  310MOL0     C41775  11.213   0.582   4.242 -0.2555  0.5191 -0.0168
  310MOL0     C41776  11.364   0.595   4.214 -0.0444  0.1241 -0.5031
  310MOL0     C41777  11.442   0.478   4.270 -0.4163  0.2522 -0.2639
  310MOL0     C41778  11.587   0.510   4.248  0.1428  0.8324 -0.3787
  310MOL0     C41779  11.677   0.415   4.317 -1.0373  0.0857  0.8789
  310MOL0     C41780  11.762   0.358   4.381  0.1418 -0.3217  0.0011
  310MOL0     C41781  10.995   0.298   4.206  0.1815 -0.0692  0.0798
  310MOL0     C41782  10.863   0.254   4.193  0.1106  0.2741 -0.3494
  310MOL0     H41783  10.488   0.107   4.473 -0.1086 -0.8594  1.1105
  310MOL0     H41784  10.264   0.043   4.501 -0.7014  0.4740 -0.0946
  310MOL0     H41785  10.067  -0.121   4.467 -0.0750  2.0345  3.3721
  310MOL0     H41786   9.999   0.028   4.511 -1.6587  0.2000  0.0578
  310MOL0     H41787   9.819  -0.024   4.336  0.4936  1.6707  2.8176
  310MOL0     H41788   9.882  -0.188   4.323 -2.8128 -0.6457 -0.9456
  310MOL0     H41789   9.823  -0.227   4.566 -4.0424 -1.2587  0.7618
  310MOL0     H41790   9.812  -0.051   4.586  1.4174 -1.8221  1.2236
  310MOL0     H41791   9.600  -0.031   4.490 -3.4837  0.0457  2.6843
  310MOL0     H41792   9.622  -0.185   4.393 -0.9988  0.1232  0.1006
  310MOL0     H41793   9.572  -0.312   4.604  3.3268  0.2190 -0.6639
  310MOL0     H41794   9.557  -0.168   4.697 -0.2384  0.4987  0.1928
  310MOL0     H41795   9.371  -0.087   4.545 -2.3824 -0.6409 -1.0228
  310MOL0     H41796   9.363  -0.250   4.482 -3.3081  0.4073  0.5502
  310MOL0     H41797   9.311  -0.337   4.703 -1.5548  0.4822  0.3996
  310MOL0     H41798   9.363  -0.192   4.790 -0.0086 -0.8362  1.3464
  310MOL0     H41799   9.135  -0.179   4.589 -2.4755 -1.5897  0.9618
  310MOL0     H41800   9.190  -0.061   4.712 -0.4091  0.3541  1.7802
  310MOL0     H41801   8.941  -0.358   4.682  0.2495 -2.0777  0.7116
  310MOL0     H41802   8.749  -0.417   4.856 -4.0127  0.4974  2.2357
  310MOL0     H41803   8.829  -0.488   4.996 -2.0200 -1.7124 -4.2546
  310MOL0     H41804   8.678  -0.220   4.960 -0.2683 -0.9626 -1.8085
  310MOL0     H41805   8.760  -0.263   5.107  2.8236  0.6291 -1.8809
  310MOL0     H41806   8.632  -0.458   5.144 -1.4355  0.8992  0.5347
  310MOL0     H41807   8.577  -0.474   4.979 -1.4767 -0.1881  0.7316
  310MOL0     H41808   8.466  -0.250   5.020  4.0006  0.8924 -1.2446
  310MOL0     H41809   8.489  -0.278   5.194 -0.5397 -0.8568  0.9739
  310MOL0     H41810   8.155  -0.556   5.126 -1.4047 -0.0836 -0.1428
  310MOL0     H41811   7.886  -0.547   5.329 -1.8901 -1.4086 -0.5131
  310MOL0     H41812   7.811  -0.508   5.170  0.2974  0.1045  0.3740
  310MOL0     H41813   7.941  -0.624   5.188  1.3405 -0.4259  1.2654
  310MOL0     H41814   7.539  -0.392   5.199  0.4392 -0.0434 -0.9106
  310MOL0     H41815   7.302  -0.311   5.254 -1.4245  1.3736 -1.5074
  310MOL0     H41816   7.105  -0.110   5.249 -2.4666 -0.5517  0.4732
  310MOL0     H41817   7.131  -0.264   5.338 -3.1996 -0.7221  3.6916
  310MOL0     H41818   7.047  -0.183   5.545 -0.9947 -1.9139 -0.7507
  310MOL0     H41819   7.039  -0.015   5.479  2.9685 -0.9059  0.9473
  310MOL0     H41820   6.862  -0.249   5.384 -2.8860  0.4357 -1.4413
  310MOL0     H41821   6.869  -0.087   5.314 -2.1850  1.1063  0.9761
  310MOL0     H41822   6.805  -0.123   5.599  4.1111  2.0714 -0.4452
  310MOL0     H41823   6.798   0.026   5.500 -0.2756 -1.0237  0.2523
  310MOL0     H41824   6.589  -0.202   5.439 -2.0369 -0.8026  2.6040
  310MOL0     H41825   6.603  -0.034   5.387  2.1679  0.5904 -0.0739
  310MOL0     H41826   6.569  -0.124   5.679 -0.8616 -1.4084 -0.1415
  310MOL0     H41827   6.589   0.045   5.621  0.9711  0.6074 -2.6743
  310MOL0     H41828   6.354  -0.165   5.571 -1.1371 -0.2162 -0.2032
  310MOL0     H41829   6.391  -0.036   5.446 -0.6387  0.3574  1.0965
  310MOL0     H41830   6.355   0.129   5.621  0.6329  0.0132 -0.0223
  310MOL0     H41831   6.300  -0.001   5.730  1.1021 -2.3081 -0.9003
  310MOL0     H41832   7.485  -0.011   5.507 -0.1673  1.9691 -1.5833
  310MOL0     H41833   7.701  -0.094   5.446 -0.6413  0.5824  0.5947
  310MOL0     H41834   8.083  -0.079   5.222  1.6101 -0.2982 -1.8697
  310MOL0     H41835   8.299  -0.163   5.139  0.2188 -0.1273  4.1676
  310MOL0     H41836  10.186   0.047   4.080 -0.3890 -0.1710  0.1441
  310MOL0     H41837  10.423   0.115   4.041 -0.1890  0.3358  0.1853
  310MOL0     H41838  10.726   0.558   4.280  0.2786  0.5723 -3.4545
  310MOL0     H41839  10.945   0.628   4.280 -1.5132 -0.0977  0.2919
  310MOL0     H41840  11.163   0.672   4.203 -0.0540 -0.0078 -1.5683
  310MOL0     H41841  11.206   0.589   4.351 -1.3875 -0.3032 -0.0209
  310MOL0     H41842  11.399   0.681   4.271  2.5409  0.0092 -1.7892
  310MOL0     H41843  11.398   0.607   4.111  1.5300  1.6138  0.1461
  310MOL0     H41844  11.414   0.385   4.220 -0.2129 -0.5572  1.0691
  310MOL0     H41845  11.433   0.459   4.377  2.2463 -1.9271 -0.3062
  310MOL0     H41846  11.595   0.613   4.284 -1.5253  1.0782 -0.6338
  310MOL0     H41847  11.604   0.510   4.140  3.2883 -0.3463  0.0139
  310MOL0     H41848  11.830   0.314   4.452 -2.4646 -2.2064  1.5085
  310MOL0     H41849  11.073   0.229   4.174  0.0002  0.0887 -0.7148
  310MOL0     H41850  10.832   0.152   4.173 -3.3986  0.9608  0.9618
  311MOL0     O41851   9.517   3.126  10.410 -0.4674 -0.1398  0.4849
  311MOL0     C41852   9.540   3.032  10.486 -0.5202 -1.1320 -0.5033
  311MOL0     O41853   9.456   2.934  10.531  0.5175 -0.1773 -0.3794
  311MOL0     C41854   9.316   2.944  10.547  0.1448 -0.0224  0.1130
  311MOL0     C41855   9.235   2.827  10.552 -0.4930 -0.2337  0.6840
  311MOL0     C41856   9.107   2.828  10.596  0.2762 -1.5553  0.2368
  311MOL0     C41857   9.054   2.953  10.647  0.8510 -1.0975  0.9301
  311MOL0     O41858   8.930   2.948  10.707  0.8942 -0.1958  0.6470
  311MOL0     C41859   8.824   2.941  10.617  0.4871  1.2912  0.0441
  311MOL0     C41860   8.733   2.831  10.670 -0.3073 -0.3507  0.0811
  311MOL0     C41861   8.584   2.840  10.614 -0.2009  0.5786 -0.3480
  311MOL0     C41862   8.503   2.743  10.705  0.3160  0.4744  0.7849
  311MOL0     C41863   8.352   2.763  10.708  0.6984 -0.6101  0.4738
  311MOL0     C41864   8.297   2.808  10.563  0.3298  0.3291  0.1775
  311MOL0     C41865   8.143   2.815  10.556  0.2985  0.4114  0.5501
  311MOL0     C41866   8.109   2.853  10.413  0.0101  0.1152  0.0736
  311MOL0     N41867   7.966   2.847  10.412 -0.5985  0.7597 -0.3814
  311MOL0     C41868   7.902   2.729  10.425  0.3489 -0.3623  0.8054
  311MOL0     C41869   7.769   2.761  10.413  0.2687  0.3814 -0.4697
  311MOL0     C41870   7.644   2.674  10.446  0.3462 -0.1092 -0.0302
  311MOL0     C41871   7.643   2.550  10.363 -0.4294 -0.2809 -0.5622
  311MOL0     C41872   7.550   2.448  10.428  0.2053  0.0372 -0.0133
  311MOL0     C41873   7.400   2.499  10.432 -0.5707  0.3280 -0.5125
  311MOL0     O41874   7.319   2.421  10.506  0.2073 -0.5422 -0.0243
  311MOL0     C41875   7.191   2.456  10.487  0.5327  0.8988  0.2336
  311MOL0     C41876   7.105   2.358  10.548 -0.0444 -0.1934  0.1964
  311MOL0     C41877   6.967   2.385  10.553  0.6528  0.0900 -0.2082
  311MOL0     C41878   6.881   2.293  10.638 -0.3046  0.2732  0.1723
  311MOL0     C41879   6.906   2.495  10.484 -0.0522  0.4376 -0.7357
  311MOL0     C41880   6.762   2.516  10.481 -0.9383 -0.1511  0.6691
  311MOL0     O41881   6.709   2.632  10.531 -0.2581  0.1794  0.0679
  311MOL0     C41882   6.573   2.635  10.543  0.2335  0.3288  0.6353
  311MOL0     C41883   6.500   2.628  10.424  0.0192  0.0190 -0.0306
  311MOL0     C41884   6.359   2.616  10.433  0.0656  0.3171  0.2890
  311MOL0     C41885   6.296   2.647  10.557  0.4755  0.2073  0.0383
  311MOL0     O41886   6.160   2.677  10.573  0.0992  0.3591  0.9506
  311MOL0     C41887   6.073   2.678  10.455 -0.2939 -0.3232  0.2039
  311MOL0     C41888   5.939   2.717  10.497  0.0483  0.2809  0.8843
  311MOL0     C41889   5.869   2.610  10.593 -0.3632 -0.1977 -0.2047
  311MOL0     C41890   5.728   2.658  10.628  0.5286  0.8319 -0.9598
  311MOL0     C41891   5.660   2.547  10.713 -0.2534  0.2927 -0.1280
  311MOL0     C41892   5.522   2.590  10.730  0.3443  0.0297  0.1083
  311MOL0     C41893   5.447   2.481  10.817 -0.6411 -0.2669  0.1062
  311MOL0     C41894   5.301   2.526  10.826  0.3178 -0.0677 -0.1637
  311MOL0    Cl41895   5.262   2.637  10.962  0.3103  0.1926 -0.3621
  311MOL0     C41896   6.374   2.668  10.671 -0.7540 -0.0198 -0.3677
  311MOL0     C41897   6.509   2.654  10.669 -0.5643 -0.3951  0.2154
  311MOL0     O41898   6.700   2.428  10.425 -0.2536  0.3591  0.0305
  311MOL0     C41899   6.994   2.588  10.438 -0.8538  0.7908 -0.7180
  311MOL0     C41900   7.132   2.570  10.434  0.2422 -0.4037  0.6756
  311MOL0     N41901   7.763   2.901  10.413 -0.4078 -0.3079  0.1587
  311MOL0     N41902   7.884   2.952  10.411  0.5425  0.5704  0.4213
  311MOL0     C41903   9.128   3.073  10.623 -0.7439 -0.1883 -0.9216
  311MOL0     C41904   9.260   3.066  10.571 -0.2145 -0.6288  0.1811
  311MOL0     C41905   9.688   3.011  10.511  0.3285  0.0053 -0.4013
  311MOL0     C41906   9.725   2.905  10.597  1.1248 -0.5664 -0.1973
  311MOL0     C41907   9.859   2.875  10.606 -0.1015  0.3505 -0.9108
  311MOL0     C41908   9.961   2.961  10.577 -0.3929  0.6634  0.0267
  311MOL0     O41909  10.093   2.928  10.614 -0.0650  0.2784 -0.4996
  311MOL0     C41910  10.183   3.033  10.637 -0.1345  0.0822 -0.4867
  311MOL0     C41911  10.192   3.077  10.783  0.6285  0.3367  1.0844
  311MOL0     C41912  10.193   2.949  10.874  0.6614  0.3072  0.3241
  311MOL0     C41913  10.187   2.975  11.029 -0.4825 -0.0917  1.0458
  311MOL0     C41914  10.081   3.068  11.065  0.1540 -0.9450 -0.2320
  311MOL0     C41915   9.991   3.146  11.101 -0.8133 -0.4688 -0.3926
  311MOL0     C41916   9.928   3.066  10.496  0.2820 -0.8839 -0.3079
  311MOL0     C41917   9.792   3.087  10.462 -0.3515 -0.6320  0.2616
  311MOL0     H41918   9.300   2.741  10.544  0.0246  0.0543  1.5660
  311MOL0     H41919   9.046   2.739  10.605 -1.0519 -0.7896 -0.8129
  311MOL0     H41920   8.773   3.038  10.615 -3.5667 -0.6350 -1.2104
  311MOL0     H41921   8.851   2.909  10.516  1.8222 -0.1880  0.8290
  311MOL0     H41922   8.783   2.737  10.644 -0.7915 -0.7822  0.6897
  311MOL0     H41923   8.729   2.841  10.778 -0.0029  1.2651 -0.0413
  311MOL0     H41924   8.544   2.940  10.632  2.5392  1.1182  4.6437
  311MOL0     H41925   8.588   2.809  10.509  2.6796 -0.2575 -0.0753
  311MOL0     H41926   8.526   2.638  10.683 -0.3951  0.4755  0.0211
  311MOL0     H41927   8.531   2.754  10.810  0.6617  1.4178  0.5990
  311MOL0     H41928   8.310   2.671  10.751  2.2101 -2.0203 -0.8822
  311MOL0     H41929   8.316   2.836  10.781 -1.6415 -1.6992  0.5114
  311MOL0     H41930   8.337   2.904  10.527  2.1305 -0.9237 -1.3210
  311MOL0     H41931   8.320   2.733  10.487 -0.5522 -2.1009  2.1614
  311MOL0     H41932   8.108   2.717  10.589  0.1109  0.0863 -0.5663
  311MOL0     H41933   8.109   2.891  10.627 -0.6596  0.7225 -0.2141
  311MOL0     H41934   8.155   2.779  10.348  0.0696  0.9177 -0.8202
  311MOL0     H41935   8.146   2.951  10.380  0.6346 -0.4224 -0.8417
  311MOL0     H41936   7.936   2.629  10.449  0.7981 -0.9480 -1.9461
  311MOL0     H41937   7.635   2.657  10.553 -3.0686 -0.5460 -0.2832
  311MOL0     H41938   7.556   2.734  10.419 -0.1986  0.3269  2.4529
  311MOL0     H41939   7.748   2.522  10.349  0.1573  1.8832 -0.8321
  311MOL0     H41940   7.602   2.589  10.270  1.3710 -0.3800 -1.4330
  311MOL0     H41941   7.592   2.423  10.526 -0.6633 -1.7252 -0.0449
  311MOL0     H41942   7.547   2.360  10.363  1.0219  0.8693 -1.2181
  311MOL0     H41943   7.365   2.517  10.330  2.7655  0.6555 -1.7032
  311MOL0     H41944   7.410   2.596  10.480 -0.6191  0.4823 -0.8124
  311MOL0     H41945   7.142   2.262  10.583 -0.3789 -0.5188 -0.3259
  311MOL0     H41946   6.843   2.207  10.583  0.3781  1.1979 -1.8443
  311MOL0     H41947   6.937   2.253  10.723 -2.7539  0.5027  2.0120
  311MOL0     H41948   6.790   2.343  10.672 -0.8746  0.2237 -1.2152
  311MOL0     H41949   6.554   2.624  10.330  2.0563  0.5712  1.0762
  311MOL0     H41950   6.292   2.610  10.347  1.0922  0.4389 -0.5372
  311MOL0     H41951   6.112   2.759  10.393  1.9067  0.0571  1.9409
  311MOL0     H41952   6.084   2.581  10.406  2.8947 -0.4691  0.9826
  311MOL0     H41953   5.934   2.810  10.553 -1.1002  0.3325  0.7261
  311MOL0     H41954   5.879   2.714  10.406  3.5991  1.0040 -1.6898
  311MOL0     H41955   5.929   2.593  10.683 -0.3202  1.7820  0.1807
  311MOL0     H41956   5.858   2.517  10.536 -1.7668 -0.5823  0.6534
  311MOL0     H41957   5.732   2.749  10.687 -0.0737 -1.1760  2.4671
  311MOL0     H41958   5.670   2.676  10.537  0.8941  1.3868 -1.0866
  311MOL0     H41959   5.708   2.537  10.811  0.2608  0.5529 -0.3495
  311MOL0     H41960   5.659   2.445  10.673 -0.0186  0.3331 -0.2419
  311MOL0     H41961   5.516   2.690  10.774  2.8820 -0.3229  1.4520
  311MOL0     H41962   5.472   2.592  10.633  0.3017 -1.2687  0.0788
  311MOL0     H41963   5.495   2.466  10.915 -0.5977  2.9659  0.7141
  311MOL0     H41964   5.468   2.386  10.767  2.3114 -0.3144  1.1819
  311MOL0     H41965   5.240   2.437  10.846  1.0208 -0.3479  0.8152
  311MOL0     H41966   5.281   2.578  10.732  0.5688  2.8953  1.2979
  311MOL0     H41967   6.318   2.698  10.759 -0.0635  1.4481 -0.3869
  311MOL0     H41968   6.566   2.681  10.758  1.1118 -0.0272 -0.9172
  311MOL0     H41969   6.951   2.682  10.406  2.1850  3.4706  2.2629
  311MOL0     H41970   7.191   2.656  10.403 -0.3758  0.0192  0.6399
  311MOL0     H41971   9.092   3.170  10.656  2.7485  0.2963  2.0796
  311MOL0     H41972   9.301   3.165  10.553  1.6502 -1.2093  0.9822
  311MOL0     H41973   9.651   2.843  10.645 -0.0266  0.1920 -0.9311
  311MOL0     H41974   9.888   2.790  10.667  0.6806  0.3519 -1.2681
  311MOL0     H41975  10.280   3.016  10.590 -0.7539 -0.8434 -1.4756
  311MOL0     H41976  10.146   3.124  10.589 -1.3214  0.1100  0.4221
  311MOL0     H41977  10.102   3.135  10.800  0.0203  0.3129 -1.5409
  311MOL0     H41978  10.286   3.129  10.803  2.8141 -3.3029  1.3794
  311MOL0     H41979  10.287   2.896  10.852  2.2990  2.4836  1.6838
  311MOL0     H41980  10.108   2.884  10.853 -0.0075  0.5805  2.0020
  311MOL0     H41981  10.285   3.008  11.066  1.3229 -1.4394 -2.0766
  311MOL0     H41982  10.169   2.877  11.075  0.1100 -0.7256 -0.0280
  311MOL0     H41983   9.900   3.197  11.123  0.3033  1.4581  0.0103
  311MOL0     H41984  10.000   3.130  10.447  0.2862  0.5902  1.4937
  311MOL0     H41985   9.781   3.184  10.413  2.7339 -0.0663  0.4417
  312MOL0     O41986   6.451   0.060  10.241  0.4147  0.1013  0.1879
  312MOL0     C41987   6.465   0.183  10.256 -0.2997  0.7545 -0.6510
  312MOL0     O41988   6.365   0.281  10.238 -0.2587 -0.1709 -0.1156
  312MOL0     C41989   6.233   0.253  10.201  0.1123 -0.8052 -0.7237
  312MOL0     C41990   6.162   0.131  10.200 -0.0971 -0.0751  0.0237
  312MOL0     C41991   6.024   0.116  10.180 -0.6878  0.0416 -0.6852
  312MOL0     C41992   5.949   0.232  10.157 -0.3838  0.1297 -0.2305
  312MOL0     O41993   5.817   0.216  10.146  0.0954  0.0824 -0.0874
  312MOL0     C41994   5.731   0.315  10.088 -0.4796 -0.7050  0.6232
  312MOL0     C41995   5.596   0.263  10.042 -1.0385 -0.9838  0.5560
  312MOL0     C41996   5.515   0.221  10.155  0.3576 -0.1638  0.1123
  312MOL0     C41997   5.385   0.159  10.117  0.5889 -1.2369 -0.0864
  312MOL0     C41998   5.287   0.137  10.231  0.7635 -0.3434  0.3769
  312MOL0     C41999   5.168   0.047  10.196  0.2739 -0.5481  0.5563
  312MOL0     C42000   5.055   0.063  10.297  0.2137 -0.7737 -0.1138
  312MOL0     C42001   4.928  -0.019  10.281 -0.1139  0.4401 -0.1998
  312MOL0     N42002   4.841   0.061  10.192  0.3788 -0.7653 -0.8473
  312MOL0     C42003   4.767   0.175  10.232 -0.4903  0.5448  0.3323
  312MOL0     C42004   4.685   0.194  10.131 -0.7092 -0.4387  0.3679
  312MOL0     C42005   4.576   0.306  10.137 -0.3882  0.3255 -0.2881
  312MOL0     C42006   4.454   0.279  10.227  0.1758  0.1141  0.2490
  312MOL0     C42007   4.362   0.169  10.174  0.3054  0.4499  0.1322
  312MOL0     C42008   4.317   0.174  10.022  0.4660  0.1861  0.0533
  312MOL0     O42009   4.239   0.287   9.990 -0.4850 -0.1609 -0.1073
  312MOL0     C42010   4.101   0.268   9.995  0.3238 -0.1598 -0.9547
  312MOL0     C42011   4.036   0.375   9.936 -0.1870  0.4367  1.1294
  312MOL0     C42012   3.891   0.386   9.930 -0.8232  0.2122  0.4756
  312MOL0     C42013   3.848   0.510   9.859  0.1079  0.1576  0.1418
  312MOL0     C42014   3.814   0.278   9.985  0.5579 -0.6756 -0.2581
  312MOL0     C42015   3.667   0.273   9.970 -0.7651 -0.7097  0.3776
  312MOL0     O42016   3.591   0.297  10.087 -0.2791 -0.0195 -0.1840
  312MOL0     C42017   3.462   0.321  10.092  0.7117 -0.6875  0.2962
  312MOL0     C42018   3.389   0.307  10.212  0.0246 -0.0573  0.3998
  312MOL0     C42019   3.254   0.345  10.223 -0.3346  0.3521  0.5803
  312MOL0     C42020   3.193   0.411  10.120  0.1321 -0.7433  1.1731
  312MOL0     O42021   3.069   0.464  10.134 -0.4808 -0.2477 -0.0536
  312MOL0     C42022   2.978   0.439  10.023 -0.4847 -0.1481  0.0515
  312MOL0     C42023   2.838   0.458  10.072 -0.0938  0.8366  0.1634
  312MOL0     C42024   2.734   0.440   9.961 -0.7855 -0.5593 -0.0843
  312MOL0     C42025   2.586   0.420  10.005 -0.0658  0.6183 -0.0729
  312MOL0     C42026   2.527   0.514  10.114 -0.2221 -0.6005  0.1541
  312MOL0     C42027   2.379   0.550  10.070 -0.3456  0.4030 -0.5388
  312MOL0     C42028   2.316   0.591  10.201 -0.2901 -0.1186  0.2079
  312MOL0     C42029   2.171   0.638  10.188 -0.4652  1.4164 -0.3704
  312MOL0    Cl42030   2.166   0.779  10.075 -0.1025 -0.4828  0.4116
  312MOL0     C42031   3.262   0.426  10.001  0.1262 -0.0276 -0.1010
  312MOL0     C42032   3.392   0.389   9.989  0.1262 -0.1571  0.6231
  312MOL0     O42033   3.620   0.252   9.856 -0.5619  0.4934  0.2507
  312MOL0     C42034   3.882   0.177  10.051 -0.2118  0.0309 -0.2383
  312MOL0     C42035   4.022   0.176  10.064  0.2010  0.3163  0.4300
  312MOL0     N42036   4.714   0.117  10.017 -0.5627 -0.5517  0.7064
  312MOL0     N42037   4.803   0.031  10.060 -0.3139 -0.0953 -1.5861
  312MOL0     C42038   6.019   0.352  10.152  0.8175  0.2463  0.2531
  312MOL0     C42039   6.156   0.366  10.180  0.7968  0.5570 -0.3295
  312MOL0     C42040   6.599   0.223  10.305 -0.0125 -0.6046 -0.0360
  312MOL0     C42041   6.648   0.361  10.310  0.4896  0.1785  0.9294
  312MOL0     C42042   6.777   0.386  10.360  0.3589  0.4593  0.2857
  312MOL0     C42043   6.854   0.290  10.422 -0.4201 -0.0356  0.2655
  312MOL0     O42044   6.960   0.342  10.489 -0.5709  0.9171 -0.1280
  312MOL0     C42045   7.022   0.257  10.590  0.0950 -0.6440  0.2731
  312MOL0     C42046   7.135   0.329  10.645 -0.8882 -0.6254 -0.2813
  312MOL0     C42047   7.254   0.236  10.678 -0.4467  0.0570  0.8759
  312MOL0     C42048   7.235   0.186  10.819 -0.1080 -0.3197  0.2291
  312MOL0     C42049   7.323   0.072  10.842  0.6010  0.5901  0.3008
  312MOL0     C42050   7.373  -0.036  10.862 -0.4723  0.3157 -0.4114
  312MOL0     C42051   6.814   0.155  10.417  0.2772  0.9345 -0.2049
  312MOL0     C42052   6.692   0.123  10.357  0.2781 -0.3501  0.3050
  312MOL0     H42053   6.218   0.038  10.212 -0.1977 -0.2984 -1.1550
  312MOL0     H42054   5.985   0.016  10.192  0.1409 -0.3486 -1.1536
  312MOL0     H42055   5.714   0.405  10.147  0.8659 -1.6927  2.6412
  312MOL0     H42056   5.769   0.354   9.993 -5.4448  1.9513 -0.6219
  312MOL0     H42057   5.543   0.346   9.994  1.6311 -0.2995 -1.4682
  312MOL0     H42058   5.614   0.182   9.971  0.0139 -0.9603  0.7710
  312MOL0     H42059   5.569   0.148  10.216 -1.6062  0.2271  2.4870
  312MOL0     H42060   5.490   0.315  10.206 -0.4736 -0.9905  1.3022
  312MOL0     H42061   5.338   0.219  10.038  1.4511  0.6003  0.7306
  312MOL0     H42062   5.406   0.062  10.072 -0.1374 -1.5245  0.1869
  312MOL0     H42063   5.339   0.098  10.319  1.1228 -1.4736 -0.3203
  312MOL0     H42064   5.249   0.236  10.256  0.4311 -0.0981 -1.0143
  312MOL0     H42065   5.130   0.080  10.099  0.2582  0.0018  0.7488
  312MOL0     H42066   5.193  -0.059  10.190  0.6999 -0.6419  3.0194
  312MOL0     H42067   5.098   0.019  10.388  1.5817 -0.5940 -0.6521
  312MOL0     H42068   5.027   0.168  10.310  1.3039 -0.7413  2.7931
  312MOL0     H42069   4.888  -0.015  10.383  0.3939  0.4773  0.0070
  312MOL0     H42070   4.941  -0.122  10.245  0.5553  0.1648  0.7739
  312MOL0     H42071   4.772   0.237  10.322 -0.0431  1.7955 -0.5248
  312MOL0     H42072   4.634   0.391  10.173  0.7410  0.7534 -2.9036
  312MOL0     H42073   4.537   0.331  10.038  1.7567 -1.0922 -1.5744
  312MOL0     H42074   4.392   0.369  10.240 -3.9395 -2.7129  2.1727
  312MOL0     H42075   4.492   0.252  10.326  0.0606 -1.3480 -0.0910
  312MOL0     H42076   4.270   0.173  10.232  1.0098 -0.7400  1.3949
  312MOL0     H42077   4.413   0.073  10.188 -0.3251 -0.0805 -1.0886
  312MOL0     H42078   4.252   0.087  10.010  1.4426 -0.3656 -1.5518
  312MOL0     H42079   4.400   0.160   9.953 -0.0008 -2.2663 -0.1090
  312MOL0     H42080   4.087   0.451   9.878 -1.3595  1.5437  1.5019
  312MOL0     H42081   3.882   0.596   9.917  1.1718 -0.6059  0.6930
  312MOL0     H42082   3.887   0.515   9.757  1.0931  0.6910  0.5387
  312MOL0     H42083   3.739   0.516   9.847  0.0795 -0.5805 -0.0188
  312MOL0     H42084   3.435   0.272  10.304 -0.7029 -0.7501  0.5204
  312MOL0     H42085   3.194   0.327  10.312 -1.0541 -2.7023 -0.3798
  312MOL0     H42086   2.996   0.513   9.944 -0.0081 -0.7239 -0.3948
  312MOL0     H42087   2.982   0.338   9.981 -1.5848 -0.1191 -0.1469
  312MOL0     H42088   2.806   0.389  10.152 -2.4061  2.1310  0.4555
  312MOL0     H42089   2.829   0.556  10.119  3.6377  1.7658 -0.7566
  312MOL0     H42090   2.775   0.362   9.898  0.7032  1.4340 -1.7130
  312MOL0     H42091   2.730   0.533   9.904 -1.7223 -0.3431  0.3067
  312MOL0     H42092   2.524   0.408   9.916  0.9727 -1.7665 -0.5494
  312MOL0     H42093   2.582   0.316  10.038 -3.4749  0.9697  0.9425
  312MOL0     H42094   2.578   0.611  10.103 -0.8709 -0.3793 -1.0245
  312MOL0     H42095   2.526   0.461  10.210 -2.6484 -2.2665 -0.7100
  312MOL0     H42096   2.384   0.635  10.001  0.1209 -0.2252 -1.3105
  312MOL0     H42097   2.337   0.459  10.025  2.0660 -2.1497  2.0263
  312MOL0     H42098   2.371   0.680  10.231  0.8438 -0.7506  0.0355
  312MOL0     H42099   2.322   0.511  10.275 -1.1315 -0.6125 -0.2330
  312MOL0     H42100   2.135   0.679  10.283 -1.3055  0.7051 -0.3672
  312MOL0     H42101   2.099   0.559  10.164 -1.0544  0.9431  2.5959
  312MOL0     H42102   3.199   0.470   9.924 -1.5491 -3.0620 -0.6435
  312MOL0     H42103   3.444   0.410   9.896  1.3244  0.2557  1.3643
  312MOL0     H42104   3.821   0.100  10.098  1.0958 -0.5545  0.5660
  312MOL0     H42105   4.068   0.096  10.121  1.0757  0.4208 -0.1009
  312MOL0     H42106   5.964   0.444  10.136 -1.0810 -0.8416  0.2921
  312MOL0     H42107   6.205   0.462  10.177  1.2269  0.3631  0.3074
  312MOL0     H42108   6.595   0.443  10.263 -2.4858 -1.2064  1.6455
  312MOL0     H42109   6.815   0.487  10.366  1.1649  0.2155 -0.4746
  312MOL0     H42110   6.948   0.246  10.670 -0.5025 -2.1173 -0.4310
  312MOL0     H42111   7.046   0.157  10.552  0.7623 -0.3893  0.0108
  312MOL0     H42112   7.111   0.398  10.726 -1.7392 -2.0558  0.7362
  312MOL0     H42113   7.170   0.391  10.561 -0.3996  0.4101  0.6567
  312MOL0     H42114   7.344   0.296  10.668 -0.8541  0.3335 -2.8681
  312MOL0     H42115   7.269   0.151  10.610  0.8822  2.0495 -1.4784
  312MOL0     H42116   7.132   0.149  10.828 -0.9818  1.4805 -1.5423
  312MOL0     H42117   7.260   0.256  10.899  1.5521 -1.2950  0.5957
  312MOL0     H42118   7.414  -0.135  10.851  1.7307  1.0984  0.0618
  312MOL0     H42119   6.872   0.067  10.445  2.1623  1.4852 -2.0821
  312MOL0     H42120   6.665   0.018  10.356 -0.0350 -0.2684  0.2347
  313MOL0     O42121   3.605   4.110   8.196 -0.1324  0.0232  0.5320
  313MOL0     C42122   3.578   3.999   8.245  0.1344  0.2613 -0.1925
  313MOL0     O42123   3.465   3.947   8.264  0.4630  0.3368 -0.1269
  313MOL0     C42124   3.362   3.973   8.178 -0.4431 -0.3516  0.1283
  313MOL0     C42125   3.285   3.865   8.126 -0.5386 -0.3806 -0.2274
  313MOL0     C42126   3.173   3.892   8.042 -0.4996  0.1722  0.6788
  313MOL0     C42127   3.143   4.025   8.008  0.0782  0.2850  1.0250
  313MOL0     O42128   3.036   4.064   7.925 -0.3937 -0.4268 -0.1261
  313MOL0     C42129   2.985   3.963   7.841  0.0078 -0.3215  0.4771
  313MOL0     C42130   2.873   4.025   7.746  0.1908  0.1447  0.5117
  313MOL0     C42131   2.920   4.128   7.645  0.0674  0.6999  0.4868
  313MOL0     C42132   2.806   4.188   7.565 -0.3672  0.0542  0.0627
  313MOL0     C42133   2.858   4.296   7.471  0.1682 -0.2190 -0.9978
  313MOL0     C42134   2.767   4.326   7.354  0.2094 -0.1934  1.0590
  313MOL0     C42135   2.658   4.420   7.408  0.4156 -0.8819  0.2206
  313MOL0     C42136   2.554   4.456   7.300 -0.0991  0.9690 -0.1142
  313MOL0     N42137   2.504   4.590   7.338  0.2639  0.0416  0.6837
  313MOL0     C42138   2.396   4.604   7.414  0.2782 -0.4600 -0.2085
  313MOL0     C42139   2.382   4.729   7.438  0.1375  0.0964 -0.1198
  313MOL0     C42140   2.266   4.777   7.516 -0.5244 -0.5551 -0.4856
  313MOL0     C42141   2.284   4.932   7.551 -0.0393  0.9002  0.6600
  313MOL0     C42142   2.197   4.989   7.667 -0.1485  0.5112  0.1825
  313MOL0     C42143   2.057   4.940   7.677 -0.3796  0.4833  0.1108
  313MOL0     O42144   1.985   4.960   7.550  0.4955  0.9253  0.1976
  313MOL0     C42145   1.897   5.062   7.560  0.0747 -0.6916  0.5129
  313MOL0     C42146   1.779   5.035   7.630 -0.2552  0.6591  0.3529
  313MOL0     C42147   1.672   5.121   7.624 -0.7086 -0.0233 -1.0271
  313MOL0     C42148   1.551   5.075   7.708  0.1750  0.6636  0.4748
  313MOL0     C42149   1.688   5.244   7.552 -0.3398 -0.8920 -0.0109
  313MOL0     C42150   1.578   5.349   7.556 -0.0294 -0.0386 -0.0997
  313MOL0     O42151   1.576   5.432   7.444 -0.1845  0.3251  0.2683
  313MOL0     C42152   1.458   5.488   7.401 -0.0767 -0.2094  0.0701
  313MOL0     C42153   1.334   5.438   7.427  0.5777 -0.4811 -0.5920
  313MOL0     C42154   1.224   5.508   7.372 -0.2333 -0.2302  0.4439
  313MOL0     C42155   1.240   5.621   7.289 -0.4365 -0.1599  0.3291
  313MOL0     O42156   1.144   5.701   7.221 -0.9290  0.2357 -0.7753
  313MOL0     C42157   1.037   5.636   7.161  0.4047  0.2168 -0.2911
  313MOL0     C42158   0.914   5.612   7.249 -0.0218 -0.6809 -0.3789
  313MOL0     C42159   0.863   5.740   7.311 -0.1130 -0.1275  0.0557
  313MOL0     C42160   0.821   5.842   7.210  0.4781 -0.6887  0.4462
  313MOL0     C42161   0.693   5.912   7.278  0.1853  0.4599 -0.0132
  313MOL0     C42162   0.638   6.025   7.184 -0.3111 -0.0690 -0.1898
  313MOL0     C42163   0.541   6.112   7.276  0.3760  0.1504  0.0932
  313MOL0     C42164   0.425   6.186   7.198 -0.0763 -0.1749 -0.6090
  313MOL0    Cl42165   0.333   6.071   7.099 -0.4208 -0.5221 -0.4864
  313MOL0     C42166   1.364   5.674   7.269 -0.1836  1.0373 -0.2029
  313MOL0     C42167   1.471   5.608   7.326 -0.0313  0.3043  0.5712
  313MOL0     O42168   1.501   5.362   7.651 -0.4894 -0.0646  0.6414
  313MOL0     C42169   1.811   5.279   7.497  0.6070 -0.5166  0.2266
  313MOL0     C42170   1.911   5.185   7.496  0.3582  0.2443  0.5073
  313MOL0     N42171   2.480   4.794   7.361  0.4919 -0.4584 -0.2257
  313MOL0     N42172   2.553   4.707   7.303 -0.4231  0.1109 -0.4672
  313MOL0     C42173   3.215   4.129   8.066  0.3329 -0.0934 -0.0277
  313MOL0     C42174   3.316   4.096   8.148 -0.5833  0.1608 -0.3541
  313MOL0     C42175   3.693   3.914   8.294 -0.4299  0.0011 -0.4645
  313MOL0     C42176   3.675   3.785   8.352 -0.6257  1.0466  0.2375
  313MOL0     C42177   3.790   3.712   8.398 -1.0578  0.2817 -0.7538
  313MOL0     C42178   3.917   3.777   8.393 -0.5368 -0.0624 -0.0710
  313MOL0     O42179   4.009   3.699   8.464  0.7847  0.2011 -0.2020
  313MOL0     C42180   4.141   3.745   8.468 -0.0951 -0.3750 -0.4444
  313MOL0     C42181   4.238   3.640   8.522  0.0949 -1.3226  0.5795
  313MOL0     C42182   4.383   3.697   8.519  0.0461  0.0658  0.0625
  313MOL0     C42183   4.470   3.597   8.595 -0.0433  0.1315  0.5224
  313MOL0     C42184   4.481   3.464   8.529  0.4507  0.3110 -0.0344
  313MOL0     C42185   4.479   3.357   8.470  0.2275 -0.1767 -0.4966
  313MOL0     C42186   3.933   3.900   8.335  0.7023 -0.3876 -0.1521
  313MOL0     C42187   3.823   3.968   8.283 -0.3128 -0.0294 -0.3493
  313MOL0     H42188   3.302   3.764   8.163 -2.8512 -0.4360  0.8496
  313MOL0     H42189   3.118   3.810   7.996  0.9880 -2.0303  2.5713
  313MOL0     H42190   3.062   3.929   7.771  1.0359  0.0418  1.4104
  313MOL0     H42191   2.942   3.883   7.901 -1.1873 -1.1296 -1.3542
  313MOL0     H42192   2.822   3.943   7.694  1.3104 -0.1288 -0.1907
  313MOL0     H42193   2.791   4.066   7.806  0.2357 -0.6054  1.0890
  313MOL0     H42194   2.959   4.214   7.700 -0.3996  0.2463  1.5576
  313MOL0     H42195   2.996   4.084   7.580 -1.2472 -1.8197  0.5225
  313MOL0     H42196   2.748   4.109   7.516 -0.5799  0.0059  0.3899
  313MOL0     H42197   2.736   4.236   7.635  0.0342 -0.4517  0.8322
  313MOL0     H42198   2.883   4.393   7.516  1.2085  0.4168 -2.7956
  313MOL0     H42199   2.952   4.265   7.424 -0.0740 -1.6958 -0.5521
  313MOL0     H42200   2.820   4.348   7.261 -1.0261  2.6291  0.9330
  313MOL0     H42201   2.709   4.235   7.332  1.6173 -0.8516 -0.0656
  313MOL0     H42202   2.610   4.375   7.496  2.4724 -0.9226  1.3720
  313MOL0     H42203   2.707   4.513   7.437  0.6153 -0.7402 -0.5366
  313MOL0     H42204   2.481   4.376   7.289 -0.3387  0.7678  2.4313
  313MOL0     H42205   2.605   4.468   7.203 -1.0903 -0.9828 -0.9253
  313MOL0     H42206   2.337   4.517   7.442  2.5643 -2.0653 -0.0797
  313MOL0     H42207   2.176   4.765   7.456 -0.4095  0.2970 -0.8449
  313MOL0     H42208   2.258   4.728   7.614  1.0200  1.4849  0.7592
  313MOL0     H42209   2.268   4.999   7.466  3.1853  3.1153  1.6359
  313MOL0     H42210   2.389   4.945   7.578  0.3162  0.8114 -0.6006
  313MOL0     H42211   2.182   5.098   7.669 -1.2904  0.3578  0.3713
  313MOL0     H42212   2.249   4.956   7.758 -0.3334 -1.4896 -0.3965
  313MOL0     H42213   2.003   4.991   7.758 -1.4379 -1.0676  0.4272
  313MOL0     H42214   2.069   4.832   7.685 -1.5864  0.0701 -2.6822
  313MOL0     H42215   1.772   4.940   7.682  1.2512  0.8856  1.0293
  313MOL0     H42216   1.535   4.967   7.704 -1.1173  0.7968  1.2764
  313MOL0     H42217   1.549   5.113   7.811 -1.2411 -0.9077  1.0756
  313MOL0     H42218   1.463   5.115   7.657  0.9696  0.0892 -1.4394
  313MOL0     H42219   1.316   5.351   7.490  1.2890  2.0782  3.5177
  313MOL0     H42220   1.126   5.475   7.406 -0.2207 -0.0495  0.6551
  313MOL0     H42221   0.997   5.665   7.064 -2.2395  0.9454  0.9295
  313MOL0     H42222   1.087   5.542   7.132  0.8457  0.4705 -0.3627
  313MOL0     H42223   0.828   5.567   7.197  0.8277 -2.7485 -0.0832
  313MOL0     H42224   0.936   5.541   7.329  1.2033  1.4911  1.2991
  313MOL0     H42225   0.929   5.792   7.381  1.1952 -1.9275  0.2230
  313MOL0     H42226   0.770   5.714   7.361 -0.3684  0.9472  0.1797
  313MOL0     H42227   0.894   5.922   7.197  0.0846  0.0972  2.6077
  313MOL0     H42228   0.790   5.797   7.116  0.5961  0.3009 -0.0757
  313MOL0     H42229   0.721   5.952   7.375  1.1490 -0.3818  0.0691
  313MOL0     H42230   0.617   5.835   7.293  0.6878 -0.7431 -2.8302
  313MOL0     H42231   0.712   6.095   7.143 -0.8015  0.8479  0.4562
  313MOL0     H42232   0.575   5.982   7.105 -0.7323 -0.5597  0.4024
  313MOL0     H42233   0.599   6.192   7.323  2.6645 -0.1576 -2.0244
  313MOL0     H42234   0.499   6.048   7.355  2.0884 -2.1061 -0.7282
  313MOL0     H42235   0.488   6.249   7.135  3.9236 -2.1601  1.0911
  313MOL0     H42236   0.363   6.241   7.269  2.4877  0.0684  1.5926
  313MOL0     H42237   1.375   5.774   7.229 -0.5500  0.7058 -1.1545
  313MOL0     H42238   1.570   5.652   7.316 -1.0737  2.6047 -0.3815
  313MOL0     H42239   1.831   5.376   7.452  3.4357 -0.5058  1.3150
  313MOL0     H42240   1.998   5.201   7.433 -0.0544 -0.2925 -0.2177
  313MOL0     H42241   3.190   4.228   8.030  1.9886  2.0194  4.0143
  313MOL0     H42242   3.376   4.176   8.191 -1.0898 -0.9297  2.6427
  313MOL0     H42243   3.574   3.754   8.376 -0.3819  1.0059  1.2685
  313MOL0     H42244   3.785   3.616   8.449  1.3518  0.5742  0.1718
  313MOL0     H42245   4.169   3.774   8.366 -1.8271  2.2920 -0.2517
  313MOL0     H42246   4.142   3.838   8.525 -1.5728 -0.1086 -0.8096
  313MOL0     H42247   4.228   3.555   8.454  2.5119 -0.9663 -0.3279
  313MOL0     H42248   4.212   3.606   8.622 -1.5153  0.8993  0.9995
  313MOL0     H42249   4.386   3.795   8.567  0.3681 -1.2233  2.8671
  313MOL0     H42250   4.423   3.707   8.418 -3.0359 -1.9156 -1.4776
  313MOL0     H42251   4.449   3.586   8.702  1.0318 -1.2955  0.6172
  313MOL0     H42252   4.570   3.642   8.592  0.0524 -0.0963  0.2932
  313MOL0     H42253   4.483   3.270   8.408  2.2572 -1.0775  0.7926
  313MOL0     H42254   4.025   3.956   8.327 -1.0835  2.8939  0.2035
  313MOL0     H42255   3.841   4.062   8.230  0.7093  0.3643  0.6500
  314MOL0     O42256   6.114   7.057   5.940 -0.2332 -0.8329 -0.0898
  314MOL0     C42257   6.147   7.135   6.035  0.1991  0.9896  0.0568
  314MOL0     O42258   6.076   7.242   6.092  0.3075 -0.2324 -0.0810
  314MOL0     C42259   5.958   7.292   6.057 -0.5003 -0.5461 -0.1603
  314MOL0     C42260   5.890   7.273   5.939  0.2618  0.5529  0.2810
  314MOL0     C42261   5.761   7.325   5.922  0.6303 -0.0596  0.7692
  314MOL0     C42262   5.710   7.417   6.019 -0.1710  0.7393  0.4802
  314MOL0     O42263   5.592   7.486   6.003 -0.0388  0.3795 -0.7258
  314MOL0     C42264   5.492   7.450   5.912  0.5686 -0.7015  0.2749
  314MOL0     C42265   5.359   7.420   5.976  0.8177  0.6759 -0.8680
  314MOL0     C42266   5.286   7.526   6.055 -0.3192  0.2142  0.1012
  314MOL0     C42267   5.147   7.476   6.068  0.8153  0.4830  0.3428
  314MOL0     C42268   5.052   7.589   6.121  0.4216  0.4295  0.0266
  314MOL0     C42269   4.908   7.549   6.107 -0.4598 -0.2828 -0.6370
  314MOL0     C42270   4.835   7.653   6.196  0.3305  0.5301  0.0786
  314MOL0     C42271   4.683   7.642   6.179 -0.6733 -0.5290  0.5579
  314MOL0     N42272   4.612   7.518   6.218  0.3657  0.3409  0.4634
  314MOL0     C42273   4.587   7.397   6.150  0.3853 -0.3431 -0.4253
  314MOL0     C42274   4.505   7.331   6.241 -0.0754  0.4431  0.2337
  314MOL0     C42275   4.450   7.188   6.221  0.0913 -0.0121 -0.1836
  314MOL0     C42276   4.293   7.181   6.194  0.2270  0.3247  0.1106
  314MOL0     C42277   4.218   7.197   6.334  0.7691 -0.2571 -0.4511
  314MOL0     C42278   4.148   7.325   6.354  0.0981  0.5786 -0.3707
  314MOL0     O42279   4.079   7.375   6.241 -0.0217  0.1758 -0.8897
  314MOL0     C42280   3.961   7.443   6.248  0.0456 -0.0235 -0.5421
  314MOL0     C42281   3.949   7.554   6.339  0.3086  0.2190  0.7683
  314MOL0     C42282   3.825   7.626   6.352 -0.4663  0.1999 -0.0152
  314MOL0     C42283   3.812   7.730   6.462 -0.0688 -0.0428  0.1107
  314MOL0     C42284   3.712   7.593   6.274  0.0659 -0.1364  0.6750
  314MOL0     C42285   3.580   7.665   6.259 -0.2082  0.4545 -0.5468
  314MOL0     O42286   3.505   7.624   6.154  0.0659  0.1358  0.0214
  314MOL0     C42287   3.380   7.680   6.144  0.0635  0.8816 -0.7214
  314MOL0     C42288   3.378   7.790   6.058 -0.2109 -0.6637 -0.3075
  314MOL0     C42289   3.253   7.849   6.039 -0.5517 -0.5058  0.6685
  314MOL0     C42290   3.134   7.814   6.113  0.3272  0.0448  1.0380
  314MOL0     O42291   3.008   7.872   6.090 -0.1029 -0.1726 -0.2070
  314MOL0     C42292   2.971   7.914   5.953 -0.7216  0.9287 -0.6652
  314MOL0     C42293   2.829   7.974   5.950 -0.2742 -1.1063 -0.7848
  314MOL0     C42294   2.712   7.873   5.958  0.0274 -0.1216  0.1603
  314MOL0     C42295   2.575   7.938   5.933 -0.6158 -0.1125  0.6065
  314MOL0     C42296   2.469   7.838   5.895 -0.8515 -0.0316 -0.1512
  314MOL0     C42297   2.332   7.908   5.873 -0.3293 -1.0164 -0.0453
  314MOL0     C42298   2.223   7.802   5.879  0.4551 -0.4315 -0.3221
  314MOL0     C42299   2.107   7.824   5.781 -0.0078  0.4683  0.3299
  314MOL0    Cl42300   2.165   7.838   5.609 -0.1584  0.2395  0.0084
  314MOL0     C42301   3.146   7.704   6.204 -0.7746 -0.2049  0.2024
  314MOL0     C42302   3.269   7.639   6.219 -0.6543  0.3041  0.0676
  314MOL0     O42303   3.553   7.759   6.328  1.2369  0.0576  0.1228
  314MOL0     C42304   3.734   7.488   6.181  0.8953  0.1499  0.5386
  314MOL0     C42305   3.849   7.416   6.169  0.2143 -0.4327  0.8456
  314MOL0     N42306   4.483   7.415   6.354 -0.0192 -0.1512  0.8162
  314MOL0     N42307   4.553   7.519   6.338 -0.2742  0.9509 -0.0356
  314MOL0     C42308   5.772   7.428   6.141 -0.1146 -0.0677  0.3655
  314MOL0     C42309   5.895   7.362   6.160  0.1204 -0.0261 -0.1314
  314MOL0     C42310   6.263   7.102   6.112 -0.5680  1.3998  0.7843
  314MOL0     C42311   6.273   7.121   6.252 -0.0740  1.0822  0.6993
  314MOL0     C42312   6.392   7.090   6.305 -0.7178 -0.2186 -0.4133
  314MOL0     C42313   6.505   7.032   6.232 -0.3216 -0.1836 -0.4532
  314MOL0     O42314   6.616   7.000   6.314 -0.4428  0.7756  0.1701
  314MOL0     C42315   6.708   6.906   6.256 -0.0492 -0.1158 -0.6144
  314MOL0     C42316   6.817   6.880   6.360 -0.3296 -0.1338 -0.0244
  314MOL0     C42317   6.920   6.779   6.313  1.4143  0.1220 -0.5041
  314MOL0     C42318   7.012   6.747   6.429  0.5016  0.6944  0.4148
  314MOL0     C42319   7.070   6.615   6.415  0.3759  0.8615  0.3883
  314MOL0     C42320   7.130   6.509   6.407 -1.2866 -0.2150  0.3305
  314MOL0     C42321   6.490   7.011   6.099  0.0056  1.2875  0.1293
  314MOL0     C42322   6.375   7.052   6.036 -0.5371  0.7963 -0.8589
  314MOL0     H42323   5.943   7.211   5.868 -1.2193  0.2863 -0.6320
  314MOL0     H42324   5.703   7.304   5.832 -1.3085  0.1560  1.9118
  314MOL0     H42325   5.490   7.535   5.844  1.3640  0.9100  2.1781
  314MOL0     H42326   5.499   7.359   5.852  0.2678 -1.0438  0.7540
  314MOL0     H42327   5.300   7.394   5.888  1.2699  1.5657 -1.4534
  314MOL0     H42328   5.362   7.328   6.035  1.5007  0.4644 -1.2194
  314MOL0     H42329   5.332   7.542   6.153  0.0719  0.5296 -0.1329
  314MOL0     H42330   5.284   7.614   5.990  0.9709  0.7031  0.6937
  314MOL0     H42331   5.106   7.437   5.975  0.8248  3.0862 -0.8567
  314MOL0     H42332   5.142   7.385   6.128  2.1858  0.4584  0.4484
  314MOL0     H42333   5.089   7.609   6.222  2.4829 -1.6243 -0.2277
  314MOL0     H42334   5.066   7.681   6.064  0.4478  2.3274  2.8573
  314MOL0     H42335   4.884   7.555   6.001 -0.9123 -1.0609 -0.5874
  314MOL0     H42336   4.890   7.448   6.147  1.5983 -0.6425 -0.4957
  314MOL0     H42337   4.859   7.651   6.303 -0.6592  1.4808  0.3412
  314MOL0     H42338   4.860   7.753   6.158 -2.8177  1.8357  1.0280
  314MOL0     H42339   4.660   7.641   6.072 -1.1146 -0.7460  0.6507
  314MOL0     H42340   4.623   7.722   6.224  0.9092 -0.1151  2.0352
  314MOL0     H42341   4.633   7.360   6.059 -1.6958 -0.7167 -1.3869
  314MOL0     H42342   4.502   7.142   6.136 -0.4320  0.5197 -0.7993
  314MOL0     H42343   4.463   7.126   6.310 -0.2886 -2.0464 -1.4695
  314MOL0     H42344   4.271   7.082   6.152  0.9076  0.7559 -1.3273
  314MOL0     H42345   4.274   7.261   6.122  0.8781  2.8588  2.5922
  314MOL0     H42346   4.278   7.176   6.423  0.1514  0.8850  0.2441
  314MOL0     H42347   4.144   7.117   6.346  0.6602  0.0456  0.9346
  314MOL0     H42348   4.223   7.401   6.380 -0.2262  0.8732 -0.2924
  314MOL0     H42349   4.074   7.302   6.431  1.3587  0.6462  0.9203
  314MOL0     H42350   4.033   7.576   6.405  0.9130 -0.4827  0.2497
  314MOL0     H42351   3.912   7.754   6.498 -0.2491  0.3911  0.3404
  314MOL0     H42352   3.761   7.823   6.435 -1.3862 -0.7618  0.0271
  314MOL0     H42353   3.764   7.681   6.547  0.6236  0.5798  0.8743
  314MOL0     H42354   3.466   7.815   6.000  0.1104  1.9775  1.1493
  314MOL0     H42355   3.249   7.923   5.959 -1.7510 -1.9452 -0.6621
  314MOL0     H42356   3.040   7.995   5.927  2.8147 -0.5134  3.1330
  314MOL0     H42357   2.984   7.826   5.890 -0.7305 -0.9396  1.8030
  314MOL0     H42358   2.818   8.028   6.045 -2.5975 -1.3740 -0.8564
  314MOL0     H42359   2.825   8.037   5.861  1.8619  1.4959  0.7738
  314MOL0     H42360   2.718   7.821   6.054  3.1592 -0.9927 -0.3884
  314MOL0     H42361   2.721   7.801   5.876 -0.7607 -1.3714  1.1340
  314MOL0     H42362   2.549   7.980   6.031 -0.7060  1.7504 -0.1655
  314MOL0     H42363   2.582   8.026   5.868  2.4537  1.2774  2.5079
  314MOL0     H42364   2.469   7.772   5.982 -0.1659  2.1814  1.6338
  314MOL0     H42365   2.505   7.788   5.804 -0.2754  2.4045 -1.3465
  314MOL0     H42366   2.321   7.987   5.948  3.2604 -0.6981  0.2999
  314MOL0     H42367   2.327   7.956   5.775 -0.9043  1.1079  0.9635
  314MOL0     H42368   2.189   7.792   5.983  0.3601 -0.7935 -0.3873
  314MOL0     H42369   2.260   7.705   5.845 -0.1340 -0.1087 -1.9517
  314MOL0     H42370   2.052   7.917   5.798 -2.2355 -0.5272 -0.9609
  314MOL0     H42371   2.038   7.739   5.780  0.4041  0.1360 -0.4000
  314MOL0     H42372   3.055   7.688   6.260 -0.6865  3.0992  1.5336
  314MOL0     H42373   3.273   7.560   6.292 -1.7442 -1.9230 -2.1355
  314MOL0     H42374   3.658   7.467   6.106 -0.9246  2.1847  1.6899
  314MOL0     H42375   3.852   7.336   6.097 -0.0268  0.7779 -0.5580
  314MOL0     H42376   5.740   7.498   6.218 -0.3867 -2.7300  2.8315
  314MOL0     H42377   5.943   7.356   6.257 -0.0209  0.1746 -0.0487
  314MOL0     H42378   6.197   7.162   6.317 -1.8291  0.7170 -1.0377
  314MOL0     H42379   6.399   7.095   6.413 -0.1522  2.0964 -0.5109
  314MOL0     H42380   6.662   6.812   6.224 -1.4832  1.1144 -2.3682
  314MOL0     H42381   6.759   6.952   6.172 -0.2745  2.0847  0.3837
  314MOL0     H42382   6.770   6.843   6.451  0.0566  1.1943  0.7464
  314MOL0     H42383   6.868   6.971   6.393 -0.5196 -0.4763  1.2920
  314MOL0     H42384   6.973   6.831   6.232 -1.3328  2.7516 -0.7668
  314MOL0     H42385   6.865   6.694   6.272  1.8368 -1.3474  1.7895
  314MOL0     H42386   6.954   6.745   6.522 -0.2822  4.2851  0.1676
  314MOL0     H42387   7.086   6.827   6.446  1.4090 -0.6610  3.6571
  314MOL0     H42388   7.180   6.414   6.408  0.4803  0.6607  0.3155
  314MOL0     H42389   6.568   6.974   6.033  1.1650  0.7905  1.7100
  314MOL0     H42390   6.364   7.029   5.931  0.3603  1.4457 -1.0990
  315MOL0     O42391   1.053   9.829   4.497 -0.1189 -0.0260  0.2660
  315MOL0     C42392   1.112   9.925   4.443 -0.5866  0.3246 -0.6756
  315MOL0     O42393   1.056  10.020   4.377  0.1533 -0.5052  0.1371
  315MOL0     C42394   0.918  10.026   4.374  0.4409  0.2450 -0.3054
  315MOL0     C42395   0.835   9.961   4.276 -0.3858  0.1914  0.3121
  315MOL0     C42396   0.697   9.985   4.269 -0.6530  0.2310  0.1678
  315MOL0     C42397   0.632  10.053   4.372 -0.4052  0.4589  0.4400
  315MOL0     O42398   0.497  10.049   4.363 -0.0184  0.7978 -0.3716
  315MOL0     C42399   0.411  10.076   4.474  0.9158 -0.5964 -0.6503
  315MOL0     C42400   0.269  10.107   4.422 -0.4947 -0.5223 -0.5938
  315MOL0     C42401   0.160  10.094   4.529  0.3080  0.8011  0.6752
  315MOL0     C42402   0.019  10.126   4.473 -0.4181  0.9069  0.2314
  315MOL0     C42403  -0.083  10.172   4.576  0.7338 -0.1749 -1.0635
  315MOL0     C42404  -0.103  10.072   4.684 -0.4379  0.4499  0.1684
  315MOL0     C42405  -0.251  10.073   4.739  0.0843 -0.0177  0.1594
  315MOL0     C42406  -0.285  10.210   4.802  0.5341 -0.3288  0.9853
  315MOL0     N42407  -0.193  10.240   4.919 -0.0007 -0.2317 -0.0186
  315MOL0     C42408  -0.230  10.219   5.042  1.1294  0.1942  0.7314
  315MOL0     C42409  -0.130  10.252   5.126 -0.2590 -0.0321  0.3005
  315MOL0     C42410  -0.147  10.262   5.268  0.0578  0.4271  0.1272
  315MOL0     C42411  -0.190  10.120   5.322 -0.1240 -0.8658 -0.6022
  315MOL0     C42412  -0.238  10.121   5.473 -0.2075 -0.6084 -0.7483
  315MOL0     C42413  -0.271   9.974   5.528 -0.1979  0.0851 -0.2211
  315MOL0     O42414  -0.314   9.993   5.664  0.9264  0.2166 -0.2347
  315MOL0     C42415  -0.452  10.024   5.692 -0.0471  0.3847  0.6555
  315MOL0     C42416  -0.470  10.137   5.774  0.1630  0.0469  0.6996
  315MOL0     C42417  -0.605  10.166   5.813 -0.5201  0.7247 -0.9380
  315MOL0     C42418  -0.623  10.292   5.891  0.3489  0.9036  0.2873
  315MOL0     C42419  -0.718  10.098   5.766  1.4729  0.1004 -0.1718
  315MOL0     C42420  -0.870  10.127   5.794  0.5732  0.8861  0.3325
  315MOL0     O42421  -0.958  10.072   5.704  0.4828 -0.0688 -0.1262
  315MOL0     C42422  -1.093  10.050   5.724 -0.6859 -0.0253  0.0332
  315MOL0     C42423  -1.185  10.043   5.614  0.2705 -0.3520 -1.1875
  315MOL0     C42424  -1.321  10.030   5.645  0.6824  0.8206 -0.0507
  315MOL0     C42425  -1.369  10.009   5.771 -0.7681  0.1599 -0.4390
  315MOL0     O42426  -1.495   9.972   5.783 -0.0054  0.5410 -0.1655
  315MOL0     C42427  -1.550   9.932   5.911  0.1496 -0.3046  0.0225
  315MOL0     C42428  -1.693   9.864   5.903 -0.1243 -0.1582 -0.2293
  315MOL0     C42429  -1.696   9.742   5.814 -0.1564  0.7050  0.3622
  315MOL0     C42430  -1.834   9.664   5.813  0.6960  0.1917  0.0103
  315MOL0     C42431  -1.932   9.752   5.727  0.5765  0.2453 -0.4071
  315MOL0     C42432  -2.066   9.686   5.742 -0.1190  0.0410 -0.0191
  315MOL0     C42433  -2.176   9.754   5.658 -0.0506 -0.1085  0.0121
  315MOL0     C42434  -2.302   9.675   5.686  0.1685  0.5426 -0.1940
  315MOL0    Cl42435  -2.293   9.510   5.611 -0.1994  0.3409  0.0867
  315MOL0     C42436  -1.280  10.015   5.877 -0.3155 -0.2580 -0.5826
  315MOL0     C42437  -1.143  10.029   5.858  0.4420 -0.6274 -0.5603
  315MOL0     O42438  -0.902  10.185   5.898  0.5050  0.2035  0.2971
  315MOL0     C42439  -0.693   9.987   5.682  0.9252 -0.5768 -0.4505
  315MOL0     C42440  -0.564   9.952   5.641  0.9417 -0.5696  0.4246
  315MOL0     N42441  -0.027  10.294   5.043 -0.8476 -0.1650  0.3960
  315MOL0     N42442  -0.064  10.290   4.921 -0.4938 -0.4903  0.4647
  315MOL0     C42443   0.712  10.116   4.477  0.1950  0.0182  0.2376
  315MOL0     C42444   0.852  10.096   4.480  1.1304  0.2247 -0.2484
  315MOL0     C42445   1.260   9.936   4.453  0.5016 -0.2843 -0.4515
  315MOL0     C42446   1.339  10.043   4.393 -0.2088 -0.6341  0.2104
  315MOL0     C42447   1.473  10.072   4.433 -0.2497  0.5870 -0.8559
  315MOL0     C42448   1.531   9.997   4.536 -0.1310  0.7144  0.2338
  315MOL0     O42449   1.662  10.030   4.563 -0.3527  0.7294 -0.2888
  315MOL0     C42450   1.739   9.948   4.651  0.2005  0.3930  0.2277
  315MOL0     C42451   1.860  10.030   4.700 -0.2178  0.4179  0.8314
  315MOL0     C42452   1.984  10.042   4.609 -0.6220 -0.4034 -1.3687
  315MOL0     C42453   2.049   9.906   4.604 -1.0475  0.1473  0.1359
  315MOL0     C42454   2.172   9.893   4.528 -0.2186  0.0680 -0.0306
  315MOL0     C42455   2.275   9.894   4.471  0.5048  0.5407  0.6032
  315MOL0     C42456   1.460   9.892   4.589  0.3360 -0.0334 -1.1655
  315MOL0     C42457   1.329   9.860   4.545  1.0087 -0.2020  0.0655
  315MOL0     H42458   0.887   9.900   4.203 -2.5643 -1.2021 -0.1629
  315MOL0     H42459   0.640   9.941   4.187 -0.7798 -0.2729  0.5251
  315MOL0     H42460   0.410   9.989   4.540  2.7504 -1.1126 -1.2244
  315MOL0     H42461   0.448  10.159   4.536  0.7925 -0.7852 -0.3222
  315MOL0     H42462   0.282  10.208   4.379 -1.7240 -0.0446  0.1057
  315MOL0     H42463   0.249  10.041   4.337  0.8605 -0.9497 -0.6048
  315MOL0     H42464   0.171   9.992   4.568  2.2901  0.3221 -0.9386
  315MOL0     H42465   0.186  10.165   4.609  0.3461  1.9580 -0.3417
  315MOL0     H42466   0.023  10.205   4.398 -1.2070  1.3432  0.6311
  315MOL0     H42467  -0.017  10.035   4.423  0.5967  0.7975 -0.3167
  315MOL0     H42468  -0.042  10.260   4.628  1.7306 -0.4762 -1.3228
  315MOL0     H42469  -0.179  10.185   4.526  1.3321 -1.6171 -2.6476
  315MOL0     H42470  -0.089   9.975   4.635  1.4310  1.1241 -0.7054
  315MOL0     H42471  -0.022  10.078   4.757  1.4340  0.5477 -1.8170
  315MOL0     H42472  -0.320  10.059   4.656 -0.2562 -0.7116  0.5563
  315MOL0     H42473  -0.259   9.986   4.805 -0.0868  1.6504  2.4553
  315MOL0     H42474  -0.390  10.215   4.831  0.0094 -2.2137 -0.3390
  315MOL0     H42475  -0.273  10.293   4.732 -3.4023  1.2310  1.9040
  315MOL0     H42476  -0.329  10.184   5.069  0.2623  0.9857 -1.2888
  315MOL0     H42477  -0.052  10.295   5.310 -0.2381  0.3137  0.9012
  315MOL0     H42478  -0.224  10.340   5.283  0.3055  1.5230 -3.4671
  315MOL0     H42479  -0.102  10.056   5.311  2.0255  1.7182  0.5115
  315MOL0     H42480  -0.276  10.079   5.269  0.1629 -1.0661 -0.9193
  315MOL0     H42481  -0.334  10.173   5.479 -1.8209 -3.5095  3.3606
  315MOL0     H42482  -0.156  10.172   5.525  0.5851  0.1632 -2.6336
  315MOL0     H42483  -0.188   9.905   5.518  0.9387  0.4934  4.2427
  315MOL0     H42484  -0.355   9.930   5.472 -0.7884  0.0755  0.6569
  315MOL0     H42485  -0.384  10.195   5.805 -0.9075  1.4155  1.2132
  315MOL0     H42486  -0.654  10.264   5.992 -3.5394 -1.4523 -1.3172
  315MOL0     H42487  -0.535  10.357   5.889  1.8664 -1.0691  0.6181
  315MOL0     H42488  -0.699  10.355   5.842  1.5184  0.6186 -1.9887
  315MOL0     H42489  -1.147  10.027   5.513 -0.4490 -1.0907 -1.3460
  315MOL0     H42490  -1.390  10.014   5.563  1.5348 -1.8256 -0.3555
  315MOL0     H42491  -1.483   9.855   5.950  0.0940  0.2110  1.1622
  315MOL0     H42492  -1.555  10.016   5.982 -0.6260  0.8981 -1.3973
  315MOL0     H42493  -1.710   9.845   6.009 -1.4022  0.4818 -0.3031
  315MOL0     H42494  -1.774   9.929   5.870 -1.9592 -2.4035 -0.3806
  315MOL0     H42495  -1.618   9.669   5.838  1.6299  1.5869 -2.3521
  315MOL0     H42496  -1.665   9.767   5.712 -1.3162 -1.1426 -0.4910
  315MOL0     H42497  -1.824   9.566   5.766 -0.3759 -0.6812  1.5011
  315MOL0     H42498  -1.876   9.649   5.913 -0.2045  1.4628 -0.1501
  315MOL0     H42499  -1.905   9.744   5.621  0.3085 -3.0999 -0.3340
  315MOL0     H42500  -1.944   9.860   5.742 -3.9469  0.6317 -4.1936
  315MOL0     H42501  -2.060   9.580   5.713 -2.2273 -0.6137  1.6542
  315MOL0     H42502  -2.074   9.704   5.849  0.2950  1.3320 -0.1863
  315MOL0     H42503  -2.159   9.758   5.550 -5.1052  1.7064 -0.9870
  315MOL0     H42504  -2.194   9.857   5.690 -3.0173 -0.2492 -0.9191
  315MOL0     H42505  -2.392   9.728   5.653 -0.4731  1.0280  2.1953
  315MOL0     H42506  -2.315   9.679   5.794  0.7852 -0.3152 -0.0714
  315MOL0     H42507  -1.317  10.009   5.979  0.3905  0.2599 -0.2891
  315MOL0     H42508  -1.095  10.025   5.955  0.4318  0.1178 -0.5179
  315MOL0     H42509  -0.771   9.926   5.636 -0.2947 -0.0542  0.8715
  315MOL0     H42510  -0.528   9.877   5.572  1.1008  1.3500 -1.6964
  315MOL0     H42511   0.649  10.168   4.550 -1.3295 -0.5813 -0.5988
  315MOL0     H42512   0.909  10.157   4.549  2.2883  0.6152 -1.4989
  315MOL0     H42513   1.293  10.091   4.308  0.1899  0.0988  0.4045
  315MOL0     H42514   1.535  10.148   4.386 -0.4556  0.3532 -1.5124
  315MOL0     H42515   1.676   9.939   4.739  0.7327  1.3089  0.7208
  315MOL0     H42516   1.767   9.850   4.610 -2.2919 -0.4537  0.3910
  315MOL0     H42517   1.899   9.984   4.791 -0.9629  0.0101  0.9542
  315MOL0     H42518   1.822  10.126   4.738 -1.4927 -1.8483  6.2778
  315MOL0     H42519   2.059  10.114   4.642 -0.0926 -1.2478 -0.6944
  315MOL0     H42520   1.949  10.073   4.510 -1.8249  0.6067 -0.6485
  315MOL0     H42521   1.978   9.838   4.557 -0.1747 -0.8594  0.2413
  315MOL0     H42522   2.076   9.879   4.706 -1.9825  4.4417  1.7647
  315MOL0     H42523   2.366   9.877   4.418 -1.2916  1.0135 -2.8979
  315MOL0     H42524   1.493   9.830   4.672 -2.8150  0.3060  0.4971
  315MOL0     H42525   1.280   9.771   4.584  2.4121 -1.1979 -0.3998
  316MOL0     O42526   7.023   9.518   2.571 -0.3331  0.3604  0.1403
  316MOL0     C42527   7.048   9.626   2.616 -0.4480 -0.7074  0.4692
  316MOL0     O42528   6.958   9.710   2.677  0.3434 -0.2910 -0.6719
  316MOL0     C42529   6.840   9.666   2.736  0.0444 -0.1730  0.8829
  316MOL0     C42530   6.810   9.529   2.759  0.7552  0.7874  0.8419
  316MOL0     C42531   6.690   9.491   2.816 -0.3081 -0.6854 -0.5443
  316MOL0     C42532   6.590   9.585   2.856  0.9999  0.3111  0.0946
  316MOL0     O42533   6.471   9.559   2.922 -0.2686  0.4462 -0.3123
  316MOL0     C42534   6.419   9.431   2.920 -0.7132  0.9110  0.4751
  316MOL0     C42535   6.366   9.384   2.782  0.4691 -0.2364 -0.1375
  316MOL0     C42536   6.292   9.489   2.700 -0.5974 -0.6102 -0.4407
  316MOL0     C42537   6.174   9.545   2.777  0.6920 -1.3176 -0.3922
  316MOL0     C42538   6.171   9.698   2.764 -0.0877  0.3303 -0.6466
  316MOL0     C42539   6.056   9.767   2.842 -0.0522  0.4193  0.2512
  316MOL0     C42540   5.919   9.709   2.822 -0.0859  0.1981  0.5604
  316MOL0     C42541   5.846   9.765   2.689 -0.5020  1.5641  0.1362
  316MOL0     N42542   5.700   9.773   2.709 -0.0363 -0.1709 -0.2199
  316MOL0     C42543   5.609   9.684   2.658  0.1654  0.3331  0.0928
  316MOL0     C42544   5.485   9.741   2.681  0.1225  1.1208 -0.0820
  316MOL0     C42545   5.362   9.667   2.644  0.4310  0.3344  0.8183
  316MOL0     C42546   5.243   9.691   2.741 -0.3780 -0.1743 -0.7146
  316MOL0     C42547   5.137   9.585   2.742  0.7527 -0.3296 -0.1440
  316MOL0     C42548   5.012   9.615   2.831 -0.5486 -0.1601  0.1163
  316MOL0     O42549   4.929   9.708   2.763 -0.7520  0.3364 -0.2798
  316MOL0     C42550   4.799   9.718   2.799 -0.0332  0.1685 -0.0369
  316MOL0     C42551   4.742   9.654   2.914  0.5807 -0.5043  0.0046
  316MOL0     C42552   4.596   9.672   2.929 -0.0297  1.1420 -1.4820
  316MOL0     C42553   4.546   9.627   3.071  0.3572  0.1146  0.4493
  316MOL0     C42554   4.510   9.722   2.825 -0.7172  0.0709  1.1457
  316MOL0     C42555   4.357   9.727   2.823  0.5714  1.0114  0.3835
  316MOL0     O42556   4.299   9.765   2.708 -0.2453 -0.0664 -0.3554
  316MOL0     C42557   4.172   9.822   2.708 -0.4116  0.5370 -0.1163
  316MOL0     C42558   4.094   9.869   2.816  0.5471 -0.3592 -0.2088
  316MOL0     C42559   3.963   9.919   2.802 -0.0969 -0.3594 -0.8375
  316MOL0     C42560   3.899   9.909   2.676  0.0999 -0.1068  0.2616
  316MOL0     O42561   3.768   9.960   2.673  0.7161  0.0468  0.2216
  316MOL0     C42562   3.689   9.962   2.553 -0.1420  0.6623  0.7040
  316MOL0     C42563   3.556  10.042   2.580  0.1540 -0.1311  0.3377
  316MOL0     C42564   3.474   9.973   2.689  1.0553  0.6364 -0.5637
  316MOL0     C42565   3.355  10.056   2.714  0.4810 -0.3246 -0.9995
  316MOL0     C42566   3.267   9.989   2.831 -0.6534 -0.0261  0.8823
  316MOL0     C42567   3.147  10.077   2.863 -0.4478 -0.4804  0.0319
  316MOL0     C42568   3.030  10.050   2.766 -0.8946  0.0903  0.7070
  316MOL0     C42569   2.908  10.118   2.818  1.9084  0.2126  0.1824
  316MOL0    Cl42570   2.940  10.275   2.904 -0.3247 -0.0253 -0.0716
  316MOL0     C42571   3.967   9.841   2.565 -0.0385 -0.9056 -0.8607
  316MOL0     C42572   4.103   9.816   2.586  0.4533  0.2162 -0.2537
  316MOL0     O42573   4.294   9.672   2.916 -0.5501 -0.4173  0.3718
  316MOL0     C42574   4.580   9.778   2.720  0.1143 -0.3029 -0.0852
  316MOL0     C42575   4.722   9.781   2.707 -0.1828  0.3760  0.3777
  316MOL0     N42576   5.501   9.862   2.746 -0.0800  0.0519 -0.1069
  316MOL0     N42577   5.630   9.872   2.774 -0.2379 -0.5995  0.3046
  316MOL0     C42578   6.622   9.720   2.841 -0.3679  0.6612 -0.1422
  316MOL0     C42579   6.741   9.758   2.775 -1.5329  0.4085 -0.5516
  316MOL0     C42580   7.189   9.674   2.601  0.4487  0.9405  0.3136
  316MOL0     C42581   7.295   9.593   2.595 -0.3554  0.5088  0.3040
  316MOL0     C42582   7.428   9.644   2.592  0.3634 -0.4693 -0.6308
  316MOL0     C42583   7.452   9.781   2.600 -0.0528 -0.4823 -0.6003
  316MOL0     O42584   7.583   9.815   2.595  0.2203 -0.3278  0.3546
  316MOL0     C42585   7.614   9.953   2.608 -0.4508  0.0594 -0.7339
  316MOL0     C42586   7.757   9.982   2.570 -0.8063  1.0159 -0.8137
  316MOL0     C42587   7.870   9.925   2.663 -0.0230  0.0723  0.2621
  316MOL0     C42588   7.841   9.956   2.808  0.3844  0.3421  0.3601
  316MOL0     C42589   7.929   9.887   2.904  0.7143 -0.0992  0.3098
  316MOL0     C42590   8.010   9.823   2.973  1.2279 -0.1721 -0.4252
  316MOL0     C42591   7.346   9.871   2.603  0.0505 -0.9668 -1.2994
  316MOL0     C42592   7.219   9.811   2.595 -0.3508 -0.0827 -0.2482
  316MOL0     H42593   6.876   9.450   2.723  2.8707  2.7153  0.2975
  316MOL0     H42594   6.671   9.385   2.808  3.8119 -1.6019 -0.5017
  316MOL0     H42595   6.503   9.371   2.956 -0.2459  1.0971 -0.2833
  316MOL0     H42596   6.342   9.424   2.997  0.6705  1.4566  1.9563
  316MOL0     H42597   6.444   9.333   2.724  0.7983  0.4835 -0.3411
  316MOL0     H42598   6.291   9.309   2.810 -1.4803  1.4929 -0.5130
  316MOL0     H42599   6.360   9.572   2.679 -0.2668  0.0781  2.8858
  316MOL0     H42600   6.256   9.440   2.609  2.8488 -1.1149 -1.6765
  316MOL0     H42601   6.084   9.494   2.741 -0.3341 -1.6002  2.3356
  316MOL0     H42602   6.187   9.521   2.882 -2.1371 -1.4269  0.0056
  316MOL0     H42603   6.266   9.736   2.804  0.5466 -2.7724  1.1063
  316MOL0     H42604   6.165   9.732   2.660  0.0826  1.0748 -0.4144
  316MOL0     H42605   6.082   9.742   2.946  2.7209 -2.0583 -0.8564
  316MOL0     H42606   6.066   9.874   2.826  5.3616  0.4019  1.4284
  316MOL0     H42607   5.914   9.600   2.813  1.1934  0.2033 -0.3150
  316MOL0     H42608   5.856   9.736   2.908 -1.7334 -0.8361 -0.2779
  316MOL0     H42609   5.874   9.719   2.593 -1.0069  2.3736 -0.4169
  316MOL0     H42610   5.898   9.859   2.670  1.9577  0.5439  1.4047
  316MOL0     H42611   5.624   9.598   2.593  0.8441  0.5936 -0.1014
  316MOL0     H42612   5.329   9.684   2.541  0.3114 -1.1124  0.5958
  316MOL0     H42613   5.377   9.560   2.659  3.8959  0.6527  0.3781
  316MOL0     H42614   5.195   9.786   2.714  1.1115  0.4353 -1.3422
  316MOL0     H42615   5.277   9.684   2.844  0.2618 -1.0667 -0.9703
  316MOL0     H42616   5.180   9.491   2.778  1.2975 -0.4745 -1.1274
  316MOL0     H42617   5.103   9.559   2.641  2.8782  1.3818 -1.3871
  316MOL0     H42618   5.042   9.666   2.924  1.4583 -2.0682  0.6094
  316MOL0     H42619   4.959   9.526   2.866  1.0780 -0.1504  2.9181
  316MOL0     H42620   4.799   9.620   3.000 -1.1137 -1.1221  0.9300
  316MOL0     H42621   4.485   9.537   3.066 -0.0309  0.4456 -0.9822
  316MOL0     H42622   4.628   9.617   3.144  0.5635  4.6000  1.1690
  316MOL0     H42623   4.481   9.704   3.115  0.5425  0.3576  0.3051
  316MOL0     H42624   4.142   9.893   2.911  0.7508 -1.8047  0.0807
  316MOL0     H42625   3.905   9.948   2.889  2.3844 -1.0559  1.1795
  316MOL0     H42626   3.745  10.011   2.473 -0.8379 -1.7586 -1.4211
  316MOL0     H42627   3.666   9.865   2.508 -3.7690  2.4546 -1.7788
  316MOL0     H42628   3.577  10.145   2.610  0.7275 -0.9272  2.8302
  316MOL0     H42629   3.498  10.054   2.487 -0.1363  1.1151  0.6555
  316MOL0     H42630   3.537   9.956   2.777  1.5221  1.6127 -0.6999
  316MOL0     H42631   3.439   9.877   2.650 -0.8907  1.3410 -0.6728
  316MOL0     H42632   3.380  10.157   2.749 -1.1513 -0.3075  0.2198
  316MOL0     H42633   3.293  10.063   2.624  0.1315  1.0197 -0.6874
  316MOL0     H42634   3.334   9.989   2.918  3.9175  0.0746 -2.2443
  316MOL0     H42635   3.231   9.892   2.794  1.0977 -0.0419 -0.9880
  316MOL0     H42636   3.118  10.037   2.961  0.7195  0.3004  0.7179
  316MOL0     H42637   3.162  10.184   2.878 -1.2325 -0.7230  3.1175
  316MOL0     H42638   3.009   9.943   2.754 -1.1570  0.2242 -0.0433
  316MOL0     H42639   3.062  10.089   2.669 -2.5377  0.4399  0.2824
  316MOL0     H42640   2.858  10.047   2.885 -0.7387  0.3470 -1.5109
  316MOL0     H42641   2.842  10.136   2.733  1.7818 -4.5807 -1.0632
  316MOL0     H42642   3.912   9.834   2.472  0.1470  1.1502 -1.1642
  316MOL0     H42643   4.169   9.779   2.509  0.3948  0.0380 -0.2183
  316MOL0     H42644   4.524   9.819   2.636 -3.1276 -0.5897  1.8035
  316MOL0     H42645   4.767   9.822   2.618  0.7869 -0.8667  0.2626
  316MOL0     H42646   6.541   9.784   2.875  0.4266 -0.0285  3.3611
  316MOL0     H42647   6.759   9.864   2.762  0.5586  0.1241 -0.3937
  316MOL0     H42648   7.284   9.485   2.591  1.0009  0.4048 -1.2777
  316MOL0     H42649   7.516   9.580   2.585 -0.7884 -1.9211 -4.1966
  316MOL0     H42650   7.554  10.020   2.547 -1.1330  3.2456  3.0500
  316MOL0     H42651   7.588   9.978   2.712 -0.8725 -0.0239 -0.8202
  316MOL0     H42652   7.770  10.090   2.578  0.8982  0.8037 -0.1825
  316MOL0     H42653   7.778   9.946   2.469 -0.4105 -1.0021 -0.0526
  316MOL0     H42654   7.967   9.971   2.644 -0.0723 -0.1096 -0.4559
  316MOL0     H42655   7.874   9.817   2.646 -3.7898 -0.2439  0.6435
  316MOL0     H42656   7.737   9.940   2.837  0.1845  0.4774 -0.2652
  316MOL0     H42657   7.857  10.064   2.810  0.4515  0.3569  3.2233
  316MOL0     H42658   8.067   9.758   3.036  2.8765  1.8079  0.2440
  316MOL0     H42659   7.359   9.979   2.604  0.8982 -1.0030  1.2595
  316MOL0     H42660   7.140   9.885   2.590  0.1790  1.0578  3.9734
  317MOL0     O42661   9.695  10.227   8.289 -0.3949  0.1822  0.7404
  317MOL0     C42662   9.781  10.158   8.230  0.8185  0.0466  0.1612
  317MOL0     O42663   9.750  10.042   8.154 -0.0948  0.0110 -0.4839
  317MOL0     C42664   9.622  10.013   8.127 -0.0933  0.2167  0.0883
  317MOL0     C42665   9.523  10.118   8.101 -0.3111  0.8446  0.2475
  317MOL0     C42666   9.395  10.077   8.055 -0.0465  0.4658 -0.7602
  317MOL0     C42667   9.359   9.942   8.053 -0.3000  0.0587  0.4649
  317MOL0     O42668   9.241   9.885   8.015 -0.4491 -0.7464 -0.4912
  317MOL0     C42669   9.127   9.964   8.046  0.3562  0.6768  0.2692
  317MOL0     C42670   9.003   9.879   8.009  0.2318  1.5363  0.6581
  317MOL0     C42671   8.893   9.982   7.960 -0.5578  0.5777 -0.2314
  317MOL0     C42672   8.751   9.919   7.948  0.0469  0.8407  0.5042
  317MOL0     C42673   8.699   9.843   8.067  0.2332 -0.5084  0.6448
  317MOL0     C42674   8.681   9.922   8.199  0.6212  0.4784  0.7165
  317MOL0     C42675   8.661   9.819   8.308  0.1311 -0.3172  0.1037
  317MOL0     C42676   8.665   9.879   8.440 -0.1499 -1.1194 -0.0963
  317MOL0     N42677   8.577   9.995   8.464  0.2907  0.5118  0.1578
  317MOL0     C42678   8.447   9.997   8.511 -0.1398  0.9568  1.0731
  317MOL0     C42679   8.423  10.124   8.539 -0.4734  0.0995  0.3269
  317MOL0     C42680   8.289  10.164   8.600 -0.4713  0.6174  0.0419
  317MOL0     C42681   8.174  10.161   8.498  0.1943  0.0939 -0.6129
  317MOL0     C42682   8.056  10.245   8.552 -0.1466 -0.7283  0.2695
  317MOL0     C42683   7.926  10.237   8.472  0.4428 -0.6170  1.5294
  317MOL0     O42684   7.875  10.092   8.475 -0.3286 -0.5169 -0.0029
  317MOL0     C42685   7.741  10.079   8.497  0.5065  0.1509 -0.9493
  317MOL0     C42686   7.641  10.097   8.400 -0.4849 -0.1196  0.3013
  317MOL0     C42687   7.510  10.076   8.427  0.5503  0.4489 -0.1313
  317MOL0     C42688   7.405  10.097   8.316 -0.5772 -0.4103 -0.9514
  317MOL0     C42689   7.462  10.036   8.558 -0.2120  1.3582  0.8153
  317MOL0     C42690   7.320  10.023   8.604  0.5683  0.3128  0.4012
  317MOL0     O42691   7.281   9.911   8.680  0.5225  0.1226  0.8048
  317MOL0     C42692   7.150   9.905   8.729  0.2220  0.1847  0.5092
  317MOL0     C42693   7.051   9.832   8.662 -0.4377 -0.1890 -0.3737
  317MOL0     C42694   6.912   9.856   8.696 -0.5963 -0.5013 -0.6492
  317MOL0     C42695   6.877   9.915   8.818 -0.4726  0.1411  0.1723
  317MOL0     O42696   6.742   9.933   8.854  0.1562  0.4536 -0.4312
  317MOL0     C42697   6.717   9.971   8.998 -0.3347  0.0921 -0.6093
  317MOL0     C42698   6.566   9.963   9.017 -0.3103  0.5695 -0.7991
  317MOL0     C42699   6.480  10.025   8.909 -0.0191  0.3784  0.2104
  317MOL0     C42700   6.364  10.092   8.975  0.0523 -0.1861 -0.0204
  317MOL0     C42701   6.298  10.203   8.890  1.1316 -0.1870 -0.4696
  317MOL0     C42702   6.181  10.277   8.966 -0.2922 -0.0050  0.4754
  317MOL0     C42703   6.150  10.409   8.891 -0.6898  0.2201  0.3354
  317MOL0     C42704   6.020  10.472   8.930 -0.0489 -0.2439 -0.4950
  317MOL0    Cl42705   5.871  10.388   8.876 -0.0243 -0.2421  0.0153
  317MOL0     C42706   6.981   9.983   8.892  0.5627  0.7937 -0.3141
  317MOL0     C42707   7.110   9.975   8.841  0.0890 -0.0083 -0.3538
  317MOL0     O42708   7.255  10.126   8.585 -0.0753 -0.5078 -0.9058
  317MOL0     C42709   7.569  10.012   8.647  0.2086  0.1902 -0.3192
  317MOL0     C42710   7.701  10.043   8.623  0.3262 -0.4370  0.6355
  317MOL0     N42711   8.529  10.203   8.504 -0.0683 -0.3113  1.0020
  317MOL0     N42712   8.622  10.124   8.474  0.0679  0.2810  0.0727
  317MOL0     C42713   9.458   9.848   8.093  0.6607  0.7737  0.2641
  317MOL0     C42714   9.586   9.880   8.121 -0.3725 -0.5401  0.6393
  317MOL0     C42715   9.924  10.175   8.259  0.0886 -0.2508 -0.5262
  317MOL0     C42716   9.962  10.251   8.372  0.3762  0.0899 -0.5858
  317MOL0     C42717  10.099  10.249   8.412 -0.1832 -0.2451 -0.5284
  317MOL0     C42718  10.195  10.185   8.335 -0.3082  0.0932  0.5527
  317MOL0     O42719  10.322  10.194   8.392 -0.5043 -0.8173  0.5092
  317MOL0     C42720  10.435  10.117   8.337 -0.0819  0.5834 -0.5809
  317MOL0     C42721  10.560  10.159   8.406  0.0332 -0.1021 -0.7608
  317MOL0     C42722  10.682  10.097   8.341 -0.6585  0.4188 -0.6587
  317MOL0     C42723  10.811  10.176   8.376  0.0785 -0.0723  0.5889
  317MOL0     C42724  10.932  10.123   8.303  0.8403 -0.8302  0.6541
  317MOL0     C42725  11.029  10.074   8.258  0.4122  0.4088 -0.2589
  317MOL0     C42726  10.158  10.110   8.222  0.0832  0.7056 -0.4068
  317MOL0     C42727  10.020  10.107   8.179 -0.1912 -1.1244 -0.5641
  317MOL0     H42728   9.552  10.222   8.096  1.6426  0.3029 -0.7058
  317MOL0     H42729   9.330  10.157   8.023 -0.7916  0.0592 -0.2919
  317MOL0     H42730   9.133   9.970   8.155  2.2054 -4.9880  0.8382
  317MOL0     H42731   9.134  10.062   7.998 -0.7187 -0.1806 -1.7566
  317MOL0     H42732   9.023   9.797   7.939  1.2551  0.9381  1.6327
  317MOL0     H42733   8.977   9.826   8.100  0.6100  1.9052  0.9847
  317MOL0     H42734   8.888  10.061   8.034  1.5807 -1.2936  2.0877
  317MOL0     H42735   8.910  10.031   7.863  1.6932  0.7730  0.2157
  317MOL0     H42736   8.686  10.003   7.923 -0.2534  1.2821  2.5406
  317MOL0     H42737   8.759   9.847   7.866 -3.6753 -1.8003  2.1975
  317MOL0     H42738   8.610   9.784   8.043  1.4962 -2.4307  0.4855
  317MOL0     H42739   8.785   9.776   8.076  0.5571 -0.2570 -0.5067
  317MOL0     H42740   8.767   9.987   8.221  1.0141  0.4479 -0.6245
  317MOL0     H42741   8.589   9.980   8.189  2.0285  2.4817 -2.3823
  317MOL0     H42742   8.562   9.774   8.296 -0.3159  0.2377  1.4751
  317MOL0     H42743   8.730   9.734   8.308 -1.7105 -1.8830  0.7274
  317MOL0     H42744   8.763   9.923   8.457  0.8104 -0.7871 -5.1285
  317MOL0     H42745   8.647   9.800   8.515 -0.2777 -0.7504  0.2646
  317MOL0     H42746   8.382   9.914   8.537  0.4083  0.0314 -0.3342
  317MOL0     H42747   8.262  10.089   8.674  0.3375 -3.3074 -3.2933
  317MOL0     H42748   8.294  10.259   8.655  0.6024  0.9675 -0.6243
  317MOL0     H42749   8.135  10.064   8.466 -1.3568  1.1678 -2.1672
  317MOL0     H42750   8.204  10.202   8.401  0.9178 -1.6512 -1.1699
  317MOL0     H42751   8.090  10.348   8.561 -0.0787 -0.7604  0.3992
  317MOL0     H42752   8.030  10.226   8.657 -1.2189  2.4175  0.6539
  317MOL0     H42753   7.933  10.267   8.367  3.4810  0.3761  1.9055
  317MOL0     H42754   7.848  10.300   8.517 -3.0081 -3.1994 -0.3559
  317MOL0     H42755   7.665  10.146   8.307 -0.9522  1.0390  0.7693
  317MOL0     H42756   7.454  10.122   8.221 -2.7106 -2.6428 -2.7598
  317MOL0     H42757   7.348  10.009   8.283  0.1883 -1.2581 -0.0504
  317MOL0     H42758   7.332  10.174   8.344 -0.6978 -0.1227 -2.0099
  317MOL0     H42759   7.072   9.773   8.572  0.0951  0.1584 -0.4806
  317MOL0     H42760   6.838   9.802   8.638 -0.6615  0.6868 -1.7168
  317MOL0     H42761   6.773   9.905   9.065 -2.6570 -0.8739  0.4648
  317MOL0     H42762   6.744  10.076   9.017 -0.6605  0.4558 -2.0423
  317MOL0     H42763   6.554   9.855   9.022  1.1569  0.1335 -3.9517
  317MOL0     H42764   6.542  10.011   9.112  0.6709  0.2581 -0.3834
  317MOL0     H42765   6.444   9.947   8.842 -0.8874 -0.5585  1.7034
  317MOL0     H42766   6.539  10.101   8.857  1.1819 -0.8457 -0.2694
  317MOL0     H42767   6.298  10.016   9.018  1.5592 -1.1095  0.7456
  317MOL0     H42768   6.397  10.156   9.058  0.8480  1.0555 -1.2392
  317MOL0     H42769   6.250  10.155   8.804 -0.7562 -1.7612  1.3497
  317MOL0     H42770   6.368  10.272   8.842  0.5201 -0.0208 -1.1372
  317MOL0     H42771   6.089  10.218   8.966 -1.0239  0.9768 -2.3261
  317MOL0     H42772   6.210  10.294   9.070  0.2708  3.1069 -0.0805
  317MOL0     H42773   6.139  10.382   8.786  2.1782 -0.1856  0.0514
  317MOL0     H42774   6.239  10.472   8.903  0.4909 -0.9164 -1.9148
  317MOL0     H42775   6.012  10.570   8.882 -2.7591 -1.0572 -1.9622
  317MOL0     H42776   6.020  10.498   9.037 -0.9449  2.4174 -1.0698
  317MOL0     H42777   6.967  10.044   8.980  0.9884 -0.4045  0.6098
  317MOL0     H42778   7.192  10.019   8.895  0.6559 -4.0515  2.5262
  317MOL0     H42779   7.552   9.999   8.754  0.2949  2.1967 -0.0293
  317MOL0     H42780   7.776  10.046   8.702  1.1678  2.0951 -0.1650
  317MOL0     H42781   9.442   9.741   8.087  3.5684  0.3183 -0.8094
  317MOL0     H42782   9.665   9.807   8.136 -0.1610 -0.6116 -0.6480
  317MOL0     H42783   9.892  10.322   8.416  2.3589  3.7947 -2.9346
  317MOL0     H42784  10.140  10.309   8.493  0.1829 -0.2225 -0.7322
  317MOL0     H42785  10.414  10.012   8.360 -2.3206  1.0915 -0.1365
  317MOL0     H42786  10.448  10.117   8.228  1.7052  0.1981 -0.4002
  317MOL0     H42787  10.558  10.140   8.514 -0.7267  0.0325 -0.7498
  317MOL0     H42788  10.553  10.267   8.388 -0.7769  0.0473  0.3967
  317MOL0     H42789  10.661  10.081   8.235 -1.6039 -1.7948 -0.1959
  317MOL0     H42790  10.687   9.996   8.384 -1.0061  1.4137  1.8956
  317MOL0     H42791  10.836  10.190   8.481  1.1370  0.4854  0.2767
  317MOL0     H42792  10.788  10.277   8.341 -0.6997  0.5965  2.9188
  317MOL0     H42793  11.112  10.014   8.228  0.3977  0.8479 -1.1952
  317MOL0     H42794  10.228  10.064   8.154  1.1012  1.8103 -0.1597
  317MOL0     H42795   9.999  10.055   8.087  0.2685  2.7221 -3.0475
  318MOL0     O42796   0.840   7.116   5.863  0.2271  0.4132 -0.2792
  318MOL0     C42797   0.821   7.222   5.918 -0.2629 -0.0874 -0.4892
  318MOL0     O42798   0.912   7.317   5.928  0.4768 -0.0289 -0.0709
  318MOL0     C42799   1.036   7.302   5.880  0.1093  0.9357 -0.0517
  318MOL0     C42800   1.115   7.184   5.921 -0.6254 -0.4141  0.8361
  318MOL0     C42801   1.249   7.174   5.886  0.6748 -0.3642 -0.0390
  318MOL0     C42802   1.307   7.285   5.812  0.2318 -0.6715 -0.1475
  318MOL0     O42803   1.438   7.286   5.777 -0.0116  0.3910 -0.3365
  318MOL0     C42804   1.462   7.207   5.660  0.4218  0.1029  0.4479
  318MOL0     C42805   1.605   7.153   5.652  0.3377  0.1532  0.1825
  318MOL0     C42806   1.640   7.062   5.771  0.3901 -0.3950 -0.2277
  318MOL0     C42807   1.791   7.046   5.784 -0.2604 -0.5180 -0.5229
  318MOL0     C42808   1.847   6.962   5.679 -0.1437  0.0713  0.0346
  318MOL0     C42809   1.998   6.942   5.692 -0.3013  0.1135  0.2187
  318MOL0     C42810   2.081   7.070   5.720 -0.9435  0.0822  0.3127
  318MOL0     C42811   2.225   7.043   5.684  0.5784  0.4483 -0.3524
  318MOL0     N42812   2.288   6.965   5.785  0.0953  0.2057 -0.1852
  318MOL0     C42813   2.283   6.832   5.816 -0.0514 -0.4108 -1.0629
  318MOL0     C42814   2.362   6.818   5.931 -1.0859  0.1474  1.1900
  318MOL0     C42815   2.377   6.693   6.007  0.0676 -0.4863 -0.0359
  318MOL0     C42816   2.367   6.719   6.160  0.0163 -0.0075  0.7867
  318MOL0     C42817   2.243   6.796   6.197 -0.9683  0.6708 -0.5951
  318MOL0     C42818   2.118   6.718   6.162 -0.6218  0.2364  0.5425
  318MOL0     O42819   1.997   6.787   6.209  0.6615 -0.7963  0.4261
  318MOL0     C42820   1.878   6.735   6.164 -0.0977 -0.1400  0.3638
  318MOL0     C42821   1.858   6.598   6.145 -0.1260  0.1834 -0.4182
  318MOL0     C42822   1.736   6.548   6.097 -0.0414 -0.8013  0.8336
  318MOL0     C42823   1.722   6.394   6.083  0.3812 -0.1489  0.0060
  318MOL0     C42824   1.632   6.646   6.070 -0.3834  0.1313  0.1290
  318MOL0     C42825   1.484   6.611   6.038 -1.1275 -0.3320  0.9538
  318MOL0     O42826   1.408   6.712   5.974  0.4356  0.7316 -0.1631
  318MOL0     C42827   1.275   6.688   5.944  0.0863  0.2683 -0.6174
  318MOL0     C42828   1.227   6.562   5.897  0.1915 -0.8052  0.5921
  318MOL0     C42829   1.093   6.545   5.872  0.2511 -0.2728 -0.8163
  318MOL0     C42830   0.999   6.645   5.894  0.1718  0.2729  0.2836
  318MOL0     O42831   0.866   6.609   5.881  0.1963  0.3623 -0.1387
  318MOL0     C42832   0.769   6.719   5.892 -0.2724  0.3256 -0.2700
  318MOL0     C42833   0.646   6.665   5.816 -0.4296  0.8224 -0.3890
  318MOL0     C42834   0.508   6.705   5.879  0.0808  0.3733 -0.4311
  318MOL0     C42835   0.497   6.648   6.019  0.5354 -0.5919 -1.0053
  318MOL0     C42836   0.355   6.623   6.062 -0.7047 -0.6876 -0.1047
  318MOL0     C42837   0.281   6.751   6.094  0.4265 -0.5414  0.8752
  318MOL0     C42838   0.132   6.733   6.139  0.0871  0.0761  0.0223
  318MOL0     C42839   0.050   6.856   6.128 -0.3045 -0.4967  1.1683
  318MOL0    Cl42840  -0.099   6.854   6.208  0.2603  0.1528 -0.5149
  318MOL0     C42841   1.045   6.769   5.949 -0.4775  0.2794  0.3178
  318MOL0     C42842   1.186   6.791   5.974  0.4539  0.7663 -0.0656
  318MOL0     O42843   1.443   6.497   6.059 -0.3395  0.2046  0.9418
  318MOL0     C42844   1.655   6.783   6.089 -0.3850  0.3714 -0.1088
  318MOL0     C42845   1.781   6.826   6.136  0.1230  0.5178  0.1999
  318MOL0     N42846   2.422   6.950   5.952  0.7641  0.4438  0.4079
  318MOL0     N42847   2.376   7.028   5.860  0.0118  0.1204 -0.1132
  318MOL0     C42848   1.230   7.388   5.769  0.5417 -0.3357 -0.7447
  318MOL0     C42849   1.090   7.402   5.804 -0.2102 -0.0349 -0.4164
  318MOL0     C42850   0.675   7.246   5.952  0.1042  0.2497  0.1896
  318MOL0     C42851   0.633   7.364   6.017  0.0620  0.5070  0.2298
  318MOL0     C42852   0.495   7.380   6.028  0.9760 -0.9187  1.3728
  318MOL0     C42853   0.391   7.295   5.987  0.1278  0.6028  0.0608
  318MOL0     O42854   0.269   7.341   5.997  0.1010 -0.7295  0.0181
  318MOL0     C42855   0.167   7.248   6.032  0.5672 -0.0761  0.0567
  318MOL0     C42856   0.075   7.309   6.144 -0.3565 -0.1278  0.8138
  318MOL0     C42857   0.142   7.324   6.280 -0.0194  0.4885 -0.0059
  318MOL0     C42858   0.062   7.399   6.391 -0.5715 -0.4618 -0.0195
  318MOL0     C42859  -0.070   7.348   6.414  0.1076  0.2050 -0.1422
  318MOL0     C42860  -0.167   7.293   6.430  0.2571  0.2165 -0.0041
  318MOL0     C42861   0.434   7.167   5.956  0.7849 -0.3029  0.4193
  318MOL0     C42862   0.576   7.151   5.925  0.9580 -0.0996  0.7780
  318MOL0     H42863   1.082   7.119   6.002 -0.6397 -0.2790  0.9384
  318MOL0     H42864   1.320   7.104   5.929 -0.0917  0.8745  3.6924
  318MOL0     H42865   1.389   7.126   5.674 -0.2378  0.4866 -0.6888
  318MOL0     H42866   1.434   7.255   5.566  0.5460 -1.1740 -0.2730
  318MOL0     H42867   1.632   7.111   5.554  0.5726 -0.7816  0.6414
  318MOL0     H42868   1.669   7.241   5.656  0.8665 -0.1323 -1.3420
  318MOL0     H42869   1.609   7.096   5.870 -2.0660 -3.1819  0.0830
  318MOL0     H42870   1.588   6.966   5.760  0.3677 -0.5191  0.8237
  318MOL0     H42871   1.832   7.147   5.781  0.8494 -0.7723  2.3867
  318MOL0     H42872   1.812   7.006   5.884 -2.5758  2.0013  1.1497
  318MOL0     H42873   1.793   6.868   5.689 -2.9383  1.5864  0.1784
  318MOL0     H42874   1.824   7.011   5.584  0.9357 -1.2662 -0.9486
  318MOL0     H42875   2.020   6.881   5.780 -0.1558  0.5284  0.4738
  318MOL0     H42876   2.041   6.897   5.602  2.4014  2.4374  0.1951
  318MOL0     H42877   2.037   7.147   5.656  0.2779  0.9023  0.4341
  318MOL0     H42878   2.068   7.092   5.827  1.7991  0.6878  0.5807
  318MOL0     H42879   2.266   7.143   5.668 -1.0414  1.0248 -1.1147
  318MOL0     H42880   2.239   6.986   5.592  0.6344 -1.6682  0.8933
  318MOL0     H42881   2.223   6.753   5.771  0.1534 -1.5730  0.6008
  318MOL0     H42882   2.298   6.625   5.975  0.6727 -1.3174  0.1945
  318MOL0     H42883   2.474   6.645   5.989  1.2251  1.5259  0.5583
  318MOL0     H42884   2.450   6.783   6.192 -0.4794  0.2886  1.5267
  318MOL0     H42885   2.383   6.629   6.219 -0.8380 -1.4494 -1.0890
  318MOL0     H42886   2.239   6.886   6.134  2.2864 -0.1592 -2.1675
  318MOL0     H42887   2.245   6.822   6.303  1.6604  0.2337 -0.4923
  318MOL0     H42888   2.127   6.612   6.187 -4.3483 -0.7279 -1.4157
  318MOL0     H42889   2.120   6.721   6.053  0.2026  0.2664  0.5532
  318MOL0     H42890   1.934   6.527   6.176 -1.3484 -0.7050  0.7132
  318MOL0     H42891   1.658   6.350   6.161  0.5081  0.4965  0.4851
  318MOL0     H42892   1.680   6.368   5.986  0.4965  0.4791 -0.2194
  318MOL0     H42893   1.816   6.340   6.091  0.5775  0.1347 -0.3637
  318MOL0     H42894   1.298   6.481   5.884  0.1207 -0.6040 -1.3071
  318MOL0     H42895   1.063   6.442   5.858  2.1351 -1.0087  0.1376
  318MOL0     H42896   0.747   6.741   5.997 -0.2403  2.0171 -0.5870
  318MOL0     H42897   0.802   6.806   5.835 -1.4649  0.9770 -0.0022
  318MOL0     H42898   0.642   6.711   5.717  1.5445 -1.4783 -1.6425
  318MOL0     H42899   0.638   6.556   5.809 -2.6651  0.7726  1.6140
  318MOL0     H42900   0.424   6.668   5.818  0.2923  0.3772 -0.7255
  318MOL0     H42901   0.504   6.814   5.884  2.8480  0.6055 -1.6736
  318MOL0     H42902   0.548   6.551   6.021  0.9248 -0.3843 -0.2791
  318MOL0     H42903   0.543   6.710   6.097 -0.7942  1.5691 -1.8409
  318MOL0     H42904   0.355   6.568   6.156  1.3863  0.6244  0.7511
  318MOL0     H42905   0.307   6.561   5.986  0.5193 -2.7180  0.6968
  318MOL0     H42906   0.329   6.810   6.172  1.1057 -0.2735  0.2647
  318MOL0     H42907   0.280   6.813   6.004  5.6351 -0.7806  0.3678
  318MOL0     H42908   0.128   6.713   6.246 -0.9315  1.1207  0.2065
  318MOL0     H42909   0.084   6.654   6.080 -2.1721 -0.5898  2.5525
  318MOL0     H42910   0.025   6.879   6.024  0.7078 -1.6633  0.6392
  318MOL0     H42911   0.113   6.938   6.164  3.6741 -3.5839  1.9631
  318MOL0     H42912   0.973   6.850   5.956  0.1727  1.0740 -1.6092
  318MOL0     H42913   1.227   6.884   6.012  4.0185 -1.4255  1.9465
  318MOL0     H42914   1.570   6.851   6.091 -1.6850 -1.0195  4.2130
  318MOL0     H42915   1.797   6.933   6.144 -1.4304  0.7168  1.0286
  318MOL0     H42916   1.288   7.464   5.717  1.2894  1.6495  2.6966
  318MOL0     H42917   1.039   7.494   5.779  2.6124  1.5787 -0.5847
  318MOL0     H42918   0.709   7.434   6.051 -0.0887  1.6564 -1.6252
  318MOL0     H42919   0.461   7.478   6.062 -0.5185 -1.3024  1.0956
  318MOL0     H42920   0.102   7.232   5.946  1.3566 -4.2857  0.0299
  318MOL0     H42921   0.194   7.149   6.070 -1.4522 -1.5318 -2.0100
  318MOL0     H42922  -0.018   7.253   6.156 -2.6805  2.5325 -2.5952
  318MOL0     H42923   0.063   7.413   6.115  1.2743  0.3206  1.5883
  318MOL0     H42924   0.232   7.385   6.272  0.9260 -0.6235  1.5742
  318MOL0     H42925   0.171   7.224   6.314 -0.5075  0.4803  0.4110
  318MOL0     H42926   0.057   7.500   6.350 -1.1597 -0.8976 -1.0670
  318MOL0     H42927   0.121   7.412   6.482 -1.1964 -0.5443  0.4108
  318MOL0     H42928  -0.248   7.224   6.440  0.6375 -0.6145 -2.0870
  318MOL0     H42929   0.375   7.078   5.939  1.0185 -0.8361  2.1971
  318MOL0     H42930   0.600   7.055   5.883 -2.3369 -1.0345  0.7339
  319MOL0     O42931   9.184   8.613   4.472  0.5564 -0.1025 -0.6775
  319MOL0     C42932   9.198   8.666   4.585  0.9979  0.0744  0.3319
  319MOL0     O42933   9.298   8.757   4.613  0.8428 -0.3410  0.1238
  319MOL0     C42934   9.422   8.754   4.537 -0.2878 -0.6328 -0.6058
  319MOL0     C42935   9.501   8.871   4.573  0.3811  0.3212  0.4682
  319MOL0     C42936   9.621   8.896   4.500  0.2278  0.4486  0.4888
  319MOL0     C42937   9.664   8.821   4.393  0.2139 -0.2966  0.3867
  319MOL0     O42938   9.767   8.868   4.319  1.1336  0.1418  0.0667
  319MOL0     C42939   9.847   8.782   4.248 -0.4309 -0.1744 -1.4569
  319MOL0     C42940   9.983   8.842   4.225  0.7744 -0.5139 -0.3142
  319MOL0     C42941   9.970   8.973   4.148  0.5257  0.2452 -0.1609
  319MOL0     C42942  10.091   9.062   4.142 -0.8514  0.0855  0.0932
  319MOL0     C42943  10.224   9.009   4.097 -0.2017 -0.8595  0.2439
  319MOL0     C42944  10.206   8.980   3.947  0.1800  0.7627 -0.2092
  319MOL0     C42945  10.328   8.901   3.880  0.6198 -0.1384  0.4715
  319MOL0     C42946  10.467   8.947   3.914  0.7924 -0.0648  0.3441
  319MOL0     N42947  10.495   9.087   3.886 -0.1761  0.2711 -0.7495
  319MOL0     C42948  10.479   9.144   3.762  0.7723  0.3032  1.0546
  319MOL0     C42949  10.536   9.262   3.779 -0.2704  0.7470 -0.2767
  319MOL0     C42950  10.561   9.357   3.673  0.1129 -0.2270 -0.3061
  319MOL0     C42951  10.452   9.464   3.663 -0.3825 -0.4165  0.3443
  319MOL0     C42952  10.338   9.398   3.587  0.6867 -0.3525  1.3991
  319MOL0     C42953  10.219   9.493   3.554 -0.7914 -0.5910  0.3446
  319MOL0     O42954  10.115   9.422   3.481  0.1048  0.4898  0.1906
  319MOL0     C42955   9.998   9.495   3.458  0.1586  0.2699  0.1401
  319MOL0     C42956   9.914   9.443   3.361  0.4999 -0.7043  0.4517
  319MOL0     C42957   9.786   9.498   3.327 -1.1258 -0.1557  0.1444
  319MOL0     C42958   9.689   9.429   3.225 -0.2263 -0.1268  0.6761
  319MOL0     C42959   9.740   9.608   3.400 -0.2562 -0.6945 -0.0214
  319MOL0     C42960   9.614   9.681   3.379  0.4965  0.6398  0.4340
  319MOL0     O42961   9.497   9.608   3.370  0.1174 -0.0446  0.2513
  319MOL0     C42962   9.379   9.676   3.384 -0.1587  0.5467  0.3959
  319MOL0     C42963   9.281   9.644   3.290 -0.4939 -0.5177  0.3608
  319MOL0     C42964   9.165   9.722   3.291 -0.6126  0.1220  0.3132
  319MOL0     C42965   9.140   9.816   3.395  0.0462 -0.4174  0.3747
  319MOL0     O42966   9.009   9.854   3.409 -0.2532  0.4103 -0.7718
  319MOL0     C42967   8.975   9.973   3.487  0.2549  0.5306 -0.2535
  319MOL0     C42968   8.821   9.986   3.485 -0.7219  0.4763 -0.3194
  319MOL0     C42969   8.779  10.102   3.571 -0.3914 -0.5384 -0.3285
  319MOL0     C42970   8.626  10.121   3.562 -0.2077  0.7346 -0.5546
  319MOL0     C42971   8.576  10.220   3.673  0.1148 -0.1612 -0.2777
  319MOL0     C42972   8.420  10.199   3.693  0.0974  0.7249  0.0767
  319MOL0     C42973   8.368  10.293   3.804  0.0029  0.5234  0.8295
  319MOL0     C42974   8.215  10.265   3.826 -0.0185  0.9219 -0.1403
  319MOL0    Cl42975   8.166  10.391   3.943 -0.3339  0.6480  0.4503
  319MOL0     C42976   9.237   9.843   3.488 -0.1831 -0.3021  0.8216
  319MOL0     C42977   9.359   9.778   3.479 -0.4610  0.6886  0.0385
  319MOL0     O42978   9.618   9.802   3.349  0.0367  0.2499  0.0765
  319MOL0     C42979   9.830   9.654   3.500 -0.6808 -0.2072  0.0029
  319MOL0     C42980   9.960   9.608   3.525  0.3957 -0.3436  0.1235
  319MOL0     N42981  10.595   9.279   3.906 -0.3027  0.7976  0.4515
  319MOL0     N42982  10.576   9.161   3.967  0.1936 -0.5811 -0.8659
  319MOL0     C42983   9.591   8.696   4.373  0.5580  0.2418  0.3161
  319MOL0     C42984   9.474   8.663   4.439 -0.8424 -0.4060  0.5991
  319MOL0     C42985   9.084   8.639   4.675 -0.0669 -0.1647  0.7054
  319MOL0     C42986   9.094   8.685   4.808  0.6262  0.4736  0.1314
  319MOL0     C42987   8.980   8.657   4.890 -0.2383 -0.5223 -0.2245
  319MOL0     C42988   8.858   8.605   4.850 -0.6881  0.0705  0.0552
  319MOL0     O42989   8.763   8.594   4.945 -1.0303  0.6167  0.1594
  319MOL0     C42990   8.628   8.570   4.902 -0.6448 -0.4066  0.7744
  319MOL0     C42991   8.543   8.563   5.028  0.1474 -0.5414  0.1646
  319MOL0     C42992   8.578   8.668   5.135 -0.0052 -0.0442 -0.5677
  319MOL0     C42993   8.488   8.659   5.254  0.2154 -0.7219  0.0973
  319MOL0     C42994   8.354   8.711   5.214 -0.6525 -0.2885 -0.7018
  319MOL0     C42995   8.246   8.753   5.175  0.8418 -0.4199  0.4848
  319MOL0     C42996   8.849   8.554   4.721 -0.0184  1.2634 -1.3816
  319MOL0     C42997   8.962   8.570   4.638  0.3885 -0.3904  0.9114
  319MOL0     H42998   9.466   8.945   4.644 -2.4513 -0.6320  0.2023
  319MOL0     H42999   9.681   8.982   4.529  1.2434 -0.1423  0.2028
  319MOL0     H43000   9.866   8.690   4.304  1.5491  1.4418  0.6905
  319MOL0     H43001   9.797   8.765   4.151 -2.0144  2.4951 -1.2124
  319MOL0     H43002  10.032   8.854   4.323  1.7734  1.2466 -0.9907
  319MOL0     H43003  10.043   8.769   4.169  0.0526 -0.8852 -0.6083
  319MOL0     H43004   9.932   8.953   4.047  3.7062 -1.1878 -1.2042
  319MOL0     H43005   9.890   9.031   4.195 -0.2924 -1.5944  0.8152
  319MOL0     H43006  10.055   9.143   4.078 -0.7785  0.5779  0.6631
  319MOL0     H43007  10.104   9.106   4.242  0.5038 -2.2426  1.0096
  319MOL0     H43008  10.313   9.070   4.117  2.2192 -4.3925  1.2465
  319MOL0     H43009  10.245   8.922   4.160  0.6693  0.0853  1.3123
  319MOL0     H43010  10.109   8.931   3.934  0.5620 -0.0417 -0.1241
  319MOL0     H43011  10.199   9.076   3.897 -3.1518  0.3599 -0.7574
  319MOL0     H43012  10.334   8.794   3.903  0.6376 -0.3433 -0.4537
  319MOL0     H43013  10.312   8.906   3.772  0.8923 -0.4854  0.4148
  319MOL0     H43014  10.526   8.889   3.842 -2.3088 -1.3702 -1.3971
  319MOL0     H43015  10.487   8.913   4.016 -3.0971 -0.8709  0.9972
  319MOL0     H43016  10.430   9.102   3.675  0.2043  0.5423  1.2502
  319MOL0     H43017  10.651   9.408   3.710  0.2820 -1.1812  0.6717
  319MOL0     H43018  10.585   9.300   3.583  2.5118  0.0295  0.0929
  319MOL0     H43019  10.490   9.548   3.604  1.2319 -1.6154 -0.3975
  319MOL0     H43020  10.442   9.503   3.765 -0.6271  1.3399 -0.3132
  319MOL0     H43021  10.295   9.311   3.637 -1.2774  0.6959  1.6568
  319MOL0     H43022  10.374   9.376   3.486  0.7923  1.2835  1.0411
  319MOL0     H43023  10.254   9.581   3.500 -1.8858 -0.2734  0.1248
  319MOL0     H43024  10.183   9.518   3.655  1.4475  1.3826  0.7381
  319MOL0     H43025   9.953   9.351   3.319  1.5106  0.3604 -1.0195
  319MOL0     H43026   9.624   9.361   3.280 -0.2064  0.9187  2.0517
  319MOL0     H43027   9.623   9.490   3.162 -0.2665 -1.6375 -0.7958
  319MOL0     H43028   9.755   9.376   3.156 -0.7493  0.6620 -0.4693
  319MOL0     H43029   9.298   9.565   3.218 -1.0511 -1.9786  1.7738
  319MOL0     H43030   9.075   9.700   3.233  0.8719 -0.9153 -1.7304
  319MOL0     H43031   9.007   9.962   3.591 -1.3429 -1.6196  0.0855
  319MOL0     H43032   9.017  10.064   3.444 -1.0254  1.1804 -0.1594
  319MOL0     H43033   8.788  10.007   3.382  1.1415  2.4465 -0.6072
  319MOL0     H43034   8.791   9.890   3.526  2.8711 -1.7758 -2.4127
  319MOL0     H43035   8.842  10.190   3.556  0.2124 -0.6217  1.4378
  319MOL0     H43036   8.794  10.073   3.675 -0.3083 -1.3803 -0.5666
  319MOL0     H43037   8.590  10.156   3.465  0.8797  1.2466 -0.7872
  319MOL0     H43038   8.574  10.026   3.580  1.2977  0.2055  1.3624
  319MOL0     H43039   8.601  10.323   3.646  3.3610 -0.1285  2.2425
  319MOL0     H43040   8.628  10.214   3.769 -0.2413  3.8289  0.3211
  319MOL0     H43041   8.370  10.220   3.598 -2.4123  0.0023  1.1624
  319MOL0     H43042   8.402  10.097   3.729  0.6327  0.1222 -1.2885
  319MOL0     H43043   8.385  10.399   3.787  1.4660  0.2542  0.5528
  319MOL0     H43044   8.413  10.258   3.897  1.9945  2.0466  0.4949
  319MOL0     H43045   8.197  10.162   3.858  1.2009  0.2704 -1.4216
  319MOL0     H43046   8.160  10.288   3.734 -0.3301  3.9778  0.7049
  319MOL0     H43047   9.218   9.904   3.576 -0.4131 -2.1593  2.1351
  319MOL0     H43048   9.438   9.794   3.552  2.6998 -0.9033 -2.7616
  319MOL0     H43049   9.808   9.743   3.559 -0.7010  1.3616 -2.2353
  319MOL0     H43050  10.026   9.651   3.600 -0.0893 -2.3011  1.7562
  319MOL0     H43051   9.627   8.634   4.292  0.1462 -2.5530  2.1289
  319MOL0     H43052   9.432   8.563   4.432 -2.9948  0.2332  2.7591
  319MOL0     H43053   9.179   8.738   4.849  0.6759 -0.0058  0.6680
  319MOL0     H43054   8.985   8.686   4.995  2.2790  0.5682 -0.5848
  319MOL0     H43055   8.595   8.657   4.844  0.2638 -1.6172 -1.7429
  319MOL0     H43056   8.617   8.475   4.848  0.5744  0.0655 -0.3542
  319MOL0     H43057   8.558   8.459   5.061 -0.1774 -0.2849  1.1456
  319MOL0     H43058   8.438   8.575   5.003  0.5231  1.7196 -0.5236
  319MOL0     H43059   8.569   8.770   5.097 -1.6861 -0.6209 -1.8223
  319MOL0     H43060   8.679   8.643   5.169  1.2289  1.2449 -3.0102
  319MOL0     H43061   8.520   8.724   5.336 -1.1344  0.1559 -0.0401
  319MOL0     H43062   8.478   8.556   5.288 -2.4360 -0.8323 -0.8273
  319MOL0     H43063   8.149   8.789   5.147  1.1793  0.2047  0.0971
  319MOL0     H43064   8.761   8.505   4.681  1.0895 -0.8837 -1.3130
  319MOL0     H43065   8.954   8.546   4.532  1.2740  0.2117  0.6979
  320MOL0     O43066   0.705   9.532   8.131  0.3099 -0.5326 -0.4442
  320MOL0     C43067   0.817   9.581   8.142 -0.1574  0.2440  0.6231
  320MOL0     O43068   0.856   9.702   8.091  0.8763  0.7422 -0.1497
  320MOL0     C43069   0.778   9.797   8.035  0.3601  0.3616 -0.6751
  320MOL0     C43070   0.650   9.814   8.071  0.0699 -0.3941 -0.3788
  320MOL0     C43071   0.573   9.913   8.017  0.9676  0.3494  1.2655
  320MOL0     C43072   0.628   9.980   7.904 -0.0103  0.4463 -0.1745
  320MOL0     O43073   0.555  10.059   7.818 -0.1669  0.5491  0.2543
  320MOL0     C43074   0.440  10.123   7.879  0.5675 -0.0466  0.3413
  320MOL0     C43075   0.307  10.082   7.821  0.0172  0.4910  0.4391
  320MOL0     C43076   0.194  10.148   7.905 -0.4632 -0.9476 -0.6050
  320MOL0     C43077   0.061  10.090   7.867  0.1048 -0.7028  0.2819
  320MOL0     C43078  -0.062  10.183   7.888  0.3849 -0.7570 -0.5700
  320MOL0     C43079  -0.194  10.103   7.870  0.7229  0.2253 -1.1649
  320MOL0     C43080  -0.312  10.204   7.868  0.0236 -1.0030 -0.9739
  320MOL0     C43081  -0.442  10.162   7.806 -0.2527 -0.5312 -0.5256
  320MOL0     N43082  -0.538  10.265   7.846  0.0293  0.7127  0.0097
  320MOL0     C43083  -0.645  10.241   7.931 -0.1071 -0.1106 -0.5964
  320MOL0     C43084  -0.709  10.361   7.919 -0.4674 -0.2978 -0.3171
  320MOL0     C43085  -0.840  10.381   7.983  0.1247 -0.0076 -0.0673
  320MOL0     C43086  -0.950  10.378   7.875 -0.2937 -0.4687 -0.8536
  320MOL0     C43087  -1.093  10.383   7.930  0.4345  0.4918 -0.5786
  320MOL0     C43088  -1.195  10.322   7.827  0.0525  1.2888 -0.7150
  320MOL0     O43089  -1.315  10.306   7.895 -0.0853 -0.5979 -0.1702
  320MOL0     C43090  -1.417  10.398   7.889 -0.5678 -0.0887  0.7188
  320MOL0     C43091  -1.404  10.540   7.866  0.4267 -0.1296 -0.0425
  320MOL0     C43092  -1.514  10.625   7.868 -0.5053  0.2033  0.5197
  320MOL0     C43093  -1.491  10.770   7.886  0.0889 -0.0472  0.3074
  320MOL0     C43094  -1.647  10.571   7.872 -0.0218  0.4010  0.0003
  320MOL0     C43095  -1.779  10.645   7.861 -0.5427  0.2780 -0.3855
  320MOL0     O43096  -1.892  10.574   7.871 -0.4508 -0.0661 -1.1907
  320MOL0     C43097  -2.020  10.623   7.861 -0.1158 -0.1620 -0.3195
  320MOL0     C43098  -2.118  10.536   7.821 -0.6739  0.1628 -0.0724
  320MOL0     C43099  -2.252  10.558   7.826 -0.7662  0.4401  0.1709
  320MOL0     C43100  -2.298  10.681   7.858  0.0123 -0.2494 -0.2934
  320MOL0     O43101  -2.429  10.723   7.853 -0.2868  0.1162 -0.2233
  320MOL0     C43102  -2.522  10.643   7.769  0.2248 -0.6473 -0.3124
  320MOL0     C43103  -2.665  10.678   7.812  0.4716  0.4624  0.8399
  320MOL0     C43104  -2.769  10.612   7.732 -0.0175 -0.7372  0.5716
  320MOL0     C43105  -2.905  10.668   7.767  0.4589  0.4389  0.5956
  320MOL0     C43106  -3.029  10.602   7.709 -0.0179 -0.1356  0.0008
  320MOL0     C43107  -3.044  10.457   7.752  0.6614 -0.3793 -0.1394
  320MOL0     C43108  -3.183  10.407   7.699 -0.2482 -1.0862  0.0128
  320MOL0     C43109  -3.208  10.269   7.755  0.3828 -0.2104 -0.1570
  320MOL0    Cl43110  -3.359  10.209   7.683 -0.4589 -0.2000 -0.3448
  320MOL0     C43111  -2.203  10.776   7.907 -0.4027 -0.0940  0.5134
  320MOL0     C43112  -2.062  10.747   7.916  0.7337  0.2299  0.9835
  320MOL0     O43113  -1.771  10.764   7.856 -0.1580  0.2837  0.3406
  320MOL0     C43114  -1.652  10.426   7.887  0.0396  0.5670  0.2218
  320MOL0     C43115  -1.543  10.351   7.893 -0.7010  0.0960  0.8008
  320MOL0     N43116  -0.659  10.442   7.819 -0.7257 -0.0106 -0.4670
  320MOL0     N43117  -0.551  10.382   7.786  0.2784 -0.6997  0.0174
  320MOL0     C43118   0.768   9.962   7.876 -0.9960 -0.7431 -0.3324
  320MOL0     C43119   0.843   9.870   7.944 -0.1111 -0.6005 -0.0567
  320MOL0     C43120   0.919   9.493   8.199  0.0960  0.6171 -0.3624
  320MOL0     C43121   0.893   9.366   8.256  0.4043  0.1041 -0.4805
  320MOL0     C43122   0.993   9.288   8.327 -0.2527 -0.8751  0.7758
  320MOL0     C43123   1.125   9.338   8.325 -0.2600  0.2674 -0.4110
  320MOL0     O43124   1.212   9.257   8.394 -0.3518 -0.1433  0.0352
  320MOL0     C43125   1.352   9.294   8.410 -0.5320 -0.3732 -0.4191
  320MOL0     C43126   1.375   9.392   8.527 -0.6209 -0.5399  0.4436
  320MOL0     C43127   1.519   9.461   8.503  0.2734  0.1868 -0.4884
  320MOL0     C43128   1.632   9.377   8.562 -0.5438  0.0986  0.1861
  320MOL0     C43129   1.679   9.275   8.466 -0.5244  0.0250  0.4093
  320MOL0     C43130   1.728   9.190   8.402 -0.7845 -0.7940  0.0851
  320MOL0     C43131   1.157   9.458   8.260 -0.2706 -0.2908 -0.9221
  320MOL0     C43132   1.060   9.533   8.195  0.0976  0.4809 -0.1881
  320MOL0     H43133   0.596   9.747   8.137  0.0690  1.4578  1.6061
  320MOL0     H43134   0.469   9.928   8.044  1.2571  1.8453  1.6375
  320MOL0     H43135   0.443  10.118   7.988 -0.2041  0.0162  0.3681
  320MOL0     H43136   0.454  10.228   7.852 -0.2666 -0.1398 -0.5047
  320MOL0     H43137   0.287  10.094   7.714 -3.5554 -1.2532  0.7221
  320MOL0     H43138   0.309   9.973   7.835  1.2578  0.6513  1.6946
  320MOL0     H43139   0.201  10.128   8.013 -1.1739 -0.8420 -0.5338
  320MOL0     H43140   0.194  10.256   7.885 -0.6255 -0.8354 -0.0459
  320MOL0     H43141   0.063  10.064   7.761 -1.3011  1.2818 -0.2934
  320MOL0     H43142   0.050   9.995   7.919 -0.7041 -1.3290 -0.9917
  320MOL0     H43143  -0.059  10.211   7.994  0.8508  0.8220 -0.9840
  320MOL0     H43144  -0.060  10.277   7.832 -0.2935 -1.3737 -1.6667
  320MOL0     H43145  -0.191  10.060   7.770  1.5631 -1.1560 -0.5680
  320MOL0     H43146  -0.221  10.026   7.943 -1.1771  1.9856  0.1172
  320MOL0     H43147  -0.324  10.244   7.969  1.8722 -1.7817 -0.3960
  320MOL0     H43148  -0.279  10.284   7.802 -1.5398  0.7715  0.2903
  320MOL0     H43149  -0.461  10.058   7.833  1.3527 -1.0509 -1.2989
  320MOL0     H43150  -0.440  10.156   7.696  1.1021 -0.3647 -0.5227
  320MOL0     H43151  -0.666  10.153   7.990 -0.0166 -0.7853 -1.5460
  320MOL0     H43152  -0.856  10.303   8.058 -0.5852  1.2816  1.1861
  320MOL0     H43153  -0.837  10.472   8.044  2.5688 -0.0580 -0.0068
  320MOL0     H43154  -0.931  10.277   7.839 -0.9455 -0.4446 -1.2860
  320MOL0     H43155  -0.931  10.455   7.799  0.6561  1.3583  1.1318
  320MOL0     H43156  -1.123  10.486   7.955  0.2740 -0.1237  2.0373
  320MOL0     H43157  -1.094  10.327   8.023 -0.2695  1.4919  0.0370
  320MOL0     H43158  -1.172  10.218   7.804 -0.8280  0.1428  2.9742
  320MOL0     H43159  -1.195  10.371   7.729  1.5108 -1.4523 -2.1909
  320MOL0     H43160  -1.303  10.580   7.857  0.8366 -1.3185 -0.9454
  320MOL0     H43161  -1.539  10.819   7.801  0.6278  0.6395  0.3902
  320MOL0     H43162  -1.524  10.814   7.980 -0.3381  0.8364 -0.2522
  320MOL0     H43163  -1.384  10.786   7.865  0.6679 -1.1965  2.1389
  320MOL0     H43164  -2.079  10.435   7.806 -2.0716 -0.2723 -1.0221
  320MOL0     H43165  -2.316  10.474   7.800 -0.9121  0.5927  0.0416
  320MOL0     H43166  -2.506  10.656   7.661  3.7305 -2.2444 -0.1280
  320MOL0     H43167  -2.511  10.536   7.786  0.2299 -0.5153  0.5367
  320MOL0     H43168  -2.685  10.655   7.917 -2.2669  0.8368  0.4661
  320MOL0     H43169  -2.664  10.787   7.799  0.6122  0.5391  1.4309
  320MOL0     H43170  -2.772  10.506   7.759 -2.7378 -1.0832 -0.8154
  320MOL0     H43171  -2.756  10.611   7.623 -1.0521  1.1404  0.3973
  320MOL0     H43172  -2.923  10.658   7.875  5.1184 -1.1956  1.4262
  320MOL0     H43173  -2.915  10.773   7.738 -1.5997  0.4866  1.2592
  320MOL0     H43174  -3.025  10.603   7.600  2.6056 -0.1317  0.0364
  320MOL0     H43175  -3.109  10.664   7.751  1.2697 -0.4994  3.3833
  320MOL0     H43176  -2.961  10.393   7.722  1.7584  0.0900  1.7235
  320MOL0     H43177  -3.033  10.455   7.861  2.3681 -0.3512 -0.2846
  320MOL0     H43178  -3.181  10.400   7.590  0.8223  1.8146 -0.2208
  320MOL0     H43179  -3.265  10.475   7.724  1.1563  0.3761  0.7838
  320MOL0     H43180  -3.205  10.266   7.864  2.4099 -1.4467 -0.1909
  320MOL0     H43181  -3.132  10.201   7.715  0.1189 -0.8465  0.4046
  320MOL0     H43182  -2.233  10.873   7.945 -1.8822 -0.1741 -0.3399
  320MOL0     H43183  -1.987  10.817   7.950 -1.3503  1.4712  3.3135
  320MOL0     H43184  -1.746  10.374   7.898  0.3283 -0.0041  0.0418
  320MOL0     H43185  -1.559  10.246   7.914 -0.4605  0.3221  2.1857
  320MOL0     H43186   0.810  10.015   7.791  0.0223 -2.8200 -1.2013
  320MOL0     H43187   0.946   9.857   7.914  0.6764  1.3172  1.5978
  320MOL0     H43188   0.793   9.325   8.264  1.1976 -1.6148  1.9235
  320MOL0     H43189   0.976   9.202   8.390 -0.8702 -2.4620 -1.4277
  320MOL0     H43190   1.408   9.202   8.431  0.2337 -0.4482 -2.6152
  320MOL0     H43191   1.397   9.339   8.322 -1.0140 -1.5927 -1.3119
  320MOL0     H43192   1.375   9.345   8.625  0.5186  1.4699  1.4615
  320MOL0     H43193   1.303   9.474   8.523  0.4991  0.5336  1.5550
  320MOL0     H43194   1.520   9.556   8.557 -1.2544 -0.9977  1.7652
  320MOL0     H43195   1.546   9.483   8.399  2.2240  0.5292  0.0464
  320MOL0     H43196   1.620   9.329   8.660  1.5591 -0.4699  0.2168
  320MOL0     H43197   1.711   9.451   8.575  0.3038 -0.9104  0.9858
  320MOL0     H43198   1.779   9.118   8.341 -2.8809 -1.1868 -1.3343
  320MOL0     H43199   1.257   9.498   8.243 -0.7975  0.8132 -1.5237
  320MOL0     H43200   1.080   9.629   8.148  2.0762  0.3949  0.3885
  321MOL0     O43201   5.004  11.070  10.727  0.3410  0.2085  0.1346
  321MOL0     C43202   5.066  11.081  10.617  0.2488 -0.4833 -0.4429
  321MOL0     O43203   5.012  11.045  10.500  0.0753  0.4476  0.2458
  321MOL0     C43204   4.911  10.950  10.507 -0.3835  0.0594 -0.4318
  321MOL0     C43205   4.942  10.819  10.545  0.6236 -0.0422  0.0618
  321MOL0     C43206   4.835  10.733  10.570 -0.7279  0.2382 -0.1942
  321MOL0     C43207   4.700  10.760  10.538  0.0259 -0.1408 -0.2159
  321MOL0     O43208   4.604  10.661  10.542 -0.2661 -0.3446  0.1355
  321MOL0     C43209   4.460  10.687  10.530 -0.4223  0.7235 -0.2347
  321MOL0     C43210   4.420  10.595  10.418  0.4284 -0.3149 -0.4779
  321MOL0     C43211   4.269  10.618  10.396  0.0805  0.0963 -0.2042
  321MOL0     C43212   4.222  10.529  10.276  0.6440 -0.3676 -0.8857
  321MOL0     C43213   4.070  10.544  10.260 -0.0061  0.2715  0.3399
  321MOL0     C43214   4.024  10.490  10.120  0.6269  0.1578 -0.2598
  321MOL0     C43215   3.868  10.492  10.116 -1.4189 -0.3196  0.0857
  321MOL0     C43216   3.808  10.453   9.982  0.6807 -0.0091 -0.3109
  321MOL0     N43217   3.840  10.538   9.869 -0.0427 -0.0526  0.2700
  321MOL0     C43218   3.948  10.521   9.780  0.4941  0.3916 -0.7946
  321MOL0     C43219   3.956  10.623   9.702  0.9267 -0.4955 -0.1786
  321MOL0     C43220   4.048  10.649   9.587 -0.3426 -0.1489  0.4924
  321MOL0     C43221   4.196  10.648   9.633 -0.2871 -0.3046  0.0745
  321MOL0     C43222   4.280  10.660   9.499  0.1765 -0.3030 -0.4234
  321MOL0     C43223   4.417  10.699   9.534  0.5475 -0.9789 -0.4918
  321MOL0     O43224   4.481  10.607   9.627  0.1978 -0.4648 -0.1335
  321MOL0     C43225   4.616  10.618   9.647  0.4985  0.8489 -0.4929
  321MOL0     C43226   4.699  10.559   9.555 -0.0133 -0.5425 -0.3732
  321MOL0     C43227   4.844  10.557   9.559 -0.4639 -1.0932  0.1763
  321MOL0     C43228   4.916  10.455   9.477 -0.6509 -0.6541  0.1233
  321MOL0     C43229   4.905  10.638   9.663 -0.4149  0.9010 -1.3369
  321MOL0     C43230   5.052  10.644   9.696 -0.4740 -0.5342 -0.0049
  321MOL0     O43231   5.138  10.547   9.654  0.6160  0.1108  0.2396
  321MOL0     C43232   5.261  10.523   9.700 -0.6234 -0.3673  0.0036
  321MOL0     C43233   5.301  10.550   9.837 -0.4681 -0.0516  0.2242
  321MOL0     C43234   5.434  10.529   9.881 -0.0597 -0.3110 -0.5780
  321MOL0     C43235   5.538  10.501   9.794 -0.2441  0.3662 -0.6761
  321MOL0     O43236   5.673  10.511   9.824  0.4879 -0.8676  0.6270
  321MOL0     C43237   5.708  10.433   9.942  0.2545 -0.1987  0.1809
  321MOL0     C43238   5.853  10.482  10.000  0.2053 -0.0303  0.0009
  321MOL0     C43239   5.860  10.622  10.050  0.0695 -0.4229 -0.2796
  321MOL0     C43240   6.004  10.669  10.053  0.2075  0.3974  0.0155
  321MOL0     C43241   6.015  10.819  10.083 -0.5414  0.2455  0.7492
  321MOL0     C43242   6.156  10.850  10.108 -0.2448  0.2237 -0.3278
  321MOL0     C43243   6.176  11.002  10.132 -0.0436  1.0832 -0.2773
  321MOL0     C43244   6.327  11.034  10.160  0.0453 -0.1375 -0.5247
  321MOL0    Cl43245   6.427  10.955  10.044  0.1036 -0.0512 -0.0310
  321MOL0     C43246   5.497  10.462   9.667 -0.4172 -0.4245  0.1243
  321MOL0     C43247   5.360  10.477   9.620 -0.3366  0.0591 -0.8039
  321MOL0     O43248   5.085  10.740   9.763 -0.4107  0.5768 -0.2525
  321MOL0     C43249   4.822  10.718   9.738 -0.0605  0.0375 -0.6141
  321MOL0     C43250   4.679  10.714   9.733 -0.2532 -0.3879  0.0500
  321MOL0     N43251   3.854  10.711   9.753 -1.3461 -0.7279  0.0340
  321MOL0     N43252   3.792  10.661   9.851  0.2900  0.1031  0.1655
  321MOL0     C43253   4.668  10.896  10.498 -1.0924  0.4383 -0.2435
  321MOL0     C43254   4.775  10.987  10.485  0.0390  0.2722  0.1327
  321MOL0     C43255   5.189  11.158  10.625 -0.6870 -0.1828 -0.6594
  321MOL0     C43256   5.279  11.143  10.515  0.4240 -0.5132 -0.2059
  321MOL0     C43257   5.402  11.217  10.516 -0.2280 -0.4513 -0.9371
  321MOL0     C43258   5.450  11.280  10.628 -0.0141  0.2016 -1.1020
  321MOL0     O43259   5.584  11.334  10.631 -0.1947 -0.3123 -0.0380
  321MOL0     C43260   5.584  11.456  10.564 -0.0172 -0.5701  0.3058
  321MOL0     C43261   5.726  11.520  10.577  0.7302  0.2048 -0.8094
  321MOL0     C43262   5.768  11.541  10.726  0.2330 -0.2190 -0.3884
  321MOL0     C43263   5.675  11.616  10.818 -0.5386  0.7678  0.3470
  321MOL0     C43264   5.635  11.752  10.759  0.4079 -0.1062 -0.8341
  321MOL0     C43265   5.635  11.857  10.701 -0.9784 -1.4726 -0.2397
  321MOL0     C43266   5.366  11.286  10.742 -0.0674  0.1992 -0.3184
  321MOL0     C43267   5.239  11.236  10.740 -0.0206  0.2410  0.2416
  321MOL0     H43268   5.040  10.787  10.577 -0.6944 -3.0919  1.4098
  321MOL0     H43269   4.869  10.637  10.608  0.9740  1.2831  1.0261
  321MOL0     H43270   4.419  10.653  10.626 -0.3322  1.5079  0.0860
  321MOL0     H43271   4.428  10.789  10.510  1.0528  0.9169 -1.8617
  321MOL0     H43272   4.471  10.626  10.326  0.3136  0.6665 -0.2212
  321MOL0     H43273   4.437  10.490  10.443  0.0205 -0.2531  0.0943
  321MOL0     H43274   4.207  10.598  10.484 -1.0092  0.6826 -0.8056
  321MOL0     H43275   4.246  10.723  10.371 -1.2514 -0.3660 -1.0806
  321MOL0     H43276   4.273  10.548  10.181  0.9955 -0.7165 -0.7667
  321MOL0     H43277   4.246  10.426  10.306  0.1669 -0.1909  0.1693
  321MOL0     H43278   4.014  10.494  10.339  0.6277 -1.5530 -0.3214
  321MOL0     H43279   4.050  10.652  10.261 -0.3910  0.3076 -2.3449
  321MOL0     H43280   4.059  10.554  10.038  0.8958  1.8501  1.1149
  321MOL0     H43281   4.066  10.391  10.102 -3.2704 -1.9154  0.8020
  321MOL0     H43282   3.819  10.423  10.185 -1.9067  0.2858  0.3590
  321MOL0     H43283   3.831  10.588  10.153  1.0628  0.7706 -0.0453
  321MOL0     H43284   3.699  10.449   9.993  0.4978 -1.3772 -2.1259
  321MOL0     H43285   3.835  10.354   9.944  0.0730 -0.2159 -0.2208
  321MOL0     H43286   4.009  10.431   9.772 -0.0320 -0.0426 -0.0074
  321MOL0     H43287   4.015  10.571   9.518  1.1587 -1.3111  1.0302
  321MOL0     H43288   4.024  10.741   9.532 -0.2228  0.6622  1.7427
  321MOL0     H43289   4.220  10.547   9.667  0.4975 -1.0171 -2.3680
  321MOL0     H43290   4.226  10.727   9.703  1.5201  0.4466 -1.4506
  321MOL0     H43291   4.240  10.733   9.428 -0.1213 -2.2374 -2.3314
  321MOL0     H43292   4.273  10.565   9.446  0.2618 -1.0400  0.8409
  321MOL0     H43293   4.419  10.798   9.580 -1.0150 -1.2087  0.1409
  321MOL0     H43294   4.481  10.701   9.446  2.0877 -0.4115  0.6097
  321MOL0     H43295   4.640  10.492   9.494 -0.2656  0.9543 -1.8383
  321MOL0     H43296   4.990  10.507   9.416 -0.9229  0.1746  0.4962
  321MOL0     H43297   4.972  10.384   9.538 -0.5189  1.4357  2.5582
  321MOL0     H43298   4.852  10.396   9.410 -0.3790 -1.2561  0.3780
  321MOL0     H43299   5.225  10.576   9.910 -0.0157 -0.5395  0.8898
  321MOL0     H43300   5.448  10.563   9.982 -1.5153  2.4425 -1.2041
  321MOL0     H43301   5.632  10.432  10.021  0.5195  0.1894  0.4496
  321MOL0     H43302   5.715  10.328   9.913  2.0463 -0.3710  1.1461
  321MOL0     H43303   5.870  10.416  10.085  1.1091 -0.1851 -0.2944
  321MOL0     H43304   5.934  10.469   9.928  1.2188  0.9760  0.9265
  321MOL0     H43305   5.811  10.619  10.147  0.1412 -1.2549 -0.2554
  321MOL0     H43306   5.804  10.679   9.975  1.0656  0.1243 -0.6313
  321MOL0     H43307   6.052  10.613  10.134 -1.1825 -2.9080 -1.2244
  321MOL0     H43308   6.052  10.648   9.957 -1.3157 -0.1972 -0.6560
  321MOL0     H43309   5.949  10.847  10.166 -0.6088  0.3089  0.6746
  321MOL0     H43310   5.989  10.875   9.993  1.4085 -0.4994 -0.3431
  321MOL0     H43311   6.198  10.793  10.191 -1.1033  1.7539  1.2345
  321MOL0     H43312   6.206  10.817  10.016 -0.7133 -1.9155  0.1358
  321MOL0     H43313   6.112  11.036  10.214  0.2428 -1.5638  1.1449
  321MOL0     H43314   6.138  11.051  10.041  0.7747 -0.9198 -1.7807
  321MOL0     H43315   6.361  11.008  10.260 -0.6392  0.2638 -0.1796
  321MOL0     H43316   6.342  11.142  10.156 -0.5149  0.0225  0.9345
  321MOL0     H43317   5.563  10.435   9.585 -0.0927 -0.7272  0.4790
  321MOL0     H43318   5.334  10.465   9.515 -1.4485  0.5489 -0.5945
  321MOL0     H43319   4.869  10.779   9.815  0.4413  1.0792 -1.7056
  321MOL0     H43320   4.617  10.780   9.794  1.3891  2.1052 -0.8265
  321MOL0     H43321   4.567  10.927  10.476 -1.2904  0.0502  0.1145
  321MOL0     H43322   4.753  11.090  10.459 -3.4700 -0.2771  0.4828
  321MOL0     H43323   5.254  11.091  10.423  1.9495  0.6110 -1.3197
  321MOL0     H43324   5.457  11.203  10.423  2.0482  0.3829  0.2009
  321MOL0     H43325   5.566  11.440  10.457  0.7933  2.5586 -0.4039
  321MOL0     H43326   5.507  11.522  10.605 -1.6347 -2.2597  0.1291
  321MOL0     H43327   5.726  11.618  10.528 -1.2527 -0.1355 -1.5861
  321MOL0     H43328   5.802  11.454  10.534  1.2797 -0.1017  0.5854
  321MOL0     H43329   5.865  11.592  10.727 -0.9809  2.2828 -0.3462
  321MOL0     H43330   5.778  11.439  10.763  1.9903  0.6865  1.9016
  321MOL0     H43331   5.736  11.632  10.907  0.3086 -1.0883  0.1437
  321MOL0     H43332   5.586  11.553  10.831 -1.2396  1.6051 -0.2181
  321MOL0     H43333   5.640  11.952  10.651  1.5367 -0.7610  1.1759
  321MOL0     H43334   5.411  11.319  10.836  0.3819 -1.0987 -0.0544
  321MOL0     H43335   5.185  11.236  10.834  0.1992  0.3323  0.3691
  322MOL0     O43336   1.297   1.176   4.972  0.1482  0.5632  0.5333
  322MOL0     C43337   1.373   1.205   4.881 -0.5906  0.5242  0.0868
  322MOL0     O43338   1.340   1.275   4.773  0.4987  0.0212  0.2199
  322MOL0     C43339   1.206   1.309   4.756  0.3440 -0.0539  0.1429
  322MOL0     C43340   1.137   1.396   4.834  0.2802 -0.2264 -0.7457
  322MOL0     C43341   0.998   1.424   4.811 -0.5297  0.0567 -0.6577
  322MOL0     C43342   0.924   1.345   4.717 -0.0422  0.4001  0.1900
  322MOL0     O43343   0.794   1.360   4.687  0.4982  0.6603  0.3821
  322MOL0     C43344   0.708   1.401   4.783 -0.2943  0.3110 -0.1148
  322MOL0     C43345   0.564   1.386   4.736 -0.5510 -0.2211  0.1187
  322MOL0     C43346   0.466   1.498   4.786 -0.2333 -0.5493  0.0343
  322MOL0     C43347   0.408   1.473   4.916 -0.6512  0.4993 -0.7507
  322MOL0     C43348   0.263   1.516   4.929 -0.1791  0.3895  0.3123
  322MOL0     C43349   0.203   1.505   5.068  0.2524  0.1525 -0.4115
  322MOL0     C43350   0.057   1.557   5.075  0.7170 -0.6897  0.5523
  322MOL0     C43351  -0.005   1.543   5.211 -0.1396  0.2343 -0.0726
  322MOL0     N43352  -0.034   1.403   5.246  0.0106  0.3983  1.1438
  322MOL0     C43353  -0.107   1.311   5.170 -0.8792 -0.1840  0.2882
  322MOL0     C43354  -0.098   1.194   5.245 -0.8544 -0.2114 -0.2305
  322MOL0     C43355  -0.147   1.058   5.207 -0.4798  0.4390 -0.2158
  322MOL0     C43356  -0.111   1.021   5.068  0.9601  0.4270  0.4376
  322MOL0     C43357   0.040   1.016   5.047 -0.1573  0.3098  0.8006
  322MOL0     C43358   0.107   0.899   5.125 -0.7634  0.6442 -0.3055
  322MOL0     O43359   0.245   0.874   5.074 -0.1724  0.1470 -0.3884
  322MOL0     C43360   0.338   0.970   5.115 -0.2756 -0.0228 -0.1294
  322MOL0     C43361   0.323   1.060   5.216  0.4452 -0.0966  0.0671
  322MOL0     C43362   0.435   1.133   5.267 -0.8584 -0.5045 -0.1182
  322MOL0     C43363   0.399   1.219   5.383 -0.3860  0.2125 -0.3209
  322MOL0     C43364   0.554   1.140   5.187 -0.3004  0.6127 -0.6812
  322MOL0     C43365   0.670   1.229   5.214  0.1566  0.3445  0.4871
  322MOL0     O43366   0.728   1.277   5.112 -0.0655 -0.0959  0.7346
  322MOL0     C43367   0.843   1.339   5.137 -0.7061 -1.2313  0.7804
  322MOL0     C43368   0.959   1.257   5.124  0.9428  0.2670 -0.6581
  322MOL0     C43369   1.083   1.316   5.161  1.2003  1.0072  0.3806
  322MOL0     C43370   1.097   1.445   5.198 -0.3459  0.0662 -0.4097
  322MOL0     O43371   1.222   1.501   5.223  0.4643  0.7200 -0.9403
  322MOL0     C43372   1.329   1.417   5.261  0.6876  0.2322 -0.9300
  322MOL0     C43373   1.455   1.502   5.278 -0.3831 -0.0787 -0.0406
  322MOL0     C43374   1.515   1.510   5.142  0.2605 -1.3806  0.2866
  322MOL0     C43375   1.661   1.557   5.144 -0.7853 -0.4965  0.4601
  322MOL0     C43376   1.722   1.557   5.001 -0.3143  0.3996  0.5499
  322MOL0     C43377   1.841   1.663   4.993 -0.4839  0.5980  0.8409
  322MOL0     C43378   1.949   1.637   5.102  0.3588  0.1736  0.1242
  322MOL0     C43379   2.013   1.501   5.125 -0.3972  0.6527  0.5859
  322MOL0    Cl43380   2.132   1.465   4.996 -0.3310 -0.0570  0.3772
  322MOL0     C43381   0.980   1.532   5.209 -1.0536  0.6591  0.1414
  322MOL0     C43382   0.856   1.473   5.176 -0.0924 -0.2287  0.3369
  322MOL0     O43383   0.689   1.255   5.336  0.2074  0.1760  0.1971
  322MOL0     C43384   0.570   1.037   5.090  0.1556 -0.2133 -0.2362
  322MOL0     C43385   0.460   0.959   5.057 -0.3351 -0.7268  0.6620
  322MOL0     N43386  -0.021   1.220   5.357 -0.3446  0.9312 -0.1444
  322MOL0     N43387   0.011   1.338   5.355 -0.5674  0.0967  1.1659
  322MOL0     C43388   0.993   1.248   4.646  0.1940 -0.0428 -0.5350
  322MOL0     C43389   1.130   1.232   4.656  0.4008 -0.1076 -0.4032
  322MOL0     C43390   1.511   1.160   4.900 -0.5830  0.1931 -0.5529
  322MOL0     C43391   1.571   1.122   5.020 -0.5179 -0.3035 -0.2546
  322MOL0     C43392   1.704   1.079   5.034 -0.6182 -0.0427  0.2622
  322MOL0     C43393   1.781   1.073   4.925  0.3069 -0.2934 -0.0624
  322MOL0     O43394   1.911   1.031   4.938 -0.3852 -0.6040 -0.3742
  322MOL0     C43395   2.004   1.105   4.863  0.0292  0.8024 -0.1492
  322MOL0     C43396   2.143   1.049   4.892  0.2093 -0.9204  0.0481
  322MOL0     C43397   2.152   0.899   4.893 -0.6044  0.2633 -0.4702
  322MOL0     C43398   2.275   0.829   4.954  0.0101 -0.1919 -0.6270
  322MOL0     C43399   2.285   0.846   5.098 -0.6367  0.3355 -0.6352
  322MOL0     C43400   2.288   0.844   5.222 -0.3716  0.3950 -0.5405
  322MOL0     C43401   1.727   1.107   4.801  0.5368 -0.6268  0.2367
  322MOL0     C43402   1.590   1.153   4.788  0.0809  0.2719  0.4813
  322MOL0     H43403   1.195   1.433   4.917  1.5254  0.8506 -2.0598
  322MOL0     H43404   0.948   1.504   4.865  0.0177 -1.1579  1.8077
  322MOL0     H43405   0.704   1.345   4.877 -3.4129  1.7584  0.7725
  322MOL0     H43406   0.722   1.509   4.792 -0.9042  0.2844  1.5083
  322MOL0     H43407   0.565   1.388   4.627  1.5446 -2.7441 -0.0098
  322MOL0     H43408   0.525   1.288   4.767  1.1015 -0.6264  1.0173
  322MOL0     H43409   0.523   1.592   4.785  1.7615 -1.7017  0.2446
  322MOL0     H43410   0.382   1.502   4.716 -1.6669 -3.2338  1.4140
  322MOL0     H43411   0.404   1.365   4.930 -1.3986  0.2207 -2.7296
  322MOL0     H43412   0.476   1.516   4.990  1.0403 -0.3354 -1.7518
  322MOL0     H43413   0.267   1.618   4.888 -0.9869 -0.3945 -1.8902
  322MOL0     H43414   0.191   1.467   4.862 -2.0454  5.0621 -1.5438
  322MOL0     H43415   0.196   1.401   5.103  0.2212  0.2470 -0.1320
  322MOL0     H43416   0.268   1.555   5.140 -0.0316  0.9735 -0.7180
  322MOL0     H43417   0.060   1.662   5.042 -3.7249 -0.4054  0.3758
  322MOL0     H43418  -0.007   1.518   4.995  0.4023  0.1770  0.3584
  322MOL0     H43419  -0.103   1.588   5.225  0.4105  0.9609  1.8069
  322MOL0     H43420   0.066   1.582   5.284 -0.0909  1.4862 -0.7696
  322MOL0     H43421  -0.153   1.322   5.073 -0.4875 -4.0547 -0.5147
  322MOL0     H43422  -0.122   0.979   5.278 -0.1307  0.3478 -0.4400
  322MOL0     H43423  -0.256   1.063   5.216 -0.5267  0.2107 -0.6568
  322MOL0     H43424  -0.157   1.089   4.995 -0.0286 -2.2891 -1.6728
  322MOL0     H43425  -0.161   0.927   5.043  0.8474  0.8376 -1.0147
  322MOL0     H43426   0.077   1.116   5.073 -2.6712  1.9132 -1.2594
  322MOL0     H43427   0.055   0.994   4.941 -1.7076  2.6248  0.0419
  322MOL0     H43428   0.037   0.817   5.107  0.4129 -1.4948  3.7367
  322MOL0     H43429   0.099   0.915   5.233  1.4855  0.2426 -0.0141
  322MOL0     H43430   0.233   1.066   5.275 -0.4091 -1.0183 -1.0929
  322MOL0     H43431   0.291   1.229   5.400 -0.7402 -2.3364 -0.6553
  322MOL0     H43432   0.452   1.181   5.471  2.1141  0.8705 -1.4564
  322MOL0     H43433   0.434   1.321   5.366  1.8283 -0.5672 -0.7714
  322MOL0     H43434   0.961   1.156   5.085  1.2044  0.1904 -0.4455
  322MOL0     H43435   1.169   1.250   5.167  0.1250 -0.3543  1.3526
  322MOL0     H43436   1.320   1.355   5.351 -0.4405  0.4560 -0.8797
  322MOL0     H43437   1.351   1.353   5.175  1.1384 -2.3844  0.9788
  322MOL0     H43438   1.436   1.606   5.304  4.1962  0.8661  0.4692
  322MOL0     H43439   1.516   1.459   5.359  1.7517  1.1602 -0.8961
  322MOL0     H43440   1.468   1.590   5.083  2.1381  0.0027  0.5552
  322MOL0     H43441   1.513   1.414   5.091  1.0485 -1.7295  0.8944
  322MOL0     H43442   1.662   1.658   5.186  0.1592 -0.2721 -0.0676
  322MOL0     H43443   1.722   1.484   5.199  0.8872 -3.3235 -4.5203
  322MOL0     H43444   1.642   1.575   4.928 -0.0412 -0.5150  0.0053
  322MOL0     H43445   1.764   1.458   4.981 -1.4193 -0.0293  0.2865
  322MOL0     H43446   1.885   1.658   4.893 -0.6298  0.8493  0.7642
  322MOL0     H43447   1.805   1.764   5.014  0.8847  1.6228 -1.3844
  322MOL0     H43448   1.906   1.656   5.200 -1.9238  1.9065 -1.1284
  322MOL0     H43449   2.029   1.711   5.093  2.2536 -1.4859  2.1122
  322MOL0     H43450   1.939   1.420   5.127  1.2482 -1.0920 -1.8298
  322MOL0     H43451   2.048   1.492   5.228 -0.4134 -4.6613  0.4072
  322MOL0     H43452   0.983   1.634   5.246  1.9306  0.4496  0.7557
  322MOL0     H43453   0.772   1.539   5.195 -0.4944 -0.4692 -0.5274
  322MOL0     H43454   0.664   1.026   5.037  0.8431 -0.0979  0.9245
  322MOL0     H43455   0.476   0.884   4.980 -1.6384  0.9917 -1.4093
  322MOL0     H43456   0.936   1.205   4.565 -1.7594 -1.0393  1.2630
  322MOL0     H43457   1.168   1.165   4.580 -0.9912  0.8151 -1.9721
  322MOL0     H43458   1.514   1.148   5.110  0.9415 -0.6869  0.8117
  322MOL0     H43459   1.748   1.059   5.131  0.8732 -1.8101 -0.7346
  322MOL0     H43460   1.977   1.091   4.758 -1.4173 -0.1745  0.3128
  322MOL0     H43461   1.997   1.212   4.885 -0.7055  0.1512  3.4204
  322MOL0     H43462   2.160   1.098   4.987  0.8360 -0.5531 -0.2500
  322MOL0     H43463   2.221   1.089   4.826 -0.7668  2.6327  0.8449
  322MOL0     H43464   2.141   0.861   4.791  0.2056  0.4549 -0.6311
  322MOL0     H43465   2.067   0.863   4.953  0.0645  1.8842  1.5776
  322MOL0     H43466   2.362   0.879   4.909  0.1154  0.1980 -0.0041
  322MOL0     H43467   2.258   0.723   4.934  0.0663  0.0046 -1.7860
  322MOL0     H43468   2.285   0.826   5.328 -3.2120  0.1065 -0.6080
  322MOL0     H43469   1.781   1.097   4.707 -1.0363 -1.0427 -0.6507
  322MOL0     H43470   1.559   1.176   4.686  1.0425  2.2335  0.5703
  323MOL0     O43471   3.342   1.420   1.734  0.5049  0.2385 -0.0108
  323MOL0     C43472   3.361   1.485   1.630  0.2040  0.4625 -1.1752
  323MOL0     O43473   3.270   1.562   1.570 -0.0905  0.7874  0.4363
  323MOL0     C43474   3.144   1.579   1.622  0.0000  0.0319 -0.4113
  323MOL0     C43475   3.104   1.571   1.758 -0.1951  0.0144 -0.0380
  323MOL0     C43476   2.965   1.590   1.792  0.8195 -0.4825  0.0165
  323MOL0     C43477   2.865   1.593   1.691  0.1083 -0.2875  0.5127
  323MOL0     O43478   2.735   1.580   1.733 -0.5698 -0.5700 -0.1749
  323MOL0     C43479   2.628   1.617   1.638 -0.0353  0.2221  0.0945
  323MOL0     C43480   2.496   1.574   1.711 -0.1472  0.5442 -0.1357
  323MOL0     C43481   2.386   1.605   1.608  1.2141  0.1003 -0.5055
  323MOL0     C43482   2.256   1.553   1.674 -0.1252  0.4841  0.7861
  323MOL0     C43483   2.139   1.544   1.570  0.9011  0.6674 -0.5308
  323MOL0     C43484   2.122   1.678   1.499  0.4758 -0.0360  0.0807
  323MOL0     C43485   1.992   1.693   1.416  0.2496  0.2102  0.2527
  323MOL0     C43486   1.882   1.693   1.516  0.3012 -0.4193 -0.6353
  323MOL0     N43487   1.750   1.733   1.464 -0.0515 -0.7668 -0.1341
  323MOL0     C43488   1.716   1.863   1.420  0.9012 -0.4751 -0.8080
  323MOL0     C43489   1.580   1.863   1.410  0.0357  0.2048  1.0240
  323MOL0     C43490   1.488   1.983   1.383 -0.0894 -0.2656 -0.1979
  323MOL0     C43491   1.470   2.008   1.236 -0.0971 -0.0172  0.3836
  323MOL0     C43492   1.425   1.876   1.161 -0.4487 -1.1807 -0.4618
  323MOL0     C43493   1.286   1.815   1.198 -0.2318 -0.1305 -0.3473
  323MOL0     O43494   1.184   1.913   1.232  0.0853  0.5244 -0.1203
  323MOL0     C43495   1.059   1.880   1.264 -0.5684 -0.0765 -0.3548
  323MOL0     C43496   1.003   1.759   1.293 -0.3439 -0.0365 -0.2919
  323MOL0     C43497   0.873   1.746   1.342 -0.1647 -0.8284 -0.1539
  323MOL0     C43498   0.831   1.601   1.353 -0.0060 -0.1151  0.1020
  323MOL0     C43499   0.793   1.863   1.369  0.2247 -0.1164 -0.5139
  323MOL0     C43500   0.658   1.864   1.419  0.0010  0.1477  0.0927
  323MOL0     O43501   0.594   1.991   1.401 -0.3394 -0.1753 -0.2727
  323MOL0     C43502   0.464   1.998   1.436 -0.3975 -0.6013  0.5409
  323MOL0     C43503   0.431   2.071   1.546  0.8442 -0.2115  0.1968
  323MOL0     C43504   0.295   2.089   1.578 -0.4580 -1.1905 -0.5370
  323MOL0     C43505   0.196   2.011   1.513 -0.6247 -0.0215 -0.2223
  323MOL0     O43506   0.068   1.996   1.551 -0.1304 -0.5185 -0.1671
  323MOL0     C43507   0.022   2.084   1.650 -0.0113  0.4127 -0.2017
  323MOL0     C43508  -0.118   2.054   1.683  0.2364  0.4793 -0.3324
  323MOL0     C43509  -0.178   2.131   1.810  0.2328  0.0475  0.5563
  323MOL0     C43510  -0.324   2.106   1.844  0.6953 -0.1953 -0.8889
  323MOL0     C43511  -0.339   2.175   1.991 -0.0879 -0.8588  0.1744
  323MOL0     C43512  -0.279   2.097   2.107  0.2335  0.2068  0.4564
  323MOL0     C43513  -0.333   2.137   2.246  0.0168 -0.5386  0.3447
  323MOL0     C43514  -0.294   2.274   2.294  0.4107 -0.3915 -0.4315
  323MOL0    Cl43515  -0.421   2.388   2.243  0.3364  0.1466  0.1517
  323MOL0     C43516   0.236   1.931   1.411 -0.0636 -0.0404 -0.1945
  323MOL0     C43517   0.365   1.938   1.358 -1.1261 -0.2808  0.5552
  323MOL0     O43518   0.609   1.764   1.469 -0.0888 -0.0278  0.3832
  323MOL0     C43519   0.852   1.987   1.336 -0.6229 -0.5379  0.6969
  323MOL0     C43520   0.985   1.992   1.280  0.1360  0.8290  0.2296
  323MOL0     N43521   1.534   1.734   1.441  0.1478 -0.3316  0.4438
  323MOL0     N43522   1.637   1.654   1.475 -0.3928 -0.6745  0.2689
  323MOL0     C43523   2.905   1.609   1.556 -0.0947  0.2910 -0.3116
  323MOL0     C43524   3.038   1.598   1.526  0.4411  0.1597  0.3053
  323MOL0     C43525   3.504   1.484   1.575  0.2782  0.4145 -0.2858
  323MOL0     C43526   3.606   1.409   1.632  0.5526  0.3701  0.1180
  323MOL0     C43527   3.736   1.413   1.580  0.1751 -0.2274  0.2208
  323MOL0     C43528   3.762   1.491   1.468 -0.3204 -0.0360  0.2471
  323MOL0     O43529   3.888   1.490   1.420 -0.1430 -0.2369  0.3200
  323MOL0     C43530   3.931   1.553   1.299  0.5756  0.4218  0.0113
  323MOL0     C43531   4.078   1.526   1.278  1.1488 -0.1490  0.0652
  323MOL0     C43532   4.163   1.613   1.375 -0.2449  0.1116 -0.5847
  323MOL0     C43533   4.309   1.640   1.325  0.4462  0.2654  0.0319
  323MOL0     C43534   4.368   1.518   1.268  0.3837 -0.0121  0.7286
  323MOL0     C43535   4.418   1.415   1.237 -0.2512  0.0901  0.1468
  323MOL0     C43536   3.658   1.561   1.411  0.2560 -0.3764  0.8935
  323MOL0     C43537   3.528   1.564   1.463 -0.0207  0.6857 -0.0857
  323MOL0     H43538   3.180   1.543   1.831  1.0378 -1.1814 -1.7265
  323MOL0     H43539   2.929   1.596   1.894 -3.9451 -1.4974 -1.3285
  323MOL0     H43540   2.642   1.724   1.621 -0.6523  0.1680 -0.8368
  323MOL0     H43541   2.631   1.572   1.538 -2.1391  1.3131 -0.5262
  323MOL0     H43542   2.504   1.468   1.736  3.3995  0.8049  0.3812
  323MOL0     H43543   2.479   1.621   1.809  0.1594 -1.7199  1.0671
  323MOL0     H43544   2.381   1.713   1.592 -2.4249  0.8023  3.5469
  323MOL0     H43545   2.410   1.547   1.519  1.3686 -1.4767  0.5361
  323MOL0     H43546   2.272   1.455   1.720 -0.8224 -0.1384 -0.2634
  323MOL0     H43547   2.226   1.622   1.753 -1.4046  1.6199 -0.6348
  323MOL0     H43548   2.161   1.454   1.512  2.0942 -0.5663  1.7181
  323MOL0     H43549   2.052   1.525   1.633  0.6530 -1.1156 -1.3614
  323MOL0     H43550   2.133   1.759   1.571  3.4811 -0.7563  0.5754
  323MOL0     H43551   2.205   1.689   1.428  0.3710  1.9304  0.2093
  323MOL0     H43552   1.999   1.794   1.373  1.8187  0.4600  1.0049
  323MOL0     H43553   1.988   1.618   1.337 -0.1443  2.8884 -2.4524
  323MOL0     H43554   1.910   1.761   1.596  0.0017 -0.1804 -0.7316
  323MOL0     H43555   1.867   1.594   1.562 -3.4889  0.4928  0.4202
  323MOL0     H43556   1.785   1.946   1.414 -0.2605  0.6629  0.7034
  323MOL0     H43557   1.396   1.956   1.436  1.4137 -0.0245  2.7987
  323MOL0     H43558   1.529   2.078   1.419  2.0975 -0.0315 -2.9647
  323MOL0     H43559   1.564   2.036   1.188 -0.4110  0.6563  0.1484
  323MOL0     H43560   1.404   2.094   1.222 -0.6766 -0.6091 -0.5648
  323MOL0     H43561   1.502   1.800   1.175  0.4271 -0.0994  0.8056
  323MOL0     H43562   1.413   1.899   1.054  0.0699  1.2037 -0.0459
  323MOL0     H43563   1.302   1.744   1.280  2.8460  0.9649  0.1386
  323MOL0     H43564   1.248   1.742   1.126  1.6638 -1.4343 -0.1138
  323MOL0     H43565   1.061   1.670   1.272 -1.1910 -0.7307  0.2483
  323MOL0     H43566   0.895   1.518   1.322 -1.2549 -1.5911  1.3350
  323MOL0     H43567   0.807   1.571   1.455  2.2651 -0.2108  0.6511
  323MOL0     H43568   0.740   1.589   1.293 -0.1564 -1.7747  0.6181
  323MOL0     H43569   0.500   2.131   1.604 -0.1535  0.5778  0.6068
  323MOL0     H43570   0.280   2.156   1.662  1.8569  1.3332 -1.9682
  323MOL0     H43571   0.075   2.079   1.745 -0.0517  2.4224 -0.0174
  323MOL0     H43572   0.015   2.191   1.625  0.8451  0.3842 -0.5997
  323MOL0     H43573  -0.167   2.077   1.588  2.3910  0.3110 -1.5386
  323MOL0     H43574  -0.127   1.946   1.698  1.4862  0.6118  1.6972
  323MOL0     H43575  -0.169   2.236   1.779 -1.3071 -0.0749 -0.4613
  323MOL0     H43576  -0.113   2.105   1.894 -1.5284 -2.6607  1.1927
  323MOL0     H43577  -0.393   2.160   1.779  1.6317 -0.1625 -1.8883
  323MOL0     H43578  -0.354   2.004   1.867  0.4517  0.4884  2.4101
  323MOL0     H43579  -0.447   2.192   2.001 -0.6847 -1.3957 -3.5955
  323MOL0     H43580  -0.289   2.272   1.986  1.5925 -1.7007 -0.0135
  323MOL0     H43581  -0.292   1.991   2.084 -0.9479  1.1469 -4.5487
  323MOL0     H43582  -0.173   2.122   2.118  0.2981 -1.1031  3.9140
  323MOL0     H43583  -0.293   2.065   2.319 -1.4705 -1.6616  0.1006
  323MOL0     H43584  -0.440   2.114   2.250  0.4771 -2.8012  1.2836
  323MOL0     H43585  -0.194   2.297   2.257 -0.3767 -1.7240 -3.8072
  323MOL0     H43586  -0.280   2.280   2.402 -0.6378  0.3452 -0.3162
  323MOL0     H43587   0.176   1.851   1.369 -2.6093  1.4825  0.3651
  323MOL0     H43588   0.403   1.886   1.271 -1.1666 -0.1963  0.4862
  323MOL0     H43589   0.800   2.082   1.341  0.6740  0.2097  0.4044
  323MOL0     H43590   1.031   2.089   1.265 -0.1534  1.2829  2.0716
  323MOL0     H43591   2.834   1.627   1.476 -0.6783  0.5167  0.2437
  323MOL0     H43592   3.071   1.612   1.423 -0.2176 -0.9798 -0.0763
  323MOL0     H43593   3.580   1.341   1.713 -1.3334  0.4484 -0.3561
  323MOL0     H43594   3.816   1.353   1.624  1.4846  2.4737  1.7728
  323MOL0     H43595   3.868   1.510   1.220 -0.4154 -0.4856  1.2494
  323MOL0     H43596   3.912   1.660   1.305 -2.3833 -0.0054  0.0338
  323MOL0     H43597   4.101   1.549   1.173 -0.7222 -0.5445 -0.4631
  323MOL0     H43598   4.096   1.421   1.299 -0.8446 -0.6969 -0.7720
  323MOL0     H43599   4.167   1.580   1.479  1.4307  1.2196 -0.2567
  323MOL0     H43600   4.110   1.708   1.387 -1.6883 -0.7717  0.3115
  323MOL0     H43601   4.368   1.678   1.408  1.7211 -0.9566 -0.2659
  323MOL0     H43602   4.300   1.715   1.246  1.6119 -1.0116 -1.3933
  323MOL0     H43603   4.452   1.314   1.222 -2.7790 -0.7431 -0.6437
  323MOL0     H43604   3.673   1.613   1.317 -1.6739 -1.0951  0.1333
  323MOL0     H43605   3.446   1.616   1.415  1.6205  0.5162 -3.3449
  324MOL0     O43606   1.994   5.203   5.355  0.0784  0.0870 -0.0203
  324MOL0     C43607   2.054   5.205   5.463  0.1001  0.6181 -0.1351
  324MOL0     O43608   1.990   5.183   5.578 -1.0814  0.4769 -0.7108
  324MOL0     C43609   1.850   5.184   5.571  0.0985  0.3709 -1.0382
  324MOL0     C43610   1.775   5.304   5.542  0.1238 -0.2044  0.3482
  324MOL0     C43611   1.641   5.296   5.508 -0.6451  0.4843 -1.0326
  324MOL0     C43612   1.574   5.170   5.518  0.3818 -0.9164  0.3181
  324MOL0     O43613   1.441   5.168   5.479 -0.3263  0.1070 -0.7237
  324MOL0     C43614   1.338   5.138   5.575  0.4527  0.1051 -0.5910
  324MOL0     C43615   1.215   5.216   5.530 -0.8882  0.2959 -0.5261
  324MOL0     C43616   1.107   5.223   5.637  0.1473  0.0649 -0.2340
  324MOL0     C43617   0.986   5.286   5.573  0.2474 -0.3391 -0.6193
  324MOL0     C43618   0.861   5.257   5.650  0.5212 -0.0111 -0.2053
  324MOL0     C43619   0.746   5.337   5.588 -0.4262  0.5480  0.1071
  324MOL0     C43620   0.606   5.306   5.636  0.0816  0.1379  0.6257
  324MOL0     C43621   0.585   5.317   5.786 -0.4695  0.2425 -0.2204
  324MOL0     N43622   0.443   5.311   5.833 -0.2352  0.3298 -0.6139
  324MOL0     C43623   0.338   5.390   5.803 -0.6296 -0.0081  1.0257
  324MOL0     C43624   0.232   5.339   5.878 -0.3508  0.4339  0.9325
  324MOL0     C43625   0.092   5.385   5.853  0.3966  0.5344  0.0208
  324MOL0     C43626   0.006   5.361   5.976  0.2044  0.6910  0.1394
  324MOL0     C43627  -0.127   5.438   5.963 -0.5384  0.3137 -0.2492
  324MOL0     C43628  -0.231   5.370   6.051  0.4345 -0.2867 -0.6132
  324MOL0     O43629  -0.363   5.420   6.022  0.4196 -0.0048 -0.2157
  324MOL0     C43630  -0.473   5.336   6.040  0.0725 -0.6863 -0.3185
  324MOL0     C43631  -0.468   5.214   6.118  0.1936  0.3660  0.3604
  324MOL0     C43632  -0.585   5.131   6.129 -0.4393  0.1454 -0.2906
  324MOL0     C43633  -0.578   5.007   6.219  0.0290 -0.1652 -0.2018
  324MOL0     C43634  -0.708   5.172   6.076  0.2150 -0.2427  0.7021
  324MOL0     C43635  -0.835   5.096   6.079  0.5581 -0.0748 -1.0596
  324MOL0     O43636  -0.957   5.162   6.111 -0.1313 -0.2778  0.6483
  324MOL0     C43637  -1.074   5.107   6.122  0.5026 -0.2484 -0.7939
  324MOL0     C43638  -1.148   5.127   6.242  0.3336 -0.1508  0.6385
  324MOL0     C43639  -1.250   5.038   6.275  0.1244 -0.2042 -0.2147
  324MOL0     C43640  -1.304   4.954   6.176  0.2829  0.2525  0.6590
  324MOL0     O43641  -1.418   4.877   6.187  0.3385 -0.1987 -0.1998
  324MOL0     C43642  -1.483   4.880   6.319 -0.4369  0.4207 -0.2561
  324MOL0     C43643  -1.592   4.771   6.333  1.2517 -0.6647 -0.5195
  324MOL0     C43644  -1.731   4.823   6.291 -0.7088 -0.0019 -0.0130
  324MOL0     C43645  -1.815   4.707   6.256 -0.4583 -0.4737 -0.1483
  324MOL0     C43646  -1.927   4.744   6.157  1.2015 -1.2974 -0.0389
  324MOL0     C43647  -2.022   4.848   6.224 -0.8110 -0.1439  0.2862
  324MOL0     C43648  -2.136   4.892   6.130  0.6029  0.3087 -0.2827
  324MOL0     C43649  -2.097   4.975   6.009 -0.1727  0.1848 -0.1804
  324MOL0    Cl43650  -2.199   4.958   5.872  0.0668 -0.1696 -0.0427
  324MOL0     C43651  -1.239   4.952   6.048  0.0964  0.1857 -0.3979
  324MOL0     C43652  -1.120   5.020   6.026 -1.1209 -0.5344  0.9613
  324MOL0     O43653  -0.818   4.969   6.065 -0.2985 -0.7738 -0.5957
  324MOL0     C43654  -0.711   5.296   6.013  0.4479 -0.0312  0.0837
  324MOL0     C43655  -0.601   5.371   5.999  0.1627 -0.4771  0.5387
  324MOL0     N43656   0.289   5.237   5.957  0.3037 -0.0275  0.0280
  324MOL0     N43657   0.416   5.229   5.935  0.9746  0.1299 -0.4503
  324MOL0     C43658   1.645   5.056   5.564 -0.1579 -0.3461  0.4533
  324MOL0     C43659   1.780   5.064   5.595 -0.0583 -0.5660  0.4043
  324MOL0     C43660   2.198   5.193   5.462  0.5629  0.6334 -0.9461
  324MOL0     C43661   2.268   5.207   5.345 -0.3188 -0.2050  0.3512
  324MOL0     C43662   2.410   5.181   5.337  0.2028 -0.4437 -0.2763
  324MOL0     C43663   2.478   5.129   5.448 -0.2266 -0.8875 -0.3600
  324MOL0     O43664   2.619   5.117   5.439  0.1913  0.3179 -0.0078
  324MOL0     C43665   2.682   5.035   5.539  0.4248 -0.2703 -1.1022
  324MOL0     C43666   2.822   4.982   5.482 -0.1779 -0.4228  0.5703
  324MOL0     C43667   2.796   4.922   5.344 -0.4398 -0.3618 -0.2013
  324MOL0     C43668   2.749   4.775   5.346  0.5527 -0.1074  0.0928
  324MOL0     C43669   2.852   4.678   5.393  0.6799 -0.3696  0.1021
  324MOL0     C43670   2.918   4.596   5.454  0.5671 -0.0763 -0.3752
  324MOL0     C43671   2.410   5.124   5.564  0.1868 -0.2566 -0.1725
  324MOL0     C43672   2.274   5.159   5.574 -0.4712  1.0501 -0.2515
  324MOL0     H43673   1.808   5.406   5.524 -0.7682  0.1992  0.9015
  324MOL0     H43674   1.586   5.381   5.467 -2.7466 -1.1164 -1.7205
  324MOL0     H43675   1.320   5.030   5.583 -1.9025  0.4375 -0.7335
  324MOL0     H43676   1.375   5.163   5.675  0.5042 -3.7525  0.5116
  324MOL0     H43677   1.251   5.317   5.510  1.5056 -0.1134  1.2206
  324MOL0     H43678   1.175   5.176   5.436 -0.9436 -1.2137  0.1045
  324MOL0     H43679   1.088   5.121   5.670  0.5056  0.5799  1.6721
  324MOL0     H43680   1.140   5.272   5.729  1.0547  0.7515 -0.9108
  324MOL0     H43681   0.992   5.394   5.590 -1.4745 -0.7984  4.3563
  324MOL0     H43682   0.978   5.270   5.465  1.1466 -1.0389 -0.5945
  324MOL0     H43683   0.839   5.150   5.644 -3.8563  0.7686 -1.5337
  324MOL0     H43684   0.867   5.283   5.756  2.7256  0.2463 -0.3497
  324MOL0     H43685   0.749   5.445   5.601 -0.6754  0.4577  1.0029
  324MOL0     H43686   0.733   5.308   5.483 -4.5404 -1.0515  0.8263
  324MOL0     H43687   0.527   5.368   5.593  0.3165 -0.3539 -0.5616
  324MOL0     H43688   0.574   5.206   5.605 -1.2503  0.8968 -0.5854
  324MOL0     H43689   0.617   5.418   5.811  1.1576 -0.1130 -0.7643
  324MOL0     H43690   0.642   5.234   5.830 -4.2651 -1.6899  1.6340
  324MOL0     H43691   0.328   5.477   5.739  0.3130 -1.0061 -0.5108
  324MOL0     H43692   0.088   5.490   5.822  0.6218  0.5149 -0.0815
  324MOL0     H43693   0.045   5.324   5.776  0.5979 -0.1226  0.4147
  324MOL0     H43694   0.050   5.388   6.072 -2.1540  1.4607  1.0830
  324MOL0     H43695  -0.019   5.255   5.979  0.8831  0.5487  1.1900
  324MOL0     H43696  -0.170   5.432   5.863 -0.5247  0.8579 -0.2930
  324MOL0     H43697  -0.125   5.543   5.995 -0.9666 -0.3264  2.0993
  324MOL0     H43698  -0.205   5.394   6.154  1.0242 -1.6804 -0.4270
  324MOL0     H43699  -0.226   5.261   6.042  1.7076 -0.3279  0.3289
  324MOL0     H43700  -0.375   5.187   6.167  1.9304  2.2346 -1.7210
  324MOL0     H43701  -0.676   5.007   6.268  0.3827  1.0467  0.5388
  324MOL0     H43702  -0.564   4.919   6.156 -0.9354  0.1294 -0.8522
  324MOL0     H43703  -0.503   5.021   6.297 -3.6823  1.6439  3.3976
  324MOL0     H43704  -1.103   5.190   6.319 -1.7519  3.3746 -0.7708
  324MOL0     H43705  -1.297   5.036   6.373  1.8609 -0.2426  0.6488
  324MOL0     H43706  -1.408   4.846   6.391 -0.7054 -0.7803 -0.5211
  324MOL0     H43707  -1.513   4.981   6.348 -0.5902  0.4015 -0.3476
  324MOL0     H43708  -1.565   4.685   6.270  0.8496 -1.5949  0.5534
  324MOL0     H43709  -1.599   4.736   6.436 -2.4513  1.3977  0.0898
  324MOL0     H43710  -1.728   4.894   6.208  1.2703  0.8043  0.7055
  324MOL0     H43711  -1.761   4.881   6.378 -0.5358  1.9895 -1.2115
  324MOL0     H43712  -1.756   4.629   6.206 -0.7967 -0.1242 -1.1139
  324MOL0     H43713  -1.853   4.661   6.348  1.3943 -2.1001 -0.1192
  324MOL0     H43714  -1.978   4.651   6.133 -1.2219 -0.3576  1.1477
  324MOL0     H43715  -1.884   4.788   6.066  1.9727 -1.0140  0.4456
  324MOL0     H43716  -2.072   4.803   6.311 -0.5283 -1.2877 -0.1254
  324MOL0     H43717  -1.966   4.934   6.262 -1.2769 -0.5600  2.0299
  324MOL0     H43718  -2.220   4.935   6.185  0.2969 -1.1159  0.4043
  324MOL0     H43719  -2.187   4.799   6.104 -1.4861  1.3793 -0.1939
  324MOL0     H43720  -1.992   4.963   5.980 -0.0479  1.6089 -0.3735
  324MOL0     H43721  -2.113   5.081   6.033  0.7305  0.3664 -0.3439
  324MOL0     H43722  -1.275   4.889   5.968 -1.2574  2.0855 -1.3475
  324MOL0     H43723  -1.066   4.991   5.936 -2.4454 -3.4653  0.9986
  324MOL0     H43724  -0.805   5.340   5.983  0.1540  1.3297  2.6797
  324MOL0     H43725  -0.614   5.461   5.941  0.0785 -1.0070 -0.2787
  324MOL0     H43726   1.586   4.965   5.575  1.8771 -2.4403 -3.6276
  324MOL0     H43727   1.828   4.968   5.613 -0.3486 -0.8571 -0.3146
  324MOL0     H43728   2.221   5.257   5.261 -1.3567  0.8912  1.5551
  324MOL0     H43729   2.452   5.213   5.242 -0.1955  0.0307 -0.3036
  324MOL0     H43730   2.693   5.088   5.634 -0.3939  1.2410 -1.8246
  324MOL0     H43731   2.618   4.947   5.553  0.4328 -0.3790 -1.7192
  324MOL0     H43732   2.874   4.903   5.538  1.7759  0.2355 -0.2602
  324MOL0     H43733   2.888   5.066   5.462  0.5228 -1.0831  0.0574
  324MOL0     H43734   2.895   4.915   5.298  0.4186  2.2073  1.0843
  324MOL0     H43735   2.742   4.990   5.279  0.1906  3.5747  3.0156
  324MOL0     H43736   2.732   4.759   5.239  2.5060  1.1065 -0.4585
  324MOL0     H43737   2.660   4.763   5.408  0.1253  2.5999  0.1358
  324MOL0     H43738   2.969   4.516   5.505 -3.1759 -1.8569  0.9891
  324MOL0     H43739   2.452   5.091   5.659 -0.1657  0.6348  0.3034
  324MOL0     H43740   2.227   5.142   5.671 -0.0031 -1.7635 -0.4158
  325MOL0     O43741  10.177   2.284   7.959  0.7089 -0.9896  0.3636
  325MOL0     C43742  10.244   2.197   8.013 -0.1005 -0.2975  0.6225
  325MOL0     O43743  10.196   2.108   8.100  0.3611  1.0962  0.4214
  325MOL0     C43744  10.064   2.086   8.089 -0.4576  0.8726  0.6951
  325MOL0     C43745   9.985   2.158   8.173 -0.5850  0.1656 -0.0266
  325MOL0     C43746   9.846   2.135   8.174 -0.8057 -0.5282 -0.5422
  325MOL0     C43747   9.791   2.043   8.084 -0.5304  0.3267 -0.5392
  325MOL0     O43748   9.655   2.025   8.092  1.2178  0.1008 -0.1119
  325MOL0     C43749   9.602   1.897   8.061  0.7402 -0.4416  0.1261
  325MOL0     C43750   9.447   1.901   8.080 -1.1041 -0.4825  0.3433
  325MOL0     C43751   9.379   2.002   8.002 -0.0781  0.3409 -0.0291
  325MOL0     C43752   9.231   1.980   8.016 -0.0644  0.7904 -0.6359
  325MOL0     C43753   9.147   2.089   7.942 -0.2361 -0.3739 -0.3006
  325MOL0     C43754   8.993   2.061   7.932 -1.1595 -0.1228  1.0658
  325MOL0     C43755   8.919   2.185   7.891  0.2507  0.4974  0.2485
  325MOL0     C43756   8.765   2.178   7.926  0.6117 -0.1797  0.7414
  325MOL0     N43757   8.701   2.083   7.829  0.9867 -0.1446 -0.1132
  325MOL0     C43758   8.563   2.080   7.802  0.1722 -0.2378  0.3511
  325MOL0     C43759   8.545   1.999   7.695  0.3627  0.4015  0.0110
  325MOL0     C43760   8.425   1.944   7.627 -0.1264 -0.9112  0.1221
  325MOL0     C43761   8.418   1.802   7.612  0.1007  0.1673  0.1282
  325MOL0     C43762   8.285   1.763   7.554 -0.1170  0.3602 -0.9453
  325MOL0     C43763   8.254   1.821   7.420  0.2150  0.5761  0.1179
  325MOL0     O43764   8.141   1.743   7.373  0.0584 -0.1166  0.2921
  325MOL0     C43765   8.092   1.780   7.248  0.2120  0.1105 -0.4407
  325MOL0     C43766   8.162   1.756   7.135 -0.5485  0.5651  0.1831
  325MOL0     C43767   8.120   1.792   7.004  1.1830  0.2614  0.1215
  325MOL0     C43768   8.194   1.744   6.882 -0.4555 -0.3793 -0.2620
  325MOL0     C43769   8.007   1.860   6.989  0.4745 -0.4891  0.1485
  325MOL0     C43770   7.957   1.929   6.864  0.2795  0.2942  0.2284
  325MOL0     O43771   7.825   1.963   6.862  0.8017  0.2498  0.4253
  325MOL0     C43772   7.767   2.001   6.742 -0.1435  0.7399 -0.0334
  325MOL0     C43773   7.773   2.136   6.703 -0.2428  0.5310  0.4401
  325MOL0     C43774   7.716   2.180   6.588  0.3081  0.1305  0.5148
  325MOL0     C43775   7.664   2.088   6.499 -0.4186 -0.0859 -0.3722
  325MOL0     O43776   7.599   2.117   6.380  0.1180 -0.7232  0.2689
  325MOL0     C43777   7.525   2.239   6.364 -0.6994 -0.4004 -0.0164
  325MOL0     C43778   7.432   2.211   6.235 -0.1716 -0.2772 -0.2242
  325MOL0     C43779   7.322   2.109   6.252 -0.2653  0.4723 -0.0033
  325MOL0     C43780   7.240   2.108   6.122  0.5582 -0.3373 -0.2911
  325MOL0     C43781   7.098   2.036   6.153 -0.1302  0.6263  0.2095
  325MOL0     C43782   6.992   2.077   6.051 -0.0973 -0.2032 -1.0169
  325MOL0     C43783   6.856   2.055   6.113  0.3382 -0.5755  0.5958
  325MOL0     C43784   6.751   2.074   6.009  0.0732 -0.8716  0.0222
  325MOL0    Cl43785   6.739   2.237   5.955  0.3913  0.0398  0.1762
  325MOL0     C43786   7.665   1.952   6.529 -0.5108 -0.2825 -0.0064
  325MOL0     C43787   7.714   1.907   6.649  0.1984 -0.4473 -0.2147
  325MOL0     O43788   8.025   1.920   6.764 -0.4172 -0.2873  0.5433
  325MOL0     C43789   7.932   1.889   7.103 -0.5292  0.5491 -0.6428
  325MOL0     C43790   7.976   1.852   7.236  0.1218  0.7426 -0.3638
  325MOL0     N43791   8.671   1.957   7.665 -0.3002 -0.9829  0.4059
  325MOL0     N43792   8.761   1.999   7.742  0.3293 -0.5230  1.0635
  325MOL0     C43793   9.880   1.969   7.999 -0.0831 -0.1857 -0.0111
  325MOL0     C43794  10.016   1.990   7.998 -0.1167  0.3493  0.3097
  325MOL0     C43795  10.386   2.194   8.000 -0.1451  0.3723 -1.3177
  325MOL0     C43796  10.464   2.109   8.077  0.2735 -0.7592  0.1281
  325MOL0     C43797  10.601   2.114   8.069  0.8517  0.3672  0.1857
  325MOL0     C43798  10.672   2.187   7.971 -0.0243 -0.8625  0.5323
  325MOL0     O43799  10.807   2.192   7.988 -0.1854 -0.5903 -0.0203
  325MOL0     C43800  10.878   2.211   7.863 -0.1399 -0.8915 -0.1570
  325MOL0     C43801  11.023   2.235   7.910  0.2949 -0.3581 -0.3478
  325MOL0     C43802  11.102   2.118   7.972  0.0666  0.2446 -0.1264
  325MOL0     C43803  11.240   2.160   8.018  0.4667  0.1695 -0.4078
  325MOL0     C43804  11.329   2.207   7.910  0.0355  0.2298 -0.1004
  325MOL0     C43805  11.413   2.247   7.834 -0.4213  0.1816  0.7583
  325MOL0     C43806  10.592   2.272   7.888 -0.0844 -0.0589 -0.7033
  325MOL0     C43807  10.450   2.271   7.904  0.1761 -0.3473  0.0251
  325MOL0     H43808  10.031   2.231   8.240 -2.4355 -0.7854  2.4453
  325MOL0     H43809   9.799   2.189   8.255  2.8450  0.7686  0.9219
  325MOL0     H43810   9.627   1.864   7.959  1.5606  0.7599 -0.0884
  325MOL0     H43811   9.642   1.820   8.128 -0.0607  0.1419  1.2944
  325MOL0     H43812   9.417   1.799   8.054  3.0793 -1.2680 -2.3106
  325MOL0     H43813   9.425   1.922   8.185 -2.1500  0.9967 -0.1428
  325MOL0     H43814   9.388   2.110   8.017  0.7384  0.7540 -2.8185
  325MOL0     H43815   9.402   1.992   7.895 -1.3541  1.1244 -0.4052
  325MOL0     H43816   9.202   1.879   7.986 -1.6300  0.1440  2.5613
  325MOL0     H43817   9.209   1.974   8.123 -1.0470 -1.6416 -0.9052
  325MOL0     H43818   9.160   2.178   8.005  1.0429 -0.7901  0.0460
  325MOL0     H43819   9.197   2.110   7.848  1.5901  0.6998  0.8587
  325MOL0     H43820   8.980   1.984   7.856  0.2774 -3.3007  3.7498
  325MOL0     H43821   8.954   2.011   8.022 -3.2280 -1.8145 -0.6593
  325MOL0     H43822   8.961   2.265   7.954  2.1263 -0.0046 -0.3347
  325MOL0     H43823   8.940   2.200   7.785 -0.3408 -1.2008 -0.1353
  325MOL0     H43824   8.735   2.281   7.908  1.4967 -0.2032 -1.1528
  325MOL0     H43825   8.749   2.146   8.029 -1.8261 -2.1302 -0.1517
  325MOL0     H43826   8.479   2.116   7.861 -0.4209  0.3417 -0.8247
  325MOL0     H43827   8.334   1.973   7.682  0.3173  0.0425  0.3800
  325MOL0     H43828   8.413   1.999   7.533  2.4777  1.2007  0.9143
  325MOL0     H43829   8.438   1.757   7.710 -1.2279 -1.4977 -0.3157
  325MOL0     H43830   8.500   1.763   7.552 -0.6642  0.2675 -1.0185
  325MOL0     H43831   8.210   1.789   7.629  1.3100 -0.1697  0.7444
  325MOL0     H43832   8.288   1.654   7.544  1.1321  0.0251  2.0813
  325MOL0     H43833   8.344   1.811   7.359 -1.8747 -0.4081 -3.0563
  325MOL0     H43834   8.217   1.923   7.419 -0.1973  0.4307 -1.0938
  325MOL0     H43835   8.255   1.701   7.145 -0.9188  0.0478  0.8513
  325MOL0     H43836   8.254   1.657   6.908 -2.1453 -1.3084  0.7319
  325MOL0     H43837   8.119   1.708   6.811 -0.0899 -1.9296  0.1203
  325MOL0     H43838   8.244   1.827   6.831  2.3912 -0.8274  1.6056
  325MOL0     H43839   7.836   2.198   6.765  1.8324 -2.8754  2.0061
  325MOL0     H43840   7.705   2.284   6.560 -1.5802  0.2232  1.4613
  325MOL0     H43841   7.472   2.262   6.457  0.9394 -0.5686  1.0103
  325MOL0     H43842   7.593   2.323   6.346 -0.4404 -0.2386  1.5978
  325MOL0     H43843   7.392   2.307   6.199  0.1520 -0.6539 -1.6497
  325MOL0     H43844   7.484   2.174   6.146 -2.0789 -0.4691 -1.3062
  325MOL0     H43845   7.258   2.131   6.339 -0.6369  1.5350 -0.5316
  325MOL0     H43846   7.376   2.016   6.270 -1.2533 -0.0918  0.0787
  325MOL0     H43847   7.228   2.208   6.079 -2.2555 -0.5402 -0.1487
  325MOL0     H43848   7.291   2.043   6.050 -0.8932  2.0980 -3.7965
  325MOL0     H43849   7.070   2.070   6.254  0.4630  2.5487 -0.2333
  325MOL0     H43850   7.113   1.928   6.145 -0.7474  0.5986 -0.6955
  325MOL0     H43851   7.012   2.181   6.021 -1.7134 -0.0080 -1.4615
  325MOL0     H43852   7.004   2.023   5.957  0.8937  0.8847 -1.5443
  325MOL0     H43853   6.830   2.132   6.187  0.0030  0.7156 -0.8095
  325MOL0     H43854   6.850   1.953   6.152  0.0482  0.0442  2.2597
  325MOL0     H43855   6.661   2.058   6.070  1.4256  1.8881  3.0734
  325MOL0     H43856   6.774   2.002   5.930  2.3835 -0.8178  0.5680
  325MOL0     H43857   7.620   1.892   6.451 -0.2760  0.8412 -1.0458
  325MOL0     H43858   7.727   1.801   6.666 -3.3427 -0.9682 -0.0010
  325MOL0     H43859   7.839   1.944   7.089 -2.0476 -1.2301  1.6371
  325MOL0     H43860   7.925   1.884   7.326 -0.8796 -0.4946 -0.4622
  325MOL0     H43861   9.843   1.901   7.923  0.3004  0.8982 -1.1980
  325MOL0     H43862  10.090   1.926   7.950  1.3762  2.4936 -0.4205
  325MOL0     H43863  10.420   2.042   8.150 -0.8058  1.3954  1.5640
  325MOL0     H43864  10.665   2.053   8.132  1.8511 -0.5667 -1.6485
  325MOL0     H43865  10.860   2.118   7.808  0.7524 -1.4168  0.4158
  325MOL0     H43866  10.851   2.305   7.815 -1.2282 -0.1159  1.8525
  325MOL0     H43867  11.023   2.314   7.986 -2.2075  0.2126 -0.8617
  325MOL0     H43868  11.085   2.279   7.831 -0.0079  2.1977  0.7387
  325MOL0     H43869  11.108   2.041   7.894 -0.2277 -2.1116  2.0467
  325MOL0     H43870  11.047   2.070   8.053  1.4048  0.0506  0.7155
  325MOL0     H43871  11.291   2.075   8.064 -2.2601 -0.9033  0.8974
  325MOL0     H43872  11.231   2.240   8.092  0.7432 -0.7295  0.6223
  325MOL0     H43873  11.497   2.291   7.785 -0.3874  1.1319  1.6560
  325MOL0     H43874  10.639   2.346   7.824 -1.6846 -0.2350 -2.1457
  325MOL0     H43875  10.383   2.328   7.840  0.2296 -0.8481 -0.4899
  326MOL0     O43876   3.133   1.422   0.399 -0.2843  0.1645 -0.2697
  326MOL0     C43877   3.249   1.373   0.407  0.2398 -0.6470 -0.5585
  326MOL0     O43878   3.282   1.245   0.383 -0.7743 -0.8196 -0.5448
  326MOL0     C43879   3.176   1.158   0.358  0.9255  0.0572  0.4889
  326MOL0     C43880   3.095   1.168   0.247 -0.2587  0.0658 -0.3938
  326MOL0     C43881   2.989   1.081   0.239 -0.0050  0.2396  0.2404
  326MOL0     C43882   2.947   0.995   0.341 -0.9735  0.0336  0.5574
  326MOL0     O43883   2.821   0.938   0.331  0.0176 -0.2522 -0.2990
  326MOL0     C43884   2.768   0.871   0.447  0.4803  0.8147  0.4571
  326MOL0     C43885   2.658   0.765   0.400 -0.1119 -0.0705  0.2260
  326MOL0     C43886   2.571   0.735   0.526  0.1561 -0.4211 -0.5462
  326MOL0     C43887   2.434   0.683   0.488 -0.4562 -0.1148  0.3146
  326MOL0     C43888   2.340   0.661   0.608 -0.1419  0.1912 -0.5514
  326MOL0     C43889   2.207   0.609   0.554  0.5105  0.1731 -0.2019
  326MOL0     C43890   2.085   0.605   0.652  0.2028  0.7456  0.4691
  326MOL0     C43891   1.957   0.574   0.576  0.6591 -0.4030 -0.5074
  326MOL0     N43892   1.836   0.599   0.656  0.2873  0.1703 -0.1360
  326MOL0     C43893   1.739   0.501   0.687 -0.6317  0.6080 -0.2588
  326MOL0     C43894   1.647   0.564   0.759  0.1665 -1.1671 -0.8114
  326MOL0     C43895   1.512   0.518   0.816 -0.2578 -0.4837  0.4187
  326MOL0     C43896   1.392   0.574   0.735 -1.0078  0.2187  0.0086
  326MOL0     C43897   1.257   0.508   0.766  0.6356  1.2798  0.8370
  326MOL0     C43898   1.136   0.570   0.688 -1.0005 -0.0170  0.6150
  326MOL0     O43899   1.018   0.491   0.704 -0.2809 -0.1075 -0.6465
  326MOL0     C43900   0.913   0.544   0.775 -0.5068  0.4376 -0.4695
  326MOL0     C43901   0.790   0.478   0.771  0.2031  0.3234  0.4487
  326MOL0     C43902   0.676   0.515   0.835  0.6886 -0.4666  0.7234
  326MOL0     C43903   0.548   0.433   0.805  0.2472  0.3541  0.3575
  326MOL0     C43904   0.672   0.631   0.917  0.2158 -0.2921  1.1642
  326MOL0     C43905   0.547   0.684   0.986 -1.3186 -0.4632 -0.4158
  326MOL0     O43906   0.564   0.740   1.107  0.3566 -0.3337 -0.1194
  326MOL0     C43907   0.460   0.810   1.168 -0.1234  0.7134  0.2985
  326MOL0     C43908   0.487   0.945   1.203 -0.1930 -0.5153 -0.5903
  326MOL0     C43909   0.394   1.019   1.270 -0.1039 -0.7857 -0.0944
  326MOL0     C43910   0.265   0.970   1.282  0.6105  0.2984  0.0483
  326MOL0     O43911   0.172   1.057   1.326 -0.1720  0.2602  1.1732
  326MOL0     C43912   0.032   1.021   1.327 -0.2736 -0.0894  0.5185
  326MOL0     C43913  -0.048   1.117   1.421 -0.1210  0.4745 -0.0789
  326MOL0     C43914   0.021   1.127   1.556 -0.6125  0.9163 -0.0410
  326MOL0     C43915   0.018   1.266   1.620  0.6048 -0.4596 -0.2583
  326MOL0     C43916   0.033   1.248   1.772 -0.5756  1.0615  0.3580
  326MOL0     C43917   0.163   1.182   1.823 -0.4419  0.2607  0.1162
  326MOL0     C43918   0.170   1.184   1.975 -0.5230 -0.2907 -0.1589
  326MOL0     C43919   0.313   1.226   2.029 -0.1023  0.6911 -1.2085
  326MOL0    Cl43920   0.432   1.111   1.984  0.1500 -0.0451  0.0467
  326MOL0     C43921   0.235   0.831   1.253 -0.3715 -0.7761  0.1241
  326MOL0     C43922   0.335   0.757   1.188 -0.0983 -0.2919 -0.1886
  326MOL0     O43923   0.439   0.672   0.924 -0.1114 -0.1977 -0.8347
  326MOL0     C43924   0.795   0.700   0.924  0.7089  0.6870  0.5390
  326MOL0     C43925   0.915   0.653   0.864  0.2251 -0.4202 -0.8406
  326MOL0     N43926   1.684   0.706   0.766 -0.0769 -1.0112 -0.2726
  326MOL0     N43927   1.805   0.716   0.717 -0.5158 -0.4220  0.0860
  326MOL0     C43928   3.023   1.005   0.456  0.0889  0.7753 -1.3105
  326MOL0     C43929   3.133   1.077   0.462  0.1763  0.4232 -1.0136
  326MOL0     C43930   3.360   1.475   0.426 -0.3152  0.8479 -0.5319
  326MOL0     C43931   3.332   1.611   0.442  0.3695  0.6134 -0.0869
  326MOL0     C43932   3.438   1.695   0.464 -1.1128  0.9290  0.0485
  326MOL0     C43933   3.571   1.649   0.475  0.5594  0.6076  1.0212
  326MOL0     O43934   3.679   1.726   0.500 -0.1407  0.3682 -0.7254
  326MOL0     C43935   3.671   1.863   0.518 -0.4346 -0.3790  0.0487
  326MOL0     C43936   3.814   1.915   0.518 -0.6618 -0.4785  0.2787
  326MOL0     C43937   3.891   1.875   0.641  0.5930 -0.2836 -0.3275
  326MOL0     C43938   3.819   1.928   0.769 -0.4785  0.3222 -0.4438
  326MOL0     C43939   3.921   1.939   0.876 -0.6160  0.4514  0.4446
  326MOL0     C43940   4.017   1.968   0.939 -0.0676 -0.5721  0.4895
  326MOL0     C43941   3.600   1.513   0.458 -0.0374  0.0846  0.1484
  326MOL0     C43942   3.493   1.431   0.428 -0.7556 -0.2254 -0.0596
  326MOL0     H43943   3.108   1.245   0.172  2.0651  1.3840  1.2352
  326MOL0     H43944   2.930   1.094   0.149  0.4366 -0.7175 -0.2037
  326MOL0     H43945   2.847   0.809   0.491  0.5505  1.0149  0.6129
  326MOL0     H43946   2.720   0.945   0.511 -0.8799 -2.1934  3.1954
  326MOL0     H43947   2.584   0.802   0.328 -0.4787 -0.3741  0.4411
  326MOL0     H43948   2.700   0.673   0.360 -1.7982 -1.4597  1.4862
  326MOL0     H43949   2.630   0.669   0.591  0.9184  0.0789 -0.7250
  326MOL0     H43950   2.546   0.833   0.565  3.0632  0.7477 -1.3676
  326MOL0     H43951   2.391   0.753   0.416  1.9640 -0.9910 -2.2005
  326MOL0     H43952   2.461   0.586   0.443  0.6624  0.8580 -1.2382
  326MOL0     H43953   2.380   0.596   0.686 -1.7937 -0.1273  0.0811
  326MOL0     H43954   2.327   0.754   0.664  0.8511 -1.4201  2.5653
  326MOL0     H43955   2.180   0.664   0.463 -1.4826 -2.2056 -1.1623
  326MOL0     H43956   2.223   0.505   0.525  0.7214 -0.3612  1.6715
  326MOL0     H43957   2.099   0.526   0.725  1.7826 -1.6018 -2.1469
  326MOL0     H43958   2.072   0.700   0.705 -0.5946  0.9912 -0.1451
  326MOL0     H43959   1.962   0.465   0.563  1.0310 -0.3301 -1.0172
  326MOL0     H43960   1.943   0.632   0.484 -1.2914  1.3153  0.7907
  326MOL0     H43961   1.725   0.397   0.660  0.2366  0.5502 -0.5029
  326MOL0     H43962   1.508   0.410   0.802 -1.2962 -0.1821 -2.2606
  326MOL0     H43963   1.512   0.535   0.924  1.9493 -0.5813  0.4781
  326MOL0     H43964   1.417   0.538   0.635 -0.6201 -2.0738  0.8644
  326MOL0     H43965   1.395   0.683   0.725  1.6322  0.0043 -3.3542
  326MOL0     H43966   1.239   0.526   0.873  0.9468  2.7560  0.6626
  326MOL0     H43967   1.265   0.401   0.749 -0.4478  1.3258 -0.1079
  326MOL0     H43968   1.166   0.572   0.583 -1.5701 -0.3486  0.4466
  326MOL0     H43969   1.129   0.675   0.716 -0.2743 -0.1219  1.2560
  326MOL0     H43970   0.777   0.390   0.709  1.0019 -0.3218  1.1665
  326MOL0     H43971   0.555   0.357   0.726 -0.8427 -0.2117  0.7770
  326MOL0     H43972   0.503   0.395   0.897 -2.3178  3.9589  0.8296
  326MOL0     H43973   0.475   0.503   0.763  0.6356 -0.5043 -1.8617
  326MOL0     H43974   0.592   0.973   1.201  0.2785 -1.9671  0.8828
  326MOL0     H43975   0.412   1.120   1.305  2.7495 -1.1941 -0.1823
  326MOL0     H43976  -0.010   1.027   1.226 -0.0008  3.1934  0.5026
  326MOL0     H43977   0.014   0.918   1.360 -1.6682  0.2872  0.9968
  326MOL0     H43978  -0.050   1.215   1.372  1.6674  0.2719 -0.6391
  326MOL0     H43979  -0.147   1.075   1.439  0.6233 -1.7570 -0.8114
  326MOL0     H43980   0.125   1.093   1.546 -1.1138 -1.1822  1.3688
  326MOL0     H43981  -0.026   1.047   1.614  3.5848 -0.4218  1.9229
  326MOL0     H43982   0.083   1.335   1.566 -0.1872  0.7874  0.3380
  326MOL0     H43983  -0.083   1.308   1.616  0.5009 -0.6579  0.2104
  326MOL0     H43984  -0.048   1.195   1.825  1.4393 -2.8693 -0.0853
  326MOL0     H43985   0.037   1.352   1.806  3.0622  0.9969  0.5168
  326MOL0     H43986   0.177   1.080   1.787  1.0953 -0.5627  2.7357
  326MOL0     H43987   0.247   1.237   1.779  1.0084 -1.7161  0.2944
  326MOL0     H43988   0.156   1.083   2.013  0.7988 -0.6653 -0.6055
  326MOL0     H43989   0.098   1.253   2.018  0.2254  0.5915 -0.2767
  326MOL0     H43990   0.303   1.227   2.138  1.2419 -0.3802 -1.0569
  326MOL0     H43991   0.339   1.323   1.984  0.7368 -0.1844 -2.6906
  326MOL0     H43992   0.141   0.778   1.263 -0.6668 -0.1159  0.9535
  326MOL0     H43993   0.309   0.658   1.152 -1.7930 -0.6841  1.9055
  326MOL0     H43994   0.790   0.793   0.978  1.2816  0.4604  0.9979
  326MOL0     H43995   1.001   0.715   0.886 -0.6058 -0.0824  1.9184
  326MOL0     H43996   3.003   0.943   0.543  1.8927  4.3942  1.9792
  326MOL0     H43997   3.207   1.075   0.542  1.6390 -1.4929 -2.3249
  326MOL0     H43998   3.232   1.648   0.425  0.5777  1.4189  0.4059
  326MOL0     H43999   3.435   1.803   0.468  1.0617  1.1036 -1.4840
  326MOL0     H44000   3.631   1.899   0.423  0.2780 -0.3953 -0.2603
  326MOL0     H44001   3.609   1.904   0.599  1.0607 -2.6463  2.4908
  326MOL0     H44002   3.817   2.025   0.511 -1.7789 -0.3124  1.9469
  326MOL0     H44003   3.867   1.871   0.433  0.4231  1.8365 -0.3483
  326MOL0     H44004   3.995   1.908   0.643  1.0769 -1.4168  3.8056
  326MOL0     H44005   3.900   1.766   0.641  0.6137 -0.2872 -1.5767
  326MOL0     H44006   3.750   1.851   0.806 -1.0209  0.7842 -0.4838
  326MOL0     H44007   3.773   2.026   0.754 -0.0684  0.6935  0.6055
  326MOL0     H44008   4.100   1.982   1.006  0.0210 -0.2003  0.3043
  326MOL0     H44009   3.698   1.468   0.474  0.4104  1.0895  0.3289
  326MOL0     H44010   3.515   1.325   0.421  1.9467 -0.0417  2.8829
  327MOL0     O44011   2.633   3.830   0.581  0.1972 -0.8660  0.2116
  327MOL0     C44012   2.600   3.934   0.525 -0.7836 -0.2381 -0.5592
  327MOL0     O44013   2.508   3.945   0.420 -0.0804  0.2499  0.4918
  327MOL0     C44014   2.457   3.829   0.369  0.5243  0.1758 -0.4124
  327MOL0     C44015   2.547   3.753   0.297 -0.4073 -0.5877  0.1806
  327MOL0     C44016   2.501   3.642   0.226  0.6389 -0.6975 -0.2027
  327MOL0     C44017   2.364   3.597   0.235 -0.1921 -0.4328 -0.7881
  327MOL0     O44018   2.310   3.497   0.166 -0.2199  0.1545 -0.0031
  327MOL0     C44019   2.384   3.389   0.120  0.2931  0.0010  0.4142
  327MOL0     C44020   2.414   3.297   0.240 -0.2373 -0.7385 -0.2968
  327MOL0     C44021   2.286   3.249   0.312  0.0833  1.0272 -0.0213
  327MOL0     C44022   2.323   3.160   0.431 -0.3416 -0.1534 -0.5456
  327MOL0     C44023   2.202   3.107   0.502 -0.4183  0.9920 -0.7214
  327MOL0     C44024   2.104   3.008   0.439  0.3306  0.2736  0.2729
  327MOL0     C44025   2.026   2.931   0.546  0.1311  0.6685  0.1624
  327MOL0     C44026   1.936   2.820   0.485  0.4317  0.0748  0.5373
  327MOL0     N44027   1.851   2.754   0.584  0.5452  0.0120 -0.8757
  327MOL0     C44028   1.905   2.667   0.681  0.4681  0.1286 -0.2016
  327MOL0     C44029   1.798   2.639   0.760 -0.0828  0.4598  0.2139
  327MOL0     C44030   1.789   2.550   0.879 -0.3526 -0.2472 -0.3345
  327MOL0     C44031   1.930   2.499   0.922  0.3799 -0.0267 -0.5287
  327MOL0     C44032   2.002   2.611   0.989  0.2713  0.0502  0.1858
  327MOL0     C44033   2.149   2.575   1.008  0.3564  0.5855  0.5218
  327MOL0     O44034   2.226   2.561   0.883  0.2593  0.1768 -0.5794
  327MOL0     C44035   2.363   2.553   0.894 -0.4807 -0.0697 -0.1809
  327MOL0     C44036   2.444   2.572   1.005  0.9623 -0.4423 -0.0619
  327MOL0     C44037   2.582   2.548   1.002 -0.2850  0.0645  0.5307
  327MOL0     C44038   2.645   2.527   1.135 -0.4095  0.2135 -0.0751
  327MOL0     C44039   2.651   2.533   0.882 -0.4662 -0.3897  0.2952
  327MOL0     C44040   2.802   2.543   0.858 -0.9708  0.2044 -0.2848
  327MOL0     O44041   2.855   2.539   0.724  0.0691 -0.0253  0.3383
  327MOL0     C44042   2.982   2.579   0.687 -0.1944  0.0281  0.0339
  327MOL0     C44043   3.048   2.500   0.589  0.3323 -0.2964 -0.7886
  327MOL0     C44044   3.173   2.547   0.538 -0.1640  0.2015  0.9567
  327MOL0     C44045   3.245   2.651   0.608  0.0922 -0.2501 -0.1388
  327MOL0     O44046   3.367   2.689   0.570 -0.2137  0.2371 -0.2014
  327MOL0     C44047   3.424   2.653   0.445 -0.6898  1.6442  0.3860
  327MOL0     C44048   3.516   2.759   0.391  0.3347  0.5331  0.5686
  327MOL0     C44049   3.650   2.768   0.468  0.0517  1.3890 -0.1383
  327MOL0     C44050   3.745   2.866   0.402 -0.9767 -0.4938 -0.8553
  327MOL0     C44051   3.888   2.856   0.462 -0.3408  0.0774 -0.1632
  327MOL0     C44052   3.972   2.975   0.415 -0.2358 -0.1148  0.3468
  327MOL0     C44053   4.130   2.954   0.440  0.5543  0.1905  0.4100
  327MOL0     C44054   4.211   3.053   0.350  0.8156 -0.4719  0.0919
  327MOL0    Cl44055   4.168   3.221   0.373 -0.3927 -0.1729 -0.0106
  327MOL0     C44056   3.170   2.725   0.702 -0.1975  0.1022  0.6196
  327MOL0     C44057   3.045   2.696   0.739 -0.0407  0.9634 -0.5552
  327MOL0     O44058   2.867   2.573   0.960  0.2766 -0.2691  0.3940
  327MOL0     C44059   2.569   2.523   0.771 -0.4593 -0.3606 -0.8003
  327MOL0     C44060   2.429   2.527   0.773 -0.2181 -0.1144  0.2236
  327MOL0     N44061   1.683   2.695   0.702 -0.7363 -0.9758  0.8800
  327MOL0     N44062   1.721   2.769   0.603  0.5354  0.1510 -0.7613
  327MOL0     C44063   2.280   3.677   0.317  0.8553 -0.4248  0.3700
  327MOL0     C44064   2.320   3.791   0.378 -0.5727  0.5742  0.2765
  327MOL0     C44065   2.659   4.052   0.577 -0.4591 -0.2644 -0.1807
  327MOL0     C44066   2.586   4.168   0.610 -0.0402 -0.2965  0.1210
  327MOL0     C44067   2.660   4.270   0.677  0.3140 -0.4556  0.8437
  327MOL0     C44068   2.794   4.277   0.679 -0.1101  0.0502 -0.2920
  327MOL0     O44069   2.845   4.389   0.740  0.0641 -0.8847  0.8347
  327MOL0     C44070   2.986   4.389   0.756 -1.1373 -0.3909  0.1671
  327MOL0     C44071   3.039   4.515   0.822 -0.5986 -0.1818  0.1275
  327MOL0     C44072   3.010   4.643   0.741 -0.1380  0.0082 -0.4741
  327MOL0     C44073   3.086   4.661   0.607  0.0361 -0.1081 -0.4236
  327MOL0     C44074   3.227   4.669   0.607  0.0265 -0.1186 -0.0938
  327MOL0     C44075   3.345   4.694   0.593 -0.1691  0.3456  0.2405
  327MOL0     C44076   2.867   4.165   0.644  0.8252 -1.0687 -0.2649
  327MOL0     C44077   2.792   4.053   0.605 -0.4023 -0.2556  0.6649
  327MOL0     H44078   2.644   3.798   0.277  1.4456 -4.5720 -0.6637
  327MOL0     H44079   2.564   3.585   0.159  0.0668  0.3439 -1.6673
  327MOL0     H44080   2.315   3.335   0.054  1.0806  0.1432 -0.5503
  327MOL0     H44081   2.473   3.423   0.066  0.8428 -0.9180  0.7172
  327MOL0     H44082   2.470   3.207   0.213  0.2834 -1.0131  1.6068
  327MOL0     H44083   2.493   3.352   0.292  0.1104 -1.5115  0.0057
  327MOL0     H44084   2.232   3.339   0.340 -0.0865  1.2166 -0.9423
  327MOL0     H44085   2.229   3.193   0.238 -0.1440  3.6552 -1.9577
  327MOL0     H44086   2.387   3.079   0.396 -2.3102 -0.8739 -2.7775
  327MOL0     H44087   2.382   3.220   0.501  3.2849  0.5196 -3.8558
  327MOL0     H44088   2.254   3.052   0.581  0.9189  1.5837 -1.1548
  327MOL0     H44089   2.141   3.187   0.545 -0.9235  1.1986 -1.8010
  327MOL0     H44090   2.035   3.062   0.373 -0.5660  0.8625  1.6526
  327MOL0     H44091   2.147   2.930   0.375  0.7143 -0.0039  0.8567
  327MOL0     H44092   2.100   2.875   0.604 -0.0317 -1.5644 -1.6670
  327MOL0     H44093   1.977   3.005   0.611 -1.1866  0.2530 -0.3113
  327MOL0     H44094   1.999   2.746   0.435 -1.7000 -1.7712  0.4301
  327MOL0     H44095   1.865   2.872   0.420  0.5645 -1.5552 -0.9948
  327MOL0     H44096   2.010   2.642   0.686  0.6429  0.3400 -2.1881
  327MOL0     H44097   1.748   2.607   0.963  1.8504  1.7301 -0.5046
  327MOL0     H44098   1.731   2.461   0.855  2.1606 -2.8942  2.5285
  327MOL0     H44099   1.987   2.462   0.836  2.0603  2.2300 -0.4784
  327MOL0     H44100   1.919   2.423   1.000  1.6750 -1.0175 -1.2592
  327MOL0     H44101   1.952   2.615   1.085  1.2235 -2.7641  0.9120
  327MOL0     H44102   1.995   2.711   0.946 -0.7303 -0.6463 -1.3728
  327MOL0     H44103   2.157   2.482   1.064  1.6949 -1.8357 -3.2857
  327MOL0     H44104   2.191   2.653   1.071 -0.5858 -1.3259  3.7395
  327MOL0     H44105   2.389   2.586   1.098 -3.2521  1.1670 -2.5335
  327MOL0     H44106   2.684   2.622   1.172 -1.8507  0.1967  1.6221
  327MOL0     H44107   2.575   2.488   1.209  0.8874 -0.4477  0.8575
  327MOL0     H44108   2.729   2.456   1.135  0.6598  1.4032  1.7895
  327MOL0     H44109   3.000   2.409   0.553  1.0226 -0.8870 -0.2420
  327MOL0     H44110   3.211   2.490   0.454  0.9730  2.7080 -0.3329
  327MOL0     H44111   3.489   2.565   0.444 -1.9643  0.6831 -0.2932
  327MOL0     H44112   3.345   2.641   0.371  1.4891 -0.7835 -1.7668
  327MOL0     H44113   3.547   2.729   0.291  3.5983  0.1098  1.6129
  327MOL0     H44114   3.470   2.857   0.375  0.0794  0.2981 -0.1995
  327MOL0     H44115   3.689   2.666   0.482 -0.6479  1.0006 -0.9293
  327MOL0     H44116   3.635   2.795   0.573  1.8711 -1.3756  0.9491
  327MOL0     H44117   3.744   2.864   0.292  0.4796 -1.1388 -0.8880
  327MOL0     H44118   3.699   2.963   0.421 -2.8208 -1.6992  1.2741
  327MOL0     H44119   3.937   2.767   0.421  0.2622 -0.4527  1.6225
  327MOL0     H44120   3.896   2.857   0.571 -0.6336  3.0332 -0.0995
  327MOL0     H44121   3.960   2.978   0.306 -1.4402 -0.8635  0.4345
  327MOL0     H44122   3.933   3.071   0.449 -0.8534 -1.0421  2.3999
  327MOL0     H44123   4.162   2.849   0.436 -1.1154 -0.2921 -1.4767
  327MOL0     H44124   4.147   2.973   0.546 -1.2414 -0.1886  0.8019
  327MOL0     H44125   4.196   3.039   0.242  1.0595  0.6154 -0.0997
  327MOL0     H44126   4.318   3.035   0.359  0.9244  0.3836  0.6502
  327MOL0     H44127   3.221   2.814   0.739  0.8983 -0.3476  0.2347
  327MOL0     H44128   2.997   2.756   0.816  1.2951  0.4622  0.7088
  327MOL0     H44129   2.610   2.509   0.672  3.6172  0.3882  0.5688
  327MOL0     H44130   2.367   2.525   0.684  0.4953 -1.2297 -0.2609
  327MOL0     H44131   2.181   3.634   0.328 -0.3233  2.1551  0.6207
  327MOL0     H44132   2.251   3.859   0.428  0.0670  1.6571 -0.2607
  327MOL0     H44133   2.479   4.182   0.607 -0.0739 -0.4349  0.6544
  327MOL0     H44134   2.614   4.356   0.725  0.1417 -0.2601  0.3408
  327MOL0     H44135   3.022   4.309   0.821  3.3252  2.2257  1.3529
  327MOL0     H44136   3.016   4.383   0.651 -1.0629 -0.9728  0.2199
  327MOL0     H44137   3.146   4.495   0.831 -0.9747 -2.5963 -0.2019
  327MOL0     H44138   2.996   4.525   0.922 -1.0869 -1.5692  0.0777
  327MOL0     H44139   3.038   4.733   0.798 -0.8559  0.7878 -1.3325
  327MOL0     H44140   2.903   4.659   0.728  0.1280  2.0640 -0.4878
  327MOL0     H44141   3.043   4.751   0.563 -2.4418 -1.1727 -0.3434
  327MOL0     H44142   3.061   4.582   0.535  1.9041 -0.1539 -1.0652
  327MOL0     H44143   3.450   4.713   0.588 -0.0420  0.3275  2.0065
  327MOL0     H44144   2.975   4.167   0.644  0.8544 -0.3133 -2.3885
  327MOL0     H44145   2.862   3.971   0.592  1.0318  1.1883 -1.5625
  328MOL0     O44146   4.849   3.223   5.229 -0.3839 -0.3980  0.4385
  328MOL0     C44147   4.891   3.317   5.303  0.4987 -0.0818  0.7302
  328MOL0     O44148   4.830   3.361   5.417 -0.4416 -0.5274  0.1536
  328MOL0     C44149   4.731   3.283   5.471  0.2958  0.2733  0.7872
  328MOL0     C44150   4.635   3.354   5.537  0.1564  0.4656  0.1876
  328MOL0     C44151   4.536   3.277   5.613  0.7779 -0.4641 -0.7923
  328MOL0     C44152   4.533   3.143   5.633 -0.5140  0.0054  0.0205
  328MOL0     O44153   4.427   3.075   5.695  0.6107 -0.2346 -0.2625
  328MOL0     C44154   4.430   3.097   5.841 -0.0785  0.4132 -0.1979
  328MOL0     C44155   4.294   3.145   5.888  0.6966 -0.4741 -0.1892
  328MOL0     C44156   4.198   3.032   5.894 -0.0419  0.1826 -0.1402
  328MOL0     C44157   4.058   3.052   5.954 -0.1469  0.4026  0.3919
  328MOL0     C44158   3.983   2.922   5.977 -0.2830 -0.4351 -0.6903
  328MOL0     C44159   3.837   2.930   6.027  0.3008 -0.8177 -0.2090
  328MOL0     C44160   3.780   2.791   6.071  0.6555  0.3801 -0.7073
  328MOL0     C44161   3.627   2.802   6.059 -0.3100  0.2730 -0.2689
  328MOL0     N44162   3.561   2.684   6.108  0.3727  0.3993 -0.1145
  328MOL0     C44163   3.575   2.626   6.231  0.1080 -0.2983 -0.1778
  328MOL0     C44164   3.506   2.509   6.222 -0.4738 -0.3018  0.3193
  328MOL0     C44165   3.469   2.426   6.340 -0.7834  0.4945  0.1880
  328MOL0     C44166   3.317   2.382   6.340  0.3909 -0.6312 -0.0990
  328MOL0     C44167   3.291   2.273   6.452  0.7425 -0.5783 -0.1369
  328MOL0     C44168   3.158   2.202   6.432  0.4552  0.1993  0.2186
  328MOL0     O44169   3.048   2.284   6.465  0.0301 -0.0496  0.1568
  328MOL0     C44170   2.919   2.247   6.448 -0.0820 -0.5028 -0.5994
  328MOL0     C44171   2.879   2.127   6.388  0.4445 -0.4367 -0.6933
  328MOL0     C44172   2.739   2.100   6.372  0.3670  0.5210  0.6727
  328MOL0     C44173   2.701   1.968   6.306  0.8849  0.1951 -0.5857
  328MOL0     C44174   2.639   2.194   6.413  0.1909 -0.1067 -0.2853
  328MOL0     C44175   2.484   2.179   6.407 -0.2161 -0.4258  0.7637
  328MOL0     O44176   2.423   2.058   6.372 -0.5454 -1.1922  0.0007
  328MOL0     C44177   2.283   2.057   6.359 -0.4097 -0.7109 -0.6403
  328MOL0     C44178   2.200   1.978   6.443  0.2497  0.5903 -0.9066
  328MOL0     C44179   2.061   1.978   6.431  0.4107  0.8210  0.6785
  328MOL0     C44180   2.004   2.056   6.330  0.1903 -0.1975 -0.2164
  328MOL0     O44181   1.877   2.066   6.303  1.2052 -0.1889  0.1916
  328MOL0     C44182   1.782   2.035   6.410 -0.0248 -0.0264  0.4125
  328MOL0     C44183   1.641   2.062   6.359 -0.1792  0.6399 -0.4393
  328MOL0     C44184   1.529   2.029   6.458 -0.1412 -0.0966 -0.2310
  328MOL0     C44185   1.396   2.002   6.382 -0.2968  0.1629 -0.2100
  328MOL0     C44186   1.297   1.945   6.476 -0.3743 -0.2449  0.3702
  328MOL0     C44187   1.151   1.938   6.429 -0.2787 -0.0522  0.1542
  328MOL0     C44188   1.126   1.839   6.317 -0.6018  0.1890 -0.2492
  328MOL0     C44189   0.981   1.836   6.272  0.6660  0.3912 -0.2754
  328MOL0    Cl44190   0.861   1.798   6.394 -0.1058  0.1154 -0.5255
  328MOL0     C44191   2.088   2.118   6.229  0.1441  0.2200  0.4629
  328MOL0     C44192   2.220   2.124   6.249  0.8570 -0.6196 -0.0055
  328MOL0     O44193   2.421   2.279   6.422 -0.9031  0.2290  0.1414
  328MOL0     C44194   2.689   2.322   6.459 -0.5955 -0.9999 -0.6684
  328MOL0     C44195   2.826   2.343   6.485  0.0530 -0.6252  0.3853
  328MOL0     N44196   3.443   2.502   6.093 -0.5138 -0.9582 -0.3512
  328MOL0     N44197   3.485   2.607   6.024 -0.7598 -0.0901  0.0162
  328MOL0     C44198   4.638   3.067   5.574 -0.7624  0.2111  0.0499
  328MOL0     C44199   4.731   3.138   5.493  0.2053  0.2772  0.5786
  328MOL0     C44200   5.020   3.375   5.261  0.3585  0.3722 -0.1397
  328MOL0     C44201   5.054   3.503   5.306 -0.4362  0.8669 -0.5388
  328MOL0     C44202   5.171   3.559   5.256 -0.3228  0.2391 -0.7072
  328MOL0     C44203   5.253   3.493   5.161  0.8567 -0.0900 -0.2950
  328MOL0     O44204   5.362   3.558   5.111  0.0511 -0.5483 -0.0887
  328MOL0     C44205   5.451   3.493   5.011 -0.1281  0.9987  0.8213
  328MOL0     C44206   5.582   3.569   4.987  0.2454 -0.3751 -0.2905
  328MOL0     C44207   5.663   3.499   4.882  0.7080 -0.1952  0.0217
  328MOL0     C44208   5.785   3.588   4.840  0.2272  0.2022  0.5317
  328MOL0     C44209   5.874   3.618   4.960  1.4061  0.3079 -0.0527
  328MOL0     C44210   5.962   3.626   5.040  0.4931  0.0262 -0.2336
  328MOL0     C44211   5.214   3.367   5.110  0.3145  0.0303 -0.7631
  328MOL0     C44212   5.100   3.304   5.164 -0.0116 -0.1330 -0.3126
  328MOL0     H44213   4.626   3.462   5.530 -3.7883  0.3029  0.4034
  328MOL0     H44214   4.450   3.336   5.643 -1.0921 -2.5080 -1.8366
  328MOL0     H44215   4.456   3.003   5.890 -0.5576 -0.4563 -1.5535
  328MOL0     H44216   4.512   3.166   5.862  3.1752 -2.7318 -1.5439
  328MOL0     H44217   4.298   3.185   5.990 -0.3703  0.3233 -0.4423
  328MOL0     H44218   4.258   3.228   5.826 -2.1961 -0.4501  1.3352
  328MOL0     H44219   4.188   2.997   5.791  0.1015  1.2306 -0.5283
  328MOL0     H44220   4.248   2.960   5.959 -0.9005 -0.4422 -0.1550
  328MOL0     H44221   4.078   3.094   6.053  1.8125 -0.9101  0.6052
  328MOL0     H44222   4.007   3.128   5.894  1.8280  0.3673 -1.4251
  328MOL0     H44223   3.988   2.870   5.881 -2.7407 -0.0579 -1.0973
  328MOL0     H44224   4.035   2.861   6.051 -0.7272 -0.9060 -0.7564
  328MOL0     H44225   3.832   2.997   6.113  2.7827  0.0531 -0.6505
  328MOL0     H44226   3.775   2.973   5.947 -2.5750 -1.3686  1.5731
  328MOL0     H44227   3.822   2.716   6.003  3.7240 -0.3901  1.8293
  328MOL0     H44228   3.815   2.782   6.174 -0.5755  2.1445 -0.0976
  328MOL0     H44229   3.603   2.822   5.954  0.8768  0.0380 -0.6041
  328MOL0     H44230   3.589   2.888   6.116  0.3490  0.5858 -0.2933
  328MOL0     H44231   3.620   2.652   6.327  1.0355 -0.4922 -0.5485
  328MOL0     H44232   3.528   2.334   6.335 -0.0720  1.0182 -1.5904
  328MOL0     H44233   3.494   2.466   6.439 -1.4005  2.7737 -0.5199
  328MOL0     H44234   3.291   2.347   6.240  0.8440  1.0999 -0.8572
  328MOL0     H44235   3.253   2.470   6.357 -1.1463 -1.7730  0.2795
  328MOL0     H44236   3.297   2.308   6.555  1.1927  1.2288 -0.7252
  328MOL0     H44237   3.367   2.195   6.448  0.6421 -0.6531 -0.8106
  328MOL0     H44238   3.149   2.107   6.485  0.2011 -0.8596 -1.6464
  328MOL0     H44239   3.146   2.181   6.326 -0.2133  0.0914  0.3121
  328MOL0     H44240   2.949   2.050   6.355  0.3032 -0.9845  0.2474
  328MOL0     H44241   2.620   1.919   6.361  1.5985 -0.7490 -0.3437
  328MOL0     H44242   2.673   1.982   6.201 -0.5979  2.1138 -0.0046
  328MOL0     H44243   2.781   1.894   6.319 -0.9202 -1.8544 -0.5724
  328MOL0     H44244   2.244   1.910   6.515 -1.3699 -1.3279 -1.6320
  328MOL0     H44245   2.000   1.910   6.489 -2.5644  1.5396 -1.4299
  328MOL0     H44246   1.785   1.927   6.424  0.4995 -0.1473 -0.5228
  328MOL0     H44247   1.794   2.093   6.502  0.1685 -0.1052  0.4375
  328MOL0     H44248   1.631   2.168   6.332 -1.2429  0.5301 -0.5439
  328MOL0     H44249   1.631   1.995   6.273  1.2833  0.1558 -0.2518
  328MOL0     H44250   1.516   2.119   6.520  1.8093  0.8020 -1.0437
  328MOL0     H44251   1.559   1.939   6.513 -1.2465  1.2084  2.7207
  328MOL0     H44252   1.365   2.100   6.343 -1.2949 -0.4375 -0.9747
  328MOL0     H44253   1.400   1.933   6.297 -1.5459 -2.5665  1.8142
  328MOL0     H44254   1.292   2.011   6.563 -0.5995  0.2226  0.0079
  328MOL0     H44255   1.325   1.844   6.509  1.2822  0.3869  0.9909
  328MOL0     H44256   1.085   1.908   6.510 -1.9189  0.0824 -1.0802
  328MOL0     H44257   1.133   2.038   6.387  1.5097  0.1130 -0.3057
  328MOL0     H44258   1.153   1.738   6.349 -1.9503 -0.6425 -1.5955
  328MOL0     H44259   1.188   1.858   6.229 -0.8631 -0.1834 -0.5162
  328MOL0     H44260   0.985   1.748   6.207 -1.1231 -0.4724  0.7019
  328MOL0     H44261   0.959   1.928   6.216 -1.1076 -0.0412 -0.3585
  328MOL0     H44262   2.037   2.156   6.141 -1.7897  0.9829  1.8276
  328MOL0     H44263   2.290   2.176   6.184  2.3027 -1.1068  1.1226
  328MOL0     H44264   2.613   2.398   6.475  0.3698 -0.0556 -0.4450
  328MOL0     H44265   2.866   2.435   6.524  0.4014 -0.3175 -0.6830
  328MOL0     H44266   4.650   2.959   5.578  2.5457  0.3212 -2.4471
  328MOL0     H44267   4.809   3.073   5.454  0.4432 -0.6088  2.4398
  328MOL0     H44268   4.990   3.560   5.372 -0.9437 -0.6800  0.3456
  328MOL0     H44269   5.197   3.659   5.290  0.5042  1.5049 -4.6394
  328MOL0     H44270   5.472   3.390   5.042 -1.3428  0.1943 -0.8236
  328MOL0     H44271   5.390   3.471   4.922  2.1071 -1.6111 -0.2184
  328MOL0     H44272   5.636   3.558   5.081  0.1683 -0.8122 -0.2961
  328MOL0     H44273   5.564   3.674   4.961 -0.2882 -0.3363  0.2245
  328MOL0     H44274   5.597   3.491   4.795  1.4124 -1.0228 -0.4468
  328MOL0     H44275   5.683   3.395   4.911  0.2991  0.3352  2.4179
  328MOL0     H44276   5.730   3.677   4.808 -0.9120 -0.5568  0.3467
  328MOL0     H44277   5.846   3.544   4.759 -3.2883 -2.0607 -1.1255
  328MOL0     H44278   6.046   3.638   5.106  0.2409  0.2580  0.0497
  328MOL0     H44279   5.280   3.327   5.034  2.2201  0.2800  0.6852
  328MOL0     H44280   5.066   3.205   5.136  1.5905 -1.3128  1.6771
  329MOL0     O44281   2.079   1.719   5.438  0.3346  0.4852  0.1911
  329MOL0     C44282   2.153   1.688   5.533 -0.4410 -0.4654 -0.1323
  329MOL0     O44283   2.106   1.600   5.635  0.2956 -0.3969  0.7313
  329MOL0     C44284   1.973   1.565   5.640 -0.5329 -0.2908 -1.1262
  329MOL0     C44285   1.910   1.584   5.763  0.5538  0.0704 -0.6064
  329MOL0     C44286   1.781   1.530   5.782 -0.1689 -0.0406 -0.5588
  329MOL0     C44287   1.711   1.476   5.672 -1.1364  0.7058 -0.0986
  329MOL0     O44288   1.582   1.424   5.678  0.3440  0.0168  0.9022
  329MOL0     C44289   1.555   1.348   5.796  0.3824  0.1329 -0.0805
  329MOL0     C44290   1.462   1.239   5.743  0.0194  0.0234 -0.3008
  329MOL0     C44291   1.319   1.287   5.716  0.9977 -0.6312 -0.3232
  329MOL0     C44292   1.247   1.184   5.629  0.1717  0.1393  0.2899
  329MOL0     C44293   1.103   1.225   5.603  0.6931  0.2124  0.2677
  329MOL0     C44294   1.069   1.369   5.557 -0.4723 -0.1238 -0.1135
  329MOL0     C44295   0.915   1.376   5.546  0.4429  0.3472  0.1954
  329MOL0     C44296   0.865   1.519   5.573  0.4414 -0.8314  0.6818
  329MOL0     N44297   0.722   1.538   5.544 -0.2514  0.2158 -0.7940
  329MOL0     C44298   0.622   1.504   5.633 -0.7445  0.0086  0.2017
  329MOL0     C44299   0.509   1.563   5.588 -0.7739  1.1475  0.9308
  329MOL0     C44300   0.376   1.571   5.655 -0.3760  0.5481  0.6297
  329MOL0     C44301   0.268   1.562   5.544 -0.1127 -0.4140 -0.7335
  329MOL0     C44302   0.126   1.575   5.608 -0.4548  0.0402 -0.8558
  329MOL0     C44303   0.075   1.460   5.699  0.3217  0.2521  0.2439
  329MOL0     O44304  -0.035   1.504   5.766  0.6761  0.1728 -0.3450
  329MOL0     C44305  -0.170   1.480   5.735 -0.9283  0.2349 -0.2001
  329MOL0     C44306  -0.267   1.567   5.793  0.1059  0.0565 -0.8484
  329MOL0     C44307  -0.408   1.548   5.765 -0.8677  0.0754  0.1253
  329MOL0     C44308  -0.496   1.647   5.829  0.5129 -0.2430  0.3441
  329MOL0     C44309  -0.448   1.433   5.693  1.1306  0.5851 -0.3241
  329MOL0     C44310  -0.590   1.385   5.683  0.5775  0.7734 -1.0921
  329MOL0     O44311  -0.605   1.284   5.589  0.0439 -0.8039  0.1638
  329MOL0     C44312  -0.725   1.209   5.593 -0.4984 -0.2808 -0.4916
  329MOL0     C44313  -0.849   1.276   5.569 -1.6344  0.7505 -0.0803
  329MOL0     C44314  -0.969   1.210   5.578  0.2661  1.4490 -0.0907
  329MOL0     C44315  -0.975   1.077   5.620  0.6219  0.5551 -0.0735
  329MOL0     O44316  -1.095   1.008   5.629 -0.6474  0.2285 -0.8128
  329MOL0     C44317  -1.212   1.080   5.652  0.7916 -0.2224 -0.2577
  329MOL0     C44318  -1.307   0.983   5.725 -0.1359 -0.3631  0.8783
  329MOL0     C44319  -1.453   1.045   5.747 -0.9233 -0.4684  0.2388
  329MOL0     C44320  -1.563   0.942   5.709 -1.1659 -0.8823 -0.6303
  329MOL0     C44321  -1.696   0.972   5.780 -0.2912 -0.0342 -0.8611
  329MOL0     C44322  -1.752   1.113   5.743 -0.0897 -0.4364  0.6251
  329MOL0     C44323  -1.893   1.136   5.796  0.1036  0.5034  0.3125
  329MOL0     C44324  -1.954   1.261   5.731 -0.2045 -0.2777  0.7428
  329MOL0    Cl44325  -2.121   1.260   5.765  0.1196 -0.0071 -0.0214
  329MOL0     C44326  -0.854   1.013   5.644 -0.6152  0.5901  0.9177
  329MOL0     C44327  -0.729   1.079   5.640 -0.9643 -0.4095 -0.5074
  329MOL0     O44328  -0.676   1.421   5.760 -0.8207 -0.0118  0.1013
  329MOL0     C44329  -0.350   1.350   5.632 -0.0014 -0.4209 -0.1997
  329MOL0     C44330  -0.216   1.386   5.651  0.4332  0.7447  0.4982
  329MOL0     N44331   0.545   1.620   5.465 -0.4519  0.0671 -0.0390
  329MOL0     N44332   0.669   1.599   5.432  0.4343  0.3751  0.3367
  329MOL0     C44333   1.780   1.450   5.556 -0.0316 -0.2636 -0.0393
  329MOL0     C44334   1.908   1.496   5.537  0.3780  0.0382  0.1338
  329MOL0     C44335   2.296   1.727   5.523 -0.7029 -0.7077  0.9673
  329MOL0     C44336   2.338   1.841   5.449 -0.3324 -0.0705 -0.5552
  329MOL0     C44337   2.471   1.874   5.443  0.1456  1.1471  0.0424
  329MOL0     C44338   2.576   1.803   5.505  0.0031  0.3139  0.8481
  329MOL0     O44339   2.708   1.835   5.500 -0.6126  0.1820 -0.1616
  329MOL0     C44340   2.744   1.930   5.397  0.1418  0.3666 -0.7034
  329MOL0     C44341   2.900   1.938   5.395 -0.2665  0.0259 -0.1998
  329MOL0     C44342   2.933   2.047   5.292 -0.4955  0.5106  0.7160
  329MOL0     C44343   3.078   2.063   5.269 -0.8151 -0.5366 -0.2070
  329MOL0     C44344   3.166   2.095   5.387 -0.1917  0.2910  0.1746
  329MOL0     C44345   3.241   2.102   5.483 -0.7003 -0.2569 -0.4510
  329MOL0     C44346   2.538   1.689   5.567  0.2097  0.7630  0.2346
  329MOL0     C44347   2.402   1.651   5.580 -0.3339 -0.0510  0.4596
  329MOL0     H44348   1.969   1.633   5.840  1.5399  2.4611 -2.7404
  329MOL0     H44349   1.737   1.532   5.881  0.4822 -0.0039 -0.2639
  329MOL0     H44350   1.640   1.303   5.847 -0.5372  0.2301  1.5869
  329MOL0     H44351   1.498   1.410   5.866 -1.1710 -1.3750  0.0505
  329MOL0     H44352   1.509   1.192   5.656  0.2187  1.3875 -0.9496
  329MOL0     H44353   1.472   1.163   5.822  2.9489  1.5698  0.9866
  329MOL0     H44354   1.267   1.313   5.808  3.2542  1.3967  0.4843
  329MOL0     H44355   1.328   1.378   5.656  2.6069  0.3923  1.3757
  329MOL0     H44356   1.301   1.182   5.534  0.4375  1.2470  0.4047
  329MOL0     H44357   1.246   1.086   5.679 -0.8506 -1.0419 -1.9167
  329MOL0     H44358   1.064   1.162   5.523  0.9984  1.2144 -0.6925
  329MOL0     H44359   1.039   1.205   5.690 -0.6399 -0.0344 -0.7301
  329MOL0     H44360   1.114   1.427   5.639 -1.0603  0.1677  0.0039
  329MOL0     H44361   1.118   1.393   5.462 -1.9519  0.7023 -0.6935
  329MOL0     H44362   0.898   1.364   5.438 -0.2786 -1.6143  0.4916
  329MOL0     H44363   0.869   1.289   5.594  2.9469 -1.7949 -1.0624
  329MOL0     H44364   0.920   1.592   5.513 -1.1298  0.2351  0.4722
  329MOL0     H44365   0.886   1.539   5.679  1.7878 -0.2498  0.3291
  329MOL0     H44366   0.637   1.465   5.733  0.8555 -1.8306 -0.6717
  329MOL0     H44367   0.359   1.487   5.723 -1.1493  0.9111  0.8953
  329MOL0     H44368   0.368   1.673   5.694  0.7923  0.9776 -0.2231
  329MOL0     H44369   0.275   1.471   5.484  0.2438 -0.3646 -0.7701
  329MOL0     H44370   0.278   1.648   5.477 -0.6228 -0.7692 -1.2745
  329MOL0     H44371   0.064   1.590   5.519  2.1709  1.6137 -2.5645
  329MOL0     H44372   0.117   1.667   5.667 -2.3035 -2.1312  2.5479
  329MOL0     H44373   0.155   1.444   5.772  0.6880  2.1391  0.2874
  329MOL0     H44374   0.063   1.373   5.633  2.1428  0.5610 -0.5374
  329MOL0     H44375  -0.231   1.623   5.879  0.6178 -0.3509 -0.7979
  329MOL0     H44376  -0.563   1.609   5.907 -1.7188 -1.6142 -2.0581
  329MOL0     H44377  -0.447   1.739   5.861 -1.0724  0.4462  0.9149
  329MOL0     H44378  -0.563   1.688   5.753 -0.7356 -0.8356  1.0852
  329MOL0     H44379  -0.844   1.383   5.549  1.3398  0.6095 -0.5044
  329MOL0     H44380  -1.054   1.274   5.555 -0.3447  0.4171 -0.7501
  329MOL0     H44381  -1.200   1.174   5.706 -5.3156  0.8485 -0.1689
  329MOL0     H44382  -1.258   1.099   5.555 -0.5042 -1.9724 -0.0384
  329MOL0     H44383  -1.312   0.883   5.679  2.6770 -1.3712  2.5364
  329MOL0     H44384  -1.256   0.962   5.819  0.6641 -0.2148  0.4931
  329MOL0     H44385  -1.460   1.138   5.690 -0.8558 -0.1399  0.7527
  329MOL0     H44386  -1.457   1.069   5.854  1.1586  0.3414  0.1857
  329MOL0     H44387  -1.576   0.937   5.600  0.7586 -1.7971 -0.8599
  329MOL0     H44388  -1.539   0.841   5.745  1.3370 -0.4743 -1.0043
  329MOL0     H44389  -1.685   0.965   5.888  1.6850 -3.2950 -1.1151
  329MOL0     H44390  -1.768   0.902   5.736  1.6049 -2.2357 -0.6473
  329MOL0     H44391  -1.693   1.193   5.790  1.7473 -0.5206 -1.3711
  329MOL0     H44392  -1.741   1.136   5.636 -1.6795 -0.0532  0.5224
  329MOL0     H44393  -1.894   1.146   5.905  0.0475 -1.4111  0.5118
  329MOL0     H44394  -1.962   1.057   5.766  1.9139 -0.1739 -2.4105
  329MOL0     H44395  -1.936   1.266   5.624 -0.2823  0.6915  0.7616
  329MOL0     H44396  -1.916   1.357   5.769  0.6578 -0.2438 -0.1488
  329MOL0     H44397  -0.859   0.911   5.680  0.1685  0.7099  1.4012
  329MOL0     H44398  -0.638   1.024   5.665 -1.1684  0.0430  1.3903
  329MOL0     H44399  -0.374   1.268   5.565  1.8196 -0.3061 -1.0543
  329MOL0     H44400  -0.140   1.318   5.613 -0.3916 -0.5530  1.1090
  329MOL0     H44401   1.711   1.409   5.483  0.9156 -2.3151  0.1261
  329MOL0     H44402   1.944   1.480   5.436  2.1904  1.4675  0.5038
  329MOL0     H44403   2.262   1.905   5.407  0.4871  0.5945 -1.0397
  329MOL0     H44404   2.504   1.962   5.388 -0.1323  0.7401 -0.7965
  329MOL0     H44405   2.701   1.889   5.305 -3.7803  1.0028  0.6551
  329MOL0     H44406   2.704   2.030   5.415 -1.4031 -0.3674  0.1086
  329MOL0     H44407   2.936   1.836   5.380 -0.5745 -0.0472 -0.4485
  329MOL0     H44408   2.932   1.984   5.489  1.4971  2.9845 -2.0787
  329MOL0     H44409   2.897   2.145   5.325 -0.5647  0.4747  0.7469
  329MOL0     H44410   2.881   2.023   5.198  0.1932  1.7668 -0.0188
  329MOL0     H44411   3.089   2.145   5.198  0.4312  0.7855  1.4366
  329MOL0     H44412   3.121   1.970   5.229 -0.5106  0.4442 -2.2720
  329MOL0     H44413   3.297   2.101   5.575 -2.3904  0.5108  0.6318
  329MOL0     H44414   2.608   1.621   5.615  1.8938  0.6896 -2.1522
  329MOL0     H44415   2.369   1.583   5.658  3.7964 -0.3161  2.2399
  330MOL0     O44416   8.701   0.627   1.332  0.0467  0.0340  0.7090
  330MOL0     C44417   8.697   0.501   1.359  0.0182 -0.3614  0.3166
  330MOL0     O44418   8.587   0.422   1.355  0.3785  0.2570  0.5027
  330MOL0     C44419   8.462   0.480   1.350  0.2457  0.1345  0.1373
  330MOL0     C44420   8.372   0.431   1.444  0.5929 -0.0974 -0.0883
  330MOL0     C44421   8.233   0.475   1.447  0.4138  0.0619 -1.0274
  330MOL0     C44422   8.190   0.566   1.351  0.1399 -0.1146  0.1417
  330MOL0     O44423   8.066   0.622   1.353  0.1249 -0.3114 -0.9052
  330MOL0     C44424   7.969   0.577   1.451 -0.1388 -0.6813 -0.1868
  330MOL0     C44425   7.844   0.639   1.407 -0.1738  0.1940  0.6999
  330MOL0     C44426   7.737   0.596   1.493  0.0787 -0.5891  0.3641
  330MOL0     C44427   7.603   0.652   1.444 -0.2367 -0.5427  0.0511
  330MOL0     C44428   7.490   0.634   1.543 -0.0766  0.4146  0.0571
  330MOL0     C44429   7.359   0.669   1.476 -0.0618 -0.1196  0.3003
  330MOL0     C44430   7.243   0.652   1.575  0.3680 -0.6600  1.1331
  330MOL0     C44431   7.106   0.670   1.506  0.2430 -0.0727 -0.1774
  330MOL0     N44432   7.080   0.814   1.499  0.0690 -0.5975 -0.2680
  330MOL0     C44433   6.986   0.883   1.567 -0.0728 -0.0651  0.2451
  330MOL0     C44434   6.996   1.006   1.513  0.2145 -0.4368  0.0461
  330MOL0     C44435   6.898   1.118   1.549 -0.7373 -0.2783  0.5593
  330MOL0     C44436   6.809   1.137   1.424  0.2216  0.0266  0.0824
  330MOL0     C44437   6.701   1.250   1.446  0.4508 -0.5590 -0.8668
  330MOL0     C44438   6.634   1.293   1.314 -0.5662 -0.8178 -0.3001
  330MOL0     O44439   6.511   1.372   1.333 -0.1822 -0.1798 -0.1350
  330MOL0     C44440   6.394   1.304   1.338  0.6058  0.2330 -0.7443
  330MOL0     C44441   6.376   1.167   1.321  0.6480  0.0482  0.0730
  330MOL0     C44442   6.256   1.091   1.336 -0.5343  0.6462  0.5649
  330MOL0     C44443   6.252   0.946   1.306  0.0557  0.0564  0.0861
  330MOL0     C44444   6.143   1.169   1.384  0.5933 -0.4021 -0.1266
  330MOL0     C44445   6.011   1.100   1.427 -0.5600 -0.5752 -0.3695
  330MOL0     O44446   5.908   1.188   1.435 -0.1410  0.1953  0.0072
  330MOL0     C44447   5.783   1.151   1.487  0.1872 -0.3863  0.0296
  330MOL0     C44448   5.774   1.099   1.614  0.2229  0.2691 -0.4073
  330MOL0     C44449   5.648   1.076   1.669  0.3800 -0.0063  0.6177
  330MOL0     C44450   5.531   1.077   1.592 -0.6183  0.4301 -0.3988
  330MOL0     O44451   5.406   1.026   1.636  0.3959  0.1505 -0.7859
  330MOL0     C44452   5.408   0.932   1.739 -0.3614 -0.8568 -0.8139
  330MOL0     C44453   5.273   0.868   1.738 -0.8121  0.7324 -0.3554
  330MOL0     C44454   5.150   0.951   1.736  0.3762 -0.3397 -0.7204
  330MOL0     C44455   5.023   0.876   1.702  0.2392  0.1736  0.0427
  330MOL0     C44456   4.890   0.952   1.741  0.2850  0.2122 -0.1970
  330MOL0     C44457   4.779   0.867   1.697  0.8071 -0.1782  1.2601
  330MOL0     C44458   4.650   0.927   1.748  0.8470 -0.7579  0.4743
  330MOL0     C44459   4.526   0.877   1.676  0.2148 -0.1478  0.0849
  330MOL0    Cl44460   4.494   0.698   1.676 -0.0753 -0.1930 -0.3644
  330MOL0     C44461   5.538   1.135   1.470 -0.1053 -0.1805 -0.3900
  330MOL0     C44462   5.662   1.163   1.414 -0.0593  0.5267 -0.2073
  330MOL0     O44463   6.007   0.981   1.450 -0.5137 -0.7632  0.3802
  330MOL0     C44464   6.156   1.312   1.409  0.2230  0.8587 -0.4538
  330MOL0     C44465   6.280   1.371   1.379  0.4217 -1.1940  0.1303
  330MOL0     N44466   7.098   1.003   1.414 -0.1324 -0.4839  0.1200
  330MOL0     N44467   7.150   0.890   1.407 -0.2533  0.0839 -0.5379
  330MOL0     C44468   8.280   0.604   1.245 -0.3887 -0.1760  0.2268
  330MOL0     C44469   8.418   0.563   1.246  0.1602  0.3154 -0.7086
  330MOL0     C44470   8.832   0.432   1.370  0.1464  0.5169  0.3970
  330MOL0     C44471   8.954   0.503   1.355  0.1795  0.2229 -0.4130
  330MOL0     C44472   9.074   0.441   1.378  0.0764 -0.1373  0.2390
  330MOL0     C44473   9.078   0.307   1.399 -0.1399  0.7476  0.1365
  330MOL0     O44474   9.192   0.248   1.441  0.5149 -0.0069 -0.2778
  330MOL0     C44475   9.273   0.195   1.336 -0.5880  0.0441  0.2108
  330MOL0     C44476   9.416   0.188   1.402 -0.2939  0.0057 -0.0212
  330MOL0     C44477   9.437   0.058   1.482  0.2344  0.6436  0.0500
  330MOL0     C44478   9.579   0.033   1.531  0.0916 -0.3056  0.0271
  330MOL0     C44479   9.646  -0.027   1.422 -0.2705  0.4384  0.8321
  330MOL0     C44480   9.710  -0.072   1.329 -0.2449 -0.3618 -0.4421
  330MOL0     C44481   8.957   0.234   1.404  0.6013 -0.2972 -0.3738
  330MOL0     C44482   8.830   0.294   1.393  0.0699 -0.1150  0.1247
  330MOL0     H44483   8.405   0.356   1.515 -1.7377 -1.4755 -0.3212
  330MOL0     H44484   8.168   0.438   1.526  2.0191  0.4889  0.5557
  330MOL0     H44485   7.962   0.469   1.464 -0.1397 -0.5540  0.9261
  330MOL0     H44486   7.996   0.622   1.547 -1.9909  3.4966 -1.3733
  330MOL0     H44487   7.855   0.747   1.392  1.5295 -0.1320 -0.6937
  330MOL0     H44488   7.806   0.596   1.313 -1.0517 -1.0125  1.5878
  330MOL0     H44489   7.737   0.487   1.489  1.0648 -0.5660 -1.0010
  330MOL0     H44490   7.756   0.620   1.598  0.9896 -2.0045  0.5426
  330MOL0     H44491   7.608   0.758   1.420 -0.6780 -1.0643 -2.6502
  330MOL0     H44492   7.588   0.610   1.344 -3.3376 -2.1548  1.0877
  330MOL0     H44493   7.495   0.532   1.584 -0.5422  0.5654  0.4955
  330MOL0     H44494   7.493   0.702   1.628 -1.3672 -0.3140  0.7194
  330MOL0     H44495   7.353   0.768   1.428 -1.3491  0.5177  1.7004
  330MOL0     H44496   7.350   0.602   1.390 -1.3173  0.9268 -0.4191
  330MOL0     H44497   7.257   0.552   1.617  1.1011 -1.0149  0.0923
  330MOL0     H44498   7.245   0.736   1.645 -1.7455  0.0245  0.4432
  330MOL0     H44499   7.027   0.618   1.560  2.8431 -4.0354  0.2268
  330MOL0     H44500   7.105   0.629   1.404  1.1662 -1.9452  0.5315
  330MOL0     H44501   6.914   0.839   1.635 -0.7677 -0.9426 -1.0227
  330MOL0     H44502   6.843   1.086   1.638 -1.4870  1.5843  0.8092
  330MOL0     H44503   6.950   1.205   1.589  1.8100 -2.9263  3.5322
  330MOL0     H44504   6.757   1.042   1.409  0.0574  0.0216  0.6418
  330MOL0     H44505   6.864   1.162   1.333  0.8160 -1.0515  0.1363
  330MOL0     H44506   6.743   1.340   1.491  1.0814 -0.2554 -2.0275
  330MOL0     H44507   6.625   1.208   1.513  0.9816  1.3513  1.0385
  330MOL0     H44508   6.615   1.205   1.252  1.3028 -1.1890 -0.3919
  330MOL0     H44509   6.700   1.359   1.258  0.9658 -0.6174  1.6231
  330MOL0     H44510   6.448   1.096   1.282 -0.0016 -0.6183  0.0634
  330MOL0     H44511   6.318   0.925   1.221 -1.6644  0.3384 -1.3614
  330MOL0     H44512   6.290   0.892   1.393  1.2991  1.4415  0.4515
  330MOL0     H44513   6.154   0.913   1.271 -1.1904  3.9049 -0.5293
  330MOL0     H44514   5.861   1.093   1.678 -0.5048 -0.0535  0.5788
  330MOL0     H44515   5.633   1.056   1.774 -0.1416  2.7777  1.1755
  330MOL0     H44516   5.478   0.852   1.711  1.0698  0.4848 -1.1741
  330MOL0     H44517   5.418   0.986   1.833 -2.3938  0.8066 -1.4683
  330MOL0     H44518   5.279   0.811   1.645  1.4216  1.2466 -0.5993
  330MOL0     H44519   5.268   0.790   1.814 -2.8913 -0.1117 -1.2989
  330MOL0     H44520   5.162   1.035   1.666  1.3897  1.3542  1.3489
  330MOL0     H44521   5.133   0.987   1.838  0.2104 -1.8962 -0.1782
  330MOL0     H44522   5.017   0.855   1.594 -1.4497  3.4269 -0.6447
  330MOL0     H44523   5.013   0.784   1.759  1.0499  1.7510  2.8972
  330MOL0     H44524   4.892   1.057   1.711  1.1017  0.3597  0.3289
  330MOL0     H44525   4.885   0.957   1.850 -0.7658 -3.4936  0.0681
  330MOL0     H44526   4.776   0.860   1.588  1.6051  2.0317  1.0343
  330MOL0     H44527   4.789   0.763   1.728 -0.5247 -2.1869 -4.0036
  330MOL0     H44528   4.655   1.036   1.738  0.1085 -0.7359  0.3010
  330MOL0     H44529   4.629   0.917   1.855  0.2163  1.5504  0.6397
  330MOL0     H44530   4.539   0.907   1.571  0.1167  1.4106  0.4910
  330MOL0     H44531   4.439   0.930   1.716 -0.8632 -0.8064 -1.2898
  330MOL0     H44532   5.446   1.148   1.413  0.8175 -1.0869 -2.1931
  330MOL0     H44533   5.688   1.190   1.312  0.7145  0.5415 -0.0117
  330MOL0     H44534   6.073   1.370   1.448 -1.0786 -0.1389 -1.6407
  330MOL0     H44535   6.287   1.479   1.390 -1.5598 -0.5413 -3.5442
  330MOL0     H44536   8.249   0.678   1.172  0.8972  1.8223  1.6171
  330MOL0     H44537   8.490   0.604   1.176  1.4082  0.6648  0.7139
  330MOL0     H44538   8.947   0.611   1.347  0.8132  0.2138 -1.1823
  330MOL0     H44539   9.167   0.497   1.373 -0.3154  0.4551 -4.5486
  330MOL0     H44540   9.235   0.097   1.306  0.3315 -0.6122  1.0991
  330MOL0     H44541   9.282   0.266   1.254  0.6306  2.1248  2.0304
  330MOL0     H44542   9.430   0.265   1.478  2.6886  0.0213 -0.4475
  330MOL0     H44543   9.491   0.205   1.325 -2.3260 -0.9389 -2.3238
  330MOL0     H44544   9.411  -0.028   1.418  0.2631 -1.9024  3.1832
  330MOL0     H44545   9.365   0.053   1.564 -0.2718 -1.2751 -0.4367
  330MOL0     H44546   9.583  -0.028   1.621 -1.6901  1.5269  1.4528
  330MOL0     H44547   9.637   0.124   1.549  0.0886 -0.7478  2.6304
  330MOL0     H44548   9.761  -0.122   1.249 -0.5237  1.3748 -1.7407
  330MOL0     H44549   8.971   0.127   1.412  1.9446 -0.4544 -3.3764
  330MOL0     H44550   8.744   0.228   1.387  1.3161 -1.9321  1.2868
  331MOL0     O44551   2.863   2.339   1.691 -0.4136  0.5529 -0.3788
  331MOL0     C44552   2.840   2.446   1.745  1.0985  0.0534  0.6087
  331MOL0     O44553   2.717   2.513   1.739  1.0400 -0.2187  0.0465
  331MOL0     C44554   2.625   2.453   1.658  0.2004  0.3653 -0.4304
  331MOL0     C44555   2.649   2.415   1.522 -0.2378  0.4000 -0.1777
  331MOL0     C44556   2.550   2.347   1.455  0.0383 -0.1680  0.2456
  331MOL0     C44557   2.420   2.327   1.511 -0.1797 -0.0119  0.1898
  331MOL0     O44558   2.326   2.270   1.427 -0.5343 -0.8793 -0.3951
  331MOL0     C44559   2.235   2.170   1.474 -0.2454  1.2943  0.1532
  331MOL0     C44560   2.112   2.178   1.387  0.7930  0.7005  0.3261
  331MOL0     C44561   2.025   2.303   1.418 -0.1316  0.3526 -0.0800
  331MOL0     C44562   1.890   2.300   1.358 -0.1216 -0.4527  0.2410
  331MOL0     C44563   1.812   2.427   1.390  0.1322 -1.0255  1.2682
  331MOL0     C44564   1.682   2.455   1.307 -0.0099 -1.2689  0.0677
  331MOL0     C44565   1.624   2.597   1.343 -0.0588  0.5188  0.3512
  331MOL0     C44566   1.472   2.613   1.320 -0.5658  0.2494 -0.3296
  331MOL0     N44567   1.408   2.702   1.409 -0.4267  0.0017 -0.0227
  331MOL0     C44568   1.310   2.685   1.501 -0.3359 -0.3120 -0.6044
  331MOL0     C44569   1.273   2.807   1.547 -0.3908 -0.4278 -0.6640
  331MOL0     C44570   1.170   2.824   1.654 -0.4279 -0.0166  0.9276
  331MOL0     C44571   1.079   2.956   1.632  0.0772 -0.2179  0.8380
  331MOL0     C44572   0.965   2.951   1.741  0.2323 -0.0111 -0.1577
  331MOL0     C44573   1.010   2.994   1.886 -0.1211  0.3961 -0.3089
  331MOL0     O44574   0.888   2.972   1.967 -0.5037 -0.3880  0.0392
  331MOL0     C44575   0.814   3.086   1.988 -0.0115  1.1792 -0.4128
  331MOL0     C44576   0.860   3.209   2.038  0.1055  0.3541  0.7034
  331MOL0     C44577   0.777   3.322   2.056  0.8257  0.3099 -0.0810
  331MOL0     C44578   0.843   3.451   2.095 -0.1895 -0.4789  0.5858
  331MOL0     C44579   0.630   3.305   2.035 -0.7198 -0.0530  0.5311
  331MOL0     C44580   0.526   3.411   2.056  0.1172  0.0749 -0.1230
  331MOL0     O44581   0.405   3.365   2.041 -0.0943 -0.2907  0.0375
  331MOL0     C44582   0.283   3.422   2.086  0.0655  0.5392 -0.3775
  331MOL0     C44583   0.261   3.532   2.179 -0.1496 -0.3419 -0.8386
  331MOL0     C44584   0.143   3.577   2.225  0.2513 -0.3323  0.7449
  331MOL0     C44585   0.031   3.499   2.204  0.6227  0.0206  0.2528
  331MOL0     O44586  -0.092   3.553   2.261  0.5596  0.6447 -0.0202
  331MOL0     C44587  -0.207   3.475   2.232 -0.1465 -0.3360  0.3194
  331MOL0     C44588  -0.305   3.535   2.321  0.7640  0.3306 -0.0344
  331MOL0     C44589  -0.341   3.682   2.294  0.5351  0.2357  0.8489
  331MOL0     C44590  -0.407   3.702   2.152  0.0891  0.2958  0.0013
  331MOL0     C44591  -0.450   3.846   2.115  0.2739 -0.5914  0.6719
  331MOL0     C44592  -0.530   3.929   2.214  0.1329  0.1114  0.5253
  331MOL0     C44593  -0.560   4.075   2.160 -0.0743 -0.5465  0.0369
  331MOL0     C44594  -0.597   4.175   2.267 -0.6874  0.3596 -0.2762
  331MOL0    Cl44595  -0.749   4.129   2.351  0.3084  0.4844  0.5015
  331MOL0     C44596   0.040   3.395   2.110 -0.1863  0.2394  0.2844
  331MOL0     C44597   0.170   3.357   2.056  0.5407 -0.3893 -0.2411
  331MOL0     O44598   0.555   3.524   2.099 -0.2413 -0.6019  0.2493
  331MOL0     C44599   0.586   3.178   1.990 -0.1419  0.4289  0.6822
  331MOL0     C44600   0.674   3.073   1.958 -0.6565 -0.2687 -0.2503
  331MOL0     N44601   1.339   2.903   1.477  0.1183  0.8870  0.3319
  331MOL0     N44602   1.419   2.841   1.399 -1.0102 -0.3680  0.5713
  331MOL0     C44603   2.396   2.367   1.643 -0.8137  0.4302  0.7065
  331MOL0     C44604   2.498   2.433   1.716 -0.1091 -0.2678  0.1786
  331MOL0     C44605   2.941   2.485   1.843 -0.2764 -0.2113  0.0448
  331MOL0     C44606   3.057   2.399   1.885  0.6388 -0.6188  0.6328
  331MOL0     C44607   3.138   2.439   1.987 -1.0287  1.1067  0.9295
  331MOL0     C44608   3.122   2.565   2.041  0.2503  0.4394  0.2388
  331MOL0     O44609   3.205   2.644   2.115 -0.7673  0.8644 -0.7062
  331MOL0     C44610   3.321   2.583   2.187  1.0711 -0.4361  0.1843
  331MOL0     C44611   3.381   2.669   2.298 -0.8880  0.1912 -0.2772
  331MOL0     C44612   3.475   2.773   2.251  0.5045  0.4406  0.0986
  331MOL0     C44613   3.399   2.882   2.166 -0.1505 -0.1123 -0.5201
  331MOL0     C44614   3.485   3.004   2.166 -0.4353  0.4029  0.0325
  331MOL0     C44615   3.542   3.101   2.150  0.1657  0.3220 -0.2585
  331MOL0     C44616   3.012   2.639   2.006 -0.6281  0.1742  0.0607
  331MOL0     C44617   2.922   2.607   1.908  0.0166 -0.3331  0.3268
  331MOL0     H44618   2.750   2.422   1.482  0.5558 -1.2082  1.3586
  331MOL0     H44619   2.559   2.327   1.348 -0.0637  0.3919  0.1319
  331MOL0     H44620   2.284   2.074   1.453 -0.6829  1.2864 -0.9416
  331MOL0     H44621   2.213   2.188   1.579 -0.1943 -1.2972  0.6634
  331MOL0     H44622   2.144   2.169   1.283 -0.6720 -1.7474  0.0054
  331MOL0     H44623   2.056   2.086   1.406  3.8409 -1.8361 -1.9413
  331MOL0     H44624   2.017   2.317   1.526 -0.7050 -1.9644  0.2191
  331MOL0     H44625   2.082   2.388   1.379 -1.0248  1.8925  1.7836
  331MOL0     H44626   1.914   2.284   1.253  3.0006  1.4641  0.5189
  331MOL0     H44627   1.833   2.210   1.382  0.4313 -0.7958  0.2964
  331MOL0     H44628   1.781   2.426   1.495  1.9259  2.1937  1.9562
  331MOL0     H44629   1.883   2.508   1.371 -1.6669  0.1211 -1.1745
  331MOL0     H44630   1.696   2.459   1.199  2.7910 -1.0561  0.3518
  331MOL0     H44631   1.609   2.378   1.333 -1.5945 -0.1185 -0.7837
  331MOL0     H44632   1.646   2.613   1.449  0.6734 -1.8351  0.6040
  331MOL0     H44633   1.685   2.671   1.289 -0.3910  0.3566 -0.2494
  331MOL0     H44634   1.421   2.516   1.326 -0.4241  0.1679 -0.4487
  331MOL0     H44635   1.458   2.659   1.222  0.5764  0.6287 -0.3281
  331MOL0     H44636   1.274   2.592   1.543 -2.2674  1.1498  1.2040
  331MOL0     H44637   1.111   2.732   1.658  2.0288 -1.8952 -2.0406
  331MOL0     H44638   1.225   2.824   1.749 -4.5465 -0.1212  3.6153
  331MOL0     H44639   1.028   2.960   1.536 -0.0347  2.1794  0.9355
  331MOL0     H44640   1.139   3.048   1.635  1.6105 -1.0572 -1.6975
  331MOL0     H44641   0.914   2.854   1.737  1.2927 -0.6279  1.0097
  331MOL0     H44642   0.889   3.022   1.706  1.3722  2.2464  1.6988
  331MOL0     H44643   1.040   3.098   1.895 -0.6753  0.3946  2.8620
  331MOL0     H44644   1.094   2.930   1.913 -0.9397 -0.0764  1.2592
  331MOL0     H44645   0.964   3.223   2.066  0.2715  1.3115 -0.3210
  331MOL0     H44646   0.829   3.469   2.202 -5.6786  1.4049 -0.1083
  331MOL0     H44647   0.952   3.450   2.087 -0.2850 -0.0844 -1.0571
  331MOL0     H44648   0.801   3.535   2.040 -0.7343 -1.0567  0.1024
  331MOL0     H44649   0.351   3.584   2.210 -0.2546 -0.8253  0.3321
  331MOL0     H44650   0.136   3.667   2.285 -0.9363  1.2954 -1.7054
  331MOL0     H44651  -0.219   3.474   2.123  3.8394 -1.1501 -0.2750
  331MOL0     H44652  -0.190   3.371   2.262  0.6683  0.0468  1.2014
  331MOL0     H44653  -0.401   3.484   2.314  0.5354  0.5825  1.1772
  331MOL0     H44654  -0.273   3.541   2.425  2.5099  1.4162 -0.5850
  331MOL0     H44655  -0.246   3.737   2.293 -0.5516  2.2359  1.2845
  331MOL0     H44656  -0.419   3.732   2.353 -1.1014  1.0778 -1.8150
  331MOL0     H44657  -0.335   3.666   2.078  3.9228  1.3733  2.9472
  331MOL0     H44658  -0.499   3.642   2.146 -0.9167  1.7705  0.0448
  331MOL0     H44659  -0.502   3.840   2.019  0.0484 -1.3443  0.8337
  331MOL0     H44660  -0.355   3.897   2.096  0.1667 -0.4904  0.4050
  331MOL0     H44661  -0.615   3.872   2.252  0.8912 -0.0316  2.1154
  331MOL0     H44662  -0.474   3.953   2.305  0.3378  0.8726  0.2042
  331MOL0     H44663  -0.648   4.076   2.094 -1.4868 -3.8377  1.6279
  331MOL0     H44664  -0.465   4.100   2.114  1.6209 -2.1592  2.4041
  331MOL0     H44665  -0.617   4.275   2.227  0.4862  0.9012  0.4408
  331MOL0     H44666  -0.514   4.192   2.336 -0.4360  0.8014 -0.6759
  331MOL0     H44667  -0.046   3.341   2.071  0.0145  0.6805 -0.7914
  331MOL0     H44668   0.173   3.282   1.978 -3.4266  1.5771 -2.5858
  331MOL0     H44669   0.480   3.158   1.977 -0.0847 -1.1022  2.1609
  331MOL0     H44670   0.638   2.975   1.927 -2.2133 -0.0850  0.8956
  331MOL0     H44671   2.301   2.351   1.693  0.6737  0.8123  3.9253
  331MOL0     H44672   2.473   2.468   1.816 -3.6197  0.0097 -0.6691
  331MOL0     H44673   3.067   2.304   1.834 -0.7653 -0.7136  0.5037
  331MOL0     H44674   3.227   2.381   2.012 -0.6743  0.5000 -1.5119
  331MOL0     H44675   3.273   2.502   2.243 -0.6169  1.8554  2.2785
  331MOL0     H44676   3.391   2.553   2.109 -1.3960  0.1789 -2.4140
  331MOL0     H44677   3.425   2.602   2.372 -1.6014 -1.5313 -1.3461
  331MOL0     H44678   3.315   2.728   2.362 -0.4764 -0.1821  0.4970
  331MOL0     H44679   3.551   2.736   2.181 -1.1473  0.8520 -2.0073
  331MOL0     H44680   3.534   2.821   2.329  1.6068 -0.1095 -0.3664
  331MOL0     H44681   3.305   2.895   2.221 -0.7026 -0.7243 -1.2956
  331MOL0     H44682   3.382   2.854   2.062 -1.0411 -0.7819 -0.2134
  331MOL0     H44683   3.603   3.188   2.143 -1.2998  1.5805  1.4540
  331MOL0     H44684   3.010   2.736   2.054  1.9335  0.8670 -1.0851
  331MOL0     H44685   2.841   2.677   1.891  1.2118  2.4410  4.4490
  332MOL0     O44686   9.523   8.545  10.334  0.5282 -0.1383 -0.2922
  332MOL0     C44687   9.612   8.568  10.418  0.5558  0.6460  0.5485
  332MOL0     O44688   9.593   8.585  10.550 -0.3054 -0.3325  0.4545
  332MOL0     C44689   9.462   8.603  10.580  0.1262  0.0105 -0.4403
  332MOL0     C44690   9.425   8.727  10.621 -0.2293 -0.0274  0.5526
  332MOL0     C44691   9.304   8.757  10.662  0.9974 -0.4655  0.3475
  332MOL0     C44692   9.205   8.661  10.674  0.2405  1.2198  0.2999
  332MOL0     O44693   9.080   8.696  10.715  0.6206 -0.6742  0.1941
  332MOL0     C44694   8.975   8.667  10.617 -0.5365 -0.3637  0.3732
  332MOL0     C44695   8.853   8.615  10.684 -0.9584 -0.4547 -0.4360
  332MOL0     C44696   8.759   8.559  10.576  0.6939  0.3562 -0.6427
  332MOL0     C44697   8.653   8.650  10.522 -0.1261  0.2595 -0.2571
  332MOL0     C44698   8.531   8.558  10.464  0.1937 -0.3610 -0.0614
  332MOL0     C44699   8.408   8.645  10.421  0.1159  0.6003  0.2630
  332MOL0     C44700   8.287   8.553  10.396  0.5520  0.3435 -0.6667
  332MOL0     C44701   8.283   8.480  10.261 -0.3148  0.0307  0.1300
  332MOL0     N44702   8.150   8.428  10.230  0.7669 -0.4947  0.0507
  332MOL0     C44703   8.104   8.313  10.290  0.3063 -0.8743 -0.4640
  332MOL0     C44704   7.977   8.303  10.247  0.5669  0.4388 -0.2218
  332MOL0     C44705   7.877   8.195  10.285 -0.0096 -0.0276  0.5492
  332MOL0     C44706   7.863   8.102  10.165 -0.4882 -0.3483  0.4759
  332MOL0     C44707   7.739   8.003  10.164 -0.2242 -0.0676  0.9790
  332MOL0     C44708   7.737   7.905  10.271  0.1198  0.7105 -0.3814
  332MOL0     O44709   7.621   7.822  10.253 -0.2996  0.2771 -0.1655
  332MOL0     C44710   7.503   7.856  10.327 -0.2864  0.5477  0.5047
  332MOL0     C44711   7.407   7.752  10.331 -0.3122  0.8761 -0.0534
  332MOL0     C44712   7.284   7.786  10.387  0.6689 -0.1832  0.1988
  332MOL0     C44713   7.175   7.677  10.385 -0.3493  0.2959 -0.6138
  332MOL0     C44714   7.256   7.917  10.435  0.5604  0.1012  0.3651
  332MOL0     C44715   7.117   7.949  10.471 -0.3186 -0.1343 -0.8623
  332MOL0     O44716   7.085   8.078  10.433 -0.3459  0.1708 -0.0441
  332MOL0     C44717   6.964   8.137  10.472 -0.5219  1.0140 -0.6419
  332MOL0     C44718   6.955   8.263  10.527  0.8194  0.5869  0.1217
  332MOL0     C44719   6.836   8.330  10.554  0.2816 -0.1317  0.7654
  332MOL0     C44720   6.718   8.278  10.503 -0.8708  0.9891 -0.9589
  332MOL0     O44721   6.601   8.338  10.527 -0.5119 -0.1865 -0.3012
  332MOL0     C44722   6.479   8.264  10.562 -0.0765 -0.5276 -0.1662
  332MOL0     C44723   6.367   8.303  10.462  0.0546  0.1829  0.2758
  332MOL0     C44724   6.290   8.438  10.487  0.2782  0.4159  0.0728
  332MOL0     C44725   6.159   8.434  10.415 -0.5791  0.3835 -0.3039
  332MOL0     C44726   6.082   8.566  10.399 -0.0912  0.5704  0.4241
  332MOL0     C44727   5.961   8.545  10.311 -0.2217 -0.3062 -0.2660
  332MOL0     C44728   5.889   8.671  10.295  0.7872  0.0321 -0.4952
  332MOL0     C44729   5.763   8.648  10.216 -0.1582 -0.3273 -0.2390
  332MOL0    Cl44730   5.638   8.583  10.324  0.0820 -0.4844 -0.1227
  332MOL0     C44731   6.723   8.145  10.455  0.4883  0.5736 -0.0484
  332MOL0     C44732   6.839   8.076  10.434  0.4695  0.0467  0.1226
  332MOL0     O44733   7.060   7.882  10.555  0.7457 -0.2483  0.6958
  332MOL0     C44734   7.360   8.013  10.434 -0.4631 -0.2304 -0.6264
  332MOL0     C44735   7.481   7.988  10.380 -0.4052 -0.0406  0.2836
  332MOL0     N44736   7.958   8.400  10.154 -0.5234 -0.3747  0.3417
  332MOL0     N44737   8.055   8.472  10.138 -0.8759 -1.0394 -0.1475
  332MOL0     C44738   9.238   8.528  10.646 -0.2139  0.3998  0.4046
  332MOL0     C44739   9.366   8.498  10.599  0.1849  0.1779  0.8928
  332MOL0     C44740   9.758   8.579  10.370  1.0132  0.3104  0.7500
  332MOL0     C44741   9.804   8.507  10.254  0.0532 -0.2043 -0.2167
  332MOL0     C44742   9.935   8.525  10.212  0.6770 -0.0951  0.0590
  332MOL0     C44743  10.018   8.628  10.266 -0.0299 -0.1681  0.3050
  332MOL0     O44744  10.147   8.636  10.215  0.1727  0.6160 -0.0118
  332MOL0     C44745  10.237   8.739  10.263 -0.2220 -0.5354 -0.6409
  332MOL0     C44746  10.334   8.680  10.369  1.0077 -0.3490  0.1012
  332MOL0     C44747  10.466   8.747  10.394 -1.1561 -0.4751 -0.1062
  332MOL0     C44748  10.536   8.713  10.526  0.5690  0.3165 -0.1804
  332MOL0     C44749  10.583   8.579  10.532 -0.4758  0.0452  0.4396
  332MOL0     C44750  10.627   8.463  10.540  0.3474  0.0498 -0.4483
  332MOL0     C44751   9.966   8.699  10.374 -0.4556  0.2056  0.0813
  332MOL0     C44752   9.840   8.675  10.426 -0.0568 -1.2508  0.0472
  332MOL0     H44753   9.481   8.817  10.596  0.1038 -0.8041 -1.7683
  332MOL0     H44754   9.285   8.862  10.678  0.8719 -0.1175 -1.7625
  332MOL0     H44755   8.975   8.769  10.578  3.4226 -0.2693  0.2589
  332MOL0     H44756   9.007   8.601  10.537  2.9630  2.1063 -0.4828
  332MOL0     H44757   8.875   8.534  10.754  0.0190 -1.3597 -1.7363
  332MOL0     H44758   8.810   8.688  10.753  2.0884  1.6975 -0.6007
  332MOL0     H44759   8.808   8.511  10.491 -1.8095 -2.3811 -0.7167
  332MOL0     H44760   8.715   8.475  10.632 -0.0162  0.9348 -0.3111
  332MOL0     H44761   8.602   8.701  10.604 -1.0750 -3.9664  2.0967
  332MOL0     H44762   8.698   8.717  10.449 -3.0386  1.1859 -1.3526
  332MOL0     H44763   8.560   8.490  10.383 -2.8616 -2.9927  0.8716
  332MOL0     H44764   8.501   8.499  10.551  2.3626  2.2001  2.6412
  332MOL0     H44765   8.389   8.716  10.503  0.4113  0.4907  0.4286
  332MOL0     H44766   8.433   8.705  10.332 -3.4972 -0.1047 -1.3937
  332MOL0     H44767   8.296   8.477  10.474  1.1155  4.0201  3.1964
  332MOL0     H44768   8.192   8.604  10.414  1.1558  1.1285  0.3283
  332MOL0     H44769   8.355   8.398  10.259 -1.0586 -0.6337 -1.9703
  332MOL0     H44770   8.312   8.553  10.184 -0.8079  3.1754  2.6833
  332MOL0     H44771   8.157   8.240  10.349 -1.4826 -0.2864  2.0608
  332MOL0     H44772   7.912   8.129  10.366  2.4697 -0.5314 -0.8255
  332MOL0     H44773   7.779   8.239  10.302 -0.3327  0.2588 -1.7861
  332MOL0     H44774   7.960   8.054  10.153  1.9485  3.7351  1.6579
  332MOL0     H44775   7.858   8.163  10.074  2.0208 -2.5529 -1.2598
  332MOL0     H44776   7.741   7.953  10.067  0.9994  1.0353  0.4025
  332MOL0     H44777   7.645   8.057  10.149  0.4998  1.4414  1.5700
  332MOL0     H44778   7.747   7.950  10.370 -0.8773  0.8826 -0.3528
  332MOL0     H44779   7.827   7.846  10.251 -0.2438  0.4901 -1.4530
  332MOL0     H44780   7.422   7.651  10.294 -1.8463 -0.5058  2.7791
  332MOL0     H44781   7.081   7.707  10.338  2.0531  2.9765 -4.3048
  332MOL0     H44782   7.213   7.590  10.330  2.5474  0.1242  1.4087
  332MOL0     H44783   7.159   7.642  10.487 -2.7906  0.8594 -0.7371
  332MOL0     H44784   7.047   8.315  10.553  1.4206  0.2631 -1.2474
  332MOL0     H44785   6.850   8.433  10.585 -0.8706  0.1337  0.4548
  332MOL0     H44786   6.503   8.157  10.567  2.0361 -0.1386 -1.1085
  332MOL0     H44787   6.460   8.295  10.665 -2.6857 -0.8023 -0.5009
  332MOL0     H44788   6.421   8.303  10.367  0.9883  0.8733  0.7946
  332MOL0     H44789   6.297   8.219  10.468 -0.8607  0.9947  1.9134
  332MOL0     H44790   6.359   8.516  10.455  3.4163 -0.1557  4.5058
  332MOL0     H44791   6.274   8.450  10.595 -2.3096  1.1082 -0.3177
  332MOL0     H44792   6.184   8.401  10.313  0.7000  1.8452 -0.5051
  332MOL0     H44793   6.099   8.357  10.464 -0.3168  0.2639 -0.1707
  332MOL0     H44794   6.142   8.645  10.355 -1.3249 -0.0567 -2.6163
  332MOL0     H44795   6.055   8.601  10.500 -1.9754 -0.4045  0.3083
  332MOL0     H44796   6.000   8.508  10.216 -0.0406 -3.3819  0.8954
  332MOL0     H44797   5.893   8.473  10.358 -1.4612  1.3713  0.6235
  332MOL0     H44798   5.946   8.749  10.245 -1.9219  2.3675 -0.1524
  332MOL0     H44799   5.870   8.705  10.397  2.8273  0.4333 -0.2028
  332MOL0     H44800   5.778   8.575  10.136  0.4844 -2.0852  1.4115
  332MOL0     H44801   5.732   8.741  10.167 -0.7203  0.8231  2.1617
  332MOL0     H44802   6.632   8.100  10.416  0.3505  1.0431 -0.2692
  332MOL0     H44803   6.839   7.972  10.400  1.8855 -0.8299  2.5826
  332MOL0     H44804   7.348   8.113  10.474  0.8384 -0.2085 -0.2466
  332MOL0     H44805   7.561   8.062  10.382 -1.1885  0.9866 -2.4404
  332MOL0     H44806   9.159   8.455  10.666  2.1782 -2.0103  1.7212
  332MOL0     H44807   9.379   8.393  10.575 -0.2302  0.1106  0.9599
  332MOL0     H44808   9.734   8.447  10.196  0.5718  0.1939 -1.2944
  332MOL0     H44809   9.970   8.470  10.125  1.1432  2.1403 -1.2458
  332MOL0     H44810  10.293   8.772  10.175 -0.5725 -0.1265 -0.7113
  332MOL0     H44811  10.185   8.827  10.299 -3.3940 -3.0572  1.4944
  332MOL0     H44812  10.342   8.572  10.353  1.6053 -0.4079  0.7273
  332MOL0     H44813  10.276   8.691  10.461 -0.3682 -1.2573 -0.6180
  332MOL0     H44814  10.446   8.854  10.392 -0.6184 -0.2659  2.3867
  332MOL0     H44815  10.535   8.729  10.311 -0.6463  1.1303 -0.0524
  332MOL0     H44816  10.470   8.738  10.609 -0.4985  0.0560 -0.9282
  332MOL0     H44817  10.619   8.782  10.539  2.0400 -0.9488 -2.2233
  332MOL0     H44818  10.666   8.364  10.556 -0.2117 -0.3381 -1.4159
  332MOL0     H44819  10.033   8.776  10.411 -1.0356  0.4024  0.7546
  332MOL0     H44820   9.800   8.739  10.504  0.4973 -0.1995 -0.5220
  333MOL0     O44821   8.250   9.549   8.461 -0.2775  0.2993 -0.0319
  333MOL0     C44822   8.287   9.555   8.344  0.3016  0.8474 -0.0054
  333MOL0     O44823   8.202   9.569   8.232  0.0357 -0.4002 -0.2124
  333MOL0     C44824   8.071   9.593   8.255  0.4264 -0.9941  0.3226
  333MOL0     C44825   7.980   9.502   8.201  0.1509 -0.8968 -0.7082
  333MOL0     C44826   7.837   9.528   8.213 -0.3521 -0.1094 -0.1268
  333MOL0     C44827   7.792   9.633   8.286 -0.0572 -0.8570  0.1780
  333MOL0     O44828   7.652   9.631   8.307 -1.0551  0.5632 -1.5362
  333MOL0     C44829   7.606   9.755   8.358 -0.2076  0.0738  0.0852
  333MOL0     C44830   7.454   9.737   8.387 -0.1266 -0.3556 -0.3815
  333MOL0     C44831   7.365   9.735   8.263  0.3562 -0.0741  0.4458
  333MOL0     C44832   7.212   9.697   8.298  0.4888 -0.1329  0.5522
  333MOL0     C44833   7.126   9.703   8.173 -0.2961  0.2549 -0.0534
  333MOL0     C44834   6.978   9.666   8.200 -0.4151  0.9170  0.0887
  333MOL0     C44835   6.898   9.732   8.086 -0.0237 -0.0687 -0.0114
  333MOL0     C44836   6.755   9.692   8.080  0.2688 -0.4135 -0.6598
  333MOL0     N44837   6.689   9.760   8.199 -0.5958  0.0066 -0.2120
  333MOL0     C44838   6.633   9.886   8.217 -0.6767 -0.8234 -0.3619
  333MOL0     C44839   6.600   9.881   8.354 -0.0747 -0.6468  0.2716
  333MOL0     C44840   6.527  10.004   8.414 -0.3265  0.1286 -0.2810
  333MOL0     C44841   6.416   9.980   8.520 -0.0383  0.0892 -0.6605
  333MOL0     C44842   6.298   9.909   8.465 -0.1083 -0.4485  0.0760
  333MOL0     C44843   6.174   9.916   8.544  0.1746  0.1945 -0.0255
  333MOL0     O44844   6.074   9.846   8.465 -0.0142  0.1748  0.3900
  333MOL0     C44845   5.947   9.860   8.508  0.0322  0.0689 -0.0362
  333MOL0     C44846   5.906   9.915   8.633 -0.0587 -0.3020  0.6997
  333MOL0     C44847   5.770   9.954   8.651 -0.6530  0.0242 -0.3789
  333MOL0     C44848   5.729  10.033   8.776 -0.2696  0.6630 -0.0909
  333MOL0     C44849   5.673   9.919   8.548  0.0682 -0.1957  0.1795
  333MOL0     C44850   5.520   9.934   8.571 -0.2528 -0.3651  0.1894
  333MOL0     O44851   5.480   9.944   8.697 -0.3751  0.1304 -0.1479
  333MOL0     C44852   5.351   9.961   8.727  0.0207 -0.4311 -0.5205
  333MOL0     C44853   5.237   9.903   8.670  0.1559 -0.0275 -0.0425
  333MOL0     C44854   5.109   9.926   8.727  0.2751  0.2935  0.6664
  333MOL0     C44855   5.089  10.022   8.827 -0.4062 -0.7030  1.0216
  333MOL0     O44856   4.963  10.057   8.883  0.1964  0.2638 -0.0803
  333MOL0     C44857   4.855   9.972   8.850 -0.4058 -0.6614 -0.2571
  333MOL0     C44858   4.721  10.030   8.902  0.0597 -0.6198 -1.0689
  333MOL0     C44859   4.606   9.964   8.828  1.1012 -0.3185 -0.4289
  333MOL0     C44860   4.474  10.005   8.898  0.2410  0.8946 -0.0271
  333MOL0     C44861   4.357   9.908   8.858  0.1031  0.0811  0.0028
  333MOL0     C44862   4.221   9.955   8.906 -0.5185  0.0624  0.0647
  333MOL0     C44863   4.187   9.926   9.047  0.1615  0.5969 -0.8773
  333MOL0     C44864   4.067  10.001   9.111 -0.1918 -0.0126 -0.2366
  333MOL0    Cl44865   3.909   9.944   9.056 -0.2013 -0.2434  0.4878
  333MOL0     C44866   5.207  10.075   8.888  0.9559  0.4872  0.8990
  333MOL0     C44867   5.339  10.050   8.839 -0.3880 -0.1224 -0.5838
  333MOL0     O44868   5.448   9.923   8.476  0.0840  0.9704 -0.4774
  333MOL0     C44869   5.719   9.858   8.429 -0.5773 -0.1602  0.9555
  333MOL0     C44870   5.854   9.832   8.411 -0.8011  0.2635  0.1742
  333MOL0     N44871   6.626   9.755   8.404  0.2768 -0.0005 -0.3941
  333MOL0     N44872   6.677   9.680   8.313  0.5330 -0.4404  0.0884
  333MOL0     C44873   7.888   9.721   8.341 -0.9705 -0.8854  0.4649
  333MOL0     C44874   8.025   9.703   8.325 -0.0628 -0.4729  0.6422
  333MOL0     C44875   8.432   9.532   8.313  0.2088 -0.5266  0.1624
  333MOL0     C44876   8.527   9.513   8.417  1.7140  0.1739  1.0276
  333MOL0     C44877   8.657   9.488   8.386 -0.6639 -0.8263  0.5433
  333MOL0     C44878   8.705   9.486   8.259 -0.0618 -0.2510  0.4884
  333MOL0     O44879   8.843   9.466   8.234  0.2366 -0.3459  0.4737
  333MOL0     C44880   8.888   9.497   8.102  0.2588 -0.2954 -0.7221
  333MOL0     C44881   9.044   9.492   8.105  0.5694  0.9937 -0.1109
  333MOL0     C44882   9.118   9.499   7.973  0.2210 -0.0025  0.4381
  333MOL0     C44883   9.271   9.506   7.991  0.1512  0.6466  0.0040
  333MOL0     C44884   9.348   9.533   7.868 -0.1171  0.2407 -0.1532
  333MOL0     C44885   9.401   9.573   7.760 -0.8332  0.5114 -0.3336
  333MOL0     C44886   8.610   9.494   8.152  0.1112 -0.5196 -0.4716
  333MOL0     C44887   8.472   9.516   8.176 -0.1597 -0.7265 -1.1173
  333MOL0     H44888   8.014   9.419   8.140 -2.2044 -1.6955 -1.0435
  333MOL0     H44889   7.767   9.452   8.181 -0.1669  0.7510 -2.8046
  333MOL0     H44890   7.658   9.778   8.452 -0.9034 -0.0088  0.4942
  333MOL0     H44891   7.616   9.837   8.286 -0.9777 -0.9414 -1.2264
  333MOL0     H44892   7.444   9.637   8.429 -2.2455 -1.4941 -3.3127
  333MOL0     H44893   7.421   9.818   8.453 -1.3750  0.5719 -2.0721
  333MOL0     H44894   7.378   9.824   8.201 -1.4664 -1.9179 -2.8549
  333MOL0     H44895   7.402   9.662   8.190 -0.0063  3.3329 -3.4852
  333MOL0     H44896   7.207   9.597   8.342 -1.7243 -0.1548  0.3704
  333MOL0     H44897   7.180   9.761   8.380 -1.7118 -1.5001  0.8285
  333MOL0     H44898   7.127   9.808   8.141 -0.6313  1.0036  2.2047
  333MOL0     H44899   7.153   9.634   8.093 -4.4315 -1.2998 -0.3277
  333MOL0     H44900   6.960   9.558   8.201 -2.3948  1.1960 -0.8117
  333MOL0     H44901   6.945   9.705   8.297  0.4091 -0.8349  1.1116
  333MOL0     H44902   6.899   9.841   8.090 -1.9300  0.0768 -1.9516
  333MOL0     H44903   6.940   9.698   7.991 -1.1974  0.8410 -0.8900
  333MOL0     H44904   6.734   9.585   8.087 -2.4958 -0.0986 -2.3825
  333MOL0     H44905   6.717   9.724   7.983 -0.0337 -0.4595 -0.5587
  333MOL0     H44906   6.621   9.968   8.148 -2.6655 -2.2810 -1.8980
  333MOL0     H44907   6.610  10.056   8.464 -0.7263 -0.2607  0.8017
  333MOL0     H44908   6.484  10.070   8.337 -2.2568  1.5507  1.8940
  333MOL0     H44909   6.386  10.078   8.559  0.4616 -0.2394  0.5829
  333MOL0     H44910   6.452   9.924   8.606 -0.1561  0.5179 -0.3275
  333MOL0     H44911   6.321   9.807   8.431 -3.0053 -0.8915 -0.8730
  333MOL0     H44912   6.277   9.964   8.373  1.4977 -1.5432 -0.9920
  333MOL0     H44913   6.153  10.022   8.563  2.0157  0.4004  1.1740
  333MOL0     H44914   6.190   9.861   8.637 -0.9584 -0.7092 -0.3496
  333MOL0     H44915   5.972   9.942   8.715  2.4234 -0.1244 -1.2400
  333MOL0     H44916   5.812  10.067   8.839  0.6205 -0.4488 -0.6350
  333MOL0     H44917   5.673  10.125   8.757  1.3917  1.1972 -2.8724
  333MOL0     H44918   5.670   9.969   8.842 -2.5073  1.9971 -0.6754
  333MOL0     H44919   5.248   9.832   8.588  0.2969  1.5525 -1.4548
  333MOL0     H44920   5.024   9.878   8.681  1.7043  0.4715 -2.4309
  333MOL0     H44921   4.844   9.992   8.743 -2.0747  0.4226  0.0829
  333MOL0     H44922   4.873   9.870   8.883  1.8104  0.5007  2.6442
  333MOL0     H44923   4.706  10.011   9.009 -1.1904  0.4727 -1.0280
  333MOL0     H44924   4.720  10.137   8.880  1.1636 -0.5424 -0.8096
  333MOL0     H44925   4.616   9.856   8.845 -1.0893 -0.5956 -0.6163
  333MOL0     H44926   4.613  10.012   8.730 -0.6199  2.5252  0.7275
  333MOL0     H44927   4.476   9.998   9.008 -0.6362 -1.6532 -0.1095
  333MOL0     H44928   4.452  10.111   8.880 -0.7267  0.2350 -3.3633
  333MOL0     H44929   4.367   9.805   8.893 -1.7563  0.4509  1.8019
  333MOL0     H44930   4.354   9.905   8.748 -3.2252  0.4319 -0.0119
  333MOL0     H44931   4.217  10.063   8.886  1.7986  0.2272  0.1593
  333MOL0     H44932   4.151   9.916   8.832  0.5778  0.1190 -1.0414
  333MOL0     H44933   4.272   9.949   9.112 -0.9523  1.4073  0.3400
  333MOL0     H44934   4.167   9.819   9.055  3.1302  0.0742  1.5049
  333MOL0     H44935   4.075  10.107   9.087  1.4149 -0.0889 -0.1182
  333MOL0     H44936   4.075   9.981   9.218 -0.3716 -0.9577 -0.3848
  333MOL0     H44937   5.191  10.150   8.965  0.9934  0.4603  0.9325
  333MOL0     H44938   5.425  10.090   8.891  0.3979 -0.2399 -1.7600
  333MOL0     H44939   5.652   9.824   8.350  2.7312 -2.0663 -1.2706
  333MOL0     H44940   5.893   9.794   8.316  0.4718  0.4369  0.6107
  333MOL0     H44941   7.860   9.815   8.387  1.0439  0.0546 -0.1167
  333MOL0     H44942   8.097   9.771   8.371 -1.8446  2.3368 -0.4215
  333MOL0     H44943   8.508   9.520   8.524  0.2350  0.1013  0.7848
  333MOL0     H44944   8.725   9.483   8.470  0.4074  1.7939 -0.0525
  333MOL0     H44945   8.848   9.415   8.041 -3.4496  0.3979  0.5130
  333MOL0     H44946   8.851   9.592   8.062  0.6497  0.1865  0.0235
  333MOL0     H44947   9.076   9.399   8.153 -0.2166  0.3697 -0.7706
  333MOL0     H44948   9.076   9.577   8.166  3.7742 -0.1807  0.0374
  333MOL0     H44949   9.079   9.576   7.906  2.4080  1.6682  0.9627
  333MOL0     H44950   9.094   9.410   7.915  0.1859 -0.9820  1.9102
  333MOL0     H44951   9.297   9.405   8.024  2.0957  1.0494 -0.2084
  333MOL0     H44952   9.303   9.582   8.062  1.5304  1.1595 -1.1171
  333MOL0     H44953   9.454   9.615   7.676 -0.1306 -1.9041 -1.1857
  333MOL0     H44954   8.637   9.483   8.048  1.2859  3.2085 -0.6913
  333MOL0     H44955   8.402   9.528   8.094 -1.2165 -0.9111 -0.2639
  334MOL0     O44956   0.278   3.368   6.331  0.2091 -0.3691  0.3926
  334MOL0     C44957   0.334   3.465   6.380 -0.3615 -0.3161  0.4563
  334MOL0     O44958   0.269   3.557   6.464  0.0372  0.0514  0.8195
  334MOL0     C44959   0.132   3.547   6.457 -0.8669 -0.5445 -0.6283
  334MOL0     C44960   0.058   3.617   6.359 -0.2208  0.1417 -0.0110
  334MOL0     C44961  -0.084   3.625   6.358  0.2973 -0.5129 -0.4899
  334MOL0     C44962  -0.157   3.546   6.451  0.2586 -0.2709  0.1264
  334MOL0     O44963  -0.297   3.560   6.472  0.5558 -0.2244 -0.1807
  334MOL0     C44964  -0.361   3.690   6.443 -0.2150 -0.2876  0.1674
  334MOL0     C44965  -0.420   3.679   6.300  0.2924 -0.0163  0.0791
  334MOL0     C44966  -0.556   3.612   6.305  0.2216  0.0293  0.4816
  334MOL0     C44967  -0.674   3.701   6.364  0.3499  1.1436  0.2375
  334MOL0     C44968  -0.807   3.634   6.337 -0.2237 -0.1213  1.2342
  334MOL0     C44969  -0.917   3.742   6.388  0.1807  0.8994  0.4628
  334MOL0     C44970  -1.050   3.688   6.330  0.3350 -0.2713 -0.1245
  334MOL0     C44971  -1.163   3.780   6.392  0.9783 -0.6414 -0.5552
  334MOL0     N44972  -1.288   3.778   6.306 -0.2242  0.0640 -0.3926
  334MOL0     C44973  -1.353   3.671   6.249  0.0180 -0.2397  0.6655
  334MOL0     C44974  -1.441   3.737   6.164  0.3629  0.2251  0.0402
  334MOL0     C44975  -1.541   3.664   6.077 -0.3207 -0.2597 -0.1553
  334MOL0     C44976  -1.677   3.722   6.076  0.8797  0.7010 -0.6918
  334MOL0     C44977  -1.778   3.636   6.005 -0.3622  0.4001 -0.0582
  334MOL0     C44978  -1.925   3.693   6.029 -0.2379  0.0935 -0.1871
  334MOL0     O44979  -1.967   3.701   6.164 -0.1300 -0.1163 -0.8411
  334MOL0     C44980  -2.103   3.719   6.198  0.2048  0.4975  0.5098
  334MOL0     C44981  -2.144   3.667   6.321 -0.8058 -0.3246  0.5722
  334MOL0     C44982  -2.276   3.685   6.370 -0.0491  0.0770  0.9828
  334MOL0     C44983  -2.302   3.661   6.515  0.3669  0.4989  1.0931
  334MOL0     C44984  -2.379   3.737   6.281  0.1080  0.0397  0.0509
  334MOL0     C44985  -2.522   3.758   6.322  0.0206  0.3251  0.3519
  334MOL0     O44986  -2.547   3.788   6.449 -0.4620 -0.4321  0.2697
  334MOL0     C44987  -2.682   3.808   6.489 -0.5983  0.5181 -0.1932
  334MOL0     C44988  -2.798   3.767   6.428 -0.7093 -0.1730  0.2347
  334MOL0     C44989  -2.920   3.802   6.481 -0.0499 -0.3223  0.1881
  334MOL0     C44990  -2.933   3.882   6.595  0.4333  0.2515 -0.6671
  334MOL0     O44991  -3.051   3.928   6.648  0.3170 -0.1720  0.1034
  334MOL0     C44992  -3.173   3.893   6.595  0.2982  0.7721  0.4050
  334MOL0     C44993  -3.282   3.959   6.685 -0.8996  0.0365  0.1344
  334MOL0     C44994  -3.416   3.962   6.603 -0.6320  0.5401  0.3464
  334MOL0     C44995  -3.523   4.040   6.683 -0.0450  0.0074  0.1351
  334MOL0     C44996  -3.660   4.025   6.633 -0.0191  0.4003 -0.1204
  334MOL0     C44997  -3.675   4.094   6.494  0.1369 -0.5211  0.5116
  334MOL0     C44998  -3.801   4.065   6.417  0.4487  0.2233 -0.2946
  334MOL0     C44999  -3.923   4.124   6.489 -0.2448 -0.1466 -0.3769
  334MOL0    Cl45000  -4.077   4.056   6.425  0.4026  0.0232 -0.2553
  334MOL0     C45001  -2.817   3.910   6.664 -0.0081 -0.7398  0.6113
  334MOL0     C45002  -2.686   3.873   6.617  0.9372 -0.0048  0.0523
  334MOL0     O45003  -2.611   3.751   6.235  0.0580 -0.6154  0.7046
  334MOL0     C45004  -2.337   3.782   6.152 -0.8129 -0.0599 -0.4103
  334MOL0     C45005  -2.200   3.770   6.114  0.0194 -0.7218 -0.3895
  334MOL0     N45006  -1.434   3.872   6.178 -0.0769  0.0447 -0.1847
  334MOL0     N45007  -1.342   3.898   6.268 -0.2340  0.0758  0.0064
  334MOL0     C45008  -0.081   3.455   6.525 -0.7818  0.2912  0.6955
  334MOL0     C45009   0.061   3.465   6.540 -0.5189  0.1263  0.5668
  334MOL0     C45010   0.478   3.491   6.332  0.8581 -0.6716 -0.5347
  334MOL0     C45011   0.549   3.604   6.373 -0.3251 -0.7268  0.7470
  334MOL0     C45012   0.675   3.631   6.316 -0.1107 -0.3858  0.5927
  334MOL0     C45013   0.742   3.538   6.241  0.3624 -0.3818 -0.2503
  334MOL0     O45014   0.871   3.552   6.191  0.0106 -0.3552  0.0944
  334MOL0     C45015   0.928   3.681   6.166 -0.5141  0.8443  0.8104
  334MOL0     C45016   0.989   3.679   6.017 -0.3650  0.3187  0.2808
  334MOL0     C45017   1.118   3.602   5.987 -0.2160  0.0767 -0.1368
  334MOL0     C45018   1.228   3.640   6.089  0.4511 -0.5617 -0.2251
  334MOL0     C45019   1.355   3.594   6.030  0.1201 -0.3023 -0.0082
  334MOL0     C45020   1.452   3.554   5.968 -0.2510  0.3649 -0.3692
  334MOL0     C45021   0.677   3.415   6.220  0.1381 -0.3022 -0.2525
  334MOL0     C45022   0.544   3.392   6.265  0.5117  0.2358 -0.4471
  334MOL0     H45023   0.125   3.659   6.284  3.0500 -4.8988 -0.4273
  334MOL0     H45024  -0.150   3.676   6.288 -0.7424  2.5431  2.4780
  334MOL0     H45025  -0.446   3.701   6.510 -0.1632 -1.6220  0.4692
  334MOL0     H45026  -0.287   3.770   6.454 -2.5358  1.6150  3.9908
  334MOL0     H45027  -0.429   3.783   6.267  0.4481  0.3960  1.2736
  334MOL0     H45028  -0.355   3.629   6.228 -1.2011 -0.8794 -0.7164
  334MOL0     H45029  -0.580   3.589   6.201  0.2835 -2.2610  0.9048
  334MOL0     H45030  -0.542   3.520   6.364  2.1660 -0.4873 -0.6965
  334MOL0     H45031  -0.666   3.728   6.469 -1.4957  2.1612  0.1601
  334MOL0     H45032  -0.684   3.801   6.320 -2.8386  0.2629 -1.3188
  334MOL0     H45033  -0.818   3.624   6.229  1.1178  0.4995  1.0115
  334MOL0     H45034  -0.815   3.537   6.386 -1.0680 -0.8353 -0.2779
  334MOL0     H45035  -0.914   3.755   6.497  0.3869  0.6412  0.4869
  334MOL0     H45036  -0.889   3.831   6.331  1.0472  0.8190  0.7508
  334MOL0     H45037  -1.041   3.707   6.223  1.9216 -2.5240 -0.4845
  334MOL0     H45038  -1.061   3.581   6.350 -3.4749  0.0061 -0.1628
  334MOL0     H45039  -1.123   3.882   6.401 -0.1846 -0.0279 -1.9411
  334MOL0     H45040  -1.184   3.762   6.498 -1.1481 -0.1180 -0.8301
  334MOL0     H45041  -1.330   3.567   6.270  1.5255 -0.3434 -1.2064
  334MOL0     H45042  -1.514   3.661   5.971 -0.5630 -3.2757 -0.2373
  334MOL0     H45043  -1.543   3.556   6.095  2.4949 -0.8560 -2.6236
  334MOL0     H45044  -1.670   3.816   6.020  1.9843  0.6302 -0.7048
  334MOL0     H45045  -1.707   3.727   6.182 -1.0783 -3.7639 -0.8371
  334MOL0     H45046  -1.768   3.531   6.035 -0.5416  0.2706 -0.4553
  334MOL0     H45047  -1.759   3.645   5.898  0.0249 -0.1899 -0.0437
  334MOL0     H45048  -1.991   3.640   5.959  0.5251 -0.7684 -0.2726
  334MOL0     H45049  -1.933   3.792   5.983 -1.3947  0.3024  0.4106
  334MOL0     H45050  -2.071   3.619   6.385 -0.8213 -0.6515  0.3487
  334MOL0     H45051  -2.335   3.747   6.573  1.7797 -0.1791  2.9941
  334MOL0     H45052  -2.383   3.588   6.527 -0.3738  0.9743 -0.7123
  334MOL0     H45053  -2.208   3.614   6.547  1.5171  2.0490  0.1235
  334MOL0     H45054  -2.808   3.694   6.349 -0.7722 -0.8647  0.8722
  334MOL0     H45055  -3.008   3.766   6.427  0.3731 -2.2347  0.6872
  334MOL0     H45056  -3.167   3.930   6.492 -2.2054 -1.1749 -0.5186
  334MOL0     H45057  -3.181   3.784   6.596  0.6005  0.6994 -1.3230
  334MOL0     H45058  -3.297   3.891   6.769  0.6525  0.2735  0.6341
  334MOL0     H45059  -3.240   4.055   6.715  1.2497 -0.8061  0.0264
  334MOL0     H45060  -3.450   3.860   6.586  3.4407 -1.0002  0.3542
  334MOL0     H45061  -3.411   4.002   6.501  0.5432 -0.1296  0.1277
  334MOL0     H45062  -3.515   4.008   6.787 -1.5075 -0.0774  0.2333
  334MOL0     H45063  -3.501   4.147   6.677 -0.3016  0.0520 -0.0223
  334MOL0     H45064  -3.737   4.060   6.702 -0.6510  1.9919 -1.5807
  334MOL0     H45065  -3.681   3.917   6.627 -0.5865  0.3451  2.0311
  334MOL0     H45066  -3.660   4.201   6.507  2.3359 -1.0878  3.5134
  334MOL0     H45067  -3.602   4.058   6.420  2.5949 -0.1898  2.6602
  334MOL0     H45068  -3.826   3.958   6.418  2.3037 -0.3006 -1.9076
  334MOL0     H45069  -3.797   4.103   6.314  0.0070  0.5282 -0.1998
  334MOL0     H45070  -3.923   4.233   6.493  1.6701 -0.0767  4.2847
  334MOL0     H45071  -3.922   4.104   6.596 -1.5806  2.8544  0.3176
  334MOL0     H45072  -2.820   3.972   6.754 -0.4387  1.7107 -0.9768
  334MOL0     H45073  -2.597   3.884   6.678 -0.0798 -0.2028  1.6329
  334MOL0     H45074  -2.404   3.827   6.079  0.5338 -0.2701 -1.8251
  334MOL0     H45075  -2.162   3.812   6.021  0.8634 -0.0089  0.2554
  334MOL0     H45076  -0.138   3.387   6.588 -2.6245  1.4481  0.3844
  334MOL0     H45077   0.119   3.412   6.615 -1.3731 -2.9303 -0.7822
  334MOL0     H45078   0.500   3.667   6.446  0.5730  0.6659  0.1725
  334MOL0     H45079   0.729   3.722   6.342 -2.1355  0.0666  3.6233
  334MOL0     H45080   0.859   3.765   6.163  1.8536  2.8875 -0.5472
  334MOL0     H45081   0.999   3.697   6.249  2.1455 -0.6742 -1.0028
  334MOL0     H45082   1.000   3.779   5.973  1.8618  1.5278  3.1897
  334MOL0     H45083   0.913   3.634   5.953  1.7151 -0.3039 -1.8948
  334MOL0     H45084   1.146   3.626   5.884 -1.1047  0.8926 -0.2116
  334MOL0     H45085   1.099   3.494   5.989  1.5338 -0.3625 -2.5921
  334MOL0     H45086   1.212   3.610   6.193 -2.7948  0.9775 -0.1277
  334MOL0     H45087   1.244   3.748   6.097  3.4855 -1.0110  0.9317
  334MOL0     H45088   1.521   3.500   5.907 -0.3852 -2.6231  1.9000
  334MOL0     H45089   0.732   3.337   6.170 -1.9785 -0.1301 -3.1579
  334MOL0     H45090   0.503   3.292   6.259  0.5887  0.1868 -0.1789
  335MOL0     O45091   8.783   7.304   0.343  0.0270 -0.2793 -0.5228
  335MOL0     C45092   8.804   7.302   0.465 -0.1223 -0.3502 -1.0085
  335MOL0     O45093   8.714   7.318   0.567  0.4978  0.0327  0.6358
  335MOL0     C45094   8.575   7.310   0.537  0.2736  0.7717  0.3732
  335MOL0     C45095   8.507   7.367   0.423 -0.0675  0.4324  0.6022
  335MOL0     C45096   8.364   7.364   0.410 -0.3158  0.8868  0.2270
  335MOL0     C45097   8.283   7.306   0.512 -0.8076 -0.1644  0.1046
  335MOL0     O45098   8.148   7.289   0.495  0.3135 -0.2479  0.3431
  335MOL0     C45099   8.075   7.266   0.621  0.9831  0.4708  0.2575
  335MOL0     C45100   7.936   7.336   0.593  0.3756  1.5419 -0.4725
  335MOL0     C45101   7.858   7.331   0.717  0.0191 -0.2641  0.0795
  335MOL0     C45102   7.728   7.421   0.706  0.5898 -0.7485  0.9499
  335MOL0     C45103   7.657   7.428   0.841 -0.1091  0.9752 -0.5471
  335MOL0     C45104   7.527   7.506   0.824  0.6820  0.4852 -0.5640
  335MOL0     C45105   7.424   7.437   0.731 -1.8468  0.3930 -0.1012
  335MOL0     C45106   7.294   7.404   0.808  0.0362  0.8634 -0.3615
  335MOL0     N45107   7.192   7.344   0.711 -0.8340  0.4534  0.2484
  335MOL0     C45108   7.145   7.212   0.690  0.6425 -0.2175  0.1036
  335MOL0     C45109   7.075   7.226   0.579  0.3699  0.3006  0.2940
  335MOL0     C45110   7.000   7.118   0.496  0.9153  0.2578  0.0911
  335MOL0     C45111   6.900   7.039   0.583 -0.5402  0.0469  0.0699
  335MOL0     C45112   6.853   6.911   0.512 -0.5162 -0.1995 -0.5383
  335MOL0     C45113   6.718   6.848   0.554 -0.3228 -0.0679 -0.3544
  335MOL0     O45114   6.722   6.714   0.498  0.1567  0.0760  0.6587
  335MOL0     C45115   6.608   6.691   0.420  0.3152 -0.1977 -0.0587
  335MOL0     C45116   6.630   6.615   0.303 -0.6069  0.3721 -0.2460
  335MOL0     C45117   6.530   6.576   0.224 -0.0860  0.3793 -0.0301
  335MOL0     C45118   6.572   6.490   0.100 -0.3640 -0.0819  0.2594
  335MOL0     C45119   6.401   6.617   0.248  0.3853 -0.2935 -0.7309
  335MOL0     C45120   6.298   6.586   0.158 -0.4073  0.3105 -0.5436
  335MOL0     O45121   6.288   6.451   0.118  0.0236 -0.1163 -0.2187
  335MOL0     C45122   6.183   6.414   0.038 -0.7551  0.5435  0.0417
  335MOL0     C45123   6.055   6.403   0.099 -0.0125  0.7827  1.1676
  335MOL0     C45124   5.946   6.364   0.021 -0.3437 -0.1753  0.5288
  335MOL0     C45125   5.952   6.337  -0.117  0.1418  0.1210  0.6580
  335MOL0     O45126   5.832   6.285  -0.174  0.4174 -0.5545  0.3123
  335MOL0     C45127   5.839   6.176  -0.262 -0.3980 -0.8857 -0.2688
  335MOL0     C45128   5.869   6.043  -0.193  0.2424 -0.3596  0.2411
  335MOL0     C45129   5.736   5.996  -0.119  0.1992 -0.2497 -0.3128
  335MOL0     C45130   5.779   5.880  -0.021 -0.2324 -0.2220  0.0526
  335MOL0     C45131   5.659   5.800   0.030 -0.0426 -0.1310 -0.1127
  335MOL0     C45132   5.556   5.876   0.111  0.9363  0.1761 -0.5081
  335MOL0     C45133   5.449   5.775   0.177 -0.6209 -0.3988  0.4148
  335MOL0     C45134   5.357   5.847   0.274  0.1019  0.4327  0.0084
  335MOL0    Cl45135   5.237   5.734   0.323  0.0901 -0.0641 -0.5399
  335MOL0     C45136   6.081   6.331  -0.173  0.6460  0.1562 -0.0685
  335MOL0     C45137   6.192   6.371  -0.095  0.5527 -0.0029  1.0594
  335MOL0     O45138   6.207   6.666   0.140 -0.3478  0.9211  0.4274
  335MOL0     C45139   6.375   6.691   0.363  0.0901 -0.4103 -0.4169
  335MOL0     C45140   6.478   6.731   0.447  1.6097 -0.6812 -0.0380
  335MOL0     N45141   7.069   7.361   0.536 -0.3232  0.0895  0.3056
  335MOL0     N45142   7.131   7.426   0.622 -0.6592 -0.3411  0.6214
  335MOL0     C45143   8.355   7.253   0.620  0.5340  0.1777  0.0336
  335MOL0     C45144   8.493   7.258   0.639  0.1509 -0.0709  0.1726
  335MOL0     C45145   8.939   7.279   0.508  0.3301 -0.5555  0.3813
  335MOL0     C45146   8.974   7.276   0.643 -0.0115 -0.9543  0.7541
  335MOL0     C45147   9.109   7.265   0.683  0.2536  0.4220  0.2311
  335MOL0     C45148   9.208   7.263   0.591 -0.6592 -0.1830  0.3575
  335MOL0     O45149   9.338   7.253   0.621  0.6703  0.5746  0.0245
  335MOL0     C45150   9.380   7.143   0.707  0.9258 -0.2376 -0.5350
  335MOL0     C45151   9.531   7.125   0.690  0.0255  0.5459 -0.2596
  335MOL0     C45152   9.618   7.248   0.712  0.0291 -0.3750 -0.0677
  335MOL0     C45153   9.767   7.210   0.700  0.1152 -0.1234 -0.2803
  335MOL0     C45154   9.857   7.323   0.730  0.2821  0.4548  0.6323
  335MOL0     C45155   9.948   7.394   0.767  0.6690  1.4212  0.1434
  335MOL0     C45156   9.180   7.259   0.454 -0.8352 -0.1458 -0.4899
  335MOL0     C45157   9.050   7.275   0.416  0.1419 -0.6833 -0.1197
  335MOL0     H45158   8.566   7.421   0.349  1.2998 -0.4967  0.9682
  335MOL0     H45159   8.309   7.400   0.324 -0.4357  1.0729  0.3819
  335MOL0     H45160   8.058   7.158   0.633  0.4910  0.8158  3.7926
  335MOL0     H45161   8.121   7.317   0.706 -0.0006  1.6402  0.1101
  335MOL0     H45162   7.955   7.441   0.571  0.6787  1.7053  0.4908
  335MOL0     H45163   7.873   7.289   0.518 -0.3655  0.6338  0.6719
  335MOL0     H45164   7.832   7.227   0.740 -3.0970  0.2556 -0.6147
  335MOL0     H45165   7.926   7.372   0.793  2.1329 -2.5586 -0.4349
  335MOL0     H45166   7.761   7.522   0.681  0.8332 -1.1681 -0.5105
  335MOL0     H45167   7.665   7.370   0.633  0.7093 -0.4276  0.6200
  335MOL0     H45168   7.629   7.327   0.872 -1.3584  0.8948 -1.8255
  335MOL0     H45169   7.720   7.477   0.915 -2.9262  2.3480  1.1149
  335MOL0     H45170   7.476   7.519   0.921  0.4196  1.4443 -0.8217
  335MOL0     H45171   7.546   7.606   0.785  1.3059  0.5082 -0.2127
  335MOL0     H45172   7.408   7.497   0.642 -1.7001 -0.2736 -0.5838
  335MOL0     H45173   7.469   7.342   0.701 -0.6815  0.7688  0.3924
  335MOL0     H45174   7.246   7.490   0.855 -1.5445 -0.1931  0.0710
  335MOL0     H45175   7.313   7.332   0.888  0.2973  1.3148 -0.0118
  335MOL0     H45176   7.161   7.120   0.745 -0.8890  0.6375  2.1004
  335MOL0     H45177   6.937   7.170   0.424 -0.8830  0.3382  1.6442
  335MOL0     H45178   7.063   7.046   0.442 -0.0814 -1.1531  0.7359
  335MOL0     H45179   6.809   7.100   0.575 -0.5333  0.0366 -0.0860
  335MOL0     H45180   6.934   7.025   0.686  0.0167  1.6286  0.1295
  335MOL0     H45181   6.920   6.828   0.536 -1.3445 -0.6148  0.4075
  335MOL0     H45182   6.842   6.925   0.404 -3.8611 -0.3677 -0.3222
  335MOL0     H45183   6.632   6.911   0.529  1.4926  3.2191  0.9989
  335MOL0     H45184   6.715   6.851   0.663 -1.5091  2.7270 -0.3660
  335MOL0     H45185   6.727   6.568   0.287 -1.5937 -1.7487 -0.3619
  335MOL0     H45186   6.680   6.479   0.093 -0.2466  1.3043 -0.4971
  335MOL0     H45187   6.521   6.394   0.092  0.0951 -0.2276 -1.1733
  335MOL0     H45188   6.535   6.545   0.013 -0.3944 -0.2313  0.1784
  335MOL0     H45189   6.056   6.438   0.202  1.1134  1.7538  0.8520
  335MOL0     H45190   5.850   6.361   0.071 -1.8665 -2.5789 -2.2475
  335MOL0     H45191   5.737   6.168  -0.301 -1.5202 -0.5608  2.3991
  335MOL0     H45192   5.904   6.198  -0.347  0.5598 -1.4123  0.3078
  335MOL0     H45193   5.886   5.967  -0.270 -2.9538  0.4148 -1.4289
  335MOL0     H45194   5.951   6.051  -0.121  0.5607  4.0615 -0.3776
  335MOL0     H45195   5.659   5.974  -0.194  0.4052  3.1618 -1.7434
  335MOL0     H45196   5.690   6.075  -0.059  1.4645  0.4328 -0.1996
  335MOL0     H45197   5.844   5.815  -0.080 -0.2461  1.1187 -1.5083
  335MOL0     H45198   5.842   5.928   0.055 -1.7875 -0.2059  1.3730
  335MOL0     H45199   5.700   5.725   0.098  0.9499  0.0057 -0.5364
  335MOL0     H45200   5.609   5.748  -0.052 -1.3833  2.4579 -1.0576
  335MOL0     H45201   5.605   5.939   0.186 -0.0187  2.3616 -1.6207
  335MOL0     H45202   5.493   5.948   0.058  0.8907  0.6760  0.2173
  335MOL0     H45203   5.513   5.702   0.228  3.1785  1.7193 -0.8798
  335MOL0     H45204   5.396   5.721   0.099 -0.2797 -2.1142  1.3255
  335MOL0     H45205   5.308   5.933   0.227 -1.8564  0.8443  2.5951
  335MOL0     H45206   5.410   5.890   0.360 -1.0180 -2.0129  2.0535
  335MOL0     H45207   6.108   6.311  -0.277  1.7660  2.1126 -0.2028
  335MOL0     H45208   6.294   6.374  -0.132 -0.0687  2.0130 -0.6916
  335MOL0     H45209   6.271   6.709   0.388  0.1994 -3.4211  3.0956
  335MOL0     H45210   6.455   6.793   0.533  2.0183  1.3901 -1.3427
  335MOL0     H45211   8.306   7.179   0.682 -1.2153  1.1368 -0.1605
  335MOL0     H45212   8.532   7.208   0.727  0.9484  2.1464  1.1355
  335MOL0     H45213   8.894   7.274   0.716  0.1689  2.2961  1.1836
  335MOL0     H45214   9.129   7.261   0.790 -1.0805  0.4793  0.4956
  335MOL0     H45215   9.348   7.159   0.811 -1.4542 -0.7865 -1.1170
  335MOL0     H45216   9.331   7.052   0.672  1.9963 -0.9555 -0.2310
  335MOL0     H45217   9.538   7.107   0.582 -0.6587 -2.0355  0.0716
  335MOL0     H45218   9.563   7.034   0.740 -1.6749  1.0421  1.8486
  335MOL0     H45219   9.582   7.289   0.807  1.9515 -0.1439  0.6051
  335MOL0     H45220   9.594   7.321   0.634 -0.8498  1.5956  1.9283
  335MOL0     H45221   9.782   7.165   0.601 -0.3262 -2.9935  0.8364
  335MOL0     H45222   9.796   7.133   0.773 -0.5134 -0.6859 -0.6154
  335MOL0     H45223  10.039   7.443   0.796  1.4514  0.1622 -0.0954
  335MOL0     H45224   9.264   7.259   0.385  1.9301 -1.3101  2.6242
  335MOL0     H45225   9.025   7.290   0.311 -1.2350 -0.8620  0.1619
  336MOL0     O45226   8.366   9.877   0.125 -0.0442  0.2535  0.6910
  336MOL0     C45227   8.417   9.824   0.231  0.4085 -0.1743  0.8982
  336MOL0     O45228   8.353   9.735   0.311 -0.4142  0.8833  0.4706
  336MOL0     C45229   8.228   9.694   0.280  0.6115  0.4401 -0.6077
  336MOL0     C45230   8.112   9.756   0.334  0.1876 -0.1169  0.1101
  336MOL0     C45231   7.982   9.715   0.313  0.6501 -0.7701  0.6035
  336MOL0     C45232   7.960   9.599   0.241 -0.2379  0.2733 -0.0714
  336MOL0     O45233   7.833   9.562   0.229  0.6200  0.7919  0.1561
  336MOL0     C45234   7.802   9.472   0.116 -0.1244 -0.1900 -1.2727
  336MOL0     C45235   7.650   9.447   0.131  0.3664  0.0960 -0.0843
  336MOL0     C45236   7.560   9.570   0.165  0.1864  0.1090 -0.2609
  336MOL0     C45237   7.411   9.516   0.174  0.2935  0.1497  0.2956
  336MOL0     C45238   7.309   9.620   0.226 -0.5586  0.3079 -0.0515
  336MOL0     C45239   7.321   9.635   0.377 -0.1639 -0.1561  0.6879
  336MOL0     C45240   7.194   9.708   0.428 -0.7223  0.2468 -0.1979
  336MOL0     C45241   7.184   9.709   0.586 -0.4797 -0.8724  0.0109
  336MOL0     N45242   7.061   9.777   0.630 -0.8522  0.2112  0.5070
  336MOL0     C45243   7.045   9.906   0.600 -0.2772  0.3589  0.2357
  336MOL0     C45244   6.924   9.931   0.665 -0.0476 -0.7656 -0.5595
  336MOL0     C45245   6.870  10.071   0.680  0.4914 -0.9176 -0.6769
  336MOL0     C45246   6.720  10.069   0.701 -0.0706 -0.0062 -0.8493
  336MOL0     C45247   6.631  10.034   0.584  0.1435  0.3577  0.2058
  336MOL0     C45248   6.633  10.142   0.486  0.1768 -0.0563 -0.4821
  336MOL0     O45249   6.540  10.122   0.376  0.1473  0.3304 -0.1132
  336MOL0     C45250   6.406  10.149   0.400 -0.5118  0.7786 -0.2244
  336MOL0     C45251   6.316  10.076   0.331  0.9241 -0.0522  0.2236
  336MOL0     C45252   6.180  10.101   0.332  0.0815 -1.2669  0.8503
  336MOL0     C45253   6.091  10.000   0.257 -0.2180 -1.0240  0.1450
  336MOL0     C45254   6.127  10.208   0.413  0.1702  0.3079 -0.4633
  336MOL0     C45255   5.986  10.243   0.420 -0.0568  0.0020 -0.0127
  336MOL0     O45256   5.955  10.345   0.514  0.1671  0.2602  0.2508
  336MOL0     C45257   5.827  10.381   0.544 -0.0581  0.2732 -0.4542
  336MOL0     C45258   5.791  10.357   0.677  0.0614  0.2737 -0.0992
  336MOL0     C45259   5.664  10.390   0.715  0.3742 -0.3120  1.3641
  336MOL0     C45260   5.568  10.451   0.621 -0.1894 -0.5432 -0.2291
  336MOL0     O45261   5.444  10.477   0.675  0.5530 -0.3052 -0.1842
  336MOL0     C45262   5.354  10.562   0.605 -0.0772 -0.2608  0.3177
  336MOL0     C45263   5.235  10.620   0.693 -0.3005 -0.8417  0.2568
  336MOL0     C45264   5.151  10.697   0.596 -0.4918 -0.3613  0.4444
  336MOL0     C45265   5.045  10.780   0.671  0.4933  0.8018 -0.3476
  336MOL0     C45266   4.943  10.694   0.744  0.0325  0.1241  0.4714
  336MOL0     C45267   4.824  10.652   0.651 -0.1681 -0.1857 -0.2112
  336MOL0     C45268   4.707  10.594   0.735 -0.2157  0.3483  0.3637
  336MOL0     C45269   4.642  10.497   0.641  0.4075 -0.4223 -0.7211
  336MOL0    Cl45270   4.737  10.359   0.585  0.5743 -0.1783 -0.4480
  336MOL0     C45271   5.615  10.475   0.491  0.7049  0.1484  0.2524
  336MOL0     C45272   5.743  10.438   0.452 -0.6043 -0.3517  0.5511
  336MOL0     O45273   5.900  10.174   0.366  0.4801 -0.6784  0.0942
  336MOL0     C45274   6.226  10.274   0.489 -0.0453  0.1760  0.2037
  336MOL0     C45275   6.356  10.254   0.479 -0.0169 -0.4892  0.0256
  336MOL0     N45276   6.876   9.818   0.720  0.3758  0.2213 -0.4459
  336MOL0     N45277   6.957   9.719   0.697 -0.5580  0.3061  0.3101
  336MOL0     C45278   8.071   9.529   0.183  0.1929  0.2102 -0.0141
  336MOL0     C45279   8.204   9.580   0.205  1.0635  1.5358 -0.7712
  336MOL0     C45280   8.563   9.845   0.260 -0.1090  1.0215  0.3929
  336MOL0     C45281   8.625   9.962   0.207  0.4945 -0.2701  0.3833
  336MOL0     C45282   8.762   9.985   0.232 -0.1746 -0.0306 -0.0001
  336MOL0     C45283   8.840   9.890   0.295 -0.3232  0.5058  0.4726
  336MOL0     O45284   8.975   9.909   0.301 -0.5284 -0.5253 -0.3253
  336MOL0     C45285   9.043   9.822   0.210  0.8612 -0.6341 -0.2316
  336MOL0     C45286   9.183   9.876   0.180 -0.5071 -0.8659 -0.9484
  336MOL0     C45287   9.270   9.773   0.099  0.8856 -0.6368 -0.1427
  336MOL0     C45288   9.408   9.828   0.059  0.1422  0.3398  0.6940
  336MOL0     C45289   9.508   9.846   0.164 -0.0832 -0.3758  0.3340
  336MOL0     C45290   9.596   9.869   0.245 -0.1504  0.2712 -0.1359
  336MOL0     C45291   8.783   9.773   0.343 -0.3059 -0.3740  0.2482
  336MOL0     C45292   8.649   9.750   0.323  0.7419 -0.7435  0.1086
  336MOL0     H45293   8.137   9.834   0.406  0.7902 -0.2788  0.0766
  336MOL0     H45294   7.907   9.768   0.372  1.5638  0.4776  0.6823
  336MOL0     H45295   7.829   9.506   0.015  3.3624  1.0205 -0.1095
  336MOL0     H45296   7.861   9.380   0.123 -1.7487 -1.5463 -3.9924
  336MOL0     H45297   7.614   9.406   0.036  0.5290  2.0360 -1.0291
  336MOL0     H45298   7.634   9.378   0.214 -0.6971  2.0750  1.4382
  336MOL0     H45299   7.593   9.617   0.258  1.1430 -2.2258  0.6600
  336MOL0     H45300   7.566   9.639   0.080 -0.6504  0.6581  0.1175
  336MOL0     H45301   7.367   9.468   0.085 -0.5758  1.3847  0.0363
  336MOL0     H45302   7.424   9.430   0.240  4.5861  0.3057 -0.0890
  336MOL0     H45303   7.317   9.714   0.170  0.4374  1.3331  1.7365
  336MOL0     H45304   7.217   9.570   0.195 -1.2295  0.9783  0.7924
  336MOL0     H45305   7.335   9.535   0.420  3.5346 -1.3882 -2.7221
  336MOL0     H45306   7.420   9.679   0.386 -0.2281  0.0432  0.4243
  336MOL0     H45307   7.183   9.808   0.386  0.0140  1.9192  3.2244
  336MOL0     H45308   7.103   9.654   0.397 -1.7619 -0.3187  3.3681
  336MOL0     H45309   7.274   9.759   0.623  0.4944 -2.1962 -0.4654
  336MOL0     H45310   7.188   9.605   0.620 -1.4704 -0.9061  0.0505
  336MOL0     H45311   7.110   9.978   0.551 -1.7527 -0.5358 -3.4104
  336MOL0     H45312   6.916  10.112   0.770  0.5515  1.7006 -1.8036
  336MOL0     H45313   6.905  10.129   0.593  1.1046 -0.3420 -0.0642
  336MOL0     H45314   6.686  10.167   0.737 -1.7475 -0.4157 -1.2420
  336MOL0     H45315   6.702  10.005   0.788 -2.6714  2.7971  0.8641
  336MOL0     H45316   6.532  10.030   0.630 -0.3934  0.6152 -0.9120
  336MOL0     H45317   6.663   9.938   0.542  2.7272  0.2437  2.1450
  336MOL0     H45318   6.728  10.150   0.432 -1.0470  2.6924 -2.4464
  336MOL0     H45319   6.621  10.238   0.536 -0.4891  0.4802 -1.6301
  336MOL0     H45320   6.355   9.998   0.267  1.8000 -1.3537  2.2471
  336MOL0     H45321   6.144   9.912   0.221  0.4575 -0.9850  1.0243
  336MOL0     H45322   6.003   9.964   0.312 -0.5599 -0.3692  0.0417
  336MOL0     H45323   6.041  10.045   0.170 -1.8950 -2.5223  0.2749
  336MOL0     H45324   5.858  10.304   0.744 -0.5313 -3.0428 -1.9131
  336MOL0     H45325   5.642  10.374   0.820 -1.3234 -3.1371  0.6773
  336MOL0     H45326   5.409  10.644   0.558 -1.5367  1.5283  1.5717
  336MOL0     H45327   5.309  10.505   0.523  0.8805 -0.1405 -0.3134
  336MOL0     H45328   5.170  10.544   0.738 -0.0280 -0.6669  0.9683
  336MOL0     H45329   5.268  10.695   0.766 -1.6316  0.4245 -0.3833
  336MOL0     H45330   5.106  10.643   0.512 -2.3487  0.2129  1.0279
  336MOL0     H45331   5.220  10.771   0.555 -2.9940  0.6795 -2.3003
  336MOL0     H45332   5.101  10.844   0.739  0.9035 -2.2498  2.3959
  336MOL0     H45333   4.987  10.837   0.597  0.8432  1.1606 -0.3496
  336MOL0     H45334   4.908  10.755   0.828  0.9387  2.6949 -0.9290
  336MOL0     H45335   4.982  10.606   0.797 -1.2102  0.9446  2.9321
  336MOL0     H45336   4.786  10.734   0.590  0.9203 -0.2153 -0.9595
  336MOL0     H45337   4.866  10.581   0.580  0.9501  0.0256  0.2081
  336MOL0     H45338   4.641  10.680   0.753  0.7587  0.6409  2.9985
  336MOL0     H45339   4.731  10.548   0.832 -2.0203 -2.4935 -0.4217
  336MOL0     H45340   4.598  10.554   0.558 -1.0593  1.1814  1.0553
  336MOL0     H45341   4.554  10.458   0.693  0.8250 -0.7591 -0.2620
  336MOL0     H45342   5.552  10.511   0.411 -2.4721  0.0723  2.5105
  336MOL0     H45343   5.785  10.452   0.353 -1.5464 -3.3978 -0.3802
  336MOL0     H45344   6.209  10.352   0.562  3.9501  1.7326 -0.3026
  336MOL0     H45345   6.430  10.313   0.532 -0.8834 -0.5858  1.4038
  336MOL0     H45346   8.062   9.443   0.117  3.3252 -1.1757  1.1634
  336MOL0     H45347   8.288   9.524   0.164 -1.7194 -1.3798 -3.0037
  336MOL0     H45348   8.561  10.030   0.152  0.1061 -1.8592 -1.2090
  336MOL0     H45349   8.817  10.063   0.182 -2.0384  1.5599  0.2885
  336MOL0     H45350   9.060   9.723   0.252 -0.7457 -0.5523  0.6847
  336MOL0     H45351   8.978   9.819   0.122 -0.3759  3.0251  0.3490
  336MOL0     H45352   9.226   9.903   0.277  0.6766  1.0316 -1.9391
  336MOL0     H45353   9.173   9.968   0.122  0.8933 -1.2798 -1.8869
  336MOL0     H45354   9.215   9.745   0.009 -0.0652 -1.3120  0.6194
  336MOL0     H45355   9.275   9.678   0.154  0.1238 -0.5628  0.0751
  336MOL0     H45356   9.408   9.918  -0.003 -4.6537 -0.8539 -1.5054
  336MOL0     H45357   9.438   9.748  -0.009 -0.6961  1.4050 -1.0107
  336MOL0     H45358   9.661   9.914   0.317 -0.6258  0.4259  0.2053
  336MOL0     H45359   8.853   9.703   0.388  2.9207  1.9093 -0.8596
  336MOL0     H45360   8.607   9.655   0.357  1.0843  0.1416  3.3680
  337MOL0     O45361   5.314   8.067   0.451  0.1897  0.4253 -0.2275
  337MOL0     C45362   5.410   8.136   0.473 -0.1755  0.0108  0.7265
  337MOL0     O45363   5.406   8.272   0.514 -0.7337  0.6237  0.2635
  337MOL0     C45364   5.288   8.320   0.557  0.9167 -0.3892 -0.3401
  337MOL0     C45365   5.234   8.440   0.514  0.0753  0.0851  0.0589
  337MOL0     C45366   5.116   8.492   0.558  1.1746 -0.1302 -0.6461
  337MOL0     C45367   5.039   8.427   0.658  0.1494  0.0338 -1.4783
  337MOL0     O45368   4.933   8.480   0.726  0.1651 -1.0234  0.3444
  337MOL0     C45369   4.805   8.421   0.715 -0.0762  0.0737  0.4147
  337MOL0     C45370   4.715   8.469   0.824  0.0492 -0.7480 -0.4936
  337MOL0     C45371   4.570   8.459   0.784  0.2180  0.3532  0.4948
  337MOL0     C45372   4.483   8.528   0.887 -0.3164 -0.4181 -0.6361
  337MOL0     C45373   4.506   8.680   0.893  0.0198  0.5326 -0.7838
  337MOL0     C45374   4.400   8.750   0.984 -0.1120  0.2728  0.1095
  337MOL0     C45375   4.410   8.906   0.960 -0.4674 -0.8517  0.6639
  337MOL0     C45376   4.308   8.987   1.042  0.6868 -0.5594  0.2631
  337MOL0     N45377   4.324   8.971   1.188 -0.3090  0.3504 -0.6877
  337MOL0     C45378   4.413   9.036   1.265  0.5949 -0.7763 -0.1293
  337MOL0     C45379   4.378   9.005   1.394 -0.0388 -0.1409 -0.6207
  337MOL0     C45380   4.451   9.048   1.522  0.7347 -0.5737 -0.4610
  337MOL0     C45381   4.567   8.947   1.553  1.1399  0.4072  0.6326
  337MOL0     C45382   4.651   8.992   1.661 -0.4477 -0.1921 -0.4840
  337MOL0     C45383   4.750   9.105   1.634  0.3344 -0.1959  0.2728
  337MOL0     O45384   4.820   9.074   1.516 -0.1258 -0.1631 -0.3770
  337MOL0     C45385   4.932   9.148   1.479  0.3164 -0.7336  0.0774
  337MOL0     C45386   5.005   9.099   1.374  0.4347 -0.2135  0.7035
  337MOL0     C45387   5.133   9.155   1.343  0.2469 -1.0367  0.9469
  337MOL0     C45388   5.213   9.093   1.230 -0.3120  0.0703  1.4887
  337MOL0     C45389   5.186   9.265   1.410  0.6314 -0.8699 -0.5256
  337MOL0     C45390   5.324   9.322   1.386 -0.7212  0.2790 -0.0945
  337MOL0     O45391   5.367   9.416   1.476 -0.0880  0.3772  0.8731
  337MOL0     C45392   5.477   9.495   1.444  0.3057  0.2740 -0.5198
  337MOL0     C45393   5.475   9.586   1.330  0.0734 -0.1924 -1.2540
  337MOL0     C45394   5.565   9.690   1.322  0.7553  0.1311  0.0260
  337MOL0     C45395   5.662   9.703   1.419 -0.1461  0.2809  0.1792
  337MOL0     O45396   5.750   9.810   1.398 -0.3170  1.2841 -0.2058
  337MOL0     C45397   5.877   9.805   1.453 -0.3066  0.7359 -0.5305
  337MOL0     C45398   5.955   9.900   1.370 -0.4217 -0.6657  0.3343
  337MOL0     C45399   6.080   9.951   1.450  0.8797 -0.1883 -0.3830
  337MOL0     C45400   6.165  10.043   1.367 -0.0142 -0.3369  0.4235
  337MOL0     C45401   6.284  10.084   1.463 -0.3252 -0.7837 -1.3234
  337MOL0     C45402   6.343  10.216   1.418  0.2667 -0.8152  0.8926
  337MOL0     C45403   6.466  10.260   1.496  0.1891  0.2334  0.0734
  337MOL0     C45404   6.439  10.351   1.624  0.2963 -1.0340 -0.5336
  337MOL0    Cl45405   6.373  10.260   1.767 -0.5566 -0.2779  0.0676
  337MOL0     C45406   5.668   9.616   1.530  0.0831  0.2884 -0.1084
  337MOL0     C45407   5.569   9.514   1.546  0.2414 -0.8864 -0.2493
  337MOL0     O45408   5.389   9.290   1.282  0.2449 -0.3942  0.1553
  337MOL0     C45409   5.101   9.317   1.515  0.2009 -0.2763 -0.3495
  337MOL0     C45410   4.966   9.266   1.546 -0.3094  0.2165 -0.1577
  337MOL0     N45411   4.262   8.919   1.395 -0.3127 -0.1731  1.0745
  337MOL0     N45412   4.234   8.898   1.265  0.3876 -0.7689  0.0455
  337MOL0     C45413   5.095   8.311   0.704  0.4056  0.9597 -0.5962
  337MOL0     C45414   5.220   8.261   0.657 -0.7058  0.2719  0.3439
  337MOL0     C45415   5.541   8.074   0.459  0.7532  0.8515 -0.3847
  337MOL0     C45416   5.545   7.938   0.404 -0.2408  0.1235  0.6392
  337MOL0     C45417   5.680   7.882   0.403  0.4763  1.1093  0.1503
  337MOL0     C45418   5.790   7.945   0.443  0.5692  0.3518 -0.8136
  337MOL0     O45419   5.904   7.881   0.419 -0.3791  0.7012 -0.4672
  337MOL0     C45420   6.031   7.913   0.477 -0.1354  0.3250 -0.4068
  337MOL0     C45421   6.142   7.813   0.438  0.8399  0.4566  0.1451
  337MOL0     C45422   6.148   7.670   0.504  0.5532 -0.3971  0.6088
  337MOL0     C45423   6.243   7.585   0.426  0.3928  0.9071 -0.7090
  337MOL0     C45424   6.382   7.631   0.445  0.3840  0.0807  0.3504
  337MOL0     C45425   6.491   7.677   0.465  0.8464  0.1498 -0.4758
  337MOL0     C45426   5.776   8.065   0.508  0.2790 -1.2184  0.6947
  337MOL0     C45427   5.655   8.135   0.505 -0.1684 -0.0030 -0.2173
  337MOL0     H45428   5.291   8.491   0.437 -0.3318  0.6785  0.1431
  337MOL0     H45429   5.082   8.593   0.534 -0.3765  0.0386  1.9154
  337MOL0     H45430   4.760   8.460   0.623 -0.8108  0.4413  0.9142
  337MOL0     H45431   4.808   8.312   0.706 -0.9684 -0.0144  0.9714
  337MOL0     H45432   4.734   8.423   0.922  1.5324 -0.0456 -0.4317
  337MOL0     H45433   4.745   8.573   0.837  2.7252 -1.2117 -2.2438
  337MOL0     H45434   4.541   8.498   0.686 -3.3869 -0.5695  1.0586
  337MOL0     H45435   4.540   8.355   0.795  1.4932 -0.1617 -0.6872
  337MOL0     H45436   4.379   8.510   0.859  0.8415 -2.6653 -4.1583
  337MOL0     H45437   4.497   8.483   0.986 -0.5410  0.4368 -0.2091
  337MOL0     H45438   4.602   8.713   0.933 -0.7309  0.0275  1.5746
  337MOL0     H45439   4.503   8.727   0.794  1.4252  1.8865 -0.2249
  337MOL0     H45440   4.302   8.711   0.954  1.5604 -2.6556 -2.1758
  337MOL0     H45441   4.425   8.720   1.086 -0.2651  2.7889  0.9506
  337MOL0     H45442   4.512   8.937   0.986 -0.6944 -0.6499  1.3426
  337MOL0     H45443   4.388   8.916   0.853 -0.0697 -2.5808  0.3915
  337MOL0     H45444   4.202   8.966   1.026 -0.2348  1.7419  2.6402
  337MOL0     H45445   4.308   9.092   1.012  0.1709 -0.6198  0.0360
  337MOL0     H45446   4.495   9.104   1.243 -0.3750  1.0544  1.5592
  337MOL0     H45447   4.484   9.148   1.495 -0.7653  0.5718  1.6693
  337MOL0     H45448   4.381   9.052   1.606 -0.6137  1.4138 -1.5882
  337MOL0     H45449   4.626   8.916   1.467  1.1114 -0.6533  0.9806
  337MOL0     H45450   4.527   8.852   1.589  4.0268 -0.0134  3.1022
  337MOL0     H45451   4.709   8.901   1.683 -1.5384 -0.5032  1.3477
  337MOL0     H45452   4.595   9.020   1.750 -1.1082 -0.3789 -0.8375
  337MOL0     H45453   4.819   9.131   1.716  0.0495  1.1300  0.1136
  337MOL0     H45454   4.702   9.201   1.613  3.8199  1.3490 -1.5565
  337MOL0     H45455   4.993   9.002   1.328  3.0630 -0.1436 -0.2860
  337MOL0     H45456   5.319   9.077   1.253  0.0837 -0.4675 -0.5123
  337MOL0     H45457   5.178   8.992   1.205  1.8892 -0.2580 -0.6644
  337MOL0     H45458   5.213   9.159   1.143 -3.2787  0.8631  1.9785
  337MOL0     H45459   5.395   9.577   1.257 -1.5037 -0.2372  0.4241
  337MOL0     H45460   5.549   9.760   1.241 -1.1785 -0.0031  0.2499
  337MOL0     H45461   5.878   9.835   1.558  0.8198 -1.3385  0.1245
  337MOL0     H45462   5.910   9.700   1.446 -1.9218 -0.1506  3.0274
  337MOL0     H45463   5.990   9.849   1.279  2.6870  0.4513  0.7760
  337MOL0     H45464   5.892   9.980   1.331  0.3467  0.0394  0.5103
  337MOL0     H45465   6.139   9.862   1.471 -0.8412 -1.1158  0.8206
  337MOL0     H45466   6.049  10.002   1.542  0.2911  1.1968 -1.3051
  337MOL0     H45467   6.199  10.013   1.267  0.7480  1.0082  0.2569
  337MOL0     H45468   6.100  10.129   1.350 -0.9402 -0.5850  2.4092
  337MOL0     H45469   6.368  10.015   1.453  0.1527 -0.5690  0.7558
  337MOL0     H45470   6.253  10.088   1.568  0.9324 -2.8739 -0.8193
  337MOL0     H45471   6.393  10.201   1.322 -0.6902  0.8420  0.1027
  337MOL0     H45472   6.263  10.291   1.414 -0.3715 -1.5403 -1.4942
  337MOL0     H45473   6.534  10.313   1.428  1.0457 -0.8335  0.0719
  337MOL0     H45474   6.519  10.168   1.524  0.9144 -0.0872 -2.1716
  337MOL0     H45475   6.377  10.439   1.604  0.8113 -0.1128  1.6503
  337MOL0     H45476   6.538  10.387   1.655 -0.3212  1.4938 -1.1888
  337MOL0     H45477   5.742   9.642   1.605  1.4275 -0.8434 -1.0080
  337MOL0     H45478   5.549   9.457   1.636  0.3298 -0.0095  0.3454
  337MOL0     H45479   5.129   9.401   1.579 -0.0278 -1.2436  1.0686
  337MOL0     H45480   4.916   9.324   1.624  0.5449  0.6236  0.1055
  337MOL0     H45481   5.051   8.259   0.789 -0.9328  0.5966 -1.4765
  337MOL0     H45482   5.257   8.169   0.702  1.7761  2.1121  2.3188
  337MOL0     H45483   5.456   7.889   0.365 -1.2539  1.9758  0.5021
  337MOL0     H45484   5.689   7.782   0.362  0.5009 -1.3253  5.3343
  337MOL0     H45485   6.069   8.004   0.431  0.6383  0.3851  0.3223
  337MOL0     H45486   6.028   7.925   0.586 -1.8409 -1.4793 -0.1807
  337MOL0     H45487   6.243   7.854   0.455  1.1347  0.5078 -1.5645
  337MOL0     H45488   6.143   7.811   0.329 -2.5318  1.2230  0.0038
  337MOL0     H45489   6.052   7.619   0.499  0.6980 -0.5437 -1.1978
  337MOL0     H45490   6.177   7.674   0.610  0.8997  1.1386  0.4789
  337MOL0     H45491   6.212   7.578   0.321 -3.4099  0.3861  0.3024
  337MOL0     H45492   6.230   7.487   0.473  2.8470  1.1917  0.7642
  337MOL0     H45493   6.590   7.707   0.492  0.5473  0.3550  0.4267
  337MOL0     H45494   5.862   8.126   0.536  0.2621 -0.1936 -1.3411
  337MOL0     H45495   5.663   8.233   0.551 -1.7780 -0.5151  1.2263
  338MOL0     O45496   9.339   5.298  10.367 -0.1438  0.1617 -0.4442
  338MOL0     C45497   9.431   5.221  10.398  0.1388 -0.3441 -0.8794
  338MOL0     O45498   9.410   5.094  10.431  0.2475 -0.2432  0.2545
  338MOL0     C45499   9.285   5.045  10.406 -0.1639 -0.0447  0.1675
  338MOL0     C45500   9.269   4.952  10.304  0.1718  0.5119 -0.3422
  338MOL0     C45501   9.146   4.891  10.275  0.2491  0.1322  0.4672
  338MOL0     C45502   9.026   4.918  10.353 -0.5097  0.4260  0.4190
  338MOL0     O45503   8.896   4.893  10.316  0.6749  0.5870  0.0160
  338MOL0     C45504   8.875   4.803  10.215  0.4587 -0.8909 -0.3603
  338MOL0     C45505   8.730   4.796  10.179 -1.2606  0.0103  0.0240
  338MOL0     C45506   8.645   4.708  10.272 -0.4539  0.3594 -0.6237
  338MOL0     C45507   8.500   4.744  10.231 -0.0357 -0.5098 -0.6600
  338MOL0     C45508   8.408   4.646  10.295 -0.0177 -0.1599  0.8120
  338MOL0     C45509   8.403   4.628  10.449 -0.2212 -0.4492 -0.4766
  338MOL0     C45510   8.266   4.566  10.483 -0.0344  0.3801  0.4273
  338MOL0     C45511   8.155   4.671  10.495  1.1429  0.3671 -0.2781
  338MOL0     N45512   8.023   4.604  10.484  0.2436 -0.1147  0.1098
  338MOL0     C45513   7.952   4.599  10.367 -0.7483  0.2873 -0.4012
  338MOL0     C45514   7.846   4.520  10.395 -0.9885  0.5673  0.3558
  338MOL0     C45515   7.739   4.483  10.302 -0.2981  0.0076 -0.2419
  338MOL0     C45516   7.671   4.609  10.264  0.5200 -0.6066  0.0136
  338MOL0     C45517   7.559   4.584  10.153  0.6005  0.1071 -0.5618
  338MOL0     C45518   7.443   4.500  10.199  0.5184 -0.0314  0.0194
  338MOL0     O45519   7.362   4.482  10.078 -0.4688  0.5798 -0.5599
  338MOL0     C45520   7.228   4.451  10.098 -0.2722 -1.0200  0.7997
  338MOL0     C45521   7.155   4.441  10.219  0.1454  0.7602  0.4305
  338MOL0     C45522   7.011   4.421  10.214  0.6016 -1.1775 -0.0153
  338MOL0     C45523   6.948   4.379  10.336 -0.0989 -0.2873 -0.6492
  338MOL0     C45524   6.945   4.428  10.097  0.6094 -0.7466  0.2549
  338MOL0     C45525   6.803   4.403  10.085 -0.2973 -0.3330  0.1236
  338MOL0     O45526   6.773   4.323   9.983  0.4711  0.6550 -0.5524
  338MOL0     C45527   6.641   4.315   9.958  0.8078 -0.1727 -0.1254
  338MOL0     C45528   6.557   4.212  10.012  0.5903 -0.0696  0.0357
  338MOL0     C45529   6.421   4.213   9.995 -0.4017  0.4073  0.1603
  338MOL0     C45530   6.360   4.308   9.902 -0.2728 -0.2436 -0.0217
  338MOL0     O45531   6.226   4.309   9.888 -0.3810 -0.0903  0.4521
  338MOL0     C45532   6.178   4.337   9.756  0.0210  0.3807  0.1190
  338MOL0     C45533   6.036   4.280   9.763 -0.2855 -0.1490  0.3459
  338MOL0     C45534   5.957   4.351   9.650  1.7148 -0.9917  0.3177
  338MOL0     C45535   5.823   4.279   9.629  0.3662 -0.5071 -0.4373
  338MOL0     C45536   5.762   4.334   9.494  0.1250  0.5210 -0.7798
  338MOL0     C45537   5.806   4.258   9.366  0.5875 -0.1102  0.0975
  338MOL0     C45538   5.719   4.311   9.251 -0.0864 -0.3258  0.0322
  338MOL0     C45539   5.579   4.256   9.246  0.2920 -0.3338  0.0758
  338MOL0    Cl45540   5.514   4.331   9.093 -0.0582  0.4236  0.5038
  338MOL0     C45541   6.449   4.406   9.845  0.0817  0.3141 -0.0371
  338MOL0     C45542   6.582   4.415   9.875 -0.0330  0.1472  0.3929
  338MOL0     O45543   6.726   4.468  10.154 -0.6559 -0.8355 -0.0585
  338MOL0     C45544   7.021   4.445   9.978 -0.4137 -0.0857 -0.3446
  338MOL0     C45545   7.159   4.457   9.987  0.5801  0.0627  0.0353
  338MOL0     N45546   7.855   4.472  10.522 -0.7350 -0.7337  0.3048
  338MOL0     N45547   7.953   4.529  10.573 -0.2719  0.6280 -0.2335
  338MOL0     C45548   9.045   5.011  10.454  0.0408  0.7687 -0.5783
  338MOL0     C45549   9.168   5.069  10.480 -0.5864  0.9120  0.3456
  338MOL0     C45550   9.572   5.267  10.391 -0.1151  0.0792  0.1245
  338MOL0     C45551   9.605   5.392  10.343 -0.3965 -1.2316 -0.5131
  338MOL0     C45552   9.739   5.435  10.312 -0.7438  0.2964 -0.3550
  338MOL0     C45553   9.848   5.346  10.332 -0.3168  0.0812  0.3768
  338MOL0     O45554   9.981   5.371  10.301  0.0101 -0.5016  0.2488
  338MOL0     C45555  10.025   5.476  10.209 -0.2822  0.6855 -0.4154
  338MOL0     C45556  10.028   5.401  10.078 -0.3005  0.3249 -0.5079
  338MOL0     C45557  10.140   5.285  10.077  0.4947 -0.0259 -0.4276
  338MOL0     C45558  10.278   5.346  10.046 -0.2690 -0.0955 -0.6237
  338MOL0     C45559  10.277   5.411   9.912 -0.7342 -0.2313 -0.9999
  338MOL0     C45560  10.259   5.467   9.807  0.5179  0.2973 -0.0025
  338MOL0     C45561   9.820   5.214  10.380  0.1976  0.3109 -0.2306
  338MOL0     C45562   9.686   5.178  10.414  0.1981  0.5568  0.1751
  338MOL0     H45563   9.356   4.932  10.243 -0.5097  1.6861 -1.7893
  338MOL0     H45564   9.139   4.829  10.186 -0.8768  2.0359 -0.8334
  338MOL0     H45565   8.931   4.843  10.130 -1.3192  0.6703 -0.8703
  338MOL0     H45566   8.916   4.705  10.243  1.7002 -0.0765  0.7958
  338MOL0     H45567   8.688   4.897  10.168 -0.5622  0.1980 -1.1438
  338MOL0     H45568   8.724   4.745  10.082 -0.0692 -0.6666  0.2875
  338MOL0     H45569   8.682   4.606  10.262  1.7186  1.2141 -1.9282
  338MOL0     H45570   8.659   4.737  10.377  1.2917  0.3327 -0.8287
  338MOL0     H45571   8.479   4.847  10.263  2.0210 -0.2611  0.0318
  338MOL0     H45572   8.482   4.745  10.123  2.3509 -1.7784 -1.1270
  338MOL0     H45573   8.311   4.675  10.253 -0.0801  0.1053  1.1363
  338MOL0     H45574   8.440   4.549  10.256 -1.7895 -0.0040 -1.2188
  338MOL0     H45575   8.485   4.565  10.483 -0.6540 -0.6319  0.2468
  338MOL0     H45576   8.416   4.725  10.497  0.4650 -0.3113 -0.9280
  338MOL0     H45577   8.236   4.504  10.398  0.2935  0.9020 -0.0796
  338MOL0     H45578   8.271   4.504  10.573  0.6909  1.2824  1.0165
  338MOL0     H45579   8.160   4.753  10.423 -1.3707  2.0688  1.3291
  338MOL0     H45580   8.159   4.729  10.588 -1.7029  0.8722 -0.3683
  338MOL0     H45581   7.981   4.644  10.273  0.5116  0.3764  0.0026
  338MOL0     H45582   7.783   4.436  10.213  1.5750  2.9053 -0.9817
  338MOL0     H45583   7.675   4.412  10.357  1.3601 -1.0805  0.3574
  338MOL0     H45584   7.738   4.685  10.222 -0.5775  0.3552 -0.0486
  338MOL0     H45585   7.629   4.673  10.342  2.3065  3.6223 -2.1915
  338MOL0     H45586   7.602   4.529  10.070 -1.9820 -3.1906  0.0632
  338MOL0     H45587   7.525   4.678  10.109  0.2042 -0.4312 -1.4289
  338MOL0     H45588   7.384   4.565  10.264 -1.5377 -1.0489 -0.7424
  338MOL0     H45589   7.478   4.407  10.245  1.6962  0.4312  0.0905
  338MOL0     H45590   7.207   4.442  10.314  2.8277 -2.8402 -0.7698
  338MOL0     H45591   6.870   4.455  10.349 -1.4335 -1.3495 -2.1573
  338MOL0     H45592   6.889   4.287  10.338 -3.1957  1.4893 -2.3774
  338MOL0     H45593   7.022   4.369  10.415 -1.5214 -0.9760  0.6597
  338MOL0     H45594   6.600   4.129  10.068 -0.7401 -1.5643 -1.0686
  338MOL0     H45595   6.363   4.132  10.038  0.1293  0.2026  0.5085
  338MOL0     H45596   6.181   4.446   9.750 -1.9341  0.5827  1.6612
  338MOL0     H45597   6.233   4.284   9.678  0.9635  1.5630 -0.0368
  338MOL0     H45598   6.053   4.173   9.745 -1.7073 -0.1143 -1.6585
  338MOL0     H45599   5.996   4.298   9.863  0.8574 -2.4838  1.2918
  338MOL0     H45600   6.008   4.366   9.555 -1.2341 -0.1059 -1.2390
  338MOL0     H45601   5.931   4.453   9.682  2.5135 -0.5024 -0.5473
  338MOL0     H45602   5.842   4.173   9.611 -0.1432 -0.8176  0.7912
  338MOL0     H45603   5.753   4.288   9.712 -1.6531 -1.7653 -1.9181
  338MOL0     H45604   5.777   4.442   9.493  1.7278  0.3108 -1.1438
  338MOL0     H45605   5.654   4.329   9.512  0.4413 -1.7276  1.0219
  338MOL0     H45606   5.913   4.272   9.349 -0.1119  3.3074 -2.8536
  338MOL0     H45607   5.784   4.154   9.391  1.4496 -0.9864 -2.5250
  338MOL0     H45608   5.770   4.274   9.161 -0.6669  0.1000 -0.4784
  338MOL0     H45609   5.718   4.420   9.258  3.1138 -0.2438  1.0072
  338MOL0     H45610   5.524   4.291   9.334  1.0839  0.4801  0.2702
  338MOL0     H45611   5.559   4.150   9.230 -1.4065 -0.2427  1.2683
  338MOL0     H45612   6.393   4.487   9.798 -0.1181  1.0224  1.3473
  338MOL0     H45613   6.646   4.493   9.837  0.0170 -0.8888 -1.8652
  338MOL0     H45614   6.984   4.430   9.877  3.0129 -0.0166 -1.7394
  338MOL0     H45615   7.208   4.480   9.892  0.2090  2.2033  0.3149
  338MOL0     H45616   8.957   5.035  10.513 -0.5658 -2.5902  0.0355
  338MOL0     H45617   9.171   5.138  10.564 -1.0859  0.6296  0.6007
  338MOL0     H45618   9.527   5.465  10.321  0.5175  0.2784  1.0026
  338MOL0     H45619   9.750   5.535  10.272 -0.2537 -0.6391 -2.7711
  338MOL0     H45620   9.973   5.572  10.215  1.7213  1.8294 -0.5377
  338MOL0     H45621  10.124   5.515  10.232 -0.8120  3.1480 -1.9628
  338MOL0     H45622  10.048   5.467   9.994 -2.4758  1.6872 -0.0258
  338MOL0     H45623   9.932   5.356  10.050 -0.1748 -1.0563  1.0792
  338MOL0     H45624  10.116   5.213   9.998 -0.7443 -3.2018  2.5862
  338MOL0     H45625  10.136   5.224  10.167 -1.9810 -0.0699 -0.4995
  338MOL0     H45626  10.357   5.271  10.042 -0.4972 -0.3583 -0.3020
  338MOL0     H45627  10.294   5.415  10.130 -1.6944  0.4357 -0.7450
  338MOL0     H45628  10.251   5.531   9.722 -1.1450 -0.7276 -0.6635
  338MOL0     H45629   9.902   5.147  10.402 -1.2526 -0.7967  2.2361
  338MOL0     H45630   9.684   5.076  10.450  1.8577  1.0393  1.7806
  339MOL0     O45631   8.210   8.874   8.004  0.0553 -0.0211  0.4551
  339MOL0     C45632   8.328   8.867   7.977 -0.3500  0.4960  0.5648
  339MOL0     O45633   8.411   8.754   7.972  1.2278 -0.3157 -1.1368
  339MOL0     C45634   8.347   8.638   8.018  0.1556  0.3088  0.1534
  339MOL0     C45635   8.327   8.542   7.921  0.1441 -0.1976 -0.0304
  339MOL0     C45636   8.250   8.433   7.958 -0.2349  1.0071  1.0236
  339MOL0     C45637   8.185   8.425   8.081 -0.4123  0.9199  0.0707
  339MOL0     O45638   8.091   8.323   8.112  0.5965  0.0312 -0.5518
  339MOL0     C45639   8.015   8.270   8.003  0.8135  0.3767 -0.7449
  339MOL0     C45640   7.887   8.195   8.054 -0.7432 -0.7356  0.0129
  339MOL0     C45641   7.772   8.290   8.102 -0.7711 -0.2622 -0.2128
  339MOL0     C45642   7.632   8.243   8.106 -0.4856 -0.1081  0.0443
  339MOL0     C45643   7.557   8.272   7.976  0.8489 -0.6030 -0.2686
  339MOL0     C45644   7.408   8.253   8.002  0.1774 -0.8177 -0.2929
  339MOL0     C45645   7.319   8.325   7.894  1.3095  0.1122  0.2511
  339MOL0     C45646   7.165   8.305   7.913  0.4084  0.1095  1.0005
  339MOL0     N45647   7.118   8.171   7.956  0.2169 -0.2633  0.7742
  339MOL0     C45648   7.100   8.131   8.088  0.5555  0.8512  0.9629
  339MOL0     C45649   7.048   8.006   8.082 -0.0227  0.0920  0.8135
  339MOL0     C45650   6.994   7.923   8.189  0.2531 -0.2321 -0.4802
  339MOL0     C45651   6.850   7.924   8.212  0.2085  0.6053  0.1482
  339MOL0     C45652   6.790   8.065   8.214 -0.3479  1.0700 -0.1433
  339MOL0     C45653   6.642   8.074   8.246  0.1046 -0.7583  0.1770
  339MOL0     O45654   6.615   8.029   8.373  0.2589  0.5178 -0.1042
  339MOL0     C45655   6.485   8.022   8.422 -0.4135  0.5294  1.1116
  339MOL0     C45656   6.466   7.946   8.535 -0.0707  0.2108 -0.0065
  339MOL0     C45657   6.348   7.937   8.603 -1.0982 -0.5191  0.3360
  339MOL0     C45658   6.353   7.837   8.720  0.2796 -1.1230 -0.5817
  339MOL0     C45659   6.230   8.004   8.546  0.3597  0.1477  0.6884
  339MOL0     C45660   6.104   8.006   8.619 -0.0745 -0.4094 -0.8801
  339MOL0     O45661   6.022   8.094   8.570 -0.1714  0.3007 -0.1139
  339MOL0     C45662   5.889   8.069   8.595  0.1985  0.0094  0.0652
  339MOL0     C45663   5.814   7.967   8.526  0.1490  0.1610 -0.4943
  339MOL0     C45664   5.673   7.971   8.538  0.2533 -0.2967 -0.3246
  339MOL0     C45665   5.611   8.059   8.629  0.5082 -0.6483  0.2019
  339MOL0     O45666   5.480   8.038   8.645 -0.0852 -0.1440 -0.5305
  339MOL0     C45667   5.449   7.978   8.774 -0.7898  0.0689  0.3119
  339MOL0     C45668   5.323   7.897   8.747  0.0896 -0.5147 -0.1752
  339MOL0     C45669   5.368   7.763   8.676  1.4508  0.5428 -0.5290
  339MOL0     C45670   5.229   7.684   8.632 -0.5298 -0.6617 -0.1409
  339MOL0     C45671   5.262   7.543   8.571  0.2667  0.9501 -0.1697
  339MOL0     C45672   5.340   7.460   8.674 -0.6658 -0.3727  0.6907
  339MOL0     C45673   5.326   7.310   8.656  0.5303 -0.4164 -0.0058
  339MOL0     C45674   5.370   7.246   8.523 -0.2476  0.0322 -0.5444
  339MOL0    Cl45675   5.527   7.311   8.477 -0.3527  0.0113 -0.0791
  339MOL0     C45676   5.685   8.155   8.696  0.2823  0.0156  0.2705
  339MOL0     C45677   5.825   8.162   8.673 -0.1444  0.2013 -0.6156
  339MOL0     O45678   6.077   7.916   8.701  0.0692 -0.9697  0.0074
  339MOL0     C45679   6.251   8.078   8.423 -0.6538  0.3455  0.0088
  339MOL0     C45680   6.378   8.100   8.368 -0.3112  0.8393 -0.2841
  339MOL0     N45681   7.048   7.965   7.944 -0.4504 -0.6301 -0.1697
  339MOL0     N45682   7.090   8.067   7.870  0.3792 -0.4486  0.2222
  339MOL0     C45683   8.216   8.518   8.180 -0.4589 -0.0572  0.5201
  339MOL0     C45684   8.295   8.625   8.144  0.3481  0.6355 -0.3369
  339MOL0     C45685   8.396   8.988   7.920  0.1471  0.6224 -1.0740
  339MOL0     C45686   8.529   8.984   7.868  0.2380  0.1770 -0.9309
  339MOL0     C45687   8.597   9.098   7.826  0.2325  0.4831 -0.3621
  339MOL0     C45688   8.553   9.226   7.863  0.5840  0.0337  0.4264
  339MOL0     O45689   8.627   9.336   7.837  0.3628 -0.5726 -1.1869
  339MOL0     C45690   8.719   9.322   7.728 -0.2215  0.1907 -0.9332
  339MOL0     C45691   8.763   9.451   7.654 -0.0884 -0.2167  0.1843
  339MOL0     C45692   8.807   9.576   7.743  0.0087  0.0331 -0.5663
  339MOL0     C45693   8.891   9.686   7.673 -0.3007 -0.3618  0.4969
  339MOL0     C45694   9.017   9.639   7.615 -0.8974 -1.2030  0.9105
  339MOL0     C45695   9.129   9.607   7.574  0.9181 -0.1445 -0.5342
  339MOL0     C45696   8.420   9.233   7.909 -0.0022 -0.6398  0.4557
  339MOL0     C45697   8.342   9.116   7.930  0.1887  0.0545  0.3289
  339MOL0     H45698   8.363   8.555   7.819  2.1710 -0.0930  0.6425
  339MOL0     H45699   8.231   8.354   7.886  4.4840  0.6950 -0.2098
  339MOL0     H45700   7.970   8.345   7.937 -4.7354 -0.4148  1.6465
  339MOL0     H45701   8.080   8.206   7.942  2.2020  0.3086  0.7550
  339MOL0     H45702   7.847   8.133   7.973  0.6021 -0.8768 -0.5691
  339MOL0     H45703   7.919   8.135   8.139  0.6362  2.2508  1.7784
  339MOL0     H45704   7.804   8.336   8.196 -1.6633  0.1577 -0.1109
  339MOL0     H45705   7.766   8.373   8.031 -2.4738 -0.3970 -0.2650
  339MOL0     H45706   7.624   8.138   8.135  1.1766 -0.8985 -2.1289
  339MOL0     H45707   7.588   8.302   8.187  1.3058  0.2554  0.7874
  339MOL0     H45708   7.565   8.369   7.926 -0.1390 -0.5108 -0.2695
  339MOL0     H45709   7.584   8.196   7.901 -3.6735 -1.9040 -0.8992
  339MOL0     H45710   7.385   8.148   8.019 -2.3611 -0.2472  0.2957
  339MOL0     H45711   7.378   8.307   8.093  0.8385 -1.2491  0.1856
  339MOL0     H45712   7.339   8.433   7.888 -2.8269  1.1279  1.8785
  339MOL0     H45713   7.335   8.271   7.800  1.2043 -0.0330  0.3176
  339MOL0     H45714   7.119   8.318   7.814 -1.0972 -0.3578  1.6116
  339MOL0     H45715   7.117   8.387   7.967 -0.9159  0.7881 -1.0866
  339MOL0     H45716   7.127   8.189   8.176  1.8688 -0.5399  1.5203
  339MOL0     H45717   7.039   7.823   8.184 -0.6173 -0.6682  0.1300
  339MOL0     H45718   7.029   7.976   8.278  0.5379  0.0851 -0.7807
  339MOL0     H45719   6.825   7.865   8.300  0.1747 -0.1827 -0.3765
  339MOL0     H45720   6.811   7.880   8.119  0.7010  1.5244 -0.5162
  339MOL0     H45721   6.797   8.107   8.114 -2.2940 -1.4947 -1.4928
  339MOL0     H45722   6.846   8.130   8.281 -1.0410  2.6594 -1.0539
  339MOL0     H45723   6.590   8.020   8.166 -2.2032  1.4667  0.0609
  339MOL0     H45724   6.610   8.178   8.238 -3.5129 -1.7096  0.5784
  339MOL0     H45725   6.553   7.894   8.574 -2.1910 -2.5426  1.5096
  339MOL0     H45726   6.453   7.820   8.760 -0.9855 -3.4051  1.9561
  339MOL0     H45727   6.294   7.863   8.809 -0.1550 -0.8942 -0.9336
  339MOL0     H45728   6.322   7.742   8.675  1.1538 -1.2440 -0.9499
  339MOL0     H45729   5.866   7.903   8.455 -0.8306  0.5272 -1.5634
  339MOL0     H45730   5.619   7.894   8.483  1.9307 -1.3434 -0.6044
  339MOL0     H45731   5.525   7.909   8.811  0.9759  1.4793 -0.5259
  339MOL0     H45732   5.441   8.051   8.855  0.1690 -1.9290  2.3284
  339MOL0     H45733   5.263   7.888   8.838 -0.9251 -2.4225 -0.9812
  339MOL0     H45734   5.256   7.942   8.673 -0.5100  0.8522  1.1516
  339MOL0     H45735   5.423   7.699   8.747  0.3822  0.1905  0.0038
  339MOL0     H45736   5.429   7.788   8.589  1.0941 -1.7780 -1.5173
  339MOL0     H45737   5.153   7.673   8.710 -0.8773  0.5045 -0.2834
  339MOL0     H45738   5.175   7.745   8.558 -0.2166  1.7308  1.4960
  339MOL0     H45739   5.316   7.551   8.477  0.6541 -0.3056 -0.0811
  339MOL0     H45740   5.165   7.492   8.559 -0.3422  1.4247  2.1821
  339MOL0     H45741   5.444   7.488   8.657 -0.7190 -0.4045  0.2906
  339MOL0     H45742   5.307   7.482   8.776  0.4619 -1.3733  1.3071
  339MOL0     H45743   5.222   7.280   8.669  0.8495 -2.1040 -1.1277
  339MOL0     H45744   5.373   7.258   8.739 -1.6896 -2.3995  0.1193
  339MOL0     H45745   5.295   7.283   8.452  0.7054  3.0992 -0.0926
  339MOL0     H45746   5.375   7.137   8.521  0.4326  0.0659 -2.1694
  339MOL0     H45747   5.641   8.215   8.776  1.0142 -0.1997  0.8457
  339MOL0     H45748   5.881   8.243   8.719  0.7616 -0.2672 -0.8627
  339MOL0     H45749   6.170   8.128   8.370 -1.1920 -1.7387 -1.2393
  339MOL0     H45750   6.393   8.173   8.288  2.2246  1.5133  0.7108
  339MOL0     H45751   8.172   8.505   8.279 -0.1845 -0.0742  0.6416
  339MOL0     H45752   8.320   8.697   8.221  1.2013 -2.2327  2.3023
  339MOL0     H45753   8.576   8.887   7.873 -0.2084  0.0038  1.5113
  339MOL0     H45754   8.699   9.084   7.790  0.5924 -0.9983  1.1321
  339MOL0     H45755   8.810   9.281   7.773 -0.2708 -0.0625 -1.0602
  339MOL0     H45756   8.673   9.270   7.644 -1.9313  1.6606 -0.9633
  339MOL0     H45757   8.687   9.494   7.588  1.4725  0.8919 -0.9630
  339MOL0     H45758   8.838   9.429   7.578  0.2141  0.7442  0.2038
  339MOL0     H45759   8.862   9.545   7.833  1.3528  0.8699 -1.0688
  339MOL0     H45760   8.716   9.625   7.778  1.6474  0.1106  4.3017
  339MOL0     H45761   8.921   9.769   7.738 -1.0067 -1.0613  1.7512
  339MOL0     H45762   8.827   9.723   7.592  0.2501  0.7201  0.5346
  339MOL0     H45763   9.226   9.578   7.538  1.2629 -1.6508  1.4259
  339MOL0     H45764   8.361   9.323   7.921 -1.2137 -1.3975  0.3852
  339MOL0     H45765   8.240   9.127   7.967  0.2037  1.7603 -0.0392
  340MOL0     O45766   3.524   0.109   2.539 -0.3273  0.3399 -0.6327
  340MOL0     C45767   3.524   0.220   2.587 -0.7885  0.1158 -0.2211
  340MOL0     O45768   3.420   0.296   2.629 -0.5525  0.0916  0.1173
  340MOL0     C45769   3.291   0.265   2.600  0.1657 -0.3047  0.7270
  340MOL0     C45770   3.201   0.373   2.620  0.4564 -0.0699  0.2822
  340MOL0     C45771   3.066   0.349   2.595 -1.1651 -0.8404 -0.2458
  340MOL0     C45772   3.014   0.223   2.565  0.7833 -0.4025 -0.3789
  340MOL0     O45773   2.877   0.195   2.558 -0.0526  0.0757  0.3579
  340MOL0     C45774   2.774   0.297   2.551 -0.1199  0.1738 -0.3242
  340MOL0     C45775   2.637   0.236   2.539 -0.4420  0.9986 -0.1178
  340MOL0     C45776   2.536   0.340   2.501  0.0274  0.4600 -0.0310
  340MOL0     C45777   2.394   0.281   2.501 -0.0247  0.4909  0.3435
  340MOL0     C45778   2.294   0.384   2.452 -0.1103 -0.4862 -0.0910
  340MOL0     C45779   2.154   0.347   2.496  0.3270 -0.2399  0.3577
  340MOL0     C45780   2.043   0.428   2.431 -0.1383  0.1908  1.0943
  340MOL0     C45781   2.059   0.579   2.438 -0.2386 -0.0089  0.4337
  340MOL0     N45782   1.928   0.628   2.447  0.1938 -1.0303  0.6411
  340MOL0     C45783   1.852   0.659   2.560  0.6422  0.1000  0.6321
  340MOL0     C45784   1.744   0.714   2.502 -0.9158 -0.6641 -0.1588
  340MOL0     C45785   1.626   0.780   2.566  0.7430 -0.5254 -0.0335
  340MOL0     C45786   1.513   0.678   2.557  0.7610  1.0551 -0.1970
  340MOL0     C45787   1.448   0.670   2.419 -0.3532  0.4663 -0.2410
  340MOL0     C45788   1.302   0.640   2.434 -0.6704 -0.3964 -0.2008
  340MOL0     O45789   1.246   0.654   2.311 -0.1419  0.3856  0.6286
  340MOL0     C45790   1.117   0.609   2.290  0.1813  0.4833  0.4846
  340MOL0     C45791   1.020   0.626   2.395 -1.3486  0.3810 -0.4150
  340MOL0     C45792   0.889   0.588   2.384 -0.0660  0.0702  0.1053
  340MOL0     C45793   0.801   0.596   2.512 -0.6028  0.3157  0.6606
  340MOL0     C45794   0.847   0.553   2.255  0.0478  0.5260 -0.1705
  340MOL0     C45795   0.703   0.535   2.226 -0.1496  0.3293  0.1331
  340MOL0     O45796   0.672   0.452   2.123  0.2117  0.0943  0.3540
  340MOL0     C45797   0.540   0.435   2.097 -0.2843  0.9396 -0.3631
  340MOL0     C45798   0.483   0.527   2.013 -0.1292  0.2362 -0.1881
  340MOL0     C45799   0.344   0.525   1.976  0.8384  0.0999 -0.0564
  340MOL0     C45800   0.262   0.422   2.027 -0.2495 -0.4249  0.6884
  340MOL0     O45801   0.132   0.416   1.984 -0.3583 -0.6063 -0.5454
  340MOL0     C45802   0.026   0.352   2.062 -1.3777  0.4330  0.3071
  340MOL0     C45803  -0.101   0.416   2.013 -0.8864  0.2010 -0.2198
  340MOL0     C45804  -0.142   0.365   1.879 -1.0813 -0.1424 -0.3231
  340MOL0     C45805  -0.259   0.444   1.821 -0.7759 -0.0416  0.7871
  340MOL0     C45806  -0.317   0.356   1.718  0.1019  0.4968  0.6189
  340MOL0     C45807  -0.423   0.436   1.639  0.2458  0.4443 -0.2819
  340MOL0     C45808  -0.528   0.342   1.587 -0.1262 -0.5365 -1.3492
  340MOL0     C45809  -0.651   0.407   1.530  0.5226  0.2851  0.3614
  340MOL0    Cl45810  -0.765   0.271   1.489 -0.2634 -0.2012 -0.2624
  340MOL0     C45811   0.320   0.329   2.114  0.5071  0.3314 -0.3237
  340MOL0     C45812   0.455   0.335   2.148  1.4768  0.5955  0.5616
  340MOL0     O45813   0.618   0.591   2.297 -0.0020  0.6344  0.2051
  340MOL0     C45814   0.934   0.544   2.140  0.1841 -0.5531  0.3756
  340MOL0     C45815   1.069   0.570   2.162  0.2855  0.5657 -0.3724
  340MOL0     N45816   1.754   0.708   2.362 -0.0481  0.2276 -0.1767
  340MOL0     N45817   1.860   0.658   2.332  0.7093 -0.2400 -0.1801
  340MOL0     C45818   3.099   0.118   2.561  0.0472  0.0369 -0.6310
  340MOL0     C45819   3.238   0.136   2.563 -0.8091 -0.0799 -0.5460
  340MOL0     C45820   3.659   0.276   2.610 -0.2465  0.0273 -0.9375
  340MOL0     C45821   3.774   0.207   2.596  0.4674 -0.6601 -0.3743
  340MOL0     C45822   3.900   0.256   2.639 -0.1349  0.1537 -0.4680
  340MOL0     C45823   3.906   0.384   2.702  1.3011 -0.3606 -0.7170
  340MOL0     O45824   4.028   0.436   2.734  0.1213 -0.5131  0.5084
  340MOL0     C45825   4.113   0.370   2.830  0.0241 -0.0852  0.7331
  340MOL0     C45826   4.256   0.372   2.780  0.0144 -0.1124 -0.0541
  340MOL0     C45827   4.344   0.297   2.869 -0.8079  0.1426 -0.1598
  340MOL0     C45828   4.488   0.282   2.802 -0.3794 -0.7362 -0.0625
  340MOL0     C45829   4.488   0.202   2.675 -0.0892  1.1502 -0.5350
  340MOL0     C45830   4.467   0.125   2.580  0.1923  0.0705  0.0612
  340MOL0     C45831   3.783   0.467   2.700 -0.4605  0.6627 -0.4292
  340MOL0     C45832   3.659   0.411   2.663  0.0557  0.1738  0.3471
  340MOL0     H45833   3.221   0.478   2.641  1.0071 -0.3851  1.3983
  340MOL0     H45834   3.003   0.436   2.609 -2.4839 -1.6261 -1.1161
  340MOL0     H45835   2.779   0.338   2.653  0.7948 -3.3069  1.1938
  340MOL0     H45836   2.790   0.380   2.482 -0.9813  0.7021  0.0892
  340MOL0     H45837   2.644   0.156   2.465 -0.0662  1.3015 -0.4116
  340MOL0     H45838   2.618   0.184   2.634  2.2550 -1.7188 -0.9153
  340MOL0     H45839   2.545   0.399   2.593  1.2083 -1.9367  1.5090
  340MOL0     H45840   2.575   0.397   2.416  0.5595  2.0128  1.1941
  340MOL0     H45841   2.391   0.186   2.447  2.5359  1.1785 -1.1807
  340MOL0     H45842   2.373   0.255   2.606  1.6022  1.0779  0.8416
  340MOL0     H45843   2.306   0.477   2.508  0.3978 -0.6713  0.1152
  340MOL0     H45844   2.297   0.417   2.347 -2.1445  1.1371  0.3004
  340MOL0     H45845   2.140   0.240   2.477  0.5173  0.1554 -2.4514
  340MOL0     H45846   2.141   0.360   2.604 -2.9983  0.5352 -0.0474
  340MOL0     H45847   2.038   0.399   2.325  3.0579  0.4282  0.7671
  340MOL0     H45848   1.951   0.407   2.485 -2.5111 -1.6042 -3.1482
  340MOL0     H45849   2.111   0.619   2.350 -1.4160 -0.2411 -0.3910
  340MOL0     H45850   2.123   0.609   2.521  2.9587 -2.9032 -0.7335
  340MOL0     H45851   1.880   0.657   2.665 -2.0461  1.7244  1.4655
  340MOL0     H45852   1.648   0.819   2.666  2.2396  1.2478 -0.9853
  340MOL0     H45853   1.597   0.868   2.507 -0.2113  0.6256  2.0604
  340MOL0     H45854   1.433   0.703   2.628 -1.8408 -2.3196 -1.6763
  340MOL0     H45855   1.555   0.582   2.588 -2.1192 -0.6098 -1.0990
  340MOL0     H45856   1.508   0.603   2.356  0.1918  3.3670 -3.0484
  340MOL0     H45857   1.464   0.761   2.360  1.4860  0.0326 -0.4945
  340MOL0     H45858   1.262   0.717   2.501  0.0704  0.6970 -0.9766
  340MOL0     H45859   1.290   0.539   2.474  2.2412 -1.3192 -1.4048
  340MOL0     H45860   1.057   0.659   2.491 -0.7143  2.2747 -1.2586
  340MOL0     H45861   0.722   0.521   2.506 -1.1823  0.9581  0.0343
  340MOL0     H45862   0.862   0.583   2.602 -0.9129  0.7473  0.9388
  340MOL0     H45863   0.746   0.690   2.520 -2.3163 -0.5501 -0.3869
  340MOL0     H45864   0.540   0.597   1.953  0.4652  0.1130  0.2335
  340MOL0     H45865   0.297   0.598   1.910  0.9265  1.0449  0.8907
  340MOL0     H45866   0.035   0.248   2.032 -1.8050  0.7984 -1.1848
  340MOL0     H45867   0.043   0.371   2.168 -1.3045  0.1832  0.3403
  340MOL0     H45868  -0.182   0.387   2.082  0.0430  0.0361  0.8338
  340MOL0     H45869  -0.099   0.523   2.031 -0.3527 -0.2744  3.4342
  340MOL0     H45870  -0.183   0.264   1.886  1.2254 -1.1205 -0.1570
  340MOL0     H45871  -0.051   0.362   1.820 -0.3598  1.0190  0.6760
  340MOL0     H45872  -0.328   0.468   1.903  0.7005  2.4560  1.4121
  340MOL0     H45873  -0.234   0.541   1.777 -0.9227 -0.7416 -0.8910
  340MOL0     H45874  -0.362   0.268   1.765  1.2921 -1.5975 -1.9553
  340MOL0     H45875  -0.236   0.325   1.651 -0.1457 -1.6994  1.2407
  340MOL0     H45876  -0.464   0.522   1.693  0.4529  0.5097 -0.2293
  340MOL0     H45877  -0.376   0.482   1.551  1.1550  0.2083  0.0734
  340MOL0     H45878  -0.566   0.286   1.673  1.0690  2.3757  1.2414
  340MOL0     H45879  -0.480   0.275   1.515 -0.1114 -0.4425 -1.4270
  340MOL0     H45880  -0.619   0.476   1.450  4.2775 -0.8519  0.6775
  340MOL0     H45881  -0.701   0.463   1.610  2.3919  1.4573  0.7709
  340MOL0     H45882   0.256   0.254   2.158 -1.1323  1.7805 -0.1524
  340MOL0     H45883   0.503   0.266   2.216 -0.4817 -0.8287  0.5705
  340MOL0     H45884   0.892   0.529   2.040 -1.6806 -1.3933  1.2305
  340MOL0     H45885   1.132   0.567   2.073  0.1389 -1.0688 -0.4398
  340MOL0     H45886   3.061   0.019   2.541  0.9019 -0.0295 -2.0660
  340MOL0     H45887   3.304   0.050   2.558  2.8264  2.3666  1.0203
  340MOL0     H45888   3.771   0.113   2.541 -1.2394 -1.0893  0.3794
  340MOL0     H45889   3.989   0.196   2.629  0.8463  1.8381 -2.7822
  340MOL0     H45890   4.101   0.419   2.927 -0.9225  1.1327  0.0252
  340MOL0     H45891   4.080   0.267   2.850 -2.6145 -0.2047 -3.0849
  340MOL0     H45892   4.283   0.478   2.768 -1.0349  0.0800 -0.9066
  340MOL0     H45893   4.270   0.324   2.683 -0.1331 -3.7399  1.5654
  340MOL0     H45894   4.310   0.200   2.906 -0.2599  0.1468  0.3779
  340MOL0     H45895   4.359   0.362   2.956  2.3394 -0.2890 -0.2492
  340MOL0     H45896   4.550   0.227   2.874  0.0214  1.4082  1.3317
  340MOL0     H45897   4.543   0.373   2.779 -0.5177 -0.8695 -0.9410
  340MOL0     H45898   4.450   0.059   2.497  0.8809  2.1809 -1.8688
  340MOL0     H45899   3.791   0.569   2.735  1.0998  1.3845 -2.6783
  340MOL0     H45900   3.570   0.472   2.672 -0.1743 -0.2660  1.1961
  341MOL0     O45901   5.531   5.578   3.172 -0.1337  0.0732  0.4126
  341MOL0     C45902   5.578   5.634   3.068 -0.0353  0.3859 -0.7808
  341MOL0     O45903   5.508   5.707   2.981  0.2140 -0.4225 -0.2247
  341MOL0     C45904   5.375   5.732   3.011  0.6564  0.7246 -0.7661
  341MOL0     C45905   5.316   5.793   3.125 -0.1859  0.2963 -0.1157
  341MOL0     C45906   5.184   5.844   3.113  0.4375  0.4563 -0.3746
  341MOL0     C45907   5.109   5.820   3.002  0.3474 -0.1279  0.1649
  341MOL0     O45908   4.976   5.867   3.011  0.8181 -0.0658  0.5743
  341MOL0     C45909   4.963   6.009   2.987  0.0645 -0.0920  0.4192
  341MOL0     C45910   4.825   6.022   2.925 -0.3510 -0.2886  0.4132
  341MOL0     C45911   4.798   6.166   2.900  0.5802  0.8128  0.5584
  341MOL0     C45912   4.656   6.191   2.853  0.5388 -0.3491 -0.7482
  341MOL0     C45913   4.622   6.341   2.848 -0.0082  0.4039  0.2926
  341MOL0     C45914   4.467   6.357   2.841  0.4108  0.0904 -0.7916
  341MOL0     C45915   4.430   6.495   2.790  0.4265  1.3963  0.1090
  341MOL0     C45916   4.280   6.509   2.771  0.4788 -0.5710 -0.5485
  341MOL0     N45917   4.243   6.640   2.722  0.2263  0.3941 -1.2162
  341MOL0     C45918   4.286   6.698   2.609  0.0573 -0.0600 -0.3446
  341MOL0     C45919   4.244   6.825   2.619 -0.3439  0.8959  0.6853
  341MOL0     C45920   4.262   6.925   2.506 -0.1088  0.6994 -0.0237
  341MOL0     C45921   4.127   6.984   2.439 -1.0510 -0.1012 -0.3877
  341MOL0     C45922   4.077   7.098   2.536 -0.0360  0.1020  0.0289
  341MOL0     C45923   3.953   7.175   2.483  0.0744  0.6465  0.6258
  341MOL0     O45924   3.967   7.237   2.357 -0.3646 -0.0356  0.0376
  341MOL0     C45925   3.865   7.321   2.324 -0.4468  0.5394 -0.0621
  341MOL0     C45926   3.875   7.390   2.204  0.7889 -0.0218  0.5835
  341MOL0     C45927   3.789   7.491   2.160 -0.1036 -0.5015  0.3061
  341MOL0     C45928   3.820   7.567   2.031 -0.8793 -0.0522  0.0686
  341MOL0     C45929   3.673   7.520   2.236  0.7667 -1.0757  0.3487
  341MOL0     C45930   3.572   7.631   2.209  0.3282 -0.4366 -0.1422
  341MOL0     O45931   3.498   7.664   2.318  0.9224  0.5097  0.2195
  341MOL0     C45932   3.395   7.752   2.303 -0.1533  0.1857  0.0261
  341MOL0     C45933   3.406   7.878   2.357  1.2419 -0.4948 -0.3129
  341MOL0     C45934   3.305   7.976   2.336  0.8027 -0.2847 -0.5934
  341MOL0     C45935   3.188   7.947   2.256 -0.2195 -0.0835  0.5673
  341MOL0     O45936   3.096   8.057   2.241 -0.1549 -0.3425  0.5536
  341MOL0     C45937   3.014   8.056   2.116 -0.5861  0.4054 -0.3169
  341MOL0     C45938   2.907   8.160   2.103 -0.0050 -1.8316  1.1156
  341MOL0     C45939   2.810   8.141   1.979  0.3462  1.1572 -0.5747
  341MOL0     C45940   2.763   8.266   1.912 -0.2723  0.8382  0.0988
  341MOL0     C45941   2.670   8.222   1.797 -0.4252  0.8684  0.3139
  341MOL0     C45942   2.540   8.300   1.813 -0.5626  0.2426 -0.6899
  341MOL0     C45943   2.463   8.252   1.692 -0.2487  0.7014 -0.2819
  341MOL0     C45944   2.317   8.305   1.672  0.0137 -0.4911  0.1126
  341MOL0    Cl45945   2.212   8.227   1.776  0.3138 -0.1676  0.3881
  341MOL0     C45946   3.185   7.820   2.202  0.0637 -0.1709  0.0881
  341MOL0     C45947   3.281   7.726   2.228 -0.5426  0.3664 -0.0390
  341MOL0     O45948   3.549   7.665   2.090  1.4118 -0.2983 -0.1673
  341MOL0     C45949   3.656   7.447   2.353  0.4460 -1.0117  0.1978
  341MOL0     C45950   3.744   7.348   2.392 -0.0142 -0.2935 -0.6784
  341MOL0     N45951   4.175   6.843   2.733 -0.4812  0.5753 -0.0406
  341MOL0     N45952   4.161   6.727   2.790  0.4507 -0.6904 -0.3262
  341MOL0     C45953   5.160   5.757   2.893 -0.0011  0.6657  0.0506
  341MOL0     C45954   5.292   5.711   2.898  0.0502  0.2946 -0.8122
  341MOL0     C45955   5.727   5.608   3.040 -0.1604 -0.5826 -0.4084
  341MOL0     C45956   5.777   5.633   2.910 -0.0117  0.2847  0.2093
  341MOL0     C45957   5.909   5.603   2.873  0.4589 -0.4471 -0.4485
  341MOL0     C45958   5.990   5.535   2.952 -1.3023 -0.0276 -0.3529
  341MOL0     O45959   6.114   5.507   2.895  0.1338  0.2022 -0.5991
  341MOL0     C45960   6.214   5.442   2.979  0.3641  0.1632  0.1938
  341MOL0     C45961   6.351   5.436   2.914 -0.1263  0.5291 -0.6179
  341MOL0     C45962   6.437   5.566   2.923  0.0198  0.9147  0.0082
  341MOL0     C45963   6.563   5.528   2.841  0.0123  0.5928  0.1797
  341MOL0     C45964   6.551   5.519   2.698 -0.0567 -0.5751  0.4446
  341MOL0     C45965   6.532   5.526   2.578 -0.8525 -1.0207 -0.0840
  341MOL0     C45966   5.947   5.500   3.079 -0.6797  0.7321 -0.6404
  341MOL0     C45967   5.814   5.535   3.124 -0.8612  0.1518  0.3412
  341MOL0     H45968   5.387   5.802   3.207 -0.2151  1.5817 -0.2055
  341MOL0     H45969   5.147   5.903   3.197  0.6470  0.6380 -0.4087
  341MOL0     H45970   4.973   6.058   3.084  0.8152 -0.3706  0.4890
  341MOL0     H45971   5.036   6.059   2.922 -0.5904  1.2235  0.6599
  341MOL0     H45972   4.824   5.975   2.826 -4.2767 -2.0357  1.1078
  341MOL0     H45973   4.752   5.969   2.987 -0.5395  0.4522  0.8408
  341MOL0     H45974   4.805   6.225   2.992  1.7228  0.9239  0.4175
  341MOL0     H45975   4.874   6.203   2.830 -0.6931  1.3324 -0.5792
  341MOL0     H45976   4.626   6.147   2.757 -1.6191 -1.2303  0.2595
  341MOL0     H45977   4.590   6.151   2.930  3.6803 -1.6096  1.4872
  341MOL0     H45978   4.665   6.387   2.938 -0.1548 -0.4185  0.7853
  341MOL0     H45979   4.659   6.385   2.754 -4.0837 -1.7708 -2.6300
  341MOL0     H45980   4.434   6.277   2.775  0.7351  0.6659 -1.6709
  341MOL0     H45981   4.430   6.345   2.943  0.0231  0.3337 -0.9029
  341MOL0     H45982   4.462   6.557   2.875 -1.0701  1.2629  0.8007
  341MOL0     H45983   4.485   6.512   2.697  1.2515 -3.2182 -0.4922
  341MOL0     H45984   4.239   6.501   2.872  1.5350 -1.7261 -0.1900
  341MOL0     H45985   4.229   6.428   2.718 -1.4690  0.8528 -0.9637
  341MOL0     H45986   4.341   6.655   2.526  1.4972  2.5656 -0.8809
  341MOL0     H45987   4.334   7.001   2.538  1.9540 -0.5766 -1.3905
  341MOL0     H45988   4.304   6.871   2.421  0.8680 -0.5919  1.2349
  341MOL0     H45989   4.055   6.902   2.431 -1.4246  0.0690  1.0097
  341MOL0     H45990   4.147   7.030   2.342  1.8283 -1.3539 -0.4962
  341MOL0     H45991   4.156   7.173   2.549 -2.4342  2.3354  3.6338
  341MOL0     H45992   4.053   7.054   2.634 -1.3638 -1.8820 -1.1186
  341MOL0     H45993   3.927   7.248   2.561 -1.7244  2.5050 -1.5737
  341MOL0     H45994   3.880   7.095   2.464 -0.6045  1.8134 -2.1465
  341MOL0     H45995   3.956   7.365   2.138 -0.7746  0.3071 -1.5657
  341MOL0     H45996   3.852   7.670   2.052 -1.9175  0.7951 -2.1358
  341MOL0     H45997   3.905   7.523   1.979 -0.3787  1.4572 -0.4296
  341MOL0     H45998   3.740   7.568   1.956 -1.0430  0.5476  0.2454
  341MOL0     H45999   3.502   7.898   2.406  0.4848 -1.6350  1.7868
  341MOL0     H46000   3.320   8.075   2.378 -2.9829  0.4452 -0.6178
  341MOL0     H46001   3.083   8.036   2.034  1.7641 -2.1397  2.0893
  341MOL0     H46002   2.947   7.970   2.126  3.2138 -2.6442  1.3263
  341MOL0     H46003   2.843   8.168   2.191  0.2717  3.4556  1.1598
  341MOL0     H46004   2.955   8.257   2.089 -2.3053 -0.5305  1.7356
  341MOL0     H46005   2.723   8.080   2.005  1.4991  0.0852  0.9274
  341MOL0     H46006   2.868   8.081   1.907  0.6033 -0.2411  0.7567
  341MOL0     H46007   2.721   8.332   1.988  0.9878  0.4860  1.1437
  341MOL0     H46008   2.849   8.313   1.863  0.6482  0.0880  0.9700
  341MOL0     H46009   2.654   8.114   1.792  2.4932  0.4070 -1.1054
  341MOL0     H46010   2.729   8.250   1.709  1.0795  0.5500  1.2033
  341MOL0     H46011   2.488   8.263   1.901  1.8730 -2.5717 -0.2644
  341MOL0     H46012   2.552   8.408   1.798 -1.0330  0.3642 -0.1967
  341MOL0     H46013   2.464   8.143   1.683  2.6752  0.6855 -0.7538
  341MOL0     H46014   2.512   8.288   1.601 -2.9702  1.3837 -1.5701
  341MOL0     H46015   2.284   8.278   1.571  0.8101 -0.6018 -0.1265
  341MOL0     H46016   2.304   8.410   1.698 -0.5243 -0.8284  1.2453
  341MOL0     H46017   3.108   7.773   2.142  0.1967 -2.8564  1.8066
  341MOL0     H46018   3.269   7.627   2.187 -0.1899  0.1329  0.4077
  341MOL0     H46019   3.562   7.442   2.408 -0.1739 -0.6025 -0.7868
  341MOL0     H46020   3.733   7.295   2.487  0.1785  0.5338 -0.1878
  341MOL0     H46021   5.105   5.729   2.804 -0.8219 -1.9795  1.2725
  341MOL0     H46022   5.340   5.667   2.811 -1.0476 -0.7241 -0.9232
  341MOL0     H46023   5.722   5.688   2.834  0.8588 -2.2175 -2.4147
  341MOL0     H46024   5.949   5.641   2.779  0.6828  0.8644  0.1644
  341MOL0     H46025   6.219   5.508   3.067 -1.0878  2.7502 -1.5181
  341MOL0     H46026   6.185   5.340   3.006  0.0824  1.3133  5.2124
  341MOL0     H46027   6.346   5.382   2.819  2.1487 -3.3668  1.2144
  341MOL0     H46028   6.408   5.368   2.978 -1.1548  0.5696  0.3809
  341MOL0     H46029   6.476   5.584   3.024  3.2523  1.3870 -1.1980
  341MOL0     H46030   6.382   5.651   2.881 -0.6582 -0.1401 -1.3077
  341MOL0     H46031   6.606   5.435   2.878  3.2066  2.3876  1.3431
  341MOL0     H46032   6.636   5.607   2.860 -0.2103  1.2488 -1.5330
  341MOL0     H46033   6.505   5.518   2.474  2.9217  2.4615 -1.6266
  341MOL0     H46034   6.019   5.449   3.142  0.1409  2.7293  0.0940
  341MOL0     H46035   5.777   5.522   3.225  1.8406 -1.4789  1.2389
  342MOL0     O46036   9.230   7.930   2.706  0.4603 -0.1517  0.5531
  342MOL0     C46037   9.244   7.811   2.739 -0.3546 -0.8091  0.2945
  342MOL0     O46038   9.142   7.721   2.739 -0.0560  0.4066 -0.1645
  342MOL0     C46039   9.018   7.757   2.697  0.4207 -0.0804  0.1638
  342MOL0     C46040   8.978   7.785   2.563  0.2093  0.0751 -0.0945
  342MOL0     C46041   8.844   7.815   2.530  0.0251 -0.3314  0.3403
  342MOL0     C46042   8.749   7.806   2.632 -0.3941  0.1884 -0.1115
  342MOL0     O46043   8.618   7.816   2.593 -0.3219 -0.4022 -0.7084
  342MOL0     C46044   8.504   7.772   2.679 -0.1625  0.8081  0.1428
  342MOL0     C46045   8.384   7.758   2.593  0.4378  0.7441 -0.6719
  342MOL0     C46046   8.343   7.605   2.578  0.7767 -0.5501  0.0552
  342MOL0     C46047   8.208   7.576   2.509  0.3557  0.6971  0.2424
  342MOL0     C46048   8.148   7.433   2.550 -0.3407 -0.5974 -0.0198
  342MOL0     C46049   8.032   7.402   2.466  0.0099 -0.6156  0.2764
  342MOL0     C46050   7.983   7.260   2.494  0.5023  0.2626 -1.2096
  342MOL0     C46051   7.850   7.271   2.578 -1.1384  0.2818  0.6198
  342MOL0     N46052   7.794   7.143   2.619  0.4254  0.0257  0.6890
  342MOL0     C46053   7.706   7.067   2.552 -0.3216  0.8861  0.1197
  342MOL0     C46054   7.687   6.957   2.628  0.4519 -0.2631 -0.2746
  342MOL0     C46055   7.597   6.854   2.588  0.5903  0.7056 -0.5889
  342MOL0     C46056   7.451   6.889   2.627 -0.7291  0.3327  0.4737
  342MOL0     C46057   7.352   6.785   2.562 -0.3088 -1.5035 -0.1031
  342MOL0     C46058   7.205   6.832   2.603 -0.4764  1.2473 -0.1384
  342MOL0     O46059   7.131   6.733   2.549  0.1923  0.5206 -0.1238
  342MOL0     C46060   6.997   6.739   2.559  0.0127  0.4461  0.8686
  342MOL0     C46061   6.918   6.844   2.599 -0.7687  0.4414 -1.1740
  342MOL0     C46062   6.786   6.850   2.617  0.6395  0.2888 -0.2024
  342MOL0     C46063   6.710   6.977   2.668 -0.2621 -0.0039  0.3733
  342MOL0     C46064   6.713   6.727   2.593 -1.3036 -0.1593 -0.4281
  342MOL0     C46065   6.576   6.717   2.601  0.2647 -0.8308 -0.4279
  342MOL0     O46066   6.501   6.816   2.549  0.5858 -1.0445  0.0571
  342MOL0     C46067   6.366   6.795   2.563  0.5028  0.9590 -0.6383
  342MOL0     C46068   6.277   6.747   2.465  0.1288 -0.4462 -0.3629
  342MOL0     C46069   6.135   6.742   2.487 -0.1920 -0.6249  1.1993
  342MOL0     C46070   6.087   6.797   2.604  0.0786 -0.3015  0.2430
  342MOL0     O46071   5.955   6.808   2.627  0.7102  0.8110  0.1215
  342MOL0     C46072   5.893   6.918   2.561 -0.0199  0.2455  0.3474
  342MOL0     C46073   5.819   6.883   2.427  0.3044 -0.2291 -0.5315
  342MOL0     C46074   5.705   6.978   2.379 -0.0378  0.9265  0.1209
  342MOL0     C46075   5.659   6.957   2.235  0.2907 -0.2268 -0.1550
  342MOL0     C46076   5.520   7.015   2.206 -0.9582 -0.1955 -0.8996
  342MOL0     C46077   5.486   6.995   2.052  0.2305 -0.4049  0.4746
  342MOL0     C46078   5.332   7.005   2.023  0.6479  0.1764 -1.1706
  342MOL0     C46079   5.317   6.999   1.868  0.6669  0.1199 -0.5372
  342MOL0    Cl46080   5.137   7.004   1.828 -0.0550  0.0470 -0.0160
  342MOL0     C46081   6.172   6.843   2.709 -0.9453  0.4428  0.8773
  342MOL0     C46082   6.310   6.842   2.686  1.0756  0.0309 -0.0407
  342MOL0     O46083   6.531   6.623   2.667  0.0865 -0.2237 -0.2488
  342MOL0     C46084   6.785   6.610   2.570 -0.0618  0.5296 -0.6331
  342MOL0     C46085   6.923   6.617   2.547 -0.7191 -0.6676  0.1690
  342MOL0     N46086   7.769   6.972   2.743  0.2159 -0.2770  0.0091
  342MOL0     N46087   7.826   7.092   2.735 -0.3888 -0.2666 -0.9087
  342MOL0     C46088   8.786   7.767   2.770 -0.6089  0.3028 -0.2882
  342MOL0     C46089   8.917   7.738   2.797 -0.0366  0.1882  0.3617
  342MOL0     C46090   9.377   7.757   2.769  0.2271 -0.6481  0.8721
  342MOL0     C46091   9.490   7.849   2.742  0.1063  0.6737  0.4093
  342MOL0     C46092   9.620   7.799   2.769 -0.3433  0.0609  0.6494
  342MOL0     C46093   9.645   7.674   2.810  0.1610  0.3888 -0.3703
  342MOL0     O46094   9.777   7.643   2.830  0.8429 -0.6158  0.4073
  342MOL0     C46095   9.821   7.507   2.804  0.0199 -0.0692  0.3438
  342MOL0     C46096   9.965   7.500   2.760 -0.9028  0.4132 -0.4731
  342MOL0     C46097   9.995   7.607   2.654 -0.5960 -0.0899 -0.5566
  342MOL0     C46098  10.126   7.577   2.585  0.3922  1.1717 -0.2167
  342MOL0     C46099  10.142   7.699   2.504  0.2705  0.5180 -0.5133
  342MOL0     C46100  10.162   7.787   2.423 -0.3752 -0.3401 -0.1868
  342MOL0     C46101   9.533   7.585   2.831 -0.4391 -0.6697  0.9672
  342MOL0     C46102   9.402   7.627   2.804 -0.6080 -0.2094  0.0974
  342MOL0     H46103   9.060   7.794   2.493  1.7064  2.7982  1.8343
  342MOL0     H46104   8.799   7.834   2.433  0.4232 -0.4997  0.1186
  342MOL0     H46105   8.518   7.672   2.723 -0.7363  0.3663 -0.6501
  342MOL0     H46106   8.487   7.847   2.757  1.5555  3.2404 -1.6677
  342MOL0     H46107   8.306   7.816   2.644  1.2312  0.1210  1.3261
  342MOL0     H46108   8.397   7.812   2.498 -1.7659 -1.0915 -2.1334
  342MOL0     H46109   8.427   7.556   2.528  0.7774  0.2970 -0.7920
  342MOL0     H46110   8.338   7.560   2.678  2.6250 -2.1288 -0.5177
  342MOL0     H46111   8.129   7.642   2.546  0.7668  0.7451  1.0808
  342MOL0     H46112   8.221   7.585   2.401  0.9514  0.6809  0.3076
  342MOL0     H46113   8.231   7.363   2.533  0.3383  0.2118 -0.1409
  342MOL0     H46114   8.129   7.429   2.657  2.9141 -0.0348  0.7048
  342MOL0     H46115   7.952   7.473   2.488  1.1475  0.7175  0.2378
  342MOL0     H46116   8.050   7.403   2.359 -1.5913  2.0600 -0.0431
  342MOL0     H46117   7.959   7.201   2.405  0.2526  0.0180 -0.9812
  342MOL0     H46118   8.068   7.207   2.538  1.2678  2.9470  0.8075
  342MOL0     H46119   7.774   7.315   2.513 -0.4985  0.7491  0.1708
  342MOL0     H46120   7.872   7.333   2.665  0.2018 -0.6549  0.9912
  342MOL0     H46121   7.665   7.079   2.452  2.9759 -0.7441 -1.5686
  342MOL0     H46122   7.603   6.833   2.481 -0.5981  2.3463 -1.0199
  342MOL0     H46123   7.632   6.761   2.633  0.2388  0.1411 -1.4621
  342MOL0     H46124   7.433   6.992   2.596 -1.4935  0.3320  0.8762
  342MOL0     H46125   7.442   6.883   2.736  1.0368 -0.4481  0.6015
  342MOL0     H46126   7.379   6.687   2.602 -0.6306 -0.6468  2.4075
  342MOL0     H46127   7.366   6.780   2.454 -2.2739  0.0712 -0.4827
  342MOL0     H46128   7.175   6.930   2.564  2.4878  2.0749 -0.6376
  342MOL0     H46129   7.193   6.838   2.712  0.3276  3.3676 -0.1119
  342MOL0     H46130   6.974   6.935   2.619 -1.6405  0.6649  0.3693
  342MOL0     H46131   6.629   6.963   2.739  1.4742  0.8640  2.6468
  342MOL0     H46132   6.785   7.023   2.733  0.3387 -2.4824  1.5504
  342MOL0     H46133   6.692   7.048   2.587  0.1532 -1.2367 -0.8332
  342MOL0     H46134   6.323   6.716   2.372 -0.6669 -1.3127 -0.4862
  342MOL0     H46135   6.056   6.716   2.416  0.2114  1.1944  0.0104
  342MOL0     H46136   5.818   6.953   2.633 -0.0462 -0.3615  0.6166
  342MOL0     H46137   5.960   7.003   2.544 -0.1600  0.1347 -0.8408
  342MOL0     H46138   5.895   6.871   2.350  1.3487 -0.2183  0.4688
  342MOL0     H46139   5.775   6.785   2.451 -0.0971  0.6837  3.1136
  342MOL0     H46140   5.724   7.086   2.377 -3.6022  1.6815 -2.2881
  342MOL0     H46141   5.614   6.957   2.436  0.9154 -1.0721  1.0078
  342MOL0     H46142   5.736   7.009   2.178 -0.7641  1.7473  0.1309
  342MOL0     H46143   5.658   6.851   2.208 -0.0018 -0.7693  1.7971
  342MOL0     H46144   5.514   7.122   2.231 -0.9148 -0.3060 -0.4188
  342MOL0     H46145   5.446   6.955   2.259  1.2672 -2.3852 -0.1064
  342MOL0     H46146   5.543   7.070   1.996 -1.9352  1.3725  0.5276
  342MOL0     H46147   5.516   6.893   2.025 -2.7528 -1.2717  0.1374
  342MOL0     H46148   5.288   7.099   2.056  2.7016  1.3310 -1.5188
  342MOL0     H46149   5.282   6.915   2.059  0.4112  0.8538  0.2801
  342MOL0     H46150   5.360   6.907   1.827 -1.6412 -1.7483  0.9864
  342MOL0     H46151   5.365   7.093   1.838  2.0265  0.0747  1.3169
  342MOL0     H46152   6.134   6.877   2.805  1.6790 -0.0298  2.1899
  342MOL0     H46153   6.381   6.837   2.767  3.6886  1.5806 -2.0681
  342MOL0     H46154   6.741   6.512   2.555  0.8379  0.0003  0.0217
  342MOL0     H46155   6.966   6.520   2.521  1.7489  0.3215  0.2756
  342MOL0     H46156   8.710   7.762   2.847  0.0684 -0.4143  0.3560
  342MOL0     H46157   8.946   7.707   2.897 -1.3251 -0.1295  0.6553
  342MOL0     H46158   9.492   7.953   2.711  0.3092 -0.1580 -2.7548
  342MOL0     H46159   9.702   7.864   2.739 -1.6540  2.1555  1.3676
  342MOL0     H46160   9.806   7.456   2.899  3.9443  0.3363  1.3454
  342MOL0     H46161   9.761   7.463   2.723  2.6491  0.2136 -1.9188
  342MOL0     H46162   9.987   7.396   2.734 -0.5015 -0.5133  3.0227
  342MOL0     H46163  10.039   7.517   2.839  1.1403  3.4190 -2.7839
  342MOL0     H46164   9.998   7.700   2.713  2.4606 -0.3840 -0.0614
  342MOL0     H46165   9.914   7.611   2.581  0.2401  1.3383 -1.4609
  342MOL0     H46166  10.122   7.488   2.521  2.6277  1.3307 -0.6632
  342MOL0     H46167  10.214   7.582   2.649  1.3884 -0.0816 -1.4311
  342MOL0     H46168  10.184   7.863   2.351 -0.8581 -0.4186 -0.4179
  342MOL0     H46169   9.538   7.484   2.870  1.2018 -0.6333  0.8924
  342MOL0     H46170   9.320   7.564   2.838  0.3983 -1.6453 -0.0455
  343MOL0     O46171   6.759   3.424  11.157  0.0443  0.2023 -0.0250
  343MOL0     C46172   6.871   3.393  11.203  0.0231  0.8072  0.6740
  343MOL0     O46173   6.896   3.281  11.282  0.0459 -0.0404 -0.2440
  343MOL0     C46174   6.796   3.206  11.338 -0.1610  0.8286  0.0358
  343MOL0     C46175   6.662   3.244  11.361 -0.1928  0.4163 -0.1494
  343MOL0     C46176   6.563   3.149  11.392 -0.0269  0.1705  0.6480
  343MOL0     C46177   6.600   3.021  11.408  0.2633 -0.1276  0.9120
  343MOL0     O46178   6.488   2.934  11.421 -0.4990 -0.6048 -0.2918
  343MOL0     C46179   6.503   2.793  11.452  0.4721 -0.4406 -0.0945
  343MOL0     C46180   6.367   2.723  11.450 -0.1982 -0.0668 -0.1403
  343MOL0     C46181   6.290   2.717  11.590 -0.5091 -0.2605  0.2984
  343MOL0     C46182   6.279   2.856  11.653  0.3737  0.0514  0.4471
  343MOL0     C46183   6.209   2.840  11.790  0.6307 -0.0743  0.4608
  343MOL0     C46184   6.185   2.965  11.864  0.4548 -0.1665  0.4353
  343MOL0     C46185   6.062   3.052  11.821 -0.1454 -0.0637  0.0726
  343MOL0     C46186   6.050   3.171  11.922 -0.1030  0.0980  0.0000
  343MOL0     N46187   5.931   3.250  11.914  0.1611  0.2454  1.0806
  343MOL0     C46188   5.893   3.340  11.829  0.2971 -0.5723  0.3843
  343MOL0     C46189   5.765   3.387  11.861  0.2197 -1.0369  0.6700
  343MOL0     C46190   5.702   3.508  11.793 -0.1024  0.0014 -0.1888
  343MOL0     C46191   5.546   3.518  11.798  0.1238  0.2483  0.0140
  343MOL0     C46192   5.484   3.398  11.726  0.1997 -0.4601 -0.0082
  343MOL0     C46193   5.337   3.421  11.706  0.7302  1.0494 -0.5287
  343MOL0     O46194   5.267   3.383  11.829 -0.9769 -0.0900 -0.3933
  343MOL0     C46195   5.138   3.418  11.837  0.6190 -0.3744  0.6116
  343MOL0     C46196   5.056   3.466  11.730  0.2797 -0.6287  0.0832
  343MOL0     C46197   4.913   3.476  11.757 -0.0167  0.3663 -0.2696
  343MOL0     C46198   4.830   3.534  11.647 -0.0412  0.1127  0.0533
  343MOL0     C46199   4.848   3.429  11.874 -0.1176  0.1352  0.1049
  343MOL0     C46200   4.705   3.391  11.899  0.0342 -0.7410  0.2719
  343MOL0     O46201   4.675   3.337  12.020  0.7429  0.1157 -0.5554
  343MOL0     C46202   4.544   3.306  12.040 -0.1167  0.4089  0.5655
  343MOL0     C46203   4.471   3.191  11.988 -0.1282  0.0341 -0.1119
  343MOL0     C46204   4.336   3.179  12.029 -0.2129  0.5032  0.0551
  343MOL0     C46205   4.272   3.263  12.112  0.1424  0.6232  0.2870
  343MOL0     O46206   4.133   3.259  12.136 -0.1301 -0.1653 -0.3023
  343MOL0     C46207   4.049   3.176  12.058 -0.4364  0.2417  0.2037
  343MOL0     C46208   3.906   3.202  12.093  1.1673 -0.0900  0.2971
  343MOL0     C46209   3.804   3.092  12.047  0.8183  0.2741 -0.3640
  343MOL0     C46210   3.667   3.120  12.133 -0.2327  0.0847  0.4480
  343MOL0     C46211   3.571   2.998  12.113 -0.5527  0.0812 -0.5597
  343MOL0     C46212   3.599   2.873  12.198  0.3263 -0.0210 -0.3403
  343MOL0     C46213   3.494   2.764  12.166  0.1533  0.5581 -0.1668
  343MOL0     C46214   3.440   2.689  12.287 -0.0280  0.5725  0.2003
  343MOL0    Cl46215   3.371   2.809  12.405  0.0011 -0.2952 -0.2063
  343MOL0     C46216   4.351   3.357  12.171  0.2410  0.0015 -0.6493
  343MOL0     C46217   4.488   3.374  12.145  0.4034 -0.7560  0.5745
  343MOL0     O46218   4.622   3.424  11.812  0.6089 -0.6977  0.8555
  343MOL0     C46219   4.939   3.374  11.973 -0.9276 -0.0386  0.4241
  343MOL0     C46220   5.078   3.373  11.954 -0.1164 -0.3850  0.1597
  343MOL0     N46221   5.725   3.317  11.971  0.5697 -0.4713 -0.1516
  343MOL0     N46222   5.821   3.232  11.995  0.1242 -0.6453  0.5550
  343MOL0     C46223   6.728   2.983  11.389  0.6766  0.5148  0.1935
  343MOL0     C46224   6.826   3.070  11.356  1.1864  0.7452 -0.1451
  343MOL0     C46225   6.981   3.487  11.161 -0.1610  0.7333 -0.0778
  343MOL0     C46226   7.112   3.466  11.207 -0.0242  0.6796  0.9548
  343MOL0     C46227   7.211   3.557  11.176 -0.2309  0.8534  0.0736
  343MOL0     C46228   7.202   3.659  11.093  0.8913 -0.2118 -0.5740
  343MOL0     O46229   7.308   3.722  11.035 -0.9254  0.1171 -0.2481
  343MOL0     C46230   7.445   3.692  11.081 -0.3252 -0.2096 -0.0120
  343MOL0     C46231   7.544   3.776  10.993  0.0665 -0.1580  0.5278
  343MOL0     C46232   7.676   3.790  11.069  0.3828 -0.0224 -0.3732
  343MOL0     C46233   7.792   3.817  10.984 -0.6545 -0.8108  0.0559
  343MOL0     C46234   7.909   3.837  11.073 -0.1524  0.5849 -0.1785
  343MOL0     C46235   8.001   3.857  11.147  0.3393 -0.4117 -0.2894
  343MOL0     C46236   7.071   3.681  11.047 -1.2998 -0.0630  1.4887
  343MOL0     C46237   6.958   3.608  11.089 -0.1576  0.0381 -0.0344
  343MOL0     H46238   6.637   3.347  11.336  0.8835  0.6760 -0.2211
  343MOL0     H46239   6.461   3.186  11.402  0.3178  1.8869 -1.4218
  343MOL0     H46240   6.568   2.751  11.374  1.0714  0.1614  0.0729
  343MOL0     H46241   6.555   2.778  11.547 -2.4748  0.5089  1.7880
  343MOL0     H46242   6.295   2.766  11.380 -0.7233  1.9134  1.5189
  343MOL0     H46243   6.383   2.621  11.413 -2.7729 -0.0657 -1.5246
  343MOL0     H46244   6.192   2.670  11.575 -1.4173  2.0388 -1.6022
  343MOL0     H46245   6.351   2.648  11.649  0.0599  1.1819  1.4679
  343MOL0     H46246   6.368   2.916  11.670 -2.0933  3.4104  2.9181
  343MOL0     H46247   6.218   2.920  11.587  1.9300 -0.6019 -1.7313
  343MOL0     H46248   6.112   2.791  11.780  0.5874  0.1237 -0.1603
  343MOL0     H46249   6.270   2.774  11.852 -2.0859 -3.6153 -0.3783
  343MOL0     H46250   6.166   2.951  11.971  0.7661  0.6970  0.6108
  343MOL0     H46251   6.276   3.025  11.859  2.4838 -3.0857 -3.1250
  343MOL0     H46252   6.072   3.086  11.717  0.4242 -3.1767 -0.9988
  343MOL0     H46253   5.976   2.987  11.839  1.7016 -2.3764  1.0750
  343MOL0     H46254   6.134   3.236  11.897  0.6663 -1.2598 -1.0586
  343MOL0     H46255   6.054   3.136  12.026  0.0573  1.3452  0.4288
  343MOL0     H46256   5.953   3.374  11.745  2.0139 -0.8888  1.4319
  343MOL0     H46257   5.752   3.593  11.841  3.6445 -2.1354  0.0997
  343MOL0     H46258   5.749   3.511  11.694  3.6307 -0.6227  1.3870
  343MOL0     H46259   5.507   3.608  11.750  0.5957 -0.2588 -1.3731
  343MOL0     H46260   5.522   3.507  11.904 -0.3594  0.1093 -0.1065
  343MOL0     H46261   5.498   3.316  11.797  0.8628 -0.8250 -0.5466
  343MOL0     H46262   5.545   3.393  11.635  1.1792  2.4478  0.3642
  343MOL0     H46263   5.305   3.358  11.623 -0.2951  0.9593 -0.0842
  343MOL0     H46264   5.313   3.525  11.682 -0.9238  0.7598 -0.2600
  343MOL0     H46265   5.108   3.502  11.642  1.8919  0.1437  1.3016
  343MOL0     H46266   4.766   3.611  11.691 -0.1954  0.3702 -0.6254
  343MOL0     H46267   4.904   3.579  11.581  1.2791 -0.1958  1.2662
  343MOL0     H46268   4.776   3.452  11.599 -0.0995  0.4844 -0.5175
  343MOL0     H46269   4.514   3.121  11.918 -1.2989 -0.4334 -0.3846
  343MOL0     H46270   4.280   3.097  11.985  0.7372  0.4043 -1.0173
  343MOL0     H46271   4.064   3.200  11.952 -3.5574  1.3149 -0.1243
  343MOL0     H46272   4.061   3.070  12.078 -1.4943 -0.0045 -0.3674
  343MOL0     H46273   3.897   3.214  12.202 -0.0911  0.7871  0.1181
  343MOL0     H46274   3.871   3.295  12.047 -1.9551 -1.6458 -0.8045
  343MOL0     H46275   3.840   2.991  12.067 -1.5014 -0.3501  0.9756
  343MOL0     H46276   3.776   3.102  11.941 -1.8702  1.3206  0.3506
  343MOL0     H46277   3.678   3.147  12.238 -1.8007  1.0943  0.3894
  343MOL0     H46278   3.614   3.209  12.095 -3.4869 -1.6608  0.4994
  343MOL0     H46279   3.579   2.963  12.010  0.3245  1.4415 -0.9742
  343MOL0     H46280   3.475   3.045  12.137  0.5011  1.4161  1.2972
  343MOL0     H46281   3.700   2.832  12.190  0.4897 -0.4725  2.8075
  343MOL0     H46282   3.599   2.905  12.303  0.6477  0.5722 -0.5146
  343MOL0     H46283   3.538   2.695  12.094 -0.4308 -0.5793  0.5358
  343MOL0     H46284   3.408   2.818  12.125 -0.6040 -1.5739 -1.5746
  343MOL0     H46285   3.509   2.623  12.340 -2.1523 -1.0428  1.1081
  343MOL0     H46286   3.356   2.628  12.252  0.4972 -0.4942  0.7504
  343MOL0     H46287   4.308   3.416  12.251 -3.6708 -0.4386 -2.1893
  343MOL0     H46288   4.534   3.442  12.216  0.6454  0.7137 -0.9216
  343MOL0     H46289   4.903   3.320  12.060  0.4028 -3.7892 -1.1482
  343MOL0     H46290   5.150   3.333  12.025 -1.9806 -0.8370  1.8888
  343MOL0     H46291   6.755   2.878  11.386 -0.8018 -0.0612  3.0611
  343MOL0     H46292   6.927   3.032  11.343  1.7655  2.1968 -0.0622
  343MOL0     H46293   7.142   3.388  11.276  4.2512  0.3637 -0.9000
  343MOL0     H46294   7.311   3.541  11.213  0.3040  1.7894 -0.8988
  343MOL0     H46295   7.456   3.730  11.183 -0.3360 -1.4933  0.4805
  343MOL0     H46296   7.475   3.587  11.076  1.9741  0.3714  0.1526
  343MOL0     H46297   7.506   3.875  10.966  0.4766 -0.4191 -1.1024
  343MOL0     H46298   7.550   3.717  10.901 -2.4278 -1.3556  1.0732
  343MOL0     H46299   7.693   3.698  11.126 -2.3951  0.4019  1.3213
  343MOL0     H46300   7.664   3.871  11.143 -1.2165  0.2038 -0.8405
  343MOL0     H46301   7.772   3.899  10.915 -1.0855  0.0435  1.1849
  343MOL0     H46302   7.815   3.725  10.929  2.4868  0.5084 -1.0678
  343MOL0     H46303   8.080   3.884  11.214  0.4337  0.2315 -0.6510
  343MOL0     H46304   7.056   3.756  10.970  0.8965 -1.4471 -0.4159
  343MOL0     H46305   6.857   3.636  11.062 -0.0083 -1.2527 -2.1028
  344MOL0     O46306   3.219   8.251   8.744  0.7784  0.1464 -0.4054
  344MOL0     C46307   3.219   8.150   8.672 -1.0215  0.3706 -0.5081
  344MOL0     O46308   3.118   8.101   8.616  0.2236 -0.3129  0.1203
  344MOL0     C46309   2.987   8.151   8.636 -0.8996 -0.1819 -0.2797
  344MOL0     C46310   2.931   8.186   8.756  0.5658 -0.9772  0.3967
  344MOL0     C46311   2.794   8.196   8.763  0.4015 -0.8559  0.6588
  344MOL0     C46312   2.712   8.180   8.657  0.8974 -0.6941  0.1448
  344MOL0     O46313   2.578   8.205   8.684  0.4699 -0.1962 -0.7601
  344MOL0     C46314   2.485   8.102   8.638  0.2698 -0.7765  0.6625
  344MOL0     C46315   2.340   8.154   8.634  0.0336  0.1567 -0.1309
  344MOL0     C46316   2.303   8.218   8.497  0.4064  0.0743  0.6265
  344MOL0     C46317   2.168   8.292   8.513 -0.2400 -0.1131  0.0420
  344MOL0     C46318   2.133   8.364   8.383  0.7955 -0.3899  0.2386
  344MOL0     C46319   2.012   8.461   8.405  0.7433  0.5801 -0.1039
  344MOL0     C46320   2.054   8.587   8.463  0.6988 -0.0673  0.4435
  344MOL0     C46321   1.935   8.682   8.506  0.1060  0.0755  0.4079
  344MOL0     N46322   1.979   8.819   8.494 -0.0439 -0.2519 -0.5623
  344MOL0     C46323   2.057   8.892   8.593  0.2494  0.1873 -0.1090
  344MOL0     C46324   2.081   9.014   8.536  0.0386  0.3723  0.4234
  344MOL0     C46325   2.142   9.135   8.592 -0.6331  0.0485  0.2699
  344MOL0     C46326   2.041   9.252   8.590 -0.9954  0.3303 -0.2836
  344MOL0     C46327   2.115   9.379   8.609  1.0087  0.7584  0.0815
  344MOL0     C46328   2.197   9.387   8.736 -0.0885 -0.4615  0.0465
  344MOL0     O46329   2.120   9.347   8.844  0.2167 -0.2235 -0.3864
  344MOL0     C46330   2.198   9.305   8.956 -0.1413  0.3971  0.4523
  344MOL0     C46331   2.130   9.263   9.070  0.2897 -0.8235 -0.2411
  344MOL0     C46332   2.182   9.233   9.197 -0.9341 -0.0441 -0.2124
  344MOL0     C46333   2.089   9.214   9.310  0.2970 -0.0673 -0.4110
  344MOL0     C46334   2.322   9.227   9.210  0.3944  0.3826  0.2823
  344MOL0     C46335   2.402   9.200   9.336 -0.4253  0.0697  0.1817
  344MOL0     O46336   2.533   9.162   9.314  0.3301 -0.1998  0.5341
  344MOL0     C46337   2.635   9.165   9.404  0.1050 -0.8462  0.0912
  344MOL0     C46338   2.750   9.089   9.381 -0.0076 -0.9448 -0.1312
  344MOL0     C46339   2.859   9.089   9.472  0.9940 -0.2613 -0.1015
  344MOL0     C46340   2.863   9.183   9.577  0.8623 -0.0961  0.1161
  344MOL0     O46341   2.970   9.208   9.654  1.0367  0.1183 -0.5259
  344MOL0     C46342   3.066   9.104   9.668  0.4035  0.2272 -0.2775
  344MOL0     C46343   3.175   9.154   9.758 -0.1329  0.4996 -0.1804
  344MOL0     C46344   3.257   9.030   9.813  0.0240 -0.2570 -0.0424
  344MOL0     C46345   3.372   9.071   9.902 -0.1756 -0.8192 -0.0255
  344MOL0     C46346   3.504   9.119   9.823  0.6623  0.1746 -0.5036
  344MOL0     C46347   3.595   9.189   9.924 -0.4710 -0.5163  0.6688
  344MOL0     C46348   3.676   9.077   9.993 -0.4202 -0.1873  0.2459
  344MOL0     C46349   3.772   9.130  10.100  0.1990 -0.0264  0.1517
  344MOL0    Cl46350   3.919   9.174  10.021  0.2339  0.2725 -0.1467
  344MOL0     C46351   2.751   9.260   9.603  0.8322 -0.3920 -0.4643
  344MOL0     C46352   2.632   9.242   9.518 -0.0959  0.3062 -0.0979
  344MOL0     O46353   2.356   9.211   9.451 -0.1579 -0.7588  0.1857
  344MOL0     C46354   2.393   9.242   9.088  0.7649 -0.0515  0.0582
  344MOL0     C46355   2.342   9.285   8.963  0.3110  0.4186  0.4464
  344MOL0     N46356   2.031   9.008   8.396  0.5898  0.3546 -0.6366
  344MOL0     N46357   1.969   8.899   8.383 -0.0299 -0.2629  0.4905
  344MOL0     C46358   2.772   8.151   8.532  0.2515  0.0708  0.2418
  344MOL0     C46359   2.908   8.131   8.524  0.4063  0.1048  0.3233
  344MOL0     C46360   3.344   8.070   8.671  0.1676 -0.2204 -0.4348
  344MOL0     C46361   3.471   8.121   8.709 -0.1647  0.1404 -1.5150
  344MOL0     C46362   3.589   8.041   8.699 -0.3130 -0.8449 -0.1772
  344MOL0     C46363   3.588   7.907   8.679 -0.4339  0.4295  0.2043
  344MOL0     O46364   3.694   7.824   8.657  0.6289 -0.5592  0.5330
  344MOL0     C46365   3.803   7.848   8.748  0.1377 -0.0464 -0.3040
  344MOL0     C46366   3.912   7.737   8.752 -0.2426 -1.3553 -0.1698
  344MOL0     C46367   3.847   7.597   8.773  0.0956  0.2394  0.4306
  344MOL0     C46368   3.946   7.496   8.837  0.6269  0.1703  0.1686
  344MOL0     C46369   4.065   7.482   8.751 -0.7568 -0.1273 -0.3414
  344MOL0     C46370   4.163   7.487   8.675  0.2461  1.4969  0.8259
  344MOL0     C46371   3.468   7.851   8.641 -0.5246  0.2350 -0.1411
  344MOL0     C46372   3.351   7.929   8.642  0.5906  0.3863 -0.4825
  344MOL0     H46373   2.999   8.213   8.836  0.7968 -0.4205  0.0144
  344MOL0     H46374   2.745   8.225   8.856 -0.1284  0.7108 -0.0795
  344MOL0     H46375   2.519   8.077   8.538 -0.6553  2.9328 -0.7463
  344MOL0     H46376   2.502   8.020   8.709  0.7250 -0.5824  0.7848
  344MOL0     H46377   2.275   8.069   8.656  1.7124 -0.8938  0.9139
  344MOL0     H46378   2.331   8.227   8.715  1.1761 -1.4234  1.4846
  344MOL0     H46379   2.386   8.282   8.464  1.4840  0.0269  3.0559
  344MOL0     H46380   2.304   8.127   8.436 -2.8105  0.1805  0.2627
  344MOL0     H46381   2.090   8.215   8.516  0.9407 -1.3344  1.8612
  344MOL0     H46382   2.172   8.358   8.600  2.9158  1.3952 -1.0824
  344MOL0     H46383   2.226   8.412   8.351  0.5196 -0.4902 -0.7663
  344MOL0     H46384   2.107   8.300   8.297 -0.9103  0.2814  0.1981
  344MOL0     H46385   1.955   8.483   8.314 -1.4494  2.4602  1.5922
  344MOL0     H46386   1.930   8.420   8.466  1.5445 -3.1575 -1.3146
  344MOL0     H46387   2.118   8.564   8.548 -0.8222  0.1804  1.7022
  344MOL0     H46388   2.110   8.648   8.392 -0.3495  1.5650  0.9674
  344MOL0     H46389   1.911   8.658   8.610 -3.2648 -0.2221 -0.3113
  344MOL0     H46390   1.847   8.665   8.443 -1.5043 -0.5129  2.7062
  344MOL0     H46391   2.077   8.860   8.695 -1.5815 -2.1389 -0.4182
  344MOL0     H46392   2.161   9.108   8.696 -0.6946  0.6627  0.4397
  344MOL0     H46393   2.241   9.150   8.546  0.3238 -0.9610  1.9124
  344MOL0     H46394   1.966   9.246   8.669 -1.5771  1.0766 -0.7601
  344MOL0     H46395   1.989   9.244   8.494 -0.5682 -3.6406 -0.3608
  344MOL0     H46396   2.039   9.457   8.612  0.3844  0.2069 -0.7902
  344MOL0     H46397   2.182   9.401   8.525 -2.1073 -0.0451 -2.8525
  344MOL0     H46398   2.222   9.493   8.746 -0.9104 -0.3156  0.6413
  344MOL0     H46399   2.288   9.330   8.716  0.1318 -0.2587  0.4588
  344MOL0     H46400   2.024   9.289   9.070  0.5637  0.6645  2.4117
  344MOL0     H46401   2.090   9.292   9.387 -0.7353 -0.5468  0.1221
  344MOL0     H46402   1.985   9.207   9.275  0.9103 -2.1431 -2.0429
  344MOL0     H46403   2.114   9.119   9.358 -0.0927 -0.9647 -1.9052
  344MOL0     H46404   2.747   9.019   9.298 -1.0844  2.1755 -2.9206
  344MOL0     H46405   2.944   9.029   9.441  0.2971 -0.2408 -2.2136
  344MOL0     H46406   3.024   9.011   9.707  2.2904 -1.0531 -1.1403
  344MOL0     H46407   3.108   9.077   9.570 -1.4085  2.4245 -1.7879
  344MOL0     H46408   3.231   9.231   9.705 -1.8441  1.3633 -0.8279
  344MOL0     H46409   3.126   9.200   9.845  0.1337  0.2720  0.0910
  344MOL0     H46410   3.299   8.971   9.731  0.2227  0.1720 -0.2529
  344MOL0     H46411   3.184   8.967   9.866  0.5405 -2.8855 -2.2364
  344MOL0     H46412   3.340   9.162   9.954  1.6077 -0.1788  0.0064
  344MOL0     H46413   3.397   8.994   9.975  2.4063 -0.9144 -0.9261
  344MOL0     H46414   3.461   9.191   9.753  0.0501  0.5325  0.2295
  344MOL0     H46415   3.560   9.039   9.774  0.9269 -2.6037  3.8264
  344MOL0     H46416   3.654   9.259   9.864 -0.0602 -1.4135  0.0030
  344MOL0     H46417   3.546   9.244  10.004 -0.6330  1.1011 -0.4812
  344MOL0     H46418   3.732   9.023   9.915  0.3953  0.6192  0.2483
  344MOL0     H46419   3.612   9.004  10.044  0.8157 -1.3414  0.2139
  344MOL0     H46420   3.801   9.056  10.176  0.5001 -1.4644 -1.3097
  344MOL0     H46421   3.723   9.218  10.143 -2.7480 -0.7567 -1.4113
  344MOL0     H46422   2.751   9.331   9.685  1.5754 -0.8635 -0.0507
  344MOL0     H46423   2.540   9.298   9.536 -2.4183 -3.1830 -0.1621
  344MOL0     H46424   2.501   9.238   9.083  0.9391  3.1208 -1.3778
  344MOL0     H46425   2.413   9.289   8.882  0.9339 -0.2779  0.9439
  344MOL0     H46426   2.715   8.142   8.440 -0.6902 -0.2061  0.8331
  344MOL0     H46427   2.944   8.089   8.430  1.5668 -2.6054  1.8582
  344MOL0     H46428   3.496   8.223   8.734 -0.1244  0.1812 -1.7243
  344MOL0     H46429   3.685   8.086   8.723  1.2869 -3.2285 -1.7562
  344MOL0     H46430   3.854   7.938   8.714 -2.1356  0.0543 -4.0165
  344MOL0     H46431   3.764   7.872   8.847 -0.1021  0.2422 -0.4660
  344MOL0     H46432   3.985   7.757   8.831  0.2813  1.8995 -1.3420
  344MOL0     H46433   3.977   7.743   8.664 -1.3673  0.4039 -0.9279
  344MOL0     H46434   3.814   7.564   8.674  0.8365  2.5849 -0.6634
  344MOL0     H46435   3.762   7.596   8.843 -0.7147  3.3360 -0.3649
  344MOL0     H46436   3.898   7.401   8.865  0.7072  0.7651  2.5583
  344MOL0     H46437   3.979   7.544   8.930  2.6814  1.7778 -1.2958
  344MOL0     H46438   4.248   7.478   8.612 -0.5751 -0.2187 -0.0837
  344MOL0     H46439   3.468   7.745   8.619 -1.5951  0.2806 -0.4214
  344MOL0     H46440   3.263   7.871   8.617  1.0645 -0.0542 -1.1922
  345MOL0     O46441   7.341   6.264  10.303  0.1770 -0.5878 -0.4641
  345MOL0     C46442   7.413   6.177  10.250  0.6070  0.0259  0.2373
  345MOL0     O46443   7.383   6.118  10.127 -0.2279 -0.2872  0.1643
  345MOL0     C46444   7.260   6.157  10.079  0.0902 -0.6204  0.0200
  345MOL0     C46445   7.240   6.269   9.995 -0.1532 -0.3342 -0.1531
  345MOL0     C46446   7.117   6.297   9.934  0.0338  0.5257 -0.1333
  345MOL0     C46447   7.004   6.227   9.980 -0.0245  0.1048 -0.0681
  345MOL0     O46448   6.890   6.292   9.944 -0.5446 -0.4935  0.0027
  345MOL0     C46449   6.784   6.205   9.910  0.4574  0.9605 -1.0035
  345MOL0     C46450   6.670   6.223  10.001 -0.5602 -0.0830  0.2095
  345MOL0     C46451   6.649   6.373  10.029 -0.6543  0.3022 -0.3702
  345MOL0     C46452   6.528   6.406  10.106  0.4456  0.4708 -0.2576
  345MOL0     C46453   6.515   6.554  10.154 -1.2083  0.2291  0.9172
  345MOL0     C46454   6.439   6.577  10.292 -0.5461 -1.4824  0.3221
  345MOL0     C46455   6.500   6.513  10.417 -0.7458  0.0350  0.6685
  345MOL0     C46456   6.448   6.574  10.548  0.6537  0.0019  0.1174
  345MOL0     N46457   6.334   6.494  10.600 -0.6491 -0.5505  0.3916
  345MOL0     C46458   6.205   6.547  10.635  0.1357  1.4636 -0.1400
  345MOL0     C46459   6.126   6.440  10.664 -0.4431  0.3260 -1.0473
  345MOL0     C46460   5.991   6.460  10.728 -0.8179  0.0782  0.4794
  345MOL0     C46461   5.875   6.463  10.627 -0.1552 -0.3309 -1.0263
  345MOL0     C46462   5.871   6.350  10.536 -0.3020  0.4312 -0.5814
  345MOL0     C46463   5.824   6.222  10.602 -0.4871  0.2481  0.6357
  345MOL0     O46464   5.683   6.238  10.623  0.2758  0.4806  0.3653
  345MOL0     C46465   5.612   6.143  10.694  0.0669 -0.3660  0.3241
  345MOL0     C46466   5.670   6.022  10.738 -0.7043  0.0024  0.3816
  345MOL0     C46467   5.607   5.919  10.802  0.7021  0.7929  0.0958
  345MOL0     C46468   5.672   5.786  10.849 -0.3192 -0.1361  0.2206
  345MOL0     C46469   5.470   5.951  10.834  0.9037 -0.1255 -0.1329
  345MOL0     C46470   5.392   5.862  10.929  0.2629 -0.6368  0.4591
  345MOL0     O46471   5.254   5.860  10.923  0.1669  0.4774  0.8788
  345MOL0     C46472   5.160   5.829  11.023  0.5084 -0.4307 -0.6251
  345MOL0     C46473   5.032   5.871  11.000 -0.0608  0.0215 -0.4056
  345MOL0     C46474   4.934   5.846  11.096  1.3611 -0.1023  0.3462
  345MOL0     C46475   4.956   5.782  11.217 -0.0282  0.4158 -0.3416
  345MOL0     O46476   4.871   5.742  11.313  0.3052  0.4121 -0.3096
  345MOL0     C46477   4.731   5.768  11.288 -0.6576 -0.7932 -0.2235
  345MOL0     C46478   4.672   5.775  11.435 -0.5810  0.4822 -0.5349
  345MOL0     C46479   4.525   5.765  11.423 -0.2833  0.1422 -0.1402
  345MOL0     C46480   4.462   5.727  11.559  0.4368 -0.1970  0.1869
  345MOL0     C46481   4.491   5.832  11.669  0.1092  0.1622 -0.2477
  345MOL0     C46482   4.409   5.959  11.654  0.3625 -0.4918 -0.7408
  345MOL0     C46483   4.396   6.058  11.769 -0.1528 -0.1052 -0.1576
  345MOL0     C46484   4.522   6.100  11.829  0.6103 -0.0943  0.4206
  345MOL0    Cl46485   4.489   6.214  11.964  0.2664 -0.0634 -0.3001
  345MOL0     C46486   5.094   5.744  11.238 -0.1988  0.0075  0.0770
  345MOL0     C46487   5.188   5.769  11.145  1.1532  0.2101  0.7202
  345MOL0     O46488   5.456   5.811  11.020  0.3685 -0.1850  0.3784
  345MOL0     C46489   5.402   6.056  10.772 -0.0456  0.4304  0.2418
  345MOL0     C46490   5.474   6.155  10.702  0.4711  0.0261  0.3623
  345MOL0     N46491   6.204   6.330  10.634 -0.2432 -0.1486 -0.5951
  345MOL0     N46492   6.325   6.359  10.605  0.3947  0.4660  0.1936
  345MOL0     C46493   7.025   6.112  10.055 -0.3052  0.2436  0.0634
  345MOL0     C46494   7.153   6.076  10.099  0.5636 -0.3498  0.2344
  345MOL0     C46495   7.526   6.121  10.332  0.2888  0.6571  0.0837
  345MOL0     C46496   7.598   6.196  10.427  0.1350 -0.6722 -0.5489
  345MOL0     C46497   7.705   6.136  10.496  0.1325  0.6462  0.1741
  345MOL0     C46498   7.738   6.000  10.468  0.1711  0.4828  0.4088
  345MOL0     O46499   7.838   5.926  10.524 -0.0478 -0.0873  0.1071
  345MOL0     C46500   7.958   6.011  10.532  0.3746 -0.1878 -0.4841
  345MOL0     C46501   8.083   5.932  10.565  0.2452 -0.1504  0.2770
  345MOL0     C46502   8.065   5.868  10.700  0.0089  0.5079 -0.3155
  345MOL0     C46503   8.179   5.775  10.743  0.4137  0.3659  0.8087
  345MOL0     C46504   8.307   5.842  10.754  0.6544 -0.9316  0.3584
  345MOL0     C46505   8.422   5.888  10.776 -0.4303  0.1869 -0.2238
  345MOL0     C46506   7.659   5.929  10.384  0.2970  0.0016  0.1179
  345MOL0     C46507   7.561   5.982  10.312 -0.0672 -0.7884  0.2594
  345MOL0     H46508   7.326   6.332   9.977 -1.2903  1.4729  0.4497
  345MOL0     H46509   7.099   6.372   9.859  1.4600  0.2152 -0.8221
  345MOL0     H46510   6.759   6.212   9.804 -1.0047  0.3711 -0.7167
  345MOL0     H46511   6.815   6.100   9.916 -0.2798  0.8090  0.5996
  345MOL0     H46512   6.587   6.168   9.956  0.7130 -2.4230  0.5437
  345MOL0     H46513   6.687   6.178  10.099  0.9063 -0.1115 -0.0383
  345MOL0     H46514   6.730   6.422  10.084 -1.8798 -0.7253  2.4974
  345MOL0     H46515   6.621   6.424   9.936  1.8605  0.2350 -1.2438
  345MOL0     H46516   6.440   6.365  10.056  0.2360 -1.2998  1.4475
  345MOL0     H46517   6.548   6.332  10.185  2.0053 -1.3085 -2.1965
  345MOL0     H46518   6.618   6.591  10.161 -1.5070  1.0631  1.0456
  345MOL0     H46519   6.473   6.607  10.068  0.6134 -0.4795 -0.4589
  345MOL0     H46520   6.439   6.686  10.300  1.3830 -1.2229 -1.9687
  345MOL0     H46521   6.333   6.549  10.287 -0.5748 -1.1571 -1.4995
  345MOL0     H46522   6.481   6.406  10.418  0.7666 -0.2575  1.9400
  345MOL0     H46523   6.609   6.511  10.414 -0.5540 -0.4421  4.0988
  345MOL0     H46524   6.419   6.679  10.542  0.3166 -0.1113 -0.2756
  345MOL0     H46525   6.536   6.576  10.612  2.4734 -0.9104 -2.2286
  345MOL0     H46526   6.167   6.649  10.633  0.3769  1.5693 -2.3757
  345MOL0     H46527   5.968   6.388  10.807  1.5079 -1.1042  0.1571
  345MOL0     H46528   5.998   6.557  10.779 -2.3832  0.7760 -0.5775
  345MOL0     H46529   5.879   6.556  10.570  3.2252 -0.2497 -0.8577
  345MOL0     H46530   5.783   6.457  10.687 -0.9734 -2.0739 -2.3598
  345MOL0     H46531   5.968   6.339  10.486 -0.0189  1.9854 -0.4219
  345MOL0     H46532   5.803   6.381  10.456 -0.8817 -1.1684 -0.7429
  345MOL0     H46533   5.883   6.205  10.692 -1.1701 -0.6502  0.9319
  345MOL0     H46534   5.828   6.136  10.535 -3.8990 -0.2226  0.8599
  345MOL0     H46535   5.778   6.012  10.734 -0.6029  1.2941 -3.3232
  345MOL0     H46536   5.603   5.703  10.832 -0.6358  0.0105  0.7621
  345MOL0     H46537   5.770   5.774  10.802 -0.3234 -0.2415  0.2377
  345MOL0     H46538   5.689   5.789  10.957 -2.3543  0.4972  0.5624
  345MOL0     H46539   5.003   5.916  10.905  0.6738 -0.3531 -0.8171
  345MOL0     H46540   4.833   5.876  11.069  1.1296 -0.5961  0.6444
  345MOL0     H46541   4.714   5.869  11.248  0.4461 -1.1236 -1.6048
  345MOL0     H46542   4.687   5.698  11.216 -0.6271  0.3521 -1.4112
  345MOL0     H46543   4.714   5.698  11.502 -1.4953  0.2801 -0.1851
  345MOL0     H46544   4.695   5.868  11.489 -1.2982  0.1264  0.4187
  345MOL0     H46545   4.494   5.688  11.351  1.5883  0.6756 -1.5799
  345MOL0     H46546   4.482   5.861  11.394  0.2077 -0.6919 -4.3131
  345MOL0     H46547   4.356   5.707  11.540  0.3432 -3.4459  3.1143
  345MOL0     H46548   4.496   5.628  11.593  0.7769  0.4113  1.7126
  345MOL0     H46549   4.598   5.849  11.682  0.6446 -3.0883  0.6695
  345MOL0     H46550   4.464   5.779  11.761 -1.4523 -2.2789 -1.9793
  345MOL0     H46551   4.441   6.007  11.561 -1.5309 -0.8374 -1.6331
  345MOL0     H46552   4.302   5.939  11.642  0.1729  1.5951 -3.2889
  345MOL0     H46553   4.341   6.006  11.848 -1.2078  0.6253 -0.3944
  345MOL0     H46554   4.339   6.145  11.737  1.0233  0.2360 -1.4347
  345MOL0     H46555   4.565   6.166  11.754 -0.3784 -0.2437 -0.2929
  345MOL0     H46556   4.593   6.022  11.858  0.0615 -0.0979  1.8704
  345MOL0     H46557   5.127   5.679  11.319  0.9145  0.2098 -0.2038
  345MOL0     H46558   5.293   5.741  11.155  1.1176  0.4920  2.0005
  345MOL0     H46559   5.294   6.066  10.783 -0.1020  0.0504  0.0534
  345MOL0     H46560   5.424   6.240  10.657 -1.8047 -2.5699 -2.4319
  345MOL0     H46561   6.940   6.052  10.085  0.8962 -1.4335  0.2256
  345MOL0     H46562   7.176   5.988  10.157 -0.1743 -1.4025 -1.0349
  345MOL0     H46563   7.576   6.299  10.452  4.1043 -0.1525  1.6047
  345MOL0     H46564   7.750   6.196  10.575 -3.7121  4.0725  0.0651
  345MOL0     H46565   7.974   6.049  10.431  3.6058 -0.9190 -0.3560
  345MOL0     H46566   7.955   6.088  10.610  1.4966 -0.8674  0.2659
  345MOL0     H46567   8.175   5.990  10.574 -1.5624  3.1127 -0.9246
  345MOL0     H46568   8.102   5.854  10.490  2.1213 -0.3873  0.9623
  345MOL0     H46569   7.978   5.801  10.707  1.0522 -0.7678  4.0762
  345MOL0     H46570   8.045   5.941  10.779 -1.3486 -0.5049  0.3250
  345MOL0     H46571   8.177   5.706  10.658 -0.1024  0.9962  0.2973
  345MOL0     H46572   8.160   5.726  10.839 -1.0472  0.7072  0.7173
  345MOL0     H46573   8.513   5.934  10.808  0.9235 -2.5793  0.2072
  345MOL0     H46574   7.674   5.823  10.367  3.5169  0.2057  1.0107
  345MOL0     H46575   7.503   5.927  10.240 -0.7792  0.4453 -0.1424
  346MOL0     O46576   1.201   6.486   6.366  0.0678 -0.3006 -0.1523
  346MOL0     C46577   1.216   6.604   6.414  0.0515 -0.1741  0.0195
  346MOL0     O46578   1.113   6.685   6.456 -0.2543  0.3839  0.3067
  346MOL0     C46579   0.990   6.635   6.417 -0.3725 -0.1426 -1.1892
  346MOL0     C46580   0.953   6.634   6.284 -0.0683 -0.6712  0.0735
  346MOL0     C46581   0.832   6.568   6.246  0.3376  0.1956  0.0934
  346MOL0     C46582   0.738   6.520   6.336 -0.1695 -0.0371  0.0578
  346MOL0     O46583   0.614   6.471   6.290 -0.1949 -0.5353  0.1473
  346MOL0     C46584   0.506   6.502   6.391 -0.4666 -0.5086  0.4221
  346MOL0     C46585   0.492   6.660   6.406 -0.6364  0.7435 -0.2053
  346MOL0     C46586   0.391   6.680   6.523 -0.5745  0.7418  0.0895
  346MOL0     C46587   0.324   6.809   6.497  0.8768  0.4213  0.4722
  346MOL0     C46588   0.197   6.818   6.585 -0.4075 -0.3555  0.5732
  346MOL0     C46589   0.099   6.924   6.523 -0.5815  0.1958 -0.2970
  346MOL0     C46590  -0.022   6.941   6.613  0.3414  0.3244 -0.4444
  346MOL0     C46591  -0.121   6.827   6.583  0.0125  0.6071 -0.3078
  346MOL0     N46592  -0.234   6.844   6.677  0.7526  1.1752  1.6052
  346MOL0     C46593  -0.251   6.787   6.804 -0.3642  0.6669  0.5178
  346MOL0     C46594  -0.379   6.813   6.846  0.4495  0.5188  0.3474
  346MOL0     C46595  -0.451   6.778   6.978 -0.3112 -0.2015  0.2265
  346MOL0     C46596  -0.502   6.629   6.980  0.0303 -0.7770 -0.7826
  346MOL0     C46597  -0.593   6.611   7.108 -0.1575 -0.3892  0.2919
  346MOL0     C46598  -0.654   6.471   7.077  0.4611 -0.3972 -0.1523
  346MOL0     O46599  -0.742   6.428   7.183  0.1330 -0.3104 -0.4225
  346MOL0     C46600  -0.842   6.343   7.140  0.7707  0.0661  0.0042
  346MOL0     C46601  -0.970   6.364   7.200 -0.0422  0.3023  0.2737
  346MOL0     C46602  -1.085   6.282   7.157 -0.1019  0.3226  0.5162
  346MOL0     C46603  -1.221   6.315   7.215  0.8604  0.1589  0.2596
  346MOL0     C46604  -1.075   6.187   7.051 -0.1191  0.3886 -0.0745
  346MOL0     C46605  -1.191   6.099   7.005 -0.4565  0.3546  0.5806
  346MOL0     O46606  -1.146   5.990   6.936  0.2627  0.2427  0.5353
  346MOL0     C46607  -1.238   5.919   6.876 -0.0220 -0.6211 -0.2779
  346MOL0     C46608  -1.288   5.965   6.759  0.4564 -1.2467 -0.3341
  346MOL0     C46609  -1.382   5.891   6.689 -0.1276 -0.4686 -0.1516
  346MOL0     C46610  -1.430   5.769   6.732  0.1226 -0.5974 -0.7457
  346MOL0     O46611  -1.511   5.697   6.642 -0.2123  0.0185 -0.4894
  346MOL0     C46612  -1.622   5.634   6.699 -0.4847  0.3392 -0.1922
  346MOL0     C46613  -1.709   5.588   6.577 -0.5377  0.0697 -0.1703
  346MOL0     C46614  -1.854   5.557   6.613  0.3161  0.1978  0.6293
  346MOL0     C46615  -1.920   5.507   6.488 -0.1669 -0.6256  0.5611
  346MOL0     C46616  -2.070   5.471   6.529 -0.2138 -1.4255  0.0960
  346MOL0     C46617  -2.163   5.442   6.414  0.1284 -0.1906 -1.0719
  346MOL0     C46618  -2.313   5.439   6.452 -0.0312  0.6109 -0.4343
  346MOL0     C46619  -2.373   5.298   6.459  0.3414  0.1758 -0.5375
  346MOL0    Cl46620  -2.352   5.196   6.311 -0.2893  0.0208 -0.2307
  346MOL0     C46621  -1.378   5.717   6.856  0.2765 -0.5639 -0.5597
  346MOL0     C46622  -1.285   5.798   6.932 -0.0767 -0.6599  0.0108
  346MOL0     O46623  -1.302   6.133   7.017  0.5444  0.2421  0.0102
  346MOL0     C46624  -0.941   6.166   7.003 -0.0729  0.4438 -0.2300
  346MOL0     C46625  -0.825   6.242   7.049  0.6241  0.1225 -0.2702
  346MOL0     N46626  -0.443   6.880   6.743  0.3671 -0.0701 -0.5050
  346MOL0     N46627  -0.357   6.904   6.650  0.0226 -0.7394 -0.6802
  346MOL0     C46628   0.780   6.524   6.471  1.1332 -0.5094 -0.6659
  346MOL0     C46629   0.905   6.584   6.515  0.4088 -0.0735  0.2082
  346MOL0     C46630   1.355   6.646   6.437  0.5120  0.4104 -0.3537
  346MOL0     C46631   1.371   6.751   6.524  0.2562  0.0970  0.3303
  346MOL0     C46632   1.504   6.790   6.557 -0.7112  0.4475 -0.4287
  346MOL0     C46633   1.617   6.735   6.502  0.1949 -0.1169 -0.5366
  346MOL0     O46634   1.747   6.775   6.541 -0.0232  0.6442  0.0346
  346MOL0     C46635   1.751   6.907   6.594 -0.3655  0.6070  0.3148
  346MOL0     C46636   1.896   6.953   6.559 -0.7501  0.2584 -0.8232
  346MOL0     C46637   2.010   6.885   6.641 -0.3300  0.0826 -0.3081
  346MOL0     C46638   2.141   6.926   6.576 -0.5642 -0.5800 -0.0211
  346MOL0     C46639   2.250   6.853   6.641 -0.7431  0.2484  0.9156
  346MOL0     C46640   2.341   6.795   6.692 -0.0510 -0.4783  0.5676
  346MOL0     C46641   1.598   6.618   6.423  0.2259  0.4581  0.6590
  346MOL0     C46642   1.471   6.586   6.380 -0.3467 -0.4170 -0.9412
  346MOL0     H46643   1.012   6.683   6.208 -0.1969  0.2419  0.5552
  346MOL0     H46644   0.801   6.565   6.142 -0.4146 -2.1564  0.3468
  346MOL0     H46645   0.408   6.474   6.351  0.2233 -0.0500 -1.7323
  346MOL0     H46646   0.529   6.447   6.483 -0.3459 -2.3770 -0.6725
  346MOL0     H46647   0.588   6.704   6.431 -1.4121  2.5266 -0.2253
  346MOL0     H46648   0.460   6.698   6.309  2.1086 -1.7695 -2.2574
  346MOL0     H46649   0.314   6.604   6.508 -0.4447  0.0452  2.5296
  346MOL0     H46650   0.443   6.664   6.618 -1.4993 -0.3015  0.4425
  346MOL0     H46651   0.388   6.898   6.509  0.0267  1.8160 -3.6598
  346MOL0     H46652   0.304   6.804   6.389  0.7951 -1.8497  0.5472
  346MOL0     H46653   0.159   6.716   6.599  1.1158 -0.8705  1.1968
  346MOL0     H46654   0.227   6.857   6.682 -4.5204  0.7491  1.5999
  346MOL0     H46655   0.150   7.020   6.514  3.0996 -1.6561 -1.5312
  346MOL0     H46656   0.063   6.897   6.423 -0.0899 -2.7092  0.2187
  346MOL0     H46657   0.003   6.949   6.719 -0.2340  2.5476 -0.4324
  346MOL0     H46658  -0.066   7.037   6.586 -1.3576 -0.0768  0.7141
  346MOL0     H46659  -0.073   6.731   6.605 -1.3422  0.1829  1.0170
  346MOL0     H46660  -0.156   6.816   6.480  1.2724 -2.6607 -0.5178
  346MOL0     H46661  -0.175   6.734   6.861 -1.2790 -1.1889  0.1011
  346MOL0     H46662  -0.387   6.801   7.063  0.1043  1.5703 -0.5310
  346MOL0     H46663  -0.529   6.854   6.981  0.5623  0.7450 -0.2817
  346MOL0     H46664  -0.410   6.572   6.994  0.0550 -0.2051  2.0301
  346MOL0     H46665  -0.543   6.599   6.883 -1.2246 -0.7012 -0.2902
  346MOL0     H46666  -0.669   6.690   7.110 -0.5317 -0.6951 -1.0565
  346MOL0     H46667  -0.530   6.620   7.197  0.3823  1.8899 -0.2448
  346MOL0     H46668  -0.576   6.394   7.068  1.9736  1.2434 -2.1925
  346MOL0     H46669  -0.713   6.477   6.985  0.5196  2.7121 -0.0815
  346MOL0     H46670  -0.973   6.450   7.267 -4.6843  0.9257 -0.3656
  346MOL0     H46671  -1.264   6.230   7.267 -0.8875  0.5217 -0.5400
  346MOL0     H46672  -1.213   6.390   7.295 -1.6704 -0.9612  1.6672
  346MOL0     H46673  -1.293   6.353   7.142  0.4436  1.9492  1.5161
  346MOL0     H46674  -1.256   6.057   6.712 -2.1955 -0.1660 -0.2106
  346MOL0     H46675  -1.410   5.935   6.594 -0.8525 -2.0837 -0.7177
  346MOL0     H46676  -1.576   5.550   6.753 -0.2442  0.6612  0.1050
  346MOL0     H46677  -1.672   5.704   6.766  1.0053  0.7608  0.5184
  346MOL0     H46678  -1.710   5.679   6.517  1.2553  0.1997 -0.0537
  346MOL0     H46679  -1.654   5.507   6.529 -1.0112 -0.3346 -0.0372
  346MOL0     H46680  -1.899   5.649   6.654 -0.3785  0.7702 -1.2916
  346MOL0     H46681  -1.868   5.483   6.691 -2.4590 -1.1072 -0.9479
  346MOL0     H46682  -1.912   5.580   6.408  0.3568 -0.3654  0.8498
  346MOL0     H46683  -1.877   5.413   6.451 -1.0953 -0.8737  0.0621
  346MOL0     H46684  -2.110   5.559   6.581 -0.2342  0.0555 -2.3009
  346MOL0     H46685  -2.071   5.384   6.596  0.5308  0.3641  2.5856
  346MOL0     H46686  -2.148   5.515   6.334  0.4379  0.9555 -0.0030
  346MOL0     H46687  -2.142   5.341   6.380 -1.7632 -1.6782  1.7582
  346MOL0     H46688  -2.377   5.492   6.381 -0.9247 -2.8111 -2.4119
  346MOL0     H46689  -2.330   5.488   6.548 -0.3054 -0.7330  0.2381
  346MOL0     H46690  -2.481   5.307   6.474  0.4014  0.6139 -0.3465
  346MOL0     H46691  -2.328   5.256   6.550  0.6173 -1.2284 -1.2999
  346MOL0     H46692  -1.413   5.624   6.899  1.2515 -0.4451  0.5154
  346MOL0     H46693  -1.238   5.768   7.025  2.4259 -1.2808 -1.3669
  346MOL0     H46694  -0.929   6.085   6.932  1.5872  0.5818 -0.1375
  346MOL0     H46695  -0.725   6.226   7.009  1.3441  0.3116  1.3997
  346MOL0     H46696   0.723   6.464   6.541  1.1455 -2.5866 -2.3607
  346MOL0     H46697   0.925   6.590   6.622 -0.0205  0.0254  0.2848
  346MOL0     H46698   1.290   6.810   6.567  1.2760  1.6010  0.2868
  346MOL0     H46699   1.508   6.875   6.624  1.1518 -0.1632  0.3057
  346MOL0     H46700   1.690   6.981   6.542 -0.8345 -0.5759 -0.9026
  346MOL0     H46701   1.728   6.897   6.700  3.4360  0.6361  1.2842
  346MOL0     H46702   1.915   7.059   6.575  0.9895 -0.2364  0.8206
  346MOL0     H46703   1.917   6.923   6.456 -1.3074  0.3670 -0.9697
  346MOL0     H46704   2.001   6.776   6.641  3.1445 -0.3291 -1.4844
  346MOL0     H46705   2.007   6.911   6.748 -0.5605 -0.5612 -0.1543
  346MOL0     H46706   2.152   7.034   6.580 -2.5471 -0.0256 -4.0780
  346MOL0     H46707   2.140   6.898   6.471  0.7858  3.0625 -1.1416
  346MOL0     H46708   2.419   6.739   6.740  0.5166  1.3066  1.8223
  346MOL0     H46709   1.690   6.578   6.381  0.1237  1.8531 -1.0470
  346MOL0     H46710   1.452   6.511   6.304 -1.2009 -0.5870 -0.5651
  347MOL0     O46711   7.071  10.336  10.865 -0.2612  0.2998  0.5395
  347MOL0     C46712   7.161  10.379  10.934  0.1022 -0.3534  0.2559
  347MOL0     O46713   7.160  10.378  11.063 -0.2207 -0.2555 -0.5962
  347MOL0     C46714   7.048  10.392  11.146 -1.0894  0.0762  0.3504
  347MOL0     C46715   7.060  10.379  11.282  0.0883 -0.0530 -0.8018
  347MOL0     C46716   6.944  10.370  11.368 -0.4770 -0.0291  0.6577
  347MOL0     C46717   6.812  10.385  11.316 -0.2174 -0.5025  0.1357
  347MOL0     O46718   6.703  10.402  11.403  0.0636 -0.2339 -0.3687
  347MOL0     C46719   6.606  10.304  11.370  1.0640  0.4908  0.4030
  347MOL0     C46720   6.461  10.336  11.408 -0.1336 -0.9839 -0.7025
  347MOL0     C46721   6.408  10.446  11.314 -0.6809  0.4216 -0.6859
  347MOL0     C46722   6.261  10.471  11.340 -0.2217 -0.1435  0.1304
  347MOL0     C46723   6.238  10.555  11.462  0.4157  0.4106  0.0186
  347MOL0     C46724   6.090  10.599  11.470  0.8304 -0.2701 -1.8124
  347MOL0     C46725   6.037  10.674  11.591 -0.7542 -0.5283  0.4154
  347MOL0     C46726   6.129  10.783  11.630  1.1403  0.0841  0.7035
  347MOL0     N46727   6.060  10.884  11.708 -0.6949  0.2494  0.6088
  347MOL0     C46728   6.004  10.865  11.834  0.6971  0.2929  0.5160
  347MOL0     C46729   5.981  10.990  11.878 -0.4123  0.0490 -0.5802
  347MOL0     C46730   5.919  11.029  12.012 -0.2318 -0.3253 -0.0428
  347MOL0     C46731   5.778  10.970  12.023 -0.0237  0.0214  0.1096
  347MOL0     C46732   5.684  11.025  11.918  0.2577 -0.0858  0.0436
  347MOL0     C46733   5.631  11.165  11.940 -0.0499 -1.0096 -0.2897
  347MOL0     O46734   5.540  11.198  11.840 -0.7400  0.9282  0.6741
  347MOL0     C46735   5.410  11.198  11.875 -0.1519  0.0342  0.1526
  347MOL0     C46736   5.360  11.291  11.966 -0.5241  0.2046  0.0472
  347MOL0     C46737   5.221  11.287  12.004 -0.1386 -0.1112 -0.1421
  347MOL0     C46738   5.183  11.365  12.120  0.0077 -0.3549 -0.3096
  347MOL0     C46739   5.135  11.203  11.935  1.2275  0.7976 -0.4400
  347MOL0     C46740   4.980  11.202  11.951 -0.0329 -0.5377  0.8544
  347MOL0     O46741   4.901  11.127  11.867  0.3877 -0.9840  0.3156
  347MOL0     C46742   4.761  11.144  11.878 -0.7940  1.1141  1.0322
  347MOL0     C46743   4.700  11.049  11.957  0.4043 -1.0703 -0.9759
  347MOL0     C46744   4.560  11.051  11.970 -0.1684  0.1009  0.0098
  347MOL0     C46745   4.481  11.142  11.897  0.0686  0.2199  0.1459
  347MOL0     O46746   4.344  11.150  11.902  0.0776  0.1374  0.4668
  347MOL0     C46747   4.262  11.032  11.928  0.1493  0.2705  0.5756
  347MOL0     C46748   4.270  10.926  11.813  0.3322 -0.2622 -0.2282
  347MOL0     C46749   4.300  10.789  11.884 -1.0885  0.6016  0.6636
  347MOL0     C46750   4.325  10.679  11.783  0.1541 -0.4478 -0.1434
  347MOL0     C46751   4.424  10.729  11.673  0.5784 -0.4277 -0.3438
  347MOL0     C46752   4.471  10.610  11.583  0.3761  0.1675  0.0700
  347MOL0     C46753   4.383  10.574  11.468  0.0441 -0.2767  0.9066
  347MOL0     C46754   4.461  10.498  11.356  0.0171 -1.4069  0.1446
  347MOL0    Cl46755   4.496  10.318  11.393  0.3075  0.1183 -0.6436
  347MOL0     C46756   4.551  11.234  11.815  0.1750  0.4856  0.2284
  347MOL0     C46757   4.687  11.234  11.802 -1.0775 -0.0448  0.1171
  347MOL0     O46758   4.928  11.272  12.036 -0.3088 -0.7248  0.2175
  347MOL0     C46759   5.180  11.108  11.834  1.1791 -0.5628 -0.6380
  347MOL0     C46760   5.320  11.105  11.808  0.1984 -0.6933 -0.5046
  347MOL0     N46761   6.010  11.078  11.782  0.1592  0.6696 -0.0092
  347MOL0     N46762   6.065  11.014  11.684 -0.3370  0.5513  0.7654
  347MOL0     C46763   6.805  10.402  11.179  0.3268  0.6738  0.3327
  347MOL0     C46764   6.916  10.404  11.092  0.5566 -0.2877 -0.6030
  347MOL0     C46765   7.298  10.382  10.864 -0.4107 -0.9533 -0.3379
  347MOL0     C46766   7.312  10.398  10.729 -0.3452 -0.0431 -0.0663
  347MOL0     C46767   7.441  10.414  10.671 -0.2541 -0.7614 -0.3295
  347MOL0     C46768   7.554  10.419  10.748  0.3633 -0.1250 -1.0418
  347MOL0     O46769   7.680  10.402  10.682  0.1039 -0.1603  0.3078
  347MOL0     C46770   7.798  10.370  10.760 -0.3821 -0.1516 -0.5106
  347MOL0     C46771   7.921  10.374  10.665  0.8603  0.2378  0.5470
  347MOL0     C46772   8.048  10.345  10.742 -0.7319 -0.3026 -1.1833
  347MOL0     C46773   8.084  10.441  10.861 -0.2088  0.5693 -0.6028
  347MOL0     C46774   8.230  10.436  10.883  0.5384 -1.3077  0.4424
  347MOL0     C46775   8.348  10.447  10.901  0.2718  0.2467 -0.5711
  347MOL0     C46776   7.541  10.405  10.884  0.2265  0.2642 -0.1797
  347MOL0     C46777   7.414  10.385  10.943  0.2882  0.0617  0.2826
  347MOL0     H46778   7.164  10.382  11.314 -0.1763  2.5891  0.0375
  347MOL0     H46779   6.950  10.352  11.475  0.3808 -1.5164  0.3931
  347MOL0     H46780   6.601  10.279  11.264  1.2380 -0.1053  0.5325
  347MOL0     H46781   6.639  10.220  11.433  2.0268  1.2041  0.8768
  347MOL0     H46782   6.389  10.254  11.405 -1.0979 -0.1491 -1.8844
  347MOL0     H46783   6.461  10.377  11.509  1.4027  1.6189 -1.6445
  347MOL0     H46784   6.466  10.538  11.320  0.2981 -0.2160 -0.0879
  347MOL0     H46785   6.403  10.406  11.212 -2.7317 -2.1397  0.2924
  347MOL0     H46786   6.220  10.523  11.253  0.6273  0.1085 -0.1273
  347MOL0     H46787   6.208  10.376  11.352  0.7278 -0.3552  4.3469
  347MOL0     H46788   6.278  10.504  11.550  1.0652 -1.2984 -1.2127
  347MOL0     H46789   6.304  10.641  11.449  1.4495 -0.4031 -0.2575
  347MOL0     H46790   6.065  10.647  11.375 -1.0977 -2.6097 -2.5899
  347MOL0     H46791   6.026  10.510  11.467 -1.2322  1.0778 -0.2577
  347MOL0     H46792   5.936  10.712  11.572 -1.3632 -1.8562  0.8574
  347MOL0     H46793   6.029  10.608  11.678  0.5414 -1.4749 -0.1445
  347MOL0     H46794   6.156  10.842  11.542 -2.3605  0.1105 -0.4877
  347MOL0     H46795   6.216  10.739  11.681  0.7964 -0.7924  0.5516
  347MOL0     H46796   6.002  10.772  11.890  2.2655 -0.0665  0.0137
  347MOL0     H46797   5.992  10.995  12.086  0.3922 -1.5103 -1.1673
  347MOL0     H46798   5.915  11.139  12.012  1.8105 -0.2067  1.1292
  347MOL0     H46799   5.729  10.991  12.118  1.6936 -2.4027  1.6423
  347MOL0     H46800   5.792  10.861  12.019 -1.2593 -0.1664  0.5927
  347MOL0     H46801   5.589  10.969  11.918 -0.8619  1.6524  2.0352
  347MOL0     H46802   5.733  11.015  11.820  1.5767 -1.7042  0.8167
  347MOL0     H46803   5.707  11.243  11.938 -1.0328 -0.0065  0.7708
  347MOL0     H46804   5.584  11.175  12.038 -0.4701  0.6454 -0.6267
  347MOL0     H46805   5.422  11.356  12.027 -0.0835  1.8092 -1.9834
  347MOL0     H46806   5.109  11.432  12.074  0.4156 -0.0425 -0.5181
  347MOL0     H46807   5.144  11.308  12.205  1.2050  0.7698  1.0382
  347MOL0     H46808   5.271  11.424  12.146  1.8234 -1.6276 -3.1118
  347MOL0     H46809   4.751  10.970  12.011 -0.6271 -1.6206 -0.7598
  347MOL0     H46810   4.511  10.970  12.022  0.1098 -1.8667 -2.6273
  347MOL0     H46811   4.292  10.994  12.026  0.0400 -0.3477  0.3736
  347MOL0     H46812   4.158  11.065  11.942 -0.3841  0.6760 -3.2193
  347MOL0     H46813   4.169  10.935  11.772  0.1710  0.4437  0.3153
  347MOL0     H46814   4.342  10.956  11.736 -0.3912  2.0424 -0.0797
  347MOL0     H46815   4.221  10.760  11.954  0.5880  1.5891  3.1420
  347MOL0     H46816   4.385  10.810  11.949 -2.1110  1.5546  1.7364
  347MOL0     H46817   4.364  10.593  11.839  0.1144 -1.0913 -1.0733
  347MOL0     H46818   4.232  10.645  11.736  0.0292 -0.0474 -0.1852
  347MOL0     H46819   4.509  10.783  11.716 -0.8099  3.1425 -1.7006
  347MOL0     H46820   4.377  10.799  11.603 -0.7459 -2.0612 -1.1588
  347MOL0     H46821   4.569  10.622  11.535 -0.2471  0.0745 -1.2677
  347MOL0     H46822   4.479  10.518  11.641 -1.0989 -0.2679 -0.3790
  347MOL0     H46823   4.342  10.667  11.427  1.2429 -0.6140 -1.1711
  347MOL0     H46824   4.296  10.517  11.503 -0.5640  1.7020  2.8737
  347MOL0     H46825   4.561  10.540  11.341  0.4336 -2.3142  0.3181
  347MOL0     H46826   4.403  10.509  11.264 -1.4242 -1.1642  1.0555
  347MOL0     H46827   4.493  11.310  11.763 -0.6849  1.4959  2.5250
  347MOL0     H46828   4.740  11.306  11.741 -1.0814 -2.9314 -3.7204
  347MOL0     H46829   5.114  11.038  11.785  0.9968 -1.1025  0.3559
  347MOL0     H46830   5.346  11.035  11.729 -1.6985 -3.2810  1.0326
  347MOL0     H46831   6.708  10.421  11.134  1.4802  0.4626 -2.4717
  347MOL0     H46832   6.879  10.408  10.990  0.6260  1.1640 -0.5855
  347MOL0     H46833   7.228  10.388  10.660  0.0349 -4.0218 -0.2060
  347MOL0     H46834   7.451  10.434  10.564 -0.4310  0.3011 -0.1551
  347MOL0     H46835   7.829  10.439  10.839  0.3806  0.5789 -1.4302
  347MOL0     H46836   7.777  10.269  10.798 -0.8818 -0.2385 -0.9941
  347MOL0     H46837   7.923  10.474  10.620 -1.8665  0.7193  1.3319
  347MOL0     H46838   7.911  10.303  10.583  2.5117 -0.3214  0.7907
  347MOL0     H46839   8.133  10.355  10.673  1.6935 -0.9499  1.5069
  347MOL0     H46840   8.041  10.243  10.781  0.9933  0.6521  2.0411
  347MOL0     H46841   8.041  10.393  10.949  0.5911 -0.2249 -0.6339
  347MOL0     H46842   8.057  10.546  10.848  1.2944  0.7444 -3.0553
  347MOL0     H46843   8.455  10.450  10.897  0.2386  0.4902 -1.5208
  347MOL0     H46844   7.625  10.394  10.952 -2.4156  0.0146  3.3305
  347MOL0     H46845   7.400  10.386  11.051 -0.3521 -0.9308  0.2295
  348MOL0     O46846   7.944  10.929   3.873 -0.0579 -0.0337  0.6697
  348MOL0     C46847   8.006  10.827   3.828  0.2630  0.4841 -0.2610
  348MOL0     O46848   7.950  10.716   3.767 -0.2230  0.3294  0.0665
  348MOL0     C46849   7.820  10.703   3.740  0.0660 -0.3282 -0.5927
  348MOL0     C46850   7.759  10.805   3.664 -0.2050 -0.2015  0.2204
  348MOL0     C46851   7.620  10.790   3.629  0.3727  0.1727  0.0971
  348MOL0     C46852   7.534  10.696   3.682 -0.0265  0.1456 -0.7231
  348MOL0     O46853   7.402  10.697   3.646  0.5120  0.5709  0.7099
  348MOL0     C46854   7.316  10.751   3.753  0.4591 -0.4587 -0.9845
  348MOL0     C46855   7.200  10.656   3.782 -0.2016 -0.1198  1.0809
  348MOL0     C46856   7.093  10.647   3.661  0.4940  0.7126 -0.0597
  348MOL0     C46857   6.975  10.563   3.710  0.1625 -0.6103 -0.4230
  348MOL0     C46858   6.871  10.550   3.597 -0.5090  0.9634 -0.8230
  348MOL0     C46859   6.748  10.494   3.665  0.1480  0.5259  0.4977
  348MOL0     C46860   6.630  10.466   3.574 -0.7615  0.8064 -0.8366
  348MOL0     C46861   6.537  10.366   3.630  0.1787  0.2662 -0.6923
  348MOL0     N46862   6.447  10.416   3.733  0.5960  0.3330 -0.3128
  348MOL0     C46863   6.316  10.435   3.695  0.5805  0.4111 -0.2855
  348MOL0     C46864   6.251  10.476   3.807 -0.4208 -0.4061 -0.0066
  348MOL0     C46865   6.110  10.489   3.834  0.1766 -0.0037  0.0234
  348MOL0     C46866   6.059  10.629   3.882 -0.1483 -0.3159 -0.3050
  348MOL0     C46867   5.905  10.625   3.889 -0.1874  0.5159 -0.6735
  348MOL0     C46868   5.843  10.557   4.014 -0.6292  0.5102  0.5320
  348MOL0     O46869   5.739  10.639   4.077 -0.8090 -0.1275 -0.5478
  348MOL0     C46870   5.612  10.621   4.039  0.1117 -0.5235  0.3753
  348MOL0     C46871   5.558  10.493   4.002  0.2403 -0.0034  0.5408
  348MOL0     C46872   5.423  10.489   3.957 -0.1491  0.8474  0.2515
  348MOL0     C46873   5.376  10.357   3.908 -0.1516  0.1773 -0.6865
  348MOL0     C46874   5.340  10.605   3.967  0.4366  0.9070 -0.2158
  348MOL0     C46875   5.193  10.615   3.933 -0.2198 -0.5519  0.2543
  348MOL0     O46876   5.133  10.728   3.966  0.3529  0.1021  0.4884
  348MOL0     C46877   4.997  10.750   3.927 -0.1635 -0.0295  0.4778
  348MOL0     C46878   4.885  10.704   3.987 -0.1164 -0.1992 -0.2032
  348MOL0     C46879   4.758  10.732   3.948  1.1783 -0.0287  0.0486
  348MOL0     C46880   4.729  10.809   3.839  0.5287 -0.0550  0.4898
  348MOL0     O46881   4.601  10.838   3.782  0.5060  0.1371 -0.4056
  348MOL0     C46882   4.491  10.764   3.835  0.3254 -0.3161  0.3285
  348MOL0     C46883   4.380  10.818   3.753 -0.1448  0.7265  0.0097
  348MOL0     C46884   4.250  10.774   3.811 -1.2313  0.0409 -0.1913
  348MOL0     C46885   4.138  10.797   3.706 -0.6189 -0.1034 -0.0009
  348MOL0     C46886   4.010  10.733   3.756 -0.6429  0.6754 -0.3871
  348MOL0     C46887   3.898  10.760   3.661  0.9008  0.4908 -0.3547
  348MOL0     C46888   3.763  10.694   3.698  0.2636 -0.4181  0.3577
  348MOL0     C46889   3.733  10.702   3.847 -0.6274  0.5800  0.6624
  348MOL0    Cl46890   3.566  10.641   3.869  0.4237  0.2730 -0.1087
  348MOL0     C46891   4.842  10.847   3.762  1.1483 -0.3740  0.0521
  348MOL0     C46892   4.977  10.826   3.814 -1.3123  0.4634 -0.2440
  348MOL0     O46893   5.136  10.508   3.900 -0.0423 -0.7251  0.1889
  348MOL0     C46894   5.397  10.715   4.028 -0.0113 -0.4143  0.4893
  348MOL0     C46895   5.529  10.728   4.068 -0.2005 -0.1328  0.0443
  348MOL0     N46896   6.352  10.503   3.902  0.6171  0.9282  0.5256
  348MOL0     N46897   6.465  10.460   3.857 -0.3481 -0.5956 -0.6944
  348MOL0     C46898   7.598  10.597   3.763 -0.4659 -0.6883  1.0290
  348MOL0     C46899   7.739  10.609   3.788 -0.9979  0.1698  0.3885
  348MOL0     C46900   8.155  10.835   3.836 -0.5242  0.7756  0.3197
  348MOL0     C46901   8.209  10.969   3.852 -0.5084  0.4212  0.6042
  348MOL0     C46902   8.348  10.988   3.864 -0.1116  0.6216  0.8401
  348MOL0     C46903   8.431  10.877   3.861 -0.4614  0.2423 -1.1560
  348MOL0     O46904   8.571  10.876   3.865 -0.4929 -0.1342 -0.1123
  348MOL0     C46905   8.632  10.982   3.937 -0.0047 -0.0006 -0.8205
  348MOL0     C46906   8.623  10.989   4.096  0.3063 -0.3500 -1.5155
  348MOL0     C46907   8.697  10.862   4.145 -0.0137 -0.1723 -0.1804
  348MOL0     C46908   8.689  10.843   4.298  0.0773  0.3000 -0.3665
  348MOL0     C46909   8.555  10.794   4.338  0.4803  1.2335 -0.0590
  348MOL0     C46910   8.453  10.757   4.388 -0.5041  0.2119  0.0275
  348MOL0     C46911   8.375  10.754   3.837  0.7073 -0.3746 -0.9320
  348MOL0     C46912   8.240  10.728   3.818  0.7116  0.4444  0.4727
  348MOL0     H46913   7.816  10.886   3.619  0.0182 -1.5831 -2.1851
  348MOL0     H46914   7.583  10.884   3.588 -0.9771  0.1590  1.1813
  348MOL0     H46915   7.363  10.755   3.852  0.4352 -2.6175 -0.8442
  348MOL0     H46916   7.285  10.854   3.732  2.8595  0.0045 -2.5572
  348MOL0     H46917   7.239  10.559   3.815 -0.1551 -0.0083  1.3626
  348MOL0     H46918   7.140  10.694   3.866 -0.8150  0.4556  0.4021
  348MOL0     H46919   7.049  10.740   3.624  0.2870  0.0993 -1.4176
  348MOL0     H46920   7.140  10.604   3.573  2.5052  0.5439  1.0327
  348MOL0     H46921   7.011  10.461   3.726 -0.0561 -0.5112  0.8262
  348MOL0     H46922   6.931  10.618   3.794  0.3082 -0.7912 -0.2283
  348MOL0     H46923   6.840  10.637   3.538  1.5877  1.2353 -1.6385
  348MOL0     H46924   6.922  10.483   3.527  2.2697 -2.8054  4.2030
  348MOL0     H46925   6.766  10.401   3.720 -2.3781 -0.0857  0.4089
  348MOL0     H46926   6.728  10.564   3.747  1.2199 -2.6859  3.7934
  348MOL0     H46927   6.582  10.558   3.540 -1.1962  0.9074  0.0150
  348MOL0     H46928   6.668  10.414   3.485 -0.6083 -1.2721  0.3639
  348MOL0     H46929   6.590  10.277   3.665 -1.3790  0.1123  1.4414
  348MOL0     H46930   6.481  10.322   3.547  3.5904 -2.9113 -1.5991
  348MOL0     H46931   6.267  10.403   3.604  0.2815 -2.2122  0.6934
  348MOL0     H46932   6.065  10.476   3.736  2.0065  1.3060 -1.0534
  348MOL0     H46933   6.088  10.409   3.906 -1.0952  1.3040  1.1621
  348MOL0     H46934   6.096  10.700   3.808  1.0512  1.6910  2.0702
  348MOL0     H46935   6.101  10.666   3.976  0.9110 -1.2413 -0.3967
  348MOL0     H46936   5.855  10.588   3.798 -1.0095 -0.5936  0.1898
  348MOL0     H46937   5.875  10.729   3.901  0.5981  0.6840 -0.1323
  348MOL0     H46938   5.923  10.544   4.089  0.1139  0.7165 -0.2061
  348MOL0     H46939   5.808  10.458   3.985 -1.8091  0.3135  2.4876
  348MOL0     H46940   5.616  10.402   3.991  0.0081 -0.8396  4.5626
  348MOL0     H46941   5.311  10.307   3.980  0.0093  0.9375  0.0071
  348MOL0     H46942   5.319  10.377   3.817 -0.7502  3.9244  0.3498
  348MOL0     H46943   5.466  10.299   3.889 -0.1266 -0.4041  1.0396
  348MOL0     H46944   4.896  10.647   4.078  0.3683 -1.0860 -0.8021
  348MOL0     H46945   4.682  10.697   4.017  1.4263  0.5869  0.6412
  348MOL0     H46946   4.500  10.656   3.826  6.0372 -0.0132 -1.6253
  348MOL0     H46947   4.477  10.784   3.942  0.1731  0.9979  0.0811
  348MOL0     H46948   4.380  10.926   3.770  2.2335  0.4424  2.5346
  348MOL0     H46949   4.397  10.785   3.650  3.6929  0.1783  0.6584
  348MOL0     H46950   4.235  10.832   3.902 -2.5694 -0.8250  0.1854
  348MOL0     H46951   4.245  10.666   3.830 -1.9256 -0.1447 -1.3322
  348MOL0     H46952   4.133  10.905   3.691 -0.4901  0.2803  2.2732
  348MOL0     H46953   4.178  10.748   3.617  1.7724  0.1179  0.8783
  348MOL0     H46954   3.989  10.780   3.852  2.3679  0.6662  0.3747
  348MOL0     H46955   4.023  10.627   3.780  1.4236  1.5474  2.9652
  348MOL0     H46956   3.881  10.866   3.645 -0.7769  0.4167  0.7558
  348MOL0     H46957   3.930  10.721   3.563 -0.2876  0.4780 -0.7554
  348MOL0     H46958   3.766  10.590   3.664  0.5639 -0.3747  0.2474
  348MOL0     H46959   3.685  10.753   3.649  3.6418  4.2649 -0.0781
  348MOL0     H46960   3.734  10.808   3.875  0.6457  2.0625 -4.0730
  348MOL0     H46961   3.804  10.645   3.908 -0.0619 -1.0970 -1.4527
  348MOL0     H46962   4.832  10.897   3.667  0.5576  0.3115  0.4711
  348MOL0     H46963   5.058  10.879   3.764 -0.1076 -0.6785  0.4289
  348MOL0     H46964   5.339  10.806   4.043  0.3009 -0.6338  3.9286
  348MOL0     H46965   5.573  10.813   4.119 -0.7569 -0.6912  1.5002
  348MOL0     H46966   7.540  10.516   3.806 -2.8451  0.1080 -0.4621
  348MOL0     H46967   7.784  10.534   3.851  1.9444  1.4901  0.0023
  348MOL0     H46968   8.149  11.060   3.852 -0.2833  0.5912 -0.6560
  348MOL0     H46969   8.386  11.089   3.864 -0.2401  0.8304 -2.9736
  348MOL0     H46970   8.739  10.979   3.914  0.1864  2.1730 -0.4591
  348MOL0     H46971   8.601  11.080   3.897  2.2728  2.2979  2.4826
  348MOL0     H46972   8.516  10.988   4.117 -0.1026 -3.3217 -3.1872
  348MOL0     H46973   8.652  11.086   4.136 -0.9493  0.3971 -2.3415
  348MOL0     H46974   8.806  10.872   4.136  0.3036 -2.0172  0.9825
  348MOL0     H46975   8.674  10.772   4.088 -2.8473  1.6017 -2.0786
  348MOL0     H46976   8.725  10.930   4.352 -0.1221  1.3734 -1.9080
  348MOL0     H46977   8.756  10.761   4.326  0.9609  2.2278  4.0870
  348MOL0     H46978   8.363  10.728   4.437 -0.6327  2.5242  1.3397
  348MOL0     H46979   8.441  10.668   3.825  2.5430  1.0323 -1.3293
  348MOL0     H46980   8.216  10.623   3.814 -2.1487  0.8253  3.3473
  349MOL0     O46981   9.315   3.333   6.060 -1.2953 -0.7319 -0.3029
  349MOL0     C46982   9.252   3.337   6.170 -0.0808  0.8495  0.6446
  349MOL0     O46983   9.305   3.345   6.291 -0.1150 -0.4614 -0.2034
  349MOL0     C46984   9.442   3.358   6.292  0.2896  0.1593 -0.8158
  349MOL0     C46985   9.501   3.462   6.367 -0.7238  0.3541 -0.6972
  349MOL0     C46986   9.638   3.466   6.387 -0.2661  0.5645  0.3653
  349MOL0     C46987   9.723   3.358   6.363 -0.3129 -0.5480  0.4289
  349MOL0     O46988   9.857   3.365   6.386 -0.1986 -0.0164  0.0400
  349MOL0     C46989   9.933   3.249   6.357 -0.3071 -0.1043  0.0409
  349MOL0     C46990  10.067   3.265   6.428  0.1508  0.8591 -0.3617
  349MOL0     C46991  10.151   3.135   6.406  0.4708 -0.1584 -0.0391
  349MOL0     C46992  10.286   3.152   6.479  0.2722  1.0933 -1.1840
  349MOL0     C46993  10.374   3.037   6.464 -0.0492  0.6266  0.4566
  349MOL0     C46994  10.379   2.940   6.583 -0.1102  0.4765 -0.2429
  349MOL0     C46995  10.468   2.824   6.537  0.3533 -0.8061 -0.6833
  349MOL0     C46996  10.499   2.747   6.668 -0.6567  0.0536 -0.1418
  349MOL0     N46997  10.377   2.713   6.741 -0.3407  0.7909 -0.3830
  349MOL0     C46998  10.270   2.637   6.700  0.5734  0.8684 -0.5613
  349MOL0     C46999  10.170   2.665   6.787 -0.6440  0.4850  0.0270
  349MOL0     C47000  10.023   2.622   6.788 -0.3298  0.1468 -0.5495
  349MOL0     C47001   9.974   2.549   6.664  0.2712  0.6462 -0.6812
  349MOL0     C47002   9.819   2.533   6.652  0.2112  0.1208 -0.9807
  349MOL0     C47003   9.755   2.450   6.763  1.3535  0.4118 -0.7278
  349MOL0     O47004   9.780   2.317   6.731  0.4842  0.0165 -0.1846
  349MOL0     C47005   9.681   2.246   6.658  0.3847  0.3427 -0.4438
  349MOL0     C47006   9.693   2.107   6.659  0.2436  0.2920  1.2843
  349MOL0     C47007   9.596   2.029   6.595 -0.5310  0.6432  0.2271
  349MOL0     C47008   9.621   1.879   6.618  0.2501 -0.3250  0.1293
  349MOL0     C47009   9.495   2.091   6.513 -0.6009  0.0395 -0.0069
  349MOL0     C47010   9.403   2.018   6.428  0.8916 -0.8381  0.1225
  349MOL0     O47011   9.300   2.092   6.384  0.0568  0.1868  0.4821
  349MOL0     C47012   9.193   2.055   6.299 -0.3486 -0.4578 -0.2029
  349MOL0     C47013   9.124   2.150   6.215  1.0485  0.3636  0.0407
  349MOL0     C47014   9.008   2.113   6.144  0.1627 -0.2208  0.0431
  349MOL0     C47015   8.966   1.980   6.145 -0.2850  0.3522 -0.1713
  349MOL0     O47016   8.852   1.930   6.079 -0.5537  0.2795 -0.1697
  349MOL0     C47017   8.747   1.872   6.158 -0.8473 -0.2903  0.5403
  349MOL0     C47018   8.672   1.971   6.245  0.1296 -0.7245 -0.4743
  349MOL0     C47019   8.591   2.073   6.159 -0.0632  0.2703 -0.0069
  349MOL0     C47020   8.516   2.167   6.250  0.2959  0.3373  0.3560
  349MOL0     C47021   8.424   2.266   6.179 -0.2989  0.5969 -0.6961
  349MOL0     C47022   8.383   2.364   6.290  0.8363  0.9490 -0.6453
  349MOL0     C47023   8.270   2.456   6.241 -0.7132  0.3353  0.5496
  349MOL0     C47024   8.192   2.499   6.362 -0.5456  0.0091  0.1468
  349MOL0    Cl47025   8.286   2.585   6.487 -0.2239  0.4758  0.7357
  349MOL0     C47026   9.045   1.890   6.216 -0.5342  0.1524 -0.2077
  349MOL0     C47027   9.149   1.929   6.297  0.2657  0.0780  0.5149
  349MOL0     O47028   9.425   1.903   6.408 -0.2754 -0.0183 -0.4350
  349MOL0     C47029   9.479   2.233   6.524  1.0439  0.4525 -0.1716
  349MOL0     C47030   9.571   2.304   6.599 -0.4591  0.6304 -0.0630
  349MOL0     N47031  10.221   2.727   6.899  0.4837 -0.2196  0.4147
  349MOL0     N47032  10.346   2.763   6.863 -0.3245  0.1035 -0.1938
  349MOL0     C47033   9.665   3.257   6.281 -0.3391  1.0576  0.0119
  349MOL0     C47034   9.532   3.257   6.245  0.1702 -0.4610 -0.1705
  349MOL0     C47035   9.103   3.319   6.163  0.2686  0.5690  0.0387
  349MOL0     C47036   9.014   3.332   6.274  0.2545  0.1342  0.3420
  349MOL0     C47037   8.877   3.322   6.260  0.4448  0.4264  0.1797
  349MOL0     C47038   8.824   3.300   6.129  0.3051 -0.1961  0.1741
  349MOL0     O47039   8.687   3.294   6.125  0.0651  0.9395  0.0671
  349MOL0     C47040   8.615   3.311   6.000 -0.7481  0.2219 -0.4740
  349MOL0     C47041   8.478   3.377   6.019 -0.1246  0.3314  0.1891
  349MOL0     C47042   8.509   3.518   6.051  0.3854  0.1029 -0.4158
  349MOL0     C47043   8.375   3.601   6.084 -0.4491  0.3265  0.8585
  349MOL0     C47044   8.292   3.547   6.192  0.3820 -1.0472  0.2828
  349MOL0     C47045   8.211   3.509   6.281 -0.1195  0.3261  0.5567
  349MOL0     C47046   8.911   3.292   6.019 -0.3147  0.4642 -0.5759
  349MOL0     C47047   9.050   3.303   6.041  0.3910 -0.1355 -0.0779
  349MOL0     H47048   9.443   3.544   6.410  1.7587  0.5369  2.7573
  349MOL0     H47049   9.689   3.543   6.444 -0.6527  0.0109  1.4843
  349MOL0     H47050   9.886   3.160   6.401 -0.5570 -0.1726 -0.3620
  349MOL0     H47051   9.954   3.240   6.250 -2.2393  1.5752 -0.5452
  349MOL0     H47052  10.128   3.349   6.393  2.4582 -0.6715 -0.2729
  349MOL0     H47053  10.051   3.263   6.536 -3.3385 -0.7070 -0.7808
  349MOL0     H47054  10.088   3.055   6.444 -0.3181  0.8976  0.9797
  349MOL0     H47055  10.174   3.118   6.300 -0.6232  0.2763 -0.3601
  349MOL0     H47056  10.343   3.237   6.438  0.4674  1.2019 -0.6954
  349MOL0     H47057  10.274   3.174   6.586  1.3946  1.7428 -1.1734
  349MOL0     H47058  10.342   2.969   6.384  1.7856 -2.5338  2.1791
  349MOL0     H47059  10.476   3.073   6.445 -0.1771  0.4884 -0.5326
  349MOL0     H47060  10.422   2.989   6.671 -0.3530  2.9997 -1.4199
  349MOL0     H47061  10.275   2.908   6.597  0.1434  0.4392  1.8559
  349MOL0     H47062  10.419   2.751   6.473 -0.8513 -0.4293 -0.2290
  349MOL0     H47063  10.557   2.866   6.490  1.0382  2.7716  3.1515
  349MOL0     H47064  10.567   2.801   6.734  0.7097  0.2643 -1.6300
  349MOL0     H47065  10.559   2.658   6.644  2.7449  1.4335  2.4343
  349MOL0     H47066  10.248   2.579   6.611 -1.1413 -2.3955  1.7760
  349MOL0     H47067  10.014   2.564   6.881  2.1555 -1.9697 -1.4793
  349MOL0     H47068   9.964   2.714   6.781  1.0067  0.9289 -2.1729
  349MOL0     H47069  10.014   2.449   6.652  0.3153  0.8930 -3.1624
  349MOL0     H47070  10.013   2.604   6.578 -1.2197  0.2847 -1.6427
  349MOL0     H47071   9.795   2.490   6.554 -0.7262  0.6365 -0.9866
  349MOL0     H47072   9.784   2.636   6.655  0.7738  0.3133 -0.8508
  349MOL0     H47073   9.648   2.467   6.777  1.0096 -1.5167 -0.6924
  349MOL0     H47074   9.801   2.466   6.861  0.4370  0.0521 -0.2273
  349MOL0     H47075   9.773   2.059   6.714  1.1835 -0.7009 -0.8265
  349MOL0     H47076   9.689   1.872   6.703 -0.0949  3.2300  0.8584
  349MOL0     H47077   9.526   1.826   6.631  1.4836 -3.3502 -2.0380
  349MOL0     H47078   9.655   1.836   6.523 -0.9610 -0.1699 -0.4017
  349MOL0     H47079   9.162   2.249   6.196 -0.2543  1.0096  0.6644
  349MOL0     H47080   8.944   2.183   6.091 -1.4896 -0.5071  1.5578
  349MOL0     H47081   8.673   1.827   6.090  0.4288  0.6278 -1.5557
  349MOL0     H47082   8.783   1.788   6.218  1.1202  1.0914  1.3848
  349MOL0     H47083   8.604   1.916   6.310 -3.2212  0.9839 -2.2871
  349MOL0     H47084   8.745   2.028   6.303 -1.0781  1.9422 -1.3963
  349MOL0     H47085   8.521   2.018   6.095 -0.4056 -2.5070  2.5840
  349MOL0     H47086   8.659   2.135   6.099 -0.2607  0.5499  0.0519
  349MOL0     H47087   8.455   2.109   6.321  0.5681 -1.1001 -0.5449
  349MOL0     H47088   8.586   2.220   6.316  0.5220  0.1351  0.2789
  349MOL0     H47089   8.341   2.221   6.124  1.5159 -2.8338 -0.8660
  349MOL0     H47090   8.484   2.329   6.112  0.5807  2.1804  1.4710
  349MOL0     H47091   8.342   2.301   6.369  0.8475 -1.2005 -2.2794
  349MOL0     H47092   8.466   2.431   6.316  1.1544  0.3934 -0.2274
  349MOL0     H47093   8.213   2.419   6.155 -2.1568  1.0177  1.1787
  349MOL0     H47094   8.306   2.551   6.200  0.8071 -1.1333 -1.7400
  349MOL0     H47095   8.153   2.407   6.408  0.0172 -1.1960 -1.6922
  349MOL0     H47096   8.111   2.564   6.328 -0.6610  0.1077  0.6075
  349MOL0     H47097   9.011   1.787   6.225  0.4039 -0.1976 -0.5662
  349MOL0     H47098   9.190   1.849   6.359  0.9023 -0.1875 -0.2207
  349MOL0     H47099   9.395   2.273   6.469 -1.2745 -3.9221 -0.2163
  349MOL0     H47100   9.555   2.412   6.600  0.5553  0.8029 -0.5864
  349MOL0     H47101   9.724   3.172   6.251 -1.2639  0.6668 -0.7350
  349MOL0     H47102   9.501   3.175   6.180 -0.1094 -1.7360  1.4996
  349MOL0     H47103   9.057   3.356   6.371  0.6706 -4.2942  1.4543
  349MOL0     H47104   8.810   3.334   6.345  2.4631  1.8578  1.6576
  349MOL0     H47105   8.686   3.373   5.943  1.5086 -1.6925  0.0745
  349MOL0     H47106   8.599   3.216   5.948 -0.7253 -0.3570  0.5449
  349MOL0     H47107   8.421   3.324   6.096 -2.9610  0.1231 -1.8929
  349MOL0     H47108   8.416   3.372   5.929 -1.6294 -0.8972  1.2288
  349MOL0     H47109   8.555   3.559   5.961  1.5324 -1.5144 -0.6069
  349MOL0     H47110   8.580   3.531   6.133  1.4246 -0.5911 -1.1824
  349MOL0     H47111   8.324   3.618   5.989  2.5076  2.0219 -0.5760
  349MOL0     H47112   8.405   3.701   6.115 -0.0852  0.4682  0.0877
  349MOL0     H47113   8.153   3.483   6.368 -0.9045  0.1955  0.0081
  349MOL0     H47114   8.868   3.276   5.921  1.0016 -0.1335 -1.0735
  349MOL0     H47115   9.105   3.293   5.949 -1.7430  0.0672 -1.4471
  350MOL0     O47116   3.568   5.364   6.215  0.6148 -0.8042 -0.0481
  350MOL0     C47117   3.611   5.483   6.189 -0.0110 -0.0454  0.0887
  350MOL0     O47118   3.545   5.602   6.207 -0.6167 -0.4337 -0.0497
  350MOL0     C47119   3.410   5.588   6.216  0.1316 -0.8658 -1.4244
  350MOL0     C47120   3.355   5.572   6.345  0.8445  0.1285 -0.1832
  350MOL0     C47121   3.213   5.577   6.363  0.0947 -0.3754  0.0218
  350MOL0     C47122   3.127   5.603   6.260  0.0685 -0.5012  0.1095
  350MOL0     O47123   2.995   5.635   6.286 -0.4897  0.4026 -0.4555
  350MOL0     C47124   2.904   5.641   6.187  0.5200 -0.0330  0.3668
  350MOL0     C47125   2.759   5.625   6.238  0.9514  0.5256  0.0187
  350MOL0     C47126   2.665   5.743   6.203 -0.0789  0.6853 -0.4650
  350MOL0     C47127   2.520   5.723   6.255  0.4001 -0.9853 -0.3871
  350MOL0     C47128   2.421   5.832   6.196  0.1997 -0.7235  0.4928
  350MOL0     C47129   2.382   5.786   6.059  0.5804 -0.1497 -0.3658
  350MOL0     C47130   2.288   5.887   5.979 -0.3593 -0.3117  0.5679
  350MOL0     C47131   2.152   5.893   6.022 -0.3494 -1.0638 -0.2501
  350MOL0     N47132   2.048   5.967   5.943 -0.9909 -0.9882  0.3419
  350MOL0     C47133   1.918   5.944   5.958 -0.3712 -0.5064 -0.3761
  350MOL0     C47134   1.852   6.042   5.881 -0.3140  0.0404  0.0302
  350MOL0     C47135   1.703   6.075   5.883  0.5028 -0.7633 -0.5750
  350MOL0     C47136   1.604   5.953   5.852  0.7144  1.1945 -0.7773
  350MOL0     C47137   1.473   5.984   5.774 -0.2491  0.2203 -0.3934
  350MOL0     C47138   1.388   6.077   5.858  0.1322 -0.2307  0.3796
  350MOL0     O47139   1.264   6.115   5.793  0.4998  0.9923 -0.1865
  350MOL0     C47140   1.150   6.112   5.865 -0.5430  0.1682 -0.8180
  350MOL0     C47141   1.140   6.176   5.986 -0.3430 -0.3871  0.4516
  350MOL0     C47142   1.019   6.199   6.050 -0.0558 -0.8595  0.3666
  350MOL0     C47143   1.023   6.290   6.170 -0.6293 -0.4628 -0.0841
  350MOL0     C47144   0.906   6.133   6.002  0.2701  0.3868 -0.4362
  350MOL0     C47145   0.780   6.128   6.073  0.4448  0.2747 -0.9063
  350MOL0     O47146   0.669   6.127   5.995  1.0067 -0.3170 -0.1425
  350MOL0     C47147   0.539   6.122   6.050  0.1490 -0.4993 -0.0073
  350MOL0     C47148   0.478   6.250   6.054 -0.3841  0.0231 -0.7146
  350MOL0     C47149   0.346   6.246   6.103  0.1695  0.5115 -0.1092
  350MOL0     C47150   0.276   6.128   6.141 -0.0521 -0.1534  0.7963
  350MOL0     O47151   0.148   6.142   6.195  0.0320  0.0370 -0.4644
  350MOL0     C47152   0.111   6.042   6.289 -0.0273  0.6304  0.8405
  350MOL0     C47153  -0.012   6.075   6.365 -0.9818 -0.4517 -0.0705
  350MOL0     C47154  -0.143   6.086   6.283  0.5655 -0.0876  0.1545
  350MOL0     C47155  -0.269   6.132   6.364 -0.3423  0.1966 -0.2807
  350MOL0     C47156  -0.322   6.034   6.472 -1.4880 -0.0513  0.8422
  350MOL0     C47157  -0.427   6.093   6.577 -0.3408 -0.0258 -0.0050
  350MOL0     C47158  -0.529   5.986   6.615 -0.7597 -0.3271 -0.4795
  350MOL0     C47159  -0.567   6.012   6.764 -0.1322 -0.6528  0.3552
  350MOL0    Cl47160  -0.691   6.141   6.769 -0.1549  0.2268 -0.3719
  350MOL0     C47161   0.349   6.008   6.140 -0.6224  0.4530 -0.6062
  350MOL0     C47162   0.481   6.007   6.088  0.9570  1.6085 -1.0880
  350MOL0     O47163   0.780   6.113   6.201  0.7642  0.9510  0.0724
  350MOL0     C47164   0.916   6.064   5.881  0.3402 -0.5350 -0.4090
  350MOL0     C47165   1.038   6.056   5.813  0.1681 -0.2807  0.4873
  350MOL0     N47166   1.949   6.130   5.831 -0.8273  0.4141  0.1529
  350MOL0     N47167   2.061   6.079   5.868 -1.0025 -0.0825 -0.3851
  350MOL0     C47168   3.188   5.619   6.127 -0.4217 -0.3826 -0.1080
  350MOL0     C47169   3.327   5.617   6.109  0.1608  0.2301  0.1531
  350MOL0     C47170   3.748   5.496   6.146  0.1796  0.3336 -0.1581
  350MOL0     C47171   3.846   5.396   6.163  0.6672 -0.0722 -0.3553
  350MOL0     C47172   3.981   5.412   6.130  0.2632  0.0614  0.6765
  350MOL0     C47173   4.024   5.533   6.089 -0.0545 -0.0614  0.0755
  350MOL0     O47174   4.162   5.546   6.086 -0.1737  0.0629 -0.0596
  350MOL0     C47175   4.220   5.678   6.105  0.0318  0.4282 -0.6733
  350MOL0     C47176   4.207   5.735   6.241 -0.3380 -0.5315 -0.5032
  350MOL0     C47177   4.276   5.656   6.354  0.1089 -0.0690  0.5489
  350MOL0     C47178   4.428   5.666   6.367 -0.6264 -0.4825  0.3988
  350MOL0     C47179   4.489   5.584   6.472  0.7945 -0.0743 -0.6693
  350MOL0     C47180   4.532   5.534   6.574 -0.3284  0.9469 -0.0072
  350MOL0     C47181   3.931   5.633   6.070  0.3030 -0.4143 -0.3446
  350MOL0     C47182   3.797   5.613   6.083  0.1574 -0.1613 -0.9909
  350MOL0     H47183   3.411   5.556   6.437  0.0601 -2.0813 -0.0461
  350MOL0     H47184   3.177   5.546   6.460  3.2499  1.1045  1.8438
  350MOL0     H47185   2.918   5.741   6.143 -1.9405  1.2134  2.1605
  350MOL0     H47186   2.919   5.563   6.113  1.6574  0.9734 -0.4994
  350MOL0     H47187   2.717   5.528   6.209  4.4085 -1.3869  0.8581
  350MOL0     H47188   2.767   5.623   6.347 -0.1774  1.9358  0.1536
  350MOL0     H47189   2.712   5.837   6.233 -1.0546  1.1908 -0.4804
  350MOL0     H47190   2.676   5.746   6.094  1.5570 -0.1357 -0.3641
  350MOL0     H47191   2.489   5.623   6.224 -1.6520 -1.0043  1.4324
  350MOL0     H47192   2.521   5.715   6.364 -1.2195 -1.1814 -0.3610
  350MOL0     H47193   2.326   5.849   6.248  1.0117  4.2594  0.8493
  350MOL0     H47194   2.470   5.930   6.206  0.7235 -1.0391  1.0318
  350MOL0     H47195   2.471   5.761   6.001 -0.7994 -3.1867 -1.4209
  350MOL0     H47196   2.324   5.694   6.072  0.5992 -0.4330 -2.0697
  350MOL0     H47197   2.339   5.984   5.977  0.2724 -0.5797  2.1850
  350MOL0     H47198   2.281   5.846   5.878 -0.6003 -0.7790  0.7715
  350MOL0     H47199   2.150   5.932   6.124 -0.8330 -0.1587 -0.5940
  350MOL0     H47200   2.112   5.791   6.015  1.0685 -1.8052  1.6517
  350MOL0     H47201   1.857   5.867   6.005 -1.4977 -0.0874 -1.0962
  350MOL0     H47202   1.680   6.111   5.984  0.8085 -3.5874  0.6021
  350MOL0     H47203   1.697   6.164   5.820 -0.5496  0.7116  1.4777
  350MOL0     H47204   1.575   5.901   5.943 -0.6684  2.9866 -0.1362
  350MOL0     H47205   1.649   5.869   5.798  2.1854  0.9134  0.7885
  350MOL0     H47206   1.418   5.892   5.753  0.2507 -0.5448  1.4041
  350MOL0     H47207   1.497   6.023   5.675  1.5801 -1.1635 -0.5578
  350MOL0     H47208   1.445   6.166   5.884 -0.9348  0.4924  0.3031
  350MOL0     H47209   1.363   6.019   5.948 -2.9711 -1.6081 -1.2043
  350MOL0     H47210   1.225   6.223   6.035 -1.6995  1.6050  0.9766
  350MOL0     H47211   1.015   6.241   6.267 -0.5919 -0.9634 -0.3306
  350MOL0     H47212   1.112   6.355   6.176  0.5671 -2.0382 -0.0507
  350MOL0     H47213   0.931   6.349   6.170 -1.1315 -1.2121  1.2934
  350MOL0     H47214   0.524   6.342   6.021 -0.7783  0.1655 -0.8800
  350MOL0     H47215   0.296   6.341   6.114  2.5190  1.6837  1.3494
  350MOL0     H47216   0.101   5.948   6.234  0.2946  1.7772 -1.2828
  350MOL0     H47217   0.199   6.037   6.354 -0.9029  2.1525  2.2093
  350MOL0     H47218  -0.002   6.006   6.449 -0.0723  1.0649  1.1228
  350MOL0     H47219   0.000   6.170   6.418 -0.8799 -0.1716 -0.5906
  350MOL0     H47220  -0.161   5.995   6.226  1.5741  0.5915 -1.3513
  350MOL0     H47221  -0.121   6.154   6.199  0.2528 -2.6877 -2.1647
  350MOL0     H47222  -0.236   6.218   6.423  1.0949 -0.8270  0.4627
  350MOL0     H47223  -0.351   6.157   6.296 -0.6009 -1.8855 -0.7975
  350MOL0     H47224  -0.255   5.975   6.535 -1.1246 -2.1996 -1.4483
  350MOL0     H47225  -0.370   5.958   6.410  1.8024 -0.0042 -2.0171
  350MOL0     H47226  -0.373   6.142   6.658 -0.3163 -2.1797  1.3585
  350MOL0     H47227  -0.476   6.171   6.517  3.7017  0.9591 -2.3821
  350MOL0     H47228  -0.488   5.885   6.616 -0.5401 -0.2862  2.4418
  350MOL0     H47229  -0.618   5.989   6.552 -0.3436 -1.0720 -1.1225
  350MOL0     H47230  -0.479   6.051   6.815 -0.0889  0.6574 -0.6686
  350MOL0     H47231  -0.598   5.915   6.806 -0.0118  0.2350  2.6519
  350MOL0     H47232   0.313   5.913   6.179  0.8245  1.3439  3.4814
  350MOL0     H47233   0.538   5.915   6.083 -1.9775 -0.5010  0.7177
  350MOL0     H47234   0.827   6.015   5.843  0.2325 -1.9616  1.5399
  350MOL0     H47235   1.040   6.008   5.715 -1.7454 -1.2014  0.8489
  350MOL0     H47236   3.131   5.635   6.036  0.5862 -1.9087 -1.0564
  350MOL0     H47237   3.378   5.621   6.014  0.2637  1.6053  0.2476
  350MOL0     H47238   3.832   5.293   6.195 -0.7411 -0.0035 -0.6756
  350MOL0     H47239   4.047   5.327   6.148  0.3220  0.0790  0.5497
  350MOL0     H47240   4.326   5.656   6.088 -0.2263 -2.3703  0.7283
  350MOL0     H47241   4.180   5.746   6.029 -0.1462  0.9885 -0.0902
  350MOL0     H47242   4.102   5.756   6.266  0.1349  1.6829 -0.0916
  350MOL0     H47243   4.264   5.829   6.244 -0.0735 -0.5892 -2.5738
  350MOL0     H47244   4.265   5.548   6.338 -0.8454  0.3683 -2.3653
  350MOL0     H47245   4.220   5.676   6.446 -2.4660  0.4535 -1.0287
  350MOL0     H47246   4.463   5.765   6.400  1.4711 -0.4044 -1.7406
  350MOL0     H47247   4.472   5.659   6.268  1.1866 -2.4058  1.2726
  350MOL0     H47248   4.559   5.502   6.673 -2.8446  1.2022  0.8264
  350MOL0     H47249   3.967   5.733   6.045  1.2027 -0.3092  1.2148
  350MOL0     H47250   3.737   5.703   6.076  1.3087  0.7552  0.3565
  351MOL0     O47251   3.202   2.552   7.929  1.1924 -0.1249  0.2060
  351MOL0     C47252   3.255   2.447   7.971 -0.0575 -0.0169  0.7617
  351MOL0     O47253   3.199   2.338   8.011  0.0779  0.4578  0.0932
  351MOL0     C47254   3.057   2.330   8.006 -0.0573 -0.1087  0.2957
  351MOL0     C47255   3.000   2.208   7.948 -0.0031 -0.1374  0.2864
  351MOL0     C47256   2.868   2.184   7.940  0.5334 -0.0528 -0.1587
  351MOL0     C47257   2.772   2.277   7.993  0.0240  0.1072 -0.5221
  351MOL0     O47258   2.637   2.238   7.991  0.7497  0.0732 -0.1330
  351MOL0     C47259   2.554   2.295   8.091  0.4446  0.3978  0.2967
  351MOL0     C47260   2.422   2.222   8.091 -0.1608 -0.5986  0.1007
  351MOL0     C47261   2.316   2.308   8.155  0.7351 -0.5651  0.0091
  351MOL0     C47262   2.171   2.237   8.147  0.6280  0.0258  0.0887
  351MOL0     C47263   2.052   2.307   8.206 -0.1956  0.6194  0.1021
  351MOL0     C47264   2.070   2.363   8.344  0.2066 -0.5189  0.2535
  351MOL0     C47265   1.939   2.442   8.391  0.1050  0.1578  0.1017
  351MOL0     C47266   1.950   2.507   8.529  0.0016 -0.1979 -0.5847
  351MOL0     N47267   1.824   2.565   8.575  0.9722  0.2310  0.2406
  351MOL0     C47268   1.753   2.664   8.518  0.6042  0.7852 -0.4033
  351MOL0     C47269   1.650   2.699   8.592 -0.1757 -0.3476 -0.8167
  351MOL0     C47270   1.549   2.812   8.556  0.3170 -0.2449 -0.1293
  351MOL0     C47271   1.403   2.774   8.601  0.7484  0.8888  0.2358
  351MOL0     C47272   1.356   2.642   8.540 -0.1121  0.4729  0.0610
  351MOL0     C47273   1.209   2.629   8.534 -0.0158 -0.1150  0.5163
  351MOL0     O47274   1.174   2.633   8.673  0.0505 -0.1186 -0.0704
  351MOL0     C47275   1.039   2.612   8.702  0.6838  0.1356 -0.2561
  351MOL0     C47276   0.925   2.591   8.613 -0.0089 -0.1990 -0.9428
  351MOL0     C47277   0.793   2.597   8.664 -0.0635  0.0157  0.4565
  351MOL0     C47278   0.679   2.573   8.570 -1.1593  0.3915 -0.0886
  351MOL0     C47279   0.769   2.619   8.803 -0.7788 -0.2229  0.6948
  351MOL0     C47280   0.635   2.615   8.876  0.0894 -0.4509 -0.1653
  351MOL0     O47281   0.635   2.649   9.016 -0.0697 -0.5255  0.0085
  351MOL0     C47282   0.523   2.621   9.087  1.1888  0.0779 -0.1531
  351MOL0     C47283   0.440   2.729   9.133  0.1497  0.3640 -0.4120
  351MOL0     C47284   0.332   2.700   9.216  0.0000  0.3198 -0.0015
  351MOL0     C47285   0.296   2.559   9.241  1.2970 -0.7226 -0.1946
  351MOL0     O47286   0.170   2.532   9.297 -0.3165  0.1045 -0.5905
  351MOL0     C47287   0.154   2.403   9.362  1.2102  0.0687  0.1700
  351MOL0     C47288   0.061   2.410   9.484 -0.4578  0.0826 -0.0831
  351MOL0     C47289  -0.087   2.417   9.449  0.2790  0.5434  0.5357
  351MOL0     C47290  -0.159   2.474   9.570 -0.1187 -0.0665  0.0065
  351MOL0     C47291  -0.309   2.447   9.572  1.4092  0.0659  0.4735
  351MOL0     C47292  -0.382   2.554   9.490 -0.4791 -0.0474  0.5717
  351MOL0     C47293  -0.533   2.539   9.478  0.2995  0.0704  0.1717
  351MOL0     C47294  -0.564   2.443   9.359 -0.1358 -0.5132 -0.1361
  351MOL0    Cl47295  -0.723   2.376   9.394  0.0926  0.0366  0.2869
  351MOL0     C47296   0.379   2.460   9.197 -0.1549 -1.0239 -0.8836
  351MOL0     C47297   0.495   2.485   9.123  0.0507 -0.3671  1.5998
  351MOL0     O47298   0.537   2.578   8.818 -0.6085  0.5783  0.8791
  351MOL0     C47299   0.884   2.647   8.884  1.8634 -0.3293 -0.0122
  351MOL0     C47300   1.007   2.633   8.834 -0.3491  0.6860  0.4877
  351MOL0     N47301   1.657   2.619   8.701  0.4401 -0.0550  0.6913
  351MOL0     N47302   1.756   2.528   8.688 -0.8940  0.1410  0.4384
  351MOL0     C47303   2.821   2.394   8.051  0.5803 -0.4245  0.6078
  351MOL0     C47304   2.960   2.421   8.060  0.3684  0.5850 -0.5021
  351MOL0     C47305   3.401   2.448   7.980 -0.2131  0.2823 -0.1073
  351MOL0     C47306   3.469   2.567   7.967  0.3080 -0.3740  0.2092
  351MOL0     C47307   3.611   2.570   7.969  0.5473  0.3455 -0.7321
  351MOL0     C47308   3.684   2.449   7.987 -0.6615  0.7135  0.5529
  351MOL0     O47309   3.816   2.471   7.989 -0.1452 -0.2314 -0.5147
  351MOL0     C47310   3.908   2.373   7.952 -0.2654 -0.3370 -0.7390
  351MOL0     C47311   4.053   2.427   7.990  0.1610 -0.0180  0.3928
  351MOL0     C47312   4.074   2.440   8.138 -0.0311  1.0960  1.1022
  351MOL0     C47313   4.195   2.513   8.176 -0.3424  0.9450 -0.5135
  351MOL0     C47314   4.201   2.653   8.139  0.3166  0.3625 -0.1124
  351MOL0     C47315   4.190   2.771   8.107  0.2270  0.2501 -0.5292
  351MOL0     C47316   3.619   2.328   8.004 -0.3120  0.3482  1.1226
  351MOL0     C47317   3.475   2.327   8.002  0.3179 -0.6555 -0.3671
  351MOL0     H47318   3.066   2.129   7.916  3.0127  2.0353  0.7340
  351MOL0     H47319   2.820   2.103   7.887 -0.5924  2.2095 -2.8225
  351MOL0     H47320   2.597   2.287   8.191  0.8831  0.7619  0.1446
  351MOL0     H47321   2.539   2.402   8.075 -0.9828  0.0233 -1.1126
  351MOL0     H47322   2.391   2.182   7.994 -1.8627 -2.7363  1.4333
  351MOL0     H47323   2.446   2.128   8.140  2.1204 -0.6393 -0.9934
  351MOL0     H47324   2.337   2.303   8.262 -1.5492 -3.4280  0.4458
  351MOL0     H47325   2.318   2.413   8.125 -0.1768 -0.0181  1.7129
  351MOL0     H47326   2.142   2.229   8.041  0.4577 -2.2491  0.2679
  351MOL0     H47327   2.187   2.141   8.195 -1.9944  0.2352  1.6085
  351MOL0     H47328   2.037   2.391   8.139 -0.3192  0.5168 -0.0005
  351MOL0     H47329   1.966   2.239   8.205  1.3227 -1.4156 -1.4084
  351MOL0     H47330   2.091   2.283   8.415 -0.7482 -0.3087  0.7809
  351MOL0     H47331   2.156   2.430   8.348 -0.4456  0.2636  1.4075
  351MOL0     H47332   1.924   2.523   8.318 -0.2235  0.8207  0.8897
  351MOL0     H47333   1.857   2.370   8.384 -2.0340  2.3136  1.5278
  351MOL0     H47334   2.018   2.591   8.520  0.1890 -0.5310 -3.1338
  351MOL0     H47335   1.972   2.428   8.602  3.0526  1.1798  0.1289
  351MOL0     H47336   1.786   2.692   8.418  0.1130 -0.4914 -0.9384
  351MOL0     H47337   1.585   2.900   8.611  4.1760 -0.1218 -2.5025
  351MOL0     H47338   1.536   2.832   8.450 -0.1376  0.8958  0.1196
  351MOL0     H47339   1.338   2.857   8.575  1.7964  1.1886 -1.5980
  351MOL0     H47340   1.411   2.763   8.710  1.7372  0.0469  0.1001
  351MOL0     H47341   1.400   2.559   8.597  1.2712 -1.3089 -3.2957
  351MOL0     H47342   1.404   2.644   8.442 -0.4299  0.8440 -0.0893
  351MOL0     H47343   1.179   2.530   8.500  0.9535 -0.5470  0.8820
  351MOL0     H47344   1.170   2.709   8.470  1.4662  0.1305 -0.1187
  351MOL0     H47345   0.936   2.569   8.507  3.9731 -0.6664 -0.6028
  351MOL0     H47346   0.712   2.561   8.466 -1.3883 -3.0221  0.1468
  351MOL0     H47347   0.620   2.486   8.598  0.3730 -1.0463 -1.0995
  351MOL0     H47348   0.615   2.662   8.570 -1.2128  0.3539 -0.3551
  351MOL0     H47349   0.463   2.829   9.098 -0.3967 -0.4013 -3.2656
  351MOL0     H47350   0.271   2.786   9.242 -0.5095  0.3756 -1.2970
  351MOL0     H47351   0.121   2.328   9.290  1.0950  0.3528 -0.0764
  351MOL0     H47352   0.243   2.356   9.407 -0.0874 -1.3477  1.3584
  351MOL0     H47353   0.088   2.321   9.542  0.1248  0.3425  0.0579
  351MOL0     H47354   0.095   2.495   9.544 -0.1507  0.1096 -0.2920
  351MOL0     H47355  -0.132   2.322   9.418  3.0383 -0.0412 -2.2716
  351MOL0     H47356  -0.097   2.486   9.364  0.1334  2.4327  2.0064
  351MOL0     H47357  -0.119   2.438   9.665 -3.0089  1.9449  2.1636
  351MOL0     H47358  -0.132   2.579   9.579 -0.9101 -0.0540  4.1443
  351MOL0     H47359  -0.356   2.452   9.670 -0.7902 -0.7523 -0.4755
  351MOL0     H47360  -0.330   2.349   9.527  0.2258 -0.1433  1.4372
  351MOL0     H47361  -0.378   2.648   9.547 -3.6715 -0.4041  1.5475
  351MOL0     H47362  -0.327   2.567   9.396  0.0115 -3.1593  0.3483
  351MOL0     H47363  -0.572   2.641   9.471  1.5607  0.4726 -1.6219
  351MOL0     H47364  -0.572   2.491   9.568 -3.6522  0.2913 -1.2638
  351MOL0     H47365  -0.495   2.358   9.355 -2.0638 -2.1829  0.1194
  351MOL0     H47366  -0.559   2.495   9.263 -0.6137  1.3329  0.7877
  351MOL0     H47367   0.339   2.360   9.207  0.4165 -1.1352  0.4900
  351MOL0     H47368   0.554   2.401   9.089  0.4676 -0.4959  2.6248
  351MOL0     H47369   0.865   2.682   8.985 -0.9574 -0.9115 -0.2704
  351MOL0     H47370   1.080   2.666   8.906  0.4480  0.0841 -0.0306
  351MOL0     H47371   2.757   2.475   8.087  1.5782  0.5197  0.3093
  351MOL0     H47372   2.996   2.518   8.094 -1.2511  0.5580  1.4996
  351MOL0     H47373   3.415   2.661   7.952  1.0927  0.1526  0.6119
  351MOL0     H47374   3.658   2.666   7.952  2.6469 -0.5906 -0.5071
  351MOL0     H47375   3.892   2.277   8.001 -0.8216 -0.0207 -0.2895
  351MOL0     H47376   3.901   2.355   7.844 -0.3040  1.1907 -1.0191
  351MOL0     H47377   4.069   2.522   7.938 -0.1405 -0.8423 -1.2916
  351MOL0     H47378   4.131   2.358   7.956  2.1002  1.5634  1.4330
  351MOL0     H47379   4.084   2.336   8.170  1.8819 -0.6360 -4.1685
  351MOL0     H47380   3.987   2.494   8.176  0.7483  1.2220  2.8118
  351MOL0     H47381   4.277   2.458   8.130 -0.9145 -1.0927  0.7597
  351MOL0     H47382   4.218   2.510   8.283 -1.2517 -3.0883 -0.2754
  351MOL0     H47383   4.170   2.873   8.085  0.2096  0.0914 -1.2607
  351MOL0     H47384   3.679   2.239   8.019 -1.9187 -1.2596 -1.2920
  351MOL0     H47385   3.418   2.243   8.042  3.8338 -2.9129  0.3446
  352MOL0     O47386   7.171   3.240   5.219 -0.0456 -0.2908  0.3093
  352MOL0     C47387   7.189   3.205   5.340 -0.5774  0.4422  0.1917
  352MOL0     O47388   7.105   3.235   5.441  0.5639 -0.0951 -0.3217
  352MOL0     C47389   6.979   3.288   5.433 -0.0121  0.5346 -0.8531
  352MOL0     C47390   6.916   3.288   5.553  0.4432  0.7633  0.3067
  352MOL0     C47391   6.790   3.337   5.572 -0.4079 -0.1560 -0.0444
  352MOL0     C47392   6.703   3.358   5.468 -0.6605  0.8343  0.6468
  352MOL0     O47393   6.572   3.383   5.489 -0.0502 -0.6226  0.5675
  352MOL0     C47394   6.542   3.501   5.411 -0.2402  0.5788  0.6064
  352MOL0     C47395   6.413   3.556   5.462  0.1506 -0.2077  0.0596
  352MOL0     C47396   6.294   3.464   5.443 -0.3091  0.0442 -0.1320
  352MOL0     C47397   6.172   3.540   5.402 -0.4281  0.0532  0.5144
  352MOL0     C47398   6.109   3.627   5.521 -0.3150  1.4716  0.4287
  352MOL0     C47399   6.024   3.736   5.463 -1.1874 -0.7197 -0.4263
  352MOL0     C47400   5.890   3.671   5.420 -0.3491 -0.3313  0.6659
  352MOL0     C47401   5.805   3.787   5.373  0.3749 -0.3378 -1.0402
  352MOL0     N47402   5.688   3.810   5.463  0.1652 -0.1004 -0.5431
  352MOL0     C47403   5.552   3.810   5.425 -0.5862 -0.3432  0.7620
  352MOL0     C47404   5.477   3.839   5.533 -0.9767  0.2638  0.4439
  352MOL0     C47405   5.329   3.863   5.528 -0.9170 -0.1511 -0.3808
  352MOL0     C47406   5.258   3.734   5.580  0.3095 -0.1419 -0.0527
  352MOL0     C47407   5.267   3.719   5.730  0.4491  0.8103 -0.1287
  352MOL0     C47408   5.243   3.584   5.787  0.1275  0.5507  0.2540
  352MOL0     O47409   5.109   3.532   5.761 -0.2212 -0.4721  0.2135
  352MOL0     C47410   4.994   3.581   5.817 -1.0259  0.2243  0.1040
  352MOL0     C47411   4.997   3.640   5.944  0.7401  0.2023 -0.4799
  352MOL0     C47412   4.878   3.693   5.999  0.7072  0.1856 -0.2525
  352MOL0     C47413   4.883   3.749   6.135 -0.8778 -0.3631 -0.2856
  352MOL0     C47414   4.758   3.674   5.926  0.2062 -0.0839 -0.0958
  352MOL0     C47415   4.621   3.692   5.982  0.4874  0.4354 -0.1375
  352MOL0     O47416   4.527   3.608   5.921  0.7586  0.0762 -0.4215
  352MOL0     C47417   4.412   3.562   5.982 -0.1736 -0.1503 -0.1554
  352MOL0     C47418   4.376   3.592   6.116 -0.1182  0.1503  0.3242
  352MOL0     C47419   4.242   3.557   6.159 -0.3800  0.3404  0.8563
  352MOL0     C47420   4.152   3.495   6.074 -0.2411 -0.1940  0.0363
  352MOL0     O47421   4.020   3.490   6.101 -0.2812  0.0804  0.3194
  352MOL0     C47422   3.973   3.365   6.155  0.3513 -0.1672  0.0891
  352MOL0     C47423   3.839   3.315   6.089 -0.6217 -0.0437  0.5199
  352MOL0     C47424   3.733   3.422   6.136  0.4107  0.9227  0.1823
  352MOL0     C47425   3.652   3.368   6.249 -0.0382  0.6151 -0.3686
  352MOL0     C47426   3.518   3.439   6.257  0.3241 -0.1657  0.0661
  352MOL0     C47427   3.437   3.378   6.373  0.3622 -0.0699  0.3018
  352MOL0     C47428   3.287   3.437   6.373 -0.6680  0.9528  0.0991
  352MOL0     C47429   3.229   3.440   6.511  0.5853 -0.7276  0.7573
  352MOL0    Cl47430   3.046   3.458   6.516 -0.1752 -0.1526 -0.0211
  352MOL0     C47431   4.190   3.471   5.944 -0.0650  0.0755 -0.5757
  352MOL0     C47432   4.316   3.506   5.894  0.3493  0.1321  0.0173
  352MOL0     O47433   4.599   3.782   6.067 -0.4783 -0.1083 -0.5354
  352MOL0     C47434   4.761   3.625   5.798 -0.1275  0.7340  0.4840
  352MOL0     C47435   4.879   3.573   5.741  0.7333 -0.1800  0.0217
  352MOL0     N47436   5.571   3.864   5.635 -0.3737 -0.3827 -0.7186
  352MOL0     N47437   5.687   3.835   5.595 -1.0122 -0.1035  0.7345
  352MOL0     C47438   6.768   3.359   5.342 -0.5236 -0.0822  0.4498
  352MOL0     C47439   6.905   3.326   5.322  0.4306 -0.0122  0.8216
  352MOL0     C47440   7.307   3.118   5.373 -0.1530 -0.0376 -0.6940
  352MOL0     C47441   7.308   3.047   5.492  0.0969  1.1181  0.2821
  352MOL0     C47442   7.406   2.948   5.519 -0.7055  0.2370  0.1633
  352MOL0     C47443   7.506   2.927   5.425 -0.5287 -0.1631 -0.6400
  352MOL0     O47444   7.609   2.837   5.439  0.1143  0.6343  0.1773
  352MOL0     C47445   7.639   2.780   5.566  0.2394  0.5184  0.2374
  352MOL0     C47446   7.778   2.724   5.539  0.3949 -0.2185  0.2558
  352MOL0     C47447   7.832   2.650   5.659 -0.0616  0.2407  0.3442
  352MOL0     C47448   7.950   2.553   5.628  0.5210 -0.7290  0.3362
  352MOL0     C47449   7.982   2.473   5.745 -0.5389 -0.3448 -0.0713
  352MOL0     C47450   8.008   2.418   5.851 -0.0636  0.0802  0.0531
  352MOL0     C47451   7.512   3.010   5.314 -0.4970 -0.2733  0.4676
  352MOL0     C47452   7.412   3.100   5.283  0.1402  0.1539 -0.4346
  352MOL0     H47453   6.975   3.263   5.641  1.5456  0.9348 -0.3603
  352MOL0     H47454   6.754   3.346   5.674  2.1532 -3.0135  1.2643
  352MOL0     H47455   6.604   3.589   5.429 -0.6441  0.7365  1.2741
  352MOL0     H47456   6.530   3.482   5.304 -0.5187 -0.6131  0.8282
  352MOL0     H47457   6.427   3.566   5.570 -2.3807 -2.0128  0.6252
  352MOL0     H47458   6.392   3.656   5.423  1.0140  0.5191  1.3936
  352MOL0     H47459   6.305   3.389   5.363 -2.2526 -0.4626  0.0148
  352MOL0     H47460   6.278   3.417   5.541  1.7242 -1.7505 -0.5836
  352MOL0     H47461   6.196   3.601   5.315 -0.6627 -0.0825  0.3542
  352MOL0     H47462   6.095   3.472   5.364 -1.5152  1.4548  0.1162
  352MOL0     H47463   6.050   3.570   5.593  0.2268  1.4841  0.8927
  352MOL0     H47464   6.198   3.672   5.564  0.3899 -0.1728  0.7965
  352MOL0     H47465   6.013   3.808   5.545 -1.4261 -1.4843  0.2224
  352MOL0     H47466   6.060   3.790   5.375  0.6713  0.2504  0.8557
  352MOL0     H47467   5.899   3.604   5.335 -0.8371 -0.6100  0.8326
  352MOL0     H47468   5.834   3.618   5.498 -1.4554  0.4846  0.4407
  352MOL0     H47469   5.765   3.770   5.272  0.9756 -0.1681 -1.3101
  352MOL0     H47470   5.866   3.877   5.366  1.7062 -1.0738  0.4660
  352MOL0     H47471   5.513   3.774   5.330  0.7510 -1.7647  0.6908
  352MOL0     H47472   5.301   3.950   5.588 -1.3010 -1.3677  1.2640
  352MOL0     H47473   5.294   3.879   5.425  1.3707  0.8822 -1.0648
  352MOL0     H47474   5.303   3.641   5.544 -2.3489 -1.9457  0.9485
  352MOL0     H47475   5.151   3.743   5.559  0.1501  1.5859  1.2236
  352MOL0     H47476   5.198   3.792   5.773 -2.2397 -1.2492 -0.6932
  352MOL0     H47477   5.370   3.751   5.752  0.4166  1.5653 -1.0420
  352MOL0     H47478   5.255   3.589   5.895  0.2129 -3.5937  0.5898
  352MOL0     H47479   5.316   3.518   5.739  1.1735  0.9866  1.2179
  352MOL0     H47480   5.086   3.638   6.005 -0.1524 -0.2961  0.8768
  352MOL0     H47481   4.879   3.859   6.140  4.4744  0.0628  1.2618
  352MOL0     H47482   4.806   3.713   6.203  0.3188  0.4861  1.6204
  352MOL0     H47483   4.978   3.724   6.184 -0.6230  0.0010 -0.5823
  352MOL0     H47484   4.447   3.638   6.183  1.1874 -0.7067 -0.4147
  352MOL0     H47485   4.203   3.564   6.260  0.2770  0.1446  1.1321
  352MOL0     H47486   4.037   3.277   6.148  0.3523 -0.3679  1.9928
  352MOL0     H47487   3.951   3.375   6.262  1.4238  2.3004  0.1434
  352MOL0     H47488   3.851   3.317   5.981 -0.7181  1.7482  0.5080
  352MOL0     H47489   3.809   3.216   6.126 -0.6511 -0.5315 -0.7727
  352MOL0     H47490   3.677   3.453   6.048  1.2298  2.5864  0.2046
  352MOL0     H47491   3.778   3.517   6.169  1.9995 -0.2584  1.5695
  352MOL0     H47492   3.634   3.261   6.231 -0.3207  0.7218 -0.7287
  352MOL0     H47493   3.708   3.379   6.342  0.9239 -2.9882 -0.3647
  352MOL0     H47494   3.455   3.433   6.167  0.7878  0.0259 -0.2735
  352MOL0     H47495   3.543   3.542   6.281  0.6132 -0.2944  0.3247
  352MOL0     H47496   3.423   3.270   6.361  1.7316 -0.2676  0.3126
  352MOL0     H47497   3.490   3.393   6.467 -0.7294  0.6758  0.8231
  352MOL0     H47498   3.229   3.364   6.317 -1.4046  0.3507  1.6037
  352MOL0     H47499   3.289   3.534   6.322  1.9260  0.1897 -1.4643
  352MOL0     H47500   3.282   3.514   6.571 -1.2100  0.8195  0.5393
  352MOL0     H47501   3.245   3.338   6.547 -1.9219 -1.6348 -0.3982
  352MOL0     H47502   4.122   3.421   5.876 -1.0986  2.4942 -1.4150
  352MOL0     H47503   4.333   3.476   5.791  0.7919 -0.3579  0.2310
  352MOL0     H47504   4.671   3.607   5.740  1.1175 -1.9091 -0.7969
  352MOL0     H47505   4.881   3.541   5.638  2.7410 -0.1304  0.0065
  352MOL0     H47506   6.723   3.374   5.245 -0.4382  3.0449  0.7940
  352MOL0     H47507   6.937   3.311   5.219 -0.7662 -0.2107  0.4596
  352MOL0     H47508   7.238   3.061   5.574 -1.3830  0.5585 -0.8553
  352MOL0     H47509   7.413   2.884   5.606  1.4107 -0.6325 -0.5744
  352MOL0     H47510   7.634   2.867   5.632 -3.4803  0.4553  0.2122
  352MOL0     H47511   7.562   2.708   5.596  1.3632 -0.2950  1.2912
  352MOL0     H47512   7.846   2.808   5.519  2.4852 -1.7574  0.5852
  352MOL0     H47513   7.781   2.658   5.452 -0.8253 -0.1743  0.1640
  352MOL0     H47514   7.742   2.594   5.685  0.7942 -2.7979 -2.4893
  352MOL0     H47515   7.866   2.723   5.733 -1.3660  0.6917  0.5344
  352MOL0     H47516   8.041   2.593   5.582  1.1453 -2.2241  0.2193
  352MOL0     H47517   7.906   2.480   5.560  2.1472 -2.5505  1.1486
  352MOL0     H47518   8.028   2.373   5.946 -0.7664 -1.1563 -0.3658
  352MOL0     H47519   7.601   3.013   5.253 -1.0193  1.4511 -0.2780
  352MOL0     H47520   7.429   3.155   5.190 -0.4775 -0.9228 -1.2058
  353MOL0     O47521   2.010   4.341   0.193 -0.1196  0.1902  0.6310
  353MOL0     C47522   2.083   4.423   0.136 -0.1603 -0.0801 -0.2430
  353MOL0     O47523   2.036   4.531   0.079 -0.3751  0.5212 -0.6035
  353MOL0     C47524   1.902   4.534   0.071 -0.2130  0.0594 -0.2911
  353MOL0     C47525   1.830   4.604   0.168 -0.4189 -0.5124 -0.9613
  353MOL0     C47526   1.688   4.595   0.160  0.4535  0.9945 -0.1791
  353MOL0     C47527   1.624   4.536   0.050 -0.8934 -0.9882  0.0822
  353MOL0     O47528   1.484   4.544   0.048  0.5227  0.9041  0.8140
  353MOL0     C47529   1.402   4.551   0.165 -0.7524 -1.0345 -0.0372
  353MOL0     C47530   1.359   4.692   0.195  0.4302  0.1027 -0.3512
  353MOL0     C47531   1.228   4.742   0.117 -0.5675  1.1116  0.7293
  353MOL0     C47532   1.240   4.724  -0.038 -0.1090 -1.2464 -0.2530
  353MOL0     C47533   1.103   4.734  -0.099 -0.7137 -0.0175 -0.0117
  353MOL0     C47534   1.045   4.876  -0.100 -0.1463 -0.1436  0.5889
  353MOL0     C47535   0.935   4.885  -0.204 -0.2179 -0.3088 -0.1329
  353MOL0     C47536   0.820   4.787  -0.184  0.0754  0.1839 -0.1209
  353MOL0     N47537   0.740   4.817  -0.062 -0.3231 -0.7967 -0.9506
  353MOL0     C47538   0.606   4.852  -0.059 -0.1770 -0.4754 -0.2135
  353MOL0     C47539   0.563   4.826   0.067  0.2659 -0.1178 -0.2798
  353MOL0     C47540   0.424   4.842   0.117 -0.5995  0.4418  0.2176
  353MOL0     C47541   0.331   4.726   0.073 -0.3221 -0.1166  0.0136
  353MOL0     C47542   0.185   4.770   0.090  0.0399  0.4024  0.2102
  353MOL0     C47543   0.085   4.663   0.047 -0.2484  0.6244 -0.5485
  353MOL0     O47544  -0.037   4.712  -0.002  0.3820 -0.8682 -0.2726
  353MOL0     C47545  -0.138   4.732   0.091 -0.0583  0.7743  0.6677
  353MOL0     C47546  -0.111   4.743   0.229 -0.4463 -0.1299 -0.0908
  353MOL0     C47547  -0.208   4.778   0.318 -0.0486  0.2446  0.0812
  353MOL0     C47548  -0.185   4.747   0.469 -0.9651 -0.6494  0.4397
  353MOL0     C47549  -0.327   4.817   0.274 -0.1289  0.3008  0.0747
  353MOL0     C47550  -0.439   4.859   0.357 -0.5287 -0.6956 -0.4489
  353MOL0     O47551  -0.568   4.840   0.311  0.1030  0.0678  0.3154
  353MOL0     C47552  -0.667   4.891   0.389 -0.0894  0.0554  0.5981
  353MOL0     C47553  -0.744   4.798   0.459  1.0888 -0.1590 -0.9127
  353MOL0     C47554  -0.856   4.845   0.524 -0.0474  0.0773 -0.2131
  353MOL0     C47555  -0.897   4.982   0.524 -0.2907 -0.3707 -0.2635
  353MOL0     O47556  -1.007   5.032   0.577  0.3434  0.2651 -0.2821
  353MOL0     C47557  -1.132   5.003   0.512  0.1027  0.0037 -0.0200
  353MOL0     C47558  -1.160   5.109   0.401 -0.0930 -0.2896 -0.6526
  353MOL0     C47559  -1.312   5.132   0.372 -0.6392  0.0451 -0.5547
  353MOL0     C47560  -1.384   5.004   0.324  0.3182  0.4905  0.0860
  353MOL0     C47561  -1.529   5.053   0.292  0.6912  0.7515 -0.2590
  353MOL0     C47562  -1.624   4.948   0.232  0.3380 -0.8450  0.4234
  353MOL0     C47563  -1.561   4.867   0.127 -0.5346  0.3922  0.4572
  353MOL0     C47564  -1.663   4.760   0.069  0.2019  0.5490 -0.4734
  353MOL0    Cl47565  -1.593   4.641  -0.034 -0.1844 -0.3106 -0.0196
  353MOL0     C47566  -0.803   5.080   0.478 -1.2561  0.6911  0.3316
  353MOL0     C47567  -0.694   5.027   0.404 -0.3356 -0.6095 -0.5247
  353MOL0     O47568  -0.416   4.918   0.467  0.6749  0.4293  0.2551
  353MOL0     C47569  -0.361   4.810   0.136 -0.2943 -0.6830 -0.3389
  353MOL0     C47570  -0.260   4.775   0.039 -0.2054 -0.5313 -0.2161
  353MOL0     N47571   0.668   4.777   0.145 -0.5555  0.4797  0.9176
  353MOL0     N47572   0.767   4.763   0.066  0.0909 -0.4539 -0.4688
  353MOL0     C47573   1.702   4.475  -0.046  0.0887 -0.9954  0.5206
  353MOL0     C47574   1.838   4.468  -0.028  0.4423  0.3447 -0.0282
  353MOL0     C47575   2.229   4.396   0.131  0.1491  0.1704 -0.6747
  353MOL0     C47576   2.284   4.281   0.186  1.0566 -0.1218 -0.6450
  353MOL0     C47577   2.414   4.247   0.197 -0.5917 -0.0622  0.2275
  353MOL0     C47578   2.507   4.335   0.144  0.4958 -0.9247  0.5206
  353MOL0     O47579   2.644   4.303   0.133  0.3065  0.4643 -0.3331
  353MOL0     C47580   2.728   4.373   0.225  0.0685  0.4355  0.5501
  353MOL0     C47581   2.821   4.279   0.302 -0.2875  0.7708 -0.1668
  353MOL0     C47582   2.915   4.195   0.215  0.0806 -0.1113  0.3889
  353MOL0     C47583   3.031   4.121   0.292  0.0345  0.1199  0.5488
  353MOL0     C47584   3.116   4.205   0.372  0.4654  0.0280 -0.0485
  353MOL0     C47585   3.175   4.263   0.463  0.1394 -0.0030  0.4366
  353MOL0     C47586   2.461   4.455   0.095  0.6182 -0.2613 -0.1609
  353MOL0     C47587   2.329   4.484   0.087  0.5430  0.3881 -0.3903
  353MOL0     H47588   1.894   4.649   0.243 -0.5218 -2.3606  0.3112
  353MOL0     H47589   1.638   4.646   0.242 -1.2225 -2.7913  1.3960
  353MOL0     H47590   1.321   4.482   0.139 -0.0669 -0.7425 -3.5531
  353MOL0     H47591   1.464   4.513   0.246 -2.2095  0.2557  1.7569
  353MOL0     H47592   1.336   4.682   0.302 -0.9682 -3.5807 -0.8298
  353MOL0     H47593   1.442   4.759   0.175  0.6399 -0.1368 -0.2965
  353MOL0     H47594   1.147   4.680   0.155 -0.0925  0.8920  1.4199
  353MOL0     H47595   1.194   4.842   0.146 -1.4999  1.3805 -1.1855
  353MOL0     H47596   1.312   4.794  -0.081 -0.7444 -0.9551 -0.8409
  353MOL0     H47597   1.272   4.625  -0.072  2.6589  0.1457 -2.0651
  353MOL0     H47598   1.130   4.717  -0.203 -1.7056  0.5818 -0.3870
  353MOL0     H47599   1.032   4.662  -0.058 -1.0193  1.7086  2.8023
  353MOL0     H47600   1.016   4.903   0.001  2.3579 -3.5948  2.4356
  353MOL0     H47601   1.118   4.942  -0.147  1.8906 -2.6019  0.0582
  353MOL0     H47602   0.882   4.980  -0.198  1.1852  0.4158  1.4039
  353MOL0     H47603   0.977   4.874  -0.304  0.7146 -0.8708  0.3079
  353MOL0     H47604   0.855   4.683  -0.186 -2.8926 -0.9040 -1.8209
  353MOL0     H47605   0.756   4.799  -0.271 -0.2417  1.7795  0.3082
  353MOL0     H47606   0.540   4.892  -0.135 -1.0179 -2.2638 -0.4821
  353MOL0     H47607   0.428   4.849   0.226 -1.7029 -3.3266  0.6715
  353MOL0     H47608   0.391   4.936   0.074  0.9076  0.7150 -0.3891
  353MOL0     H47609   0.348   4.635   0.132  0.5438 -0.8453 -1.3162
  353MOL0     H47610   0.343   4.702  -0.033 -2.9021 -3.1232  0.2589
  353MOL0     H47611   0.163   4.860   0.033 -1.0978  0.9751  1.5051
  353MOL0     H47612   0.154   4.796   0.192 -3.0600 -1.4415 -0.1150
  353MOL0     H47613   0.067   4.585   0.121 -1.4594  0.3014 -1.1694
  353MOL0     H47614   0.127   4.616  -0.042 -0.2071  0.5420 -0.4849
  353MOL0     H47615  -0.016   4.717   0.275  0.4331 -2.0305 -2.6921
  353MOL0     H47616  -0.264   4.687   0.516  0.3161 -0.8092  2.4763
  353MOL0     H47617  -0.088   4.700   0.487 -0.5727  0.4021  1.1248
  353MOL0     H47618  -0.183   4.838   0.529  1.8031 -1.6230  1.9930
  353MOL0     H47619  -0.720   4.692   0.454 -0.7256 -0.7540  1.2864
  353MOL0     H47620  -0.921   4.770   0.569  1.6807 -1.9693 -0.9497
  353MOL0     H47621  -1.134   4.899   0.479  4.1254 -0.1107 -0.4793
  353MOL0     H47622  -1.218   4.994   0.578 -0.8464 -1.7883 -1.4052
  353MOL0     H47623  -1.108   5.199   0.435  2.9110 -1.1535 -2.5635
  353MOL0     H47624  -1.105   5.079   0.311  0.9207 -1.1945  0.2333
  353MOL0     H47625  -1.327   5.218   0.306 -0.1566  0.6804  0.1420
  353MOL0     H47626  -1.362   5.167   0.463 -0.0590  0.1873 -0.2887
  353MOL0     H47627  -1.336   4.964   0.235 -0.3631 -1.1007  0.3869
  353MOL0     H47628  -1.380   4.930   0.405  0.0054  0.2446 -0.1179
  353MOL0     H47629  -1.531   5.125   0.210 -1.7567 -0.9177 -1.8178
  353MOL0     H47630  -1.582   5.108   0.371  0.2987 -0.1369  0.1220
  353MOL0     H47631  -1.646   4.877   0.312  0.5145  1.4064  2.5702
  353MOL0     H47632  -1.709   4.999   0.187  0.4895 -1.3300 -0.4326
  353MOL0     H47633  -1.481   4.806   0.170  0.2946  1.5678  0.6035
  353MOL0     H47634  -1.517   4.922   0.044  2.2918  0.3313  1.8173
  353MOL0     H47635  -1.756   4.807   0.035 -0.4873  2.1463  3.1365
  353MOL0     H47636  -1.692   4.700   0.156  3.5355 -0.4281  0.1125
  353MOL0     H47637  -0.830   5.185   0.480 -1.5514  0.6102  1.4714
  353MOL0     H47638  -0.638   5.090   0.336 -0.1494 -1.4434 -1.1686
  353MOL0     H47639  -0.457   4.844   0.097  1.5357  3.3361 -1.9270
  353MOL0     H47640  -0.282   4.766  -0.067 -1.0811 -0.3126 -0.0628
  353MOL0     H47641   1.651   4.423  -0.126  1.4177  0.2776 -1.2269
  353MOL0     H47642   1.894   4.424  -0.110 -0.2947 -1.5520  0.4107
  353MOL0     H47643   2.217   4.212   0.238  0.5679 -1.1931 -2.5952
  353MOL0     H47644   2.459   4.159   0.243 -0.8913 -0.5060 -0.3133
  353MOL0     H47645   2.782   4.443   0.162 -0.7865  0.9128  0.3302
  353MOL0     H47646   2.670   4.433   0.295  1.4737  3.0252 -0.3985
  353MOL0     H47647   2.752   4.219   0.362 -1.1428  2.0854  0.2170
  353MOL0     H47648   2.884   4.337   0.370 -0.3902 -0.3595  0.9212
  353MOL0     H47649   2.969   4.263   0.147 -1.3237  3.3903  2.5352
  353MOL0     H47650   2.855   4.122   0.161 -1.3591  2.2318 -1.4069
  353MOL0     H47651   3.097   4.071   0.221  1.4129  1.2225  1.0048
  353MOL0     H47652   2.991   4.048   0.363  1.5921 -0.0251  1.3183
  353MOL0     H47653   3.219   4.330   0.534 -2.2002  1.7946  0.3006
  353MOL0     H47654   2.536   4.521   0.051 -0.4007  0.4982 -0.8162
  353MOL0     H47655   2.301   4.566   0.022  1.1121 -0.8817 -2.3201
  354MOL0     O47656   7.014   0.412   9.105  0.5491  0.0139  0.3457
  354MOL0     C47657   7.110   0.356   9.156  0.0851  0.1618  0.8604
  354MOL0     O47658   7.107   0.229   9.215  0.6095 -0.7866  1.0279
  354MOL0     C47659   6.985   0.175   9.256 -0.1920 -0.3084  0.5705
  354MOL0     C47660   6.965   0.146   9.393 -0.5890 -0.1702  0.1031
  354MOL0     C47661   6.834   0.107   9.433 -0.7156 -0.5125 -0.0171
  354MOL0     C47662   6.724   0.101   9.346  0.2140 -0.3223  0.5865
  354MOL0     O47663   6.594   0.066   9.386  0.0109 -0.1578 -0.0841
  354MOL0     C47664   6.478   0.075   9.297  0.1223  0.1605  0.5981
  354MOL0     C47665   6.345   0.036   9.365 -0.1171 -0.5368  0.0251
  354MOL0     C47666   6.227   0.060   9.272 -0.1196  0.1324  0.0868
  354MOL0     C47667   6.108  -0.014   9.325 -0.3305  0.2807 -0.4784
  354MOL0     C47668   5.990  -0.016   9.229  0.1259 -0.2582 -0.8070
  354MOL0     C47669   5.891  -0.111   9.284  1.1702  0.0185 -0.0418
  354MOL0     C47670   5.765  -0.113   9.189  0.1385 -0.1688  0.0120
  354MOL0     C47671   5.655  -0.204   9.252 -0.5086  0.0856  0.4635
  354MOL0     N47672   5.524  -0.155   9.207  0.1499 -0.2325 -0.1857
  354MOL0     C47673   5.449  -0.072   9.281 -0.5042  0.5994  0.3750
  354MOL0     C47674   5.342  -0.040   9.207  0.0425  0.4821  0.0123
  354MOL0     C47675   5.228   0.053   9.245  0.4068  0.9247 -0.0390
  354MOL0     C47676   5.158  -0.005   9.377 -0.2264 -0.3345  0.4781
  354MOL0     C47677   5.094   0.104   9.469 -0.7096  0.1619  0.8864
  354MOL0     C47678   4.957   0.152   9.419  0.5793  0.4390  0.2781
  354MOL0     O47679   4.893   0.049   9.344  0.0537  0.9526 -0.6125
  354MOL0     C47680   4.771   0.060   9.293  0.8860  0.4476  0.1459
  354MOL0     C47681   4.741  -0.015   9.179  0.4624 -0.1975  0.1391
  354MOL0     C47682   4.633   0.003   9.103 -0.3759 -1.0189  0.4725
  354MOL0     C47683   4.638  -0.069   8.978 -0.6747 -0.1607  0.4876
  354MOL0     C47684   4.533   0.102   9.138  0.6713 -0.3516 -0.4731
  354MOL0     C47685   4.406   0.133   9.056  0.4894  0.0499  0.6763
  354MOL0     O47686   4.349   0.030   8.989  0.5191  0.2315 -0.2207
  354MOL0     C47687   4.225   0.038   8.932  0.6781 -0.2836 -0.1350
  354MOL0     C47688   4.204   0.031   8.792 -0.5801 -0.6844  0.1377
  354MOL0     C47689   4.079   0.053   8.752 -0.3710  0.2140 -0.5441
  354MOL0     C47690   3.966   0.063   8.830  0.3664  0.7095 -0.2914
  354MOL0     O47691   3.850   0.076   8.764 -0.8133 -0.0553  0.6367
  354MOL0     C47692   3.733   0.017   8.809  0.4046  0.1289  0.0536
  354MOL0     C47693   3.633   0.026   8.690  0.0645 -0.1388 -0.5461
  354MOL0     C47694   3.494  -0.027   8.726  0.4244 -0.6633  0.8256
  354MOL0     C47695   3.418   0.080   8.806  0.1032 -0.0337 -0.0850
  354MOL0     C47696   3.274   0.042   8.814  0.8455  0.0190 -0.8731
  354MOL0     C47697   3.185   0.063   8.685 -0.3084 -0.2887 -0.7851
  354MOL0     C47698   3.036   0.014   8.708 -0.1275 -0.6935  0.1234
  354MOL0     C47699   2.957   0.033   8.579 -0.3259  0.3734  0.1749
  354MOL0    Cl47700   2.792  -0.021   8.632 -0.5783 -0.0334  0.0936
  354MOL0     C47701   3.986   0.066   8.969 -0.3466 -0.4214  0.0327
  354MOL0     C47702   4.121   0.060   9.014  0.4664  0.4830 -0.1778
  354MOL0     O47703   4.358   0.249   9.063 -0.3243  1.0651  0.6078
  354MOL0     C47704   4.562   0.182   9.249  0.8989 -0.4298 -0.9496
  354MOL0     C47705   4.676   0.164   9.316  0.1316  0.7550  0.3405
  354MOL0     N47706   5.355  -0.104   9.079 -1.2457  0.2883 -0.0256
  354MOL0     N47707   5.467  -0.167   9.079 -0.1738  0.4249 -0.5321
  354MOL0     C47708   6.753   0.114   9.204  0.0337 -0.1920 -1.1095
  354MOL0     C47709   6.882   0.138   9.167 -0.6061 -0.5751  0.1187
  354MOL0     C47710   7.243   0.418   9.132  1.0291 -0.3728  0.4651
  354MOL0     C47711   7.352   0.326   9.118  0.0243  0.1361  0.0553
  354MOL0     C47712   7.482   0.383   9.099  0.9993 -0.7260 -0.1109
  354MOL0     C47713   7.494   0.522   9.081 -1.2322  0.4362  0.1648
  354MOL0     O47714   7.625   0.564   9.062 -0.4662  0.1630 -0.5562
  354MOL0     C47715   7.659   0.693   9.008  0.0318  0.1168 -0.8684
  354MOL0     C47716   7.808   0.728   9.004  0.7510 -0.4120  0.4364
  354MOL0     C47717   7.834   0.869   8.949 -0.0799  0.2401 -0.1462
  354MOL0     C47718   7.817   0.972   9.060  0.1169 -0.3385 -0.8250
  354MOL0     C47719   7.908   0.962   9.176 -0.2314  0.1022 -0.1985
  354MOL0     C47720   7.992   0.955   9.264  0.7159 -0.3072  0.6807
  354MOL0     C47721   7.383   0.604   9.099  0.4350  0.7184 -0.4999
  354MOL0     C47722   7.260   0.552   9.134  0.4512  0.1145 -0.0349
  354MOL0     H47723   7.048   0.156   9.462  1.5135 -0.0620 -2.2841
  354MOL0     H47724   6.825   0.086   9.540  2.3547  0.9104  0.6044
  354MOL0     H47725   6.469   0.179   9.267 -0.7197 -0.3622 -1.0727
  354MOL0     H47726   6.492   0.017   9.205  0.0127  1.9286 -0.5721
  354MOL0     H47727   6.341  -0.073   9.369  1.3743 -1.0756 -5.2087
  354MOL0     H47728   6.333   0.079   9.465 -0.1320  2.2404 -1.0932
  354MOL0     H47729   6.212   0.168   9.260  0.9915  0.4688  1.4004
  354MOL0     H47730   6.241   0.021   9.171 -2.0405  3.2650 -1.5589
  354MOL0     H47731   6.131  -0.121   9.330 -1.0217  0.0223 -2.2578
  354MOL0     H47732   6.074   0.020   9.423 -1.1041 -1.5409 -0.0766
  354MOL0     H47733   5.956   0.087   9.218 -1.5609 -0.9581 -2.6840
  354MOL0     H47734   6.030  -0.046   9.132  0.9254 -5.8945  0.9246
  354MOL0     H47735   5.929  -0.214   9.288 -0.4161 -0.5699  0.4007
  354MOL0     H47736   5.861  -0.075   9.383  1.1056 -1.3175  0.4422
  354MOL0     H47737   5.721  -0.013   9.185 -2.5072 -1.1843  1.0968
  354MOL0     H47738   5.795  -0.146   9.089  1.2679 -1.7545  0.8339
  354MOL0     H47739   5.658  -0.200   9.361  0.8818 -2.0990  0.5534
  354MOL0     H47740   5.664  -0.308   9.222  2.5935 -0.3644  2.5263
  354MOL0     H47741   5.470  -0.036   9.381 -1.7816  1.2940  0.4098
  354MOL0     H47742   5.267   0.154   9.259  0.8290  1.5054 -4.2039
  354MOL0     H47743   5.162   0.055   9.158  0.3822 -1.7007 -0.1550
  354MOL0     H47744   5.235  -0.049   9.442  3.2066  2.8939 -0.9952
  354MOL0     H47745   5.089  -0.085   9.349  0.3699 -0.9893  0.8063
  354MOL0     H47746   5.159   0.189   9.491 -1.0681  0.3481  1.2376
  354MOL0     H47747   5.083   0.053   9.565  0.1091  0.8504  1.3600
  354MOL0     H47748   4.962   0.240   9.355  0.8367  1.0699  1.1494
  354MOL0     H47749   4.902   0.184   9.508  1.1129  1.4972  0.2463
  354MOL0     H47750   4.822  -0.081   9.150  1.6703  0.6774  1.3413
  354MOL0     H47751   4.738  -0.063   8.933 -0.9905 -1.5998 -0.4563
  354MOL0     H47752   4.592  -0.168   8.988 -1.8294  0.0845 -1.8328
  354MOL0     H47753   4.574  -0.026   8.902 -0.8317 -2.8401 -1.0258
  354MOL0     H47754   4.282   0.016   8.718  2.6607 -0.0520  3.1678
  354MOL0     H47755   4.048   0.048   8.648  0.2322  1.0636 -0.7743
  354MOL0     H47756   3.747  -0.086   8.843 -1.4852 -0.2270 -0.1210
  354MOL0     H47757   3.706   0.070   8.901  1.2700  2.2364 -0.8279
  354MOL0     H47758   3.644   0.129   8.656  4.2408  0.6681  2.3993
  354MOL0     H47759   3.679  -0.035   8.612 -0.4062 -2.6284  1.0112
  354MOL0     H47760   3.484  -0.123   8.777 -0.4075 -0.5928  0.8187
  354MOL0     H47761   3.451  -0.045   8.626 -1.1007  0.4908  1.2404
  354MOL0     H47762   3.471   0.080   8.902  2.0619 -0.0371 -1.1134
  354MOL0     H47763   3.432   0.180   8.764 -1.0155  0.1876  0.0358
  354MOL0     H47764   3.231   0.100   8.897  1.3336  0.2970 -0.8088
  354MOL0     H47765   3.268  -0.060   8.852 -1.0937  1.0357  1.8699
  354MOL0     H47766   3.198   0.164   8.645  0.2159  0.5834  1.4420
  354MOL0     H47767   3.230  -0.006   8.613 -2.3262 -0.2147 -2.1927
  354MOL0     H47768   2.990   0.071   8.790  0.6362  0.9465 -0.5306
  354MOL0     H47769   3.032  -0.092   8.733 -1.3550 -0.7404 -0.2388
  354MOL0     H47770   2.992  -0.027   8.495  0.1633 -0.2770  0.8251
  354MOL0     H47771   2.953   0.136   8.542  3.8859  0.4592 -0.5925
  354MOL0     H47772   3.902   0.089   9.033  0.1829 -0.1148  0.6387
  354MOL0     H47773   4.145   0.078   9.118 -0.6025 -0.2486  0.2165
  354MOL0     H47774   4.506   0.272   9.272  0.5512 -1.1143  1.0692
  354MOL0     H47775   4.697   0.239   9.391  2.2648  0.3306  0.2348
  354MOL0     H47776   6.686   0.083   9.125 -3.1724 -2.8319  2.2468
  354MOL0     H47777   6.929   0.135   9.069  0.6937 -0.0716  0.6957
  354MOL0     H47778   7.359   0.218   9.128  3.1783  0.3689  2.1362
  354MOL0     H47779   7.566   0.314   9.090  1.0120 -0.6508 -0.5963
  354MOL0     H47780   7.624   0.706   8.905 -0.5613 -1.9784 -0.9928
  354MOL0     H47781   7.610   0.763   9.076  1.5767 -1.6893  2.3514
  354MOL0     H47782   7.855   0.647   8.948 -0.3602 -1.7204  1.3350
  354MOL0     H47783   7.849   0.728   9.105 -1.8387 -0.0780  1.5510
  354MOL0     H47784   7.777   0.894   8.860  1.3017  0.3849 -1.0163
  354MOL0     H47785   7.939   0.879   8.918  0.6976  2.2834  2.7012
  354MOL0     H47786   7.714   0.972   9.096  0.4067 -0.2670  0.0272
  354MOL0     H47787   7.833   1.073   9.021 -3.4273  1.1640  1.1220
  354MOL0     H47788   8.064   0.941   9.342 -1.1158  1.8834  2.9191
  354MOL0     H47789   7.403   0.711   9.103 -1.7917  1.1771 -0.1911
  354MOL0     H47790   7.184   0.624   9.164  0.7094 -0.1428  1.2862
  355MOL0     O47791   4.643  10.328   7.937  0.1529 -0.2486 -0.5099
  355MOL0     C47792   4.655  10.322   8.063  0.0537  0.0093  0.5706
  355MOL0     O47793   4.559  10.351   8.151 -0.2476  0.0716 -0.4721
  355MOL0     C47794   4.440  10.387   8.095  0.6039 -0.7515  0.6257
  355MOL0     C47795   4.428  10.502   8.018 -0.6723  0.2479 -0.2448
  355MOL0     C47796   4.313  10.546   7.968  0.2443 -0.4654  0.2260
  355MOL0     C47797   4.195  10.466   7.980  1.0790 -0.7634  0.2125
  355MOL0     O47798   4.063  10.505   7.957 -0.1326  0.0057  0.0288
  355MOL0     C47799   4.032  10.594   7.853 -0.0499 -0.4701  0.1054
  355MOL0     C47800   3.885  10.641   7.869 -0.2810 -0.4069 -0.5307
  355MOL0     C47801   3.853  10.728   7.754 -0.5436  0.2758 -0.0242
  355MOL0     C47802   3.726  10.700   7.685  0.9812  0.2632  0.3914
  355MOL0     C47803   3.695  10.812   7.591  0.2127 -0.6855 -0.1693
  355MOL0     C47804   3.557  10.791   7.518 -0.4071 -0.5831 -0.5249
  355MOL0     C47805   3.469  10.921   7.524 -1.2978 -0.2580  0.2354
  355MOL0     C47806   3.363  10.905   7.422 -0.7581  0.3627 -0.9802
  355MOL0     N47807   3.274  10.777   7.446  0.4609  0.0832 -0.2671
  355MOL0     C47808   3.298  10.659   7.388 -0.5429 -0.1576  0.1496
  355MOL0     C47809   3.183  10.593   7.413 -0.0255 -0.4129 -0.5943
  355MOL0     C47810   3.153  10.451   7.379 -0.1580 -0.7331  1.0117
  355MOL0     C47811   3.216  10.354   7.475  0.5671 -0.3554  1.2294
  355MOL0     C47812   3.127  10.347   7.599  0.0999  0.6835 -0.4116
  355MOL0     C47813   3.048  10.216   7.614  0.6206  0.0135  0.5429
  355MOL0     O47814   3.135  10.107   7.631  0.4505  0.3256  0.5426
  355MOL0     C47815   3.195  10.089   7.751  0.0017  0.2978 -0.0501
  355MOL0     C47816   3.159  10.159   7.869 -0.1733  0.0228 -0.5342
  355MOL0     C47817   3.231  10.143   7.994 -0.1562  0.5225 -0.4993
  355MOL0     C47818   3.194  10.232   8.118 -0.5768  0.6028 -0.2295
  355MOL0     C47819   3.342  10.047   8.000  0.0495  0.7099  0.2402
  355MOL0     C47820   3.438  10.026   8.118  0.1479  0.4927 -0.2808
  355MOL0     O47821   3.541   9.959   8.085  0.1483 -0.4102 -0.1740
  355MOL0     C47822   3.647   9.928   8.170  0.2990 -0.4801 -1.2415
  355MOL0     C47823   3.705   9.805   8.139  0.0495 -0.4237 -0.0221
  355MOL0     C47824   3.819   9.760   8.207 -1.1352 -0.2070 -0.4740
  355MOL0     C47825   3.876   9.841   8.312  0.9561  0.2501 -0.2590
  355MOL0     O47826   3.991   9.815   8.373  0.3810 -0.2818  0.0347
  355MOL0     C47827   4.056   9.689   8.367  0.1288  0.8514 -0.3760
  355MOL0     C47828   4.161   9.693   8.484 -0.1088 -0.5856 -0.7230
  355MOL0     C47829   4.272   9.582   8.492  0.1841 -0.3993  0.5085
  355MOL0     C47830   4.335   9.561   8.634 -0.3296  0.7375  0.1065
  355MOL0     C47831   4.401   9.425   8.636 -0.0145  0.4562 -0.3223
  355MOL0     C47832   4.473   9.392   8.766 -0.3270 -0.2122 -0.7069
  355MOL0     C47833   4.574   9.502   8.802 -0.4427 -0.5866 -0.1190
  355MOL0     C47834   4.670   9.450   8.902 -0.3445 -0.5142 -0.9748
  355MOL0    Cl47835   4.817   9.558   8.914 -0.1711  0.0658 -0.2752
  355MOL0     C47836   3.814   9.964   8.346  0.0240 -0.3124  0.0411
  355MOL0     C47837   3.697  10.004   8.275 -0.1730 -0.3187  0.6351
  355MOL0     O47838   3.421  10.080   8.223  0.5608 -0.1128  0.1829
  355MOL0     C47839   3.370   9.977   7.876 -0.3298  0.3889  0.1980
  355MOL0     C47840   3.302  10.003   7.757  0.1959  0.6750  0.6396
  355MOL0     N47841   3.083  10.678   7.469 -0.7485  0.0022 -0.2595
  355MOL0     N47842   3.140  10.793   7.485 -1.1520  0.1633 -0.0139
  355MOL0     C47843   4.203  10.349   8.058 -0.3678  0.0566 -0.4023
  355MOL0     C47844   4.329  10.307   8.110  0.2652 -0.3921 -0.9175
  355MOL0     C47845   4.787  10.287   8.125 -0.1103  1.0523  0.2305
  355MOL0     C47846   4.903  10.262   8.053 -0.7350 -0.4159 -0.4383
  355MOL0     C47847   5.025  10.238   8.120 -0.2155  0.1097  0.1255
  355MOL0     C47848   5.031  10.211   8.254  0.1038  0.0320 -0.0087
  355MOL0     O47849   5.151  10.168   8.299  0.1784 -0.8138 -0.3586
  355MOL0     C47850   5.161  10.134   8.434  0.4048  0.3115  0.2992
  355MOL0     C47851   5.189  10.252   8.523 -0.7901 -0.0604  0.2562
  355MOL0     C47852   5.341  10.268   8.529 -0.1345  0.0642  0.4836
  355MOL0     C47853   5.387  10.362   8.636 -0.0388 -0.0694 -0.8105
  355MOL0     C47854   5.527  10.399   8.638 -1.7539  0.3945  0.3420
  355MOL0     C47855   5.648  10.422   8.640  0.3739  0.1016  0.6338
  355MOL0     C47856   4.915  10.234   8.326  0.5822 -0.3800  0.3782
  355MOL0     C47857   4.793  10.268   8.263  0.0224 -0.2291  0.0496
  355MOL0     H47858   4.518  10.560   8.000 -1.1783  0.7432 -1.2261
  355MOL0     H47859   4.304  10.628   7.898 -1.9599 -2.6645 -2.2789
  355MOL0     H47860   4.094  10.685   7.850 -1.4304  0.5159  0.3003
  355MOL0     H47861   4.052  10.545   7.757 -0.8347 -2.2470  0.8210
  355MOL0     H47862   3.824  10.550   7.871  1.2281 -1.4563  1.7543
  355MOL0     H47863   3.868  10.689   7.966 -1.4482  0.5629 -1.1923
  355MOL0     H47864   3.851  10.827   7.799 -0.8842 -1.2497  3.6398
  355MOL0     H47865   3.934  10.723   7.680  0.4743  0.5935  1.0395
  355MOL0     H47866   3.731  10.611   7.621 -0.1983 -0.0601  0.7042
  355MOL0     H47867   3.644  10.693   7.757 -0.6306 -1.6719 -1.4802
  355MOL0     H47868   3.699  10.907   7.646  0.4224 -0.6911 -0.1751
  355MOL0     H47869   3.774  10.828   7.517 -1.7530 -0.4190 -2.3295
  355MOL0     H47870   3.591  10.776   7.415  0.3633  0.1189 -0.3825
  355MOL0     H47871   3.507  10.698   7.546 -2.6402  0.1610 -1.7935
  355MOL0     H47872   3.421  10.929   7.622  0.6682  3.4726  1.0921
  355MOL0     H47873   3.532  11.007   7.500 -0.1665 -0.7725  1.2695
  355MOL0     H47874   3.403  10.905   7.321  0.0766 -0.2803 -0.6653
  355MOL0     H47875   3.292  10.989   7.420 -2.4725 -1.0401 -1.5924
  355MOL0     H47876   3.391  10.623   7.345  1.0635  1.1247  2.3161
  355MOL0     H47877   3.045  10.437   7.369 -0.0542 -1.9457  1.5043
  355MOL0     H47878   3.189  10.431   7.277  1.1702  2.1203  0.8234
  355MOL0     H47879   3.320  10.383   7.488  0.7393 -0.3916  0.0766
  355MOL0     H47880   3.230  10.259   7.423  0.8828 -1.3396  3.0390
  355MOL0     H47881   3.052  10.426   7.591  0.0991  0.8533  1.0255
  355MOL0     H47882   3.190  10.372   7.684  0.6064 -0.7451 -0.3374
  355MOL0     H47883   2.986  10.204   7.525  1.7620 -0.3288 -0.2268
  355MOL0     H47884   2.984  10.221   7.703  1.1395  0.0289  0.9195
  355MOL0     H47885   3.072  10.224   7.866  0.8502  1.3960 -1.2408
  355MOL0     H47886   3.266  10.313   8.127  0.4336 -0.3103  0.1454
  355MOL0     H47887   3.099  10.283   8.099 -2.3765 -1.4023  2.6730
  355MOL0     H47888   3.180  10.178   8.212  0.2658 -1.0959 -1.0443
  355MOL0     H47889   3.657   9.752   8.057 -0.3482  0.4194 -0.3432
  355MOL0     H47890   3.864   9.663   8.189  0.7326  0.5986 -0.3613
  355MOL0     H47891   3.984   9.611   8.394 -0.4058  1.3109 -0.4505
  355MOL0     H47892   4.102   9.660   8.272 -0.8313 -3.2069  0.2264
  355MOL0     H47893   4.215   9.788   8.490 -3.6273  1.4656  2.5277
  355MOL0     H47894   4.104   9.682   8.576 -0.0393  0.2688 -0.5751
  355MOL0     H47895   4.353   9.610   8.424  1.5109 -1.1866  1.7011
  355MOL0     H47896   4.218   9.492   8.462 -2.1911  1.1012 -0.0302
  355MOL0     H47897   4.402   9.646   8.651  1.1217  0.0929 -1.9026
  355MOL0     H47898   4.256   9.566   8.708 -2.3703 -1.2634 -1.7747
  355MOL0     H47899   4.469   9.401   8.553  1.7312 -3.2100  1.9213
  355MOL0     H47900   4.324   9.347   8.630  1.8750 -1.7071  1.6377
  355MOL0     H47901   4.402   9.380   8.849  1.2198 -2.2898  0.4163
  355MOL0     H47902   4.527   9.297   8.761  1.1677  0.6561 -1.4982
  355MOL0     H47903   4.523   9.591   8.839  1.8740  0.9457 -0.4364
  355MOL0     H47904   4.634   9.535   8.717  0.7197 -1.4784  0.3157
  355MOL0     H47905   4.707   9.349   8.880  1.1269 -0.0388 -0.8259
  355MOL0     H47906   4.617   9.451   8.998 -0.5782 -0.8523 -1.1022
  355MOL0     H47907   3.862  10.038   8.408  0.2710  0.9048 -1.5349
  355MOL0     H47908   3.651  10.099   8.300  1.3991  1.5316 -2.8981
  355MOL0     H47909   3.449   9.902   7.872 -0.9694 -0.2567 -1.5527
  355MOL0     H47910   3.332   9.943   7.672  1.6752 -1.7664  2.7384
  355MOL0     H47911   4.111  10.302   8.089 -1.8128  2.3724 -0.9322
  355MOL0     H47912   4.340  10.211   8.159 -0.1833  0.0148 -0.0026
  355MOL0     H47913   4.909  10.270   7.945 -0.0769 -1.4853 -0.4909
  355MOL0     H47914   5.121  10.234   8.069 -0.7233 -0.1568 -0.8150
  355MOL0     H47915   5.066  10.091   8.468 -1.3089  3.2202 -0.4717
  355MOL0     H47916   5.240  10.060   8.447 -0.8770 -0.9617  1.2328
  355MOL0     H47917   5.149  10.229   8.622 -2.0606 -1.0796 -0.4693
  355MOL0     H47918   5.146  10.346   8.488 -1.2375 -0.3778 -0.0492
  355MOL0     H47919   5.382  10.296   8.431  2.5147 -3.1140  0.5216
  355MOL0     H47920   5.387  10.173   8.557  1.0892  0.9062  1.3838
  355MOL0     H47921   5.393  10.313   8.734  0.3475  3.3689  1.0561
  355MOL0     H47922   5.330  10.456   8.632 -1.5843 -0.9789 -0.8749
  355MOL0     H47923   5.749  10.457   8.647  0.3742  0.4948 -0.9103
  355MOL0     H47924   4.914  10.230   8.435  0.2389 -1.1615  0.3542
  355MOL0     H47925   4.694  10.277   8.306 -0.7858 -1.0006 -1.5372
  356MOL0     O47926   2.839   6.266   6.562  0.1685 -0.4162  0.0216
  356MOL0     C47927   2.862   6.331   6.660 -0.0352 -0.1405  0.4909
  356MOL0     O47928   2.768   6.402   6.731 -0.4870 -0.3792  0.1270
  356MOL0     C47929   2.638   6.397   6.692 -0.1920  0.4949 -0.2099
  356MOL0     C47930   2.537   6.331   6.761 -0.2721  0.5490 -0.5203
  356MOL0     C47931   2.400   6.340   6.718 -0.8808  0.4662  0.2844
  356MOL0     C47932   2.367   6.413   6.605  0.3763 -0.1766 -0.1103
  356MOL0     O47933   2.238   6.423   6.552  0.0903 -0.0372 -0.6648
  356MOL0     C47934   2.138   6.454   6.646  0.1949  0.2221 -0.2025
  356MOL0     C47935   2.010   6.453   6.565  0.2758 -0.4490 -0.0498
  356MOL0     C47936   1.960   6.324   6.511 -0.1640  0.1051  0.2633
  356MOL0     C47937   2.031   6.286   6.373 -0.1393  0.3589  1.2661
  356MOL0     C47938   1.969   6.167   6.296 -0.8410 -0.3246  0.1239
  356MOL0     C47939   1.995   6.040   6.370 -0.4671  0.6218 -0.3329
  356MOL0     C47940   1.890   5.937   6.326 -0.0256 -0.2705 -0.0184
  356MOL0     C47941   1.927   5.792   6.359  0.2090  0.1784  0.1043
  356MOL0     N47942   1.890   5.711   6.243  0.0762 -0.0466 -0.2622
  356MOL0     C47943   1.759   5.686   6.200 -0.3625 -0.3787  0.9079
  356MOL0     C47944   1.783   5.578   6.109 -0.8485 -0.4596 -0.3556
  356MOL0     C47945   1.686   5.482   6.033  0.8468 -0.0503  0.4696
  356MOL0     C47946   1.662   5.544   5.893 -0.5743 -0.5886  0.1949
  356MOL0     C47947   1.569   5.463   5.812  0.6438  0.4104 -0.5959
  356MOL0     C47948   1.419   5.489   5.834  0.3264 -0.0700 -0.5922
  356MOL0     O47949   1.376   5.613   5.778 -0.4700  0.6105 -0.0963
  356MOL0     C47950   1.246   5.624   5.733  0.2664 -0.1992  0.4282
  356MOL0     C47951   1.212   5.703   5.624 -0.4914 -0.0419  0.2541
  356MOL0     C47952   1.080   5.747   5.590  0.0884  0.5078  0.4019
  356MOL0     C47953   1.066   5.852   5.478  0.1402  0.0009 -0.2050
  356MOL0     C47954   0.973   5.697   5.673  0.5646  0.7653 -0.4744
  356MOL0     C47955   0.831   5.732   5.655  0.7458  0.1845  0.8312
  356MOL0     O47956   0.747   5.712   5.760 -0.0381 -0.8520 -0.4005
  356MOL0     C47957   0.619   5.769   5.774 -0.0879  0.8345  0.3330
  356MOL0     C47958   0.558   5.864   5.697  0.4992 -0.2574  0.0785
  356MOL0     C47959   0.424   5.890   5.716  0.0260  0.0661 -0.0606
  356MOL0     C47960   0.348   5.839   5.828 -0.2356 -0.8005  0.5722
  356MOL0     O47961   0.226   5.881   5.861 -0.8981  0.6859  0.2474
  356MOL0     C47962   0.168   5.992   5.791  0.1705 -0.4456 -0.8132
  356MOL0     C47963   0.038   6.037   5.866  0.3665  0.2813  0.4227
  356MOL0     C47964  -0.066   5.921   5.840 -0.3391 -0.1570  0.0573
  356MOL0     C47965  -0.202   5.945   5.913 -0.6605  0.3132  0.2168
  356MOL0     C47966  -0.312   5.846   5.869 -0.5380  0.3401 -0.8200
  356MOL0     C47967  -0.434   5.863   5.972 -0.0450 -0.2431 -0.1390
  356MOL0     C47968  -0.531   5.959   5.918  0.1454  0.2655  0.1885
  356MOL0     C47969  -0.664   5.964   5.999 -0.6834  0.5749  0.2732
  356MOL0    Cl47970  -0.732   5.797   6.022  0.4610 -0.3509 -0.2472
  356MOL0     C47971   0.415   5.740   5.899  0.2714  0.1872  0.3820
  356MOL0     C47972   0.545   5.706   5.868 -0.9160 -0.4737  0.1701
  356MOL0     O47973   0.791   5.787   5.553 -0.2402  0.3316  0.4915
  356MOL0     C47974   1.004   5.599   5.774 -0.0187  0.6194 -0.4054
  356MOL0     C47975   1.137   5.567   5.802  0.1414  0.2156 -0.0753
  356MOL0     N47976   1.917   5.542   6.113 -0.1635  0.3037  0.5604
  356MOL0     N47977   1.978   5.623   6.188 -0.0832  0.2179  0.1387
  356MOL0     C47978   2.466   6.483   6.532 -0.4982  0.4735  0.0196
  356MOL0     C47979   2.601   6.466   6.572 -0.0372  0.7890 -0.3741
  356MOL0     C47980   3.005   6.348   6.692  0.3969  0.1869 -0.0353
  356MOL0     C47981   3.117   6.342   6.598 -0.2864 -0.5654 -0.2497
  356MOL0     C47982   3.246   6.348   6.655  0.1528 -0.0354  1.3153
  356MOL0     C47983   3.276   6.380   6.787  0.1540  0.5932  0.0655
  356MOL0     O47984   3.391   6.380   6.855 -0.2421 -0.3224  0.2115
  356MOL0     C47985   3.494   6.299   6.785 -0.3373 -0.8926 -0.9917
  356MOL0     C47986   3.627   6.314   6.851 -0.2160  0.2946 -0.0251
  356MOL0     C47987   3.626   6.270   7.000 -0.0333  0.4847 -0.4834
  356MOL0     C47988   3.761   6.307   7.067 -0.3914 -0.3889  0.1716
  356MOL0     C47989   3.746   6.306   7.216  0.2458 -0.5521 -0.3196
  356MOL0     C47990   3.738   6.307   7.343  0.2663  0.0713 -0.4662
  356MOL0     C47991   3.167   6.398   6.875  0.2095 -0.5756  0.1022
  356MOL0     C47992   3.040   6.376   6.827 -0.3100 -0.9764  0.4394
  356MOL0     H47993   2.574   6.273   6.845 -1.3437 -1.2713 -1.2663
  356MOL0     H47994   2.323   6.278   6.762  0.3815 -2.4971 -1.3500
  356MOL0     H47995   2.134   6.392   6.735 -2.6279  1.8061  0.9110
  356MOL0     H47996   2.151   6.558   6.677 -1.9869 -0.0582  1.8889
  356MOL0     H47997   1.933   6.484   6.636  1.6522  3.5552 -0.0383
  356MOL0     H47998   2.014   6.522   6.480  0.8430 -0.4156 -0.0009
  356MOL0     H47999   1.969   6.242   6.582 -0.9215 -2.2543 -2.2217
  356MOL0     H48000   1.852   6.331   6.494 -0.1884 -0.6965  0.0810
  356MOL0     H48001   2.036   6.375   6.309 -0.4194  0.2061  1.0321
  356MOL0     H48002   2.133   6.259   6.403 -1.4459 -4.9377  1.9284
  356MOL0     H48003   1.863   6.194   6.286  0.0782  2.8805 -3.6465
  356MOL0     H48004   2.005   6.157   6.193  2.0253  0.3016  0.9710
  356MOL0     H48005   2.097   6.008   6.345 -0.5298  0.8342 -0.8521
  356MOL0     H48006   1.980   6.052   6.478 -1.7258 -1.3776 -0.2374
  356MOL0     H48007   1.798   5.967   6.378  0.4357 -0.4766  0.9473
  356MOL0     H48008   1.874   5.943   6.218  0.2799 -1.2325 -0.1272
  356MOL0     H48009   1.878   5.754   6.449 -0.7873 -0.6307 -0.7502
  356MOL0     H48010   2.035   5.791   6.373 -0.1387  0.2255  3.6251
  356MOL0     H48011   1.662   5.731   6.219 -1.1476  1.2576 -4.9491
  356MOL0     H48012   1.725   5.380   6.020 -0.2451 -0.3683 -0.4102
  356MOL0     H48013   1.594   5.469   6.091  0.1878 -3.9496 -1.0810
  356MOL0     H48014   1.755   5.542   5.836 -0.7816 -1.7485 -0.1285
  356MOL0     H48015   1.627   5.647   5.902  2.4507  0.7145 -1.5565
  356MOL0     H48016   1.590   5.356   5.821 -0.0523  0.2147 -1.2946
  356MOL0     H48017   1.583   5.489   5.707  0.2578  0.6600 -0.5867
  356MOL0     H48018   1.396   5.476   5.940 -0.8305 -0.3724 -0.8648
  356MOL0     H48019   1.368   5.408   5.782  2.9988 -2.4340  0.2297
  356MOL0     H48020   1.296   5.741   5.567  1.0411 -2.8470  0.4517
  356MOL0     H48021   1.164   5.900   5.471 -1.3324  3.0472 -1.4297
  356MOL0     H48022   1.047   5.807   5.380 -0.6144 -1.5662  0.6075
  356MOL0     H48023   0.989   5.924   5.507 -0.1775 -0.1033 -0.7722
  356MOL0     H48024   0.613   5.929   5.629 -0.7076  1.2080  0.4390
  356MOL0     H48025   0.391   5.975   5.657  2.2888  1.9821  1.2585
  356MOL0     H48026   0.234   6.079   5.781  0.1135 -0.0410  1.6214
  356MOL0     H48027   0.137   5.968   5.689  0.0606 -0.2156 -0.8347
  356MOL0     H48028   0.050   6.048   5.974  1.5668 -1.5137  0.5055
  356MOL0     H48029   0.010   6.130   5.815  0.8881 -0.2563 -0.8784
  356MOL0     H48030  -0.023   5.826   5.875  1.1858  0.5311  0.1479
  356MOL0     H48031  -0.094   5.905   5.736  3.1925 -0.7774 -0.9310
  356MOL0     H48032  -0.184   5.930   6.020  2.2985  0.7349 -0.1459
  356MOL0     H48033  -0.241   6.042   5.883 -0.7966  0.1095 -0.2643
  356MOL0     H48034  -0.270   5.745   5.873  1.5133  1.1790  0.1172
  356MOL0     H48035  -0.341   5.873   5.767  1.3235  1.2494 -1.1503
  356MOL0     H48036  -0.469   5.760   5.983  3.1325 -1.2608  1.7543
  356MOL0     H48037  -0.402   5.888   6.074 -1.2689  0.2638  0.1417
  356MOL0     H48038  -0.555   5.939   5.813  0.7649  0.2228  0.0533
  356MOL0     H48039  -0.497   6.062   5.923 -1.5105  0.8276  0.6223
  356MOL0     H48040  -0.736   6.015   5.933 -0.6492  0.4442  0.1361
  356MOL0     H48041  -0.654   6.021   6.092 -1.8546  0.1343  0.6879
  356MOL0     H48042   0.361   5.686   5.975 -1.8201 -1.9104 -2.3665
  356MOL0     H48043   0.595   5.639   5.937  0.9699  1.8294  1.2224
  356MOL0     H48044   0.923   5.560   5.834 -0.5177 -0.9861 -2.0130
  356MOL0     H48045   1.156   5.494   5.880  1.8091  0.3207 -0.3486
  356MOL0     H48046   2.449   6.544   6.444 -2.0894 -1.4506 -1.1105
  356MOL0     H48047   2.682   6.512   6.518  0.7820  0.7915  0.8020
  356MOL0     H48048   3.093   6.311   6.496 -1.6121  0.1470 -0.1801
  356MOL0     H48049   3.318   6.324   6.578 -0.5748 -2.1024  1.2255
  356MOL0     H48050   3.459   6.195   6.784  0.1897 -1.3155  3.9927
  356MOL0     H48051   3.510   6.335   6.683 -1.5667 -0.1567 -0.9487
  356MOL0     H48052   3.658   6.418   6.834 -0.7995  0.3198 -1.0098
  356MOL0     H48053   3.694   6.247   6.797 -0.9882  0.1860 -0.8739
  356MOL0     H48054   3.618   6.161   7.012 -1.2630  0.4855 -1.1212
  356MOL0     H48055   3.543   6.312   7.057 -0.5089 -1.0155 -0.0077
  356MOL0     H48056   3.785   6.408   7.031 -1.2063 -0.3623 -0.3109
  356MOL0     H48057   3.839   6.236   7.039  2.5489  1.2620  3.2565
  356MOL0     H48058   3.736   6.316   7.450 -1.5358  2.3725 -0.6051
  356MOL0     H48059   3.169   6.440   6.976  0.5675  2.2093 -0.9652
  356MOL0     H48060   2.952   6.398   6.886  0.4980 -0.7812  1.5973
  357MOL0     O48061  10.341   2.572   3.577  0.4337  0.3020  0.2804
  357MOL0     C48062  10.384   2.469   3.522  0.3519  0.2748 -0.2188
  357MOL0     O48063  10.310   2.382   3.452  0.2571  0.8497 -0.8344
  357MOL0     C48064  10.170   2.361   3.484  0.0403 -0.1140  0.0027
  357MOL0     C48065  10.106   2.379   3.603 -0.1188 -1.1367  0.5261
  357MOL0     C48066   9.968   2.341   3.616 -1.1290 -0.8809  0.1000
  357MOL0     C48067   9.901   2.286   3.507  0.3746  0.0375 -0.1468
  357MOL0     O48068   9.765   2.270   3.502  0.2805 -0.1009  0.0499
  357MOL0     C48069   9.690   2.352   3.591  0.0513 -0.6044  0.9526
  357MOL0     C48070   9.541   2.360   3.535  0.6172  0.2188 -0.7713
  357MOL0     C48071   9.452   2.463   3.616 -0.2800  0.6131 -0.5724
  357MOL0     C48072   9.308   2.472   3.573  0.0736  0.0344  0.4643
  357MOL0     C48073   9.220   2.367   3.643 -0.6105  0.1499 -0.2603
  357MOL0     C48074   9.075   2.374   3.597 -0.7116  0.2960 -0.2651
  357MOL0     C48075   9.004   2.501   3.643 -0.4539 -0.2716 -0.0724
  357MOL0     C48076   8.850   2.504   3.621 -0.4380  0.9422  0.5440
  357MOL0     N48077   8.776   2.445   3.738  0.2565 -0.0094 -0.5350
  357MOL0     C48078   8.669   2.503   3.792  0.5395 -0.3917  0.7799
  357MOL0     C48079   8.619   2.412   3.880 -0.8016  0.5775  0.3420
  357MOL0     C48080   8.506   2.443   3.982 -0.3453 -0.5482 -0.7817
  357MOL0     C48081   8.367   2.441   3.922  0.0248 -0.1690  0.7191
  357MOL0     C48082   8.339   2.299   3.862  0.7193  0.4523 -0.2656
  357MOL0     C48083   8.202   2.288   3.779 -0.1394  0.4029 -0.7548
  357MOL0     O48084   8.179   2.149   3.734  0.0356 -0.2135 -0.8902
  357MOL0     C48085   8.064   2.137   3.666 -0.3082 -1.7717  0.1150
  357MOL0     C48086   7.968   2.068   3.720  0.6910  0.3702  0.1864
  357MOL0     C48087   7.851   2.039   3.649  0.1252  1.0894 -0.8419
  357MOL0     C48088   7.752   1.957   3.728 -0.0328  0.1520  0.1368
  357MOL0     C48089   7.834   2.084   3.513  0.4424  0.2847 -0.3793
  357MOL0     C48090   7.728   2.040   3.419  0.2774 -0.5340 -0.2800
  357MOL0     O48091   7.655   1.934   3.464  0.6973  0.1474 -0.0603
  357MOL0     C48092   7.528   1.923   3.416 -0.4969  0.2943  0.7137
  357MOL0     C48093   7.419   1.993   3.465 -0.8984  0.2198 -0.0451
  357MOL0     C48094   7.297   1.985   3.395 -0.3063 -1.0948 -0.6042
  357MOL0     C48095   7.280   1.903   3.282  0.1846 -0.1604 -0.1654
  357MOL0     O48096   7.165   1.893   3.211  0.4710  0.0499 -0.5421
  357MOL0     C48097   7.049   1.976   3.243  0.6125 -0.7483  0.2275
  357MOL0     C48098   6.972   1.913   3.370 -0.3455 -0.0299  0.7501
  357MOL0     C48099   6.860   2.012   3.403  0.8067  0.3329  0.7891
  357MOL0     C48100   6.806   1.995   3.544 -0.3210 -0.2866  0.6086
  357MOL0     C48101   6.767   1.855   3.579 -0.5423  0.1376  0.5098
  357MOL0     C48102   6.709   1.851   3.720 -0.3485 -0.4599  0.1174
  357MOL0     C48103   6.716   1.710   3.785  0.3809  0.2362 -0.0282
  357MOL0     C48104   6.606   1.700   3.888  0.6711  0.4791  0.7078
  357MOL0    Cl48105   6.631   1.556   4.005  0.1807  0.6065 -0.0250
  357MOL0     C48106   7.392   1.840   3.244  0.7579  0.7451  0.7240
  357MOL0     C48107   7.514   1.837   3.303 -0.5288  0.0372 -0.2691
  357MOL0     O48108   7.729   2.084   3.305  0.1894 -0.3065 -0.2536
  357MOL0     C48109   7.942   2.164   3.459 -0.7350  0.4020 -0.1693
  357MOL0     C48110   8.053   2.192   3.539  0.7256  0.7697  0.1072
  357MOL0     N48111   8.693   2.295   3.865  0.3509  0.2184 -0.1850
  357MOL0     N48112   8.787   2.315   3.781 -0.6650  0.5638  0.3961
  357MOL0     C48113   9.975   2.261   3.387  0.0645 -0.5225  0.1467
  357MOL0     C48114  10.102   2.307   3.375  0.2698 -0.4785  0.3127
  357MOL0     C48115  10.527   2.446   3.523  0.5528  1.2337 -0.0572
  357MOL0     C48116  10.610   2.552   3.559 -0.4486  0.4292  0.2823
  357MOL0     C48117  10.745   2.524   3.568 -0.1778  0.7505  0.2040
  357MOL0     C48118  10.801   2.398   3.543 -0.3135 -0.6267  0.0866
  357MOL0     O48119  10.931   2.373   3.561 -0.1916 -0.0946 -0.8072
  357MOL0     C48120  11.034   2.473   3.540 -0.5735  0.0352 -0.1328
  357MOL0     C48121  11.073   2.525   3.674 -0.5888  0.0970 -0.5942
  357MOL0     C48122  11.159   2.436   3.747  0.2216  0.4100 -0.6108
  357MOL0     C48123  11.160   2.452   3.897  0.1625 -0.0419 -0.1145
  357MOL0     C48124  11.270   2.359   3.941  0.0943 -0.5607  0.1429
  357MOL0     C48125  11.344   2.269   3.982  0.2562  0.6576  0.6406
  357MOL0     C48126  10.717   2.293   3.506  0.8457  0.1756 -0.2372
  357MOL0     C48127  10.580   2.319   3.498 -0.3814 -0.5446 -0.3097
  357MOL0     H48128  10.157   2.422   3.688 -0.2401  2.2692 -0.9765
  357MOL0     H48129   9.915   2.362   3.709 -3.2628  0.9690 -1.4359
  357MOL0     H48130   9.699   2.322   3.696  1.2022 -0.3346  0.9391
  357MOL0     H48131   9.727   2.455   3.589  1.3919 -1.0553 -2.2764
  357MOL0     H48132   9.541   2.380   3.427 -0.6706 -1.3791 -1.1228
  357MOL0     H48133   9.511   2.256   3.550  2.8213 -0.7046 -2.2525
  357MOL0     H48134   9.462   2.429   3.719 -1.1060  0.7486 -0.4401
  357MOL0     H48135   9.500   2.561   3.606  1.2440  0.2692  2.4135
  357MOL0     H48136   9.280   2.575   3.595  1.5132  0.3348  0.9989
  357MOL0     H48137   9.307   2.464   3.463  2.0388  0.9198  0.3392
  357MOL0     H48138   9.258   2.268   3.616  2.2752  0.5119  1.9934
  357MOL0     H48139   9.227   2.380   3.752  0.3304 -0.4536 -0.2359
  357MOL0     H48140   9.074   2.374   3.488  0.7367  0.2574 -0.2995
  357MOL0     H48141   9.019   2.289   3.637 -0.5887  0.5688  0.5044
  357MOL0     H48142   9.017   2.520   3.750 -0.8000 -0.0451 -0.0682
  357MOL0     H48143   9.044   2.587   3.590 -1.5223 -1.0670 -2.2892
  357MOL0     H48144   8.831   2.453   3.526  3.1623  3.0244 -1.5212
  357MOL0     H48145   8.812   2.605   3.604 -1.1643  0.6188  0.2152
  357MOL0     H48146   8.634   2.602   3.765  2.4403  0.9835  3.0189
  357MOL0     H48147   8.518   2.384   4.074  2.7321 -0.4100 -0.9759
  357MOL0     H48148   8.532   2.542   4.022  3.4107 -2.5478  2.4782
  357MOL0     H48149   8.350   2.518   3.847 -0.0061 -0.4615  0.4231
  357MOL0     H48150   8.299   2.447   4.008  1.2754  0.2344  1.7079
  357MOL0     H48151   8.333   2.233   3.949 -2.8793  0.7523 -0.1601
  357MOL0     H48152   8.419   2.266   3.794  0.4754  0.0566 -0.3648
  357MOL0     H48153   8.204   2.364   3.700 -1.9090  1.7445  0.3963
  357MOL0     H48154   8.121   2.329   3.841 -0.1963  3.6524 -2.7198
  357MOL0     H48155   7.989   2.030   3.819  2.8216  1.1343  0.0826
  357MOL0     H48156   7.769   1.974   3.835 -2.0994 -3.3515  1.1672
  357MOL0     H48157   7.650   1.991   3.708 -0.1305 -0.9113 -1.3071
  357MOL0     H48158   7.749   1.851   3.705 -2.1014  0.0236  0.7973
  357MOL0     H48159   7.430   2.055   3.554  0.6327  0.4849 -0.3834
  357MOL0     H48160   7.226   2.057   3.435  4.3119  5.1190 -2.0453
  357MOL0     H48161   7.075   2.081   3.259 -0.6425  0.0690 -2.5287
  357MOL0     H48162   6.980   1.966   3.159  0.3256  1.7137  0.0977
  357MOL0     H48163   6.930   1.814   3.349 -2.8749  0.1569  4.0728
  357MOL0     H48164   7.038   1.898   3.456 -0.9910  0.3418  1.3246
  357MOL0     H48165   6.777   1.998   3.334 -0.7234 -0.3729  2.6905
  357MOL0     H48166   6.889   2.118   3.395  1.2682  0.2001  0.6325
  357MOL0     H48167   6.883   2.025   3.615 -1.4735  1.8354  1.0483
  357MOL0     H48168   6.718   2.058   3.558  0.7265  0.5953  4.2196
  357MOL0     H48169   6.847   1.780   3.574  0.4732  1.2322 -0.3360
  357MOL0     H48170   6.684   1.825   3.513 -1.2271  1.7638  0.5753
  357MOL0     H48171   6.752   1.923   3.790 -0.9707  1.7946 -1.6881
  357MOL0     H48172   6.605   1.885   3.713 -0.1084  0.0071 -1.7907
  357MOL0     H48173   6.809   1.703   3.843  0.0074  1.6467  0.7944
  357MOL0     H48174   6.704   1.639   3.703  0.8453 -1.0261  0.9769
  357MOL0     H48175   6.506   1.712   3.844  0.7249  2.5243  1.0402
  357MOL0     H48176   6.620   1.790   3.949 -1.1550  1.3464 -0.0714
  357MOL0     H48177   7.382   1.782   3.153 -1.6212 -1.5588  2.2887
  357MOL0     H48178   7.596   1.776   3.267  0.0692  0.6941 -0.0482
  357MOL0     H48179   7.939   2.202   3.357 -0.9567  4.1091  1.0472
  357MOL0     H48180   8.152   2.224   3.508  1.3939 -0.0367  1.2989
  357MOL0     H48181   9.923   2.211   3.306 -0.9407 -0.5899  0.8212
  357MOL0     H48182  10.159   2.280   3.286 -0.4219  0.1915 -0.3507
  357MOL0     H48183  10.571   2.652   3.576 -2.0014 -0.0104 -0.4401
  357MOL0     H48184  10.806   2.610   3.594  1.3534 -0.4372  0.6882
  357MOL0     H48185  11.113   2.429   3.478 -0.3601 -0.7305  0.6587
  357MOL0     H48186  11.002   2.547   3.467 -0.6243 -0.5025 -0.6674
  357MOL0     H48187  10.980   2.531   3.732  0.8742  1.5941  1.7257
  357MOL0     H48188  11.120   2.623   3.667 -0.7683  0.3144  0.9775
  357MOL0     H48189  11.258   2.455   3.704  0.1975  2.5067  0.1446
  357MOL0     H48190  11.141   2.331   3.723  6.6535 -0.8840 -1.5447
  357MOL0     H48191  11.064   2.424   3.942  1.1601 -2.1134  0.8257
  357MOL0     H48192  11.186   2.552   3.933 -1.0552 -0.2365  1.3991
  357MOL0     H48193  11.421   2.202   4.014  1.6859 -0.5453 -4.4111
  357MOL0     H48194  10.754   2.192   3.486  1.6411  0.5662 -0.8178
  357MOL0     H48195  10.521   2.234   3.465 -3.5679  1.2763  0.2055
  358MOL0     O48196  10.220   9.477   6.254 -0.1080  0.3958  0.6248
  358MOL0     C48197  10.248   9.595   6.282  0.9251  0.4181 -0.7857
  358MOL0     O48198  10.152   9.695   6.317  0.6583 -0.0703 -0.5022
  358MOL0     C48199  10.017   9.671   6.280 -0.4668 -0.4647 -0.1775
  358MOL0     C48200   9.913   9.682   6.378 -0.4890  0.1633 -0.5538
  358MOL0     C48201   9.779   9.658   6.342  0.1348 -0.3999 -0.2412
  358MOL0     C48202   9.740   9.618   6.220 -1.0099  0.4870  0.3127
  358MOL0     O48203   9.616   9.591   6.205  0.3534  0.0437 -0.4022
  358MOL0     C48204   9.571   9.469   6.155 -0.2089 -1.0539  0.2231
  358MOL0     C48205   9.444   9.428   6.226  0.0592  0.1228  0.4583
  358MOL0     C48206   9.339   9.413   6.121  0.3803 -0.1675  0.0795
  358MOL0     C48207   9.209   9.358   6.181 -0.5925  0.6255  0.1614
  358MOL0     C48208   9.098   9.354   6.085  0.2595 -0.0557 -0.5854
  358MOL0     C48209   8.971   9.289   6.154 -0.2783  0.2008  0.3077
  358MOL0     C48210   8.849   9.290   6.063  0.0225  0.0043  0.4438
  358MOL0     C48211   8.729   9.239   6.155 -0.2265 -0.3506  0.1396
  358MOL0     N48212   8.626   9.202   6.057  0.1777 -0.0466 -0.2789
  358MOL0     C48213   8.551   9.295   5.986  0.7457 -0.8124 -0.5582
  358MOL0     C48214   8.463   9.216   5.919  0.0746  0.7050  0.0786
  358MOL0     C48215   8.366   9.265   5.824 -0.5742 -0.4902  0.4119
  358MOL0     C48216   8.249   9.328   5.896  0.3150  0.7266  0.7461
  358MOL0     C48217   8.180   9.232   5.987  0.7696 -0.9744  0.0503
  358MOL0     C48218   8.115   9.101   5.928 -0.4375  0.2827 -0.4875
  358MOL0     O48219   8.025   9.043   6.028  0.3158  0.7178  0.3005
  358MOL0     C48220   7.892   9.088   6.023  0.3995  0.6517 -0.1028
  358MOL0     C48221   7.799   9.041   5.930  0.0156 -0.7473 -0.1944
  358MOL0     C48222   7.667   9.070   5.939 -0.2597  0.3567 -0.0464
  358MOL0     C48223   7.575   9.002   5.836 -0.4097  0.2797  0.6315
  358MOL0     C48224   7.619   9.140   6.048 -0.2452  0.0072  0.8131
  358MOL0     C48225   7.476   9.183   6.060 -0.1997 -0.0740 -0.1843
  358MOL0     O48226   7.457   9.316   6.105  0.1682  1.1854  0.4956
  358MOL0     C48227   7.332   9.362   6.116  0.2649 -0.7329  0.5983
  358MOL0     C48228   7.230   9.288   6.177  0.0773  0.3005 -0.4785
  358MOL0     C48229   7.097   9.341   6.176 -0.6071  1.1220 -0.6582
  358MOL0     C48230   7.076   9.465   6.125  0.5751  0.1540 -0.5220
  358MOL0     O48231   6.950   9.523   6.109  1.3303  0.5880  0.1803
  358MOL0     C48232   6.852   9.458   6.036  0.9185  0.0690  1.0107
  358MOL0     C48233   6.746   9.408   6.148 -0.0510 -0.2969  0.7064
  358MOL0     C48234   6.682   9.533   6.205 -1.0614  1.1309 -0.5968
  358MOL0     C48235   6.565   9.489   6.291  1.0593 -0.0235  0.2368
  358MOL0     C48236   6.516   9.606   6.369  0.3553  0.0234  0.1819
  358MOL0     C48237   6.393   9.556   6.447 -0.3366 -0.0196  0.8534
  358MOL0     C48238   6.318   9.690   6.477  0.0252 -0.1724  0.7917
  358MOL0     C48239   6.176   9.666   6.533  0.0892  0.3103 -0.5447
  358MOL0    Cl48240   6.042   9.653   6.423 -0.0061  0.3625  0.2215
  358MOL0     C48241   7.177   9.540   6.078 -0.3272  0.5238 -0.4952
  358MOL0     C48242   7.307   9.489   6.074 -0.1971  0.8309 -0.5165
  358MOL0     O48243   7.389   9.114   6.013  0.3264  0.1714 -0.4152
  358MOL0     C48244   7.710   9.192   6.141  0.1065  0.1873 -0.4991
  358MOL0     C48245   7.842   9.163   6.135  0.1794 -0.5799 -0.6784
  358MOL0     N48246   8.488   9.081   5.946  0.2497 -0.1580  0.4913
  358MOL0     N48247   8.580   9.075   6.039  0.6619  0.3357 -0.7184
  358MOL0     C48248   9.839   9.618   6.119 -0.2404 -0.3475 -0.5879
  358MOL0     C48249   9.975   9.625   6.150  0.3475  0.3231  1.4747
  358MOL0     C48250  10.389   9.629   6.302  0.8204 -0.0649  0.4516
  358MOL0     C48251  10.491   9.536   6.290 -0.0381  0.4469  0.4728
  358MOL0     C48252  10.621   9.558   6.319 -0.1070  0.3774  0.0163
  358MOL0     C48253  10.664   9.683   6.359  0.3200  0.3455  0.2503
  358MOL0     O48254  10.798   9.695   6.357  0.6643  0.0190  0.2115
  358MOL0     C48255  10.871   9.814   6.374 -0.5466  0.1988 -0.3759
  358MOL0     C48256  11.007   9.801   6.311 -0.4501 -0.2441 -0.2856
  358MOL0     C48257  11.086   9.690   6.381 -0.1972  0.1163  0.7206
  358MOL0     C48258  11.236   9.695   6.342  0.7303  0.0521 -0.1909
  358MOL0     C48259  11.310   9.589   6.409  0.6991 -0.2951  1.0233
  358MOL0     C48260  11.389   9.516   6.463  0.6523 -0.0300  0.0097
  358MOL0     C48261  10.571   9.785   6.376  0.4809 -0.3136 -0.3142
  358MOL0     C48262  10.434   9.753   6.363  0.4848 -0.0193  0.1891
  358MOL0     H48263   9.941   9.710   6.479 -1.6312 -1.0932  0.1351
  358MOL0     H48264   9.699   9.643   6.414  0.1366 -4.5693 -0.9095
  358MOL0     H48265   9.561   9.486   6.047 -3.0978  1.8281  0.7928
  358MOL0     H48266   9.643   9.387   6.161  1.3346  0.3520  1.9458
  358MOL0     H48267   9.458   9.337   6.285 -2.6452  0.5341  1.8672
  358MOL0     H48268   9.408   9.498   6.302 -0.7661 -2.0059  2.1218
  358MOL0     H48269   9.321   9.516   6.090 -1.4300 -0.0068  1.5090
  358MOL0     H48270   9.373   9.352   6.037 -1.1036 -1.8997  0.6752
  358MOL0     H48271   9.235   9.257   6.215 -4.1757 -0.5876 -0.2183
  358MOL0     H48272   9.179   9.408   6.273 -2.7652  0.9610 -0.6692
  358MOL0     H48273   9.073   9.452   6.043  1.3969 -0.4102 -2.2104
  358MOL0     H48274   9.113   9.288   5.999 -0.0707 -0.7952 -0.0852
  358MOL0     H48275   8.989   9.185   6.183 -0.2176  1.5232  6.1095
  358MOL0     H48276   8.944   9.326   6.253  0.2787  0.5940  0.3137
  358MOL0     H48277   8.826   9.391   6.029  2.4952  0.0407 -1.3961
  358MOL0     H48278   8.858   9.229   5.972  2.0478  0.6077  0.1943
  358MOL0     H48279   8.691   9.315   6.223  0.1488  0.6503 -0.7348
  358MOL0     H48280   8.763   9.155   6.216  0.5640  1.2397  1.9760
  358MOL0     H48281   8.567   9.402   5.980 -1.4567 -0.3651  0.7079
  358MOL0     H48282   8.409   9.342   5.758 -2.1152 -0.1658 -0.2658
  358MOL0     H48283   8.340   9.182   5.758 -0.0669  0.5870 -1.1960
  358MOL0     H48284   8.175   9.384   5.838 -0.8989 -1.8020 -0.3227
  358MOL0     H48285   8.297   9.404   5.957 -0.8220  0.3479  2.1714
  358MOL0     H48286   8.096   9.290   6.027 -1.5208 -3.8523 -0.2451
  358MOL0     H48287   8.244   9.213   6.074  0.5133 -2.3819 -0.0337
  358MOL0     H48288   8.192   9.030   5.897 -0.6912  1.1464 -3.3656
  358MOL0     H48289   8.065   9.134   5.837  0.5664  0.2625 -1.0540
  358MOL0     H48290   7.836   8.986   5.844  0.9783  1.8978 -1.5902
  358MOL0     H48291   7.640   8.960   5.758 -2.1594 -2.4845  0.4995
  358MOL0     H48292   7.516   8.916   5.868  0.1781  0.0271  1.0498
  358MOL0     H48293   7.510   9.071   5.781 -0.1601 -0.2800 -0.3906
  358MOL0     H48294   7.254   9.193   6.223  2.0427  1.0432  0.1415
  358MOL0     H48295   7.018   9.278   6.215 -0.3858  0.2860 -1.5276
  358MOL0     H48296   6.811   9.533   5.967  1.5794  1.1098  1.7322
  358MOL0     H48297   6.895   9.370   5.987 -0.0813 -0.9119  1.8362
  358MOL0     H48298   6.658   9.356   6.111 -1.6414  1.3459  1.9943
  358MOL0     H48299   6.789   9.339   6.221 -3.2544 -1.9006  1.2566
  358MOL0     H48300   6.650   9.602   6.126 -2.9713  0.5632 -0.3706
  358MOL0     H48301   6.759   9.586   6.262  1.3411 -2.7099  0.0550
  358MOL0     H48302   6.485   9.452   6.227  2.1004 -2.2535  0.1249
  358MOL0     H48303   6.589   9.402   6.353 -0.6322  0.5108  1.7153
  358MOL0     H48304   6.488   9.677   6.291 -2.1285  0.2054  1.1575
  358MOL0     H48305   6.593   9.648   6.435  2.2429 -2.4234 -0.2964
  358MOL0     H48306   6.329   9.487   6.390 -0.6872 -2.0561  3.5308
  358MOL0     H48307   6.426   9.509   6.540 -1.3922  0.2037  1.3550
  358MOL0     H48308   6.294   9.749   6.388 -0.9879 -1.2244  0.3518
  358MOL0     H48309   6.373   9.752   6.549 -0.7661  4.1197 -1.8892
  358MOL0     H48310   6.159   9.735   6.616  2.8706  0.6650 -0.1677
  358MOL0     H48311   6.177   9.575   6.595 -1.4128  0.7823  0.2261
  358MOL0     H48312   7.147   9.637   6.040 -1.3139  1.4242  2.3209
  358MOL0     H48313   7.392   9.544   6.034  0.7000 -1.3038 -1.7516
  358MOL0     H48314   7.667   9.249   6.222  0.1661  1.4126 -1.2991
  358MOL0     H48315   7.902   9.209   6.213 -1.9159 -0.4261  0.9324
  358MOL0     H48316   9.802   9.591   6.021 -1.6674  2.3208 -0.8782
  358MOL0     H48317  10.050   9.604   6.074 -0.5516  2.5608 -0.1505
  358MOL0     H48318  10.470   9.434   6.259 -1.6496  0.6988  0.6427
  358MOL0     H48319  10.695   9.480   6.305 -0.0221  0.0777  1.9444
  358MOL0     H48320  10.816   9.896   6.328 -0.8238  0.5333  0.5314
  358MOL0     H48321  10.890   9.837   6.479 -0.9448 -3.3084  0.6226
  358MOL0     H48322  11.062   9.896   6.315 -1.9589  0.7370 -1.6565
  358MOL0     H48323  10.996   9.765   6.209  0.9269 -0.9929 -0.1955
  358MOL0     H48324  11.057   9.592   6.342 -1.2293 -0.4204  2.7171
  358MOL0     H48325  11.071   9.695   6.489 -2.0973 -0.9435  0.5466
  358MOL0     H48326  11.269   9.796   6.368 -2.0636  1.0708 -0.3152
  358MOL0     H48327  11.241   9.674   6.235 -0.2684 -1.4444  0.0293
  358MOL0     H48328  11.468   9.462   6.513 -0.3421  0.6913  2.5447
  358MOL0     H48329  10.586   9.887   6.409 -3.2018 -0.7407  3.6100
  358MOL0     H48330  10.368   9.837   6.378  1.0219  0.4094  0.1952
  359MOL0     O48331   2.812   5.155   0.811  0.4818  0.7935 -0.5809
  359MOL0     C48332   2.903   5.093   0.855  0.6291 -0.3583 -1.2704
  359MOL0     O48333   2.891   4.969   0.893  0.5402  0.2505  0.1227
  359MOL0     C48334   2.778   4.893   0.877 -0.5391  0.3262 -0.5723
  359MOL0     C48335   2.768   4.797   0.971 -0.3981 -0.4231  0.4201
  359MOL0     C48336   2.663   4.702   0.970  0.5091 -0.6142  0.3158
  359MOL0     C48337   2.567   4.708   0.859 -0.3099  0.0635  0.2101
  359MOL0     O48338   2.460   4.628   0.837 -0.1008 -0.1727 -0.4392
  359MOL0     C48339   2.429   4.524   0.932  0.4747 -0.2892 -0.0693
  359MOL0     C48340   2.357   4.586   1.048  0.6542 -0.6455 -0.0286
  359MOL0     C48341   2.235   4.664   1.006 -0.6307  0.1012  0.8210
  359MOL0     C48342   2.107   4.565   0.987 -1.2353  0.2149 -0.1528
  359MOL0     C48343   2.051   4.516   1.119  0.3009 -0.6924 -1.4227
  359MOL0     C48344   1.908   4.465   1.093 -0.5056  0.1989 -0.5748
  359MOL0     C48345   1.809   4.582   1.076 -0.5125 -0.5784 -0.0972
  359MOL0     C48346   1.665   4.534   1.111 -0.2510  1.3393 -0.3651
  359MOL0     N48347   1.568   4.643   1.115 -0.2499 -0.2390 -0.1867
  359MOL0     C48348   1.437   4.622   1.149 -0.0419  0.0179 -0.8078
  359MOL0     C48349   1.386   4.747   1.139 -0.0323 -0.4493  0.2865
  359MOL0     C48350   1.248   4.785   1.165 -0.0168  0.3355  0.1519
  359MOL0     C48351   1.174   4.818   1.028 -0.1503 -0.2757 -0.3633
  359MOL0     C48352   1.025   4.853   1.061 -0.0287  0.4369 -0.7910
  359MOL0     C48353   0.951   4.900   0.939  0.5889  0.3789 -0.9306
  359MOL0     O48354   0.829   4.957   0.996  0.3788 -0.4132 -0.4985
  359MOL0     C48355   0.731   4.977   0.903 -0.3868  0.2680 -0.1163
  359MOL0     C48356   0.743   4.961   0.762  0.4049 -0.5123 -0.0641
  359MOL0     C48357   0.637   4.998   0.674  0.4467  0.1096  0.0228
  359MOL0     C48358   0.656   4.954   0.530  0.5497 -0.5312 -0.2514
  359MOL0     C48359   0.515   5.053   0.723  0.1189  1.1677 -0.0108
  359MOL0     C48360   0.401   5.099   0.643 -0.1519  0.1668  0.6130
  359MOL0     O48361   0.277   5.119   0.704  0.2419  0.8497  0.2471
  359MOL0     C48362   0.190   5.214   0.650  0.6542  0.5459  0.9409
  359MOL0     C48363   0.220   5.350   0.646  0.3112  0.5223  0.7768
  359MOL0     C48364   0.120   5.440   0.600  0.2757 -0.8989 -0.3542
  359MOL0     C48365  -0.011   5.392   0.579 -0.3236  0.4208  0.1620
  359MOL0     O48366  -0.111   5.476   0.557  0.7300 -0.7193  0.0590
  359MOL0     C48367  -0.199   5.483   0.676 -0.1154 -1.0594 -1.1625
  359MOL0     C48368  -0.301   5.600   0.657 -0.6793  0.2994 -0.5429
  359MOL0     C48369  -0.345   5.643   0.796  0.1019  0.5028 -1.1660
  359MOL0     C48370  -0.490   5.685   0.804  0.0423 -0.4508 -0.0157
  359MOL0     C48371  -0.522   5.814   0.723  0.7353  0.4766  0.3256
  359MOL0     C48372  -0.655   5.883   0.749 -0.2839 -0.3194 -0.2748
  359MOL0     C48373  -0.758   5.803   0.670  0.2783  0.3243 -0.6210
  359MOL0     C48374  -0.906   5.829   0.710  0.0718 -0.4937 -0.1860
  359MOL0    Cl48375  -0.940   6.009   0.667 -0.2435 -0.6120 -0.4776
  359MOL0     C48376  -0.035   5.254   0.586 -0.1265  0.0394 -0.2845
  359MOL0     C48377   0.063   5.167   0.628 -0.6222 -0.1593  0.4849
  359MOL0     O48378   0.424   5.116   0.520  0.2247 -0.1367 -0.6102
  359MOL0     C48379   0.508   5.059   0.864  0.6941 -0.3439 -0.0044
  359MOL0     C48380   0.610   5.024   0.954 -0.1075  0.1071  0.4878
  359MOL0     N48381   1.484   4.842   1.097 -0.5300  0.3190  0.0921
  359MOL0     N48382   1.590   4.770   1.075  0.2256 -0.0240 -0.2473
  359MOL0     C48383   2.574   4.814   0.774  0.3130 -0.7262  0.1559
  359MOL0     C48384   2.673   4.905   0.782 -1.2420  0.2729  0.4191
  359MOL0     C48385   3.030   5.163   0.876  0.6634 -0.2421  0.5025
  359MOL0     C48386   3.137   5.094   0.922 -0.0097 -0.0816  0.4852
  359MOL0     C48387   3.262   5.160   0.935 -0.3982 -0.5432 -0.4125
  359MOL0     C48388   3.278   5.292   0.896 -0.8970 -0.1544 -0.5959
  359MOL0     O48389   3.397   5.359   0.920 -0.1415  0.7209  0.4762
  359MOL0     C48390   3.453   5.443   0.813  0.1411  0.2139  0.4011
  359MOL0     C48391   3.546   5.374   0.715 -0.3356  0.5653  0.2343
  359MOL0     C48392   3.681   5.341   0.769  0.4775 -0.7412 -0.0674
  359MOL0     C48393   3.786   5.457   0.759 -0.1137  0.1512 -1.0306
  359MOL0     C48394   3.913   5.414   0.828  0.4102  0.4549 -1.4565
  359MOL0     C48395   3.995   5.371   0.902 -0.3331 -0.3394  0.1094
  359MOL0     C48396   3.173   5.365   0.844  0.3720  0.2698  0.4393
  359MOL0     C48397   3.047   5.301   0.841 -0.0857 -0.2242 -0.3734
  359MOL0     H48398   2.854   4.782   1.035  1.1391 -1.6097 -1.7945
  359MOL0     H48399   2.670   4.625   1.046  2.1299 -0.9128 -0.0997
  359MOL0     H48400   2.386   4.437   0.882  2.4737 -1.6406  0.4368
  359MOL0     H48401   2.527   4.487   0.964  0.7245  1.2915  1.1354
  359MOL0     H48402   2.331   4.509   1.122 -2.9781  0.0494 -0.4205
  359MOL0     H48403   2.415   4.661   1.102  0.7829 -1.5468  1.1431
  359MOL0     H48404   2.213   4.743   1.079 -1.5061  0.5911  0.0410
  359MOL0     H48405   2.250   4.709   0.907 -2.9120 -0.7806  0.0101
  359MOL0     H48406   2.033   4.626   0.934  0.2839  1.6979 -0.6970
  359MOL0     H48407   2.133   4.481   0.921 -1.3076  2.6042 -3.5226
  359MOL0     H48408   2.109   4.437   1.168 -1.2700  0.2966  2.4244
  359MOL0     H48409   2.047   4.596   1.193 -3.0898 -2.9629  1.1842
  359MOL0     H48410   1.897   4.387   1.017 -0.6793 -0.6277  0.2643
  359MOL0     H48411   1.881   4.410   1.184  2.5204 -0.1199  0.2432
  359MOL0     H48412   1.828   4.666   1.143 -1.1482 -1.3722  1.1160
  359MOL0     H48413   1.811   4.616   0.972  1.0768 -1.0781 -0.2429
  359MOL0     H48414   1.659   4.468   1.198  2.7664  0.8413 -0.4378
  359MOL0     H48415   1.631   4.476   1.025 -1.0139 -1.7885  1.8729
  359MOL0     H48416   1.392   4.526   1.173 -3.1873  1.2262 -1.5138
  359MOL0     H48417   1.191   4.706   1.216  2.6533 -0.5887  1.9255
  359MOL0     H48418   1.248   4.873   1.229 -1.8734  0.4287  0.0855
  359MOL0     H48419   1.187   4.731   0.963 -1.5817 -0.6470 -0.1894
  359MOL0     H48420   1.228   4.902   0.983  1.2057 -0.9066  0.0294
  359MOL0     H48421   1.027   4.925   1.144 -0.6647 -0.3371 -0.0912
  359MOL0     H48422   0.974   4.759   1.083 -4.0517  2.4794 -0.4560
  359MOL0     H48423   0.935   4.813   0.875 -1.3344  1.6677 -2.3162
  359MOL0     H48424   1.001   4.973   0.874  1.3312  0.9263  0.2186
  359MOL0     H48425   0.828   4.917   0.710 -0.3843 -2.9467  0.6013
  359MOL0     H48426   0.722   4.867   0.529  2.2407  0.6268 -3.2841
  359MOL0     H48427   0.565   4.926   0.477  2.4280 -0.6041 -3.7653
  359MOL0     H48428   0.702   5.032   0.470  0.7085  0.6969  1.4002
  359MOL0     H48429   0.314   5.390   0.683 -0.9611  4.0990  0.4647
  359MOL0     H48430   0.132   5.548   0.607 -2.7377 -0.6033  2.2858
  359MOL0     H48431  -0.257   5.391   0.695 -2.4968  0.3379 -1.1940
  359MOL0     H48432  -0.139   5.499   0.766 -2.0387 -0.8834  0.1651
  359MOL0     H48433  -0.248   5.683   0.610 -2.1748  1.3772 -0.4104
  359MOL0     H48434  -0.387   5.576   0.594 -1.5877  0.2593  0.6697
  359MOL0     H48435  -0.277   5.725   0.823  3.3064 -2.2117 -0.2612
  359MOL0     H48436  -0.324   5.567   0.872 -0.0396  1.9500  0.3827
  359MOL0     H48437  -0.550   5.597   0.780 -0.5079 -0.2698  0.6447
  359MOL0     H48438  -0.506   5.706   0.910 -1.1837  0.2029 -0.3062
  359MOL0     H48439  -0.515   5.805   0.614 -1.1806  0.4959  0.1538
  359MOL0     H48440  -0.434   5.877   0.736  1.3365 -0.1813 -0.4967
  359MOL0     H48441  -0.677   5.874   0.856 -2.3970 -0.0931 -0.6576
  359MOL0     H48442  -0.652   5.992   0.736  0.4146 -0.1675  0.9173
  359MOL0     H48443  -0.741   5.695   0.668  3.0606  0.7054 -1.4988
  359MOL0     H48444  -0.742   5.832   0.566  0.4764 -0.3835 -0.8006
  359MOL0     H48445  -0.926   5.822   0.817  2.2369  0.9256  0.3800
  359MOL0     H48446  -0.974   5.765   0.653 -1.2441 -1.3672  2.2298
  359MOL0     H48447  -0.134   5.209   0.592  0.9998 -2.3912  3.2012
  359MOL0     H48448   0.052   5.060   0.637 -0.8528 -0.0025  2.3467
  359MOL0     H48449   0.423   5.118   0.899 -0.2516 -0.9970 -1.1134
  359MOL0     H48450   0.590   5.031   1.060 -0.2789 -3.9526  0.8587
  359MOL0     H48451   2.500   4.834   0.696  0.9758 -0.5026 -0.4319
  359MOL0     H48452   2.689   4.980   0.704 -0.3231  0.5646  0.8792
  359MOL0     H48453   3.128   4.991   0.956  1.5006  0.2514  1.9901
  359MOL0     H48454   3.350   5.106   0.969 -1.0703 -1.7367 -0.5421
  359MOL0     H48455   3.378   5.490   0.748  0.2041 -0.3164 -0.0605
  359MOL0     H48456   3.496   5.534   0.858 -3.2302  1.5868  1.1180
  359MOL0     H48457   3.567   5.428   0.622 -3.0480 -0.4045 -1.0521
  359MOL0     H48458   3.492   5.284   0.685  1.1792 -0.1680 -0.4036
  359MOL0     H48459   3.717   5.257   0.708  1.7913  0.4788 -1.0285
  359MOL0     H48460   3.675   5.313   0.874 -1.2351 -0.4645 -0.0697
  359MOL0     H48461   3.753   5.548   0.810 -0.3217  0.1099 -1.0925
  359MOL0     H48462   3.802   5.490   0.655  0.1843  0.7964 -0.7865
  359MOL0     H48463   4.075   5.336   0.964 -0.1655  1.1347  0.7900
  359MOL0     H48464   3.171   5.469   0.813  2.0704  0.2288  0.0656
  359MOL0     H48465   2.963   5.365   0.817  0.2157  1.2779  2.2651
  360MOL0     O48466   7.559   8.918   9.506 -0.2482 -0.3601 -0.0892
  360MOL0     C48467   7.610   8.805   9.506  0.1751 -0.3230 -0.4312
  360MOL0     O48468   7.544   8.687   9.546  0.2263  0.3693  0.0547
  360MOL0     C48469   7.410   8.677   9.587 -0.0924 -0.1742 -0.0886
  360MOL0     C48470   7.300   8.765   9.565 -0.6704  0.1701  0.5590
  360MOL0     C48471   7.175   8.739   9.613 -0.4988  0.2618 -1.0507
  360MOL0     C48472   7.145   8.620   9.681 -0.0116 -0.9694  0.2239
  360MOL0     O48473   7.026   8.604   9.748  0.2045 -0.2394 -0.1441
  360MOL0     C48474   6.920   8.688   9.726  0.3579  0.1454 -0.1217
  360MOL0     C48475   6.811   8.654   9.832 -1.1679  0.0350  0.2568
  360MOL0     C48476   6.683   8.738   9.801 -0.7034 -0.5398  0.1682
  360MOL0     C48477   6.584   8.712   9.919  0.0050 -0.8171 -0.3095
  360MOL0     C48478   6.457   8.792   9.894  0.2035  0.1542 -0.2203
  360MOL0     C48479   6.327   8.714   9.932 -0.2429  0.2072  0.2892
  360MOL0     C48480   6.205   8.803   9.911 -0.4131  0.0768 -0.9235
  360MOL0     C48481   6.094   8.759  10.010 -0.6867  0.1194  0.5165
  360MOL0     N48482   5.982   8.850   9.986 -0.2099  0.1663 -0.2015
  360MOL0     C48483   5.883   8.841   9.892  1.0649 -0.0594 -0.8244
  360MOL0     C48484   5.794   8.936   9.918  0.6137  0.3516 -0.2579
  360MOL0     C48485   5.661   8.938   9.849  0.3061  0.5908 -0.0726
  360MOL0     C48486   5.554   8.854   9.928 -0.2329  0.2201  0.5077
  360MOL0     C48487   5.501   8.948  10.033 -0.0766 -0.8737 -0.5762
  360MOL0     C48488   5.413   8.867  10.121  0.3665 -0.4150  0.9991
  360MOL0     O48489   5.301   8.806  10.050  0.6381 -0.3327  0.4766
  360MOL0     C48490   5.194   8.753  10.126  0.5772  0.8647  0.9500
  360MOL0     C48491   5.182   8.762  10.265 -0.1645  0.4782 -0.2842
  360MOL0     C48492   5.068   8.696  10.323  0.3671 -0.0945 -0.4342
  360MOL0     C48493   5.043   8.733  10.470 -0.6405  0.8927 -0.5867
  360MOL0     C48494   4.975   8.624  10.244  0.4760 -0.1432  0.6143
  360MOL0     C48495   4.851   8.564  10.303 -0.0867 -0.5586  0.7656
  360MOL0     O48496   4.859   8.467  10.400  0.3530 -0.2236 -0.7093
  360MOL0     C48497   4.748   8.440  10.479 -0.0389 -0.5477 -1.3684
  360MOL0     C48498   4.631   8.376  10.434  0.4118 -0.2387  0.7061
  360MOL0     C48499   4.525   8.366  10.524  0.2825  0.1407  0.5004
  360MOL0     C48500   4.540   8.400  10.658  1.1395  0.3811 -0.1384
  360MOL0     O48501   4.447   8.366  10.749 -0.6460  0.1966  0.4257
  360MOL0     C48502   4.307   8.339  10.711  0.1247  0.6189  0.1510
  360MOL0     C48503   4.222   8.320  10.830  0.5697 -0.3307  0.5718
  360MOL0     C48504   4.297   8.216  10.912 -0.8717  0.1185 -0.2185
  360MOL0     C48505   4.207   8.179  11.030 -0.0875 -0.4442 -0.5412
  360MOL0     C48506   4.274   8.101  11.150 -0.7011 -0.4474 -0.3658
  360MOL0     C48507   4.173   8.075  11.259  0.0149 -0.1028 -0.1221
  360MOL0     C48508   4.172   8.199  11.358 -0.1976 -0.5058  0.2658
  360MOL0     C48509   4.114   8.334  11.306  0.6700 -0.3778  0.5467
  360MOL0    Cl48510   4.093   8.469  11.428  0.3599  0.4603  0.2426
  360MOL0     C48511   4.658   8.454  10.700 -0.1607  0.1330  0.3320
  360MOL0     C48512   4.764   8.480  10.611  0.4052 -0.6480  0.6118
  360MOL0     O48513   4.750   8.628  10.278  0.3972  0.6874 -0.2984
  360MOL0     C48514   4.991   8.622  10.108 -0.0395 -0.4057 -0.1529
  360MOL0     C48515   5.091   8.691  10.045 -0.3114 -0.0342 -0.0533
  360MOL0     N48516   5.838   9.001  10.034  0.4067  0.1392  0.5265
  360MOL0     N48517   5.960   8.959  10.065  0.6470  0.4959 -0.2450
  360MOL0     C48518   7.245   8.527   9.706 -0.5928  0.6645  0.5472
  360MOL0     C48519   7.374   8.552   9.652 -0.2214 -0.4434 -0.2684
  360MOL0     C48520   7.746   8.796   9.462 -0.1313  0.1853  0.0932
  360MOL0     C48521   7.814   8.671   9.466  0.1289  0.0494 -0.1898
  360MOL0     C48522   7.945   8.654   9.414 -0.6301  0.0068  0.5880
  360MOL0     C48523   8.015   8.771   9.369 -1.1002  0.6904  0.4230
  360MOL0     O48524   8.147   8.747   9.319  0.1210  0.0469  0.6343
  360MOL0     C48525   8.244   8.851   9.323  0.5412  0.6145  0.1216
  360MOL0     C48526   8.379   8.785   9.337 -0.1723  0.2517 -0.2248
  360MOL0     C48527   8.488   8.889   9.327 -0.1665  0.8704  0.8894
  360MOL0     C48528   8.627   8.834   9.329  0.5496  0.4200  0.3627
  360MOL0     C48529   8.718   8.939   9.280  0.2878  0.0882 -0.1377
  360MOL0     C48530   8.796   9.033   9.245  0.0724 -0.1141  0.5135
  360MOL0     C48531   7.952   8.891   9.361 -0.4881 -0.1349 -0.0326
  360MOL0     C48532   7.815   8.901   9.400  0.3062 -0.5621  0.3314
  360MOL0     H48533   7.318   8.856   9.509 -0.7792 -1.3444 -2.1158
  360MOL0     H48534   7.100   8.815   9.592 -0.2862  0.4214 -1.2443
  360MOL0     H48535   6.951   8.792   9.739 -1.3818  1.0368 -2.2774
  360MOL0     H48536   6.877   8.690   9.625 -2.5570 -2.1378  0.9053
  360MOL0     H48537   6.797   8.546   9.835  1.0429 -0.3014  2.2103
  360MOL0     H48538   6.854   8.682   9.929  1.3200 -1.5981 -0.2610
  360MOL0     H48539   6.711   8.842   9.782  1.9005 -1.2983 -0.5106
  360MOL0     H48540   6.637   8.708   9.707 -1.3770  1.3444 -0.1429
  360MOL0     H48541   6.571   8.603   9.922 -0.7069 -0.7113  0.7666
  360MOL0     H48542   6.626   8.744  10.015 -2.6445  1.0062  0.3351
  360MOL0     H48543   6.477   8.886   9.946  0.4022 -0.5315  0.9797
  360MOL0     H48544   6.441   8.816   9.788  0.8268 -0.8894 -0.5618
  360MOL0     H48545   6.309   8.618   9.883 -2.6907  0.6227  0.2521
  360MOL0     H48546   6.335   8.690  10.038 -0.3176 -0.6967  0.0952
  360MOL0     H48547   6.240   8.905   9.933  1.5844 -0.6705 -0.4707
  360MOL0     H48548   6.170   8.796   9.807  2.0994 -1.6688 -1.7392
  360MOL0     H48549   6.129   8.780  10.112  0.0581  1.7782 -0.0392
  360MOL0     H48550   6.052   8.660   9.989 -1.1455  0.2781  0.6811
  360MOL0     H48551   5.859   8.774   9.810  1.5611 -1.1574 -0.0953
  360MOL0     H48552   5.617   9.037   9.837 -1.2724 -0.1945 -1.2232
  360MOL0     H48553   5.679   8.906   9.746  0.6009 -2.7829  0.8874
  360MOL0     H48554   5.603   8.770   9.979 -0.2507  1.3728  2.5382
  360MOL0     H48555   5.473   8.826   9.860  0.7848  0.2503 -0.7410
  360MOL0     H48556   5.429   9.023   9.996  0.1766 -0.0843  0.4880
  360MOL0     H48557   5.575   9.002  10.092 -3.6210  2.3535  1.4126
  360MOL0     H48558   5.362   8.936  10.188 -2.4796 -1.5606  0.1395
  360MOL0     H48559   5.480   8.800  10.177  1.8622  0.4541  0.2921
  360MOL0     H48560   5.251   8.803  10.337 -0.8130 -1.3414  1.4675
  360MOL0     H48561   4.987   8.826  10.461  1.9645  2.5408 -0.6439
  360MOL0     H48562   4.981   8.654  10.515  0.3186 -0.7837 -2.0680
  360MOL0     H48563   5.135   8.752  10.526 -0.4777  0.3401 -0.6562
  360MOL0     H48564   4.630   8.341  10.331 -0.7974  1.4436  0.1138
  360MOL0     H48565   4.429   8.326  10.492  1.4600 -1.0610 -1.7013
  360MOL0     H48566   4.269   8.421  10.651  0.2779 -0.2875 -1.2313
  360MOL0     H48567   4.308   8.250  10.648 -0.6319 -0.4389  1.5594
  360MOL0     H48568   4.202   8.418  10.874 -0.8137  0.3261 -1.3574
  360MOL0     H48569   4.128   8.273  10.802  0.7261  0.5060 -1.5676
  360MOL0     H48570   4.386   8.268  10.948 -1.8683  1.3923  0.4693
  360MOL0     H48571   4.318   8.126  10.852  0.0811 -0.1838  0.5453
  360MOL0     H48572   4.150   8.268  11.056 -1.7953 -1.4567 -0.6641
  360MOL0     H48573   4.133   8.108  10.992  0.6713 -2.3484  1.2734
  360MOL0     H48574   4.357   8.160  11.190  0.5798 -1.0104 -2.0749
  360MOL0     H48575   4.318   8.004  11.127  1.9051 -0.2551  3.0581
  360MOL0     H48576   4.073   8.071  11.215  0.8972  1.8132 -2.5502
  360MOL0     H48577   4.200   7.986  11.315  1.3961 -1.3253 -2.5357
  360MOL0     H48578   4.270   8.223  11.399 -0.0431  0.7502 -0.7585
  360MOL0     H48579   4.109   8.162  11.439  0.3755 -1.1717  0.4137
  360MOL0     H48580   4.022   8.326  11.247  1.5000 -0.1820 -0.8131
  360MOL0     H48581   4.186   8.368  11.230 -2.2143  1.9788 -1.3717
  360MOL0     H48582   4.662   8.480  10.805 -2.3564 -1.8781  1.0018
  360MOL0     H48583   4.857   8.523  10.647 -0.4709  2.3788 -0.3822
  360MOL0     H48584   4.917   8.574  10.044 -0.4568  0.2102 -0.1455
  360MOL0     H48585   5.094   8.693   9.936  3.0421  0.9532 -0.0532
  360MOL0     H48586   7.202   8.448   9.766 -1.0257  0.2790 -0.2493
  360MOL0     H48587   7.453   8.479   9.668  0.9280  0.9347  0.6142
  360MOL0     H48588   7.762   8.585   9.506 -2.9635  0.6305 -2.6293
  360MOL0     H48589   7.996   8.560   9.397 -2.0194 -0.3510 -2.3102
  360MOL0     H48590   8.236   8.909   9.230 -0.6071 -0.7173 -0.6601
  360MOL0     H48591   8.225   8.918   9.406 -0.0601  0.2765  0.2638
  360MOL0     H48592   8.382   8.706   9.261  0.5089  0.7896 -0.7715
  360MOL0     H48593   8.376   8.726   9.429 -4.3888  0.0771 -0.2866
  360MOL0     H48594   8.489   8.956   9.413  0.5237 -0.2522  1.7718
  360MOL0     H48595   8.480   8.942   9.231 -0.3978  1.6373  1.3324
  360MOL0     H48596   8.645   8.744   9.268  0.8580  0.1923  0.7880
  360MOL0     H48597   8.643   8.805   9.433 -1.1452 -2.4605 -0.0450
  360MOL0     H48598   8.863   9.105   9.202 -1.7385  1.7675  0.6295
  360MOL0     H48599   8.000   8.970   9.304 -2.1590  0.3186 -0.8572
  360MOL0     H48600   7.770   8.999   9.390  0.7558 -0.3125  0.7022
  361MOL0     O48601   7.423   2.656   1.870  0.1870  0.2940 -0.3899
  361MOL0     C48602   7.415   2.701   1.985  0.5190  0.7941 -0.1233
  361MOL0     O48603   7.297   2.765   2.039  0.0935 -0.0810 -0.2139
  361MOL0     C48604   7.189   2.791   1.963  0.7829 -0.6591 -0.6197
  361MOL0     C48605   7.187   2.901   1.883  0.0083 -0.5515 -0.1969
  361MOL0     C48606   7.076   2.937   1.811 -0.3382  0.0226  0.8333
  361MOL0     C48607   6.959   2.869   1.822  0.4505  0.4907  0.8871
  361MOL0     O48608   6.840   2.895   1.756  0.0766 -0.0711  0.0633
  361MOL0     C48609   6.854   2.991   1.647  0.3235 -0.5330 -0.5784
  361MOL0     C48610   6.727   3.013   1.564 -0.4535 -0.2732 -0.4691
  361MOL0     C48611   6.627   3.087   1.652 -0.2555 -0.9455 -0.0666
  361MOL0     C48612   6.660   3.233   1.676  0.6732 -0.1790  0.2826
  361MOL0     C48613   6.526   3.312   1.682 -0.1938  1.1518 -0.1706
  361MOL0     C48614   6.455   3.349   1.552  0.5073 -0.1007 -0.0545
  361MOL0     C48615   6.306   3.398   1.567 -0.0047 -0.0040 -0.0162
  361MOL0     C48616   6.221   3.361   1.452  0.3117 -0.4463  0.4044
  361MOL0     N48617   6.198   3.216   1.428 -0.2137  0.0811  0.2274
  361MOL0     C48618   6.115   3.127   1.491  0.6523 -0.0487 -0.5946
  361MOL0     C48619   6.144   3.009   1.435 -0.5981 -0.0209  0.5475
  361MOL0     C48620   6.095   2.864   1.480 -0.1652 -0.2949 -0.3906
  361MOL0     C48621   6.188   2.743   1.458 -0.6395  0.5802  0.9075
  361MOL0     C48622   6.141   2.604   1.496 -0.9565  0.5816  0.3896
  361MOL0     C48623   5.995   2.578   1.473 -0.4334  0.0495  0.0011
  361MOL0     O48624   5.977   2.605   1.330 -0.0966 -0.3726 -0.5537
  361MOL0     C48625   5.855   2.581   1.288 -0.2145  1.3536  0.0536
  361MOL0     C48626   5.831   2.519   1.163  0.3217 -0.4569 -0.8094
  361MOL0     C48627   5.702   2.502   1.102  0.5270  0.8622 -0.0663
  361MOL0     C48628   5.701   2.466   0.953  0.3743 -0.3035  0.3162
  361MOL0     C48629   5.593   2.545   1.178 -0.5731  0.0057  0.2326
  361MOL0     C48630   5.456   2.519   1.126 -0.2046  0.6622  0.1329
  361MOL0     O48631   5.365   2.611   1.163  0.0959 -0.0305  0.5908
  361MOL0     C48632   5.228   2.602   1.140  0.6233 -0.4720  0.8148
  361MOL0     C48633   5.144   2.698   1.207  0.3495  0.7191 -0.9813
  361MOL0     C48634   5.007   2.695   1.192  0.0491  0.0447  0.6576
  361MOL0     C48635   4.946   2.604   1.102  0.4541  1.7359  0.4521
  361MOL0     O48636   4.812   2.593   1.070 -0.2941 -0.3191 -0.2888
  361MOL0     C48637   4.717   2.631   1.170 -0.3924  0.2423  0.1112
  361MOL0     C48638   4.593   2.562   1.120 -0.6008 -0.2415 -0.1888
  361MOL0     C48639   4.470   2.577   1.213  0.4287  0.5156  0.1101
  361MOL0     C48640   4.342   2.551   1.140 -0.2961 -0.0804  0.2907
  361MOL0     C48641   4.226   2.549   1.234  0.1731  0.5593  0.5348
  361MOL0     C48642   4.123   2.446   1.202  1.4821 -0.5304  0.3883
  361MOL0     C48643   4.052   2.467   1.073  0.1039  0.0173 -0.0560
  361MOL0     C48644   3.961   2.348   1.052  0.1403 -0.5995 -0.6343
  361MOL0    Cl48645   3.805   2.385   1.144  0.1974  0.3023  0.1548
  361MOL0     C48646   5.022   2.527   1.029 -0.0748 -0.2794  0.0661
  361MOL0     C48647   5.161   2.515   1.047  0.7387  0.2368  0.3456
  361MOL0     O48648   5.424   2.413   1.069 -0.4321  0.0683 -0.0836
  361MOL0     C48649   5.620   2.625   1.289  0.1781  0.0146 -0.1432
  361MOL0     C48650   5.744   2.642   1.349  0.7147  0.4330 -0.3417
  361MOL0     N48651   6.244   3.031   1.338 -0.1382 -0.0235  0.3111
  361MOL0     N48652   6.271   3.155   1.336 -0.3927 -0.6890 -0.4536
  361MOL0     C48653   6.955   2.760   1.907  0.1963  0.4206  0.6173
  361MOL0     C48654   7.070   2.713   1.977 -0.2782 -0.5570  0.1619
  361MOL0     C48655   7.527   2.697   2.079 -0.3473  0.2128  0.2943
  361MOL0     C48656   7.659   2.676   2.030 -0.0018 -0.0344  0.0871
  361MOL0     C48657   7.770   2.688   2.113  0.0213 -0.7597 -0.7511
  361MOL0     C48658   7.751   2.715   2.252  0.0262  0.4400  0.8972
  361MOL0     O48659   7.867   2.719   2.322  0.6197  0.0113  0.2249
  361MOL0     C48660   7.856   2.745   2.460  0.4383  0.0725  0.3414
  361MOL0     C48661   7.996   2.783   2.531  0.2744 -0.0469 -0.0733
  361MOL0     C48662   8.066   2.652   2.574 -0.2431 -0.9796  0.4999
  361MOL0     C48663   8.181   2.682   2.674  0.1335 -0.4775  0.1891
  361MOL0     C48664   8.228   2.553   2.732 -0.0721  0.0038 -0.8381
  361MOL0     C48665   8.270   2.453   2.768  0.7210 -0.4260 -0.4904
  361MOL0     C48666   7.617   2.729   2.298 -0.1762 -0.3580  0.0423
  361MOL0     C48667   7.508   2.729   2.212 -0.0043  0.1805  0.0003
  361MOL0     H48668   7.276   2.961   1.874 -0.9957  0.8034 -1.6624
  361MOL0     H48669   7.078   3.030   1.754 -0.9231 -1.2105 -1.3478
  361MOL0     H48670   6.891   3.082   1.695  2.3453 -1.2441 -0.7110
  361MOL0     H48671   6.937   2.959   1.583  0.2050 -2.1567  0.0522
  361MOL0     H48672   6.755   3.076   1.478  0.4426  4.1655  2.7015
  361MOL0     H48673   6.689   2.919   1.523 -0.8702 -0.0826 -0.5269
  361MOL0     H48674   6.529   3.082   1.605 -0.8194 -0.3202  1.0075
  361MOL0     H48675   6.603   3.034   1.745  0.2952 -0.0608  0.5960
  361MOL0     H48676   6.711   3.245   1.772  1.7440  1.3589 -0.4183
  361MOL0     H48677   6.730   3.269   1.600 -0.0646 -1.7478 -1.2160
  361MOL0     H48678   6.457   3.269   1.755  1.1453 -0.1284  0.3917
  361MOL0     H48679   6.544   3.412   1.725 -0.0212  1.2126 -0.3836
  361MOL0     H48680   6.512   3.430   1.505 -0.1946 -0.6522 -1.9268
  361MOL0     H48681   6.466   3.261   1.488 -2.7096 -1.4895  1.0949
  361MOL0     H48682   6.276   3.371   1.669  0.4081  2.1408  0.7168
  361MOL0     H48683   6.299   3.507   1.561 -1.3585 -0.0868 -0.3055
  361MOL0     H48684   6.276   3.400   1.366 -1.8798  1.2073 -0.3547
  361MOL0     H48685   6.122   3.408   1.456  1.3259  1.7631  0.6619
  361MOL0     H48686   6.054   3.156   1.576 -1.0178  0.4559 -1.9156
  361MOL0     H48687   6.073   2.863   1.587 -0.8527 -1.3932 -0.5236
  361MOL0     H48688   5.996   2.846   1.437  0.3555 -1.3292 -1.1896
  361MOL0     H48689   6.286   2.770   1.497  0.0128  1.4722 -1.1870
  361MOL0     H48690   6.217   2.747   1.352 -2.1949 -0.8901  0.3754
  361MOL0     H48691   6.160   2.590   1.603 -3.5459  3.1264  1.3351
  361MOL0     H48692   6.196   2.528   1.440 -1.8682 -0.6835  1.1518
  361MOL0     H48693   5.938   2.648   1.534  0.6517  0.4837  0.5601
  361MOL0     H48694   5.963   2.484   1.517 -0.3021 -0.2576 -0.5575
  361MOL0     H48695   5.914   2.487   1.101  1.7411  0.5989  0.4733
  361MOL0     H48696   5.620   2.512   0.896 -0.3100 -0.6381  1.0066
  361MOL0     H48697   5.799   2.488   0.909 -0.3812  1.1443 -0.7026
  361MOL0     H48698   5.690   2.357   0.944 -1.7202 -0.0576 -0.4998
  361MOL0     H48699   5.197   2.764   1.275 -0.4095  0.2627  0.0737
  361MOL0     H48700   4.942   2.761   1.249 -2.0018 -2.2085  1.1292
  361MOL0     H48701   4.746   2.606   1.273  4.7611  0.5803 -0.9627
  361MOL0     H48702   4.715   2.740   1.161  2.1466  0.2602 -0.9397
  361MOL0     H48703   4.574   2.595   1.017  3.5791  1.3502 -0.6374
  361MOL0     H48704   4.619   2.456   1.111  1.0430  0.1387 -0.1899
  361MOL0     H48705   4.466   2.681   1.246 -0.5561  1.7228 -3.3239
  361MOL0     H48706   4.483   2.508   1.296 -0.6279 -1.4291 -1.2686
  361MOL0     H48707   4.322   2.622   1.060 -1.0736 -1.4472 -0.7871
  361MOL0     H48708   4.345   2.451   1.095  0.2426 -0.8788  2.0119
  361MOL0     H48709   4.177   2.647   1.235 -0.9786  0.0022  2.3455
  361MOL0     H48710   4.257   2.547   1.339  2.2969 -0.6830 -0.0565
  361MOL0     H48711   4.177   2.351   1.201  1.4430 -0.5611  0.8317
  361MOL0     H48712   4.063   2.454   1.293  0.8075  0.3298 -0.1212
  361MOL0     H48713   4.120   2.494   0.992 -0.3943  3.5429  0.5170
  361MOL0     H48714   3.990   2.557   1.083  2.8554  1.8442  2.0213
  361MOL0     H48715   3.999   2.252   1.088  1.1938  0.1209  0.2505
  361MOL0     H48716   3.944   2.323   0.946 -0.6971 -1.7856 -0.2411
  361MOL0     H48717   4.982   2.446   0.968  0.4634  0.3470 -1.1576
  361MOL0     H48718   5.217   2.442   0.990  1.0024 -1.0779  2.2151
  361MOL0     H48719   5.533   2.670   1.335  0.3837  1.1751 -0.8559
  361MOL0     H48720   5.754   2.719   1.425 -0.9799  3.0543 -2.5669
  361MOL0     H48721   6.862   2.708   1.927  0.3505 -0.5032 -0.9141
  361MOL0     H48722   7.079   2.633   2.050  2.2231 -0.5057  0.0181
  361MOL0     H48723   7.679   2.647   1.927 -1.4882 -2.1685  0.3400
  361MOL0     H48724   7.870   2.674   2.073  0.6509 -1.6464  1.0152
  361MOL0     H48725   7.792   2.832   2.478 -1.1708 -0.9865 -0.0109
  361MOL0     H48726   7.803   2.660   2.503 -0.8865 -0.8122 -2.7837
  361MOL0     H48727   7.985   2.849   2.618  1.9991 -0.5160  0.5448
  361MOL0     H48728   8.062   2.842   2.466 -0.0339  0.8529  0.4110
  361MOL0     H48729   8.099   2.594   2.488  1.2374 -1.1494  1.1512
  361MOL0     H48730   7.991   2.587   2.620 -0.6644 -0.7060  0.2065
  361MOL0     H48731   8.144   2.737   2.761 -1.2698 -1.9334  0.5478
  361MOL0     H48732   8.264   2.732   2.623  1.2234 -2.5911 -0.2400
  361MOL0     H48733   8.305   2.358   2.805  1.2790  0.5884  1.8074
  361MOL0     H48734   7.597   2.746   2.403 -2.1344 -1.2853 -0.1388
  361MOL0     H48735   7.408   2.741   2.254 -0.7073  1.0112 -1.8197
  362MOL0     O48736   1.713   2.510   3.874  0.9846 -0.4055  0.5246
  362MOL0     C48737   1.800   2.431   3.840  0.1533  0.3659  0.3663
  362MOL0     O48738   1.787   2.296   3.818 -0.2920 -0.0597  0.1026
  362MOL0     C48739   1.674   2.224   3.840  0.9299  0.4707 -0.1824
  362MOL0     C48740   1.593   2.247   3.956 -0.4059 -0.1512 -0.1644
  362MOL0     C48741   1.464   2.202   3.965 -0.1826  0.6610 -0.7630
  362MOL0     C48742   1.407   2.120   3.868  0.4941  0.6714 -0.5176
  362MOL0     O48743   1.276   2.079   3.877 -0.4050  0.3955 -0.5476
  362MOL0     C48744   1.189   2.145   3.975  0.2549 -0.9767  0.2328
  362MOL0     C48745   1.049   2.100   3.930 -0.8177  0.0175 -0.0779
  362MOL0     C48746   0.948   2.143   4.024  0.7592 -0.0228 -0.0978
  362MOL0     C48747   0.810   2.086   3.985 -0.1444 -0.3719  0.3674
  362MOL0     C48748   0.701   2.125   4.086 -1.2621  0.0952  0.8714
  362MOL0     C48749   0.580   2.054   4.058 -0.7885  0.8856  0.2607
  362MOL0     C48750   0.463   2.111   4.136 -0.2524 -0.4596 -0.0932
  362MOL0     C48751   0.458   2.039   4.275 -0.2278  0.1581  0.0696
  362MOL0     N48752   0.344   2.089   4.354  0.8332  0.1814 -0.6805
  362MOL0     C48753   0.201   2.091   4.327  0.0023  0.3169 -0.1994
  362MOL0     C48754   0.155   2.150   4.440  0.5635  0.7941  0.1337
  362MOL0     C48755   0.008   2.190   4.449  0.1304  0.3480  0.0162
  362MOL0     C48756  -0.013   2.301   4.356  0.7650 -0.0648 -0.6629
  362MOL0     C48757  -0.155   2.359   4.392  0.3344 -0.1061  0.4173
  362MOL0     C48758  -0.218   2.448   4.282 -0.2809 -0.4960 -0.2845
  362MOL0     O48759  -0.284   2.560   4.346 -0.1138  0.3096  0.1442
  362MOL0     C48760  -0.421   2.568   4.352  0.0693  0.2781 -0.1808
  362MOL0     C48761  -0.498   2.474   4.427  0.1171 -0.1631  0.2912
  362MOL0     C48762  -0.636   2.493   4.434 -0.2505  0.4429  0.8080
  362MOL0     C48763  -0.709   2.404   4.532  0.1270  0.7080 -0.8565
  362MOL0     C48764  -0.704   2.591   4.356 -0.9149  0.9631  0.1065
  362MOL0     C48765  -0.851   2.609   4.354 -0.5674 -0.9728 -0.6205
  362MOL0     O48766  -0.899   2.686   4.252 -0.3486  0.0599  0.2946
  362MOL0     C48767  -1.027   2.722   4.248  0.3154 -0.3485 -0.4514
  362MOL0     C48768  -1.056   2.859   4.252 -0.2352  0.9854  0.0130
  362MOL0     C48769  -1.184   2.913   4.241 -0.3219 -0.9847 -0.1498
  362MOL0     C48770  -1.295   2.822   4.248  0.9446  0.4233  0.2633
  362MOL0     O48771  -1.416   2.874   4.263  0.4199 -0.0529 -0.5720
  362MOL0     C48772  -1.535   2.795   4.224 -0.3309  0.0758 -1.0277
  362MOL0     C48773  -1.653   2.877   4.189  0.1568  0.5015  0.6564
  362MOL0     C48774  -1.637   2.953   4.066  0.3861 -0.2941  0.3405
  362MOL0     C48775  -1.777   3.008   4.029  0.0818 -0.0332  0.1529
  362MOL0     C48776  -1.797   3.056   3.889  0.7552 -0.9563  0.4932
  362MOL0     C48777  -1.688   3.152   3.850  0.8020  0.1547 -0.0915
  362MOL0     C48778  -1.726   3.256   3.743  0.0294  0.7532  0.1833
  362MOL0     C48779  -1.609   3.356   3.722 -0.2921  0.4301 -0.4395
  362MOL0    Cl48780  -1.582   3.417   3.560 -0.3687 -0.0993  0.5739
  362MOL0     C48781  -1.274   2.683   4.256 -0.0925 -0.7171  0.3356
  362MOL0     C48782  -1.140   2.637   4.248 -0.1219 -0.3276 -0.3497
  362MOL0     O48783  -0.919   2.571   4.451  0.0163 -0.0772 -0.0696
  362MOL0     C48784  -0.624   2.675   4.281  0.1306  0.4277  0.2603
  362MOL0     C48785  -0.489   2.657   4.275 -0.2250 -0.7198  0.4430
  362MOL0     N48786   0.244   2.176   4.530 -0.1495  0.1926  0.1193
  362MOL0     N48787   0.357   2.140   4.482  0.2422 -0.1767 -0.4184
  362MOL0     C48788   1.486   2.088   3.755 -0.0337  0.2477  0.0643
  362MOL0     C48789   1.615   2.138   3.742 -0.6565 -0.5866 -0.4372
  362MOL0     C48790   1.939   2.480   3.823 -0.2586 -0.2193  0.2460
  362MOL0     C48791   2.041   2.388   3.801 -0.2805  0.0500  0.2122
  362MOL0     C48792   2.174   2.430   3.805 -0.6359 -0.4963  0.0728
  362MOL0     C48793   2.209   2.563   3.826 -0.1989 -0.2089 -0.6329
  362MOL0     O48794   2.340   2.609   3.841 -0.0364  0.3922  0.2813
  362MOL0     C48795   2.448   2.517   3.819  1.0392 -0.0062 -0.0405
  362MOL0     C48796   2.581   2.578   3.846 -0.7812 -0.4968 -0.7563
  362MOL0     C48797   2.660   2.605   3.716  0.3908 -0.6224 -0.5869
  362MOL0     C48798   2.775   2.720   3.742  1.2774 -0.0881  0.5473
  362MOL0     C48799   2.874   2.676   3.842 -0.0458  0.1483 -0.0066
  362MOL0     C48800   2.958   2.642   3.924 -0.1392 -0.0907 -0.4380
  362MOL0     C48801   2.103   2.651   3.835  0.3171  0.0311  0.0237
  362MOL0     C48802   1.972   2.615   3.846  0.3493 -0.1163 -0.0098
  362MOL0     H48803   1.619   2.318   4.033 -0.9076 -0.8777  0.6928
  362MOL0     H48804   1.405   2.239   4.048  1.1412 -1.7816  1.4121
  362MOL0     H48805   1.223   2.104   4.071 -0.6864 -0.5547  0.7593
  362MOL0     H48806   1.198   2.254   3.976 -0.9003 -0.8589 -0.5858
  362MOL0     H48807   1.038   2.147   3.831  0.1531 -0.4117 -0.4098
  362MOL0     H48808   1.050   1.992   3.913  0.0118  0.0529 -0.3183
  362MOL0     H48809   0.966   2.102   4.124 -2.2009  0.5952  0.8031
  362MOL0     H48810   0.949   2.252   4.024 -2.1299  0.0926 -0.9245
  362MOL0     H48811   0.782   2.117   3.884 -1.3470  0.6662  1.0001
  362MOL0     H48812   0.810   1.976   3.990  0.7651 -0.4292 -0.5780
  362MOL0     H48813   0.735   2.111   4.189 -0.5096  1.3669  0.8098
  362MOL0     H48814   0.690   2.233   4.074 -0.5441  0.5297  3.4696
  362MOL0     H48815   0.557   2.070   3.952 -0.3085 -1.7607 -0.3198
  362MOL0     H48816   0.599   1.947   4.072  3.7813  1.4265 -0.2671
  362MOL0     H48817   0.462   2.220   4.136 -3.8864 -0.3256  2.1550
  362MOL0     H48818   0.376   2.084   4.075 -1.2949 -2.9510  2.2585
  362MOL0     H48819   0.551   2.056   4.331  0.4749 -0.3169 -0.9048
  362MOL0     H48820   0.459   1.933   4.247  1.0545  0.0689  0.3803
  362MOL0     H48821   0.145   2.060   4.240  0.1835 -1.6902  0.3442
  362MOL0     H48822  -0.051   2.103   4.420  4.1339 -2.3326 -1.0527
  362MOL0     H48823  -0.012   2.230   4.549 -1.0839  0.5835 -0.3067
  362MOL0     H48824  -0.010   2.276   4.249  1.6953  1.4384 -1.0307
  362MOL0     H48825   0.067   2.375   4.371 -0.0160  0.4560  1.1509
  362MOL0     H48826  -0.146   2.421   4.481 -1.8405  1.2332 -0.2193
  362MOL0     H48827  -0.217   2.271   4.413 -0.8535  0.5106 -0.3975
  362MOL0     H48828  -0.291   2.399   4.216 -0.6961  0.7880 -0.8078
  362MOL0     H48829  -0.136   2.489   4.223 -0.5008  0.9317  0.3682
  362MOL0     H48830  -0.445   2.395   4.480  4.0237  1.4800 -0.8270
  362MOL0     H48831  -0.641   2.339   4.588 -1.1371  0.3575  0.3220
  362MOL0     H48832  -0.766   2.472   4.596  0.9485  1.1526 -0.5856
  362MOL0     H48833  -0.777   2.342   4.473 -0.5338  0.6148 -0.0291
  362MOL0     H48834  -0.968   2.922   4.238  0.9258 -0.8114 -1.1815
  362MOL0     H48835  -1.194   3.020   4.254  0.7639 -0.6156 -1.9711
  362MOL0     H48836  -1.512   2.733   4.137  0.5662 -0.7701 -0.2131
  362MOL0     H48837  -1.556   2.718   4.299 -1.7425  0.7811 -0.6731
  362MOL0     H48838  -1.741   2.812   4.197 -1.8703  3.1500  1.1967
  362MOL0     H48839  -1.676   2.946   4.270 -0.8232  2.4087 -1.1650
  362MOL0     H48840  -1.616   2.878   3.989 -2.5686 -1.8287  0.8802
  362MOL0     H48841  -1.570   3.038   4.077 -0.8566  0.4541  2.7880
  362MOL0     H48842  -1.844   2.922   4.038 -0.1299  0.1660  0.4863
  362MOL0     H48843  -1.815   3.076   4.105 -0.0525  0.3775 -0.2753
  362MOL0     H48844  -1.894   3.105   3.888  1.3497  0.3516  2.0732
  362MOL0     H48845  -1.793   2.978   3.813  1.5217 -0.2484 -0.2068
  362MOL0     H48846  -1.660   3.212   3.937 -2.5484  1.6788  0.0947
  362MOL0     H48847  -1.611   3.090   3.803  0.1828  1.4050 -3.0095
  362MOL0     H48848  -1.813   3.316   3.773 -0.2351 -0.2052  1.4151
  362MOL0     H48849  -1.753   3.206   3.650 -2.3447  1.3254  0.5042
  362MOL0     H48850  -1.517   3.299   3.741 -1.9846 -2.8468 -1.3398
  362MOL0     H48851  -1.620   3.444   3.787  0.1257 -0.0346  0.2849
  362MOL0     H48852  -1.355   2.610   4.254 -1.9703  1.2817 -0.3731
  362MOL0     H48853  -1.130   2.529   4.251 -2.8666 -0.7549 -2.4291
  362MOL0     H48854  -0.672   2.761   4.235 -0.4460  1.6469  2.9938
  362MOL0     H48855  -0.433   2.720   4.207 -1.6494  0.5398  0.3821
  362MOL0     H48856   1.447   2.036   3.667 -2.1715 -0.1309  1.1555
  362MOL0     H48857   1.686   2.141   3.659  1.9880  1.5501  1.6777
  362MOL0     H48858   2.031   2.280   3.799 -0.5738  0.0582  0.9430
  362MOL0     H48859   2.242   2.347   3.787 -0.2426 -0.1747  0.0757
  362MOL0     H48860   2.421   2.441   3.894 -0.3700 -0.5387 -1.0361
  362MOL0     H48861   2.452   2.466   3.722  3.0525 -1.0459  0.5332
  362MOL0     H48862   2.639   2.517   3.915 -2.0278 -0.7884  0.0743
  362MOL0     H48863   2.565   2.672   3.899 -0.9361  0.9903 -3.2590
  362MOL0     H48864   2.586   2.625   3.638  0.4454 -0.2620 -0.5519
  362MOL0     H48865   2.702   2.512   3.678  2.6236  1.2331 -3.1448
  362MOL0     H48866   2.740   2.818   3.774  2.3747  1.1244 -1.6894
  362MOL0     H48867   2.832   2.732   3.649 -0.8774 -3.7196 -1.5136
  362MOL0     H48868   3.032   2.624   3.999 -0.7388 -1.2608 -0.1097
  362MOL0     H48869   2.128   2.757   3.833 -0.8671  0.3457  0.6609
  362MOL0     H48870   1.898   2.691   3.869 -0.8420 -1.3016  0.2177
  363MOL0     O48871   1.553  10.415   3.774 -0.7769 -0.5807 -0.6734
  363MOL0     C48872   1.559  10.300   3.812 -0.0377  0.6885 -0.1913
  363MOL0     O48873   1.455  10.221   3.859  0.1831  0.2827  0.4626
  363MOL0     C48874   1.340  10.285   3.895  0.0161 -0.5675 -0.7564
  363MOL0     C48875   1.228  10.309   3.819 -0.0927  0.0548  0.4235
  363MOL0     C48876   1.107  10.358   3.863  1.2586 -0.8155 -0.3929
  363MOL0     C48877   1.085  10.393   4.000  0.1579 -1.2480 -0.3925
  363MOL0     O48878   0.963  10.435   4.045  0.4628 -0.0727  0.2440
  363MOL0     C48879   0.842  10.444   3.970  0.1189  0.2720  0.0213
  363MOL0     C48880   0.774  10.315   3.963  0.2324 -0.3961 -0.0723
  363MOL0     C48881   0.626  10.319   3.903 -0.3595  0.2962 -0.3296
  363MOL0     C48882   0.631  10.342   3.744 -0.2282  0.5545  0.8062
  363MOL0     C48883   0.489  10.312   3.681 -0.4714 -0.4775  0.2951
  363MOL0     C48884   0.483  10.393   3.552  0.5250  0.3565  0.1225
  363MOL0     C48885   0.338  10.406   3.487  0.0251 -0.5864  0.0089
  363MOL0     C48886   0.359  10.525   3.393  0.0987  0.6114  0.5957
  363MOL0     N48887   0.237  10.550   3.312  0.2527 -0.0806  1.0228
  363MOL0     C48888   0.127  10.605   3.368  1.0070 -1.0159  0.5944
  363MOL0     C48889   0.039  10.636   3.268  0.4630  0.3142  0.1711
  363MOL0     C48890  -0.097  10.706   3.281 -0.0750 -0.2459 -0.4859
  363MOL0     C48891  -0.203  10.624   3.357 -0.8205 -0.0417  0.5292
  363MOL0     C48892  -0.331  10.696   3.350  0.7093  0.5741 -0.1160
  363MOL0     C48893  -0.456  10.617   3.395  0.3492 -0.2686 -0.0989
  363MOL0     O48894  -0.488  10.495   3.325 -0.2382  0.2990 -0.0910
  363MOL0     C48895  -0.619  10.459   3.287 -0.1531  0.5487  0.3208
  363MOL0     C48896  -0.631  10.375   3.176  0.6779 -0.1823 -0.3809
  363MOL0     C48897  -0.760  10.354   3.123 -0.9642 -0.4710 -0.4098
  363MOL0     C48898  -0.775  10.249   3.013 -0.1435 -0.5522 -0.6236
  363MOL0     C48899  -0.875  10.411   3.191  1.1299 -0.4522 -0.5751
  363MOL0     C48900  -1.017  10.390   3.145 -0.6551 -0.2185 -0.3350
  363MOL0     O48901  -1.110  10.474   3.204 -0.6648 -0.2207 -0.1839
  363MOL0     C48902  -1.244  10.469   3.177  0.7337  0.1075  0.0002
  363MOL0     C48903  -1.322  10.581   3.190 -0.0917 -0.9516 -1.5168
  363MOL0     C48904  -1.461  10.584   3.160  0.1861  0.3723 -0.5455
  363MOL0     C48905  -1.517  10.477   3.095 -0.3566 -0.3945  0.3812
  363MOL0     O48906  -1.639  10.501   3.042  0.4935  0.5197  0.5276
  363MOL0     C48907  -1.707  10.390   2.977 -0.1632 -0.3618  0.3479
  363MOL0     C48908  -1.833  10.445   2.927  0.0388 -0.6353 -0.1967
  363MOL0     C48909  -1.954  10.482   3.013 -0.0430 -0.0231  0.2374
  363MOL0     C48910  -1.949  10.623   3.069  0.0017  0.0861 -0.9249
  363MOL0     C48911  -2.071  10.652   3.156 -0.1594  0.0014 -0.5026
  363MOL0     C48912  -2.202  10.664   3.068 -0.3275  0.7768  0.1305
  363MOL0     C48913  -2.302  10.752   3.145 -0.0532  0.3850  1.0131
  363MOL0     C48914  -2.437  10.749   3.067 -0.1747 -0.0731  0.5582
  363MOL0    Cl48915  -2.557  10.862   3.132 -0.1509 -0.4315  0.1134
  363MOL0     C48916  -1.448  10.353   3.098  0.2049  0.1721 -0.8284
  363MOL0     C48917  -1.314  10.351   3.138 -0.2059  0.5255 -0.0430
  363MOL0     O48918  -1.046  10.302   3.065 -0.1490 -1.4571  0.0305
  363MOL0     C48919  -0.856  10.499   3.302  0.6147  0.3075 -0.0708
  363MOL0     C48920  -0.728  10.521   3.344 -0.0616 -0.2307 -0.3113
  363MOL0     N48921   0.105  10.604   3.153 -0.0550  0.0028  0.2234
  363MOL0     N48922   0.226  10.558   3.180  0.9158 -0.2479  0.3217
  363MOL0     C48923   1.193  10.374   4.083 -0.1599 -0.7009  0.6304
  363MOL0     C48924   1.311  10.321   4.026  0.1465  1.2267 -1.1188
  363MOL0     C48925   1.684  10.225   3.783 -0.4267  0.4744  0.4005
  363MOL0     C48926   1.787  10.286   3.699 -0.9513 -0.2264 -1.2499
  363MOL0     C48927   1.905  10.220   3.662  0.0765  0.5555 -0.2928
  363MOL0     C48928   1.927  10.087   3.708  0.2089  0.0147 -0.5465
  363MOL0     O48929   2.040  10.012   3.674  0.1825 -0.4402  0.5373
  363MOL0     C48930   2.161  10.080   3.652 -0.4894  0.0326 -0.0705
  363MOL0     C48931   2.186  10.104   3.507  0.2903 -0.5063 -0.0672
  363MOL0     C48932   2.254   9.982   3.430 -0.3048 -0.3413 -0.9893
  363MOL0     C48933   2.164   9.859   3.452 -0.4968  0.2161  0.1774
  363MOL0     C48934   2.190   9.763   3.350 -0.9192  0.1214 -1.0392
  363MOL0     C48935   2.216   9.672   3.273  0.4759 -0.1699 -1.0339
  363MOL0     C48936   1.826  10.026   3.786  0.4028  0.3247  0.1454
  363MOL0     C48937   1.704  10.085   3.819 -0.1493  0.0871  0.0042
  363MOL0     H48938   1.246  10.274   3.717  0.4387  1.1055  0.1399
  363MOL0     H48939   1.026  10.357   3.790 -1.2062  1.2785  2.0990
  363MOL0     H48940   0.778  10.518   4.020  0.9814  0.6501  0.5941
  363MOL0     H48941   0.859  10.480   3.868 -2.2868 -0.0416 -0.5430
  363MOL0     H48942   0.841  10.247   3.909  3.2688  2.1391  0.2267
  363MOL0     H48943   0.774  10.282   4.067  1.1147 -0.3237 -0.0393
  363MOL0     H48944   0.572  10.226   3.920 -2.0997  1.0046 -1.7050
  363MOL0     H48945   0.571  10.399   3.953  0.7115  2.1330 -1.9287
  363MOL0     H48946   0.666  10.443   3.723 -2.5627  0.8352 -2.3735
  363MOL0     H48947   0.694  10.270   3.691 -2.1041  1.0606 -2.3510
  363MOL0     H48948   0.478  10.205   3.660 -2.1161  0.0715 -2.0164
  363MOL0     H48949   0.410  10.333   3.755 -0.1144  0.5935  0.3808
  363MOL0     H48950   0.532  10.490   3.562 -0.0242  0.7508 -0.8356
  363MOL0     H48951   0.552  10.355   3.476  0.6047  0.0274  0.3582
  363MOL0     H48952   0.311  10.314   3.434 -1.1457  1.1229 -2.5517
  363MOL0     H48953   0.255  10.432   3.554 -1.1791 -1.4211 -1.1080
  363MOL0     H48954   0.431  10.500   3.314 -1.0489  1.2096 -0.6820
  363MOL0     H48955   0.399  10.615   3.440 -0.8457 -0.5518  3.9076
  363MOL0     H48956   0.090  10.623   3.468 -2.0742 -2.6624 -0.1404
  363MOL0     H48957  -0.074  10.799   3.335  2.4675  0.0722 -1.9731
  363MOL0     H48958  -0.144  10.744   3.191  0.9505  0.2221 -0.8408
  363MOL0     H48959  -0.183  10.614   3.464  1.2911  1.6672  0.3684
  363MOL0     H48960  -0.214  10.527   3.307 -0.3220 -0.7686  1.7825
  363MOL0     H48961  -0.358  10.732   3.251 -1.5260  0.2870  0.3140
  363MOL0     H48962  -0.323  10.786   3.411 -1.4254  0.7323  0.0395
  363MOL0     H48963  -0.540  10.686   3.387  0.5309  0.6315  3.9552
  363MOL0     H48964  -0.439  10.595   3.501 -1.5275  1.3777  0.5942
  363MOL0     H48965  -0.546  10.336   3.121  0.0659 -0.4929 -1.1192
  363MOL0     H48966  -0.679  10.203   2.987  1.1955  1.7596  0.0013
  363MOL0     H48967  -0.835  10.165   3.048  2.4253 -2.0897  0.4053
  363MOL0     H48968  -0.814  10.294   2.922 -0.0531 -0.0213 -0.3998
  363MOL0     H48969  -1.266  10.670   3.213 -1.3928 -0.1943 -1.1864
  363MOL0     H48970  -1.510  10.680   3.166 -1.1305 -0.3547  2.4042
  363MOL0     H48971  -1.648  10.336   2.902  1.4711  1.0393  0.5658
  363MOL0     H48972  -1.724  10.308   3.047 -1.4030 -2.9236 -2.6954
  363MOL0     H48973  -1.806  10.537   2.873 -0.5643 -1.6251 -2.2755
  363MOL0     H48974  -1.870  10.366   2.861  0.9263 -2.2045  1.0952
  363MOL0     H48975  -1.971  10.397   3.080 -1.4885 -0.3153 -0.4533
  363MOL0     H48976  -2.036  10.467   2.943 -0.1348 -4.9232  1.0342
  363MOL0     H48977  -1.858  10.631   3.130 -2.0754  0.3985  2.4053
  363MOL0     H48978  -1.938  10.700   2.992 -0.0211  0.3405 -0.6753
  363MOL0     H48979  -2.035  10.748   3.193 -0.2859  0.4600 -1.5190
  363MOL0     H48980  -2.080  10.578   3.236  0.9077  0.2320 -0.1505
  363MOL0     H48981  -2.184  10.714   2.972 -1.7438  2.2325  0.5822
  363MOL0     H48982  -2.238  10.562   3.056 -1.0193  0.9126  0.9313
  363MOL0     H48983  -2.279  10.859   3.154  0.1074  0.2002  3.5290
  363MOL0     H48984  -2.329  10.701   3.238 -1.8119 -0.4567  0.0902
  363MOL0     H48985  -2.476  10.647   3.071  2.5334 -1.2422 -0.4279
  363MOL0     H48986  -2.421  10.769   2.961 -1.5373  1.1617  0.5457
  363MOL0     H48987  -1.497  10.261   3.071  0.5958 -0.0714 -0.7176
  363MOL0     H48988  -1.256  10.260   3.138  0.5221  0.9688 -1.3134
  363MOL0     H48989  -0.938  10.550   3.352  0.5635  1.3885 -1.2049
  363MOL0     H48990  -0.720  10.579   3.435  2.4559  0.7195 -1.0646
  363MOL0     H48991   1.198  10.406   4.187 -0.9449  0.5968  0.2930
  363MOL0     H48992   1.392  10.317   4.098  0.0692  2.3637 -0.9452
  363MOL0     H48993   1.779  10.392   3.678 -0.2209  0.4649  1.5714
  363MOL0     H48994   1.986  10.266   3.606  3.0323 -1.6574  1.8774
  363MOL0     H48995   2.154  10.174   3.707 -2.7828  0.3163 -0.7170
  363MOL0     H48996   2.240  10.025   3.704 -1.8031 -0.3895  1.5887
  363MOL0     H48997   2.249  10.191   3.528 -1.9266  1.1816  0.0492
  363MOL0     H48998   2.094  10.139   3.458 -0.7458 -2.4586  0.3691
  363MOL0     H48999   2.355   9.963   3.470 -0.1823 -0.9483 -1.5624
  363MOL0     H49000   2.271   9.999   3.323  0.7133 -1.0595 -0.9609
  363MOL0     H49001   2.060   9.890   3.434  0.2999  2.1550 -1.6000
  363MOL0     H49002   2.173   9.816   3.552 -0.2076  3.4814  1.6955
  363MOL0     H49003   2.238   9.586   3.212  1.1278 -0.2447 -0.7005
  363MOL0     H49004   1.840   9.921   3.812 -0.1878  0.1335 -0.2638
  363MOL0     H49005   1.644  10.028   3.889  2.7977  1.2510  3.8447
  364MOL0     O49006   4.887   7.908   4.360  0.3476  0.0961 -0.2962
  364MOL0     C49007   4.936   7.901   4.252 -0.3120  0.4789  0.2351
  364MOL0     O49008   4.865   7.873   4.134  0.1750 -0.7818  0.5644
  364MOL0     C49009   4.732   7.875   4.135  0.2292 -0.1360 -1.1622
  364MOL0     C49010   4.662   7.951   4.048  0.4275 -0.2156 -0.7512
  364MOL0     C49011   4.520   7.942   4.039  0.5589  1.5437 -0.0065
  364MOL0     C49012   4.453   7.844   4.112 -0.4018  0.1942 -0.4770
  364MOL0     O49013   4.323   7.839   4.084 -0.0148 -0.3126  0.4299
  364MOL0     C49014   4.248   7.723   4.113  0.0266  0.1977 -0.3394
  364MOL0     C49015   4.105   7.759   4.079  0.3456 -0.0625  0.2895
  364MOL0     C49016   4.012   7.648   4.127 -0.5473 -0.2498 -0.4529
  364MOL0     C49017   3.867   7.661   4.069 -0.0875 -0.2310 -0.3242
  364MOL0     C49018   3.769   7.577   4.145 -0.0265  0.1257  0.5816
  364MOL0     C49019   3.630   7.583   4.092  0.6662 -0.0849  0.3129
  364MOL0     C49020   3.526   7.486   4.153 -0.7366 -0.9299  0.2246
  364MOL0     C49021   3.386   7.492   4.089  0.3534 -0.9840  0.3176
  364MOL0     N49022   3.277   7.453   4.183 -1.6339 -0.7256 -0.3571
  364MOL0     C49023   3.158   7.508   4.172 -0.6634 -0.0452  0.0813
  364MOL0     C49024   3.070   7.409   4.211  0.2581 -0.2946 -0.6834
  364MOL0     C49025   2.926   7.416   4.210  0.4410 -0.0640 -0.6186
  364MOL0     C49026   2.879   7.445   4.063 -1.0894 -0.3074 -0.6466
  364MOL0     C49027   2.735   7.402   4.040 -0.1543 -0.6269 -0.2470
  364MOL0     C49028   2.719   7.258   4.038  0.2498  0.5645 -0.6379
  364MOL0     O49029   2.612   7.220   3.950 -0.2834 -0.1884  0.3024
  364MOL0     C49030   2.487   7.274   3.959  0.6282  0.5406  0.6885
  364MOL0     C49031   2.431   7.317   4.077  0.3830 -0.1976  0.1587
  364MOL0     C49032   2.295   7.360   4.083 -0.2323 -0.0271 -0.2082
  364MOL0     C49033   2.240   7.379   4.219 -0.2114  0.1013 -0.0996
  364MOL0     C49034   2.216   7.370   3.965  0.2789 -0.2191  0.4966
  364MOL0     C49035   2.087   7.442   3.950  0.6909 -0.5416  0.0155
  364MOL0     O49036   2.006   7.373   3.864  0.1120  0.6391 -0.3939
  364MOL0     C49037   1.869   7.388   3.882 -0.4257 -0.2646 -0.6358
  364MOL0     C49038   1.789   7.424   3.772  0.0465 -0.9954  0.0551
  364MOL0     C49039   1.656   7.445   3.792  0.0349 -0.4471  0.3986
  364MOL0     C49040   1.591   7.436   3.921  0.0967  0.4845  0.6143
  364MOL0     O49041   1.454   7.448   3.930  0.4599  0.0462  0.7062
  364MOL0     C49042   1.399   7.579   3.921 -0.0479  0.0633  0.5060
  364MOL0     C49043   1.379   7.646   4.063 -0.2734  0.3886 -0.1114
  364MOL0     C49044   1.263   7.556   4.125 -0.6381 -0.5090 -0.2623
  364MOL0     C49045   1.219   7.598   4.271  0.0565  0.2411  0.2033
  364MOL0     C49046   1.112   7.505   4.341  0.0701  0.4493  0.4296
  364MOL0     C49047   1.031   7.581   4.444  0.0715  0.2862  0.3235
  364MOL0     C49048   1.123   7.617   4.567 -0.3359  0.1174  0.3207
  364MOL0     C49049   1.061   7.725   4.654  0.2413 -0.1854 -0.2700
  364MOL0    Cl49050   0.908   7.669   4.730  0.2535 -0.2849 -0.1328
  364MOL0     C49051   1.670   7.388   4.028 -0.1999 -0.4131  0.3539
  364MOL0     C49052   1.806   7.364   4.010 -0.4187 -0.0635  0.0252
  364MOL0     O49053   2.059   7.541   4.017 -0.1778 -0.5431 -0.4172
  364MOL0     C49054   2.277   7.322   3.844  0.1919  0.3143 -0.6558
  364MOL0     C49055   2.405   7.270   3.838 -0.2663 -0.7752 -0.1918
  364MOL0     N49056   3.150   7.299   4.246 -0.1153 -0.0229  0.4651
  364MOL0     N49057   3.275   7.322   4.225 -0.4889 -0.6820 -0.1115
  364MOL0     C49058   4.525   7.763   4.198  0.7767 -0.4935 -0.3200
  364MOL0     C49059   4.657   7.776   4.207 -0.7084  0.0372 -0.6743
  364MOL0     C49060   5.079   7.901   4.234  0.1974 -0.0458  0.4192
  364MOL0     C49061   5.142   7.868   4.107 -0.6409 -0.2922 -0.6673
  364MOL0     C49062   5.282   7.880   4.095 -0.2324 -0.4092  0.5964
  364MOL0     C49063   5.362   7.912   4.208 -0.3342 -0.0036  0.0327
  364MOL0     O49064   5.502   7.920   4.180 -0.2192  0.0689  0.2261
  364MOL0     C49065   5.581   7.919   4.299  0.6292 -0.9872 -0.7414
  364MOL0     C49066   5.725   7.902   4.269  0.8667  0.4544 -0.1730
  364MOL0     C49067   5.750   7.771   4.198 -1.1871 -0.1313 -0.0919
  364MOL0     C49068   5.892   7.722   4.206 -0.1385 -0.0181  0.4780
  364MOL0     C49069   5.903   7.592   4.139 -0.1505 -0.6685 -1.0297
  364MOL0     C49070   5.903   7.483   4.092 -0.1146  0.7027  1.0427
  364MOL0     C49071   5.301   7.945   4.325 -1.2015 -0.3928  0.8269
  364MOL0     C49072   5.163   7.944   4.341 -0.5877 -0.1864  0.8880
  364MOL0     H49073   4.713   8.022   3.983 -0.0475  0.2874 -0.5802
  364MOL0     H49074   4.464   8.002   3.969 -0.5471  1.5019  0.8126
  364MOL0     H49075   4.276   7.635   4.055  0.5253  1.2840 -1.8058
  364MOL0     H49076   4.264   7.705   4.220  1.8986 -1.0814 -0.7849
  364MOL0     H49077   4.059   7.850   4.118 -1.2670 -0.5758 -0.3606
  364MOL0     H49078   4.096   7.758   3.970  1.6658 -2.5380  0.1276
  364MOL0     H49079   4.055   7.549   4.107 -0.9899 -1.0089  1.9552
  364MOL0     H49080   4.002   7.660   4.236 -1.8518  2.2796 -0.7951
  364MOL0     H49081   3.836   7.762   4.098 -0.3505 -0.3887 -0.0545
  364MOL0     H49082   3.863   7.652   3.960 -0.6118 -2.1119 -0.1799
  364MOL0     H49083   3.800   7.473   4.129  2.0626  0.7942 -0.0255
  364MOL0     H49084   3.768   7.598   4.253  2.1260 -1.4867  0.9889
  364MOL0     H49085   3.601   7.686   4.116 -0.3983 -0.8248  2.4388
  364MOL0     H49086   3.636   7.573   3.983  1.7079  0.1162  0.3409
  364MOL0     H49087   3.553   7.380   4.144  0.2000 -0.5807 -1.5632
  364MOL0     H49088   3.526   7.512   4.259  0.4518 -1.6331  0.4169
  364MOL0     H49089   3.388   7.428   3.999  0.4502 -2.2034  1.1641
  364MOL0     H49090   3.370   7.595   4.056  2.6930 -0.2464  1.3185
  364MOL0     H49091   3.130   7.594   4.111 -0.6428  0.2203  0.4454
  364MOL0     H49092   2.877   7.330   4.256  2.6742 -1.4245 -0.6276
  364MOL0     H49093   2.905   7.504   4.271  1.9434 -1.3502  1.9389
  364MOL0     H49094   2.947   7.401   3.990 -1.8474 -0.1394 -1.4745
  364MOL0     H49095   2.889   7.550   4.033  0.2308 -0.5036 -0.9650
  364MOL0     H49096   2.694   7.431   3.942 -3.2225  0.4499  1.2183
  364MOL0     H49097   2.675   7.449   4.118  1.4945  2.0503 -0.4730
  364MOL0     H49098   2.710   7.217   4.139  2.8805 -2.3094 -1.3952
  364MOL0     H49099   2.806   7.205   3.997  0.9688  1.3865 -0.2272
  364MOL0     H49100   2.498   7.310   4.162  0.1514 -0.8058  0.2929
  364MOL0     H49101   2.132   7.362   4.228  0.3183 -3.4203  0.7592
  364MOL0     H49102   2.274   7.305   4.292 -2.2550 -0.1162  0.7049
  364MOL0     H49103   2.259   7.477   4.264 -1.1329 -0.0622  0.6826
  364MOL0     H49104   1.821   7.442   3.670  1.0633 -1.1036  0.3490
  364MOL0     H49105   1.587   7.463   3.710 -0.0903 -1.3403  0.2969
  364MOL0     H49106   1.462   7.642   3.857 -0.7140  0.2999  0.0731
  364MOL0     H49107   1.298   7.583   3.879  0.6543 -1.2069 -1.4252
  364MOL0     H49108   1.476   7.639   4.114  0.3415  4.1287 -0.5331
  364MOL0     H49109   1.349   7.750   4.050 -0.9057  0.0303 -1.9355
  364MOL0     H49110   1.295   7.452   4.135  1.6130  0.3543  3.3368
  364MOL0     H49111   1.173   7.576   4.065 -0.2268 -0.7205 -0.9660
  364MOL0     H49112   1.309   7.602   4.333 -0.2290 -1.2485  0.7527
  364MOL0     H49113   1.187   7.702   4.262 -0.1316  0.0747 -1.4646
  364MOL0     H49114   1.146   7.407   4.376 -1.4599  0.4218  1.9790
  364MOL0     H49115   1.048   7.482   4.256  0.2054  2.8394 -0.3596
  364MOL0     H49116   0.985   7.666   4.393 -0.8832  0.1044  0.8599
  364MOL0     H49117   0.946   7.517   4.472  0.0783  0.7075  1.3301
  364MOL0     H49118   1.224   7.649   4.541 -0.2082 -1.5003 -1.3800
  364MOL0     H49119   1.148   7.523   4.616  0.7081 -0.1488 -0.6946
  364MOL0     H49120   1.044   7.814   4.593  1.2594  0.8625  0.9367
  364MOL0     H49121   1.128   7.749   4.737 -1.9465 -3.0583  2.5765
  364MOL0     H49122   1.622   7.368   4.123  0.0321  1.0497  0.7947
  364MOL0     H49123   1.860   7.333   4.099 -1.7499  1.6122  1.4877
  364MOL0     H49124   2.221   7.324   3.751  1.2054 -0.6812 -1.3126
  364MOL0     H49125   2.443   7.226   3.746  0.5638 -3.5036  1.3540
  364MOL0     H49126   4.467   7.689   4.252 -2.1726  1.1364 -0.9863
  364MOL0     H49127   4.716   7.703   4.262  0.3168  1.6639  0.4715
  364MOL0     H49128   5.083   7.839   4.021  0.7617 -2.2006 -1.0536
  364MOL0     H49129   5.340   7.865   4.004  0.8441 -0.4910  1.2832
  364MOL0     H49130   5.567   8.013   4.354  2.3507 -0.6404 -0.8456
  364MOL0     H49131   5.555   7.834   4.363 -1.0486 -1.5284 -2.0783
  364MOL0     H49132   5.778   7.911   4.363  0.6207 -0.7658  0.1084
  364MOL0     H49133   5.766   7.979   4.203  0.4147  0.8062 -0.0501
  364MOL0     H49134   5.729   7.786   4.092  0.2543 -0.3889 -0.4384
  364MOL0     H49135   5.694   7.689   4.243  0.8193 -1.8532 -0.5556
  364MOL0     H49136   5.919   7.724   4.312 -1.2387 -1.7344  0.8204
  364MOL0     H49137   5.961   7.786   4.150 -0.3220 -0.1032  0.1501
  364MOL0     H49138   5.896   7.377   4.078 -0.6444  0.8238  0.3292
  364MOL0     H49139   5.364   7.961   4.412 -1.5055 -2.4309  1.4734
  364MOL0     H49140   5.109   7.972   4.431  0.3051 -0.7582  1.6148
  365MOL0     O49141   7.328  10.605   2.832 -0.1693  0.4412  0.0659
  365MOL0     C49142   7.374  10.547   2.930 -0.2863  0.5248  0.8660
  365MOL0     O49143   7.355  10.417   2.963 -0.2296 -0.0946  0.0595
  365MOL0     C49144   7.266  10.335   2.905 -0.1058 -0.0941  0.4258
  365MOL0     C49145   7.299  10.197   2.885  0.3357 -0.0917 -0.2933
  365MOL0     C49146   7.212  10.117   2.806 -0.0209 -0.0780 -0.7707
  365MOL0     C49147   7.087  10.164   2.761 -0.8502 -0.0322 -0.3811
  365MOL0     O49148   6.992  10.075   2.713 -0.1112  0.0947  1.1208
  365MOL0     C49149   6.960  10.096   2.577  0.0417  0.0644  0.3745
  365MOL0     C49150   6.861  10.211   2.542 -0.4214 -0.0538  1.0613
  365MOL0     C49151   6.724  10.195   2.608  1.2160 -0.2600 -0.5101
  365MOL0     C49152   6.639  10.084   2.533  0.8927  0.6347  0.0819
  365MOL0     C49153   6.487  10.105   2.558 -0.4140 -0.2864 -0.1351
  365MOL0     C49154   6.409  10.012   2.464 -0.8809  0.3916 -0.6059
  365MOL0     C49155   6.254  10.018   2.492  0.0714 -0.2775  0.1775
  365MOL0     C49156   6.183   9.944   2.381 -0.1345 -0.4359  0.1623
  365MOL0     N49157   6.037   9.938   2.409 -0.3830  1.0211 -0.3145
  365MOL0     C49158   5.952  10.042   2.409  0.0736 -0.8790  0.8121
  365MOL0     C49159   5.827   9.989   2.399  0.6175  0.3801 -0.2376
  365MOL0     C49160   5.701  10.065   2.373 -0.5950  0.5147  0.0103
  365MOL0     C49161   5.573   9.996   2.426  0.6396 -0.1081 -0.2990
  365MOL0     C49162   5.449  10.061   2.367  0.3002  0.2169  0.2059
  365MOL0     C49163   5.333   9.972   2.408 -0.1109  0.3517 -0.5206
  365MOL0     O49164   5.224  10.039   2.347  0.0415  0.4735 -0.2190
  365MOL0     C49165   5.097   9.985   2.351 -0.0460  0.4241  0.1784
  365MOL0     C49166   5.071   9.859   2.385  0.3113  0.3365 -0.2109
  365MOL0     C49167   4.936   9.806   2.386  0.2236  0.6846  1.8557
  365MOL0     C49168   4.925   9.662   2.407  0.9147 -0.0487  0.4218
  365MOL0     C49169   4.828   9.889   2.358  0.6106 -0.5001  1.2877
  365MOL0     C49170   4.683   9.853   2.336  0.3118  0.4531 -0.5958
  365MOL0     O49171   4.587   9.935   2.388  0.1073 -0.3692 -0.3644
  365MOL0     C49172   4.476   9.950   2.315 -0.0945 -0.3500 -0.1736
  365MOL0     C49173   4.481   9.998   2.180  0.4311  0.0896  0.3249
  365MOL0     C49174   4.361  10.023   2.111 -0.9326 -0.6534  0.6405
  365MOL0     C49175   4.241  10.022   2.174 -0.1000  0.2707  0.1092
  365MOL0     O49176   4.122  10.046   2.115 -1.6017 -0.5402 -0.7366
  365MOL0     C49177   4.120  10.145   2.015 -0.3745 -0.2156 -0.3093
  365MOL0     C49178   3.975  10.208   1.994 -0.9308 -0.5466 -0.6388
  365MOL0     C49179   3.869  10.112   1.947  0.1510  0.0559 -0.2600
  365MOL0     C49180   3.733  10.162   1.931 -0.0510  0.0559 -0.1930
  365MOL0     C49181   3.644  10.185   2.049 -0.4978  0.2680 -0.6103
  365MOL0     C49182   3.502  10.203   2.002  0.7881 -0.9922  0.2536
  365MOL0     C49183   3.396  10.251   2.094 -0.1609  0.3947  0.0994
  365MOL0     C49184   3.389  10.159   2.218  0.5753 -0.0369  0.3816
  365MOL0    Cl49185   3.243  10.193   2.307  0.0175  0.0541  0.1160
  365MOL0     C49186   4.244   9.984   2.309  0.7974 -0.2911 -0.2192
  365MOL0     C49187   4.358   9.941   2.377 -1.1203 -0.0048 -0.2533
  365MOL0     O49188   4.651   9.748   2.279 -0.1589 -0.2075 -0.1562
  365MOL0     C49189   4.854  10.015   2.323 -0.2316 -0.1347  0.2262
  365MOL0     C49190   4.985  10.060   2.315  0.9062  0.5554  0.2413
  365MOL0     N49191   5.838   9.856   2.394  1.1856 -0.0921  0.5692
  365MOL0     N49192   5.964   9.827   2.399 -0.2225 -0.2063 -0.2073
  365MOL0     C49193   7.059  10.301   2.779  0.0870  0.5495 -0.3562
  365MOL0     C49194   7.150  10.388   2.844  0.1344  0.2412  0.0025
  365MOL0     C49195   7.453  10.626   3.028  0.2791 -0.2357 -0.4134
  365MOL0     C49196   7.535  10.727   2.983 -0.8334 -0.5681 -0.0270
  365MOL0     C49197   7.630  10.789   3.068 -0.1573  0.3579  0.5985
  365MOL0     C49198   7.634  10.753   3.202 -0.1449 -0.5238  0.7330
  365MOL0     O49199   7.724  10.799   3.297 -0.4834 -0.2758  0.9382
  365MOL0     C49200   7.793  10.926   3.273 -0.1294  0.4183 -1.2124
  365MOL0     C49201   7.941  10.900   3.292  0.0781 -0.5014 -0.2664
  365MOL0     C49202   8.027  11.019   3.347  0.5669 -0.3641 -0.5862
  365MOL0     C49203   8.125  10.984   3.460 -0.0822 -0.1724 -0.2546
  365MOL0     C49204   8.254  10.931   3.410  0.1937 -0.2620  0.0625
  365MOL0     C49205   8.362  10.922   3.355  0.5894 -0.0932 -0.7358
  365MOL0     C49206   7.555  10.643   3.240  0.3350  0.3443 -0.4686
  365MOL0     C49207   7.465  10.579   3.155  0.0760 -0.2553 -0.5815
  365MOL0     H49208   7.400  10.176   2.919  0.5836 -0.5662 -1.2969
  365MOL0     H49209   7.242  10.013   2.802  0.0162 -0.1216  0.3477
  365MOL0     H49210   7.054  10.122   2.527 -0.6013  0.3947 -0.6888
  365MOL0     H49211   6.928  10.003   2.529  2.4049 -0.1422 -0.9808
  365MOL0     H49212   6.896  10.312   2.567 -1.7918  1.1384 -1.4698
  365MOL0     H49213   6.843  10.226   2.435 -0.8355 -0.2431  1.1005
  365MOL0     H49214   6.727  10.176   2.716  2.7527 -3.4271 -0.9856
  365MOL0     H49215   6.673  10.292   2.600 -2.7080 -1.8506  1.8505
  365MOL0     H49216   6.660  10.087   2.425 -0.9510  0.6088 -0.3200
  365MOL0     H49217   6.666   9.985   2.570 -0.8891  0.2266  0.3784
  365MOL0     H49218   6.459  10.080   2.661  0.7859  0.7589  0.4674
  365MOL0     H49219   6.453  10.209   2.553  2.7131  0.9988  1.9241
  365MOL0     H49220   6.415  10.047   2.361  0.1836  0.6460 -0.4735
  365MOL0     H49221   6.451   9.911   2.470 -0.7897  0.4532 -0.2047
  365MOL0     H49222   6.222   9.962   2.580  2.1869 -1.5321  0.2103
  365MOL0     H49223   6.226  10.122   2.507  0.1678 -0.1413 -0.5302
  365MOL0     H49224   6.217   9.840   2.382  1.8579  0.0830  3.9752
  365MOL0     H49225   6.215   9.988   2.286 -3.3516 -0.3146 -0.9783
  365MOL0     H49226   5.974  10.148   2.403 -1.8910 -0.3012  2.3939
  365MOL0     H49227   5.712  10.157   2.432 -1.0027 -0.3128  1.4077
  365MOL0     H49228   5.697  10.091   2.267 -0.4357 -0.5259 -0.2550
  365MOL0     H49229   5.571  10.002   2.535  1.2420 -1.9978 -0.1568
  365MOL0     H49230   5.583   9.891   2.399  1.5249  0.6050 -3.2047
  365MOL0     H49231   5.455  10.059   2.258 -0.3207 -0.6266  0.1764
  365MOL0     H49232   5.413  10.161   2.391 -2.9021 -0.6881 -0.2878
  365MOL0     H49233   5.321   9.977   2.517  0.5388  2.1662 -0.4836
  365MOL0     H49234   5.341   9.869   2.375 -1.7069 -0.2329  0.7966
  365MOL0     H49235   5.152   9.795   2.417 -1.4308 -2.1820 -0.5024
  365MOL0     H49236   5.021   9.621   2.439  0.7073  1.2964  3.0773
  365MOL0     H49237   4.845   9.650   2.481 -0.6355 -0.6864 -1.2986
  365MOL0     H49238   4.904   9.610   2.314 -0.3641  2.7827 -1.0162
  365MOL0     H49239   4.578   9.990   2.133  0.7363 -0.3887  1.0110
  365MOL0     H49240   4.357  10.037   2.003 -0.9601 -2.1547  0.4203
  365MOL0     H49241   4.191  10.221   2.048  0.9280 -1.7924  0.6403
  365MOL0     H49242   4.158  10.094   1.926 -0.8612  0.1267 -0.7269
  365MOL0     H49243   3.932  10.242   2.089  0.5424 -2.0093  0.6324
  365MOL0     H49244   3.981  10.290   1.922 -1.8794 -0.5896 -0.7704
  365MOL0     H49245   3.861  10.032   2.021  0.9700 -0.1324 -0.3717
  365MOL0     H49246   3.897  10.064   1.853 -1.3371 -1.8827  0.2093
  365MOL0     H49247   3.726  10.252   1.869 -1.1492  1.4404  1.8330
  365MOL0     H49248   3.690  10.082   1.870  3.0346 -1.4200 -0.5936
  365MOL0     H49249   3.681  10.270   2.108 -0.3705 -1.2336  1.6040
  365MOL0     H49250   3.655  10.095   2.110 -2.9430 -0.5164 -1.2348
  365MOL0     H49251   3.507  10.276   1.922 -2.6319 -0.7121  0.1348
  365MOL0     H49252   3.467  10.108   1.959 -0.3326 -0.7009  0.4809
  365MOL0     H49253   3.300  10.237   2.043  0.1726  0.4382 -0.5592
  365MOL0     H49254   3.413  10.357   2.112 -0.2789  0.4226  0.0400
  365MOL0     H49255   3.474  10.180   2.284 -0.2176  0.5113  1.2629
  365MOL0     H49256   3.381  10.053   2.196  3.0315  0.0919 -1.6940
  365MOL0     H49257   4.146   9.976   2.355  0.9940 -0.7787  0.1254
  365MOL0     H49258   4.372   9.914   2.481  0.8665  0.5200 -0.3340
  365MOL0     H49259   4.773  10.083   2.298 -0.1281 -0.4011 -0.8604
  365MOL0     H49260   4.995  10.168   2.314  3.0481  0.4414  1.4674
  365MOL0     H49261   6.962  10.340   2.752 -1.1955 -3.9035 -3.2208
  365MOL0     H49262   7.124  10.493   2.843 -0.6145  0.1873 -3.9992
  365MOL0     H49263   7.534  10.759   2.879 -0.0385 -0.0482  0.1209
  365MOL0     H49264   7.679  10.872   3.018 -1.0799 -0.0573 -1.0709
  365MOL0     H49265   7.775  10.964   3.172  0.9105 -0.0264 -1.5868
  365MOL0     H49266   7.760  10.994   3.352  0.0435 -0.9116  0.0249
  365MOL0     H49267   7.983  10.885   3.192 -2.8419  0.3268 -1.7293
  365MOL0     H49268   7.967  10.811   3.350 -0.5628 -1.0826 -0.8461
  365MOL0     H49269   7.965  11.098   3.391  1.5434 -0.8049  1.6964
  365MOL0     H49270   8.087  11.060   3.266  1.9505  1.9694  1.4975
  365MOL0     H49271   8.077  10.902   3.515  0.9210 -1.3816 -1.1346
  365MOL0     H49272   8.133  11.077   3.517 -3.2430  1.7325 -2.6050
  365MOL0     H49273   8.452  10.912   3.298  0.4968 -1.0838 -0.7165
  365MOL0     H49274   7.551  10.601   3.340  0.0047  1.2449 -0.1024
  365MOL0     H49275   7.417  10.489   3.192 -1.4726  1.2293  1.1870
  366MOL0     O49276   7.695   2.926   1.830 -0.4528  0.2987  0.6096
  366MOL0     C49277   7.787   2.931   1.745  0.1339  1.3131  0.0500
  366MOL0     O49278   7.770   2.969   1.611  0.4565  0.4754  0.8277
  366MOL0     C49279   7.645   2.979   1.559 -0.8333  0.8383 -0.2693
  366MOL0     C49280   7.533   2.889   1.585 -0.5197 -0.3042  0.2314
  366MOL0     C49281   7.414   2.906   1.521  0.0366 -0.1237 -0.7331
  366MOL0     C49282   7.397   3.010   1.426 -0.1484 -0.0270  0.3279
  366MOL0     O49283   7.282   3.014   1.342 -0.1802  0.0097 -0.7057
  366MOL0     C49284   7.199   2.895   1.311 -0.4641  0.1821 -0.3596
  366MOL0     C49285   7.082   2.942   1.230  0.0357  0.7471 -0.1293
  366MOL0     C49286   6.968   2.846   1.204  0.1767  0.2419 -0.5107
  366MOL0     C49287   6.861   2.891   1.104 -0.4298 -0.2175 -0.6181
  366MOL0     C49288   6.737   2.802   1.098  0.2459  0.0542 -0.7180
  366MOL0     C49289   6.643   2.859   0.991 -0.5467  0.5874 -0.1907
  366MOL0     C49290   6.500   2.797   1.005 -0.0362  0.0357 -0.1834
  366MOL0     C49291   6.409   2.856   0.900 -0.1149 -0.4457  0.2832
  366MOL0     N49292   6.267   2.832   0.922 -0.1364 -0.2315 -1.4132
  366MOL0     C49293   6.192   2.876   1.025 -0.3005  0.0842  0.8898
  366MOL0     C49294   6.066   2.839   0.996  0.1050  0.1214  0.1569
  366MOL0     C49295   5.954   2.877   1.094 -0.2996 -0.3301 -0.4564
  366MOL0     C49296   5.816   2.842   1.032 -0.0630  0.8609  0.6307
  366MOL0     C49297   5.769   2.939   0.921  0.5101 -0.0596 -0.6270
  366MOL0     C49298   5.677   2.865   0.820 -0.3970 -0.4079 -0.7575
  366MOL0     O49299   5.568   2.799   0.886 -1.1118 -0.1418  0.5937
  366MOL0     C49300   5.465   2.755   0.804  0.1015  0.6999  0.2499
  366MOL0     C49301   5.491   2.667   0.703 -0.6403  0.2820  0.2520
  366MOL0     C49302   5.393   2.606   0.627 -0.1799  0.3415  0.7632
  366MOL0     C49303   5.438   2.531   0.507  0.7303 -0.2350 -0.1094
  366MOL0     C49304   5.256   2.632   0.662 -0.2432  1.0120 -0.1579
  366MOL0     C49305   5.138   2.563   0.610  0.0832  0.3092  0.7152
  366MOL0     O49306   5.136   2.512   0.483  0.3965 -0.2545  0.7138
  366MOL0     C49307   5.007   2.455   0.461 -0.6729 -0.0231  0.4163
  366MOL0     C49308   4.918   2.517   0.370  0.0708  0.4470  0.7452
  366MOL0     C49309   4.796   2.459   0.331  0.4757 -0.2048  0.6297
  366MOL0     C49310   4.761   2.326   0.374 -0.6247 -1.2133 -0.1661
  366MOL0     O49311   4.646   2.262   0.325  0.1258 -0.0988  0.4224
  366MOL0     C49312   4.561   2.186   0.414 -0.5309 -0.1784 -0.7477
  366MOL0     C49313   4.457   2.123   0.330 -0.6817 -0.2266 -0.3830
  366MOL0     C49314   4.329   2.080   0.405 -0.1384 -0.1068 -0.8590
  366MOL0     C49315   4.369   1.983   0.514 -0.9300  0.8090  0.0511
  366MOL0     C49316   4.241   1.931   0.593 -0.2967  0.4863  0.4077
  366MOL0     C49317   4.270   1.861   0.724  0.2241  0.3707 -0.5473
  366MOL0     C49318   4.325   1.709   0.720  0.2492 -0.8245  0.0907
  366MOL0     C49319   4.386   1.674   0.844  0.5107  0.0518  0.9428
  366MOL0    Cl49320   4.282   1.685   0.985  0.0459 -0.0101 -0.5544
  366MOL0     C49321   4.850   2.267   0.469  0.6247 -0.5731  0.4636
  366MOL0     C49322   4.972   2.329   0.506  0.0859  0.0858  0.2939
  366MOL0     O49323   5.043   2.560   0.684 -0.1330  0.0277 -0.1858
  366MOL0     C49324   5.235   2.718   0.771  0.4961 -0.8526  0.0603
  366MOL0     C49325   5.337   2.774   0.845  1.0370 -0.0273  0.1798
  366MOL0     N49326   6.072   2.761   0.882 -0.6305  0.5058 -0.0755
  366MOL0     N49327   6.189   2.745   0.848  0.0165 -0.0587  0.1466
  366MOL0     C49328   7.499   3.111   1.410  0.1795 -0.6322  0.6236
  366MOL0     C49329   7.619   3.089   1.476  0.6368 -0.3623 -0.0493
  366MOL0     C49330   7.929   2.909   1.785 -0.0155  0.6761  1.7269
  366MOL0     C49331   8.023   2.865   1.690  0.2740  0.1940 -0.2709
  366MOL0     C49332   8.153   2.837   1.729 -0.2097 -0.4028  0.4106
  366MOL0     C49333   8.196   2.869   1.862  0.7326  0.0654  0.3303
  366MOL0     O49334   8.328   2.857   1.900 -0.1698 -0.2185 -0.2379
  366MOL0     C49335   8.427   2.837   1.808  0.0681 -0.2701  0.1329
  366MOL0     C49336   8.569   2.829   1.882 -0.6493  0.3370  0.0989
  366MOL0     C49337   8.591   2.950   1.971 -0.1417 -0.4966  0.2495
  366MOL0     C49338   8.729   2.951   2.031  0.2536  0.6343 -0.1981
  366MOL0     C49339   8.753   3.083   2.098  0.6920  0.0500 -0.3360
  366MOL0     C49340   8.761   3.198   2.149 -0.1802 -0.0478  0.1059
  366MOL0     C49341   8.104   2.910   1.959 -0.3349  0.3197 -0.6108
  366MOL0     C49342   7.969   2.921   1.918  0.2345 -0.0878  0.1562
  366MOL0     H49343   7.518   2.808   1.656  0.0512 -1.6405 -1.1310
  366MOL0     H49344   7.332   2.842   1.553  0.9877 -0.3460  1.4224
  366MOL0     H49345   7.268   2.828   1.259  0.0321  0.7950 -0.5164
  366MOL0     H49346   7.166   2.842   1.400  2.6994 -0.1034  0.7882
  366MOL0     H49347   7.046   3.018   1.301 -1.3213  0.7384 -0.7837
  366MOL0     H49348   7.121   2.984   1.137  0.8362  2.3323  0.8815
  366MOL0     H49349   7.002   2.748   1.169 -0.0273  0.5140 -1.4914
  366MOL0     H49350   6.919   2.827   1.300 -0.9069 -0.5985 -1.2159
  366MOL0     H49351   6.821   2.983   1.146  0.1122 -0.8557  1.4338
  366MOL0     H49352   6.905   2.912   1.006  1.2552 -0.3332  0.0864
  366MOL0     H49353   6.760   2.699   1.073  2.5057  0.6536 -1.3767
  366MOL0     H49354   6.690   2.799   1.197  0.0679 -0.0571 -0.8066
  366MOL0     H49355   6.635   2.967   1.001 -0.3126  0.4284  2.6158
  366MOL0     H49356   6.683   2.825   0.895  2.0159  1.0664  0.6273
  366MOL0     H49357   6.488   2.689   1.016 -4.9763  0.3283 -0.2591
  366MOL0     H49358   6.475   2.829   1.107  0.4428  3.0360 -0.9140
  366MOL0     H49359   6.443   2.812   0.805 -3.1122 -0.4043 -0.9092
  366MOL0     H49360   6.422   2.965   0.896  1.5636 -0.4920  2.4980
  366MOL0     H49361   6.221   2.940   1.108  0.1781  1.6516 -0.4110
  366MOL0     H49362   5.970   2.827   1.190 -3.0581 -0.4605  0.0155
  366MOL0     H49363   5.956   2.983   1.118 -0.2720 -0.0243 -1.7350
  366MOL0     H49364   5.741   2.839   1.111 -0.4194  1.0656  0.3068
  366MOL0     H49365   5.811   2.740   0.992  0.3741  0.9814  0.2564
  366MOL0     H49366   5.849   2.991   0.868  0.7807 -0.0882 -0.2529
  366MOL0     H49367   5.712   3.017   0.972 -0.4497 -0.1016 -1.6135
  366MOL0     H49368   5.740   2.789   0.773  0.9875  0.2127  0.0055
  366MOL0     H49369   5.642   2.939   0.747  2.4882  0.5974 -1.2521
  366MOL0     H49370   5.592   2.651   0.667 -0.3763 -0.3539  1.2600
  366MOL0     H49371   5.547   2.538   0.503  0.6572  2.3357  0.6530
  366MOL0     H49372   5.399   2.429   0.512  0.1239  0.0191  0.6242
  366MOL0     H49373   5.402   2.557   0.407  0.0580 -2.2215 -0.4348
  366MOL0     H49374   4.947   2.614   0.331  3.0930 -1.3748 -2.0368
  366MOL0     H49375   4.725   2.505   0.263  0.0489 -0.9517  0.5675
  366MOL0     H49376   4.621   2.125   0.483  2.0738 -0.1707 -2.8307
  366MOL0     H49377   4.498   2.249   0.477 -0.1169 -0.6465  0.1512
  366MOL0     H49378   4.444   2.190   0.245  0.8223  0.0479 -0.4209
  366MOL0     H49379   4.514   2.038   0.291  0.0055  0.3229 -0.5951
  366MOL0     H49380   4.267   2.022   0.336  0.2764 -1.0184 -0.4864
  366MOL0     H49381   4.275   2.163   0.451 -1.6106 -0.7443 -1.3551
  366MOL0     H49382   4.412   1.901   0.455  1.6671  2.2098 -0.1361
  366MOL0     H49383   4.448   2.015   0.583 -0.8039  0.7214 -0.0522
  366MOL0     H49384   4.185   1.870   0.522  2.6984  1.4290 -3.0752
  366MOL0     H49385   4.171   2.013   0.614 -1.4521 -0.6268  1.0492
  366MOL0     H49386   4.330   1.930   0.785 -1.9554  1.2432  0.7176
  366MOL0     H49387   4.184   1.851   0.791  0.6384  0.1114 -0.0548
  366MOL0     H49388   4.402   1.699   0.643  0.5995 -0.2990  0.3681
  366MOL0     H49389   4.244   1.641   0.693  2.0038 -3.4495  1.0464
  366MOL0     H49390   4.464   1.750   0.849 -0.4359  1.3335 -1.5923
  366MOL0     H49391   4.421   1.571   0.835  1.7237  0.4878  0.5548
  366MOL0     H49392   4.813   2.176   0.516  0.3194 -0.7955 -0.1966
  366MOL0     H49393   5.046   2.277   0.567  0.9119  0.4435 -0.3786
  366MOL0     H49394   5.136   2.748   0.803  1.0165  0.0863  0.8308
  366MOL0     H49395   5.319   2.816   0.943  2.3209 -1.4026  1.0503
  366MOL0     H49396   7.479   3.199   1.349  0.3582 -1.5002 -0.7398
  366MOL0     H49397   7.699   3.163   1.467 -0.6755  1.7105  3.3250
  366MOL0     H49398   7.987   2.851   1.588 -0.9871  0.7193  0.0918
  366MOL0     H49399   8.212   2.784   1.655  2.0551  0.7760  1.2979
  366MOL0     H49400   8.408   2.745   1.752  0.8891  0.1561 -0.8835
  366MOL0     H49401   8.428   2.919   1.736 -1.2593 -1.6720 -1.5706
  366MOL0     H49402   8.647   2.829   1.806 -0.1719  0.8240  0.5807
  366MOL0     H49403   8.580   2.735   1.936 -0.0244 -0.6488 -1.6547
  366MOL0     H49404   8.521   2.954   2.056 -1.6368  0.7123 -0.9655
  366MOL0     H49405   8.574   3.036   1.906  0.9543  1.5452  2.4936
  366MOL0     H49406   8.814   2.930   1.965  1.1896  0.3111  1.0773
  366MOL0     H49407   8.724   2.874   2.109  0.0891 -0.8397 -1.6020
  366MOL0     H49408   8.775   3.300   2.176 -0.3906  1.9320 -5.9314
  366MOL0     H49409   8.130   2.924   2.064 -2.3465 -2.1659  0.3407
  366MOL0     H49410   7.901   2.946   1.998 -4.1682 -1.6897 -2.7183
  367MOL0     O49411   3.934   8.778  10.591  0.7319  0.4316  0.2696
  367MOL0     C49412   3.939   8.782  10.716 -0.1384 -0.5695  0.7382
  367MOL0     O49413   3.831   8.762  10.800 -0.2630  0.0029 -0.6541
  367MOL0     C49414   3.708   8.792  10.750 -0.3427  0.1186  0.1262
  367MOL0     C49415   3.627   8.887  10.817 -0.2162  0.1254 -0.0263
  367MOL0     C49416   3.503   8.925  10.776 -0.1357 -0.4516 -0.5068
  367MOL0     C49417   3.446   8.865  10.663 -0.1018  0.3608 -0.2717
  367MOL0     O49418   3.324   8.888  10.614 -0.5736  0.7388 -0.0986
  367MOL0     C49419   3.245   8.997  10.661  0.0523 -0.0602 -0.7131
  367MOL0     C49420   3.138   9.017  10.553 -0.1410  0.2204 -0.3431
  367MOL0     C49421   3.031   9.114  10.602 -0.1937 -0.5148  0.1851
  367MOL0     C49422   2.912   9.101  10.505  0.3705  0.4215 -0.4547
  367MOL0     C49423   2.809   9.216  10.519 -0.3610 -0.4688 -0.4727
  367MOL0     C49424   2.684   9.210  10.434  0.1370 -0.2218 -0.2548
  367MOL0     C49425   2.717   9.166  10.287 -0.2709 -0.5343 -0.1253
  367MOL0     C49426   2.581   9.114  10.223 -0.0273  1.2382  0.0765
  367MOL0     N49427   2.492   9.212  10.161 -0.2759  0.5427  0.0587
  367MOL0     C49428   2.528   9.322  10.087  0.2407 -0.1687  0.4081
  367MOL0     C49429   2.411   9.389  10.065  0.0517  0.3446  0.4595
  367MOL0     C49430   2.398   9.507   9.977 -0.2813  0.1230 -0.7328
  367MOL0     C49431   2.278   9.494   9.877 -0.0628 -0.1443  0.0250
  367MOL0     C49432   2.289   9.396   9.756  0.1680  0.1997 -0.4078
  367MOL0     C49433   2.148   9.379   9.697  1.4876 -0.0521  0.2175
  367MOL0     O49434   2.055   9.306   9.786 -0.0545 -1.3637  0.1545
  367MOL0     C49435   1.928   9.305   9.739  0.4924 -0.5075 -0.3041
  367MOL0     C49436   1.873   9.376   9.634 -0.2845 -0.5363 -0.2217
  367MOL0     C49437   1.746   9.348   9.589 -0.1252 -0.6136  0.6638
  367MOL0     C49438   1.727   9.394   9.446  0.3762 -0.4943  0.1132
  367MOL0     C49439   1.655   9.266   9.666 -0.6618  0.7878  0.1081
  367MOL0     C49440   1.517   9.238   9.630  0.0224 -0.4257 -0.0731
  367MOL0     O49441   1.448   9.162   9.719  0.9332  0.2495  0.5933
  367MOL0     C49442   1.372   9.062   9.663  0.8294  0.4707 -0.8047
  367MOL0     C49443   1.235   9.075   9.638 -0.1507 -0.1063 -0.0570
  367MOL0     C49444   1.166   8.975   9.571  0.5269  0.1276  0.0227
  367MOL0     C49445   1.229   8.856   9.541 -0.5623  0.9087  0.1214
  367MOL0     O49446   1.152   8.756   9.480  0.1087 -0.4528  0.2994
  367MOL0     C49447   1.207   8.643   9.418 -0.1861 -0.0278 -0.2979
  367MOL0     C49448   1.091   8.556   9.362 -0.0806 -0.5949 -0.2382
  367MOL0     C49449   0.995   8.638   9.261 -0.3590 -0.1369  0.0249
  367MOL0     C49450   0.945   8.553   9.142  0.0380  0.1069  0.0184
  367MOL0     C49451   0.880   8.641   9.035  0.9257 -0.8742 -0.5004
  367MOL0     C49452   0.751   8.704   9.086 -0.0513  0.0159  0.4028
  367MOL0     C49453   0.647   8.740   8.988 -0.1381 -0.0988 -0.5186
  367MOL0     C49454   0.587   8.621   8.905 -0.7041 -0.2380 -0.1487
  367MOL0    Cl49455   0.457   8.679   8.794  0.2556  0.1166 -0.3746
  367MOL0     C49456   1.367   8.840   9.572 -0.0345 -0.1521 -0.8605
  367MOL0     C49457   1.433   8.944   9.629  0.4066 -0.2039 -0.7315
  367MOL0     O49458   1.477   9.274   9.520 -0.5675  0.5582 -0.6258
  367MOL0     C49459   1.712   9.202   9.773  0.5595  0.2615 -0.4755
  367MOL0     C49460   1.848   9.217   9.808 -0.3594 -0.8992 -0.4048
  367MOL0     N49461   2.304   9.322  10.127 -0.4375  0.6005  0.2308
  367MOL0     N49462   2.358   9.220  10.187 -0.7409  0.4122  0.5040
  367MOL0     C49463   3.528   8.767  10.600  0.0362 -0.7539  0.0539
  367MOL0     C49464   3.651   8.723  10.642 -0.2294  0.0195 -0.1790
  367MOL0     C49465   4.073   8.807  10.793 -0.5171 -0.5218 -0.3203
  367MOL0     C49466   4.199   8.804  10.722  0.0938  0.1247  0.2983
  367MOL0     C49467   4.319   8.843  10.782  0.3945 -0.0942 -0.1013
  367MOL0     C49468   4.325   8.876  10.921 -0.0574  0.0041 -0.6451
  367MOL0     O49469   4.434   8.897  10.996  0.0622 -0.8801 -0.5540
  367MOL0     C49470   4.557   8.850  10.953 -0.0720  0.2648 -0.4777
  367MOL0     C49471   4.563   8.699  10.976 -0.1582  0.1302  0.5062
  367MOL0     C49472   4.514   8.643  11.114 -0.1472 -0.1985 -0.1930
  367MOL0     C49473   4.476   8.495  11.110  0.4244 -0.5655 -0.0799
  367MOL0     C49474   4.479   8.447  11.245 -0.1650  0.2482  0.4883
  367MOL0     C49475   4.481   8.419  11.363 -0.6202  0.1717 -0.8844
  367MOL0     C49476   4.207   8.880  10.992 -0.1861  0.2015  0.3076
  367MOL0     C49477   4.087   8.844  10.935  0.8284 -0.1412 -0.3381
  367MOL0     H49478   3.671   8.953  10.891 -0.2439  1.0019 -0.7709
  367MOL0     H49479   3.458   9.006  10.832  2.2144  2.0058 -1.9206
  367MOL0     H49480   3.197   8.968  10.755  1.7844  0.5904  0.4168
  367MOL0     H49481   3.309   9.085  10.671 -2.1577  1.4649  1.2690
  367MOL0     H49482   3.182   9.060  10.463 -3.0821  2.6370 -0.8231
  367MOL0     H49483   3.094   8.922  10.523 -0.3177  0.6593 -1.5126
  367MOL0     H49484   2.999   9.099  10.706 -2.7430  1.7076 -0.1778
  367MOL0     H49485   3.083   9.210  10.598 -1.4263  0.1643  0.1060
  367MOL0     H49486   2.943   9.100  10.400 -1.5275  0.3905 -1.0406
  367MOL0     H49487   2.855   9.009  10.522  2.2343 -1.1675 -2.2727
  367MOL0     H49488   2.782   9.228  10.624 -3.3091  2.1190 -1.3832
  367MOL0     H49489   2.869   9.299  10.480  0.5939 -1.9440 -2.3497
  367MOL0     H49490   2.602   9.156  10.481  0.9325 -2.0144 -0.8282
  367MOL0     H49491   2.652   9.314  10.438 -4.3348 -1.4551  2.8515
  367MOL0     H49492   2.769   9.245  10.231  0.4791  0.4005  1.7756
  367MOL0     H49493   2.779   9.076  10.286  1.4770  0.5467  1.9558
  367MOL0     H49494   2.522   9.051  10.290  0.4679 -0.9795 -1.4550
  367MOL0     H49495   2.616   9.045  10.146  1.3307  2.7911 -0.7597
  367MOL0     H49496   2.629   9.334  10.049  0.9131 -1.3253  1.7052
  367MOL0     H49497   2.385   9.599  10.036  1.4982  1.3459 -2.1278
  367MOL0     H49498   2.496   9.508   9.929  1.6691 -3.6312  2.5967
  367MOL0     H49499   2.263   9.587   9.823  0.0273 -0.0523  0.1589
  367MOL0     H49500   2.185   9.475   9.932  0.6470  2.0815  2.1629
  367MOL0     H49501   2.325   9.299   9.791 -1.0611  0.8737  3.0300
  367MOL0     H49502   2.343   9.444   9.673 -3.0454  2.3668 -1.4217
  367MOL0     H49503   2.165   9.308   9.616  1.2319 -1.8584  1.6842
  367MOL0     H49504   2.112   9.475   9.657  0.8382 -0.2046  0.4138
  367MOL0     H49505   1.935   9.452   9.587  0.7078 -1.0047  0.3000
  367MOL0     H49506   1.664   9.483   9.441  0.8559 -0.1980 -1.1035
  367MOL0     H49507   1.821   9.426   9.398  0.5722 -1.1239  0.0646
  367MOL0     H49508   1.687   9.310   9.387  0.9533  0.2531 -1.4175
  367MOL0     H49509   1.183   9.166   9.663  1.2809  0.9060 -0.5959
  367MOL0     H49510   1.065   8.987   9.533  1.1159 -1.1948 -2.2004
  367MOL0     H49511   1.277   8.667   9.337 -0.0716 -1.0603 -0.5202
  367MOL0     H49512   1.267   8.578   9.483  1.1180  1.4078 -0.0168
  367MOL0     H49513   1.129   8.464   9.316 -2.1295 -1.3105 -0.5886
  367MOL0     H49514   1.039   8.527   9.453  0.7290  0.9650  0.7704
  367MOL0     H49515   1.060   8.713   9.215  1.3142 -2.6616 -2.0269
  367MOL0     H49516   0.907   8.676   9.314 -0.1174 -0.4015  0.6240
  367MOL0     H49517   1.029   8.508   9.089 -0.0745  0.7692 -0.7218
  367MOL0     H49518   0.875   8.474   9.173  0.3295  0.1589  0.8313
  367MOL0     H49519   0.844   8.570   8.960  0.8806  0.1952 -1.5174
  367MOL0     H49520   0.949   8.715   8.995 -0.7578  1.0981  0.0492
  367MOL0     H49521   0.701   8.635   9.156 -1.8470 -0.1712 -1.0142
  367MOL0     H49522   0.785   8.796   9.134 -1.2124  0.6462  0.0312
  367MOL0     H49523   0.684   8.819   8.922 -1.4817 -0.4128 -1.7142
  367MOL0     H49524   0.556   8.777   9.036  0.2260 -2.1485  2.0248
  367MOL0     H49525   0.553   8.542   8.973 -2.2301  1.0568  0.6622
  367MOL0     H49526   0.670   8.588   8.842  1.6161  3.5002  0.5922
  367MOL0     H49527   1.422   8.747   9.566  0.4213  0.1878 -2.9303
  367MOL0     H49528   1.540   8.955   9.649  0.6099  2.0927 -2.7365
  367MOL0     H49529   1.660   9.130   9.836  0.8516 -1.5172 -2.1669
  367MOL0     H49530   1.894   9.171   9.895 -2.0152  2.3559  2.4314
  367MOL0     H49531   3.485   8.718  10.513  0.5164 -0.5336 -0.3103
  367MOL0     H49532   3.701   8.651  10.579 -0.7844  0.1092 -0.7359
  367MOL0     H49533   4.205   8.771  10.619  2.2801  0.6307  0.2026
  367MOL0     H49534   4.412   8.833  10.728  0.4330  1.9571 -0.4950
  367MOL0     H49535   4.580   8.874  10.849  0.1385 -0.8747 -0.7133
  367MOL0     H49536   4.632   8.898  11.017 -0.9812  0.7435  0.2556
  367MOL0     H49537   4.666   8.661  10.970  0.2884  1.0191  2.1064
  367MOL0     H49538   4.511   8.655  10.891  2.7703 -3.4461  0.3113
  367MOL0     H49539   4.416   8.689  11.123 -0.3577 -0.5447 -0.6737
  367MOL0     H49540   4.569   8.673  11.204 -0.6676  3.3590 -0.9044
  367MOL0     H49541   4.554   8.453  11.046  1.7094  2.1562 -0.4314
  367MOL0     H49542   4.379   8.488  11.059  0.5395 -0.7270 -0.2811
  367MOL0     H49543   4.486   8.378  11.462 -1.9911  0.3764 -0.7187
  367MOL0     H49544   4.208   8.907  11.097 -1.8444  1.7258 -0.0207
  367MOL0     H49545   4.009   8.833  11.010  2.8702 -0.0070  1.9116
  368MOL0     O49546   8.019   6.365  10.441 -0.1902  0.3765 -0.1888
  368MOL0     C49547   8.093   6.417  10.518 -0.0144  0.2751 -1.2462
  368MOL0     O49548   8.055   6.507  10.612  0.4043  0.2086 -0.3320
  368MOL0     C49549   7.918   6.504  10.643  0.0646 -0.2822  0.6277
  368MOL0     C49550   7.828   6.571  10.554  0.0090  1.0045  0.6212
  368MOL0     C49551   7.690   6.552  10.557 -0.4617  1.0131  0.7426
  368MOL0     C49552   7.640   6.479  10.662 -0.4706  0.2718 -0.7757
  368MOL0     O49553   7.500   6.460  10.668  0.1411 -0.3848  0.2191
  368MOL0     C49554   7.446   6.340  10.735  0.3153  0.0688 -0.2138
  368MOL0     C49555   7.303   6.328  10.694 -0.0722  0.1930  0.2694
  368MOL0     C49556   7.249   6.183  10.724 -0.7247  0.2213  0.5507
  368MOL0     C49557   7.298   6.074  10.615  0.6281 -1.6351  0.2035
  368MOL0     C49558   7.224   5.940  10.635 -0.5465  0.5247  0.2539
  368MOL0     C49559   7.293   5.834  10.556  1.0678  0.0641  0.2634
  368MOL0     C49560   7.225   5.699  10.582 -0.7630 -0.6419  0.5531
  368MOL0     C49561   7.300   5.596  10.500 -0.5355 -0.3455  0.4279
  368MOL0     N49562   7.290   5.621  10.352 -0.2647 -0.1470  0.5391
  368MOL0     C49563   7.180   5.624  10.275 -0.0774  0.2591 -1.1165
  368MOL0     C49564   7.220   5.673  10.152 -0.1492  0.3217 -0.4356
  368MOL0     C49565   7.168   5.675  10.016 -0.8915 -0.6545  0.1566
  368MOL0     C49566   7.030   5.752  10.004  1.1430 -1.1778  0.7968
  368MOL0     C49567   6.917   5.653   9.998 -0.1476 -0.5600  0.1810
  368MOL0     C49568   6.798   5.732   9.965  0.6638 -0.1964  0.8099
  368MOL0     O49569   6.689   5.638   9.989 -0.3682  0.4624 -0.1892
  368MOL0     C49570   6.560   5.680   9.998  0.3708 -0.3398  0.8784
  368MOL0     C49571   6.508   5.794   9.928  0.2235  0.3668  0.0791
  368MOL0     C49572   6.364   5.831   9.929  0.6877  0.5187  0.9898
  368MOL0     C49573   6.307   5.960   9.866 -0.3748  0.0452  0.1681
  368MOL0     C49574   6.276   5.752  10.004 -0.2611  0.5339  0.0101
  368MOL0     C49575   6.130   5.768  10.041 -0.0969 -0.1752 -0.3465
  368MOL0     O49576   6.074   5.661  10.102 -0.3762 -0.0108  0.1092
  368MOL0     C49577   5.938   5.639  10.103 -0.5081 -0.8892  0.5661
  368MOL0     C49578   5.846   5.682   9.998 -0.2438  0.9468 -0.2262
  368MOL0     C49579   5.718   5.627   9.987  0.2983 -0.4960 -0.0216
  368MOL0     C49580   5.673   5.530  10.076 -0.5760 -0.8654 -0.9775
  368MOL0     O49581   5.554   5.472  10.054  0.5712  0.1686  0.4349
  368MOL0     C49582   5.484   5.401  10.158 -0.1377 -0.3376 -0.4901
  368MOL0     C49583   5.357   5.350  10.109  0.0255  1.1602  0.0363
  368MOL0     C49584   5.289   5.272  10.220 -0.9150  0.1275 -0.3631
  368MOL0     C49585   5.157   5.210  10.181 -0.1466 -1.0569  0.5165
  368MOL0     C49586   5.171   5.083  10.093  0.6473 -0.1030  0.5843
  368MOL0     C49587   5.030   5.023  10.067 -0.6934 -1.1343 -0.2532
  368MOL0     C49588   5.046   4.890   9.991  0.3124 -0.1282 -0.1421
  368MOL0     C49589   4.906   4.832   9.951  0.8471 -0.2449  0.4959
  368MOL0    Cl49590   4.915   4.673   9.843  0.0592 -0.4266  0.2199
  368MOL0     C49591   5.754   5.501  10.189  0.6968 -0.3995 -0.3665
  368MOL0     C49592   5.888   5.549  10.201  0.8696  0.1009  0.3230
  368MOL0     O49593   6.065   5.869  10.017  0.1260 -0.8639 -0.8709
  368MOL0     C49594   6.335   5.631  10.058  0.7645  0.2980 -0.8292
  368MOL0     C49595   6.467   5.600  10.057 -0.0083  0.5453 -0.1358
  368MOL0     N49596   7.351   5.703  10.164 -0.0201 -0.2857 -0.6468
  368MOL0     N49597   7.388   5.663  10.274 -0.1429  0.7558 -0.2822
  368MOL0     C49598   7.726   6.406  10.749 -0.4050 -0.2490 -0.3549
  368MOL0     C49599   7.867   6.424  10.746  0.3045 -0.1375  0.0744
  368MOL0     C49600   8.239   6.391  10.493 -0.1274 -0.7352 -0.0308
  368MOL0     C49601   8.348   6.453  10.562  1.2217 -0.5611  0.2388
  368MOL0     C49602   8.483   6.425  10.535 -0.5941  0.0785 -0.4592
  368MOL0     C49603   8.515   6.335  10.431  0.1489 -0.2240 -1.1929
  368MOL0     O49604   8.640   6.302  10.388 -0.0384 -0.1255 -0.0264
  368MOL0     C49605   8.754   6.375  10.433 -0.4866 -0.2944  0.0777
  368MOL0     C49606   8.802   6.336  10.575  0.5563 -0.4806  0.2860
  368MOL0     C49607   8.809   6.188  10.600  0.1093 -0.5047  0.1626
  368MOL0     C49608   8.926   6.144  10.684 -0.7634  0.1892  0.3927
  368MOL0     C49609   8.955   6.000  10.685 -0.8900  0.9762 -0.0732
  368MOL0     C49610   8.967   5.876  10.701 -0.4527 -1.5570 -0.2033
  368MOL0     C49611   8.411   6.270  10.364  1.1523 -0.5217 -0.1410
  368MOL0     C49612   8.275   6.306  10.389 -0.6530 -0.7171  0.5243
  368MOL0     H49613   7.866   6.628  10.470  0.1450  0.4309  0.2914
  368MOL0     H49614   7.632   6.594  10.475  2.1360 -0.8006 -2.2356
  368MOL0     H49615   7.513   6.260  10.701  0.1466  0.5956 -1.8802
  368MOL0     H49616   7.458   6.342  10.844  1.3095 -0.3909 -0.3010
  368MOL0     H49617   7.247   6.397  10.758 -1.4841  0.5598 -1.3059
  368MOL0     H49618   7.281   6.343  10.588 -1.5345 -2.1015  0.1892
  368MOL0     H49619   7.295   6.149  10.817  1.2201  1.9718  0.2949
  368MOL0     H49620   7.142   6.175  10.746 -0.5104  0.6662  1.8706
  368MOL0     H49621   7.280   6.111  10.513 -2.4173 -1.3263  0.7815
  368MOL0     H49622   7.401   6.048  10.640  0.9993  1.1927  2.0481
  368MOL0     H49623   7.235   5.907  10.739  0.5492 -0.8386 -0.2673
  368MOL0     H49624   7.124   5.968  10.601 -0.0373 -0.1216 -1.9395
  368MOL0     H49625   7.273   5.855  10.451 -0.5664  2.4488  0.9789
  368MOL0     H49626   7.402   5.831  10.566  1.2279 -1.1752 -1.4600
  368MOL0     H49627   7.242   5.671  10.687 -1.6923 -2.2803  0.3035
  368MOL0     H49628   7.116   5.708  10.572 -0.5821  3.1004  0.7813
  368MOL0     H49629   7.258   5.497  10.519  0.7511 -1.0135 -0.0722
  368MOL0     H49630   7.404   5.593  10.536  0.3900 -2.1621 -2.0754
  368MOL0     H49631   7.085   5.576  10.298  0.1568  0.4541  0.4039
  368MOL0     H49632   7.238   5.714   9.941 -0.5851 -0.6557  0.4384
  368MOL0     H49633   7.167   5.569   9.988  0.6612 -0.2535 -1.5865
  368MOL0     H49634   7.031   5.812   9.912 -0.3233 -2.2988 -0.0082
  368MOL0     H49635   7.003   5.820  10.085 -1.3579  0.3523 -1.1577
  368MOL0     H49636   6.904   5.599  10.092  0.8248 -2.7588 -0.8693
  368MOL0     H49637   6.947   5.579   9.923  1.8160  1.3545 -1.0350
  368MOL0     H49638   6.801   5.769   9.862  4.0978 -1.0094  0.4905
  368MOL0     H49639   6.782   5.817  10.032 -0.0294 -0.8153  1.4494
  368MOL0     H49640   6.567   5.875   9.886 -2.5862  1.3047 -2.4447
  368MOL0     H49641   6.365   6.002   9.784 -1.8533  2.5120  0.2858
  368MOL0     H49642   6.215   5.930   9.815  0.2639 -3.5737  0.8667
  368MOL0     H49643   6.291   6.034   9.946  0.6207 -1.1661  1.5452
  368MOL0     H49644   5.868   5.754   9.920 -2.4837  1.5007 -0.4161
  368MOL0     H49645   5.659   5.656   9.900  2.1437  1.8538 -0.5954
  368MOL0     H49646   5.538   5.313  10.191 -1.2916 -1.0654 -0.4911
  368MOL0     H49647   5.455   5.472  10.236  0.2208  1.4663 -1.9076
  368MOL0     H49648   5.292   5.427  10.066  1.2873  1.7431 -0.8963
  368MOL0     H49649   5.390   5.284  10.028  0.9939  1.1787  0.4037
  368MOL0     H49650   5.278   5.347  10.300  0.7998  1.8609 -1.6581
  368MOL0     H49651   5.340   5.188  10.267 -3.2989 -0.9836  0.4002
  368MOL0     H49652   5.100   5.192  10.273  1.9050  2.3547  2.6819
  368MOL0     H49653   5.094   5.276  10.121 -2.4620 -3.2911  0.3153
  368MOL0     H49654   5.229   5.011  10.151  1.7668 -0.8126 -1.3042
  368MOL0     H49655   5.208   5.100   9.991 -0.7270 -0.4178  0.0113
  368MOL0     H49656   4.973   5.022  10.161 -1.2933  1.9621 -0.4749
  368MOL0     H49657   4.981   5.093   9.999 -1.5715 -1.4820  0.0080
  368MOL0     H49658   5.096   4.813  10.050 -0.5964 -1.8325 -1.4897
  368MOL0     H49659   5.103   4.901   9.899 -0.0488  0.5295 -0.2934
  368MOL0     H49660   4.837   4.896   9.895  1.8806 -1.0163 -1.7920
  368MOL0     H49661   4.851   4.793  10.038  1.5071 -3.7256 -0.4864
  368MOL0     H49662   5.717   5.430  10.262  0.1447 -0.1665 -0.4113
  368MOL0     H49663   5.947   5.535  10.291 -2.3712  1.8163  2.9070
  368MOL0     H49664   6.274   5.549  10.095 -1.0330  2.4132  1.2187
  368MOL0     H49665   6.499   5.501  10.088 -1.5269 -0.8116 -2.5681
  368MOL0     H49666   7.690   6.338  10.826  1.5423 -1.4353 -0.4234
  368MOL0     H49667   7.937   6.375  10.813  0.1527  0.1466  0.4397
  368MOL0     H49668   8.333   6.530  10.637  4.0867  1.6910 -1.3197
  368MOL0     H49669   8.552   6.480  10.598 -1.2080 -1.1113  1.3395
  368MOL0     H49670   8.829   6.348  10.358 -1.5694  0.9968 -1.5348
  368MOL0     H49671   8.739   6.483  10.435  0.5965 -0.1047 -1.1559
  368MOL0     H49672   8.732   6.377  10.649 -0.3364 -0.8915 -0.3182
  368MOL0     H49673   8.898   6.382  10.600 -0.1332 -0.5514  3.6441
  368MOL0     H49674   8.828   6.147  10.501 -1.4226  2.0149 -1.2812
  368MOL0     H49675   8.715   6.151  10.642 -0.8504  1.7754  0.2170
  368MOL0     H49676   8.894   6.185  10.780 -1.4182  1.4700 -0.3453
  368MOL0     H49677   9.016   6.189  10.641  0.1026 -1.4914  0.3637
  368MOL0     H49678   8.972   5.770  10.713 -0.0104 -1.2517  3.0003
  368MOL0     H49679   8.431   6.213  10.274  1.3236 -0.1547 -0.3353
  368MOL0     H49680   8.201   6.258  10.326  0.9196 -1.7674 -0.5888
  369MOL0     O49681   9.673   8.808   3.829 -0.9534  0.0678 -0.2273
  369MOL0     C49682   9.712   8.924   3.820 -0.2099 -0.1948 -0.3049
  369MOL0     O49683   9.644   9.037   3.879 -0.4355 -0.2450  0.9182
  369MOL0     C49684   9.523   9.017   3.937  1.2482  0.3899  0.5225
  369MOL0     C49685   9.519   8.957   4.056  0.0194  0.6054 -0.4723
  369MOL0     C49686   9.401   8.943   4.129  0.4206 -0.1501  0.5495
  369MOL0     C49687   9.279   8.989   4.070  0.0557 -0.5832 -1.2859
  369MOL0     O49688   9.155   9.000   4.135  0.7375  0.0819  0.0585
  369MOL0     C49689   9.138   8.923   4.266 -0.6497 -0.0968  0.1918
  369MOL0     C49690   9.004   8.928   4.342 -0.8913 -0.5364  0.6623
  369MOL0     C49691   8.912   8.817   4.288 -0.5615  0.3621  0.3903
  369MOL0     C49692   8.766   8.803   4.347 -0.1787 -0.1069  0.0187
  369MOL0     C49693   8.700   8.672   4.299  0.5550 -0.6817  0.4954
  369MOL0     C49694   8.557   8.672   4.352  0.1536 -0.4949  0.6538
  369MOL0     C49695   8.473   8.545   4.314 -0.2947 -0.0218 -0.0034
  369MOL0     C49696   8.341   8.533   4.398  0.2955 -0.0151 -0.5287
  369MOL0     N49697   8.254   8.426   4.346 -0.2443  0.4820 -0.1621
  369MOL0     C49698   8.190   8.424   4.231  0.8798  0.8224  0.0944
  369MOL0     C49699   8.128   8.306   4.228  0.4207 -0.6587 -0.4468
  369MOL0     C49700   8.026   8.262   4.119 -0.4703  0.6587  0.3874
  369MOL0     C49701   7.882   8.284   4.162  0.0325  0.2416 -0.2503
  369MOL0     C49702   7.793   8.210   4.064  0.4365 -0.6291 -0.0362
  369MOL0     C49703   7.645   8.247   4.081  0.3995 -0.0271 -0.4623
  369MOL0     O49704   7.577   8.223   3.955 -0.3665 -0.1116  0.0648
  369MOL0     C49705   7.442   8.254   3.953  0.6534  0.5014  0.2209
  369MOL0     C49706   7.371   8.218   3.837  0.4664  0.0322  0.6402
  369MOL0     C49707   7.237   8.247   3.821  0.8212 -0.8155  0.2416
  369MOL0     C49708   7.162   8.189   3.698  0.8557  0.1491 -0.0586
  369MOL0     C49709   7.169   8.320   3.921 -1.1126 -0.4389 -0.4932
  369MOL0     C49710   7.024   8.348   3.916 -0.3659 -0.2830  0.0205
  369MOL0     O49711   6.981   8.468   3.867 -0.3690 -0.4597  0.1165
  369MOL0     C49712   6.851   8.488   3.837 -0.6800 -0.9338 -0.1610
  369MOL0     C49713   6.819   8.599   3.754 -0.9648  0.0828  0.2944
  369MOL0     C49714   6.692   8.645   3.733 -0.0408 -0.7130 -0.9437
  369MOL0     C49715   6.580   8.580   3.780  0.1785 -0.3157 -0.3324
  369MOL0     O49716   6.455   8.630   3.761  0.6760  0.0622 -0.0860
  369MOL0     C49717   6.343   8.538   3.780  0.4168 -0.2099 -0.9250
  369MOL0     C49718   6.209   8.611   3.734  0.0010 -0.7297 -0.4541
  369MOL0     C49719   6.184   8.732   3.822 -0.0885 -0.9456 -0.6781
  369MOL0     C49720   6.057   8.818   3.793  0.0300  0.6735  0.2159
  369MOL0     C49721   5.923   8.753   3.763  0.6411  0.5836  0.3356
  369MOL0     C49722   5.817   8.868   3.762 -0.0072 -0.4822 -0.7593
  369MOL0     C49723   5.685   8.820   3.703 -0.7262 -0.1199 -0.8816
  369MOL0     C49724   5.587   8.928   3.719  0.1858 -0.1884  0.0489
  369MOL0    Cl49725   5.428   8.858   3.701 -0.0290 -0.2987 -0.2740
  369MOL0     C49726   6.607   8.465   3.859  0.2999  0.5177  0.7230
  369MOL0     C49727   6.739   8.427   3.889  0.0584  0.4195 -0.7250
  369MOL0     O49728   6.956   8.254   3.958 -0.0137  0.6101  0.0392
  369MOL0     C49729   7.247   8.366   4.029  0.3301  0.8589 -0.3946
  369MOL0     C49730   7.380   8.338   4.046  0.4846  0.2669  0.1606
  369MOL0     N49731   8.176   8.227   4.329  0.5203  0.8403  0.0138
  369MOL0     N49732   8.253   8.303   4.402 -0.5095  0.2610 -0.0577
  369MOL0     C49733   9.286   9.047   3.944 -0.2028  0.6362 -0.5400
  369MOL0     C49734   9.407   9.066   3.872  0.0512  0.3941 -0.6610
  369MOL0     C49735   9.835   8.953   3.742  1.3303  0.6274  0.2762
  369MOL0     C49736   9.883   8.862   3.653 -0.4474 -0.1668  0.8563
  369MOL0     C49737   9.995   8.895   3.572  0.1628 -0.6184 -0.0919
  369MOL0     C49738  10.057   9.022   3.587  0.1096 -0.0578  0.8756
  369MOL0     O49739  10.168   9.060   3.512  0.7902  0.2166 -0.3056
  369MOL0     C49740  10.194   8.984   3.393  0.4251 -0.6376 -0.9055
  369MOL0     C49741  10.277   9.073   3.293 -0.1654 -0.1282 -0.1624
  369MOL0     C49742  10.200   9.188   3.233 -0.2165 -0.5572  0.2685
  369MOL0     C49743  10.090   9.146   3.133  0.9240 -0.3137 -0.9787
  369MOL0     C49744  10.142   9.056   3.029  0.4893 -1.0867  0.1324
  369MOL0     C49745  10.174   8.980   2.941 -0.3157 -0.4715 -0.1655
  369MOL0     C49746  10.000   9.113   3.670  0.1026  0.6497 -0.0794
  369MOL0     C49747   9.895   9.081   3.757 -0.2373  0.1330 -0.0923
  369MOL0     H49748   9.607   8.921   4.108 -1.2373  0.0184  1.3456
  369MOL0     H49749   9.401   8.875   4.213 -2.7501 -1.4084 -0.3200
  369MOL0     H49750   9.151   8.820   4.232 -1.6455  0.6280 -2.7542
  369MOL0     H49751   9.219   8.957   4.331  1.0933  1.2221 -2.4752
  369MOL0     H49752   9.022   8.913   4.449  2.2588  2.1334  0.6793
  369MOL0     H49753   8.960   9.027   4.325  3.1743  1.4336  0.2198
  369MOL0     H49754   8.895   8.838   4.182 -0.4981  1.3800  0.5705
  369MOL0     H49755   8.962   8.724   4.313 -0.4024  1.3160  4.3403
  369MOL0     H49756   8.772   8.812   4.455 -0.4091  1.7069 -0.0811
  369MOL0     H49757   8.704   8.889   4.319  0.1417  0.2188  0.3196
  369MOL0     H49758   8.701   8.659   4.190 -1.5480 -1.2407  0.4982
  369MOL0     H49759   8.759   8.592   4.345  1.8241  0.2552  0.5559
  369MOL0     H49760   8.552   8.693   4.460 -2.4583  0.0644  0.4922
  369MOL0     H49761   8.502   8.756   4.307  0.4571 -0.8276 -0.3615
  369MOL0     H49762   8.451   8.543   4.207 -2.4945 -1.2248  0.3987
  369MOL0     H49763   8.529   8.454   4.335 -0.6615 -0.2367  0.0581
  369MOL0     H49764   8.292   8.630   4.407  2.3176  1.0741 -0.7408
  369MOL0     H49765   8.378   8.509   4.498  3.1938 -0.2849 -1.5602
  369MOL0     H49766   8.175   8.502   4.157  0.7788  0.8650  0.1589
  369MOL0     H49767   8.041   8.322   4.029  0.6529  3.2729  2.1670
  369MOL0     H49768   8.041   8.158   4.089 -0.2040  0.8933 -0.3302
  369MOL0     H49769   7.863   8.392   4.168 -2.7459 -0.2000  0.1832
  369MOL0     H49770   7.879   8.245   4.264 -0.2139  0.2017 -0.2740
  369MOL0     H49771   7.806   8.102   4.064 -1.7619 -0.9431  0.9033
  369MOL0     H49772   7.825   8.247   3.966 -2.7070  1.0171 -0.5800
  369MOL0     H49773   7.638   8.354   4.102  0.2264  0.0933 -1.0998
  369MOL0     H49774   7.605   8.176   4.153 -3.8250  0.6828 -1.8274
  369MOL0     H49775   7.419   8.173   3.751 -1.1364  0.5413 -0.5741
  369MOL0     H49776   7.129   8.087   3.716  0.2240  0.0005 -1.8371
  369MOL0     H49777   7.082   8.254   3.661 -0.1593 -0.2357  1.3711
  369MOL0     H49778   7.230   8.185   3.613  2.3449  1.5661  0.9920
  369MOL0     H49779   6.904   8.655   3.718 -0.4232 -0.5405  0.5821
  369MOL0     H49780   6.685   8.746   3.694  2.3866  0.4247  1.3133
  369MOL0     H49781   6.352   8.445   3.722  1.0718  0.7361 -2.3886
  369MOL0     H49782   6.325   8.511   3.885 -1.9486  2.4250 -0.5476
  369MOL0     H49783   6.214   8.637   3.628  0.4467  0.3608 -0.1818
  369MOL0     H49784   6.122   8.546   3.749 -1.7755  1.5735  0.0547
  369MOL0     H49785   6.270   8.797   3.805  0.0059 -0.4194  1.4708
  369MOL0     H49786   6.179   8.692   3.924  2.0099 -3.3867 -1.4453
  369MOL0     H49787   6.055   8.896   3.870  1.2606 -0.5697  1.5539
  369MOL0     H49788   6.088   8.865   3.699 -0.3826 -1.7177 -1.1886
  369MOL0     H49789   5.905   8.668   3.830  4.1538 -0.5907 -0.0150
  369MOL0     H49790   5.925   8.704   3.665  2.4669 -0.3327  0.7828
  369MOL0     H49791   5.809   8.898   3.866  0.7418  2.6708 -1.5033
  369MOL0     H49792   5.852   8.961   3.717 -1.0910  0.2851 -0.0597
  369MOL0     H49793   5.659   8.728   3.757 -1.8225  1.2987  1.1172
  369MOL0     H49794   5.700   8.782   3.601  0.0982  0.2049 -0.8846
  369MOL0     H49795   5.595   9.004   3.640  0.7342  1.9319  2.0385
  369MOL0     H49796   5.598   8.981   3.814 -0.5861 -0.3789  0.2484
  369MOL0     H49797   6.526   8.407   3.903 -1.0124  3.6950  2.8226
  369MOL0     H49798   6.754   8.339   3.952  3.2715  1.9076  0.7946
  369MOL0     H49799   7.196   8.414   4.111  0.6480  0.9840 -0.2669
  369MOL0     H49800   7.441   8.381   4.125  0.3667 -0.8639  0.8916
  369MOL0     H49801   9.190   9.080   3.905 -0.9702  1.5214  1.9160
  369MOL0     H49802   9.400   9.119   3.777  0.6887 -0.6376 -1.3164
  369MOL0     H49803   9.845   8.762   3.640  0.3052 -0.3042 -0.4981
  369MOL0     H49804  10.023   8.819   3.500 -0.5592 -1.4661  0.4986
  369MOL0     H49805  10.256   8.898   3.422  2.8660  1.3521  0.2254
  369MOL0     H49806  10.103   8.945   3.349  1.3894  0.0958 -3.7468
  369MOL0     H49807  10.336   9.011   3.226 -1.6683 -2.9489  0.9795
  369MOL0     H49808  10.346   9.126   3.359  0.5782 -0.4275 -0.6923
  369MOL0     H49809  10.276   9.249   3.183  0.1987  0.2436  1.8005
  369MOL0     H49810  10.161   9.244   3.319 -2.1764 -0.3994 -0.6666
  369MOL0     H49811  10.047   9.243   3.106  0.4251  0.0062  0.8373
  369MOL0     H49812  10.017   9.090   3.192 -2.1956  3.3266 -0.9351
  369MOL0     H49813  10.206   8.928   2.853 -2.4203 -0.1817 -1.1662
  369MOL0     H49814  10.035   9.214   3.689  1.0782  0.1920  0.6672
  369MOL0     H49815   9.863   9.154   3.831  1.5591  0.1792  0.7140
  370MOL0     O49816   3.452   3.154   9.962  0.1261  0.5506 -0.0711
  370MOL0     C49817   3.466   3.272   9.939  0.2495 -1.0504 -0.1360
  370MOL0     O49818   3.366   3.362   9.940  0.3735  0.5435 -0.2790
  370MOL0     C49819   3.235   3.308   9.956 -0.1936  0.4422 -0.1374
  370MOL0     C49820   3.190   3.220  10.051  0.6458  0.6546 -0.2636
  370MOL0     C49821   3.053   3.196  10.059 -0.1244 -0.6957 -0.0571
  370MOL0     C49822   2.960   3.253   9.964 -0.0392 -0.9121 -0.4620
  370MOL0     O49823   2.825   3.234   9.964 -0.6470 -0.3456 -0.5703
  370MOL0     C49824   2.761   3.174  10.074 -0.4666 -1.3245  0.0447
  370MOL0     C49825   2.611   3.212  10.063 -0.1520  0.2966 -0.0355
  370MOL0     C49826   2.530   3.128  10.164 -0.2923 -0.9330 -0.0607
  370MOL0     C49827   2.381   3.145  10.169 -0.0643 -0.1971 -0.0927
  370MOL0     C49828   2.327   3.060  10.272  0.7525  0.5776 -0.5186
  370MOL0     C49829   2.177   3.089  10.290 -0.2962 -0.2195 -0.0680
  370MOL0     C49830   2.107   2.985  10.372 -0.5777 -0.4234 -0.2812
  370MOL0     C49831   1.961   3.021  10.380  0.6812 -0.0227  0.5975
  370MOL0     N49832   1.875   2.931  10.455 -0.8322  0.1678  0.0398
  370MOL0     C49833   1.898   2.797  10.465  0.1623  0.2709  0.4386
  370MOL0     C49834   1.785   2.744  10.502 -0.7205 -0.6336 -0.5363
  370MOL0     C49835   1.759   2.598  10.524  0.1420  0.1085 -0.9078
  370MOL0     C49836   1.819   2.543  10.659  0.1527 -0.1649 -0.5179
  370MOL0     C49837   1.761   2.405  10.686  0.2676  1.1255  0.2103
  370MOL0     C49838   1.614   2.404  10.740  0.3082  0.3086  0.0810
  370MOL0     O49839   1.593   2.517  10.820 -1.1746  0.7966  0.2311
  370MOL0     C49840   1.471   2.525  10.885 -0.3418  0.4274 -0.1346
  370MOL0     C49841   1.467   2.610  10.994  0.5729  0.1485  0.7222
  370MOL0     C49842   1.351   2.611  11.086 -0.8608 -0.6139  0.3389
  370MOL0     C49843   1.368   2.699  11.207 -0.3037  0.2130 -0.4613
  370MOL0     C49844   1.233   2.534  11.049 -0.6718 -0.5087 -0.4275
  370MOL0     C49845   1.100   2.540  11.121 -0.6108  0.2387 -0.1625
  370MOL0     O49846   1.002   2.472  11.053 -0.4867  0.0885  0.1513
  370MOL0     C49847   0.882   2.465  11.119 -0.4335 -0.1695 -0.5496
  370MOL0     C49848   0.857   2.374  11.229 -0.6239 -0.3024  0.5015
  370MOL0     C49849   0.734   2.386  11.297 -0.2677  1.0845 -0.3178
  370MOL0     C49850   0.639   2.477  11.248 -0.0075 -0.1985 -0.3825
  370MOL0     O49851   0.513   2.491  11.301 -0.4174  1.4209  0.2888
  370MOL0     C49852   0.491   2.442  11.431  0.2576 -0.4436 -0.5114
  370MOL0     C49853   0.360   2.499  11.475  0.1478  0.2678  0.0701
  370MOL0     C49854   0.313   2.428  11.609 -0.6883 -0.0217  0.1513
  370MOL0     C49855   0.151   2.446  11.623  0.1605 -0.1708 -0.3182
  370MOL0     C49856   0.107   2.458  11.773 -0.6879 -0.6146 -0.8687
  370MOL0     C49857  -0.038   2.479  11.780  0.0958 -0.2208 -0.5844
  370MOL0     C49858  -0.064   2.524  11.927  0.1127  0.1635 -0.4685
  370MOL0     C49859  -0.215   2.541  11.962 -0.2589  0.6991  0.3792
  370MOL0    Cl49860  -0.314   2.390  11.932 -0.0473  0.5671  0.7218
  370MOL0     C49861   0.674   2.567  11.152 -0.6442  0.0697  0.5842
  370MOL0     C49862   0.795   2.560  11.087 -0.0464 -0.2948 -0.4285
  370MOL0     O49863   1.092   2.578  11.237  0.4299  0.6572 -0.5021
  370MOL0     C49864   1.236   2.462  10.926  0.5065 -0.4171  0.0984
  370MOL0     C49865   1.355   2.459  10.852  0.5110 -0.8659  0.0903
  370MOL0     N49866   1.694   2.848  10.523 -0.2951 -0.2682  0.9140
  370MOL0     N49867   1.753   2.966  10.504 -0.4774 -1.1045 -0.5371
  370MOL0     C49868   3.009   3.335   9.867  0.1024  0.1493  0.5665
  370MOL0     C49869   3.141   3.358   9.859 -0.4074  0.6436 -0.9012
  370MOL0     C49870   3.597   3.325   9.893 -0.5351 -1.0558  0.3712
  370MOL0     C49871   3.624   3.461   9.864  0.3177 -0.8640 -0.6448
  370MOL0     C49872   3.753   3.502   9.819  0.3525  0.4543 -0.5680
  370MOL0     C49873   3.859   3.405   9.806  1.0486  0.0124 -0.5885
  370MOL0     O49874   3.988   3.441   9.779  0.5944 -0.8229 -0.1489
  370MOL0     C49875   4.012   3.577   9.740 -0.1272  0.1032  0.2069
  370MOL0     C49876   4.157   3.594   9.686 -0.5519 -0.0829 -0.0192
  370MOL0     C49877   4.255   3.610   9.805  0.1210 -0.3915  0.6351
  370MOL0     C49878   4.399   3.629   9.730 -0.6914 -0.3304  0.1932
  370MOL0     C49879   4.507   3.657   9.821 -0.6276 -0.9571 -0.2138
  370MOL0     C49880   4.604   3.691   9.887  0.9357  0.6870 -0.1833
  370MOL0     C49881   3.831   3.276   9.838  0.3095  0.0022  0.1821
  370MOL0     C49882   3.703   3.236   9.874 -0.5883  0.3732 -0.6030
  370MOL0     H49883   3.247   3.170  10.129 -0.4349 -0.9005 -0.4297
  370MOL0     H49884   3.019   3.136  10.143  0.0007 -2.2099 -1.0431
  370MOL0     H49885   2.786   3.067  10.079 -2.0469 -1.6718  2.3163
  370MOL0     H49886   2.794   3.219  10.168 -0.9759 -0.5867 -0.1206
  370MOL0     H49887   2.600   3.319  10.082  2.2001  0.4849  0.6559
  370MOL0     H49888   2.587   3.190   9.959 -0.5186 -0.9908  0.3044
  370MOL0     H49889   2.544   3.023  10.139 -1.2666 -0.7750 -1.4193
  370MOL0     H49890   2.560   3.168  10.261  2.2141 -0.6570 -0.8719
  370MOL0     H49891   2.356   3.250  10.188 -0.9320 -0.5122  0.5149
  370MOL0     H49892   2.346   3.112  10.071  0.6198  1.5369 -0.9806
  370MOL0     H49893   2.334   2.952  10.253  0.7112  0.3462  0.7077
  370MOL0     H49894   2.381   3.070  10.367  0.4594  3.4173 -0.5615
  370MOL0     H49895   2.152   3.192  10.320  0.1916 -0.1060 -0.0430
  370MOL0     H49896   2.131   3.075  10.192 -2.1942 -0.3275  0.7775
  370MOL0     H49897   2.110   2.894  10.312  3.5021 -0.7622  0.1622
  370MOL0     H49898   2.159   2.970  10.467 -1.7934  1.2086  0.6900
  370MOL0     H49899   1.926   3.025  10.277  1.1183  1.6002  0.4695
  370MOL0     H49900   1.942   3.120  10.425 -0.4176  0.0970 -0.1081
  370MOL0     H49901   1.990   2.741  10.449 -0.0632  0.3251 -1.1849
  370MOL0     H49902   1.650   2.593  10.513  0.2912 -0.8757 -2.2036
  370MOL0     H49903   1.803   2.542  10.441  1.3596  1.1764 -1.0221
  370MOL0     H49904   1.811   2.600  10.753  1.9465 -1.0544  0.2076
  370MOL0     H49905   1.926   2.535  10.643  0.4607  3.0959 -0.9217
  370MOL0     H49906   1.826   2.353  10.758 -1.5495  1.3748  2.1340
  370MOL0     H49907   1.761   2.347  10.594  0.5622 -1.2316  1.6051
  370MOL0     H49908   1.587   2.311  10.790 -2.2403  0.7350 -0.3633
  370MOL0     H49909   1.553   2.403  10.649 -0.5091 -0.6162  0.6178
  370MOL0     H49910   1.562   2.654  11.025  1.6872  0.7364 -2.9423
  370MOL0     H49911   1.421   2.792  11.182 -0.7173  0.4261 -0.5621
  370MOL0     H49912   1.270   2.742  11.232 -1.1036 -0.4243 -2.3742
  370MOL0     H49913   1.408   2.649  11.296 -0.7929  2.2478  0.9942
  370MOL0     H49914   0.925   2.295  11.260  3.1911  2.4358 -0.2178
  370MOL0     H49915   0.711   2.304  11.364 -0.4424 -0.0968 -1.7957
  370MOL0     H49916   0.488   2.333  11.440 -2.6758 -0.4902 -1.1780
  370MOL0     H49917   0.566   2.475  11.504 -0.1298 -0.9321  0.1163
  370MOL0     H49918   0.366   2.607  11.484  1.4781  0.0534  2.5490
  370MOL0     H49919   0.293   2.473  11.392 -0.0354 -3.7273  1.2530
  370MOL0     H49920   0.355   2.489  11.689  0.7518  0.3310 -0.8431
  370MOL0     H49921   0.332   2.321  11.614 -0.0759  0.0100 -1.1368
  370MOL0     H49922   0.129   2.543  11.578  1.2980  0.9355  1.3719
  370MOL0     H49923   0.104   2.365  11.567  3.8626 -0.4127 -3.5612
  370MOL0     H49924   0.165   2.533  11.828 -1.0761 -2.2509  1.9659
  370MOL0     H49925   0.126   2.365  11.827  0.5164 -0.4028 -0.8855
  370MOL0     H49926  -0.070   2.567  11.724  2.4282  1.7687  0.9935
  370MOL0     H49927  -0.098   2.389  11.763  0.5374 -1.1036  1.9871
  370MOL0     H49928  -0.010   2.619  11.939 -0.3492  0.1161  2.9792
  370MOL0     H49929  -0.023   2.457  12.003  0.0626  0.5208 -0.1212
  370MOL0     H49930  -0.259   2.614  11.894 -2.6352 -0.5224  0.4923
  370MOL0     H49931  -0.230   2.574  12.065  0.6469 -1.0693  1.1242
  370MOL0     H49932   0.615   2.654  11.129  1.7596  1.6305 -0.0435
  370MOL0     H49933   0.813   2.627  11.004 -1.7649  0.0805 -0.5465
  370MOL0     H49934   1.149   2.410  10.888 -1.6297  2.1492  1.1807
  370MOL0     H49935   1.364   2.398  10.762  3.0350  1.1861 -1.1608
  370MOL0     H49936   2.944   3.384   9.796  0.8783 -0.7891 -0.8285
  370MOL0     H49937   3.176   3.426   9.782  3.6146  1.8509  1.6688
  370MOL0     H49938   3.549   3.536   9.886  0.3786 -1.5821  2.4271
  370MOL0     H49939   3.766   3.603   9.782  1.1226  0.9782  1.0428
  370MOL0     H49940   3.947   3.601   9.654 -1.8380  1.0383  1.6811
  370MOL0     H49941   3.996   3.650   9.820  0.6510  1.3770 -0.7623
  370MOL0     H49942   4.162   3.688   9.632  0.9059 -0.8053 -1.2150
  370MOL0     H49943   4.184   3.506   9.626  3.6482  1.4860 -0.7502
  370MOL0     H49944   4.253   3.519   9.865  0.9568 -0.1787  0.9988
  370MOL0     H49945   4.232   3.687   9.880 -1.6552  0.3326 -0.5837
  370MOL0     H49946   4.398   3.690   9.639  1.3337 -0.2690  0.1743
  370MOL0     H49947   4.420   3.530   9.689 -1.3812 -0.5591  0.3754
  370MOL0     H49948   4.703   3.709   9.924 -0.6673  1.7977  4.0983
  370MOL0     H49949   3.920   3.213   9.841  0.3202  0.0329  0.6349
  370MOL0     H49950   3.686   3.131   9.897  1.6809  0.4656  2.1216
  371MOL0     O49951   7.446  10.976  10.568 -0.0058  0.6085  0.4624
  371MOL0     C49952   7.487  10.863  10.570 -0.4602  0.7909  0.0917
  371MOL0     O49953   7.414  10.757  10.606 -0.1165 -0.2704 -0.6950
  371MOL0     C49954   7.289  10.758  10.660 -0.8085 -0.6131  0.3081
  371MOL0     C49955   7.251  10.848  10.759 -0.6573 -0.1246  1.2658
  371MOL0     C49956   7.125  10.833  10.820 -0.5383 -0.1924 -0.0660
  371MOL0     C49957   7.034  10.729  10.773  0.8791  0.5415  1.2588
  371MOL0     O49958   6.914  10.728  10.841  0.2956 -0.1255  0.4574
  371MOL0     C49959   6.814  10.627  10.812 -0.2575  0.1593  0.3168
  371MOL0     C49960   6.689  10.635  10.906 -0.9522  0.4515 -1.0503
  371MOL0     C49961   6.595  10.742  10.859  0.2987  0.9933 -0.0508
  371MOL0     C49962   6.537  10.811  10.979 -0.0450  0.6053  0.9603
  371MOL0     C49963   6.452  10.930  10.933  0.7599 -0.1283 -0.2322
  371MOL0     C49964   6.392  11.007  11.053  0.4410 -1.2423 -0.4119
  371MOL0     C49965   6.272  10.931  11.117  0.4002  0.4018  0.1080
  371MOL0     C49966   6.143  11.012  11.110  0.0708 -0.0863 -0.3708
  371MOL0     N49967   6.041  10.959  11.202 -0.3157 -0.5236 -0.2950
  371MOL0     C49968   5.989  11.029  11.305 -0.4454  0.5812 -0.1146
  371MOL0     C49969   5.883  10.958  11.353 -0.7169  0.6262 -0.1472
  371MOL0     C49970   5.792  11.002  11.461  0.4658  0.4350  0.0537
  371MOL0     C49971   5.678  11.095  11.412 -0.1890 -0.0647 -0.3075
  371MOL0     C49972   5.603  11.140  11.537  0.2854  0.3727 -0.4933
  371MOL0     C49973   5.502  11.253  11.503  0.4039 -0.5045 -0.1264
  371MOL0     O49974   5.383  11.180  11.459  0.2361 -0.0541  0.2629
  371MOL0     C49975   5.271  11.252  11.442  0.3094 -1.1376  0.6510
  371MOL0     C49976   5.256  11.388  11.413  0.2034  0.1092  0.2300
  371MOL0     C49977   5.126  11.444  11.393 -0.7736  0.8668 -0.5838
  371MOL0     C49978   5.120  11.593  11.358  0.2296  0.5678  0.1675
  371MOL0     C49979   5.011  11.353  11.401 -0.2693 -0.2002 -1.2637
  371MOL0     C49980   4.873  11.394  11.394 -0.1086 -0.7122  0.1392
  371MOL0     O49981   4.838  11.531  11.418  0.2542 -0.5268  0.1707
  371MOL0     C49982   4.708  11.575  11.433 -0.1414 -0.6047  1.1163
  371MOL0     C49983   4.665  11.692  11.359  0.3671  0.7676  0.3995
  371MOL0     C49984   4.542  11.750  11.380  0.1165 -0.8243 -0.1750
  371MOL0     C49985   4.454  11.694  11.487 -1.4002  0.3230  0.4189
  371MOL0     O49986   4.333  11.747  11.526 -0.4424 -0.1560  0.5776
  371MOL0     C49987   4.301  11.864  11.462  0.7414  0.6137 -0.2025
  371MOL0     C49988   4.174  11.921  11.520 -0.3296 -0.3357  0.4523
  371MOL0     C49989   4.054  11.860  11.445 -0.8599 -0.8095  0.4127
  371MOL0     C49990   3.918  11.901  11.504 -0.1812 -0.2068 -0.1327
  371MOL0     C49991   3.878  12.043  11.481 -0.5083 -0.1073  0.0823
  371MOL0     C49992   3.812  12.067  11.340  0.6282  0.2263 -0.0018
  371MOL0     C49993   3.801  12.210  11.307 -0.1892  0.1303  0.4744
  371MOL0     C49994   3.701  12.235  11.192  0.0437 -0.0043  0.5180
  371MOL0    Cl49995   3.534  12.210  11.241 -0.1488 -0.0491  0.1531
  371MOL0     C49996   4.505  11.584  11.560  1.0189  0.3315  0.3858
  371MOL0     C49997   4.629  11.518  11.533  0.0246  0.1049  1.0459
  371MOL0     O49998   4.793  11.302  11.387  0.3157  0.4086 -0.4813
  371MOL0     C49999   5.034  11.228  11.460  0.6638 -0.3380  0.6992
  371MOL0     C50000   5.156  11.177  11.467 -0.9245  0.6065 -0.0798
  371MOL0     N50001   5.878  10.838  11.278  0.4665 -0.6409  0.1443
  371MOL0     N50002   5.963  10.842  11.183  0.4877  0.6596  0.3875
  371MOL0     C50003   7.079  10.640  10.671 -0.1972  0.4885  0.3389
  371MOL0     C50004   7.199  10.667  10.607  0.6822 -0.2192 -0.2463
  371MOL0     C50005   7.621  10.830  10.518 -0.2672 -0.3187  0.5872
  371MOL0     C50006   7.664  10.695  10.501  0.0321  0.0744 -0.0306
  371MOL0     C50007   7.792  10.661  10.439  0.0506 -0.2102 -0.8328
  371MOL0     C50008   7.870  10.775  10.393 -0.2702 -0.1798 -0.1433
  371MOL0     O50009   7.989  10.738  10.327  0.3236 -0.2879 -0.6602
  371MOL0     C50010   8.080  10.837  10.289 -0.2180 -0.1633 -0.4087
  371MOL0     C50011   8.208  10.760  10.245  0.5296 -0.1796 -0.8508
  371MOL0     C50012   8.292  10.843  10.147 -0.4117  0.0354 -0.4036
  371MOL0     C50013   8.232  10.852  10.004 -0.0295  0.8303 -1.3899
  371MOL0     C50014   8.295  10.964   9.943  0.4655 -0.4745  0.4749
  371MOL0     C50015   8.338  11.060   9.892 -0.3768  0.9230  0.1958
  371MOL0     C50016   7.827  10.908  10.410 -0.7603  1.1704 -0.3270
  371MOL0     C50017   7.708  10.929  10.481  0.1595 -1.3443 -0.8123
  371MOL0     H50018   7.330  10.906  10.806  0.1502  0.8469 -1.1015
  371MOL0     H50019   7.100  10.902  10.899 -2.0794 -0.8999  0.0955
  371MOL0     H50020   6.781  10.628  10.708 -1.1879 -0.7990  0.5819
  371MOL0     H50021   6.861  10.531  10.834  2.8500  2.2962  4.7433
  371MOL0     H50022   6.642  10.537  10.895 -0.9302  0.1657  0.9467
  371MOL0     H50023   6.721  10.656  11.008  0.6914 -1.1033 -1.1919
  371MOL0     H50024   6.640  10.819  10.795  1.1320  0.3084 -0.3133
  371MOL0     H50025   6.515  10.694  10.802  1.2027 -1.1643  0.4087
  371MOL0     H50026   6.480  10.737  11.035  0.0263 -2.7895 -2.9427
  371MOL0     H50027   6.613  10.859  11.041  1.1985  2.5594 -1.8551
  371MOL0     H50028   6.515  10.992  10.868 -0.0770  2.5912  1.3878
  371MOL0     H50029   6.369  10.894  10.871 -0.6332 -2.9343  2.9455
  371MOL0     H50030   6.480  11.015  11.118 -0.5922  0.3816  0.8475
  371MOL0     H50031   6.355  11.102  11.013  0.5461 -1.3418 -0.7518
  371MOL0     H50032   6.255  10.839  11.061 -2.5378  1.3812 -0.8081
  371MOL0     H50033   6.278  10.912  11.224 -2.4684  0.5907  0.3895
  371MOL0     H50034   6.093  11.002  11.013 -2.7014 -0.1012  0.9462
  371MOL0     H50035   6.164  11.118  11.130 -2.1668  0.2939  0.2507
  371MOL0     H50036   6.007  11.134  11.326 -0.7708  0.9540 -1.6081
  371MOL0     H50037   5.744  10.916  11.507 -0.7132  0.9013 -0.2815
  371MOL0     H50038   5.845  11.054  11.542  4.3489 -1.3488 -1.0934
  371MOL0     H50039   5.614  11.049  11.337  1.8157  0.2300 -2.2826
  371MOL0     H50040   5.725  11.183  11.368 -2.7167  1.2865 -0.5170
  371MOL0     H50041   5.678  11.182  11.604 -0.1359 -2.8441  2.2394
  371MOL0     H50042   5.553  11.059  11.590  0.1701  1.0751  0.5070
  371MOL0     H50043   5.541  11.325  11.431 -1.2457 -0.3291 -0.8954
  371MOL0     H50044   5.485  11.316  11.591 -0.9981 -1.4840  0.3312
  371MOL0     H50045   5.343  11.452  11.411  1.4108 -1.4818  0.1008
  371MOL0     H50046   5.084  11.660  11.436  1.0153  0.2392  0.8299
  371MOL0     H50047   5.221  11.628  11.334 -0.1094  0.2571 -1.8532
  371MOL0     H50048   5.050  11.608  11.276  0.4010 -0.0174 -0.0929
  371MOL0     H50049   4.740  11.732  11.292  0.9512 -0.4161  0.3391
  371MOL0     H50050   4.508  11.844  11.338 -4.5651 -1.9609  0.4332
  371MOL0     H50051   4.381  11.937  11.473  0.1804  1.6160 -2.1678
  371MOL0     H50052   4.294  11.849  11.354  1.6799 -1.1790 -0.0571
  371MOL0     H50053   4.173  11.899  11.627  1.1223  2.7471  1.2358
  371MOL0     H50054   4.173  12.030  11.517  0.5614 -0.3367 -1.9405
  371MOL0     H50055   4.060  11.750  11.443  0.0496 -0.7609  0.4099
  371MOL0     H50056   4.061  11.885  11.339 -2.1971 -0.3012  0.4171
  371MOL0     H50057   3.838  11.839  11.462 -0.4587  0.4648 -0.6215
  371MOL0     H50058   3.914  11.890  11.612  1.3324 -2.2661 -0.2273
  371MOL0     H50059   3.965  12.109  11.487 -0.7846  0.2423  0.3232
  371MOL0     H50060   3.811  12.068  11.564 -0.3446  0.3943  0.0647
  371MOL0     H50061   3.874  12.011  11.269  1.6374  1.2614  0.0445
  371MOL0     H50062   3.714  12.021  11.354  0.0869  0.4765 -2.4497
  371MOL0     H50063   3.899  12.241  11.269 -1.4885  2.9860 -0.8723
  371MOL0     H50064   3.775  12.274  11.391  1.2325  0.4879  0.6677
  371MOL0     H50065   3.733  12.165  11.115  1.4349  0.2944  0.7948
  371MOL0     H50066   3.723  12.338  11.161  1.0651 -0.6974 -1.1969
  371MOL0     H50067   4.453  11.539  11.644  0.9774  1.4106  0.9635
  371MOL0     H50068   4.663  11.428  11.584 -0.9242  0.5186  2.4784
  371MOL0     H50069   4.954  11.157  11.480 -0.1394  0.1050 -0.7646
  371MOL0     H50070   5.161  11.070  11.484  2.3264  0.2641 -2.2704
  371MOL0     H50071   7.027  10.550  10.640 -2.6278  1.5480  1.0957
  371MOL0     H50072   7.228  10.614  10.516 -0.2621  0.2013 -0.8174
  371MOL0     H50073   7.608  10.606  10.527  2.7266 -1.1561  2.1202
  371MOL0     H50074   7.827  10.560  10.424 -1.5398 -0.8107 -0.6127
  371MOL0     H50075   8.039  10.893  10.205  0.8887 -0.6657 -1.3073
  371MOL0     H50076   8.102  10.901  10.376  1.1358  0.2175 -1.0091
  371MOL0     H50077   8.196  10.659  10.205  0.5648 -0.5837  0.1204
  371MOL0     H50078   8.249  10.749  10.346 -4.1530 -1.5915  1.2229
  371MOL0     H50079   8.393  10.800  10.142 -0.4898 -1.1001  3.7524
  371MOL0     H50080   8.307  10.936  10.203  2.1900 -1.2762  1.3137
  371MOL0     H50081   8.126  10.874  10.019  0.4695  1.8601  1.1397
  371MOL0     H50082   8.244  10.753   9.959  1.4406  0.9675 -1.3473
  371MOL0     H50083   8.384  11.149   9.854 -0.2582  1.3455  1.2988
  371MOL0     H50084   7.893  10.992  10.390 -0.1463  0.1947 -2.7559
  371MOL0     H50085   7.667  11.029  10.467  0.9745 -0.9769 -0.6514
  372MOL0     O50086   4.977   6.868  10.477  0.1139  0.3009  0.0587
  372MOL0     C50087   4.968   6.914  10.358  0.2842  1.1401 -0.0782
  372MOL0     O50088   5.066   6.968  10.286 -0.7323 -0.8856  0.5796
  372MOL0     C50089   5.184   7.010  10.349 -0.0574 -0.5077 -0.2040
  372MOL0     C50090   5.308   7.013  10.277 -0.3347 -0.6191 -0.1995
  372MOL0     C50091   5.417   7.067  10.347 -0.3074  0.2120 -0.0181
  372MOL0     C50092   5.407   7.123  10.474  0.1707  1.2204  0.1018
  372MOL0     O50093   5.516   7.181  10.540  0.0158 -0.6787 -0.8162
  372MOL0     C50094   5.640   7.192  10.471 -0.4118  0.4149 -0.1068
  372MOL0     C50095   5.736   7.259  10.560  0.1499  0.0376 -0.6044
  372MOL0     C50096   5.744   7.403  10.549 -0.4236 -1.0572 -0.7619
  372MOL0     C50097   5.612   7.472  10.581  0.3950 -0.2885 -0.2880
  372MOL0     C50098   5.607   7.626  10.570  0.0920  0.2839 -0.3269
  372MOL0     C50099   5.613   7.674  10.428 -0.5670  0.0183  0.2286
  372MOL0     C50100   5.603   7.830  10.418  0.6268  0.0262  0.3799
  372MOL0     C50101   5.451   7.885  10.422 -0.7502  0.0601  0.4013
  372MOL0     N50102   5.372   7.853  10.305 -0.0977 -0.3211  0.5837
  372MOL0     C50103   5.284   7.749  10.301  0.5338 -0.4376 -0.0126
  372MOL0     C50104   5.203   7.773  10.195 -0.1273  0.7068 -0.0641
  372MOL0     C50105   5.074   7.707  10.147 -0.3583 -0.5554 -0.0832
  372MOL0     C50106   5.090   7.633  10.012 -0.5585  0.2652  0.5006
  372MOL0     C50107   4.958   7.561   9.956 -0.4846 -0.2560  0.0258
  372MOL0     C50108   4.861   7.669   9.927  0.2680  0.1392 -0.3133
  372MOL0     O50109   4.751   7.615   9.853  0.4844 -0.2784  0.0948
  372MOL0     C50110   4.633   7.694   9.848 -0.8757 -0.3172 -0.7062
  372MOL0     C50111   4.618   7.817   9.917 -0.5338 -0.4799 -1.2886
  372MOL0     C50112   4.501   7.900   9.902 -1.1924  1.1491 -0.2202
  372MOL0     C50113   4.496   8.029   9.980  0.0583  0.1951 -0.2258
  372MOL0     C50114   4.396   7.860   9.821 -0.4330  0.6662  0.0536
  372MOL0     C50115   4.265   7.926   9.809  0.2405 -0.2819 -0.3037
  372MOL0     O50116   4.183   7.874   9.717 -0.5334 -0.5444  0.3707
  372MOL0     C50117   4.072   7.949   9.685  0.1447  0.0815 -0.2125
  372MOL0     C50118   4.061   8.087   9.689 -0.1943 -0.3980 -0.3973
  372MOL0     C50119   3.950   8.152   9.633 -0.7080  0.5603  0.8192
  372MOL0     C50120   3.841   8.079   9.579 -0.4288 -0.8487  0.1610
  372MOL0     O50121   3.723   8.129   9.535 -0.5687 -0.0338  0.3247
  372MOL0     C50122   3.704   8.261   9.590  0.7328  0.3709  0.2922
  372MOL0     C50123   3.570   8.323   9.567  0.7616  0.2661  0.3928
  372MOL0     C50124   3.454   8.219   9.590  0.4313 -0.8699 -0.2150
  372MOL0     C50125   3.315   8.282   9.578 -0.7359 -0.3433  0.7760
  372MOL0     C50126   3.213   8.175   9.627 -0.3070  0.2268  0.6818
  372MOL0     C50127   3.066   8.215   9.609  0.5065  0.1384 -1.3107
  372MOL0     C50128   2.972   8.155   9.716  0.4923  0.3327  0.4971
  372MOL0     C50129   2.822   8.156   9.671 -0.3951  0.9836 -0.4141
  372MOL0    Cl50130   2.704   8.119   9.809 -0.0532  0.1271  0.3760
  372MOL0     C50131   3.858   7.940   9.578 -0.7821 -0.1989  0.1339
  372MOL0     C50132   3.972   7.875   9.621  1.3158 -0.6841  0.9688
  372MOL0     O50133   4.230   8.004   9.903 -0.9077 -0.2750  0.2973
  372MOL0     C50134   4.422   7.747   9.743  0.1638  1.0721  0.7328
  372MOL0     C50135   4.542   7.662   9.748  0.4941 -0.8733  0.2596
  372MOL0     N50136   5.242   7.893  10.140  1.1522  0.1965  0.0625
  372MOL0     N50137   5.338   7.945  10.209 -0.5347 -0.5286  0.0799
  372MOL0     C50138   5.290   7.128  10.536  0.1921  0.1338 -0.2148
  372MOL0     C50139   5.175   7.071  10.479 -0.5092 -0.4666 -0.6815
  372MOL0     C50140   4.832   6.895  10.315  0.3954 -0.0192  0.4006
  372MOL0     C50141   4.808   6.876  10.180 -0.3841  0.6079 -0.4802
  372MOL0     C50142   4.672   6.860  10.130 -0.3714 -0.1951 -0.0598
  372MOL0     C50143   4.560   6.873  10.221  0.5989 -0.3793 -0.2930
  372MOL0     O50144   4.431   6.852  10.168 -0.5233 -0.4055 -0.1125
  372MOL0     C50145   4.411   6.724  10.120 -0.4049 -0.1156 -0.5770
  372MOL0     C50146   4.311   6.739  10.006  0.0460 -0.2157  0.4634
  372MOL0     C50147   4.182   6.803  10.045 -0.9562 -0.2180 -0.1263
  372MOL0     C50148   4.087   6.809   9.925 -0.4108  0.6349 -0.2351
  372MOL0     C50149   3.958   6.862   9.970 -0.7382  0.3841 -0.1046
  372MOL0     C50150   3.857   6.895  10.024 -0.2604  0.1879 -0.3134
  372MOL0     C50151   4.596   6.901  10.356 -0.1832 -0.5950 -0.1888
  372MOL0     C50152   4.724   6.904  10.403 -0.5262  0.2348 -0.2071
  372MOL0     H50153   5.309   6.978  10.174  0.6352 -0.2780 -0.3132
  372MOL0     H50154   5.516   7.069  10.302 -0.7222 -0.6947 -1.0176
  372MOL0     H50155   5.686   7.095  10.447 -1.0442 -0.4443  1.9783
  372MOL0     H50156   5.615   7.250  10.382  2.1775  0.0887 -1.1462
  372MOL0     H50157   5.721   7.241  10.667  2.3017  0.9702 -0.0939
  372MOL0     H50158   5.836   7.214  10.557 -0.7056 -2.0811  0.5206
  372MOL0     H50159   5.833   7.442  10.599 -0.6053 -0.5999 -0.7886
  372MOL0     H50160   5.771   7.425  10.445 -1.9846  2.3781 -0.5903
  372MOL0     H50161   5.536   7.437  10.511 -1.2931  0.7521  0.9701
  372MOL0     H50162   5.584   7.446  10.683  0.8870  1.9571  0.4840
  372MOL0     H50163   5.515   7.657  10.621 -0.9872 -2.3172 -0.5376
  372MOL0     H50164   5.687   7.675  10.627  2.1328  1.8093 -4.1147
  372MOL0     H50165   5.709   7.644  10.384 -0.4550 -1.1772  1.2426
  372MOL0     H50166   5.532   7.631  10.369  1.0062  0.6693 -2.6062
  372MOL0     H50167   5.670   7.872  10.493  2.5244 -2.2562  0.0700
  372MOL0     H50168   5.651   7.859  10.324  0.1332 -0.9163 -0.1766
  372MOL0     H50169   5.460   7.994  10.428  2.6354 -0.2046  3.2447
  372MOL0     H50170   5.401   7.843  10.509 -2.5829 -0.2176 -0.7403
  372MOL0     H50171   5.269   7.662  10.364 -3.9929  0.2116  0.1265
  372MOL0     H50172   5.040   7.636  10.223 -0.6893 -0.7043 -0.3693
  372MOL0     H50173   4.991   7.778  10.150  0.1959  0.1467 -0.8134
  372MOL0     H50174   5.164   7.555  10.032  0.5918  1.2441  0.1939
  372MOL0     H50175   5.134   7.693   9.931  1.3082 -1.9761 -0.2461
  372MOL0     H50176   4.929   7.480  10.024  1.4857  0.4692  1.8703
  372MOL0     H50177   4.986   7.512   9.862 -0.0815  0.3797 -0.1929
  372MOL0     H50178   4.912   7.748   9.873 -0.6402  0.2948 -0.9759
  372MOL0     H50179   4.828   7.717  10.020  1.0393 -0.3318  0.2200
  372MOL0     H50180   4.687   7.847   9.995 -2.9632 -0.6908  1.1151
  372MOL0     H50181   4.597   8.070   9.984 -0.6790  2.0413  1.3615
  372MOL0     H50182   4.441   8.108   9.928  0.4135  1.1562  0.7978
  372MOL0     H50183   4.446   8.021  10.077 -2.3266  0.3202 -1.3695
  372MOL0     H50184   4.138   8.154   9.724 -1.3626  0.0202  1.4818
  372MOL0     H50185   3.959   8.261   9.636 -0.1608  0.4988  1.7311
  372MOL0     H50186   3.727   8.261   9.697 -0.8444 -0.9721  0.6713
  372MOL0     H50187   3.770   8.332   9.540 -1.0036  0.4904 -2.0177
  372MOL0     H50188   3.566   8.406   9.638  1.7203  0.8663 -0.2284
  372MOL0     H50189   3.550   8.361   9.466 -1.4291  1.1943  1.1087
  372MOL0     H50190   3.472   8.174   9.688 -2.3136 -0.2508  0.6530
  372MOL0     H50191   3.461   8.139   9.516  0.6042  0.4157 -1.6258
  372MOL0     H50192   3.311   8.376   9.633  0.9939  0.0305  0.3205
  372MOL0     H50193   3.299   8.313   9.474  1.2917  0.6322  0.7049
  372MOL0     H50194   3.226   8.146   9.731 -0.9730  0.2478  0.7781
  372MOL0     H50195   3.215   8.083   9.568 -1.5035  1.2177 -0.9965
  372MOL0     H50196   3.053   8.323   9.607 -1.6843 -0.0642 -1.4681
  372MOL0     H50197   3.028   8.181   9.512  0.8411 -0.5519 -1.2055
  372MOL0     H50198   2.980   8.223   9.802 -0.2309  0.1570  0.7061
  372MOL0     H50199   2.998   8.053   9.747 -0.1116  0.8568  2.9755
  372MOL0     H50200   2.821   8.082   9.590  0.0700 -0.8084  1.1540
  372MOL0     H50201   2.790   8.248   9.621 -2.2023  0.6470  0.0442
  372MOL0     H50202   3.779   7.884   9.528  0.5464 -0.4787 -1.7411
  372MOL0     H50203   3.971   7.767   9.613 -1.7805 -0.7318  0.4901
  372MOL0     H50204   4.350   7.713   9.669  2.0187  0.2947 -0.7785
  372MOL0     H50205   4.556   7.581   9.677  2.7892 -2.4742  2.3971
  372MOL0     H50206   5.283   7.171  10.636  2.2021  0.0856 -0.0139
  372MOL0     H50207   5.080   7.072  10.530  0.4929 -2.9855  1.4392
  372MOL0     H50208   4.886   6.889  10.106 -0.4347  0.8566 -0.4903
  372MOL0     H50209   4.653   6.833  10.026 -1.4838 -3.9966  0.9454
  372MOL0     H50210   4.501   6.675  10.082 -0.8106 -1.8217  0.5228
  372MOL0     H50211   4.366   6.668  10.202 -0.8083  0.2566 -0.5393
  372MOL0     H50212   4.304   6.644   9.952  1.2754 -0.1977  0.2471
  372MOL0     H50213   4.357   6.806   9.932  0.9668 -0.1193  1.1149
  372MOL0     H50214   4.197   6.899  10.094  1.9248  0.0068 -1.2386
  372MOL0     H50215   4.129   6.737  10.114 -3.5290 -0.7209 -2.3836
  372MOL0     H50216   4.063   6.710   9.887 -1.0511 -0.0324  1.7950
  372MOL0     H50217   4.146   6.858   9.847  2.3885 -0.6639  0.9247
  372MOL0     H50218   3.770   6.921  10.080  0.0573  0.5993 -0.0088
  372MOL0     H50219   4.528   6.915  10.439  4.1554  0.3629  3.5763
  372MOL0     H50220   4.734   6.930  10.508  1.2225 -1.7450  0.1943
  373MOL0     O50221   3.632   3.492   0.241  0.2534 -0.0776  0.1165
  373MOL0     C50222   3.707   3.444   0.326 -1.0949 -0.2681 -0.6768
  373MOL0     O50223   3.677   3.347   0.406 -0.2711  0.3628  0.2905
  373MOL0     C50224   3.542   3.325   0.443 -0.9975  0.0680 -0.5080
  373MOL0     C50225   3.511   3.198   0.489  0.1400 -0.2102  0.0036
  373MOL0     C50226   3.385   3.163   0.539 -0.1239 -0.4812  0.3190
  373MOL0     C50227   3.296   3.273   0.562  0.5493  0.1478  0.8637
  373MOL0     O50228   3.174   3.258   0.619  0.2007  0.5257  0.5250
  373MOL0     C50229   3.135   3.131   0.675  0.7272  0.5310 -0.0724
  373MOL0     C50230   2.992   3.139   0.740 -0.5428 -0.0859 -0.1512
  373MOL0     C50231   2.978   3.253   0.844  0.1503  0.2246 -0.5008
  373MOL0     C50232   2.838   3.274   0.903 -1.0464  0.6240  0.1414
  373MOL0     C50233   2.854   3.397   0.997  0.3989 -0.2797  1.0845
  373MOL0     C50234   2.711   3.407   1.047  0.2235 -0.2261 -0.3205
  373MOL0     C50235   2.717   3.502   1.164  0.2318  0.2150  0.1214
  373MOL0     C50236   2.582   3.563   1.205  0.7301  0.4302 -0.1721
  373MOL0     N50237   2.514   3.464   1.294 -0.0805 -0.1437 -0.2223
  373MOL0     C50238   2.410   3.375   1.249 -0.2162 -0.6243  0.4819
  373MOL0     C50239   2.387   3.295   1.351 -0.2117 -0.2559  0.5919
  373MOL0     C50240   2.286   3.195   1.361  0.4039 -0.4610 -0.1227
  373MOL0     C50241   2.133   3.243   1.374 -0.4569  0.9739 -0.4131
  373MOL0     C50242   2.104   3.320   1.510  0.2589  0.3754  0.0290
  373MOL0     C50243   1.963   3.388   1.516  0.1324 -0.4468 -0.7377
  373MOL0     O50244   1.860   3.285   1.530  0.0518  0.3675 -1.0037
  373MOL0     C50245   1.745   3.332   1.588  0.7079  0.1474  0.5283
  373MOL0     C50246   1.673   3.232   1.655 -0.5527 -0.0640 -0.8045
  373MOL0     C50247   1.548   3.260   1.714  0.3471 -1.0178  0.4095
  373MOL0     C50248   1.467   3.147   1.776  0.4978 -0.2081 -0.3214
  373MOL0     C50249   1.507   3.397   1.717  0.0005 -0.4254 -0.4985
  373MOL0     C50250   1.389   3.451   1.789 -0.4670  1.2498 -0.1425
  373MOL0     O50251   1.373   3.586   1.773  0.3603  0.4809  0.3852
  373MOL0     C50252   1.251   3.636   1.763  0.5378 -0.7857  0.2042
  373MOL0     C50253   1.153   3.617   1.859  0.2197 -0.8226 -0.1449
  373MOL0     C50254   1.031   3.668   1.842 -0.3608  0.2116  0.3624
  373MOL0     C50255   0.993   3.751   1.739 -0.0337 -0.4375  0.3011
  373MOL0     O50256   0.867   3.801   1.734  0.3517 -0.1202  0.2165
  373MOL0     C50257   0.794   3.774   1.617 -0.1419  0.3673 -0.0553
  373MOL0     C50258   0.647   3.808   1.643 -0.5285 -0.4173 -0.1982
  373MOL0     C50259   0.574   3.705   1.729 -0.0595 -0.1583 -0.7488
  373MOL0     C50260   0.432   3.757   1.742 -0.1736 -0.1780 -0.2111
  373MOL0     C50261   0.335   3.661   1.798 -0.0658  0.6282  0.7498
  373MOL0     C50262   0.188   3.702   1.795 -0.0292 -0.2373  0.4077
  373MOL0     C50263   0.161   3.836   1.862 -0.6547 -0.1092 -0.7257
  373MOL0     C50264   0.004   3.871   1.867  0.3322  0.3268 -0.3090
  373MOL0    Cl50265  -0.025   4.039   1.920 -0.0352  0.2246  0.1224
  373MOL0     C50266   1.087   3.772   1.642 -0.7252  0.7317  0.7299
  373MOL0     C50267   1.216   3.717   1.650 -0.5003  0.1672  0.2525
  373MOL0     O50268   1.315   3.381   1.854  0.3932  0.5430  0.0543
  373MOL0     C50269   1.583   3.499   1.651 -0.4121  0.1896  0.3705
  373MOL0     C50270   1.696   3.467   1.582  0.0895  0.4263 -0.0122
  373MOL0     N50271   2.474   3.332   1.450 -0.0718  0.0264  0.4355
  373MOL0     N50272   2.557   3.426   1.417  0.4812  0.0365  0.0198
  373MOL0     C50273   3.333   3.399   0.525 -0.5376 -0.2083  0.2856
  373MOL0     C50274   3.451   3.429   0.469  0.4043  0.1729  0.6711
  373MOL0     C50275   3.846   3.504   0.323  0.4086  0.4473 -0.6695
  373MOL0     C50276   3.947   3.484   0.421  0.2848  0.0912 -0.1105
  373MOL0     C50277   4.066   3.550   0.431 -0.5762 -0.5772  0.6174
  373MOL0     C50278   4.110   3.622   0.318  0.2617  0.4489  0.8301
  373MOL0     O50279   4.225   3.693   0.303  0.1341 -0.1657 -0.0268
  373MOL0     C50280   4.329   3.668   0.398 -0.5522 -0.0170  0.2350
  373MOL0     C50281   4.455   3.673   0.314  0.2547 -0.6312 -1.4077
  373MOL0     C50282   4.478   3.809   0.246  0.3945  0.1916  0.2953
  373MOL0     C50283   4.622   3.829   0.213  0.3081 -0.2120  0.2113
  373MOL0     C50284   4.668   3.760   0.095  0.3028  0.3282  0.1355
  373MOL0     C50285   4.709   3.712  -0.013 -0.7614  1.1549 -0.2361
  373MOL0     C50286   4.016   3.638   0.216  0.6337  0.2258  0.4765
  373MOL0     C50287   3.884   3.584   0.217  0.8659 -0.4939  0.6845
  373MOL0     H50288   3.588   3.122   0.474  0.6165  0.5102 -1.4140
  373MOL0     H50289   3.363   3.058   0.554  1.4201 -0.7434  0.9878
  373MOL0     H50290   3.138   3.048   0.603 -2.0551  0.1245  0.1862
  373MOL0     H50291   3.215   3.106   0.745 -0.8552 -0.0699  1.5777
  373MOL0     H50292   2.920   3.147   0.658 -1.2610 -0.8345  0.3977
  373MOL0     H50293   2.979   3.043   0.791  0.8338 -0.1052  0.2172
  373MOL0     H50294   3.042   3.239   0.932 -2.4159 -2.8994  1.0642
  373MOL0     H50295   3.007   3.351   0.806 -0.7606  1.7465  2.4291
  373MOL0     H50296   2.756   3.280   0.831 -2.2981  1.8282  1.6014
  373MOL0     H50297   2.820   3.185   0.964 -0.5511  0.3890 -0.0414
  373MOL0     H50298   2.921   3.368   1.079 -0.4814 -0.1541  1.8704
  373MOL0     H50299   2.871   3.492   0.945 -0.9197 -0.9718 -0.6991
  373MOL0     H50300   2.656   3.445   0.961 -0.2240 -0.3986 -0.1160
  373MOL0     H50301   2.679   3.309   1.084  0.6768 -0.3833 -0.3491
  373MOL0     H50302   2.779   3.468   1.247  2.4191  2.0274 -0.6498
  373MOL0     H50303   2.769   3.592   1.129 -0.9454  0.7013 -0.4432
  373MOL0     H50304   2.518   3.591   1.120  2.6325 -0.1853 -1.8786
  373MOL0     H50305   2.598   3.655   1.262 -1.9521  0.5534  0.5467
  373MOL0     H50306   2.364   3.388   1.152 -2.9700  1.4542  1.9256
  373MOL0     H50307   2.299   3.127   1.276 -0.4242 -0.8065  0.0136
  373MOL0     H50308   2.305   3.133   1.449  0.4323  0.2811  0.4033
  373MOL0     H50309   2.063   3.159   1.375 -2.2106  2.3834 -0.5076
  373MOL0     H50310   2.111   3.302   1.285 -0.9698 -0.8312 -1.5443
  373MOL0     H50311   2.182   3.394   1.532  1.0569 -0.3808 -0.1944
  373MOL0     H50312   2.111   3.243   1.587  1.5730  2.4401  2.1004
  373MOL0     H50313   1.948   3.435   1.418  2.0339 -0.6181 -1.1624
  373MOL0     H50314   1.956   3.467   1.591  1.8750 -0.3263 -0.6519
  373MOL0     H50315   1.704   3.130   1.636  2.9624  0.3357  1.9510
  373MOL0     H50316   1.466   3.172   1.882  0.1882 -1.8937  0.1124
  373MOL0     H50317   1.366   3.135   1.736  0.8694  2.4456 -2.3132
  373MOL0     H50318   1.517   3.050   1.764 -2.4765 -2.1175  1.4921
  373MOL0     H50319   1.182   3.549   1.939  0.2591  0.2220  0.7458
  373MOL0     H50320   0.946   3.655   1.909 -0.8477  1.9325  0.1199
  373MOL0     H50321   0.835   3.835   1.536  1.1117  2.7936  2.2557
  373MOL0     H50322   0.795   3.666   1.596 -2.0458  0.3352 -0.1361
  373MOL0     H50323   0.641   3.908   1.688 -1.7338  0.2131 -1.6840
  373MOL0     H50324   0.596   3.821   1.547  0.8088  3.4268 -0.5509
  373MOL0     H50325   0.621   3.691   1.826 -3.2848  0.2924  1.0049
  373MOL0     H50326   0.584   3.603   1.692 -0.8447 -0.9577  1.1697
  373MOL0     H50327   0.433   3.842   1.811  2.4586 -2.6320  3.1042
  373MOL0     H50328   0.402   3.786   1.641 -1.3978  2.0429  0.7101
  373MOL0     H50329   0.358   3.641   1.903 -1.2314  4.2845  1.8596
  373MOL0     H50330   0.345   3.573   1.735  1.0850  2.2026 -1.4235
  373MOL0     H50331   0.163   3.717   1.689  1.1562 -2.4471 -0.2478
  373MOL0     H50332   0.133   3.616   1.833  2.0322 -1.4787  0.7092
  373MOL0     H50333   0.223   3.910   1.810  1.1805 -0.7906  0.4059
  373MOL0     H50334   0.196   3.844   1.965 -1.6916  0.8457 -0.4249
  373MOL0     H50335  -0.046   3.805   1.938 -1.0497 -1.8822 -3.1258
  373MOL0     H50336  -0.035   3.844   1.769  3.2530 -0.0793 -1.4620
  373MOL0     H50337   1.066   3.829   1.552  0.2326 -0.2213 -0.1306
  373MOL0     H50338   1.277   3.729   1.561 -2.5474 -0.6545 -1.3563
  373MOL0     H50339   1.563   3.605   1.639 -0.6420  0.0696 -0.3989
  373MOL0     H50340   1.761   3.529   1.521  1.0400 -2.6600 -2.4083
  373MOL0     H50341   3.263   3.479   0.550 -1.4402  0.0950 -2.7256
  373MOL0     H50342   3.479   3.532   0.449 -2.4687  0.8036 -0.5649
  373MOL0     H50343   3.916   3.431   0.510  0.2985 -0.0161 -0.1688
  373MOL0     H50344   4.120   3.556   0.525  0.2530  0.0047  0.1153
  373MOL0     H50345   4.313   3.735   0.483 -1.5231 -1.0432  0.8915
  373MOL0     H50346   4.328   3.573   0.452 -1.2164  0.0274  0.3155
  373MOL0     H50347   4.452   3.584   0.251  1.1258 -0.0334 -2.3303
  373MOL0     H50348   4.537   3.657   0.384  0.2502  1.9034 -0.6970
  373MOL0     H50349   4.442   3.881   0.321  1.2282 -1.7667  2.6974
  373MOL0     H50350   4.424   3.803   0.151 -0.9526  2.5855  0.8084
  373MOL0     H50351   4.683   3.780   0.290  3.6722  2.6587 -0.3623
  373MOL0     H50352   4.648   3.935   0.209  0.5431 -0.2253  1.2239
  373MOL0     H50353   4.758   3.686  -0.105  0.4675 -0.0784  0.7193
  373MOL0     H50354   4.039   3.694   0.126 -0.0234  1.1665  0.8840
  373MOL0     H50355   3.816   3.598   0.134 -0.5063 -0.1872  1.8393
  374MOL0     O50356   6.286   1.846   9.950 -0.2446  1.0586 -0.0069
  374MOL0     C50357   6.378   1.786  10.002 -0.0347  0.1477  0.1200
  374MOL0     O50358   6.373   1.660  10.048 -0.1304 -0.0855 -0.3338
  374MOL0     C50359   6.251   1.595  10.051  0.0503  0.8281 -0.4137
  374MOL0     C50360   6.251   1.466  10.011 -0.0438 -0.0642  0.5905
  374MOL0     C50361   6.136   1.381  10.012  0.3468 -0.5619  0.8072
  374MOL0     C50362   6.012   1.436  10.050  0.4034  0.1237  0.1797
  374MOL0     O50363   5.899   1.348  10.041  0.5855 -0.2714  0.1997
  374MOL0     C50364   5.764   1.403  10.010 -0.0989 -0.0388 -0.4205
  374MOL0     C50365   5.668   1.295   9.970  0.9633  0.6721  0.8571
  374MOL0     C50366   5.530   1.358   9.926  0.0933  0.6408 -0.0800
  374MOL0     C50367   5.545   1.457   9.812 -0.4715 -1.4445 -0.2926
  374MOL0     C50368   5.410   1.513   9.752  0.8578 -0.1806  0.3300
  374MOL0     C50369   5.379   1.435   9.624 -0.3669 -0.0970  0.3415
  374MOL0     C50370   5.451   1.489   9.506 -0.3539 -0.4785 -0.9612
  374MOL0     C50371   5.381   1.608   9.445  0.3566 -0.4733 -0.0168
  374MOL0     N50372   5.455   1.662   9.335 -0.0594 -0.4987  0.9572
  374MOL0     C50373   5.491   1.794   9.318 -0.1014 -0.0224 -0.2924
  374MOL0     C50374   5.525   1.807   9.192  0.1955  0.1338 -0.4554
  374MOL0     C50375   5.557   1.943   9.125 -0.3629 -0.4351 -0.0050
  374MOL0     C50376   5.447   1.992   9.037 -0.0619  1.2255 -0.3989
  374MOL0     C50377   5.464   2.141   8.990 -0.3610  0.3544 -0.1633
  374MOL0     C50378   5.387   2.241   9.081 -0.2606  0.0764 -0.0352
  374MOL0     O50379   5.392   2.368   9.028  0.3543 -0.0469 -0.4447
  374MOL0     C50380   5.303   2.466   9.070  0.1179 -0.3077  0.8426
  374MOL0     C50381   5.300   2.589   9.012 -0.1004 -0.6591  1.4750
  374MOL0     C50382   5.218   2.703   9.054  0.0429 -0.4349 -0.4617
  374MOL0     C50383   5.213   2.825   8.972  0.7709 -0.0714  0.7854
  374MOL0     C50384   5.129   2.680   9.166  0.0581 -0.3020  0.6383
  374MOL0     C50385   5.028   2.777   9.221  0.3633 -0.0404 -0.2781
  374MOL0     O50386   4.949   2.729   9.315  0.1574 -0.2100  0.1025
  374MOL0     C50387   4.821   2.774   9.349  0.0610  0.7177  0.2009
  374MOL0     C50388   4.740   2.870   9.273  0.7410  0.0253  0.2975
  374MOL0     C50389   4.617   2.908   9.318  0.1521  0.1093 -0.2141
  374MOL0     C50390   4.557   2.845   9.435  0.3682 -0.0649  1.0152
  374MOL0     O50391   4.421   2.872   9.460 -0.2649  0.2757  0.0089
  374MOL0     C50392   4.374   2.862   9.594 -0.3109  0.4498  0.0259
  374MOL0     C50393   4.236   2.938   9.621 -0.1812  0.2401  0.3095
  374MOL0     C50394   4.256   3.094   9.643  0.5109 -0.9386 -0.3300
  374MOL0     C50395   4.256   3.133   9.794 -0.0243  0.4232 -0.0078
  374MOL0     C50396   4.388   3.204   9.829  0.0994 -0.2052  0.0607
  374MOL0     C50397   4.383   3.250   9.977 -0.1287  0.2722 -0.5380
  374MOL0     C50398   4.521   3.312  10.010  0.0476 -1.2218  0.5557
  374MOL0     C50399   4.543   3.334  10.161 -0.1640 -0.6494 -0.2008
  374MOL0    Cl50400   4.686   3.438  10.178 -0.5230  0.3986 -0.1166
  374MOL0     C50401   4.627   2.752   9.514  0.3087  0.7278  0.3634
  374MOL0     C50402   4.762   2.713   9.464 -0.3586 -0.2052 -0.0529
  374MOL0     O50403   5.028   2.891   9.182 -0.2676  0.1577 -0.0883
  374MOL0     C50404   5.137   2.549   9.228 -0.4461 -0.4831 -0.6992
  374MOL0     C50405   5.220   2.452   9.178 -0.1117  0.3508  0.2650
  374MOL0     N50406   5.499   1.691   9.131 -0.3069  0.7024  0.2416
  374MOL0     N50407   5.456   1.603   9.207  0.1560  0.0098 -0.0984
  374MOL0     C50408   6.017   1.566  10.099 -0.3667  0.0535  0.5113
  374MOL0     C50409   6.130   1.648  10.101  0.7560 -0.6416  0.3295
  374MOL0     C50410   6.502   1.877  10.021  0.3885 -0.1970  0.5231
  374MOL0     C50411   6.507   2.019  10.006 -0.2374 -0.6054  0.0900
  374MOL0     C50412   6.618   2.094  10.030  0.1119  0.7046 -1.1725
  374MOL0     C50413   6.738   2.028  10.071 -0.1366  0.2342 -0.0467
  374MOL0     O50414   6.850   2.102  10.083  0.2567  0.4279 -0.4907
  374MOL0     C50415   6.835   2.237  10.127 -0.0997 -0.2049 -0.9165
  374MOL0     C50416   6.950   2.293  10.204 -0.1705  1.1156  0.7483
  374MOL0     C50417   7.086   2.328  10.134  0.0909 -0.1328 -1.5890
  374MOL0     C50418   7.167   2.197  10.129 -0.2757  0.3405 -0.4541
  374MOL0     C50419   7.301   2.221  10.084  0.2456 -1.0394  0.2903
  374MOL0     C50420   7.413   2.257  10.051 -0.2178  0.4584 -0.1715
  374MOL0     C50421   6.743   1.885  10.079  0.9167 -0.2103 -0.5503
  374MOL0     C50422   6.622   1.818  10.063  0.0206  0.4803 -0.0509
  374MOL0     H50423   6.344   1.436   9.964 -0.0775 -1.7006  1.4875
  374MOL0     H50424   6.130   1.286   9.959  1.3464 -0.2120  0.0546
  374MOL0     H50425   5.719   1.442  10.102  2.3902  2.9278 -0.2988
  374MOL0     H50426   5.764   1.483   9.935 -2.3927 -0.3546 -0.8153
  374MOL0     H50427   5.713   1.251   9.881  0.9895 -0.5962  1.4815
  374MOL0     H50428   5.650   1.216  10.043 -1.5857  0.4865  0.1364
  374MOL0     H50429   5.467   1.276   9.888  1.0781  0.8725 -2.4246
  374MOL0     H50430   5.479   1.412  10.006  1.7674  2.7643 -0.3394
  374MOL0     H50431   5.585   1.549   9.857 -2.1384  0.1058 -1.8103
  374MOL0     H50432   5.604   1.416   9.729 -0.9939  0.0282 -1.4526
  374MOL0     H50433   5.329   1.498   9.823  0.8574  0.9661  0.6061
  374MOL0     H50434   5.427   1.621   9.742  1.4100 -0.2548  0.4241
  374MOL0     H50435   5.405   1.331   9.647  0.6387  0.3109  1.0992
  374MOL0     H50436   5.270   1.441   9.615 -0.2440  1.9130 -0.4387
  374MOL0     H50437   5.558   1.508   9.520 -0.6152  0.9377 -0.7648
  374MOL0     H50438   5.435   1.414   9.427 -2.2545 -0.1628 -0.9065
  374MOL0     H50439   5.369   1.685   9.522 -1.7460  0.8375 -1.5278
  374MOL0     H50440   5.283   1.583   9.403  0.3052  0.3847 -0.4166
  374MOL0     H50441   5.483   1.875   9.390  0.6259 -0.6176  0.4804
  374MOL0     H50442   5.574   2.019   9.202 -0.6989 -0.5134  0.1466
  374MOL0     H50443   5.650   1.939   9.068 -1.2937 -0.8321 -1.5374
  374MOL0     H50444   5.356   1.983   9.098  0.4810 -2.7531  0.1140
  374MOL0     H50445   5.447   1.925   8.951  0.9457  0.2652  0.3293
  374MOL0     H50446   5.425   2.138   8.888  2.2400 -2.1684 -1.2128
  374MOL0     H50447   5.569   2.168   8.981 -0.4571  0.4638 -1.0460
  374MOL0     H50448   5.415   2.255   9.186  0.2826  0.1900 -0.1888
  374MOL0     H50449   5.285   2.202   9.077 -0.6765  1.2289 -2.1757
  374MOL0     H50450   5.350   2.609   8.918 -0.4499  1.8111  1.7398
  374MOL0     H50451   5.255   2.911   9.023 -2.4966  0.5963  2.6059
  374MOL0     H50452   5.273   2.808   8.881 -0.6299 -0.8232 -0.0327
  374MOL0     H50453   5.110   2.843   8.940  1.9261  1.6825 -2.3873
  374MOL0     H50454   4.786   2.926   9.192  1.9969 -0.4820  0.6403
  374MOL0     H50455   4.561   2.971   9.248 -0.5423  1.8214  1.7645
  374MOL0     H50456   4.350   2.757   9.615 -3.5995  1.3857  1.5266
  374MOL0     H50457   4.446   2.894   9.671  1.5082 -3.6432  0.3021
  374MOL0     H50458   4.173   2.920   9.533 -0.9078  1.1556  0.6315
  374MOL0     H50459   4.174   2.885   9.693 -0.3254  0.4538  0.3452
  374MOL0     H50460   4.184   3.151   9.583 -0.3749 -1.0712  0.5771
  374MOL0     H50461   4.356   3.125   9.613  1.1016  0.7950  2.9593
  374MOL0     H50462   4.171   3.200   9.808 -0.8000 -0.5274 -0.0925
  374MOL0     H50463   4.243   3.047   9.859 -0.9685 -0.1331 -0.9086
  374MOL0     H50464   4.405   3.289   9.763  1.0991 -0.4106  0.0343
  374MOL0     H50465   4.467   3.132   9.803 -0.7679  0.5911 -6.2172
  374MOL0     H50466   4.301   3.321   9.987 -0.4672 -0.2857  1.0546
  374MOL0     H50467   4.372   3.162  10.042 -1.8327 -1.1297 -2.6113
  374MOL0     H50468   4.534   3.407   9.957  0.2097 -2.0157 -0.8676
  374MOL0     H50469   4.600   3.245   9.976  1.0562 -1.3607  2.9424
  374MOL0     H50470   4.554   3.241  10.218  2.2524 -2.1503 -2.8768
  374MOL0     H50471   4.459   3.390  10.203  0.3043 -0.1104  0.0284
  374MOL0     H50472   4.580   2.705   9.600 -1.3945  0.0154 -0.9093
  374MOL0     H50473   4.822   2.641   9.519  0.6030 -0.3563 -1.2662
  374MOL0     H50474   5.073   2.528   9.313  1.0312  1.7804  1.0760
  374MOL0     H50475   5.211   2.354   9.223  0.6455  0.1811  0.0608
  374MOL0     H50476   5.924   1.602  10.140 -0.6229 -1.3672  1.2385
  374MOL0     H50477   6.121   1.745  10.150  5.0418  0.2117 -0.1173
  374MOL0     H50478   6.418   2.076   9.981 -1.6020 -2.0666  1.3758
  374MOL0     H50479   6.628   2.201  10.016  0.8138  0.7044 -0.7107
  374MOL0     H50480   6.809   2.305  10.045  2.6551  2.2163  0.0281
  374MOL0     H50481   6.753   2.242  10.198 -0.1496 -1.1642 -0.8943
  374MOL0     H50482   6.973   2.221  10.283  2.8521  0.1419 -0.8745
  374MOL0     H50483   6.921   2.383  10.260  1.4642  1.6998  0.7221
  374MOL0     H50484   7.131   2.404  10.197 -1.0784 -0.4307 -0.3238
  374MOL0     H50485   7.062   2.364  10.033  0.0071  1.1306 -1.1249
  374MOL0     H50486   7.131   2.119  10.061  0.6275  2.0938 -3.0985
  374MOL0     H50487   7.166   2.146  10.225 -1.2770  1.5406  0.2013
  374MOL0     H50488   7.508   2.288  10.014  1.4871 -1.5628  2.2221
  374MOL0     H50489   6.834   1.836  10.113  0.1480 -3.5175 -2.8126
  374MOL0     H50490   6.628   1.710  10.064  0.1377  0.4874 -0.0337
  375MOL0     O50491   5.523  10.784   6.670 -0.2317  0.0805 -0.0646
  375MOL0     C50492   5.606  10.707   6.625 -0.5267  0.6453  0.5320
  375MOL0     O50493   5.617  10.654   6.497  0.2721 -0.2839 -0.6905
  375MOL0     C50494   5.530  10.705   6.403  0.1239 -0.1229  0.5841
  375MOL0     C50495   5.392  10.712   6.420 -0.4296  0.6472  0.3884
  375MOL0     C50496   5.299  10.747   6.315 -0.2464 -0.3850 -0.9091
  375MOL0     C50497   5.356  10.769   6.188 -0.7449 -0.4995 -0.1015
  375MOL0     O50498   5.278  10.803   6.082 -0.3764 -0.3715  0.7583
  375MOL0     C50499   5.137  10.838   6.094 -0.8243  0.2852  0.2944
  375MOL0     C50500   5.087  10.850   5.951  0.3812 -0.3716 -0.6093
  375MOL0     C50501   4.945  10.908   5.952 -0.5705 -0.5029  0.2645
  375MOL0     C50502   4.953  11.058   5.918 -0.4877 -0.0781 -0.1994
  375MOL0     C50503   4.821  11.123   5.876  0.3791 -0.0890 -0.4198
  375MOL0     C50504   4.733  11.156   6.001  0.8450  0.0881  1.0050
  375MOL0     C50505   4.597  11.193   5.945  1.3596  0.1604  0.2603
  375MOL0     C50506   4.483  11.171   6.049 -1.0269 -1.3356 -0.5065
  375MOL0     N50507   4.369  11.243   6.008 -0.0876  0.2271  0.1096
  375MOL0     C50508   4.355  11.380   6.012  0.1333  0.0206  0.2150
  375MOL0     C50509   4.217  11.395   6.008  1.3288  0.2256 -0.2822
  375MOL0     C50510   4.136  11.517   6.010  0.1165  0.1960  0.1370
  375MOL0     C50511   4.139  11.598   6.132 -0.2822  0.7458 -0.1212
  375MOL0     C50512   4.110  11.523   6.261  0.8349 -0.0108  0.4998
  375MOL0     C50513   4.114  11.624   6.379 -0.2297 -0.3241  0.1999
  375MOL0     O50514   4.082  11.544   6.499  0.4725 -0.8192 -0.8548
  375MOL0     C50515   3.954  11.513   6.527 -1.3879  0.9203 -0.0913
  375MOL0     C50516   3.945  11.448   6.652  0.0200  0.0723  0.1280
  375MOL0     C50517   3.822  11.404   6.706 -0.8326  0.4663  0.2232
  375MOL0     C50518   3.847  11.305   6.821 -0.0377 -1.0545  0.0510
  375MOL0     C50519   3.700  11.436   6.646 -0.2414  0.8414  0.0900
  375MOL0     C50520   3.569  11.410   6.713  0.1801 -0.1501  0.3229
  375MOL0     O50521   3.462  11.375   6.631 -0.6321  0.3964  0.1471
  375MOL0     C50522   3.336  11.345   6.675 -0.1031  0.2056  0.3008
  375MOL0     C50523   3.264  11.267   6.587 -0.5788 -0.1859 -0.3230
  375MOL0     C50524   3.137  11.216   6.621 -0.1797 -0.6064  0.0109
  375MOL0     C50525   3.080  11.261   6.742 -0.5947 -0.1144 -0.3858
  375MOL0     O50526   2.962  11.204   6.779 -0.4085  0.0814  0.6881
  375MOL0     C50527   2.849  11.298   6.773 -0.0110  0.4445  0.7960
  375MOL0     C50528   2.735  11.254   6.869 -0.3865 -0.5430 -0.1575
  375MOL0     C50529   2.695  11.112   6.839 -0.1580 -0.2585  0.3297
  375MOL0     C50530   2.583  11.070   6.935  0.6249  0.0783  0.2365
  375MOL0     C50531   2.448  11.131   6.895  0.2260 -0.4903  0.0910
  375MOL0     C50532   2.335  11.085   6.996 -0.4854  0.6352  0.4630
  375MOL0     C50533   2.196  11.116   6.945  0.3680 -0.7271  0.7595
  375MOL0     C50534   2.105  11.137   7.066 -0.0761  0.0576 -0.6178
  375MOL0    Cl50535   1.929  11.131   7.015 -0.1074 -0.1897  0.8346
  375MOL0     C50536   3.146  11.340   6.835  0.0430  0.2570  0.2641
  375MOL0     C50537   3.275  11.379   6.800  0.6913  0.0260 -0.5395
  375MOL0     O50538   3.567  11.427   6.833 -0.4582 -0.7778 -0.8481
  375MOL0     C50539   3.708  11.513   6.529  0.1345 -0.1669  1.0754
  375MOL0     C50540   3.836  11.546   6.464 -0.5264  0.0377  0.3894
  375MOL0     N50541   4.159  11.269   5.984  0.2978  0.7997  0.2072
  375MOL0     N50542   4.247  11.184   5.991 -0.0601  0.3315  0.1633
  375MOL0     C50543   5.484  10.764   6.165  0.5657 -0.6205 -0.0686
  375MOL0     C50544   5.573  10.731   6.266  0.9002 -0.4047 -0.7321
  375MOL0     C50545   5.703  10.658   6.734 -0.0955  0.4144  0.3309
  375MOL0     C50546   5.823  10.599   6.696  0.0807  0.4699  0.2904
  375MOL0     C50547   5.910  10.555   6.799  0.4647  0.6205  0.5344
  375MOL0     C50548   5.890  10.570   6.936  0.2725 -0.2908  0.5331
  375MOL0     O50549   5.988  10.535   7.031  0.9318  0.0646  0.0546
  375MOL0     C50550   6.038  10.403   7.012 -0.2209 -0.0057 -1.2054
  375MOL0     C50551   5.932  10.299   7.052  0.7307  0.1401 -0.3310
  375MOL0     C50552   5.887  10.304   7.196  0.3610  0.9534 -0.7858
  375MOL0     C50553   5.993  10.251   7.298  0.1785 -0.1976 -0.1033
  375MOL0     C50554   6.031  10.113   7.293 -0.4429  0.0365  0.2807
  375MOL0     C50555   6.048   9.989   7.300  0.0234  0.1900  0.2502
  375MOL0     C50556   5.761  10.611   6.974 -0.1925 -0.3225 -0.5999
  375MOL0     C50557   5.672  10.659   6.878 -0.5150 -0.5332 -0.1145
  375MOL0     H50558   5.343  10.678   6.511 -1.8617  2.4867  0.3774
  375MOL0     H50559   5.191  10.748   6.325 -0.4328  1.7764 -2.3263
  375MOL0     H50560   5.075  10.758   6.136  1.9442 -1.3193  1.6490
  375MOL0     H50561   5.123  10.935   6.143  3.4481  1.4104 -0.3454
  375MOL0     H50562   5.165  10.905   5.896  0.8503 -1.7296 -1.3468
  375MOL0     H50563   5.083  10.755   5.899  1.7309  0.4277 -2.2744
  375MOL0     H50564   4.889  10.867   5.868 -0.7723 -0.6412  0.4640
  375MOL0     H50565   4.887  10.887   6.043 -0.9240  1.4101  0.5402
  375MOL0     H50566   5.002  11.119   5.995  1.6971  0.1743 -1.6757
  375MOL0     H50567   5.027  11.065   5.837  2.4668  0.8498  2.3821
  375MOL0     H50568   4.845  11.217   5.824 -1.4108 -0.5706 -2.2524
  375MOL0     H50569   4.767  11.067   5.799 -3.5346  1.6214  0.7847
  375MOL0     H50570   4.724  11.066   6.062  0.9661  0.1411  1.1018
  375MOL0     H50571   4.772  11.241   6.058  2.5355 -1.0499  1.6312
  375MOL0     H50572   4.605  11.296   5.911  0.1725 -0.3835 -1.8037
  375MOL0     H50573   4.577  11.133   5.856  3.0220  1.6981 -1.2055
  375MOL0     H50574   4.517  11.216   6.143 -2.5915 -0.5296 -0.2876
  375MOL0     H50575   4.460  11.066   6.067 -1.5725 -2.1963 -5.0387
  375MOL0     H50576   4.426  11.461   6.025 -0.7786  1.1110 -1.1770
  375MOL0     H50577   4.171  11.574   5.923 -1.3113 -0.7723 -1.1350
  375MOL0     H50578   4.034  11.481   5.992  0.0759  1.1528 -1.7663
  375MOL0     H50579   4.056  11.668   6.124 -2.6329 -1.6924  1.4760
  375MOL0     H50580   4.231  11.658   6.136  0.1736  0.0046  1.9788
  375MOL0     H50581   4.184  11.443   6.275  0.3925 -0.7351 -1.0212
  375MOL0     H50582   4.011  11.478   6.255  0.9706 -0.2987  0.3697
  375MOL0     H50583   4.046  11.709   6.368  1.3472  0.6491 -3.6744
  375MOL0     H50584   4.217  11.659   6.389  0.5092 -2.4876  0.7137
  375MOL0     H50585   4.040  11.413   6.690  0.4319  0.7552 -0.2468
  375MOL0     H50586   3.858  11.206   6.775 -2.3908 -1.2358 -0.2306
  375MOL0     H50587   3.938  11.330   6.877  0.3759 -1.8130 -0.2594
  375MOL0     H50588   3.768  11.292   6.895  0.3019 -1.9355  0.2762
  375MOL0     H50589   3.291  11.240   6.486 -0.6625  0.3607 -0.4965
  375MOL0     H50590   3.068  11.167   6.554 -0.4113  0.7152 -0.7659
  375MOL0     H50591   2.881  11.400   6.798  1.3443  0.5526 -1.1624
  375MOL0     H50592   2.814  11.309   6.670 -1.8950  0.8389  1.4214
  375MOL0     H50593   2.779  11.250   6.968 -1.0482 -2.4056  0.0971
  375MOL0     H50594   2.650  11.324   6.867  0.6956  0.8208 -0.3461
  375MOL0     H50595   2.780  11.043   6.841  2.4024  2.5894 -1.4941
  375MOL0     H50596   2.653  11.104   6.738  1.0446  1.8272 -0.4032
  375MOL0     H50597   2.586  10.961   6.930 -0.3988  0.0831 -1.7123
  375MOL0     H50598   2.611  11.097   7.037 -0.1134 -0.6295  0.6354
  375MOL0     H50599   2.426  11.099   6.793  0.9903 -1.0374  0.0822
  375MOL0     H50600   2.455  11.239   6.881 -1.1409 -0.6329 -2.1299
  375MOL0     H50601   2.343  10.977   7.009 -0.4670  0.9000  3.1939
  375MOL0     H50602   2.359  11.130   7.093 -0.1058 -0.9531  1.1455
  375MOL0     H50603   2.161  11.042   6.871 -2.2136  3.2653 -2.4679
  375MOL0     H50604   2.190  11.205   6.882 -0.7024 -1.0834  0.3209
  375MOL0     H50605   2.138  11.234   7.105 -0.5508  0.1527 -0.4494
  375MOL0     H50606   2.123  11.060   7.142  2.8005  0.8583 -0.3354
  375MOL0     H50607   3.094  11.372   6.924 -0.6608  1.1719 -0.4594
  375MOL0     H50608   3.329  11.450   6.863  0.7645  1.5279 -2.2196
  375MOL0     H50609   3.622  11.550   6.475  1.4062 -0.9049 -1.6635
  375MOL0     H50610   3.848  11.613   6.380  1.4554 -0.2006  0.4289
  375MOL0     H50611   5.524  10.765   6.064  0.9086  2.2888 -0.0094
  375MOL0     H50612   5.677  10.717   6.239  0.9289 -1.8892  0.0593
  375MOL0     H50613   5.855  10.598   6.592  3.6274  0.5636  1.2290
  375MOL0     H50614   6.003  10.509   6.765  0.8063  0.3865  1.7388
  375MOL0     H50615   6.087  10.374   6.918  4.0155 -0.0644  0.8072
  375MOL0     H50616   6.111  10.390   7.092 -1.1170  0.1891 -0.3448
  375MOL0     H50617   5.962  10.198   7.022  0.7708  0.0701 -0.0603
  375MOL0     H50618   5.842  10.314   6.992  0.1625  0.2698  0.5315
  375MOL0     H50619   5.799  10.241   7.212  2.3046 -1.7249 -0.0730
  375MOL0     H50620   5.860  10.406   7.225  1.6017  0.2380  3.6365
  375MOL0     H50621   5.951  10.274   7.397  0.3192 -0.4854  0.0264
  375MOL0     H50622   6.081  10.316   7.295 -0.5570  0.7966 -1.6734
  375MOL0     H50623   6.067   9.886   7.324  2.1405 -0.1641 -2.4262
  375MOL0     H50624   5.738  10.610   7.080 -0.7783 -2.4837 -0.7005
  375MOL0     H50625   5.575  10.696   6.908 -0.2761  0.6733 -0.7937
  376MOL0     O50626   2.765   8.559   4.616  0.4072 -0.0413 -0.4614
  376MOL0     C50627   2.808   8.469   4.684  0.0539  0.2219 -0.1176
  376MOL0     O50628   2.741   8.356   4.722  0.6864 -0.3645  0.3186
  376MOL0     C50629   2.620   8.316   4.661  0.4229 -0.5107  0.5687
  376MOL0     C50630   2.514   8.405   4.616  0.2166 -0.5858  0.1076
  376MOL0     C50631   2.391   8.357   4.574  0.3067  0.2273 -0.1279
  376MOL0     C50632   2.374   8.222   4.547  0.7474 -0.1796  0.1502
  376MOL0     O50633   2.247   8.189   4.505  0.5728 -0.2127 -0.2762
  376MOL0     C50634   2.238   8.088   4.409  0.1383 -0.1250  0.6627
  376MOL0     C50635   2.284   8.137   4.269  0.5392 -0.7303 -0.8557
  376MOL0     C50636   2.256   8.028   4.168 -0.7954  0.7777  0.0343
  376MOL0     C50637   2.112   8.043   4.116 -0.7176 -0.0652 -0.0888
  376MOL0     C50638   2.115   7.927   4.006  0.4020  0.4503  0.7017
  376MOL0     C50639   1.973   7.898   3.946  0.3981  0.2815  0.5994
  376MOL0     C50640   1.886   7.840   4.053  0.6143 -0.5106 -0.4916
  376MOL0     C50641   1.763   7.763   3.984  0.6071  0.4050 -0.9239
  376MOL0     N50642   1.654   7.855   3.935  0.2124 -0.2383  0.2117
  376MOL0     C50643   1.614   7.972   4.006  0.0859  0.3192 -0.7569
  376MOL0     C50644   1.521   8.027   3.921 -0.4717  0.5315  0.8028
  376MOL0     C50645   1.430   8.145   3.956  0.5917 -0.3519  0.0933
  376MOL0     C50646   1.301   8.113   4.025 -0.2679  0.5757 -0.7132
  376MOL0     C50647   1.206   8.225   4.073 -0.2859  0.5703 -0.3976
  376MOL0     C50648   1.061   8.181   4.097  0.6412  0.3690 -0.0713
  376MOL0     O50649   0.994   8.302   4.129  0.0482 -0.4699 -0.0043
  376MOL0     C50650   0.854   8.313   4.160 -0.5570  0.8531 -0.1297
  376MOL0     C50651   0.797   8.440   4.147 -0.4750 -0.1210 -0.2602
  376MOL0     C50652   0.669   8.469   4.189  0.8800 -0.1381  0.6865
  376MOL0     C50653   0.620   8.613   4.204 -0.0278  0.4587  0.1907
  376MOL0     C50654   0.583   8.361   4.233  0.3289  0.4283  0.6329
  376MOL0     C50655   0.443   8.381   4.276 -0.0763 -0.0091  0.2135
  376MOL0     O50656   0.388   8.302   4.372  0.9336 -0.4120  0.5557
  376MOL0     C50657   0.252   8.295   4.409  0.3636  0.9356 -0.9425
  376MOL0     C50658   0.151   8.386   4.386 -0.2867 -0.2320  0.6152
  376MOL0     C50659   0.024   8.356   4.422 -0.0669 -0.2822 -0.2210
  376MOL0     C50660  -0.014   8.242   4.475  0.8173  0.7424 -0.4894
  376MOL0     O50661  -0.146   8.202   4.492 -0.3386 -0.7004 -0.2102
  376MOL0     C50662  -0.192   8.182   4.629 -0.2438  0.0344 -0.1487
  376MOL0     C50663  -0.264   8.318   4.664 -0.3117  0.0326 -0.1652
  376MOL0     C50664  -0.356   8.309   4.776  0.2128  0.8004  0.4120
  376MOL0     C50665  -0.279   8.259   4.898 -0.4874 -0.1800 -0.7757
  376MOL0     C50666  -0.371   8.243   5.022 -0.2692 -1.0165 -0.4822
  376MOL0     C50667  -0.293   8.202   5.145  0.8996  1.2957  0.0440
  376MOL0     C50668  -0.257   8.320   5.230 -0.7213  0.0947 -0.6548
  376MOL0     C50669  -0.180   8.268   5.357  0.5039  0.0033 -0.0391
  376MOL0    Cl50670  -0.067   8.395   5.415  0.2183  0.1984  0.1024
  376MOL0     C50671   0.084   8.137   4.502  0.1784 -0.1444  0.1216
  376MOL0     C50672   0.221   8.170   4.469 -0.0301 -0.6790  0.8320
  376MOL0     O50673   0.382   8.464   4.211  0.6977  0.0102  0.2388
  376MOL0     C50674   0.637   8.232   4.235 -0.1133  0.4067 -0.1675
  376MOL0     C50675   0.771   8.210   4.207 -0.4300 -0.0585 -0.3514
  376MOL0     N50676   1.511   7.947   3.804  0.0920 -0.1516 -0.6729
  376MOL0     N50677   1.588   7.846   3.816 -1.0680  0.9320 -0.4183
  376MOL0     C50678   2.481   8.133   4.588 -0.4243  0.1875  0.2423
  376MOL0     C50679   2.601   8.179   4.641 -0.6239 -0.0651  0.6895
  376MOL0     C50680   2.947   8.476   4.728  0.1495 -1.0580 -0.3120
  376MOL0     C50681   3.024   8.375   4.780  0.4680 -0.1335 -0.0574
  376MOL0     C50682   3.165   8.399   4.802  0.5412  0.1084 -0.1844
  376MOL0     C50683   3.230   8.513   4.777 -0.6856  0.0646 -1.1562
  376MOL0     O50684   3.354   8.533   4.824 -0.6671  0.1095  0.6435
  376MOL0     C50685   3.417   8.657   4.785 -0.2649 -0.0638 -0.5946
  376MOL0     C50686   3.558   8.651   4.828 -0.4020 -0.3655 -0.5003
  376MOL0     C50687   3.642   8.774   4.790  0.1389 -0.3838  0.1871
  376MOL0     C50688   3.793   8.748   4.789  0.3775  0.3211 -0.3381
  376MOL0     C50689   3.853   8.879   4.775 -0.5569 -0.3429 -0.3981
  376MOL0     C50690   3.925   8.980   4.770 -0.3812  0.1314 -0.2429
  376MOL0     C50691   3.151   8.621   4.731  0.2134  0.7530 -0.8935
  376MOL0     C50692   3.011   8.607   4.706 -0.6989  0.1087 -0.4811
  376MOL0     H50693   2.513   8.512   4.630  2.3664 -0.5550  0.3067
  376MOL0     H50694   2.310   8.428   4.562 -0.6256 -0.5899  1.0876
  376MOL0     H50695   2.300   8.002   4.435 -0.3215 -0.2691  1.3002
  376MOL0     H50696   2.135   8.051   4.404  0.5750 -1.2533 -3.0284
  376MOL0     H50697   2.233   8.231   4.247 -0.3464 -0.3284  2.3938
  376MOL0     H50698   2.385   8.171   4.290 -0.0993 -0.6214  2.6563
  376MOL0     H50699   2.325   8.042   4.084  0.4059 -0.9064  0.6702
  376MOL0     H50700   2.275   7.928   4.209  1.2045  0.0032 -2.4875
  376MOL0     H50701   2.040   8.034   4.198 -0.4233 -0.8013  0.1027
  376MOL0     H50702   2.100   8.137   4.061 -1.2206  1.0728  1.8790
  376MOL0     H50703   2.164   7.961   3.915 -1.1920  1.5931  0.2275
  376MOL0     H50704   2.164   7.837   4.045 -0.5873 -1.0398 -1.2991
  376MOL0     H50705   1.921   7.983   3.902 -0.9387 -2.0991 -2.8229
  376MOL0     H50706   1.976   7.825   3.865  0.3425  0.2045  0.6658
  376MOL0     H50707   1.939   7.757   4.100  0.1978 -1.3967 -1.5510
  376MOL0     H50708   1.861   7.917   4.126  2.0954 -2.7891  2.6312
  376MOL0     H50709   1.710   7.708   4.061  1.7166  1.2736  0.5107
  376MOL0     H50710   1.804   7.700   3.904  2.0573  0.7594 -0.4879
  376MOL0     H50711   1.652   7.995   4.105  1.4544  0.3304 -1.2673
  376MOL0     H50712   1.484   8.211   4.025 -1.9744  1.9174  0.1240
  376MOL0     H50713   1.396   8.199   3.867 -1.6491 -1.2975  0.3074
  376MOL0     H50714   1.327   8.050   4.111  0.4607  2.8545  0.8232
  376MOL0     H50715   1.250   8.055   3.947  3.0726 -1.4898 -1.6179
  376MOL0     H50716   1.202   8.298   3.991 -1.1469 -0.6195 -1.4536
  376MOL0     H50717   1.248   8.282   4.156  3.2989  0.6283 -2.0388
  376MOL0     H50718   1.046   8.110   4.178 -0.6013 -0.6077 -1.1131
  376MOL0     H50719   1.029   8.137   4.002  3.1751  0.2078 -0.9276
  376MOL0     H50720   0.853   8.523   4.104 -0.8386 -0.0933 -0.6844
  376MOL0     H50721   0.704   8.682   4.194  2.6099 -2.6667 -1.2017
  376MOL0     H50722   0.555   8.631   4.118  0.0026  1.0498  0.2896
  376MOL0     H50723   0.580   8.632   4.303  1.4157 -0.6674  1.0367
  376MOL0     H50724   0.170   8.487   4.352 -1.0460  0.1301  1.2360
  376MOL0     H50725  -0.057   8.419   4.384 -0.5247  0.2589  1.5526
  376MOL0     H50726  -0.253   8.091   4.624 -1.1120  0.4694  1.8519
  376MOL0     H50727  -0.110   8.163   4.699  1.2759 -3.0907 -2.4934
  376MOL0     H50728  -0.186   8.389   4.693  0.9991 -2.6851  3.9547
  376MOL0     H50729  -0.335   8.355   4.590  1.4200  2.4239 -0.7505
  376MOL0     H50730  -0.442   8.245   4.753  0.9238  0.1196 -0.4067
  376MOL0     H50731  -0.402   8.406   4.798 -0.7356  1.0600 -2.3216
  376MOL0     H50732  -0.248   8.156   4.879 -2.2839 -0.5374 -2.0095
  376MOL0     H50733  -0.197   8.324   4.929 -1.0837 -0.9455  2.8049
  376MOL0     H50734  -0.439   8.161   4.996  0.1937 -1.1806 -1.2041
  376MOL0     H50735  -0.420   8.340   5.031  1.7511  0.1447 -1.3860
  376MOL0     H50736  -0.352   8.132   5.205  3.2333 -2.0701 -1.2448
  376MOL0     H50737  -0.198   8.154   5.120  1.0142 -0.1772  2.9143
  376MOL0     H50738  -0.349   8.378   5.247  0.6752  2.4999 -0.9141
  376MOL0     H50739  -0.187   8.390   5.183  1.3383  0.6127  2.8798
  376MOL0     H50740  -0.120   8.181   5.329  1.5676  0.4583  0.7488
  376MOL0     H50741  -0.247   8.231   5.435  0.6686 -0.6776 -0.2166
  376MOL0     H50742   0.057   8.038   4.538  1.9969 -0.4802  0.6421
  376MOL0     H50743   0.304   8.102   4.482  2.5326  2.1140  0.3350
  376MOL0     H50744   0.578   8.153   4.280 -0.6907  0.8851 -0.0605
  376MOL0     H50745   0.816   8.111   4.213  0.2720  0.3215  1.3291
  376MOL0     H50746   2.474   8.025   4.585 -3.4195  0.3123 -0.7703
  376MOL0     H50747   2.670   8.102   4.672 -0.0730  0.5659  1.0450
  376MOL0     H50748   2.962   8.289   4.801 -2.8427  1.7222 -1.4432
  376MOL0     H50749   3.220   8.312   4.837  0.5804 -0.2276 -1.0510
  376MOL0     H50750   3.418   8.659   4.675 -3.4074 -0.8940 -0.7318
  376MOL0     H50751   3.379   8.750   4.828  0.1877  0.6671 -1.7304
  376MOL0     H50752   3.609   8.562   4.791  0.6158 -0.9972  2.1927
  376MOL0     H50753   3.568   8.637   4.936  1.5631 -1.1907 -0.7435
  376MOL0     H50754   3.624   8.844   4.872 -1.3446 -1.9241  1.2389
  376MOL0     H50755   3.609   8.815   4.694  1.8519  2.5628  0.7442
  376MOL0     H50756   3.835   8.673   4.721  0.6163 -0.8011  1.0049
  376MOL0     H50757   3.808   8.712   4.891  0.1264  2.1784  0.3931
  376MOL0     H50758   3.981   9.071   4.781 -1.4798  0.5879  2.2378
  376MOL0     H50759   3.197   8.718   4.713 -1.5826  1.3070 -2.8469
  376MOL0     H50760   2.960   8.690   4.657 -1.4372 -1.3371 -2.2920
  377MOL0     O50761   7.597   1.290   5.801  0.0843 -0.1862  0.3135
  377MOL0     C50762   7.618   1.211   5.891 -0.7735  0.1171 -0.3346
  377MOL0     O50763   7.524   1.153   5.967 -0.3333  0.0657  0.3721
  377MOL0     C50764   7.392   1.176   5.941 -0.1675 -0.1099 -0.1259
  377MOL0     C50765   7.306   1.067   5.916 -0.0029 -0.3241 -0.5566
  377MOL0     C50766   7.167   1.084   5.890 -0.0178 -0.9104  0.8965
  377MOL0     C50767   7.116   1.213   5.901 -0.6157 -0.5928 -0.1264
  377MOL0     O50768   6.981   1.245   5.908  0.0443  0.4857 -0.3906
  377MOL0     C50769   6.880   1.150   5.887 -0.3967  0.2705 -0.0860
  377MOL0     C50770   6.745   1.223   5.900  0.5386  0.7100  0.2916
  377MOL0     C50771   6.633   1.132   5.861  0.7115 -0.0976  0.2389
  377MOL0     C50772   6.502   1.172   5.936  0.2186 -0.0201  0.0733
  377MOL0     C50773   6.373   1.130   5.850 -0.5889  0.7025  0.7911
  377MOL0     C50774   6.237   1.181   5.898 -0.0232 -0.0659  0.5644
  377MOL0     C50775   6.127   1.131   5.802 -0.2198  0.4407 -0.2300
  377MOL0     C50776   5.986   1.172   5.838 -0.3767  0.1831 -0.4665
  377MOL0     N50777   5.901   1.085   5.772  0.8283 -0.2000  0.2294
  377MOL0     C50778   5.836   1.094   5.650 -0.2522 -0.0472 -0.0862
  377MOL0     C50779   5.756   0.987   5.642  0.2437  0.1289  0.0696
  377MOL0     C50780   5.682   0.952   5.521  0.2362 -0.0201  0.1989
  377MOL0     C50781   5.543   0.910   5.554  0.3255  0.3258  0.2464
  377MOL0     C50782   5.460   1.023   5.616 -0.1710 -0.6429  0.1520
  377MOL0     C50783   5.309   1.005   5.589 -0.7677  0.0453  0.5779
  377MOL0     O50784   5.227   1.042   5.699  0.5739  0.1045  1.0880
  377MOL0     C50785   5.088   1.038   5.688  0.1841 -0.5367  0.1651
  377MOL0     C50786   5.024   0.960   5.593  0.7317  0.5591  0.2787
  377MOL0     C50787   4.884   0.952   5.590 -1.2961 -0.7031 -0.1023
  377MOL0     C50788   4.815   0.870   5.479 -0.5692 -0.2958  0.2664
  377MOL0     C50789   4.810   1.036   5.680  0.4688 -0.3769  0.5425
  377MOL0     C50790   4.664   1.038   5.686  0.0934  0.2196  0.6122
  377MOL0     O50791   4.609   1.136   5.763  0.0272  0.0958 -0.7583
  377MOL0     C50792   4.479   1.139   5.817  0.7669  0.0922  0.7102
  377MOL0     C50793   4.401   1.019   5.840  0.0467 -1.2353 -0.0296
  377MOL0     C50794   4.267   1.039   5.886  0.1178 -0.7364 -1.0793
  377MOL0     C50795   4.215   1.165   5.913  0.0793  0.2586  0.6048
  377MOL0     O50796   4.087   1.195   5.943  0.3361 -0.0419 -0.6090
  377MOL0     C50797   4.006   1.088   5.990 -0.4629  0.3246  0.6725
  377MOL0     C50798   3.870   1.157   6.022 -0.0270  1.2915  0.5000
  377MOL0     C50799   3.756   1.055   5.982  0.2485  0.6731 -0.3456
  377MOL0     C50800   3.635   1.097   6.067  0.2957 -0.6432 -0.4322
  377MOL0     C50801   3.511   1.014   6.029  0.2156 -0.3430 -0.3650
  377MOL0     C50802   3.384   1.049   6.115  0.4081 -0.1773 -1.1995
  377MOL0     C50803   3.385   0.990   6.255 -0.1097 -0.3090  0.0777
  377MOL0     C50804   3.243   0.986   6.312  0.3892 -0.5796  0.5794
  377MOL0    Cl50805   3.252   0.895   6.462 -0.3581 -0.0608  0.1536
  377MOL0     C50806   4.294   1.271   5.890  0.0487 -0.6561 -0.0022
  377MOL0     C50807   4.423   1.267   5.849  0.1818 -0.1076  0.2137
  377MOL0     O50808   4.599   0.946   5.632  0.1537  0.6915  0.1951
  377MOL0     C50809   4.875   1.125   5.765 -0.2277 -0.8140  0.4369
  377MOL0     C50810   5.016   1.116   5.778 -0.0378  0.0280 -0.1971
  377MOL0     N50811   5.755   0.926   5.764 -0.0725 -1.3384 -0.7233
  377MOL0     N50812   5.840   0.985   5.838 -0.4595 -0.6911 -0.5946
  377MOL0     C50813   7.203   1.326   5.911  0.3730 -0.9612 -0.1612
  377MOL0     C50814   7.333   1.308   5.941 -0.0921  0.3262  0.4144
  377MOL0     C50815   7.759   1.188   5.926 -0.5153 -0.5020  0.2227
  377MOL0     C50816   7.866   1.261   5.860 -0.2297 -0.1766  0.2792
  377MOL0     C50817   8.000   1.235   5.881  0.1205  0.2839 -0.9393
  377MOL0     C50818   8.037   1.133   5.979 -0.0275 -0.3045 -0.2398
  377MOL0     O50819   8.155   1.075   6.000 -0.7945  0.0751  0.0093
  377MOL0     C50820   8.264   1.100   5.906 -0.1366 -0.2021  0.0806
  377MOL0     C50821   8.369   1.195   5.953 -0.1126 -0.5243 -0.7736
  377MOL0     C50822   8.485   1.124   6.035 -0.0582  0.2252 -0.2145
  377MOL0     C50823   8.567   1.051   5.928 -0.0817 -0.0315 -0.2542
  377MOL0     C50824   8.670   1.131   5.874  0.4401  0.1660 -0.1967
  377MOL0     C50825   8.741   1.207   5.813  0.9923  0.5689  0.0587
  377MOL0     C50826   7.931   1.081   6.053  0.2175 -0.2274 -0.4785
  377MOL0     C50827   7.799   1.100   6.025  0.0729 -0.1770  0.2890
  377MOL0     H50828   7.344   0.967   5.903  0.2954 -0.0804 -1.7360
  377MOL0     H50829   7.102   0.998   5.878 -2.9315  1.2276  0.2246
  377MOL0     H50830   6.886   1.102   5.789 -1.4880 -2.1083  0.9319
  377MOL0     H50831   6.894   1.074   5.964  1.7181  0.1578 -0.5111
  377MOL0     H50832   6.727   1.249   6.005 -2.1561 -1.1322  0.4107
  377MOL0     H50833   6.750   1.305   5.828 -0.5001  0.2086 -0.3713
  377MOL0     H50834   6.626   1.140   5.752  0.7969  0.5297  0.2765
  377MOL0     H50835   6.655   1.025   5.867 -1.3605 -0.6249 -0.8454
  377MOL0     H50836   6.484   1.132   6.036 -0.2665 -0.3197 -0.1292
  377MOL0     H50837   6.504   1.277   5.967 -0.4022 -0.4085  1.4846
  377MOL0     H50838   6.390   1.160   5.746  2.3012 -1.8609  0.3486
  377MOL0     H50839   6.371   1.021   5.845  1.9720  0.3883  3.6198
  377MOL0     H50840   6.221   1.158   6.004  1.6631 -1.6716  0.5242
  377MOL0     H50841   6.237   1.290   5.890 -2.8422 -0.0912 -1.3690
  377MOL0     H50842   6.159   1.167   5.704  1.6253  0.0748  0.1865
  377MOL0     H50843   6.131   1.023   5.816  3.5726  0.3984 -0.4996
  377MOL0     H50844   5.965   1.277   5.813 -0.3407 -0.0892 -1.7236
  377MOL0     H50845   5.973   1.164   5.946  0.7426  1.2710 -0.2228
  377MOL0     H50846   5.861   1.171   5.578  1.3199  1.5732  2.0601
  377MOL0     H50847   5.685   1.038   5.454 -1.2291 -0.5930 -0.6524
  377MOL0     H50848   5.733   0.866   5.478 -2.5732 -1.3674 -0.7003
  377MOL0     H50849   5.555   0.822   5.618  1.9734 -1.5600 -2.4371
  377MOL0     H50850   5.488   0.872   5.468  2.0889 -0.2598 -0.6707
  377MOL0     H50851   5.494   1.113   5.564  0.3488 -0.9712 -0.0896
  377MOL0     H50852   5.479   1.031   5.724  1.4835 -2.6584  0.0843
  377MOL0     H50853   5.297   0.897   5.572 -0.2472  0.3167 -2.0269
  377MOL0     H50854   5.288   1.056   5.494  2.3549  0.9678  0.2760
  377MOL0     H50855   5.070   0.894   5.520 -0.7482  1.0565 -1.1682
  377MOL0     H50856   4.900   0.853   5.412  0.0171 -0.3469  1.0142
  377MOL0     H50857   4.770   0.781   5.523  0.0050  0.2417  2.0413
  377MOL0     H50858   4.739   0.924   5.422 -0.9249 -1.7884 -0.7250
  377MOL0     H50859   4.442   0.921   5.818  3.6886  0.2181 -0.3051
  377MOL0     H50860   4.215   0.944   5.889  0.3012 -0.8153  0.1546
  377MOL0     H50861   4.008   1.016   5.908  1.8341  0.4782  0.5155
  377MOL0     H50862   4.046   1.045   6.083 -1.0665  1.0242  1.2723
  377MOL0     H50863   3.860   1.185   6.127  1.3634  0.2388  0.9408
  377MOL0     H50864   3.855   1.240   5.953 -0.2525 -1.1651 -2.6665
  377MOL0     H50865   3.768   0.950   6.008  0.5500  0.5748 -0.8702
  377MOL0     H50866   3.737   1.065   5.875  1.6940 -1.2748 -0.8295
  377MOL0     H50867   3.661   1.072   6.170 -1.7121  1.5166  0.7261
  377MOL0     H50868   3.604   1.202   6.070  4.0549  0.5952  3.0820
  377MOL0     H50869   3.535   0.907   6.033  2.0585 -0.0346 -1.6983
  377MOL0     H50870   3.478   1.041   5.929  0.0284  2.1636  0.3128
  377MOL0     H50871   3.369   1.157   6.129  0.3216 -0.1318 -1.6171
  377MOL0     H50872   3.303   1.015   6.050 -1.6857  1.9895  0.1104
  377MOL0     H50873   3.456   1.046   6.317  1.2719  0.2903 -1.9295
  377MOL0     H50874   3.422   0.888   6.266 -0.6858 -0.5453 -0.1315
  377MOL0     H50875   3.180   0.928   6.244 -0.7870  0.6174  0.6087
  377MOL0     H50876   3.200   1.086   6.312 -0.4540 -0.9198 -0.5678
  377MOL0     H50877   4.264   1.374   5.910  4.4401  0.5000  1.5837
  377MOL0     H50878   4.473   1.361   5.831  2.2019 -1.4232 -1.6772
  377MOL0     H50879   4.826   1.201   5.825  3.0099  2.0582 -0.2545
  377MOL0     H50880   5.069   1.179   5.848  0.7484 -0.1368 -0.6284
  377MOL0     H50881   7.163   1.427   5.903 -1.3323 -1.7551 -3.9241
  377MOL0     H50882   7.394   1.395   5.963 -1.5274  1.7474 -0.9321
  377MOL0     H50883   7.838   1.341   5.791 -2.6544 -0.9617  0.2459
  377MOL0     H50884   8.078   1.272   5.816  1.3151 -0.5553 -0.0386
  377MOL0     H50885   8.305   1.003   5.877 -3.6872 -2.4768  1.9287
  377MOL0     H50886   8.218   1.140   5.815 -1.1924  0.4888  0.8911
  377MOL0     H50887   8.329   1.280   6.011  1.1806 -1.0527  0.9797
  377MOL0     H50888   8.410   1.235   5.860  0.4567 -0.3460 -0.4519
  377MOL0     H50889   8.439   1.061   6.112 -1.0852  0.9324 -0.2281
  377MOL0     H50890   8.537   1.195   6.100 -0.2560  0.2807 -0.1163
  377MOL0     H50891   8.502   1.018   5.847 -1.2774 -3.4320  1.8824
  377MOL0     H50892   8.612   0.958   5.964 -0.5947 -0.5661 -0.9816
  377MOL0     H50893   8.816   1.270   5.770  1.8861 -0.5342 -0.0662
  377MOL0     H50894   7.968   1.021   6.135  1.8619  2.7951  1.1815
  377MOL0     H50895   7.731   1.037   6.082  0.7657 -1.3886 -0.1901
  378MOL0     O50896   7.053   4.154   9.223  0.0835  0.6106 -0.7686
  378MOL0     C50897   7.049   4.196   9.107  0.4225 -0.2452 -0.8120
  378MOL0     O50898   6.955   4.162   9.009  0.3042  0.5210  0.1282
  378MOL0     C50899   6.859   4.069   9.043 -0.7495  0.4953  0.2834
  378MOL0     C50900   6.770   4.102   9.144  0.6985  0.6225  0.6861
  378MOL0     C50901   6.668   4.017   9.185 -0.5598  0.3791 -0.4317
  378MOL0     C50902   6.643   3.894   9.119  0.4070  0.2036  0.7600
  378MOL0     O50903   6.538   3.811   9.136  0.4450  0.0767 -0.7278
  378MOL0     C50904   6.434   3.869   9.213  0.0770 -0.5784 -0.1806
  378MOL0     C50905   6.314   3.779   9.174 -0.7583  0.4636 -0.8565
  378MOL0     C50906   6.354   3.637   9.238  0.6574 -0.0974  0.0402
  378MOL0     C50907   6.245   3.523   9.226 -0.3940 -0.6500 -0.1296
  378MOL0     C50908   6.155   3.515   9.344  0.9274 -0.4989 -1.0880
  378MOL0     C50909   6.084   3.376   9.351 -0.0391  0.2432  0.1217
  378MOL0     C50910   6.004   3.339   9.477 -0.2066  0.2170 -0.2746
  378MOL0     C50911   5.876   3.414   9.522  0.6049  0.1250  0.3456
  378MOL0     N50912   5.760   3.389   9.435  1.0589  0.7984  0.2909
  378MOL0     C50913   5.717   3.264   9.381 -0.3229  0.2231 -0.5533
  378MOL0     C50914   5.614   3.303   9.302 -0.0687 -0.2450 -0.4408
  378MOL0     C50915   5.532   3.197   9.230 -0.2534 -0.6706 -0.1977
  378MOL0     C50916   5.423   3.125   9.306  0.3423 -0.0118 -0.4752
  378MOL0     C50917   5.297   3.216   9.308 -0.0737  0.6670  0.1286
  378MOL0     C50918   5.188   3.147   9.382  0.7682  0.1186 -0.3727
  378MOL0     O50919   5.215   3.135   9.520  0.5776  0.3240 -0.4616
  378MOL0     C50920   5.113   3.086   9.603  0.0587  0.2924 -0.0122
  378MOL0     C50921   5.130   3.111   9.747  0.7640  0.0329 -0.0540
  378MOL0     C50922   5.038   3.056   9.846 -0.8956  0.3036 -0.1570
  378MOL0     C50923   5.057   3.092   9.992  0.4559  0.3102  0.0414
  378MOL0     C50924   4.936   2.976   9.804 -0.0245  0.9641  0.2118
  378MOL0     C50925   4.837   2.912   9.905 -0.3347  0.0246 -0.4191
  378MOL0     O50926   4.712   2.885   9.856 -0.7087 -0.5953  0.2278
  378MOL0     C50927   4.605   2.876   9.948 -0.6746 -0.1230  0.2416
  378MOL0     C50928   4.593   2.961  10.063  0.1125  0.2400 -0.2118
  378MOL0     C50929   4.492   2.961  10.157  1.1048  0.5439 -0.0084
  378MOL0     C50930   4.388   2.874  10.137  0.5942 -0.1728 -0.1557
  378MOL0     O50931   4.278   2.882  10.219  0.1030 -0.3451 -0.3720
  378MOL0     C50932   4.166   2.925  10.146 -0.2937  0.1061 -0.0807
  378MOL0     C50933   4.038   2.930  10.231 -0.7687  0.4859  0.4732
  378MOL0     C50934   3.920   3.010  10.166  0.2807 -0.4119  0.6889
  378MOL0     C50935   3.807   3.001  10.269 -0.0235 -0.0801 -0.1781
  378MOL0     C50936   3.695   3.097  10.223 -0.0988 -0.3554 -0.2103
  378MOL0     C50937   3.624   3.148  10.347 -0.7689  0.5698 -0.2956
  378MOL0     C50938   3.473   3.139  10.324 -0.4068  0.7630 -0.0955
  378MOL0     C50939   3.407   3.127  10.461 -0.5815  0.1206  0.0003
  378MOL0    Cl50940   3.227   3.121  10.466  0.0916  0.4065  0.5666
  378MOL0     C50941   4.387   2.794  10.023  0.5333 -0.1829  0.2757
  378MOL0     C50942   4.488   2.803   9.929 -0.1389 -0.0452 -0.0346
  378MOL0     O50943   4.876   2.883  10.019  0.0485  0.3711  0.7731
  378MOL0     C50944   4.919   2.956   9.666 -0.1749  0.1529  0.4889
  378MOL0     C50945   5.001   3.008   9.571 -0.2866 -0.1239 -0.6789
  378MOL0     N50946   5.611   3.439   9.284  0.2273  0.9159 -0.2162
  378MOL0     N50947   5.706   3.492   9.361  0.3214 -0.5809 -0.3648
  378MOL0     C50948   6.736   3.861   9.021  0.0805  0.0688  0.0981
  378MOL0     C50949   6.844   3.945   8.985 -0.0061  0.2476 -0.3343
  378MOL0     C50950   7.142   4.304   9.069 -0.2420 -0.1854 -1.5318
  378MOL0     C50951   7.130   4.380   8.953 -0.7324  0.5419  0.1078
  378MOL0     C50952   7.228   4.477   8.925  0.2993 -0.7834  0.3594
  378MOL0     C50953   7.335   4.508   9.013 -0.3333  0.3197  0.4872
  378MOL0     O50954   7.416   4.609   8.976  0.6308  0.6632 -0.5208
  378MOL0     C50955   7.540   4.613   9.037 -0.4894  0.1211 -1.1336
  378MOL0     C50956   7.622   4.716   8.973 -0.9525  0.3156  0.0181
  378MOL0     C50957   7.765   4.724   9.024  0.2194  0.3196  0.3889
  378MOL0     C50958   7.834   4.851   8.958 -0.4140  0.6061 -0.1951
  378MOL0     C50959   7.975   4.836   8.989  0.5148 -0.0857 -0.5674
  378MOL0     C50960   8.085   4.806   9.012 -0.4108  0.2235  0.2683
  378MOL0     C50961   7.334   4.438   9.133 -0.2282  0.8802 -0.3924
  378MOL0     C50962   7.247   4.335   9.160 -0.6189 -0.3102 -0.7910
  378MOL0     H50963   6.779   4.200   9.190 -1.3679  0.2785  1.9826
  378MOL0     H50964   6.601   4.054   9.261 -1.6797  2.1882 -2.2195
  378MOL0     H50965   6.452   3.870   9.321  0.9262 -2.4262 -0.2859
  378MOL0     H50966   6.407   3.970   9.181 -0.2268  0.0222  1.7777
  378MOL0     H50967   6.219   3.813   9.216 -0.7648  1.4394 -1.6292
  378MOL0     H50968   6.301   3.780   9.066 -2.1007 -1.9163 -0.7732
  378MOL0     H50969   6.446   3.605   9.189  0.2781 -1.1681 -0.0121
  378MOL0     H50970   6.365   3.655   9.345 -1.9653 -0.6874  0.4890
  378MOL0     H50971   6.189   3.536   9.133  0.3307 -1.9321 -0.7688
  378MOL0     H50972   6.297   3.427   9.219  0.4415 -0.4595  2.6197
  378MOL0     H50973   6.212   3.527   9.436  0.9399  0.0930 -1.1669
  378MOL0     H50974   6.076   3.591   9.340  2.7389  1.5439 -0.0779
  378MOL0     H50975   6.019   3.369   9.264  0.0099 -3.9043  0.2261
  378MOL0     H50976   6.163   3.301   9.339  0.0208 -0.0214  1.8324
  378MOL0     H50977   5.986   3.233   9.460  4.0577 -0.4544 -1.5362
  378MOL0     H50978   6.073   3.343   9.562  0.5245 -0.5364 -0.8287
  378MOL0     H50979   5.890   3.522   9.530  1.9396 -0.0485  0.4998
  378MOL0     H50980   5.850   3.376   9.622  1.1591 -1.7204 -0.1714
  378MOL0     H50981   5.750   3.164   9.407  0.2411  0.1737 -1.4230
  378MOL0     H50982   5.489   3.244   9.141  0.0816 -0.6637 -0.3587
  378MOL0     H50983   5.609   3.124   9.202  0.1481 -1.3738  2.4619
  378MOL0     H50984   5.455   3.097   9.407  0.0850  0.2483 -0.3203
  378MOL0     H50985   5.404   3.029   9.258  3.6457 -1.9285  1.6044
  378MOL0     H50986   5.262   3.236   9.207 -1.8893  1.3418  0.8495
  378MOL0     H50987   5.324   3.316   9.343 -0.3774  1.1969 -1.0998
  378MOL0     H50988   5.173   3.053   9.329 -2.0614  0.6272 -0.6620
  378MOL0     H50989   5.096   3.205   9.371  1.0575  0.8823  1.0015
  378MOL0     H50990   5.214   3.179   9.761  1.3496 -0.1755 -2.1797
  378MOL0     H50991   5.083   3.008  10.058  0.0063  0.9706  1.0812
  378MOL0     H50992   5.133   3.170   9.996  1.1599 -0.4059  1.1397
  378MOL0     H50993   4.966   3.140  10.028  1.3770  0.0225  2.9910
  378MOL0     H50994   4.672   3.034  10.072 -0.1447  0.3117  1.8608
  378MOL0     H50995   4.491   3.033  10.237 -2.0748 -2.4585  2.9736
  378MOL0     H50996   4.181   3.026  10.109 -4.8450  0.7649 -0.7878
  378MOL0     H50997   4.142   2.853  10.067  0.4496 -0.6032  0.3239
  378MOL0     H50998   3.993   2.834  10.254  2.2475 -0.6481  2.1639
  378MOL0     H50999   4.058   2.978  10.327  1.3031 -0.5470  0.6021
  378MOL0     H51000   3.890   2.979  10.065  1.5324  0.2856  0.0775
  378MOL0     H51001   3.937   3.117  10.150  0.1652 -0.7377 -2.0516
  378MOL0     H51002   3.775   2.899  10.292  0.8642 -0.2489  0.3302
  378MOL0     H51003   3.851   3.048  10.357  0.1558 -0.4982 -0.0438
  378MOL0     H51004   3.627   3.034  10.164 -1.8913  2.4995 -1.4244
  378MOL0     H51005   3.731   3.178  10.158 -2.4458  1.1617  0.2814
  378MOL0     H51006   3.659   3.094  10.436 -1.9920  0.7774  0.3385
  378MOL0     H51007   3.655   3.252  10.362 -0.1050  0.1969  1.1165
  378MOL0     H51008   3.455   3.050  10.264 -1.7713  0.7097  0.3538
  378MOL0     H51009   3.434   3.227  10.271 -1.1003  0.1328 -0.6477
  378MOL0     H51010   3.434   3.216  10.518 -1.2158  1.1830 -1.3242
  378MOL0     H51011   3.445   3.035  10.508  0.3058 -0.9197 -2.5642
  378MOL0     H51012   4.309   2.722  10.002  1.8012 -0.9574 -2.0397
  378MOL0     H51013   4.476   2.746   9.837 -1.2407  0.8346 -0.4625
  378MOL0     H51014   4.842   2.884   9.640  1.7820 -2.9010  2.4895
  378MOL0     H51015   4.976   2.963   9.476 -0.1276 -3.1001  0.5760
  378MOL0     H51016   6.733   3.761   8.979  0.6481  0.2253 -0.3183
  378MOL0     H51017   6.919   3.925   8.910 -0.7451 -0.5225 -0.8857
  378MOL0     H51018   7.047   4.353   8.889 -0.0814 -2.0282  0.2026
  378MOL0     H51019   7.206   4.529   8.832 -1.3802 -2.8392 -0.4885
  378MOL0     H51020   7.522   4.639   9.142 -2.2490 -0.5563 -1.2351
  378MOL0     H51021   7.595   4.519   9.035 -0.3580 -0.2071  4.3532
  378MOL0     H51022   7.574   4.815   8.980 -1.6197  0.1919 -2.1709
  378MOL0     H51023   7.618   4.699   8.865  2.9749 -1.3987 -0.0161
  378MOL0     H51024   7.822   4.639   8.985 -0.8185  0.5288 -1.7431
  378MOL0     H51025   7.773   4.718   9.133  0.0819 -2.9568  0.3188
  378MOL0     H51026   7.796   4.942   9.005 -0.6723  0.2818  0.2346
  378MOL0     H51027   7.814   4.860   8.851 -1.6747  0.9689  0.0481
  378MOL0     H51028   8.183   4.778   9.044 -1.4678 -0.1015  3.6646
  378MOL0     H51029   7.413   4.460   9.204 -0.2859 -0.3284  0.0593
  378MOL0     H51030   7.258   4.285   9.255 -1.9895 -0.4867 -0.7054
  379MOL0     O51031   8.347   4.609   6.384 -1.1468  0.0119  0.4747
  379MOL0     C51032   8.335   4.640   6.500 -0.1254  0.6841 -0.4775
  379MOL0     O51033   8.213   4.668   6.561 -0.3422  0.7498  0.5184
  379MOL0     C51034   8.091   4.671   6.490 -0.6125  0.4385 -0.0788
  379MOL0     C51035   7.986   4.706   6.573  0.4094  0.4581 -0.6042
  379MOL0     C51036   7.851   4.700   6.534  0.4471 -0.4540 -0.6662
  379MOL0     C51037   7.823   4.654   6.406  0.3975  0.2132 -0.6304
  379MOL0     O51038   7.697   4.632   6.385  0.6091  0.5123  0.4586
  379MOL0     C51039   7.660   4.526   6.301  0.1657 -0.0697 -0.3533
  379MOL0     C51040   7.509   4.535   6.305  0.3533  0.1817  0.4645
  379MOL0     C51041   7.440   4.445   6.198  0.0125  0.6902  0.3802
  379MOL0     C51042   7.291   4.462   6.221  0.1859 -0.4700  0.0411
  379MOL0     C51043   7.208   4.351   6.132  0.1871 -0.4946 -0.1894
  379MOL0     C51044   7.072   4.411   6.075  0.2494 -0.2141 -0.5645
  379MOL0     C51045   6.966   4.437   6.192  0.3326  0.6206 -0.3550
  379MOL0     C51046   6.843   4.517   6.152  0.5593  0.2277  0.1918
  379MOL0     N51047   6.754   4.518   6.266 -0.0882  0.0505 -0.0587
  379MOL0     C51048   6.693   4.625   6.317 -0.5598  0.6743 -0.8729
  379MOL0     C51049   6.611   4.587   6.422 -1.2140  1.0266  0.2123
  379MOL0     C51050   6.507   4.661   6.499  0.2915  0.2670 -0.2251
  379MOL0     C51051   6.521   4.630   6.643  0.0549  0.7218 -0.1952
  379MOL0     C51052   6.450   4.707   6.741  0.3856  0.4005 -0.1501
  379MOL0     C51053   6.302   4.744   6.714 -0.4108 -0.7196 -0.0360
  379MOL0     O51054   6.226   4.625   6.687  0.4499 -1.3089  0.2618
  379MOL0     C51055   6.081   4.648   6.693 -0.3877 -0.2857 -0.3462
  379MOL0     C51056   6.009   4.762   6.729 -0.1402 -0.8932 -0.6425
  379MOL0     C51057   5.871   4.773   6.711  0.4013  0.4421 -0.0572
  379MOL0     C51058   5.799   4.894   6.748 -0.4887 -0.0187 -0.2460
  379MOL0     C51059   5.807   4.663   6.660  0.1172  1.0201  0.2550
  379MOL0     C51060   5.661   4.663   6.643 -0.6740  0.0675  0.0832
  379MOL0     O51061   5.614   4.676   6.515  0.2692 -0.7662 -0.3280
  379MOL0     C51062   5.478   4.682   6.483 -0.0481  0.0466  0.5181
  379MOL0     C51063   5.401   4.786   6.523  0.3115 -0.7439 -0.1570
  379MOL0     C51064   5.262   4.798   6.488  0.0846 -0.3149  0.1252
  379MOL0     C51065   5.206   4.694   6.414 -0.6483 -0.4096 -0.1131
  379MOL0     O51066   5.069   4.702   6.398 -0.1042  0.6893  0.0628
  379MOL0     C51067   4.999   4.602   6.317  0.5747 -0.0570  0.3237
  379MOL0     C51068   4.843   4.632   6.314 -0.2399 -0.7446  0.3203
  379MOL0     C51069   4.764   4.548   6.217 -0.6587 -0.2192  0.2783
  379MOL0     C51070   4.623   4.599   6.220  0.0599 -0.4736  0.0336
  379MOL0     C51071   4.525   4.517   6.133 -0.6818 -0.5732 -0.2583
  379MOL0     C51072   4.554   4.527   5.981  0.0131  1.0280 -0.2751
  379MOL0     C51073   4.469   4.423   5.902  0.3792  0.5299  0.6506
  379MOL0     C51074   4.408   4.471   5.763 -0.4405 -0.6076  0.0273
  379MOL0    Cl51075   4.334   4.328   5.685 -0.6555 -0.0776 -0.6689
  379MOL0     C51076   5.283   4.587   6.374 -0.2987 -0.4463  0.1664
  379MOL0     C51077   5.418   4.581   6.407  0.1690  0.4115  0.5365
  379MOL0     O51078   5.591   4.641   6.741 -0.4274 -0.0279 -0.1072
  379MOL0     C51079   5.876   4.551   6.611  0.1513  1.3819  0.1503
  379MOL0     C51080   6.013   4.549   6.633  0.4857  0.2120 -0.1402
  379MOL0     N51081   6.621   4.445   6.414  0.0589 -0.0714 -0.4713
  379MOL0     N51082   6.697   4.406   6.317 -0.2729 -0.5193 -0.0455
  379MOL0     C51083   7.926   4.649   6.312  0.6412 -0.0544 -0.2588
  379MOL0     C51084   8.059   4.659   6.352 -0.3077  0.8275 -0.6192
  379MOL0     C51085   8.453   4.674   6.577  0.3881  0.4736 -0.6470
  379MOL0     C51086   8.445   4.762   6.691  0.1325  0.0076  0.1544
  379MOL0     C51087   8.556   4.780   6.769 -0.0271  0.3111  0.2488
  379MOL0     C51088   8.678   4.708   6.742  0.6942 -0.4866  0.7273
  379MOL0     O51089   8.785   4.725   6.820  0.4186  0.1618  0.2437
  379MOL0     C51090   8.754   4.744   6.962 -0.6721  0.2616 -0.0768
  379MOL0     C51091   8.897   4.742   7.026 -0.5776  0.4597  0.0291
  379MOL0     C51092   8.887   4.750   7.177  0.1879  0.3253  0.1016
  379MOL0     C51093   9.018   4.722   7.246 -0.1097  0.0808 -0.6460
  379MOL0     C51094   8.998   4.728   7.392  0.2825 -0.5443  0.4087
  379MOL0     C51095   8.960   4.716   7.503 -0.2614 -0.2433 -0.0605
  379MOL0     C51096   8.688   4.635   6.620  0.8993 -0.6763 -0.1544
  379MOL0     C51097   8.578   4.606   6.546 -0.0605 -0.4835  0.5987
  379MOL0     H51098   8.005   4.726   6.678  0.8040  3.0627 -1.0854
  379MOL0     H51099   7.782   4.704   6.618  1.4170 -1.4800  0.2136
  379MOL0     H51100   7.701   4.537   6.200  0.0761 -0.2211 -0.4059
  379MOL0     H51101   7.689   4.427   6.337 -0.2120 -0.1559 -0.2767
  379MOL0     H51102   7.481   4.500   6.404 -1.9935  0.5799  0.0174
  379MOL0     H51103   7.486   4.641   6.288  1.5887  0.1337 -1.9647
  379MOL0     H51104   7.473   4.471   6.097  1.3922 -2.2045 -0.0316
  379MOL0     H51105   7.470   4.342   6.217  0.0433  0.0894 -2.4183
  379MOL0     H51106   7.250   4.448   6.322 -1.0816 -1.3009 -0.5485
  379MOL0     H51107   7.266   4.561   6.183  0.1496  0.7888  3.0583
  379MOL0     H51108   7.264   4.321   6.043  1.2775 -3.5178  1.3744
  379MOL0     H51109   7.170   4.257   6.174 -1.9026 -0.9499 -2.8455
  379MOL0     H51110   7.093   4.506   6.023  2.0290  0.5456  1.3727
  379MOL0     H51111   7.036   4.336   6.005 -1.2794  1.2540 -1.4286
  379MOL0     H51112   6.928   4.336   6.212  2.3665 -0.4763 -1.6014
  379MOL0     H51113   7.008   4.476   6.286  2.2467 -2.3608  0.1901
  379MOL0     H51114   6.794   4.464   6.069  1.1208  0.5730 -0.3691
  379MOL0     H51115   6.873   4.616   6.116  4.8327 -0.3182  1.7257
  379MOL0     H51116   6.728   4.724   6.288  1.2261  0.8096  1.4837
  379MOL0     H51117   6.515   4.769   6.478 -0.2250  0.6060  1.2070
  379MOL0     H51118   6.413   4.625   6.456 -0.3630  2.1428 -0.4630
  379MOL0     H51119   6.628   4.632   6.668 -0.2566 -0.7522  1.5078
  379MOL0     H51120   6.491   4.526   6.655 -1.1509  0.8060 -2.0780
  379MOL0     H51121   6.524   4.787   6.754  3.1382 -1.6696 -1.9834
  379MOL0     H51122   6.441   4.655   6.836  0.2323 -0.3019 -0.5446
  379MOL0     H51123   6.300   4.807   6.625 -0.2491 -1.5914 -0.6664
  379MOL0     H51124   6.267   4.796   6.803 -1.2275 -1.6135  0.1808
  379MOL0     H51125   6.068   4.841   6.776 -1.3044 -0.9645  1.0235
  379MOL0     H51126   5.825   4.976   6.681  0.6778 -2.1316 -2.5356
  379MOL0     H51127   5.691   4.876   6.746 -0.7002  1.0438  0.5351
  379MOL0     H51128   5.830   4.938   6.844  0.7594  1.3648 -1.2371
  379MOL0     H51129   5.450   4.859   6.587  0.1050 -0.8221  0.0913
  379MOL0     H51130   5.213   4.891   6.515 -1.4330 -1.0743  0.0953
  379MOL0     H51131   5.035   4.611   6.214 -0.3956  1.0045  0.0520
  379MOL0     H51132   5.020   4.504   6.360 -0.9990 -2.2856 -3.4816
  379MOL0     H51133   4.801   4.617   6.414 -0.1804  2.4818  0.9286
  379MOL0     H51134   4.824   4.737   6.291  1.0542 -0.8664 -1.4680
  379MOL0     H51135   4.777   4.447   6.258  2.8899  0.4442  1.0768
  379MOL0     H51136   4.798   4.547   6.113  0.6452 -1.0415  0.6822
  379MOL0     H51137   4.588   4.604   6.323 -0.4251 -2.1958 -0.0141
  379MOL0     H51138   4.628   4.704   6.189  0.7313 -1.2801 -2.8583
  379MOL0     H51139   4.426   4.563   6.144 -1.0907 -1.6179  0.5645
  379MOL0     H51140   4.524   4.409   6.153  0.9618 -0.4157  0.8406
  379MOL0     H51141   4.514   4.620   5.941 -0.2238  1.4613  0.9256
  379MOL0     H51142   4.660   4.511   5.960  0.3763  1.9559  0.7467
  379MOL0     H51143   4.383   4.388   5.961  1.8040 -3.2899  0.7391
  379MOL0     H51144   4.529   4.335   5.880  1.0114  1.4888 -1.7359
  379MOL0     H51145   4.492   4.511   5.704  0.1345 -2.0947 -0.1995
  379MOL0     H51146   4.327   4.544   5.761 -0.5484 -0.5415 -4.7520
  379MOL0     H51147   5.239   4.506   6.317 -0.5123 -1.4118  1.6519
  379MOL0     H51148   5.482   4.497   6.381  0.6566  1.7851 -3.3204
  379MOL0     H51149   5.825   4.467   6.565 -0.4815  0.8928  1.6734
  379MOL0     H51150   6.067   4.460   6.601  1.4310  0.4390  0.7517
  379MOL0     H51151   7.920   4.624   6.207 -1.1063 -1.1058  0.0547
  379MOL0     H51152   8.131   4.668   6.271 -1.2551 -0.6499 -1.6873
  379MOL0     H51153   8.353   4.812   6.719 -0.1971 -0.5629  0.1249
  379MOL0     H51154   8.552   4.852   6.851 -0.9068 -0.8604  1.2760
  379MOL0     H51155   8.719   4.846   6.977  2.2968  1.6562 -1.8532
  379MOL0     H51156   8.678   4.677   7.003  0.1190 -0.1131  0.8375
  379MOL0     H51157   8.959   4.825   6.990 -3.0584  0.8928 -3.7934
  379MOL0     H51158   8.940   4.647   6.991 -1.1388  0.3550 -0.3873
  379MOL0     H51159   8.822   4.673   7.220  2.7211 -1.1157  1.5916
  379MOL0     H51160   8.851   4.849   7.207 -2.4740 -1.3307  3.0888
  379MOL0     H51161   9.094   4.797   7.226  1.4424 -1.4352 -0.6637
  379MOL0     H51162   9.060   4.624   7.220  1.8479  0.3721  1.1449
  379MOL0     H51163   8.920   4.701   7.601  0.9588 -0.8652  0.3535
  379MOL0     H51164   8.782   4.585   6.598  1.1377 -1.1452  1.7200
  379MOL0     H51165   8.582   4.537   6.462  2.6596 -0.9258  0.9809
  380MOL0     O51166   2.530   4.708  11.187  0.2835  0.1643 -0.0735
  380MOL0     C51167   2.579   4.823  11.204  0.0294 -0.3797  0.2564
  380MOL0     O51168   2.507   4.935  11.220 -0.4214  1.3713 -0.3953
  380MOL0     C51169   2.366   4.927  11.230 -0.2993 -1.0723  0.0357
  380MOL0     C51170   2.280   4.868  11.137  0.1691  0.6318 -0.9181
  380MOL0     C51171   2.146   4.860  11.162 -0.6677 -0.6966  0.2138
  380MOL0     C51172   2.086   4.927  11.271  0.3678 -0.0015 -0.1059
  380MOL0     O51173   1.952   4.932  11.286  0.2112 -0.7046  0.1821
  380MOL0     C51174   1.859   4.860  11.203  0.1757 -0.6415 -0.3796
  380MOL0     C51175   1.718   4.877  11.269  0.6090 -0.3678 -0.2679
  380MOL0     C51176   1.669   5.019  11.255  0.4537 -0.0394  0.1206
  380MOL0     C51177   1.535   5.052  11.334 -0.5601 -0.0524 -0.1279
  380MOL0     C51178   1.529   5.199  11.350  0.0457 -0.0667 -0.2305
  380MOL0     C51179   1.401   5.248  11.406  0.4231 -0.8108  0.3270
  380MOL0     C51180   1.410   5.395  11.445  0.6774 -0.5828 -0.5701
  380MOL0     C51181   1.426   5.488  11.329 -0.9833  0.2442  0.0007
  380MOL0     N51182   1.359   5.621  11.346  0.0408  0.2839 -0.7841
  380MOL0     C51183   1.230   5.642  11.314  1.0785 -0.1744  0.0097
  380MOL0     C51184   1.225   5.784  11.301 -0.4355 -0.2091 -0.2163
  380MOL0     C51185   1.123   5.879  11.262  0.4167 -0.0589  0.4175
  380MOL0     C51186   1.083   5.869  11.112  0.4310 -0.1797 -0.0255
  380MOL0     C51187   0.953   5.944  11.067 -0.5317 -0.0590  0.0107
  380MOL0     C51188   0.972   6.089  11.048 -0.5677 -0.2101  0.3865
  380MOL0     O51189   0.851   6.147  11.000  0.0139  0.4009 -0.1821
  380MOL0     C51190   0.807   6.125  10.868 -0.0437 -0.7037  0.0975
  380MOL0     C51191   0.888   6.076  10.763 -0.4123 -0.2536  0.0926
  380MOL0     C51192   0.837   6.060  10.637 -0.7330  0.0979  0.2899
  380MOL0     C51193   0.933   6.016  10.531 -0.1548 -0.0434  0.5816
  380MOL0     C51194   0.705   6.096  10.614  0.3394 -0.3911  1.1126
  380MOL0     C51195   0.632   6.064  10.483  0.1367  0.2709  0.6309
  380MOL0     O51196   0.493   6.074  10.492 -0.4880 -0.2250 -0.4259
  380MOL0     C51197   0.410   5.992  10.425 -0.1273 -0.5498 -0.2941
  380MOL0     C51198   0.279   6.038  10.431 -0.7661  0.0805 -0.4697
  380MOL0     C51199   0.172   5.972  10.367 -1.3998  0.1367 -0.1351
  380MOL0     C51200   0.205   5.857  10.295 -0.6695 -0.5573  0.2011
  380MOL0     O51201   0.102   5.792  10.233 -0.0032  0.0116 -0.8501
  380MOL0     C51202   0.136   5.706  10.123 -0.3071  0.9159  0.8032
  380MOL0     C51203   0.140   5.561  10.172  0.3142 -0.3906 -0.7502
  380MOL0     C51204   0.011   5.513  10.237  0.0254 -0.0290  0.0021
  380MOL0     C51205  -0.127   5.534  10.160 -0.5511 -0.0389 -0.3293
  380MOL0     C51206  -0.248   5.459  10.229  0.9669  0.1117  0.2124
  380MOL0     C51207  -0.369   5.457  10.135  0.3444 -0.0701 -0.0140
  380MOL0     C51208  -0.381   5.361  10.020 -0.0718  0.7504 -0.2250
  380MOL0     C51209  -0.519   5.349   9.968 -0.6299 -0.0270 -0.0811
  380MOL0    Cl51210  -0.654   5.326  10.088 -0.5056 -0.2662  0.3222
  380MOL0     C51211   0.336   5.800  10.298  0.5686  0.1456  0.3362
  380MOL0     C51212   0.437   5.869  10.357 -0.7802 -0.2782 -0.4730
  380MOL0     O51213   0.697   6.024  10.379  0.0139  0.1871 -0.0270
  380MOL0     C51214   0.629   6.154  10.714  0.2042 -0.2347 -0.8952
  380MOL0     C51215   0.678   6.167  10.840 -1.0367 -0.9129 -1.0740
  380MOL0     N51216   1.354   5.825  11.330  0.4235 -0.9997  0.1995
  380MOL0     N51217   1.426   5.733  11.364  0.0664 -0.4178  0.6138
  380MOL0     C51218   2.165   5.004  11.352 -0.3591  0.2710 -0.8238
  380MOL0     C51219   2.310   4.999  11.334 -0.1065 -0.3273 -0.5882
  380MOL0     C51220   2.725   4.831  11.203  0.0740 -0.4044 -0.5798
  380MOL0     C51221   2.805   4.721  11.180 -0.0764  0.3613 -0.8948
  380MOL0     C51222   2.941   4.732  11.170 -0.9507 -0.6007 -0.4433
  380MOL0     C51223   3.007   4.859  11.187  0.2791  0.8194  0.1813
  380MOL0     O51224   3.141   4.867  11.181 -0.0835 -0.0717  0.7141
  380MOL0     C51225   3.198   4.973  11.095 -0.2421  0.0952  0.2995
  380MOL0     C51226   3.234   4.922  10.959 -0.3092 -0.1404 -0.6276
  380MOL0     C51227   3.289   5.023  10.858  0.4724 -0.0713  0.0619
  380MOL0     C51228   3.326   4.937  10.733  0.3933 -0.3770 -0.4236
  380MOL0     C51229   3.436   4.998  10.655  0.3455 -0.0428  0.6174
  380MOL0     C51230   3.527   5.045  10.587 -0.0160 -0.3205 -0.7392
  380MOL0     C51231   2.925   4.970  11.216  0.3968  0.3896  0.0603
  380MOL0     C51232   2.787   4.953  11.225  0.9054  0.0023  0.8783
  380MOL0     H51233   2.326   4.797  11.068  1.8666  1.3189 -0.5344
  380MOL0     H51234   2.091   4.789  11.101 -0.6252 -0.5882  0.0478
  380MOL0     H51235   1.856   4.905  11.103 -1.9062 -1.3670 -0.7133
  380MOL0     H51236   1.890   4.755  11.204 -0.2827 -0.7978 -1.2445
  380MOL0     H51237   1.645   4.805  11.230  0.6784 -1.3184  1.3017
  380MOL0     H51238   1.719   4.853  11.376 -1.9517  0.8643  0.1036
  380MOL0     H51239   1.754   5.078  11.291  0.2050  0.9988 -0.9344
  380MOL0     H51240   1.665   5.040  11.148 -1.9204 -2.9022 -0.4714
  380MOL0     H51241   1.449   5.008  11.284  0.0753  0.2303 -1.5394
  380MOL0     H51242   1.547   5.008  11.434 -0.2437 -2.8618 -1.3102
  380MOL0     H51243   1.603   5.235  11.422 -2.0669  0.9855  1.5411
  380MOL0     H51244   1.554   5.243  11.253  3.0104 -2.0479 -0.5292
  380MOL0     H51245   1.327   5.238  11.326  1.3797 -0.8607 -0.5729
  380MOL0     H51246   1.367   5.191  11.492  3.2600 -1.7158  0.9527
  380MOL0     H51247   1.315   5.413  11.497  1.4121  1.6303  0.1057
  380MOL0     H51248   1.471   5.419  11.532 -2.4457  3.1523  0.9032
  380MOL0     H51249   1.389   5.443  11.237 -4.4132  0.1885  1.2857
  380MOL0     H51250   1.532   5.513  11.314 -0.8490 -0.9425 -1.2926
  380MOL0     H51251   1.167   5.560  11.280  2.9730 -1.5485 -0.3197
  380MOL0     H51252   1.031   5.878  11.321 -0.5934 -1.2467 -1.1005
  380MOL0     H51253   1.167   5.978  11.276  2.7928 -0.6651 -1.9158
  380MOL0     H51254   1.071   5.761  11.102 -1.3991  0.0376 -0.5969
  380MOL0     H51255   1.166   5.892  11.043  0.3567  2.8647  0.7512
  380MOL0     H51256   0.870   5.924  11.136  0.1706  1.0192  1.2087
  380MOL0     H51257   0.917   5.904  10.972 -0.9502  1.1929 -0.3646
  380MOL0     H51258   1.055   6.106  10.979 -0.9287  1.3929  0.3144
  380MOL0     H51259   1.018   6.125  11.140 -0.6480 -1.1917  0.8220
  380MOL0     H51260   0.989   6.045  10.789 -1.6170 -2.2697  2.9299
  380MOL0     H51261   0.948   6.093  10.455 -1.5712  0.3145  0.6309
  380MOL0     H51262   1.033   5.999  10.571  0.2924  1.3755  0.1440
  380MOL0     H51263   0.894   5.923  10.488 -1.3735  0.6596  0.0892
  380MOL0     H51264   0.264   6.128  10.490 -0.0699 -1.4507  2.2313
  380MOL0     H51265   0.076   6.022  10.359 -0.9355  1.2008  0.6703
  380MOL0     H51266   0.066   5.718  10.039 -0.0203  0.9330  0.5651
  380MOL0     H51267   0.234   5.738  10.088  0.0454  1.0476  1.8786
  380MOL0     H51268   0.161   5.504  10.081 -2.2005 -1.4168 -0.7892
  380MOL0     H51269   0.225   5.542  10.238  0.1422 -0.9631 -0.6915
  380MOL0     H51270   0.013   5.574  10.328 -0.3895 -1.0362  0.6990
  380MOL0     H51271   0.013   5.410  10.273 -3.4893 -0.2234  0.0605
  380MOL0     H51272  -0.145   5.642  10.167 -1.1202 -0.2562  2.6827
  380MOL0     H51273  -0.122   5.507  10.054  1.0924 -2.5545  0.2846
  380MOL0     H51274  -0.266   5.509  10.325  4.0383  1.8401  0.0283
  380MOL0     H51275  -0.215   5.357  10.251  0.9345  0.2932  1.1520
  380MOL0     H51276  -0.452   5.441  10.204  1.7173 -0.2220  1.6639
  380MOL0     H51277  -0.394   5.556  10.097 -0.8894  0.3673  1.8113
  380MOL0     H51278  -0.362   5.263  10.065  0.3235  0.4100 -1.1163
  380MOL0     H51279  -0.306   5.384   9.944  0.8686  1.6528  0.9343
  380MOL0     H51280  -0.522   5.259   9.906  0.9746 -0.4464  0.3942
  380MOL0     H51281  -0.532   5.433   9.899  0.1821  0.0632 -0.1282
  380MOL0     H51282   0.359   5.708  10.246  0.1511  1.1752 -1.7675
  380MOL0     H51283   0.538   5.830  10.366  1.3955  4.9714  2.0372
  380MOL0     H51284   0.529   6.185  10.687  0.3074  0.9865  0.0614
  380MOL0     H51285   0.627   6.222  10.918  0.8961 -1.0346  0.3656
  380MOL0     H51286   2.124   5.071  11.427  1.9350  0.0754  0.7270
  380MOL0     H51287   2.372   5.053  11.405  1.9899 -0.6685 -2.0637
  380MOL0     H51288   2.768   4.619  11.176  1.1936 -0.1757  0.1530
  380MOL0     H51289   2.994   4.638  11.153 -1.2065 -1.0246  0.9329
  380MOL0     H51290   3.132   5.060  11.090 -1.2543 -0.6814 -0.2954
  380MOL0     H51291   3.289   4.999  11.150 -0.8408 -0.0523  1.3933
  380MOL0     H51292   3.144   4.871  10.923 -0.5922 -0.1226  0.0504
  380MOL0     H51293   3.312   4.847  10.979 -0.4306 -0.4557 -1.2980
  380MOL0     H51294   3.383   5.066  10.892 -0.3792  1.4404  0.6190
  380MOL0     H51295   3.211   5.095  10.829 -2.0004 -2.2456  0.8823
  380MOL0     H51296   3.241   4.924  10.665  1.0912 -1.1028 -1.1859
  380MOL0     H51297   3.341   4.833  10.765  0.9634 -0.0687  0.3406
  380MOL0     H51298   3.618   5.078  10.540  1.8737 -2.2840  1.2211
  380MOL0     H51299   2.971   5.066  11.236  4.1750 -1.3077  0.3407
  380MOL0     H51300   2.731   5.041  11.256  0.1601 -0.0039 -0.3887
  381MOL0     O51301   4.169  10.169   0.427 -0.2892 -0.1639  0.2380
  381MOL0     C51302   4.177  10.145   0.309  0.4317 -0.4122 -0.0357
  381MOL0     O51303   4.286  10.092   0.249 -0.6439  0.3488 -0.6611
  381MOL0     C51304   4.410  10.077   0.313 -0.4775 -0.5641  0.8764
  381MOL0     C51305   4.447  10.099   0.449 -0.3495 -0.0168  0.2143
  381MOL0     C51306   4.584  10.069   0.488 -0.0823  0.1917 -0.2778
  381MOL0     C51307   4.688  10.020   0.394 -0.6893 -0.0111  0.2570
  381MOL0     O51308   4.812   9.985   0.439  0.4832 -0.4681 -0.1796
  381MOL0     C51309   4.903   9.926   0.346  0.3247 -0.0223 -0.7073
  381MOL0     C51310   5.037   9.893   0.406  0.1254  0.0343 -0.6440
  381MOL0     C51311   5.129   9.831   0.302 -0.6934  0.0967 -0.4854
  381MOL0     C51312   5.245   9.760   0.379  0.0634 -0.2340  0.0156
  381MOL0     C51313   5.325   9.677   0.281  0.1704  0.7824  0.2266
  381MOL0     C51314   5.450   9.633   0.357 -0.3178 -0.0043  0.0073
  381MOL0     C51315   5.504   9.511   0.286  0.8715  0.1936 -0.3850
  381MOL0     C51316   5.634   9.468   0.359 -0.6449  0.7474  1.2623
  381MOL0     N51317   5.676   9.330   0.309 -0.2025 -0.2440 -0.1225
  381MOL0     C51318   5.755   9.306   0.200 -0.1313  0.5822 -0.2521
  381MOL0     C51319   5.749   9.169   0.188 -0.5793  0.5353  0.6860
  381MOL0     C51320   5.822   9.072   0.093  0.4280 -0.0611 -0.4810
  381MOL0     C51321   5.755   9.048  -0.041  0.0744 -0.1686 -0.4325
  381MOL0     C51322   5.631   8.967  -0.054  0.7934 -0.1053  0.0155
  381MOL0     C51323   5.499   9.043  -0.026  0.9437 -0.2883  0.5219
  381MOL0     O51324   5.494   9.179  -0.077  0.5395 -0.1894  0.3371
  381MOL0     C51325   5.387   9.257  -0.053 -0.1155 -0.3585 -0.6181
  381MOL0     C51326   5.404   9.389  -0.090  0.2167  1.6411 -0.2273
  381MOL0     C51327   5.304   9.479  -0.057  0.0883 -0.2968  0.1587
  381MOL0     C51328   5.317   9.611  -0.126 -0.0459  1.5224 -0.6317
  381MOL0     C51329   5.185   9.443   0.015  1.0866  0.6851 -0.5220
  381MOL0     C51330   5.061   9.533   0.034 -0.5371  0.5130 -0.3596
  381MOL0     O51331   4.959   9.457   0.077  0.0481 -0.2992  0.8849
  381MOL0     C51332   4.835   9.516   0.073 -0.3260 -0.1403  0.8692
  381MOL0     C51333   4.775   9.551   0.193 -0.6497  0.4723 -0.0749
  381MOL0     C51334   4.650   9.610   0.198 -0.2306  0.6946  0.3453
  381MOL0     C51335   4.582   9.635   0.072  0.8250  0.1467 -0.2865
  381MOL0     O51336   4.460   9.700   0.068  0.5042  0.2880 -0.3770
  381MOL0     C51337   4.363   9.651   0.167  0.0991  0.4587 -0.0800
  381MOL0     C51338   4.234   9.733   0.172  1.0227 -0.6148  0.1889
  381MOL0     C51339   4.158   9.719   0.037 -0.1210 -0.5542  0.4164
  381MOL0     C51340   4.006   9.729   0.059  0.2027 -0.2007  0.0414
  381MOL0     C51341   3.919   9.681  -0.053 -1.0415 -0.2331 -0.1582
  381MOL0     C51342   3.771   9.681  -0.028 -0.3491 -0.4356  1.0618
  381MOL0     C51343   3.689   9.655  -0.158  0.2229 -0.4444  0.5639
  381MOL0     C51344   3.544   9.622  -0.122 -0.1487 -0.3971  0.3061
  381MOL0    Cl51345   3.545   9.462  -0.035  0.0701  0.1813 -0.2559
  381MOL0     C51346   4.638   9.598  -0.047 -0.4230  0.5273  0.3753
  381MOL0     C51347   4.766   9.542  -0.048 -0.2582  0.8281  0.1057
  381MOL0     O51348   5.057   9.650   0.012 -0.2342  0.3725  0.6557
  381MOL0     C51349   5.177   9.308   0.062  0.7519 -0.4456 -0.8119
  381MOL0     C51350   5.278   9.217   0.026  0.7495  0.3082  0.9433
  381MOL0     N51351   5.666   9.120   0.291 -0.0456 -0.7309  0.1968
  381MOL0     N51352   5.627   9.218   0.364 -0.1329 -0.6514  0.4346
  381MOL0     C51353   4.644  10.002   0.262  0.0917 -0.0728  0.4531
  381MOL0     C51354   4.508  10.017   0.233 -0.3340 -0.0435 -0.3520
  381MOL0     C51355   4.052  10.166   0.224 -0.4676  0.6007 -0.5741
  381MOL0     C51356   4.052  10.121   0.094 -0.0343 -0.0691 -0.1495
  381MOL0     C51357   3.946  10.152   0.003  1.1102  0.2342 -0.3317
  381MOL0     C51358   3.831  10.221   0.040  0.4570  0.3313 -0.4309
  381MOL0     O51359   3.726  10.262  -0.039  0.4045  0.5095  0.2921
  381MOL0     C51360   3.733  10.233  -0.173 -0.1988  0.1553 -0.1357
  381MOL0     C51361   3.704  10.082  -0.196  0.1736 -0.7666  0.8627
  381MOL0     C51362   3.586  10.033  -0.113  0.4040  0.0862  0.4939
  381MOL0     C51363   3.454  10.074  -0.175  0.0135  0.3781  0.2337
  381MOL0     C51364   3.342  10.026  -0.094 -0.4555  0.1707 -0.3822
  381MOL0     C51365   3.258   9.982  -0.020 -0.3735  0.3904  0.5432
  381MOL0     C51366   3.832  10.265   0.185  0.2204  0.1649  0.2583
  381MOL0     C51367   3.939  10.238   0.273  0.3362 -0.1886  0.4889
  381MOL0     H51368   4.381  10.135   0.528 -0.8172 -0.0087 -0.1720
  381MOL0     H51369   4.603  10.110   0.587  0.6341  0.3278 -0.4690
  381MOL0     H51370   4.855   9.840   0.298 -1.4921  0.9395 -0.7203
  381MOL0     H51371   4.932   9.992   0.263  0.0316  0.6821 -0.2598
  381MOL0     H51372   5.083   9.985   0.444 -0.0797  0.7278 -2.0079
  381MOL0     H51373   5.023   9.824   0.489  2.0616  1.4632  0.9681
  381MOL0     H51374   5.074   9.750   0.253 -1.1336  0.3946 -0.4890
  381MOL0     H51375   5.153   9.902   0.223 -0.5385  1.8823  1.1084
  381MOL0     H51376   5.303   9.838   0.430  0.0032 -0.4087  0.3550
  381MOL0     H51377   5.207   9.687   0.451 -1.8311  1.0085  0.3437
  381MOL0     H51378   5.270   9.586   0.257  1.7815 -0.0384 -0.5317
  381MOL0     H51379   5.349   9.733   0.190  1.2145  0.7203  0.4490
  381MOL0     H51380   5.533   9.704   0.352  1.1599 -1.2484  3.2484
  381MOL0     H51381   5.430   9.614   0.463  1.5407 -0.1253  0.3792
  381MOL0     H51382   5.430   9.430   0.287 -0.3597  1.0112  4.9652
  381MOL0     H51383   5.539   9.539   0.186  1.6416  0.5739 -0.0174
  381MOL0     H51384   5.625   9.457   0.467  1.4321 -2.8101  1.2220
  381MOL0     H51385   5.718   9.533   0.334 -0.2690 -0.4578 -0.7801
  381MOL0     H51386   5.793   9.375   0.125 -1.3305  0.4263 -1.0156
  381MOL0     H51387   5.918   9.118   0.067 -0.8439  3.1553  0.0289
  381MOL0     H51388   5.846   8.977   0.142  0.5676  1.6235  3.0159
  381MOL0     H51389   5.825   8.991  -0.102  0.4108 -2.5356  1.9996
  381MOL0     H51390   5.731   9.144  -0.088 -2.6754  0.0503  1.1961
  381MOL0     H51391   5.640   8.887   0.020  0.1941 -0.5669 -0.3996
  381MOL0     H51392   5.626   8.927  -0.156 -0.3452  2.5462 -1.0670
  381MOL0     H51393   5.498   9.054   0.083  1.6235 -0.2592  0.5332
  381MOL0     H51394   5.421   8.974  -0.057  1.0234  0.0692 -0.5108
  381MOL0     H51395   5.492   9.411  -0.149  0.3520  0.9041 -0.3047
  381MOL0     H51396   5.243   9.624  -0.205 -2.8661  0.1510  1.5889
  381MOL0     H51397   5.304   9.695  -0.056  0.1736 -0.2223  1.6155
  381MOL0     H51398   5.421   9.615  -0.160 -0.1662 -0.5072 -1.3415
  381MOL0     H51399   4.838   9.534   0.279 -0.8792  1.7807  0.3690
  381MOL0     H51400   4.601   9.640   0.291 -2.5154 -0.2536 -0.4782
  381MOL0     H51401   4.334   9.549   0.139 -1.0106  0.5667  0.6227
  381MOL0     H51402   4.401   9.648   0.269 -1.8165 -4.5654  0.8082
  381MOL0     H51403   4.179   9.700   0.260  0.3145  2.2969  0.9389
  381MOL0     H51404   4.253   9.839   0.189 -1.1998  0.2732 -2.1951
  381MOL0     H51405   4.184   9.624  -0.009  0.0353  1.1505 -3.3235
  381MOL0     H51406   4.185   9.792  -0.040  2.4667 -1.4067  0.4251
  381MOL0     H51407   3.981   9.683   0.156 -0.0862 -0.8852 -0.3485
  381MOL0     H51408   3.988   9.836   0.065 -0.5730 -0.3524  0.6343
  381MOL0     H51409   3.944   9.574  -0.054 -2.6847 -0.6671  1.0516
  381MOL0     H51410   3.942   9.744  -0.139 -0.1737  1.4264  1.2140
  381MOL0     H51411   3.744   9.602   0.042  4.3805 -1.6909  1.7869
  381MOL0     H51412   3.740   9.777   0.016  0.4785  1.1142 -1.4745
  381MOL0     H51413   3.737   9.580  -0.222  0.8457 -0.4895  1.0801
  381MOL0     H51414   3.707   9.740  -0.224 -0.4709 -0.0657  0.8552
  381MOL0     H51415   3.491   9.613  -0.217  0.3457  0.4529 -0.0535
  381MOL0     H51416   3.500   9.701  -0.061  0.8625 -0.4607  1.1367
  381MOL0     H51417   4.580   9.620  -0.137  1.5262  1.0339 -0.8155
  381MOL0     H51418   4.818   9.523  -0.142 -1.2658 -0.1325 -0.2842
  381MOL0     H51419   5.094   9.267   0.120  0.9975 -0.6089 -0.5714
  381MOL0     H51420   5.260   9.112   0.048  1.0912  0.1457  0.4643
  381MOL0     H51421   4.700   9.964   0.177 -0.9551 -1.5862  0.3996
  381MOL0     H51422   4.486   9.992   0.130  1.1972  2.4085 -1.3721
  381MOL0     H51423   4.132  10.061   0.049  0.6248  2.1414 -2.1415
  381MOL0     H51424   3.970  10.120  -0.098  1.5594 -2.8242  0.6562
  381MOL0     H51425   3.665  10.301  -0.226 -1.2138  0.5568  1.5964
  381MOL0     H51426   3.833  10.247  -0.215 -0.2313 -2.3820 -1.2405
  381MOL0     H51427   3.795  10.022  -0.178  2.3719  0.4934 -4.2264
  381MOL0     H51428   3.679  10.069  -0.301 -2.3156  0.9792  1.1550
  381MOL0     H51429   3.592  10.059  -0.007 -1.5371 -1.7579  1.1040
  381MOL0     H51430   3.592   9.924  -0.118 -2.6062 -0.1016 -1.4339
  381MOL0     H51431   3.451  10.031  -0.275  0.7704 -0.2887  0.4910
  381MOL0     H51432   3.449  10.183  -0.179  3.2204  0.5909 -1.6593
  381MOL0     H51433   3.185   9.939   0.046 -0.2159 -0.8205 -0.0325
  381MOL0     H51434   3.751  10.329   0.219  0.5814  0.1471  1.1858
  381MOL0     H51435   3.950  10.292   0.366 -1.8166 -3.4767  2.8814
  382MOL0     O51436   0.770   6.525   7.287 -1.2791 -0.0516  0.4377
  382MOL0     C51437   0.855   6.609   7.304 -0.2737 -0.4974 -0.1430
  382MOL0     O51438   0.850   6.742   7.250 -0.8039  0.2368  0.7463
  382MOL0     C51439   0.730   6.787   7.208 -1.0027  0.5083  0.7455
  382MOL0     C51440   0.656   6.859   7.296  0.2458 -0.4892 -0.2360
  382MOL0     C51441   0.543   6.932   7.260  0.9182  0.0878 -0.4423
  382MOL0     C51442   0.494   6.921   7.129  1.0500  0.1859  0.3122
  382MOL0     O51443   0.377   6.978   7.091 -0.1084  0.2522 -0.0919
  382MOL0     C51444   0.272   6.945   7.175 -0.0727  0.0099 -0.4159
  382MOL0     C51445   0.143   6.997   7.103 -0.6052 -0.4041 -0.1324
  382MOL0     C51446   0.022   6.951   7.185 -0.2752  0.9048  0.0137
  382MOL0     C51447  -0.094   7.042   7.168  0.5065 -0.0762  1.6258
  382MOL0     C51448  -0.143   7.078   7.022 -0.9537  0.3859  0.9511
  382MOL0     C51449  -0.271   7.162   7.030 -0.1661  0.3373  0.3192
  382MOL0     C51450  -0.327   7.183   6.895 -0.5903  1.0760  0.2718
  382MOL0     C51451  -0.442   7.284   6.883  0.2974  0.4567 -1.1023
  382MOL0     N51452  -0.542   7.237   6.982 -0.6265 -0.2737 -0.0607
  382MOL0     C51453  -0.616   7.120   6.970 -0.7062  1.0566 -0.4870
  382MOL0     C51454  -0.669   7.092   7.090 -0.1532 -0.0368 -0.0775
  382MOL0     C51455  -0.739   6.963   7.131 -0.4536  0.0148  0.4749
  382MOL0     C51456  -0.861   6.983   7.217  0.3797  0.2850  0.4443
  382MOL0     C51457  -0.918   6.837   7.252  1.7141 -0.4889 -0.5243
  382MOL0     C51458  -1.049   6.850   7.340 -0.5524  0.3585  0.0081
  382MOL0     O51459  -1.030   6.955   7.434  0.5703 -0.4021 -0.0813
  382MOL0     C51460  -1.149   6.996   7.489  0.4836 -0.1001 -0.0680
  382MOL0     C51461  -1.265   6.913   7.518 -0.1046 -0.8960  0.3609
  382MOL0     C51462  -1.381   6.969   7.577  0.2728  0.1462 -0.3457
  382MOL0     C51463  -1.505   6.883   7.581  0.1062 -0.2771 -0.1028
  382MOL0     C51464  -1.385   7.106   7.608  0.3451 -0.4778  0.5191
  382MOL0     C51465  -1.508   7.174   7.665  0.0643 -0.5026 -0.3684
  382MOL0     O51466  -1.630   7.120   7.663 -0.4207  0.1924 -0.2922
  382MOL0     C51467  -1.735   7.198   7.707  0.0689  0.2203 -0.1030
  382MOL0     C51468  -1.773   7.195   7.842 -0.1354  0.1772  0.4547
  382MOL0     C51469  -1.886   7.266   7.887 -0.8764 -0.7390  0.3167
  382MOL0     C51470  -1.963   7.339   7.793 -0.3049 -0.0486  0.7266
  382MOL0     O51471  -2.064   7.422   7.842  0.3551  0.3875 -0.2707
  382MOL0     C51472  -2.162   7.475   7.754 -0.7060 -0.1508 -0.2912
  382MOL0     C51473  -2.260   7.376   7.705  0.1575 -0.1469 -0.0892
  382MOL0     C51474  -2.350   7.420   7.582  0.8337  0.5381 -0.3956
  382MOL0     C51475  -2.473   7.330   7.579 -0.1975 -0.2439  0.2629
  382MOL0     C51476  -2.559   7.355   7.457 -0.3304  0.2220  0.2612
  382MOL0     C51477  -2.622   7.498   7.440 -0.7374  0.9524 -0.9484
  382MOL0     C51478  -2.688   7.497   7.300  0.4900 -0.4190 -0.1174
  382MOL0     C51479  -2.768   7.629   7.270 -1.2756  0.4300  0.4578
  382MOL0    Cl51480  -2.940   7.618   7.334 -0.0186 -0.1080  0.3459
  382MOL0     C51481  -1.924   7.335   7.657 -0.8084 -0.1127 -0.5222
  382MOL0     C51482  -1.808   7.273   7.617  0.1279 -0.3797  0.6704
  382MOL0     O51483  -1.489   7.287   7.707 -0.6926  0.3916 -0.4011
  382MOL0     C51484  -1.268   7.187   7.598 -0.6133  0.4786 -0.0007
  382MOL0     C51485  -1.156   7.129   7.539  0.0836  1.3232  0.5610
  382MOL0     N51486  -0.640   7.196   7.172  0.7259  0.2031 -0.0570
  382MOL0     N51487  -0.563   7.279   7.112 -0.5799 -0.1472  0.3157
  382MOL0     C51488   0.562   6.835   7.043 -0.3139 -0.4754 -0.0106
  382MOL0     C51489   0.675   6.765   7.088  0.5583 -0.1905 -0.5462
  382MOL0     C51490   0.963   6.580   7.396 -0.9406  0.4461  0.4957
  382MOL0     C51491   0.977   6.462   7.470  0.4663 -0.1523 -0.3105
  382MOL0     C51492   1.072   6.440   7.568 -0.1370 -0.5681 -0.8215
  382MOL0     C51493   1.165   6.553   7.592  0.0178  0.0617  0.8599
  382MOL0     O51494   1.281   6.544   7.673  0.3115 -0.0741 -0.6732
  382MOL0     C51495   1.275   6.437   7.761 -0.5311 -0.3484 -0.9810
  382MOL0     C51496   1.375   6.448   7.875 -0.1887  0.6901 -0.8211
  382MOL0     C51497   1.513   6.484   7.806  0.4168 -0.0694 -0.1275
  382MOL0     C51498   1.625   6.467   7.894  0.3761 -0.1193  0.4731
  382MOL0     C51499   1.749   6.520   7.839 -0.0185 -0.0520 -0.6401
  382MOL0     C51500   1.846   6.558   7.776 -0.4401  0.2608 -0.5098
  382MOL0     C51501   1.151   6.668   7.514  0.5755  0.8621  0.5356
  382MOL0     C51502   1.049   6.688   7.427 -0.1109  0.7280  0.3464
  382MOL0     H51503   0.703   6.880   7.391 -1.0472  1.9521 -0.0492
  382MOL0     H51504   0.492   6.998   7.330  4.1390 -0.2969  2.5286
  382MOL0     H51505   0.271   6.837   7.194  1.2698 -0.3065 -1.9118
  382MOL0     H51506   0.291   6.996   7.270  3.3133  1.1477 -1.5565
  382MOL0     H51507   0.148   7.105   7.088 -1.3530 -0.4261 -0.5157
  382MOL0     H51508   0.143   6.948   7.005  0.4153 -0.0318 -0.3388
  382MOL0     H51509  -0.015   6.852   7.158  1.4089 -0.2363  1.6719
  382MOL0     H51510   0.058   6.945   7.288 -1.6205  3.5500  0.7366
  382MOL0     H51511  -0.178   6.994   7.220 -1.1155 -0.0246 -0.7839
  382MOL0     H51512  -0.074   7.134   7.225  0.3318  0.8341  0.2686
  382MOL0     H51513  -0.065   7.127   6.963 -0.7543 -0.8493  0.1474
  382MOL0     H51514  -0.159   6.987   6.964  0.9952  0.0410  0.8881
  382MOL0     H51515  -0.347   7.111   7.091  0.6266 -1.3922 -0.0772
  382MOL0     H51516  -0.232   7.257   7.066  1.0963 -0.4011  1.0126
  382MOL0     H51517  -0.246   7.213   6.828  1.7196  1.2853  2.9719
  382MOL0     H51518  -0.359   7.084   6.863  1.7592  0.8329 -1.5437
  382MOL0     H51519  -0.485   7.291   6.782 -1.0267 -0.2163 -0.6253
  382MOL0     H51520  -0.402   7.380   6.915  0.4557 -0.2525  0.9213
  382MOL0     H51521  -0.619   7.064   6.877  1.6259  1.1642 -0.6923
  382MOL0     H51522  -0.759   6.895   7.048  3.7091 -1.0806  0.1246
  382MOL0     H51523  -0.663   6.919   7.197  2.3768 -0.5345 -2.8948
  382MOL0     H51524  -0.929   7.049   7.162 -0.6092 -0.1610  1.0974
  382MOL0     H51525  -0.825   7.041   7.303  2.5170  1.3943 -1.1280
  382MOL0     H51526  -0.839   6.772   7.291  1.7152  0.1528  0.5872
  382MOL0     H51527  -0.951   6.791   7.159  1.2985  1.1674 -1.2317
  382MOL0     H51528  -1.071   6.756   7.392 -2.2640  0.3758 -0.6068
  382MOL0     H51529  -1.139   6.872   7.281 -0.1179  1.9725 -0.0927
  382MOL0     H51530  -1.266   6.812   7.480  1.9853 -0.8305 -0.0195
  382MOL0     H51531  -1.578   6.898   7.501 -0.1361 -0.7359  0.0288
  382MOL0     H51532  -1.478   6.778   7.562 -1.5724 -0.9114  0.8501
  382MOL0     H51533  -1.545   6.899   7.681  2.3867 -0.0114  0.8403
  382MOL0     H51534  -1.705   7.142   7.908  2.2796  2.9049  0.3656
  382MOL0     H51535  -1.923   7.259   7.989 -2.9376 -0.7776 -0.3910
  382MOL0     H51536  -2.215   7.555   7.807 -3.0609 -0.9431 -1.2843
  382MOL0     H51537  -2.117   7.527   7.669 -0.0794  0.0333  0.1517
  382MOL0     H51538  -2.208   7.283   7.682  3.4917  1.6415 -0.3261
  382MOL0     H51539  -2.329   7.358   7.788  1.1564  1.4785  1.1308
  382MOL0     H51540  -2.300   7.413   7.485 -0.4254  2.1775 -1.2226
  382MOL0     H51541  -2.377   7.526   7.588  1.5149  1.0080 -3.5485
  382MOL0     H51542  -2.447   7.224   7.575  0.0701 -0.1414 -1.1478
  382MOL0     H51543  -2.530   7.337   7.673 -0.9446 -0.7639 -0.1442
  382MOL0     H51544  -2.639   7.282   7.469  0.5517 -0.7827  0.1795
  382MOL0     H51545  -2.495   7.336   7.370 -0.9448  1.5931 -0.5331
  382MOL0     H51546  -2.700   7.510   7.516  1.5562  1.6306  1.4685
  382MOL0     H51547  -2.537   7.567   7.439  0.8080 -0.8273  0.6282
  382MOL0     H51548  -2.749   7.409   7.279 -0.2900  0.5868 -2.2353
  382MOL0     H51549  -2.604   7.489   7.230  1.1811  3.2026  0.0934
  382MOL0     H51550  -2.760   7.629   7.161  0.1555 -0.0174  0.5433
  382MOL0     H51551  -2.725   7.716   7.321 -3.5707  0.7079  2.0758
  382MOL0     H51552  -1.969   7.399   7.582  1.1520  2.1593  0.0916
  382MOL0     H51553  -1.772   7.280   7.515 -1.5541  2.5880  0.1842
  382MOL0     H51554  -1.265   7.290   7.634  0.4082  0.5286 -0.1992
  382MOL0     H51555  -1.075   7.200   7.526 -1.2502  2.4435 -2.6322
  382MOL0     H51556   0.533   6.815   6.941  0.7050  4.3428 -1.5204
  382MOL0     H51557   0.712   6.709   7.003 -1.8140 -3.1533  0.2238
  382MOL0     H51558   0.906   6.382   7.450 -0.1921  0.9375 -2.6538
  382MOL0     H51559   1.079   6.343   7.617 -1.9471 -0.4826 -0.3170
  382MOL0     H51560   1.179   6.444   7.814 -0.9917 -0.1124 -1.8314
  382MOL0     H51561   1.297   6.341   7.713  1.6438 -0.5934  0.3820
  382MOL0     H51562   1.385   6.351   7.925 -5.7553 -2.0731 -4.0330
  382MOL0     H51563   1.350   6.527   7.946 -0.1994 -0.7607  0.8542
  382MOL0     H51564   1.508   6.586   7.769  0.2793  0.5448  1.4895
  382MOL0     H51565   1.529   6.412   7.725 -2.0294 -0.6541 -0.1647
  382MOL0     H51566   1.634   6.360   7.918 -0.3473  0.3968  3.2735
  382MOL0     H51567   1.597   6.517   7.987 -0.6274 -1.1708  0.7547
  382MOL0     H51568   1.936   6.582   7.723  1.3677  1.3927  2.7579
  382MOL0     H51569   1.227   6.744   7.528  1.0818  0.4149  0.2484
  382MOL0     H51570   1.046   6.784   7.377 -0.5305  0.3312 -0.4096
  383MOL0     O51571   9.289   0.223   8.152 -0.8362  0.1665 -0.2630
  383MOL0     C51572   9.349   0.156   8.231  0.6603  0.1553 -0.0273
  383MOL0     O51573   9.297   0.100   8.345  0.8938 -0.5365  0.4157
  383MOL0     C51574   9.163   0.121   8.366  0.1756  0.7171 -0.1964
  383MOL0     C51575   9.126   0.218   8.457 -0.2790 -0.0936  0.0681
  383MOL0     C51576   8.986   0.221   8.500  1.1041 -0.9627  0.0786
  383MOL0     C51577   8.887   0.144   8.423 -0.8231  0.2847  0.3876
  383MOL0     O51578   8.764   0.165   8.462 -0.1757  0.3233  0.2121
  383MOL0     C51579   8.655   0.074   8.439 -0.4699 -0.5696  0.2232
  383MOL0     C51580   8.532   0.128   8.501  1.1077 -0.3339  0.6905
  383MOL0     C51581   8.439   0.017   8.559 -0.3951 -0.2560  0.6121
  383MOL0     C51582   8.305   0.070   8.598  0.2519 -0.3277  1.4184
  383MOL0     C51583   8.191  -0.035   8.592  0.2120 -1.2348 -1.0255
  383MOL0     C51584   8.054   0.039   8.586 -0.2781  0.3090 -0.1843
  383MOL0     C51585   7.947  -0.069   8.614  0.0045 -1.3419  0.0442
  383MOL0     C51586   7.873  -0.114   8.487  0.3871 -0.5502  0.1230
  383MOL0     N51587   7.734  -0.182   8.515 -0.1538  0.6092 -0.3800
  383MOL0     C51588   7.713  -0.311   8.564 -0.1332  0.6260  0.3448
  383MOL0     C51589   7.578  -0.329   8.571 -0.2643  0.0077  1.5923
  383MOL0     C51590   7.502  -0.461   8.599  0.2336  0.0908  0.7716
  383MOL0     C51591   7.465  -0.481   8.745 -0.1571 -0.1420 -0.6475
  383MOL0     C51592   7.594  -0.499   8.840 -0.4971 -0.3043 -0.3444
  383MOL0     C51593   7.555  -0.500   8.986  0.7771  0.8197  1.0517
  383MOL0     O51594   7.474  -0.612   9.013 -0.7492 -0.3607 -0.6136
  383MOL0     C51595   7.362  -0.585   9.088  0.6627 -0.7322  0.2693
  383MOL0     C51596   7.355  -0.509   9.202  0.4726  0.1020 -0.3014
  383MOL0     C51597   7.239  -0.501   9.289  0.2700 -0.1684  0.4271
  383MOL0     C51598   7.256  -0.435   9.425 -0.5653  0.2891 -0.2016
  383MOL0     C51599   7.121  -0.575   9.247 -0.7733  0.0314 -0.4457
  383MOL0     C51600   6.995  -0.563   9.324  0.4490  0.1501 -0.4639
  383MOL0     O51601   6.905  -0.668   9.313  0.3582  0.3438  0.6166
  383MOL0     C51602   6.798  -0.670   9.401  0.4518  0.8637 -0.0004
  383MOL0     C51603   6.802  -0.757   9.509  0.0751 -0.5013  0.1381
  383MOL0     C51604   6.682  -0.791   9.581  0.8466  0.2228 -0.1270
  383MOL0     C51605   6.558  -0.738   9.536  0.7042  0.2658 -1.1866
  383MOL0     O51606   6.439  -0.754   9.602  0.4482  0.0087 -0.4984
  383MOL0     C51607   6.429  -0.657   9.712 -0.5110  0.1516  0.4380
  383MOL0     C51608   6.331  -0.688   9.819  0.2357 -0.2355 -0.4125
  383MOL0     C51609   6.328  -0.838   9.853  0.0393 -0.7476 -0.0155
  383MOL0     C51610   6.263  -0.860   9.996  0.2717 -0.4036  0.2137
  383MOL0     C51611   6.291  -1.005  10.037 -0.4133  0.4347 -0.0375
  383MOL0     C51612   6.267  -1.021  10.184 -1.0612  0.4416 -0.0875
  383MOL0     C51613   6.274  -1.178  10.232 -0.2405 -1.3653 -0.1197
  383MOL0     C51614   6.246  -1.211  10.375 -0.4726 -0.5269 -0.3361
  383MOL0    Cl51615   6.412  -1.195  10.456  0.1424  0.1116 -0.1723
  383MOL0     C51616   6.562  -0.636   9.438 -0.7672  0.6437  0.0700
  383MOL0     C51617   6.680  -0.603   9.371  0.2637 -0.0590 -0.6464
  383MOL0     O51618   6.974  -0.459   9.392 -0.7965  0.4752 -0.2594
  383MOL0     C51619   7.126  -0.629   9.121  0.1153 -0.7003  0.3962
  383MOL0     C51620   7.240  -0.637   9.040 -0.2884  0.1427 -0.2681
  383MOL0     N51621   7.523  -0.207   8.541 -0.6146 -0.4855  0.1418
  383MOL0     N51622   7.612  -0.119   8.507  0.8475  0.3154 -0.1803
  383MOL0     C51623   8.934   0.051   8.327  0.1780  0.7539 -0.9922
  383MOL0     C51624   9.071   0.037   8.302 -0.1243  1.4738  0.2030
  383MOL0     C51625   9.483   0.115   8.195 -0.2152  0.5788  0.0654
  383MOL0     C51626   9.547   0.007   8.264  0.2994  0.0277 -0.2417
  383MOL0     C51627   9.681  -0.022   8.240 -0.0867  0.2629  1.0700
  383MOL0     C51628   9.760   0.046   8.143 -0.6299 -0.1096  0.3696
  383MOL0     O51629   9.893   0.006   8.133 -0.6846  0.2991  0.5584
  383MOL0     C51630   9.992   0.088   8.072 -0.4761 -0.4208  0.2162
  383MOL0     C51631  10.132   0.027   8.070 -0.1239 -1.0461 -0.5781
  383MOL0     C51632  10.191   0.009   8.207 -0.3275 -0.0421 -0.4693
  383MOL0     C51633  10.345   0.044   8.199 -0.5986 -0.2472  0.1352
  383MOL0     C51634  10.424  -0.049   8.114  0.0108 -0.4989  0.4673
  383MOL0     C51635  10.496  -0.130   8.059 -0.1407 -0.0796  0.2598
  383MOL0     C51636   9.699   0.146   8.070 -0.2302  1.2504  0.4107
  383MOL0     C51637   9.564   0.171   8.099  0.0982  0.7843  0.2160
  383MOL0     H51638   9.197   0.276   8.515 -0.3899  0.1685 -0.0532
  383MOL0     H51639   8.964   0.289   8.582 -0.8345 -1.4076 -0.0331
  383MOL0     H51640   8.640   0.051   8.333 -0.5969 -2.9663  0.6886
  383MOL0     H51641   8.680  -0.024   8.481 -0.4560 -1.0726 -0.9229
  383MOL0     H51642   8.559   0.188   8.589 -1.4987  1.8505  0.1243
  383MOL0     H51643   8.470   0.195   8.442 -2.2437  0.0424  4.1958
  383MOL0     H51644   8.429  -0.053   8.475 -1.6354  1.2754 -0.5799
  383MOL0     H51645   8.478  -0.027   8.651  2.5588  1.1230  0.1131
  383MOL0     H51646   8.301   0.115   8.698  0.1154  1.1891  0.7601
  383MOL0     H51647   8.278   0.148   8.526  2.9124 -1.3212 -0.8236
  383MOL0     H51648   8.203  -0.103   8.507 -1.7490 -4.3205  0.9547
  383MOL0     H51649   8.201  -0.092   8.685 -0.9594  1.6476  1.0211
  383MOL0     H51650   8.043   0.122   8.656 -0.6387  1.9140 -2.0419
  383MOL0     H51651   8.036   0.088   8.490  0.6671  1.2354  0.1016
  383MOL0     H51652   7.995  -0.154   8.664  1.6561 -1.1956 -1.1915
  383MOL0     H51653   7.876  -0.022   8.683 -2.0432 -0.4813 -2.4814
  383MOL0     H51654   7.932  -0.189   8.434 -2.6713 -2.6134 -0.6268
  383MOL0     H51655   7.858  -0.027   8.422 -0.6186 -0.2673  0.7089
  383MOL0     H51656   7.789  -0.386   8.588 -1.9964 -0.9662  1.6339
  383MOL0     H51657   7.413  -0.461   8.535  0.1328  3.6736  0.7101
  383MOL0     H51658   7.564  -0.540   8.557 -0.1448  0.6092 -0.8545
  383MOL0     H51659   7.403  -0.570   8.753  1.4280 -1.4283 -2.0765
  383MOL0     H51660   7.399  -0.397   8.769  0.1385 -0.2919  0.7946
  383MOL0     H51661   7.669  -0.420   8.830  0.7801 -1.3570  0.5277
  383MOL0     H51662   7.648  -0.592   8.821  1.1363  0.2913  1.1398
  383MOL0     H51663   7.508  -0.404   9.009  2.6064  2.3760 -1.2145
  383MOL0     H51664   7.642  -0.518   9.050  1.1217 -1.2435  0.0925
  383MOL0     H51665   7.448  -0.459   9.225 -0.4752  2.1171 -0.6775
  383MOL0     H51666   7.223  -0.494   9.511  4.8828 -1.9974  0.7287
  383MOL0     H51667   7.363  -0.426   9.446 -0.0839  0.9194 -2.6348
  383MOL0     H51668   7.217  -0.334   9.438 -0.1044  0.9246 -3.0455
  383MOL0     H51669   6.896  -0.811   9.517  1.9398  1.9261 -2.8709
  383MOL0     H51670   6.679  -0.853   9.670 -1.2387 -1.1739 -1.0765
  383MOL0     H51671   6.523  -0.658   9.768 -0.9193  0.4429  1.1564
  383MOL0     H51672   6.420  -0.555   9.676 -0.5798 -0.6546 -2.0226
  383MOL0     H51673   6.355  -0.635   9.912 -1.2881 -0.2520  0.0189
  383MOL0     H51674   6.233  -0.662   9.778 -1.1652 -1.7958  1.7116
  383MOL0     H51675   6.430  -0.879   9.849  0.6155  0.3780  2.0249
  383MOL0     H51676   6.255  -0.889   9.789  1.8359 -2.2339 -1.0150
  383MOL0     H51677   6.318  -0.797  10.067 -0.5349 -0.2230  0.6883
  383MOL0     H51678   6.157  -0.831  10.000  1.0647  2.8251  1.7000
  383MOL0     H51679   6.396  -1.031  10.020 -0.1612  2.9372 -3.2993
  383MOL0     H51680   6.230  -1.073   9.976  0.4671 -1.3274  0.9685
  383MOL0     H51681   6.347  -0.966  10.236  0.6299 -2.9909  1.2846
  383MOL0     H51682   6.167  -0.984  10.209 -0.4354  0.8290  2.1049
  383MOL0     H51683   6.369  -1.219  10.194 -0.8173 -2.0371 -0.8729
  383MOL0     H51684   6.197  -1.232  10.176  0.0241 -1.4078 -0.4436
  383MOL0     H51685   6.204  -1.312  10.379 -3.4698  0.6578  2.4626
  383MOL0     H51686   6.168  -1.153  10.424  1.5414  1.6745  0.4267
  383MOL0     H51687   6.463  -0.599   9.413 -1.8816 -0.5036  2.5376
  383MOL0     H51688   6.689  -0.526   9.295  1.9195  1.6654  1.1531
  383MOL0     H51689   7.033  -0.673   9.087 -2.3811  2.2424  2.7621
  383MOL0     H51690   7.239  -0.704   8.955 -3.6953  0.6014 -0.7391
  383MOL0     H51691   8.865  -0.008   8.267  1.2011 -2.3657  0.6280
  383MOL0     H51692   9.105  -0.037   8.230 -0.2575  2.8290 -1.3164
  383MOL0     H51693   9.506  -0.056   8.342 -0.4840 -2.1726 -2.3217
  383MOL0     H51694   9.722  -0.098   8.306 -1.8059 -1.1236  0.6182
  383MOL0     H51695   9.966   0.098   7.967 -0.0473 -1.3774  0.0100
  383MOL0     H51696  10.009   0.183   8.125 -1.2687 -1.1238  1.8059
  383MOL0     H51697  10.190   0.092   8.003 -3.0441  0.3692 -1.9629
  383MOL0     H51698  10.145  -0.062   8.008  0.5360  0.8236 -3.3428
  383MOL0     H51699  10.176  -0.095   8.238  0.6792 -0.3844 -1.1191
  383MOL0     H51700  10.133   0.073   8.275  1.0973  0.7863  0.0005
  383MOL0     H51701  10.392   0.058   8.297  0.1801  0.9716 -0.3823
  383MOL0     H51702  10.352   0.145   8.157  1.7891 -0.6088 -0.4776
  383MOL0     H51703  10.555  -0.209   8.016 -0.3130 -0.9091  1.4827
  383MOL0     H51704   9.743   0.194   7.983 -0.7360 -0.4175 -0.8021
  383MOL0     H51705   9.518   0.239   8.028  0.1749 -1.4923 -2.1864
  384MOL0     O51706   9.383  11.028   0.461 -0.2782  0.4133 -0.7631
  384MOL0     C51707   9.408  10.985   0.578  1.0858 -0.3448  0.5528
  384MOL0     O51708   9.329  11.017   0.688  0.5249  0.3162 -0.7282
  384MOL0     C51709   9.204  11.065   0.676  0.4988 -0.4673 -0.0123
  384MOL0     C51710   9.176  11.202   0.660 -0.6547 -0.5612 -0.2009
  384MOL0     C51711   9.045  11.258   0.643 -0.0959 -0.3350  0.8572
  384MOL0     C51712   8.932  11.173   0.637  0.1476 -0.0474 -0.4669
  384MOL0     O51713   8.801  11.203   0.647 -0.8296 -0.2992 -0.0526
  384MOL0     C51714   8.772  11.339   0.690  0.0530  0.1793 -0.0849
  384MOL0     C51715   8.626  11.356   0.742 -0.0442 -0.7444 -0.1123
  384MOL0     C51716   8.596  11.498   0.793  0.0115  0.4735  0.9342
  384MOL0     C51717   8.467  11.508   0.872 -0.7468 -0.2584  0.1033
  384MOL0     C51718   8.432  11.658   0.913 -0.4390  0.2918 -0.6751
  384MOL0     C51719   8.377  11.757   0.805  0.5308  0.8008 -0.3238
  384MOL0     C51720   8.331  11.884   0.880 -0.3826  0.1319 -0.0117
  384MOL0     C51721   8.271  11.993   0.786 -0.2254  0.4665 -0.1098
  384MOL0     N51722   8.240  12.103   0.871  0.5805 -0.5233 -0.3361
  384MOL0     C51723   8.155  12.105   0.982 -0.3828  0.0408  0.2860
  384MOL0     C51724   8.162  12.237   1.025 -0.5913  0.2227  0.7479
  384MOL0     C51725   8.090  12.297   1.140  0.8326  0.2609 -0.2161
  384MOL0     C51726   7.943  12.319   1.098  0.3580  0.3110 -0.6259
  384MOL0     C51727   7.872  12.346   1.231 -0.4806  0.5504 -0.1007
  384MOL0     C51728   7.737  12.426   1.219  0.3509 -0.8229 -0.7475
  384MOL0     O51729   7.622  12.348   1.170 -0.6795 -0.2714  0.4210
  384MOL0     C51730   7.512  12.427   1.156 -0.0836 -1.0094 -0.6030
  384MOL0     C51731   7.440  12.487   1.259  0.4456 -0.4532 -0.8665
  384MOL0     C51732   7.323  12.557   1.243 -0.0813 -0.4623 -0.6939
  384MOL0     C51733   7.242  12.592   1.371  0.6696  0.6154 -0.5113
  384MOL0     C51734   7.268  12.579   1.116 -0.1802 -0.3833  0.5484
  384MOL0     C51735   7.130  12.629   1.082 -0.1681 -0.2505  0.3313
  384MOL0     O51736   7.107  12.642   0.948  0.0010 -0.2476 -0.4674
  384MOL0     C51737   6.981  12.669   0.915 -0.6107 -1.0481 -0.6326
  384MOL0     C51738   6.892  12.563   0.890 -1.3447 -0.2058  0.7171
  384MOL0     C51739   6.760  12.591   0.868  0.1473  0.3204 -0.1425
  384MOL0     C51740   6.712  12.729   0.882  1.2006  0.1856  0.2936
  384MOL0     O51741   6.583  12.764   0.867 -0.0318  0.2506 -0.4683
  384MOL0     C51742   6.469  12.669   0.878 -0.1843 -0.1286 -0.3006
  384MOL0     C51743   6.336  12.738   0.849 -0.1783  0.4895  0.6777
  384MOL0     C51744   6.301  12.844   0.958 -0.0497  0.4755  0.1306
  384MOL0     C51745   6.153  12.877   0.986  0.5859  0.1284 -0.0302
  384MOL0     C51746   6.062  12.751   1.011 -0.1932 -0.3511 -0.2519
  384MOL0     C51747   5.930  12.805   1.052  0.2272  0.1926  0.7435
  384MOL0     C51748   5.809  12.708   1.063  0.3027  0.0681 -0.4879
  384MOL0     C51749   5.690  12.779   1.112  0.0539 -0.6986  0.1867
  384MOL0    Cl51750   5.553  12.676   1.092  0.6365 -0.3180 -0.0225
  384MOL0     C51751   6.804  12.833   0.902  0.4718 -0.2247 -0.0904
  384MOL0     C51752   6.932  12.804   0.929 -0.3301  0.0408  0.1073
  384MOL0     O51753   7.043  12.636   1.170 -0.4086  0.0066 -0.5180
  384MOL0     C51754   7.359  12.542   1.007 -0.2727  0.6433 -0.0261
  384MOL0     C51755   7.473  12.467   1.028  0.3929 -0.3318  0.8148
  384MOL0     N51756   8.253  12.313   0.947 -0.2429  0.6300 -0.3195
  384MOL0     N51757   8.291  12.231   0.853 -0.0959  0.1775  0.6703
  384MOL0     C51758   8.955  11.036   0.655 -0.5893  0.3103 -0.5473
  384MOL0     C51759   9.086  10.978   0.667 -0.2682 -0.2281 -0.3665
  384MOL0     C51760   9.532  10.910   0.595  0.3746 -0.2015 -0.3237
  384MOL0     C51761   9.554  10.828   0.710  0.2517  0.3065 -0.2326
  384MOL0     C51762   9.675  10.753   0.727  0.0093  0.0691  0.2219
  384MOL0     C51763   9.771  10.762   0.617  0.4034 -0.3836 -0.1272
  384MOL0     O51764   9.885  10.685   0.643 -0.3300 -0.4732  0.2181
  384MOL0     C51765   9.994  10.691   0.545  0.3126 -0.3631  0.4134
  384MOL0     C51766  10.084  10.568   0.544  0.4938 -0.5654 -0.4071
  384MOL0     C51767  10.169  10.569   0.670 -0.4859  0.2620 -0.3516
  384MOL0     C51768  10.288  10.470   0.664  0.7846  0.6121 -1.1556
  384MOL0     C51769  10.378  10.494   0.560  0.1595 -0.8204  0.0015
  384MOL0     C51770  10.457  10.517   0.470 -0.6367  0.1143 -0.1698
  384MOL0     C51771   9.745  10.838   0.508  0.0372 -0.0285  0.6574
  384MOL0     C51772   9.633  10.918   0.492 -1.5508 -0.2285 -1.0693
  384MOL0     H51773   9.256  11.272   0.681 -0.6687 -1.2248  2.2902
  384MOL0     H51774   9.044  11.366   0.628 -2.3395  0.0615  3.1640
  384MOL0     H51775   8.840  11.366   0.771  0.8769 -0.3227 -0.5903
  384MOL0     H51776   8.789  11.406   0.605  3.6811 -1.3686 -0.7723
  384MOL0     H51777   8.556  11.323   0.665 -0.6371  0.0546  0.0672
  384MOL0     H51778   8.610  11.284   0.823 -1.9609 -0.4716 -0.2116
  384MOL0     H51779   8.675  11.545   0.852 -0.9913  0.4639  2.3332
  384MOL0     H51780   8.576  11.560   0.705 -0.4159 -0.4536  0.3585
  384MOL0     H51781   8.389  11.464   0.809  1.1174 -0.8509 -1.9219
  384MOL0     H51782   8.473  11.454   0.967 -0.9136 -0.2387  0.1249
  384MOL0     H51783   8.356  11.654   0.991  0.3447  1.8710  0.2146
  384MOL0     H51784   8.523  11.703   0.952  1.1287 -3.2886  0.1376
  384MOL0     H51785   8.455  11.772   0.729 -0.0572 -1.8606 -1.5921
  384MOL0     H51786   8.292  11.714   0.752 -0.3882 -1.7958  2.9460
  384MOL0     H51787   8.260  11.861   0.959  1.5182 -0.6300  1.5736
  384MOL0     H51788   8.416  11.917   0.941 -1.1545 -2.8413  2.9356
  384MOL0     H51789   8.180  11.964   0.734 -0.0535  0.5679 -0.4729
  384MOL0     H51790   8.340  12.018   0.704 -0.2451 -0.8671 -0.5511
  384MOL0     H51791   8.095  12.021   1.016  1.6057 -2.1064 -1.2199
  384MOL0     H51792   8.091  12.219   1.216 -1.2487 -0.9317 -1.3142
  384MOL0     H51793   8.132  12.393   1.174 -0.5450  0.3212  1.4511
  384MOL0     H51794   7.893  12.240   1.042 -1.9244 -1.2469  3.2155
  384MOL0     H51795   7.944  12.415   1.045  1.9737  0.5068 -0.2965
  384MOL0     H51796   7.940  12.411   1.287 -1.2936  0.0737  1.4907
  384MOL0     H51797   7.849  12.251   1.280 -1.0754  0.1710 -1.0950
  384MOL0     H51798   7.749  12.525   1.174 -1.7894  0.4558  1.3011
  384MOL0     H51799   7.703  12.452   1.319  1.3253  0.7137 -0.7788
  384MOL0     H51800   7.473  12.461   1.360  2.5401  0.2759 -1.3188
  384MOL0     H51801   7.288  12.566   1.467  1.2207  0.9770 -0.6758
  384MOL0     H51802   7.214  12.697   1.357  1.1255  0.7758 -0.2148
  384MOL0     H51803   7.150  12.533   1.372  0.9197  0.2113  0.9406
  384MOL0     H51804   6.932  12.463   0.878 -0.2443  0.4623 -1.7052
  384MOL0     H51805   6.696  12.507   0.840  0.7111  0.1645 -0.9831
  384MOL0     H51806   6.484  12.581   0.815 -0.5771 -0.3138 -0.1404
  384MOL0     H51807   6.460  12.632   0.980  0.1554 -0.6656 -0.4660
  384MOL0     H51808   6.345  12.786   0.751  0.2829  0.1296  0.5424
  384MOL0     H51809   6.263  12.656   0.838 -0.6765  1.0757 -0.6262
  384MOL0     H51810   6.345  12.935   0.917 -0.3774  0.6079  0.0740
  384MOL0     H51811   6.355  12.812   1.048  1.8917  1.9749 -0.4174
  384MOL0     H51812   6.142  12.954   1.063  3.3710  0.1090  0.5042
  384MOL0     H51813   6.122  12.915   0.889 -0.7359  1.1158  0.7409
  384MOL0     H51814   6.109  12.694   1.092  0.4960 -1.4380 -1.3974
  384MOL0     H51815   6.056  12.693   0.919 -0.6763  2.3263 -2.0469
  384MOL0     H51816   5.920  12.863   1.145 -2.2858 -1.5041  1.6629
  384MOL0     H51817   5.891  12.867   0.972  2.0652  0.8896  0.3447
  384MOL0     H51818   5.828  12.627   1.135 -0.5273  1.4437  1.3801
  384MOL0     H51819   5.792  12.672   0.961  1.4464 -1.2047 -0.2702
  384MOL0     H51820   5.680  12.863   1.043  1.5089  1.1033  2.0130
  384MOL0     H51821   5.701  12.832   1.208  1.6794 -2.4717  1.0576
  384MOL0     H51822   6.772  12.936   0.918  0.9163  0.3533 -2.5089
  384MOL0     H51823   7.005  12.883   0.946  0.2373 -0.4587 -0.0078
  384MOL0     H51824   7.334  12.566   0.904 -0.7394 -2.0026 -0.5810
  384MOL0     H51825   7.533  12.438   0.942 -0.9312  2.7990 -1.3706
  384MOL0     H51826   8.875  10.962   0.655  0.3766 -0.7699 -1.2592
  384MOL0     H51827   9.095  10.871   0.683  0.1463 -0.1874 -0.3206
  384MOL0     H51828   9.475  10.837   0.784 -2.3323 -2.1403 -2.4493
  384MOL0     H51829   9.704  10.700   0.817  0.4091 -0.3618 -0.1534
  384MOL0     H51830   9.938  10.686   0.451  1.8298 -1.5255 -0.4762
  384MOL0     H51831  10.051  10.782   0.565  0.3873 -1.0248  3.7661
  384MOL0     H51832  10.154  10.567   0.460 -2.3270 -1.7767 -2.9147
  384MOL0     H51833  10.021  10.479   0.534 -1.8372  1.0663 -1.0206
  384MOL0     H51834  10.113  10.554   0.763  0.4128 -0.0747  0.1445
  384MOL0     H51835  10.216  10.668   0.671 -1.1793  0.6030  1.3310
  384MOL0     H51836  10.267  10.363   0.659  0.2748  0.7047 -1.0384
  384MOL0     H51837  10.344  10.479   0.758 -1.4859 -1.5113  0.5102
  384MOL0     H51838  10.518  10.520   0.383  0.2171 -1.4188  0.3367
  384MOL0     H51839   9.824  10.842   0.433 -1.7537  1.6713 -1.2402
  384MOL0     H51840   9.633  10.980   0.403  1.6337  1.6510  0.1054
  385MOL0     O51841   6.567   6.009   7.181  0.2624 -0.1554  0.1397
  385MOL0     C51842   6.617   5.902   7.133 -0.8037 -0.1820 -0.2237
  385MOL0     O51843   6.690   5.895   7.018  0.4053  0.1442 -0.3733
  385MOL0     C51844   6.666   5.999   6.928  0.1802  0.0568  0.0622
  385MOL0     C51845   6.774   6.075   6.881 -0.0210  0.1316 -0.5087
  385MOL0     C51846   6.755   6.170   6.781  0.0036 -0.1993 -0.3449
  385MOL0     C51847   6.621   6.198   6.739  0.9635 -1.1332  0.2108
  385MOL0     O51848   6.595   6.311   6.661 -0.1783 -0.5138 -0.1002
  385MOL0     C51849   6.696   6.407   6.615 -0.0080  0.0834 -0.1044
  385MOL0     C51850   6.654   6.496   6.498  0.3410 -0.9538  0.4067
  385MOL0     C51851   6.532   6.579   6.547 -0.1121  0.2583 -0.0479
  385MOL0     C51852   6.434   6.606   6.431  0.3652 -0.1078  0.5296
  385MOL0     C51853   6.316   6.687   6.476 -0.3310 -0.0199  0.1178
  385MOL0     C51854   6.230   6.730   6.365 -0.3022 -0.7586  0.0593
  385MOL0     C51855   6.131   6.829   6.422  0.0566 -0.5704 -0.1705
  385MOL0     C51856   6.021   6.853   6.320  0.0570  0.6974  0.3016
  385MOL0     N51857   5.920   6.942   6.386  0.4766 -1.0739  0.2442
  385MOL0     C51858   5.821   6.891   6.476 -0.4743 -0.2069 -0.2307
  385MOL0     C51859   5.754   7.000   6.520  0.3925  0.2062 -0.5572
  385MOL0     C51860   5.630   7.005   6.603  0.1998  0.5252 -1.0033
  385MOL0     C51861   5.662   7.024   6.752 -0.1112 -0.4671  0.0405
  385MOL0     C51862   5.583   6.943   6.859 -0.4729 -0.2042 -0.1916
  385MOL0     C51863   5.613   6.984   7.011  0.0559 -0.2078  0.0100
  385MOL0     O51864   5.579   6.883   7.109 -0.2355 -0.6367 -0.6119
  385MOL0     C51865   5.519   6.941   7.217  0.4824 -0.1965  0.0800
  385MOL0     C51866   5.593   6.990   7.322  0.6458  0.5647  0.0531
  385MOL0     C51867   5.534   7.035   7.447 -0.6133 -0.1465  0.7919
  385MOL0     C51868   5.634   7.093   7.548 -0.1032  0.8174  0.7316
  385MOL0     C51869   5.390   7.048   7.449  0.0688  0.2209 -0.0655
  385MOL0     C51870   5.317   7.096   7.572  0.3954 -0.9343 -0.0659
  385MOL0     O51871   5.173   7.106   7.552 -0.3024  0.9490 -0.1148
  385MOL0     C51872   5.088   7.100   7.660 -0.4560 -0.2482  0.0937
  385MOL0     C51873   4.973   7.178   7.655 -0.7838  0.2080 -0.2740
  385MOL0     C51874   4.884   7.184   7.758 -0.3245 -0.7510 -1.3050
  385MOL0     C51875   4.899   7.099   7.871  0.2308 -0.9498  0.1785
  385MOL0     O51876   4.814   7.090   7.983  0.3840  0.0756  0.1289
  385MOL0     C51877   4.719   7.198   7.999 -0.0231  0.0003 -0.3962
  385MOL0     C51878   4.637   7.176   8.134 -0.5866 -0.0600  0.7017
  385MOL0     C51879   4.727   7.153   8.262  0.6045  0.1753 -0.1371
  385MOL0     C51880   4.812   7.278   8.290 -0.7969  0.7082 -0.2807
  385MOL0     C51881   4.831   7.294   8.436 -0.9805 -0.3295  0.0073
  385MOL0     C51882   4.719   7.356   8.517  0.4088 -0.5930  0.5234
  385MOL0     C51883   4.724   7.370   8.668  0.2230 -0.2653 -0.6385
  385MOL0     C51884   4.616   7.466   8.723 -0.2826  0.3115  0.5170
  385MOL0    Cl51885   4.480   7.365   8.710  0.1389 -0.2659 -0.2469
  385MOL0     C51886   5.003   7.007   7.870  0.0148  0.0179  0.4890
  385MOL0     C51887   5.094   7.010   7.767  0.5833  0.1491  0.3096
  385MOL0     O51888   5.374   7.110   7.680 -0.2024 -0.4729  0.4182
  385MOL0     C51889   5.317   6.992   7.345 -0.3431 -0.2252 -0.1539
  385MOL0     C51890   5.382   6.941   7.226  0.5539  0.2053  0.1417
  385MOL0     N51891   5.806   7.113   6.453  0.4918 -0.5912 -0.0775
  385MOL0     N51892   5.901   7.081   6.372 -0.6800  0.2878 -0.0212
  385MOL0     C51893   6.510   6.125   6.783  0.3067  0.4834  0.6995
  385MOL0     C51894   6.535   6.030   6.880 -0.1058  0.4423  0.0356
  385MOL0     C51895   6.599   5.782   7.211 -0.2289  0.5181  0.0155
  385MOL0     C51896   6.519   5.778   7.326  0.8844 -0.3788 -1.0076
  385MOL0     C51897   6.510   5.661   7.408 -0.1551  0.4555 -0.1705
  385MOL0     C51898   6.564   5.533   7.374  0.6888  0.1524  0.4677
  385MOL0     O51899   6.533   5.420   7.442 -0.4343  0.0697 -0.2087
  385MOL0     C51900   6.612   5.299   7.423 -0.2282 -0.1390 -0.1077
  385MOL0     C51901   6.745   5.306   7.497  0.0695  0.0647 -0.5866
  385MOL0     C51902   6.715   5.350   7.646 -0.5776 -0.2215  0.1678
  385MOL0     C51903   6.841   5.337   7.737  0.1238  0.0314  0.4634
  385MOL0     C51904   6.794   5.318   7.873 -0.5188  0.4472 -0.1859
  385MOL0     C51905   6.763   5.315   7.989  0.1468 -1.6387  0.0821
  385MOL0     C51906   6.638   5.541   7.253 -0.1265  0.1701  0.1895
  385MOL0     C51907   6.662   5.659   7.180 -0.1668  0.7488  0.4513
  385MOL0     H51908   6.875   6.054   6.914 -0.6226 -4.4551 -0.9612
  385MOL0     H51909   6.839   6.230   6.749 -1.5422  1.8474 -0.7706
  385MOL0     H51910   6.722   6.468   6.703 -1.7423 -1.4341  1.5632
  385MOL0     H51911   6.786   6.357   6.579 -0.3985 -0.0584 -0.8825
  385MOL0     H51912   6.736   6.554   6.454  0.9694 -2.0229  0.1430
  385MOL0     H51913   6.617   6.428   6.421  0.2743 -1.3775  0.8059
  385MOL0     H51914   6.474   6.529   6.624 -2.3193  0.2617 -1.6007
  385MOL0     H51915   6.558   6.677   6.589 -1.0767  0.3209  0.4134
  385MOL0     H51916   6.498   6.653   6.356  1.9657 -2.7878  0.1206
  385MOL0     H51917   6.395   6.512   6.391  1.0611  0.9843 -3.0737
  385MOL0     H51918   6.257   6.631   6.550 -0.6417  2.0929  1.5428
  385MOL0     H51919   6.357   6.775   6.525  0.6971  0.8415 -2.1666
  385MOL0     H51920   6.296   6.779   6.292 -1.9578 -0.3868 -1.2380
  385MOL0     H51921   6.179   6.649   6.312 -2.7349  0.2840  0.6670
  385MOL0     H51922   6.084   6.785   6.510  0.6167 -0.2503  0.2955
  385MOL0     H51923   6.184   6.921   6.445  0.3031 -0.2901 -1.7180
  385MOL0     H51924   5.984   6.752   6.299 -1.3944  0.8688  1.8486
  385MOL0     H51925   6.066   6.900   6.232  4.9254 -3.5007  0.0875
  385MOL0     H51926   5.796   6.789   6.504 -1.9394  0.1825 -0.0450
  385MOL0     H51927   5.573   7.094   6.575  0.8334  2.2052  2.4537
  385MOL0     H51928   5.564   6.918   6.601 -0.2491  0.8411 -0.3494
  385MOL0     H51929   5.642   7.130   6.771  0.7687 -0.8481  3.9788
  385MOL0     H51930   5.771   7.012   6.759  0.1777  1.0197 -1.3660
  385MOL0     H51931   5.615   6.840   6.843 -1.9066 -0.4900 -1.4746
  385MOL0     H51932   5.478   6.958   6.833 -0.9256 -0.5427  1.3361
  385MOL0     H51933   5.580   7.085   7.036 -1.5502  0.0030 -2.5841
  385MOL0     H51934   5.722   6.988   7.009  0.0466  3.4683 -2.9610
  385MOL0     H51935   5.700   6.975   7.317  0.8017  1.6591 -0.1632
  385MOL0     H51936   5.655   7.016   7.623 -2.0776  0.8395  1.3633
  385MOL0     H51937   5.723   7.124   7.492  1.4638  0.3523  2.8545
  385MOL0     H51938   5.606   7.175   7.614 -1.7169  1.2129 -0.4081
  385MOL0     H51939   4.978   7.255   7.578  2.2214  2.5152  1.9807
  385MOL0     H51940   4.797   7.249   7.752 -0.6571 -1.2853 -3.0786
  385MOL0     H51941   4.770   7.295   8.002 -1.6797  0.9121 -0.5700
  385MOL0     H51942   4.650   7.208   7.914 -2.4914 -1.6908  1.2850
  385MOL0     H51943   4.558   7.251   8.145 -0.5418  0.0726  0.1197
  385MOL0     H51944   4.577   7.085   8.124 -0.9085  0.1385  0.8098
  385MOL0     H51945   4.796   7.070   8.250  0.5114 -0.5537  3.2474
  385MOL0     H51946   4.662   7.131   8.347  2.4155 -0.9420  1.0148
  385MOL0     H51947   4.908   7.269   8.237  0.5811  0.6830  2.0781
  385MOL0     H51948   4.766   7.369   8.252  0.7530  1.3294 -0.7678
  385MOL0     H51949   4.922   7.352   8.454 -0.5380 -0.9213 -0.2964
  385MOL0     H51950   4.857   7.199   8.484 -0.3169 -0.2475 -0.1834
  385MOL0     H51951   4.712   7.452   8.465  0.5689 -1.4512 -1.1823
  385MOL0     H51952   4.631   7.294   8.495 -0.0193  0.5039 -1.0541
  385MOL0     H51953   4.822   7.414   8.688 -0.7407  1.7572 -0.1080
  385MOL0     H51954   4.717   7.275   8.722  0.0220  0.6993  1.0917
  385MOL0     H51955   4.600   7.545   8.649 -0.8122  0.4881  0.8237
  385MOL0     H51956   4.640   7.495   8.825 -0.5881 -0.4343  0.8091
  385MOL0     H51957   5.010   6.939   7.954  0.5364  1.2725  1.4916
  385MOL0     H51958   5.184   6.950   7.773  2.3502  2.6026  0.0903
  385MOL0     H51959   5.210   6.985   7.364 -0.4651  2.1718  0.3310
  385MOL0     H51960   5.319   6.889   7.155  1.0898 -0.5233  0.1822
  385MOL0     H51961   6.406   6.130   6.753 -0.1048 -1.9853  1.5796
  385MOL0     H51962   6.447   5.975   6.914  1.4446 -1.2322  1.5646
  385MOL0     H51963   6.461   5.863   7.362  1.3191 -0.9557  1.2014
  385MOL0     H51964   6.452   5.671   7.499  1.3622  1.4960  0.7323
  385MOL0     H51965   6.553   5.212   7.454 -2.5381  1.7066  0.9082
  385MOL0     H51966   6.631   5.284   7.316 -1.2264  0.3379 -0.3597
  385MOL0     H51967   6.807   5.383   7.451 -1.2091  0.6281 -1.4091
  385MOL0     H51968   6.799   5.211   7.502  3.3128  1.8076  2.3750
  385MOL0     H51969   6.638   5.282   7.684  1.9863 -1.7194  3.1484
  385MOL0     H51970   6.683   5.455   7.645 -0.3214 -0.1451 -0.1388
  385MOL0     H51971   6.891   5.431   7.712 -1.4023  0.7292 -0.0888
  385MOL0     H51972   6.911   5.254   7.721  0.0993  0.0968  0.0194
  385MOL0     H51973   6.736   5.308   8.093 -1.8260  2.3995  0.0443
  385MOL0     H51974   6.692   5.453   7.218  2.8871  0.5420  3.4252
  385MOL0     H51975   6.743   5.640   7.110  0.1737 -2.3582  1.5280
  386MOL0     O51976   1.802   5.227  10.519  0.8093 -0.2143  0.7259
  386MOL0     C51977   1.836   5.334  10.462 -0.0019  0.9525 -0.4160
  386MOL0     O51978   1.759   5.445  10.441 -0.0163 -0.0433 -0.0969
  386MOL0     C51979   1.629   5.459  10.464  0.9683  0.2561  0.7389
  386MOL0     C51980   1.565   5.416  10.578  1.1454  0.7333 -0.6601
  386MOL0     C51981   1.428   5.446  10.603  0.0617  0.8880 -0.4815
  386MOL0     C51982   1.357   5.529  10.515  1.4300  0.8640  0.1032
  386MOL0     O51983   1.225   5.557  10.518  0.3904 -0.1552  0.0091
  386MOL0     C51984   1.180   5.573  10.652  0.4193 -0.4385 -0.1451
  386MOL0     C51985   1.060   5.663  10.654  0.4339 -0.2014 -0.0364
  386MOL0     C51986   0.942   5.590  10.583  0.3238 -0.8874 -0.3034
  386MOL0     C51987   0.807   5.666  10.606  0.8117 -0.0037 -0.2027
  386MOL0     C51988   0.686   5.566  10.625 -0.2810 -0.1829  0.6449
  386MOL0     C51989   0.568   5.639  10.689 -0.2962  0.6830  0.4896
  386MOL0     C51990   0.435   5.561  10.702 -0.7221 -0.5742  0.1777
  386MOL0     C51991   0.356   5.562  10.571  0.2480  0.2420  0.1270
  386MOL0     N51992   0.229   5.484  10.584  0.3832 -0.4203 -1.3986
  386MOL0     C51993   0.138   5.488  10.685 -0.0474 -0.2590 -0.0349
  386MOL0     C51994   0.050   5.395  10.655 -0.9051  0.2286 -0.0877
  386MOL0     C51995  -0.058   5.361  10.747  0.3692  0.2927 -0.6497
  386MOL0     C51996  -0.170   5.450  10.706 -0.2265 -0.6912  0.5851
  386MOL0     C51997  -0.299   5.403  10.786  0.2597  0.6018 -0.0945
  386MOL0     C51998  -0.413   5.499  10.769 -0.5963  0.2913  0.2008
  386MOL0     O51999  -0.459   5.502  10.633  0.8400  0.2070  0.4241
  386MOL0     C52000  -0.594   5.539  10.616 -0.0087  0.5830  0.0493
  386MOL0     C52001  -0.657   5.499  10.499 -0.1998 -0.6334 -0.2063
  386MOL0     C52002  -0.797   5.513  10.481 -0.8941  0.0013 -0.2847
  386MOL0     C52003  -0.847   5.433  10.365  0.5882 -0.1882  0.3635
  386MOL0     C52004  -0.870   5.593  10.573 -0.4729 -0.0904 -0.5401
  386MOL0     C52005  -1.005   5.630  10.547 -0.9575 -0.1275  0.3704
  386MOL0     O52006  -1.084   5.643  10.657 -0.2541  0.3474  0.2349
  386MOL0     C52007  -1.209   5.694  10.641  0.3112  0.1934  0.4052
  386MOL0     C52008  -1.241   5.822  10.689 -0.0804 -0.8354  0.7275
  386MOL0     C52009  -1.376   5.866  10.689 -0.5123 -0.4012 -0.2114
  386MOL0     C52010  -1.478   5.789  10.632  0.6925 -0.6557 -0.5797
  386MOL0     O52011  -1.613   5.816  10.637 -0.0596 -0.2866 -0.4164
  386MOL0     C52012  -1.709   5.708  10.667 -0.4305  0.0255 -0.9360
  386MOL0     C52013  -1.851   5.756  10.680 -0.6689 -0.0001  0.1573
  386MOL0     C52014  -1.864   5.833  10.809 -0.3531  0.5819 -0.0035
  386MOL0     C52015  -2.007   5.894  10.826 -0.2760  0.5941 -0.1388
  386MOL0     C52016  -1.993   6.017  10.910  0.1721  0.2493 -0.1484
  386MOL0     C52017  -1.946   6.142  10.832 -0.1703  0.0901 -0.2197
  386MOL0     C52018  -1.922   6.271  10.911  0.1148 -0.0842 -1.4103
  386MOL0     C52019  -1.990   6.401  10.856 -0.2467  0.1043  0.3861
  386MOL0    Cl52020  -1.972   6.544  10.974 -0.5724 -0.7724 -0.1535
  386MOL0     C52021  -1.444   5.669  10.566 -0.0171  0.0163 -0.0388
  386MOL0     C52022  -1.315   5.618  10.580  0.1634 -0.5573 -0.0028
  386MOL0     O52023  -1.042   5.653  10.434  0.2166 -0.0007 -0.0915
  386MOL0     C52024  -0.805   5.649  10.689 -0.1804 -0.1921 -0.6197
  386MOL0     C52025  -0.664   5.622  10.702 -0.4165  0.7355  0.0332
  386MOL0     N52026   0.073   5.347  10.529  0.6966  0.3641  0.2750
  386MOL0     N52027   0.186   5.391  10.492 -0.6040 -0.0068 -0.8126
  386MOL0     C52028   1.417   5.574  10.402  0.1936 -1.1657 -0.2494
  386MOL0     C52029   1.551   5.530  10.378  0.4674  0.1380 -0.9399
  386MOL0     C52030   1.975   5.340  10.413 -0.6010  0.4127 -0.0063
  386MOL0     C52031   2.065   5.225  10.429 -0.7116 -1.0120  0.0652
  386MOL0     C52032   2.198   5.233  10.397  0.1497 -0.2131  0.6658
  386MOL0     C52033   2.254   5.349  10.333 -0.3508  0.7134 -0.3125
  386MOL0     O52034   2.382   5.361  10.293  0.1610 -0.4543  0.1585
  386MOL0     C52035   2.472   5.251  10.277 -0.1996 -0.0423 -0.0659
  386MOL0     C52036   2.608   5.296  10.228  0.2291  0.4700 -0.2797
  386MOL0     C52037   2.685   5.190  10.163 -0.0538 -0.4868  0.9055
  386MOL0     C52038   2.822   5.238  10.113 -0.1980 -0.1008 -0.4403
  386MOL0     C52039   2.886   5.118  10.062 -0.8754  0.3639  0.7091
  386MOL0     C52040   2.952   5.018  10.039  1.0391 -0.0738  1.0754
  386MOL0     C52041   2.169   5.460  10.314  0.7125  0.3728 -0.0757
  386MOL0     C52042   2.030   5.452  10.357 -0.3716  0.0371 -0.8577
  386MOL0     H52043   1.615   5.361  10.656 -0.0514  0.4771 -0.0505
  386MOL0     H52044   1.381   5.385  10.680  0.8427 -1.2146 -1.5879
  386MOL0     H52045   1.153   5.478  10.699 -0.6782  0.1473  0.4527
  386MOL0     H52046   1.253   5.623  10.717 -0.9590 -0.7735  1.7405
  386MOL0     H52047   1.025   5.684  10.756  1.9547 -0.9590  0.6629
  386MOL0     H52048   1.083   5.760  10.608  0.6510  0.8016  2.0612
  386MOL0     H52049   0.953   5.569  10.477  1.0193  0.0049 -0.4179
  386MOL0     H52050   0.927   5.491  10.628 -0.7094 -1.0685 -1.0028
  386MOL0     H52051   0.820   5.720  10.700  2.8584 -0.4474 -0.1920
  386MOL0     H52052   0.773   5.739  10.531  2.2136 -0.4858 -1.3474
  386MOL0     H52053   0.661   5.524  10.527 -1.2455 -0.7464  1.1220
  386MOL0     H52054   0.715   5.480  10.685  0.3712 -1.8792 -1.9070
  386MOL0     H52055   0.600   5.661  10.791  1.6039 -4.4053  1.3100
  386MOL0     H52056   0.544   5.724  10.624 -3.0218  0.6132  1.2625
  386MOL0     H52057   0.450   5.462  10.748 -1.6221 -0.1288  1.4872
  386MOL0     H52058   0.374   5.616  10.775 -2.0046 -0.5453 -0.8743
  386MOL0     H52059   0.410   5.511  10.490 -0.8207 -2.1254  0.8193
  386MOL0     H52060   0.325   5.663  10.543  0.5628  0.1769 -0.4951
  386MOL0     H52061   0.146   5.547  10.776  0.9100 -0.0139 -0.2747
  386MOL0     H52062  -0.090   5.259  10.722  0.1809  0.0468  0.5347
  386MOL0     H52063  -0.037   5.389  10.851  1.1038  2.3260 -1.3005
  386MOL0     H52064  -0.193   5.436  10.600 -2.4947 -0.5096  0.9980
  386MOL0     H52065  -0.155   5.555  10.731 -4.2547  0.4958 -1.2171
  386MOL0     H52066  -0.279   5.409  10.894 -0.5657  0.4079  0.0789
  386MOL0     H52067  -0.334   5.303  10.757 -2.6612  1.6643 -0.6586
  386MOL0     H52068  -0.375   5.598  10.795  2.0957 -0.9612  1.4785
  386MOL0     H52069  -0.494   5.473  10.838 -2.3363 -2.3678 -2.5876
  386MOL0     H52070  -0.595   5.442  10.431  1.7854 -1.3244  2.0640
  386MOL0     H52071  -0.803   5.333  10.363  0.4973 -0.2460  1.1563
  386MOL0     H52072  -0.951   5.413  10.389  0.0318  1.8859 -0.1742
  386MOL0     H52073  -0.832   5.478  10.266 -1.1915 -2.0615 -0.8353
  386MOL0     H52074  -1.167   5.888  10.731 -0.0376  1.4851 -2.5927
  386MOL0     H52075  -1.421   5.952  10.737 -0.3427 -0.5196  0.1607
  386MOL0     H52076  -1.702   5.632  10.589  1.1200 -1.0590  0.2041
  386MOL0     H52077  -1.678   5.658  10.759  1.6452  0.3538 -1.3927
  386MOL0     H52078  -1.889   5.807  10.591 -2.4607 -1.5944 -0.0696
  386MOL0     H52079  -1.907   5.663  10.693  1.9407 -1.6564  0.2069
  386MOL0     H52080  -1.785   5.907  10.803  0.7176 -0.2734  2.4906
  386MOL0     H52081  -1.841   5.759  10.886  2.9678 -0.0717 -1.4709
  386MOL0     H52082  -2.045   5.928  10.729 -0.3164  1.0264  0.0246
  386MOL0     H52083  -2.070   5.819  10.874  0.7526 -0.5529 -0.5352
  386MOL0     H52084  -1.928   5.987  10.993  1.7048  3.9181  0.1696
  386MOL0     H52085  -2.091   6.037  10.954  0.2550  0.4440 -0.0543
  386MOL0     H52086  -1.852   6.113  10.783 -0.2215  0.8026 -0.7539
  386MOL0     H52087  -2.006   6.163  10.743  4.4450  0.5088 -3.6214
  386MOL0     H52088  -1.816   6.298  10.918  0.1145  0.7557 -3.6363
  386MOL0     H52089  -1.953   6.260  11.015 -0.4080 -0.8504 -1.6350
  386MOL0     H52090  -2.097   6.388  10.843 -0.2029  0.6443 -0.5682
  386MOL0     H52091  -1.942   6.424  10.760 -2.6366  1.9653 -0.4528
  386MOL0     H52092  -1.508   5.618  10.495  0.8599  1.2266 -1.7478
  386MOL0     H52093  -1.285   5.522  10.538 -3.5290 -1.4831 -0.9118
  386MOL0     H52094  -0.854   5.718  10.756  1.3881 -1.1415  1.6157
  386MOL0     H52095  -0.616   5.685  10.777 -1.5603  0.4114  1.0621
  386MOL0     H52096   1.353   5.629  10.333 -0.3421  0.3777  1.4054
  386MOL0     H52097   1.591   5.557  10.281 -1.2925  1.3779 -1.3771
  386MOL0     H52098   2.023   5.135  10.472 -3.0819  0.4410  0.9484
  386MOL0     H52099   2.253   5.141  10.413  0.4911 -0.0414  0.5021
  386MOL0     H52100   2.499   5.197  10.368 -0.3801  0.6410  0.3984
  386MOL0     H52101   2.430   5.184  10.201 -0.2833  0.4490 -0.4583
  386MOL0     H52102   2.657   5.339  10.316 -2.3204 -0.2474  1.6068
  386MOL0     H52103   2.587   5.386  10.170 -0.6344  2.4536  2.8718
  386MOL0     H52104   2.620   5.151  10.084  0.2599  0.5184  0.1266
  386MOL0     H52105   2.689   5.102  10.228 -1.5267 -1.5102 -0.3313
  386MOL0     H52106   2.883   5.288  10.189  0.2372  0.5676 -1.2165
  386MOL0     H52107   2.807   5.310  10.032 -2.9575 -1.6889 -1.4804
  386MOL0     H52108   3.003   4.926  10.022 -1.1867 -1.4001  1.1869
  386MOL0     H52109   2.207   5.555  10.280 -0.7770 -0.1361 -3.6107
  386MOL0     H52110   1.967   5.539  10.339  1.4873  1.7790  0.5682
  387MOL0     O52111   0.035   3.064   9.568  0.4821  0.3054  0.2948
  387MOL0     C52112   0.046   3.113   9.460  0.0914  0.4292 -0.0422
  387MOL0     O52113  -0.057   3.160   9.388  0.2751 -0.6308 -0.1724
  387MOL0     C52114  -0.185   3.112   9.407  0.2283  0.4460  0.9022
  387MOL0     C52115  -0.226   2.990   9.464 -0.2858 -0.5503  0.1796
  387MOL0     C52116  -0.361   2.965   9.485 -0.2073 -0.1596 -0.0376
  387MOL0     C52117  -0.463   3.049   9.451 -0.0987 -0.4071  0.3757
  387MOL0     O52118  -0.590   3.025   9.477  0.1106 -0.0440  0.4597
  387MOL0     C52119  -0.679   3.136   9.490 -0.9181 -0.6509 -0.4301
  387MOL0     C52120  -0.809   3.087   9.547  0.2723 -0.5638 -0.1809
  387MOL0     C52121  -0.918   3.194   9.544 -0.0721  0.5935  0.7024
  387MOL0     C52122  -1.040   3.126   9.600  0.3131  0.0102 -0.0781
  387MOL0     C52123  -1.170   3.202   9.570  0.1222  0.6047 -0.0286
  387MOL0     C52124  -1.279   3.160   9.668 -0.3682  0.2663  0.9768
  387MOL0     C52125  -1.419   3.213   9.641  0.2373 -0.1626 -0.1714
  387MOL0     C52126  -1.510   3.142   9.537 -0.4432 -0.6070 -0.6865
  387MOL0     N52127  -1.644   3.211   9.551  0.0167 -0.3260 -0.3114
  387MOL0     C52128  -1.736   3.204   9.652  0.8356 -0.7460 -0.7670
  387MOL0     C52129  -1.834   3.296   9.627 -0.0577  0.1789 -0.7720
  387MOL0     C52130  -1.963   3.309   9.702 -0.3269 -0.0294  0.3511
  387MOL0     C52131  -2.072   3.225   9.626 -0.3334  0.2310  0.2245
  387MOL0     C52132  -2.199   3.234   9.700  0.1233 -0.0068  0.6754
  387MOL0     C52133  -2.192   3.187   9.849  0.2981 -0.1752 -0.2385
  387MOL0     O52134  -2.325   3.135   9.899 -0.8514 -0.3988  0.5880
  387MOL0     C52135  -2.438   3.192   9.859  0.3267 -0.6745 -0.6608
  387MOL0     C52136  -2.450   3.329   9.866 -0.0376  0.0332 -0.5521
  387MOL0     C52137  -2.571   3.390   9.827  0.3573  0.1751 -0.5019
  387MOL0     C52138  -2.565   3.544   9.816  1.3976 -0.1709 -0.2247
  387MOL0     C52139  -2.684   3.320   9.790  0.4758 -0.0630  0.7907
  387MOL0     C52140  -2.816   3.370   9.757  0.9525  0.1828 -0.2293
  387MOL0     O52141  -2.887   3.287   9.673 -0.4665 -0.5641  0.1033
  387MOL0     C52142  -3.029   3.305   9.654 -0.3353  0.0715 -0.2033
  387MOL0     C52143  -3.073   3.372   9.543 -0.3746 -0.2455 -0.5471
  387MOL0     C52144  -3.213   3.388   9.518  0.5702 -1.1844  0.7182
  387MOL0     C52145  -3.305   3.308   9.589 -0.6651 -0.0768 -0.4987
  387MOL0     O52146  -3.436   3.296   9.564 -0.1303 -0.2105  0.0667
  387MOL0     C52147  -3.492   3.364   9.451  0.0744  0.2074 -0.4541
  387MOL0     C52148  -3.531   3.509   9.476 -0.2650  0.6578  0.1900
  387MOL0     C52149  -3.636   3.559   9.369  0.9962  0.1928 -0.0587
  387MOL0     C52150  -3.769   3.491   9.371  0.2066  0.8063  0.0201
  387MOL0     C52151  -3.848   3.566   9.256  0.1556  0.3516  0.1353
  387MOL0     C52152  -3.987   3.506   9.243  0.9526  0.4928  0.3700
  387MOL0     C52153  -4.078   3.565   9.138  0.3201 -0.3737 -0.2394
  387MOL0     C52154  -4.199   3.474   9.110 -0.2819  0.7408  0.5093
  387MOL0    Cl52155  -4.295   3.454   9.255  0.2916 -0.1408  0.5124
  387MOL0     C52156  -3.251   3.232   9.694  0.4258 -0.5283  0.4736
  387MOL0     C52157  -3.118   3.241   9.734 -0.1580 -0.1940 -0.2884
  387MOL0     O52158  -2.852   3.479   9.797 -0.1899  0.0319 -0.2195
  387MOL0     C52159  -2.664   3.182   9.787 -0.6306 -0.2672 -0.5331
  387MOL0     C52160  -2.548   3.114   9.815 -0.4675  0.5538 -1.2214
  387MOL0     N52161  -1.800   3.363   9.507  0.0645 -0.5485  0.0488
  387MOL0     N52162  -1.690   3.313   9.467  1.1612  1.2140  1.5072
  387MOL0     C52163  -0.419   3.162   9.378  0.4812  0.2337  0.9452
  387MOL0     C52164  -0.288   3.198   9.360 -0.5184  0.4176 -0.0379
  387MOL0     C52165   0.178   3.131   9.410 -0.6844  0.1485 -0.1968
  387MOL0     C52166   0.196   3.214   9.300 -0.0374  0.6488  0.9097
  387MOL0     C52167   0.317   3.215   9.230  0.2400 -0.6531 -0.2541
  387MOL0     C52168   0.423   3.141   9.272 -0.4131 -0.1051  0.3989
  387MOL0     O52169   0.540   3.136   9.195  0.1816  0.0111  0.5667
  387MOL0     C52170   0.649   3.062   9.243  0.4545 -1.2382  0.1100
  387MOL0     C52171   0.760   3.057   9.138 -0.2582  0.1211 -0.6330
  387MOL0     C52172   0.878   2.978   9.185  0.1684  0.0721 -0.6092
  387MOL0     C52173   0.985   2.982   9.074 -0.5990  0.1898  0.0363
  387MOL0     C52174   1.092   2.883   9.104 -0.5475 -0.2687  0.1835
  387MOL0     C52175   1.172   2.798   9.123 -0.4609  0.0079 -0.8035
  387MOL0     C52176   0.412   3.078   9.396  0.8243 -0.5145  0.3261
  387MOL0     C52177   0.293   3.078   9.466  0.3188  0.6541 -0.4086
  387MOL0     H52178  -0.156   2.916   9.502 -1.2145 -0.4115  2.2989
  387MOL0     H52179  -0.379   2.867   9.530  0.3903  0.3803  1.4573
  387MOL0     H52180  -0.639   3.211   9.559 -0.4713  0.0192 -1.3838
  387MOL0     H52181  -0.697   3.189   9.396  1.7628  1.6576  0.2528
  387MOL0     H52182  -0.831   3.000   9.485  0.0637  0.4509 -1.5618
  387MOL0     H52183  -0.785   3.063   9.651 -2.7930  2.7264  1.5191
  387MOL0     H52184  -0.890   3.284   9.600  1.6521 -0.2677  1.2839
  387MOL0     H52185  -0.936   3.229   9.442  2.8894  0.4665  0.0509
  387MOL0     H52186  -1.047   3.029   9.551  1.4114  0.7756 -1.8653
  387MOL0     H52187  -1.024   3.121   9.708  0.0949  0.7259 -0.0072
  387MOL0     H52188  -1.143   3.306   9.585  6.2757 -0.5902 -0.2134
  387MOL0     H52189  -1.196   3.181   9.465 -1.1106  2.0041 -0.0387
  387MOL0     H52190  -1.282   3.050   9.667  2.5729  0.1238  0.9942
  387MOL0     H52191  -1.248   3.202   9.764  0.4885 -0.2991  0.9613
  387MOL0     H52192  -1.474   3.205   9.735  0.9877 -0.0352  0.2849
  387MOL0     H52193  -1.412   3.315   9.602  1.4485  1.4006  3.6240
  387MOL0     H52194  -1.511   3.033   9.543  2.0026 -0.6471  0.1151
  387MOL0     H52195  -1.471   3.166   9.438 -0.5572 -0.9427 -0.8153
  387MOL0     H52196  -1.736   3.136   9.736 -0.5574  0.4215  0.2450
  387MOL0     H52197  -1.941   3.267   9.800 -1.5400 -1.1428  0.1712
  387MOL0     H52198  -1.985   3.415   9.712 -1.0774 -0.3278  2.1936
  387MOL0     H52199  -2.038   3.122   9.620  0.6821  0.3766  2.5359
  387MOL0     H52200  -2.063   3.262   9.523 -2.5912 -2.7410 -1.1713
  387MOL0     H52201  -2.257   3.170   9.633  2.3932 -2.3193  0.7689
  387MOL0     H52202  -2.230   3.339   9.706 -0.6870 -0.2261  0.3490
  387MOL0     H52203  -2.163   3.273   9.910  1.1309 -1.5407  1.3699
  387MOL0     H52204  -2.112   3.114   9.868 -1.1485 -0.7532  5.3263
  387MOL0     H52205  -2.362   3.386   9.896  0.1290  0.2443 -1.4066
  387MOL0     H52206  -2.603   3.586   9.722 -0.1233 -1.2790 -0.1432
  387MOL0     H52207  -2.627   3.594   9.891  0.9557  1.9045 -1.8797
  387MOL0     H52208  -2.462   3.578   9.829  1.2709  0.1692 -0.1159
  387MOL0     H52209  -2.998   3.410   9.475 -0.0473  0.1087 -0.0032
  387MOL0     H52210  -3.252   3.435   9.428  1.9550 -1.2695  0.0447
  387MOL0     H52211  -3.439   3.345   9.357 -2.5260 -0.3165 -1.8857
  387MOL0     H52212  -3.582   3.309   9.423 -1.9189  2.1559  1.7956
  387MOL0     H52213  -3.587   3.511   9.570 -1.3990 -3.2237 -0.2482
  387MOL0     H52214  -3.442   3.570   9.494  0.4494 -0.3028  0.0018
  387MOL0     H52215  -3.598   3.555   9.266 -2.4125  1.8111 -1.5537
  387MOL0     H52216  -3.643   3.667   9.381  0.3245  0.2644 -0.9805
  387MOL0     H52217  -3.770   3.384   9.348 -1.0499  0.9011 -0.4387
  387MOL0     H52218  -3.824   3.508   9.464 -0.4928  1.7707 -0.5521
  387MOL0     H52219  -3.797   3.553   9.160  0.2843 -1.4061  0.4023
  387MOL0     H52220  -3.855   3.672   9.281 -1.9110  0.1399  0.5919
  387MOL0     H52221  -3.967   3.405   9.207  2.3734  1.1912 -0.9057
  387MOL0     H52222  -4.036   3.501   9.341 -0.6808  0.4713 -0.4170
  387MOL0     H52223  -4.016   3.564   9.047  0.3074 -1.4756 -0.2516
  387MOL0     H52224  -4.115   3.665   9.162  1.1441 -0.4554  1.5391
  387MOL0     H52225  -4.167   3.371   9.092 -0.0927  0.5697  1.7283
  387MOL0     H52226  -4.254   3.504   9.020  4.3747 -2.1630 -3.8398
  387MOL0     H52227  -3.321   3.162   9.739  1.4401 -0.8177  1.6569
  387MOL0     H52228  -3.077   3.179   9.813 -2.3388  0.2188  1.2798
  387MOL0     H52229  -2.745   3.111   9.770  0.0607 -2.1127  2.9851
  387MOL0     H52230  -2.537   3.007   9.801  2.6319  0.7283 -0.8982
  387MOL0     H52231  -0.497   3.212   9.321 -1.0234  0.9215  3.4529
  387MOL0     H52232  -0.262   3.282   9.297 -1.4986 -0.4761 -1.7095
  387MOL0     H52233   0.109   3.267   9.262 -0.4604 -1.0189 -0.5444
  387MOL0     H52234   0.337   3.272   9.141  2.7893  2.4539  2.0809
  387MOL0     H52235   0.685   3.109   9.335  0.3029 -0.9530  0.0241
  387MOL0     H52236   0.622   2.958   9.264  0.0943 -1.4810 -1.4309
  387MOL0     H52237   0.798   3.157   9.115  3.0022 -1.0792 -1.0385
  387MOL0     H52238   0.726   3.010   9.046  0.6965 -2.6676  0.3419
  387MOL0     H52239   0.837   2.877   9.199 -0.9031  0.6626  0.8614
  387MOL0     H52240   0.915   3.019   9.279 -1.9151  0.0376  0.2853
  387MOL0     H52241   1.034   3.080   9.085 -2.8366  1.2771  1.0863
  387MOL0     H52242   0.945   2.966   8.973  0.2927  1.8073 -0.6185
  387MOL0     H52243   1.245   2.724   9.147 -0.8343 -0.3029 -0.6246
  387MOL0     H52244   0.500   3.022   9.426  1.5137 -1.9000 -3.6554
  387MOL0     H52245   0.300   3.040   9.567 -0.9224  1.0056 -0.1708
  388MOL0     O52246   3.750   6.696   7.148 -0.3563 -0.7972  0.1996
  388MOL0     C52247   3.723   6.724   7.034  0.6012  0.1760 -0.0373
  388MOL0     O52248   3.592   6.736   6.979 -0.2565 -0.5629  0.0677
  388MOL0     C52249   3.476   6.708   7.054  0.3423  0.2941  0.7217
  388MOL0     C52250   3.465   6.609   7.153  0.1160  0.7503  0.8146
  388MOL0     C52251   3.341   6.575   7.199  0.3014  0.3722 -0.6617
  388MOL0     C52252   3.226   6.649   7.166  0.4687  0.0713  0.0760
  388MOL0     O52253   3.099   6.613   7.207  0.3261 -0.3615  0.4308
  388MOL0     C52254   3.070   6.586   7.343 -0.4883 -0.3304  0.7578
  388MOL0     C52255   2.936   6.510   7.332 -0.2243  0.3496  0.0817
  388MOL0     C52256   2.874   6.460   7.464  0.2296  0.9111  0.2440
  388MOL0     C52257   2.779   6.342   7.458  0.8380 -0.2307 -0.1323
  388MOL0     C52258   2.655   6.363   7.374 -0.5605 -1.0093 -0.1805
  388MOL0     C52259   2.568   6.237   7.375 -0.3382  0.2872  0.5015
  388MOL0     C52260   2.437   6.254   7.301 -0.1200 -0.0811  0.1240
  388MOL0     C52261   2.373   6.112   7.295  0.5265  0.4316 -0.2521
  388MOL0     N52262   2.245   6.114   7.233 -0.2504 -0.3228 -0.0875
  388MOL0     C52263   2.217   6.105   7.098 -0.2751  0.9134 -0.2264
  388MOL0     C52264   2.083   6.113   7.091 -0.3304  0.0033  0.0157
  388MOL0     C52265   2.016   6.116   6.959 -0.2403  0.1296  0.5732
  388MOL0     C52266   2.034   5.988   6.880  0.5340 -0.0313  0.0078
  388MOL0     C52267   1.942   5.969   6.759 -0.6103 -0.1703  0.4117
  388MOL0     C52268   1.791   5.953   6.770 -0.0487  0.3746  0.5330
  388MOL0     O52269   1.726   5.910   6.651  0.1737  0.1802  0.2145
  388MOL0     C52270   1.591   5.870   6.656 -0.2165  0.2755  0.0414
  388MOL0     C52271   1.498   5.910   6.755 -0.3663  0.9482 -0.3314
  388MOL0     C52272   1.367   5.876   6.743  0.1197  0.5674 -0.8620
  388MOL0     C52273   1.294   5.937   6.865  0.3464  0.5950  0.0651
  388MOL0     C52274   1.317   5.792   6.642  1.1250 -0.1826 -0.4819
  388MOL0     C52275   1.175   5.739   6.645 -0.2549  0.0941 -0.6171
  388MOL0     O52276   1.112   5.714   6.759 -0.5744  0.0015 -0.3484
  388MOL0     C52277   0.976   5.689   6.764 -1.3639 -0.2568 -0.1547
  388MOL0     C52278   0.896   5.780   6.831 -0.1029 -0.7902  0.0827
  388MOL0     C52279   0.757   5.769   6.828  0.2153  0.1800  0.4125
  388MOL0     C52280   0.697   5.665   6.758 -0.1920  0.1276 -0.0039
  388MOL0     O52281   0.559   5.646   6.747 -0.2234  0.5456 -0.5322
  388MOL0     C52282   0.466   5.758   6.788 -0.9803  0.0923  0.9209
  388MOL0     C52283   0.328   5.713   6.786 -0.1458  0.0936 -0.2072
  388MOL0     C52284   0.222   5.830   6.791 -0.5710 -0.9601  0.4407
  388MOL0     C52285   0.092   5.764   6.806 -0.0674  0.5531  1.0537
  388MOL0     C52286  -0.027   5.860   6.784  0.3667 -0.0263  0.8630
  388MOL0     C52287  -0.035   5.978   6.874 -0.1226 -0.3963 -0.1427
  388MOL0     C52288  -0.155   6.075   6.847  0.0307  0.5823 -0.4848
  388MOL0     C52289  -0.145   6.166   6.967  0.5053  0.1372  0.0218
  388MOL0    Cl52290  -0.291   6.263   6.966  0.0795 -0.2897 -0.3053
  388MOL0     C52291   0.784   5.569   6.696  0.0803  0.2959 -0.8211
  388MOL0     C52292   0.918   5.582   6.700 -0.0055 -0.2603 -0.0014
  388MOL0     O52293   1.123   5.727   6.535  0.0617  0.0481 -0.3477
  388MOL0     C52294   1.405   5.745   6.551 -0.6850  1.1776  0.8181
  388MOL0     C52295   1.540   5.788   6.554 -0.8885  0.2901 -0.3104
  388MOL0     N52296   2.027   6.125   7.215  0.1182 -0.0577 -0.4234
  388MOL0     N52297   2.127   6.126   7.298 -0.2549  0.6037  0.2937
  388MOL0     C52298   3.237   6.747   7.063 -0.5148  0.2623  0.3905
  388MOL0     C52299   3.361   6.773   7.010  0.7476 -0.8673 -0.5009
  388MOL0     C52300   3.838   6.736   6.945  0.2734  0.3842 -0.2250
  388MOL0     C52301   3.970   6.692   6.969 -0.1110  0.1831 -0.6207
  388MOL0     C52302   4.075   6.712   6.882  0.7243  0.2831  0.5933
  388MOL0     C52303   4.056   6.781   6.762  0.7506 -0.4909 -0.5452
  388MOL0     O52304   4.144   6.805   6.660 -0.5525  0.7714  0.4075
  388MOL0     C52305   4.286   6.807   6.685  0.2193  0.4241  0.4838
  388MOL0     C52306   4.350   6.835   6.546  0.8298 -0.9457 -0.4553
  388MOL0     C52307   4.499   6.795   6.535 -0.5651 -0.6363  0.4454
  388MOL0     C52308   4.568   6.865   6.417  0.2687 -0.1864 -0.8147
  388MOL0     C52309   4.707   6.818   6.404  0.8283 -0.9637  0.2288
  388MOL0     C52310   4.824   6.778   6.405  0.1880  0.5313  0.2979
  388MOL0     C52311   3.921   6.823   6.732 -0.5830  0.2408 -0.4653
  388MOL0     C52312   3.821   6.808   6.825 -0.0449 -0.5807 -0.2459
  388MOL0     H52313   3.548   6.543   7.175  1.0378  1.5906 -0.0220
  388MOL0     H52314   3.331   6.484   7.257  1.0017 -0.7991 -2.2839
  388MOL0     H52315   3.140   6.517   7.391  1.4024 -0.5485 -2.0374
  388MOL0     H52316   3.054   6.676   7.402  0.8272  0.3979  0.0660
  388MOL0     H52317   2.873   6.594   7.299  0.0618  0.5037 -0.0753
  388MOL0     H52318   2.950   6.436   7.253 -1.0623  2.4820 -2.2081
  388MOL0     H52319   2.953   6.440   7.536 -0.0172 -0.6500  0.1111
  388MOL0     H52320   2.814   6.544   7.503 -0.3199  1.7892 -2.2849
  388MOL0     H52321   2.825   6.248   7.425 -0.7878 -0.5920 -1.4596
  388MOL0     H52322   2.759   6.334   7.565 -0.6222  4.4010  0.1429
  388MOL0     H52323   2.609   6.445   7.430  5.3115  3.1125 -0.4177
  388MOL0     H52324   2.693   6.391   7.275 -1.5916  1.0594 -0.0503
  388MOL0     H52325   2.614   6.146   7.335  1.5200  1.7931 -0.9548
  388MOL0     H52326   2.549   6.215   7.480  2.0767  1.1129  1.1608
  388MOL0     H52327   2.378   6.339   7.339  1.5582  1.3168 -0.2564
  388MOL0     H52328   2.454   6.269   7.194  0.8765  0.6399  0.3707
  388MOL0     H52329   2.358   6.083   7.400  2.5749  0.1609  0.0175
  388MOL0     H52330   2.448   6.045   7.252 -1.2775 -0.2645 -2.4922
  388MOL0     H52331   2.285   6.093   7.014 -1.1691 -1.2578 -0.7091
  388MOL0     H52332   1.910   6.131   6.982  0.2901  0.9648  2.6701
  388MOL0     H52333   2.047   6.207   6.907 -0.9870  0.2356  0.3037
  388MOL0     H52334   2.019   5.899   6.943  0.1709 -1.3251 -1.8462
  388MOL0     H52335   2.140   5.974   6.856 -0.1720 -0.5962 -3.1768
  388MOL0     H52336   1.980   5.893   6.690 -2.3433 -0.7620  0.0463
  388MOL0     H52337   1.963   6.063   6.707  2.9522 -0.7685  0.5004
  388MOL0     H52338   1.739   6.041   6.809 -1.7171  0.4184 -1.5545
  388MOL0     H52339   1.785   5.864   6.832  0.1269 -1.8683 -2.4370
  388MOL0     H52340   1.525   5.981   6.833 -2.0541  2.2120 -0.8270
  388MOL0     H52341   1.330   6.040   6.872 -2.3109  1.7441 -1.5722
  388MOL0     H52342   1.187   5.941   6.841  0.5493 -1.9930 -1.6398
  388MOL0     H52343   1.311   5.881   6.958 -3.0191  0.0916  0.5047
  388MOL0     H52344   0.946   5.865   6.877 -0.9099 -0.4888  0.4168
  388MOL0     H52345   0.704   5.845   6.885  2.1583  1.9207  0.0512
  388MOL0     H52346   0.485   5.792   6.890 -2.5087 -1.4791  1.7856
  388MOL0     H52347   0.470   5.843   6.720 -3.3900  1.1580  2.0085
  388MOL0     H52348   0.318   5.654   6.694  0.0999  0.7462 -0.6604
  388MOL0     H52349   0.304   5.643   6.866 -1.3856  1.0449  0.2822
  388MOL0     H52350   0.231   5.877   6.693  1.7110 -3.4760 -0.6693
  388MOL0     H52351   0.260   5.898   6.869  2.4655 -2.7560  0.6653
  388MOL0     H52352   0.097   5.677   6.739  2.8603  0.7663  0.8464
  388MOL0     H52353   0.075   5.711   6.900 -1.9751 -2.9516 -1.0337
  388MOL0     H52354  -0.123   5.808   6.771  0.5265 -0.1912  0.2816
  388MOL0     H52355  -0.004   5.901   6.685 -2.2153 -1.8181 -0.6226
  388MOL0     H52356  -0.040   5.935   6.975  2.0682 -0.6048 -0.0817
  388MOL0     H52357   0.061   6.031   6.877 -0.3454 -0.0169  1.0629
  388MOL0     H52358  -0.251   6.023   6.842  2.5615 -4.7417 -0.6119
  388MOL0     H52359  -0.134   6.134   6.758 -2.1818  1.2437 -0.6060
  388MOL0     H52360  -0.059   6.232   6.957 -1.2712  2.7208  0.7994
  388MOL0     H52361  -0.142   6.115   7.064  2.0885 -0.0098 -0.0813
  388MOL0     H52362   0.745   5.479   6.650 -1.4091 -0.7926  2.2331
  388MOL0     H52363   0.974   5.511   6.641  1.5730  1.9885 -1.3311
  388MOL0     H52364   1.373   5.690   6.463  1.3983  0.1669  0.6285
  388MOL0     H52365   1.614   5.773   6.476  0.3695  0.4899  0.8208
  388MOL0     H52366   3.152   6.808   7.034 -0.3751  0.4101  0.2955
  388MOL0     H52367   3.376   6.848   6.933  1.3015  0.4331  0.8349
  388MOL0     H52368   3.996   6.638   7.060 -0.8931  2.5973  1.1463
  388MOL0     H52369   4.166   6.656   6.903 -0.3762 -1.7716  0.1819
  388MOL0     H52370   4.303   6.889   6.755 -0.6184  1.2677 -0.2733
  388MOL0     H52371   4.324   6.711   6.722  2.4405  0.4292 -1.4968
  388MOL0     H52372   4.334   6.940   6.517  0.3226 -1.3262 -1.6244
  388MOL0     H52373   4.284   6.788   6.473 -0.9468 -1.1295  1.1669
  388MOL0     H52374   4.500   6.686   6.529 -2.4177 -0.6963  0.4588
  388MOL0     H52375   4.558   6.826   6.622  0.1048 -2.2962  0.6106
  388MOL0     H52376   4.567   6.974   6.423  2.4767  0.1192 -3.8352
  388MOL0     H52377   4.519   6.847   6.322 -2.3435  1.0724  0.1897
  388MOL0     H52378   4.920   6.730   6.403  0.2357  0.5935  0.7506
  388MOL0     H52379   3.898   6.871   6.638  2.1463 -0.4976 -1.6149
  388MOL0     H52380   3.724   6.847   6.797  0.1481  0.6667  0.7227
  389MOL0     O52381  10.736   2.817   2.425  1.1152 -0.1249  0.6523
  389MOL0     C52382  10.832   2.876   2.472 -0.6245 -0.1702  0.0783
  389MOL0     O52383  10.832   3.000   2.522 -0.1461  0.0486  0.1649
  389MOL0     C52384  10.731   3.091   2.513  0.2124 -0.2733 -0.7021
  389MOL0     C52385  10.753   3.214   2.579 -0.6959  0.6392  0.4507
  389MOL0     C52386  10.659   3.318   2.568 -0.1742  0.9582  0.4526
  389MOL0     C52387  10.548   3.307   2.483  1.3333 -0.5172  0.4265
  389MOL0     O52388  10.445   3.402   2.479 -0.4741  0.3294 -0.3112
  389MOL0     C52389  10.477   3.541   2.508 -0.1364  0.1357 -0.2304
  389MOL0     C52390  10.409   3.642   2.416  0.7172  0.0652 -0.0195
  389MOL0     C52391  10.273   3.705   2.445 -0.2381 -0.7004 -0.2377
  389MOL0     C52392  10.170   3.597   2.470  0.5811  0.3306  1.0592
  389MOL0     C52393  10.026   3.660   2.460  1.0542 -0.0437  0.1246
  389MOL0     C52394   9.991   3.769   2.568  0.1590 -0.6572 -0.0863
  389MOL0     C52395   9.843   3.816   2.553  0.9402 -0.3765  0.5712
  389MOL0     C52396   9.726   3.720   2.577  0.1967  0.3246  0.2066
  389MOL0     N52397   9.597   3.783   2.598 -0.3498 -0.4351 -0.3737
  389MOL0     C52398   9.478   3.727   2.643 -0.1380  0.1339 -0.0455
  389MOL0     C52399   9.383   3.821   2.638 -0.2613 -0.5041  0.4007
  389MOL0     C52400   9.238   3.796   2.670  0.1760 -0.3055 -0.0687
  389MOL0     C52401   9.177   3.662   2.621  0.1788 -0.0238 -0.4222
  389MOL0     C52402   9.037   3.648   2.689  0.7953 -0.4698  0.1393
  389MOL0     C52403   8.976   3.513   2.660 -0.3004 -0.1562 -0.1009
  389MOL0     O52404   8.942   3.498   2.522 -0.1268  0.1108 -0.3321
  389MOL0     C52405   8.833   3.559   2.466 -0.9562 -0.3476 -0.6728
  389MOL0     C52406   8.824   3.564   2.333 -0.3351  0.4513 -0.1075
  389MOL0     C52407   8.715   3.625   2.269  0.5284  0.4111 -0.5888
  389MOL0     C52408   8.714   3.621   2.119 -0.3641  0.1952  0.2379
  389MOL0     C52409   8.618   3.701   2.344  0.3343  0.2709 -0.5867
  389MOL0     C52410   8.533   3.805   2.286 -0.7262  0.2759 -0.5629
  389MOL0     O52411   8.429   3.835   2.361 -0.5403  0.2785 -0.3201
  389MOL0     C52412   8.318   3.875   2.284 -0.0918 -0.4289  0.1758
  389MOL0     C52413   8.236   3.980   2.326  0.3447  0.2349 -0.3049
  389MOL0     C52414   8.112   4.005   2.259 -0.0318 -0.0686  0.0790
  389MOL0     C52415   8.068   3.933   2.149 -0.3233 -0.2177  0.2056
  389MOL0     O52416   7.948   3.962   2.085 -0.0525 -0.2174  0.1398
  389MOL0     C52417   7.837   3.937   2.161 -0.2353  0.1654 -1.0127
  389MOL0     C52418   7.744   4.058   2.176 -0.0492  0.0843  1.0758
  389MOL0     C52419   7.651   4.053   2.045  1.1813 -0.3109 -0.3612
  389MOL0     C52420   7.563   4.175   2.030  0.5509 -0.5081  0.3226
  389MOL0     C52421   7.467   4.224   2.141 -0.4340 -0.6812  0.2564
  389MOL0     C52422   7.383   4.115   2.209 -0.5759 -0.4574  0.8696
  389MOL0     C52423   7.259   4.177   2.279  0.5559 -0.1015  0.3590
  389MOL0     C52424   7.151   4.075   2.321 -0.8745  0.1670  1.1007
  389MOL0    Cl52425   7.073   4.009   2.175 -0.3112  0.3820  0.1996
  389MOL0     C52426   8.152   3.829   2.107  0.6382 -0.0470 -0.0331
  389MOL0     C52427   8.275   3.794   2.169  0.3164  0.0379  0.0656
  389MOL0     O52428   8.562   3.853   2.177 -0.1602 -0.3368  0.4880
  389MOL0     C52429   8.626   3.682   2.491 -0.3509 -0.5419 -0.4026
  389MOL0     C52430   8.737   3.618   2.550  0.0461 -0.3471 -0.4275
  389MOL0     N52431   9.442   3.939   2.583 -0.4799 -0.2369 -0.0644
  389MOL0     N52432   9.565   3.910   2.550 -0.1404  0.0290  0.4733
  389MOL0     C52433  10.519   3.190   2.420  0.4367 -0.3455  0.1339
  389MOL0     C52434  10.611   3.079   2.440 -0.0013 -0.6172 -0.2392
  389MOL0     C52435  10.966   2.815   2.476 -0.3657  0.6095 -1.0609
  389MOL0     C52436  10.979   2.683   2.426 -0.5725 -0.3336  0.1652
  389MOL0     C52437  11.097   2.616   2.439 -0.3608  0.1155  0.9736
  389MOL0     C52438  11.216   2.684   2.481  0.4089  0.1493 -0.0925
  389MOL0     O52439  11.332   2.618   2.504 -0.3590  0.1649 -0.0565
  389MOL0     C52440  11.384   2.527   2.406 -0.5987  0.3608 -0.3346
  389MOL0     C52441  11.402   2.388   2.471 -0.0156 -0.6262  0.3373
  389MOL0     C52442  11.429   2.286   2.365  0.1703 -0.2155 -0.1381
  389MOL0     C52443  11.438   2.135   2.404 -0.7643  0.0208 -0.1778
  389MOL0     C52444  11.318   2.087   2.480  0.4958 -1.4407 -0.3934
  389MOL0     C52445  11.217   2.043   2.530 -0.1890  0.5146  0.1385
  389MOL0     C52446  11.207   2.817   2.530  0.1841  0.1499  0.7168
  389MOL0     C52447  11.079   2.873   2.535 -0.6059  0.1892 -0.4831
  389MOL0     H52448  10.840   3.241   2.637 -2.3824  2.0248  2.4734
  389MOL0     H52449  10.674   3.415   2.615 -1.0185  1.5209 -0.3895
  389MOL0     H52450  10.467   3.574   2.612 -3.0887 -1.5913  0.1618
  389MOL0     H52451  10.583   3.551   2.484 -0.3784 -0.7173 -1.7308
  389MOL0     H52452  10.484   3.721   2.417  0.3391  0.4642  2.5499
  389MOL0     H52453  10.403   3.599   2.315  0.3569  1.8569 -0.7931
  389MOL0     H52454  10.289   3.768   2.534 -2.5863  1.9268 -1.5340
  389MOL0     H52455  10.243   3.759   2.355  2.0915  0.5792 -0.3416
  389MOL0     H52456  10.160   3.521   2.392 -0.9188  1.6058 -0.0399
  389MOL0     H52457  10.187   3.543   2.564 -4.5931  1.4001  2.9172
  389MOL0     H52458  10.011   3.707   2.363  0.7882  0.7180  0.5281
  389MOL0     H52459   9.956   3.577   2.472  0.1072  0.8711  1.2597
  389MOL0     H52460   9.994   3.746   2.675  1.0684  0.3629  0.1209
  389MOL0     H52461  10.050   3.860   2.558  0.0436 -0.7768 -2.4671
  389MOL0     H52462   9.827   3.887   2.634  0.2875 -2.2526  2.1748
  389MOL0     H52463   9.836   3.863   2.454  2.8972 -1.1582  0.0240
  389MOL0     H52464   9.746   3.645   2.654 -1.4095 -2.2365 -1.6723
  389MOL0     H52465   9.714   3.666   2.482 -2.5394  2.2609 -0.6812
  389MOL0     H52466   9.467   3.623   2.672  2.0518 -0.6292 -1.6243
  389MOL0     H52467   9.227   3.804   2.779  0.3048  3.1078 -0.1976
  389MOL0     H52468   9.185   3.886   2.639  0.8641  0.5981  1.2855
  389MOL0     H52469   9.246   3.585   2.657 -0.9785 -0.8058  0.1924
  389MOL0     H52470   9.182   3.654   2.512  3.1088 -1.4404 -0.2885
  389MOL0     H52471   8.967   3.732   2.684  0.1957 -0.9870 -0.3966
  389MOL0     H52472   9.046   3.625   2.795 -0.5028 -1.4910  0.0556
  389MOL0     H52473   8.892   3.484   2.724 -0.1529 -2.1314 -0.7462
  389MOL0     H52474   9.053   3.441   2.691 -0.3346 -1.4281 -2.7160
  389MOL0     H52475   8.903   3.529   2.268  1.0719  0.5052  1.5182
  389MOL0     H52476   8.759   3.530   2.078  0.2689 -0.2051  1.7228
  389MOL0     H52477   8.612   3.625   2.081  0.2438  1.6474 -1.3145
  389MOL0     H52478   8.762   3.711   2.080 -0.9416  0.6858  0.6361
  389MOL0     H52479   8.277   4.023   2.417  4.4249 -4.1541  0.3536
  389MOL0     H52480   8.058   4.098   2.277 -1.0515  0.0147 -2.8915
  389MOL0     H52481   7.775   3.858   2.118 -0.7735  0.3992 -0.6856
  389MOL0     H52482   7.862   3.901   2.261 -0.8298  1.1886 -0.4734
  389MOL0     H52483   7.679   4.044   2.263  0.3506  0.9061  1.5182
  389MOL0     H52484   7.800   4.151   2.192  0.7549 -0.5881  2.3458
  389MOL0     H52485   7.591   3.962   2.046 -1.4151  1.2595  2.5740
  389MOL0     H52486   7.718   4.056   1.959  1.8280 -0.2340  0.1362
  389MOL0     H52487   7.627   4.253   1.989 -2.7795  0.5832 -3.5038
  389MOL0     H52488   7.497   4.147   1.947  1.2435  2.9811 -1.5822
  389MOL0     H52489   7.404   4.305   2.103  0.1209 -0.1767  0.3980
  389MOL0     H52490   7.530   4.270   2.218 -0.0226 -0.1056 -0.4080
  389MOL0     H52491   7.353   4.036   2.140  0.9002  0.1266 -0.5167
  389MOL0     H52492   7.447   4.070   2.286  0.5277  1.6966  1.2939
  389MOL0     H52493   7.207   4.247   2.214  0.6640 -1.2015 -0.9523
  389MOL0     H52494   7.292   4.238   2.364  0.9679 -2.2406  1.8119
  389MOL0     H52495   7.072   4.128   2.375 -0.0622  0.5488  1.9378
  389MOL0     H52496   7.185   3.994   2.385 -0.2741  0.7825  1.5821
  389MOL0     H52497   8.106   3.768   2.030  0.0717  2.4575 -1.7740
  389MOL0     H52498   8.331   3.705   2.142  4.3909  2.3601  0.0462
  389MOL0     H52499   8.550   3.730   2.552  0.3947 -1.6157  1.4557
  389MOL0     H52500   8.743   3.624   2.658 -3.1687  0.4013 -0.1946
  389MOL0     H52501  10.424   3.174   2.371  1.7433 -0.5435 -2.5128
  389MOL0     H52502  10.594   2.983   2.393 -0.4690 -1.3757  1.3997
  389MOL0     H52503  10.894   2.636   2.377 -1.9862  2.3271 -0.1687
  389MOL0     H52504  11.104   2.512   2.410 -0.2812  0.1561  0.8474
  389MOL0     H52505  11.323   2.517   2.316 -1.1130 -4.0585  0.2787
  389MOL0     H52506  11.479   2.566   2.366 -1.5070  1.0516 -1.9200
  389MOL0     H52507  11.317   2.371   2.537 -0.0571  0.5478  0.6028
  389MOL0     H52508  11.475   2.388   2.553  0.5955  3.4663 -0.0369
  389MOL0     H52509  11.524   2.314   2.318  0.4955 -2.3185 -0.8478
  389MOL0     H52510  11.347   2.289   2.292  0.4649  0.0783 -0.4589
  389MOL0     H52511  11.528   2.117   2.465 -1.0883  0.3991  0.4230
  389MOL0     H52512  11.454   2.073   2.316 -0.2363  0.0463 -0.1023
  389MOL0     H52513  11.126   2.005   2.573 -2.3578  2.9478 -1.9668
  389MOL0     H52514  11.296   2.876   2.549  0.8590 -0.8455  0.6874
  389MOL0     H52515  11.071   2.967   2.589  1.6923  0.4137 -0.4285
  390MOL0     O52516   7.103   3.243   1.556 -0.2202  0.1308 -0.1706
  390MOL0     C52517   7.106   3.322   1.650  0.1258  0.4920 -0.0113
  390MOL0     O52518   7.012   3.414   1.683  0.1174  0.6069  0.5314
  390MOL0     C52519   6.915   3.460   1.602  0.1044  0.0312 -0.5086
  390MOL0     C52520   6.926   3.465   1.462 -0.2793  0.1546 -0.0582
  390MOL0     C52521   6.837   3.528   1.376 -0.0729  0.8513 -0.4924
  390MOL0     C52522   6.727   3.593   1.434 -0.0581  0.4039 -0.4681
  390MOL0     O52523   6.631   3.665   1.369 -0.3857 -0.6151 -0.2738
  390MOL0     C52524   6.620   3.654   1.224 -0.0865 -0.1336 -0.9246
  390MOL0     C52525   6.475   3.661   1.169  0.0739 -0.5790 -0.4191
  390MOL0     C52526   6.412   3.802   1.176 -0.0425 -0.9172  0.3317
  390MOL0     C52527   6.291   3.815   1.091  0.0546  0.1896  0.2797
  390MOL0     C52528   6.229   3.958   1.108 -0.0784 -0.1664  0.5902
  390MOL0     C52529   6.098   3.964   1.031  0.2499 -1.0315 -0.7910
  390MOL0     C52530   6.034   4.104   1.034 -0.6074  0.3837  0.2733
  390MOL0     C52531   5.884   4.093   0.997  0.8569  0.2020 -0.2878
  390MOL0     N52532   5.804   4.035   1.101  0.0740  0.1707  0.0898
  390MOL0     C52533   5.719   4.098   1.183  0.1615 -0.1341  0.0965
  390MOL0     C52534   5.642   4.004   1.244 -0.1960 -0.0061  0.4355
  390MOL0     C52535   5.534   4.015   1.348  0.5561 -0.0071 -0.3951
  390MOL0     C52536   5.402   4.076   1.283 -0.7713 -0.3101 -0.4324
  390MOL0     C52537   5.399   4.227   1.283  0.6975  0.2533 -0.4097
  390MOL0     C52538   5.275   4.288   1.239  0.0549  0.2248  0.0197
  390MOL0     O52539   5.170   4.258   1.325  0.2622 -0.6839 -0.2731
  390MOL0     C52540   5.054   4.335   1.333  0.6956 -0.1919 -0.2345
  390MOL0     C52541   5.012   4.436   1.246  0.3072  0.9021 -0.3255
  390MOL0     C52542   4.900   4.509   1.257  0.5385  0.0014 -0.4864
  390MOL0     C52543   4.871   4.604   1.144 -0.3427 -0.6661  0.4888
  390MOL0     C52544   4.811   4.475   1.366  0.7440 -0.9189  0.8795
  390MOL0     C52545   4.679   4.552   1.384  1.2647  0.4200  0.3030
  390MOL0     O52546   4.584   4.483   1.454 -0.1500 -0.5318 -0.7566
  390MOL0     C52547   4.454   4.525   1.453 -0.1770 -0.1361 -0.8370
  390MOL0     C52548   4.408   4.616   1.545  0.8112  0.9829  0.1974
  390MOL0     C52549   4.271   4.628   1.574  0.6428  0.0716 -0.2171
  390MOL0     C52550   4.177   4.559   1.492  0.4461 -0.4291 -1.0645
  390MOL0     O52551   4.041   4.557   1.518  0.1006 -0.0104 -0.9486
  390MOL0     C52552   3.992   4.659   1.599 -0.2757  0.1209 -0.1381
  390MOL0     C52553   3.843   4.633   1.620  0.9567 -0.5863  0.4218
  390MOL0     C52554   3.812   4.511   1.708 -0.7700  0.3486 -0.5921
  390MOL0     C52555   3.676   4.506   1.773  0.9755  0.2674  0.0783
  390MOL0     C52556   3.663   4.370   1.840 -0.7850  0.1459 -0.1997
  390MOL0     C52557   3.519   4.347   1.890  0.1734  0.1430 -0.2929
  390MOL0     C52558   3.506   4.278   2.017  0.0160 -0.0585 -0.5006
  390MOL0     C52559   3.368   4.209   2.042  0.9350 -0.4735 -0.0524
  390MOL0    Cl52560   3.249   4.345   2.103 -0.2020 -0.2352  0.4381
  390MOL0     C52561   4.224   4.483   1.390 -0.6626  0.2655  0.0871
  390MOL0     C52562   4.363   4.457   1.371 -0.1412 -0.9730 -0.6340
  390MOL0     O52563   4.659   4.661   1.329 -0.6176 -0.7321 -0.0052
  390MOL0     C52564   4.843   4.373   1.453 -0.5790  0.1342  0.3450
  390MOL0     C52565   4.964   4.306   1.439 -1.1153  0.3690 -0.0643
  390MOL0     N52566   5.676   3.886   1.186 -0.7284  0.6254 -1.1492
  390MOL0     N52567   5.768   3.902   1.096 -0.1159 -0.5437  0.0651
  390MOL0     C52568   6.713   3.586   1.576  0.0565 -0.4254 -0.0575
  390MOL0     C52569   6.811   3.526   1.663 -0.0220 -0.4879  0.0608
  390MOL0     C52570   7.217   3.312   1.742  0.7477  0.0322 -0.3335
  390MOL0     C52571   7.224   3.395   1.853  0.0851 -0.3625 -1.0088
  390MOL0     C52572   7.327   3.383   1.944  0.6969  0.1003 -0.2367
  390MOL0     C52573   7.422   3.277   1.945  0.3379  0.0603 -0.5045
  390MOL0     O52574   7.510   3.254   2.052 -0.8584  0.9273  0.2598
  390MOL0     C52575   7.568   3.118   2.050 -0.2723  0.2605 -0.6332
  390MOL0     C52576   7.634   3.083   2.185 -1.3001  0.1175 -0.8929
  390MOL0     C52577   7.733   3.198   2.237 -0.1126 -0.3356 -0.6503
  390MOL0     C52578   7.780   3.175   2.383 -0.6463  0.1121 -0.7159
  390MOL0     C52579   7.922   3.150   2.389 -0.3384  0.1512  0.6102
  390MOL0     C52580   8.041   3.132   2.402  0.0856 -0.6088  0.4404
  390MOL0     C52581   7.425   3.208   1.826 -0.1230 -0.2387  1.1066
  390MOL0     C52582   7.328   3.217   1.724  0.3008 -0.5002 -0.8645
  390MOL0     H52583   7.013   3.420   1.415 -0.5056  0.5270 -0.8460
  390MOL0     H52584   6.857   3.539   1.270 -0.4679  4.1362 -0.3237
  390MOL0     H52585   6.692   3.714   1.169  1.3044 -0.4301  0.5069
  390MOL0     H52586   6.640   3.548   1.204  0.6338 -0.3803  0.8871
  390MOL0     H52587   6.478   3.635   1.063  2.2140  3.5396 -1.5876
  390MOL0     H52588   6.409   3.590   1.219  0.3963 -1.9556 -1.8623
  390MOL0     H52589   6.392   3.831   1.280  2.9328 -0.6707  0.9570
  390MOL0     H52590   6.494   3.867   1.142 -0.5359 -0.3657  0.1895
  390MOL0     H52591   6.307   3.779   0.989  0.8228 -2.6407  1.2782
  390MOL0     H52592   6.219   3.739   1.123  1.7404 -1.6679 -0.1410
  390MOL0     H52593   6.206   3.977   1.213 -2.7612 -1.1775  0.2709
  390MOL0     H52594   6.299   4.029   1.064 -0.2192 -1.6800 -2.3204
  390MOL0     H52595   6.108   3.939   0.925 -0.2639  0.4446 -1.2111
  390MOL0     H52596   6.021   3.898   1.074 -1.9028  1.6917 -0.2105
  390MOL0     H52597   6.037   4.155   1.131 -2.3733  0.5758  0.2556
  390MOL0     H52598   6.083   4.167   0.960  1.5240 -0.1108  1.1777
  390MOL0     H52599   5.867   4.044   0.901  0.6278 -0.5757  0.1478
  390MOL0     H52600   5.842   4.193   0.985 -0.6666 -0.2369  1.0168
  390MOL0     H52601   5.716   4.207   1.192  0.3110 -0.0764 -0.5163
  390MOL0     H52602   5.503   3.915   1.378 -0.4376 -0.0889 -1.6254
  390MOL0     H52603   5.565   4.066   1.439 -3.6186  1.8086  0.1920
  390MOL0     H52604   5.313   4.052   1.342  1.6741 -0.2145  3.6399
  390MOL0     H52605   5.380   4.051   1.179 -2.3167 -1.8913  0.2213
  390MOL0     H52606   5.478   4.259   1.213 -1.0354 -0.2993 -2.7591
  390MOL0     H52607   5.423   4.254   1.386 -1.1155 -0.3992  0.2074
  390MOL0     H52608   5.246   4.244   1.143 -2.8032  0.9737  0.4370
  390MOL0     H52609   5.281   4.397   1.231  4.1242  0.4510  2.9627
  390MOL0     H52610   5.066   4.430   1.152  2.0051 -3.5063  0.6548
  390MOL0     H52611   4.777   4.593   1.090  0.2649 -1.1193 -0.5145
  390MOL0     H52612   4.885   4.705   1.184  0.2121 -1.9742  3.9575
  390MOL0     H52613   4.954   4.588   1.075  0.4429 -2.0021  1.6646
  390MOL0     H52614   4.472   4.689   1.594 -1.0014  0.7654  3.1853
  390MOL0     H52615   4.226   4.687   1.653 -0.4972  0.7892 -1.3757
  390MOL0     H52616   4.045   4.664   1.694  0.9695 -2.0171 -0.6571
  390MOL0     H52617   4.013   4.755   1.551 -0.7124  0.4310  0.2760
  390MOL0     H52618   3.791   4.717   1.668 -0.7947 -0.7769 -1.0406
  390MOL0     H52619   3.799   4.613   1.522  2.1267 -2.8141  0.3008
  390MOL0     H52620   3.887   4.502   1.787 -1.8310  0.0457  0.4031
  390MOL0     H52621   3.834   4.424   1.645  1.5341 -0.2894  0.9411
  390MOL0     H52622   3.662   4.583   1.849  0.7545  0.9759 -0.6699
  390MOL0     H52623   3.587   4.515   1.710 -1.8738 -2.7021  3.2943
  390MOL0     H52624   3.740   4.363   1.918  0.9634 -0.6297 -1.9029
  390MOL0     H52625   3.686   4.292   1.767 -0.3003  1.9730 -2.0907
  390MOL0     H52626   3.482   4.449   1.904 -0.6051 -0.2818  0.8249
  390MOL0     H52627   3.470   4.303   1.802  0.0059  2.3738 -1.4104
  390MOL0     H52628   3.530   4.345   2.100 -0.1977 -2.8498  1.9673
  390MOL0     H52629   3.582   4.199   2.017  1.5945  1.3648  0.8538
  390MOL0     H52630   3.374   4.131   2.119 -1.0028 -2.4388 -1.7255
  390MOL0     H52631   3.320   4.160   1.956 -0.7241  0.9576  0.0185
  390MOL0     H52632   4.158   4.421   1.330 -1.4907  0.9471  0.2763
  390MOL0     H52633   4.402   4.383   1.302 -0.0910 -0.8014 -0.7912
  390MOL0     H52634   4.782   4.334   1.535  0.6525 -0.7783  0.8619
  390MOL0     H52635   4.991   4.222   1.502  0.5786  0.8968 -0.0241
  390MOL0     H52636   6.621   3.635   1.609 -0.2861 -1.0324 -0.0912
  390MOL0     H52637   6.804   3.530   1.772 -2.2980  1.2788 -0.0865
  390MOL0     H52638   7.148   3.469   1.876  0.2395 -1.0436  2.2802
  390MOL0     H52639   7.298   3.436   2.034  0.3923 -1.1715  0.4321
  390MOL0     H52640   7.489   3.044   2.033 -1.0077 -0.0813  3.3387
  390MOL0     H52641   7.649   3.125   1.977 -0.0106  1.8881 -0.2289
  390MOL0     H52642   7.685   2.987   2.167 -0.0567  0.3306  1.1591
  390MOL0     H52643   7.561   3.058   2.263  1.8161  0.7390  2.4985
  390MOL0     H52644   7.681   3.294   2.237  0.9843  0.2775 -0.4525
  390MOL0     H52645   7.816   3.207   2.166 -0.6486  1.0085 -1.1291
  390MOL0     H52646   7.737   3.078   2.413  0.0689 -0.4369 -1.4244
  390MOL0     H52647   7.756   3.265   2.441  2.4572  0.2158  0.6309
  390MOL0     H52648   8.146   3.119   2.424  0.5793  1.2842 -0.5777
  390MOL0     H52649   7.510   3.141   1.818 -1.2666 -1.7599  1.2514
  390MOL0     H52650   7.334   3.151   1.638 -1.5849 -3.3785  1.0189
  391MOL0     O52651   1.031   8.724   2.344 -0.2516 -0.1298  0.3124
  391MOL0     C52652   1.106   8.631   2.358  0.6841 -0.5203 -0.0923
  391MOL0     O52653   1.064   8.502   2.372  0.1935 -0.2772  0.1212
  391MOL0     C52654   0.924   8.484   2.371  0.1053  0.0237 -1.2378
  391MOL0     C52655   0.860   8.431   2.257 -0.0901 -0.8128 -0.3116
  391MOL0     C52656   0.722   8.404   2.260  0.1969 -0.8877  0.2313
  391MOL0     C52657   0.652   8.418   2.376  0.4500 -0.0379 -0.2057
  391MOL0     O52658   0.529   8.364   2.369  1.3302 -0.1594 -0.6166
  391MOL0     C52659   0.435   8.450   2.447 -0.0946  0.0582 -0.1981
  391MOL0     C52660   0.298   8.425   2.378 -0.1815  1.6632 -0.0383
  391MOL0     C52661   0.303   8.457   2.225 -0.1615  0.3523 -0.3697
  391MOL0     C52662   0.166   8.412   2.150 -1.2251  0.5692  0.5554
  391MOL0     C52663   0.156   8.483   2.018 -1.2007  0.5545 -0.6972
  391MOL0     C52664   0.041   8.419   1.936 -0.2385  0.8975 -0.8995
  391MOL0     C52665  -0.093   8.499   1.957 -0.1084  0.3228 -0.1960
  391MOL0     C52666  -0.147   8.488   2.101  0.4240  0.0723  0.3052
  391MOL0     N52667  -0.287   8.526   2.119 -0.0899 -0.5032  0.3179
  391MOL0     C52668  -0.335   8.652   2.119 -0.2050  0.7231 -0.9084
  391MOL0     C52669  -0.461   8.626   2.165 -0.9993 -0.4906  0.6633
  391MOL0     C52670  -0.565   8.732   2.204 -1.2154  0.4785 -0.3108
  391MOL0     C52671  -0.667   8.744   2.084 -0.6105  0.2438 -0.3236
  391MOL0     C52672  -0.749   8.875   2.062  0.1039 -0.1808 -0.3468
  391MOL0     C52673  -0.825   8.899   2.197 -0.1009  0.3668 -0.1385
  391MOL0     O52674  -0.916   8.789   2.225  1.0182 -0.5139  0.6221
  391MOL0     C52675  -1.055   8.810   2.227 -0.4013  0.6191  0.6711
  391MOL0     C52676  -1.134   8.722   2.302 -0.2221 -0.1774  0.0211
  391MOL0     C52677  -1.272   8.729   2.308  0.3996  0.5473 -0.3129
  391MOL0     C52678  -1.329   8.625   2.401  0.0673 -0.6290 -1.3616
  391MOL0     C52679  -1.340   8.817   2.221 -0.1491 -0.4346 -0.0379
  391MOL0     C52680  -1.485   8.834   2.204  0.7306 -0.3939 -0.1774
  391MOL0     O52681  -1.535   8.897   2.084 -0.4232  0.2462 -0.1161
  391MOL0     C52682  -1.655   8.953   2.113  0.2986  0.1830 -0.6426
  391MOL0     C52683  -1.668   9.086   2.124 -0.3329  0.4564 -0.1625
  391MOL0     C52684  -1.794   9.147   2.138  0.3242  0.0737  0.4464
  391MOL0     C52685  -1.915   9.063   2.143 -0.7463 -0.6120 -0.7985
  391MOL0     O52686  -2.037   9.118   2.128 -0.0621  0.1715 -1.4717
  391MOL0     C52687  -2.165   9.048   2.143  0.0139  0.0531  0.3096
  391MOL0     C52688  -2.259   9.163   2.138 -0.4735  0.2856  0.5523
  391MOL0     C52689  -2.395   9.145   2.197  0.6498 -0.0937 -0.0594
  391MOL0     C52690  -2.493   9.266   2.203  0.2694  0.1066  0.1000
  391MOL0     C52691  -2.635   9.210   2.219 -0.6322 -0.0922 -0.5702
  391MOL0     C52692  -2.742   9.319   2.210 -0.4246 -0.7805 -1.2590
  391MOL0     C52693  -2.748   9.390   2.350 -0.6786  1.0535 -0.1286
  391MOL0     C52694  -2.865   9.504   2.357 -0.8090 -0.3938 -0.4245
  391MOL0    Cl52695  -2.870   9.604   2.206  0.3495 -0.2974 -0.2596
  391MOL0     C52696  -1.892   8.924   2.129  0.3313  0.1989 -0.4265
  391MOL0     C52697  -1.765   8.873   2.111  0.0108  0.0865  0.4836
  391MOL0     O52698  -1.553   8.798   2.300 -0.3335  0.2809 -0.1123
  391MOL0     C52699  -1.260   8.913   2.147  0.1332  0.5315 -0.4656
  391MOL0     C52700  -1.120   8.911   2.159 -0.5103 -1.0836 -0.0310
  391MOL0     N52701  -0.487   8.490   2.175 -0.1008 -0.1090 -0.0608
  391MOL0     N52702  -0.377   8.428   2.152 -0.4911  0.0392  0.1222
  391MOL0     C52703   0.717   8.472   2.486  0.0052 -0.8502  0.0177
  391MOL0     C52704   0.852   8.509   2.493 -1.5397  0.0012  0.7063
  391MOL0     C52705   1.252   8.662   2.373 -0.5285  0.2547  0.2504
  391MOL0     C52706   1.339   8.556   2.402 -0.4262 -1.3842 -0.2312
  391MOL0     C52707   1.473   8.585   2.403  0.0266 -0.2179 -0.2561
  391MOL0     C52708   1.530   8.711   2.379  0.8180  0.5158 -0.3519
  391MOL0     O52709   1.661   8.742   2.381  0.5334 -0.5968 -0.5599
  391MOL0     C52710   1.762   8.661   2.325 -0.7554 -0.0221  0.3936
  391MOL0     C52711   1.898   8.690   2.388 -0.2160  0.2223 -0.2170
  391MOL0     C52712   2.009   8.583   2.358  0.7208 -0.2057  0.5133
  391MOL0     C52713   2.059   8.593   2.214 -1.3109  0.1782  0.1819
  391MOL0     C52714   1.982   8.505   2.132  0.2763  0.3764  0.4176
  391MOL0     C52715   1.900   8.436   2.070 -0.6554 -0.2708 -0.6891
  391MOL0     C52716   1.447   8.813   2.352  0.3805  0.9443  0.3721
  391MOL0     C52717   1.305   8.794   2.359  0.4037 -0.9824 -0.9894
  391MOL0     H52718   0.913   8.420   2.162 -1.4876 -2.0440 -0.9886
  391MOL0     H52719   0.680   8.360   2.171 -1.9186 -3.1220  2.1899
  391MOL0     H52720   0.431   8.413   2.549 -1.9828 -0.8111 -0.5341
  391MOL0     H52721   0.461   8.554   2.429  0.0642 -0.0315 -0.5083
  391MOL0     H52722   0.276   8.318   2.384  2.5695  1.0542  0.7057
  391MOL0     H52723   0.222   8.478   2.435 -0.2775  0.5725  0.8859
  391MOL0     H52724   0.309   8.566   2.217  1.6759  0.1756 -2.1922
  391MOL0     H52725   0.388   8.414   2.171  0.0704 -2.1650  1.7833
  391MOL0     H52726   0.177   8.304   2.135 -0.2267  0.5380  1.4143
  391MOL0     H52727   0.084   8.434   2.219 -0.7495  0.7755  1.0590
  391MOL0     H52728   0.143   8.589   2.038  0.2202  1.3855 -3.6199
  391MOL0     H52729   0.255   8.481   1.971 -0.2863 -0.8083  1.1854
  391MOL0     H52730   0.073   8.411   1.832  0.8169 -1.2533 -0.4711
  391MOL0     H52731   0.018   8.320   1.977  0.5624  1.4395  0.9866
  391MOL0     H52732  -0.073   8.606   1.944 -0.6607  0.2740 -1.6908
  391MOL0     H52733  -0.159   8.458   1.880  0.7461  0.2121 -0.9002
  391MOL0     H52734  -0.086   8.559   2.158  3.2849  0.7460 -3.1944
  391MOL0     H52735  -0.138   8.385   2.137  0.2806  0.4761  1.5537
  391MOL0     H52736  -0.286   8.748   2.131  3.9435 -1.4970  2.4291
  391MOL0     H52737  -0.604   8.707   2.303  1.4930  2.0861  1.2944
  391MOL0     H52738  -0.511   8.825   2.225  1.8670 -1.6325  1.8756
  391MOL0     H52739  -0.740   8.664   2.092  0.0011 -0.3908 -0.9768
  391MOL0     H52740  -0.607   8.729   1.993 -0.7095  4.1502 -1.2310
  391MOL0     H52741  -0.823   8.848   1.986 -2.4226  1.4352  1.3589
  391MOL0     H52742  -0.694   8.966   2.039  3.3317 -1.8497  0.2082
  391MOL0     H52743  -0.885   8.988   2.175 -0.4914  0.6453  1.8908
  391MOL0     H52744  -0.760   8.914   2.283 -1.1816 -0.1165  0.7873
  391MOL0     H52745  -1.076   8.645   2.351 -0.8124  0.5830  2.0225
  391MOL0     H52746  -1.426   8.586   2.370  1.5730 -4.0013 -2.2055
  391MOL0     H52747  -1.263   8.541   2.422  1.1728  0.4508 -0.2739
  391MOL0     H52748  -1.333   8.677   2.497  2.4290 -0.2425 -1.4001
  391MOL0     H52749  -1.578   9.148   2.126  1.0545 -1.3489 -2.2140
  391MOL0     H52750  -1.800   9.255   2.135 -1.8772  0.0333  1.6467
  391MOL0     H52751  -2.190   8.979   2.061 -1.1736  1.4020 -0.5131
  391MOL0     H52752  -2.161   8.996   2.240 -1.1051 -0.4398  0.1188
  391MOL0     H52753  -2.209   9.241   2.197  2.7180 -0.1163 -1.4227
  391MOL0     H52754  -2.274   9.213   2.042  0.2930  4.6430  2.4514
  391MOL0     H52755  -2.368   9.112   2.297  1.9724  0.2936 -0.2688
  391MOL0     H52756  -2.436   9.055   2.151 -0.3151  0.1629  0.2908
  391MOL0     H52757  -2.476   9.333   2.287  0.5171  1.0043 -0.6517
  391MOL0     H52758  -2.478   9.317   2.107  0.5806  2.2253  1.2333
  391MOL0     H52759  -2.631   9.162   2.317 -1.1711  0.2862 -0.3585
  391MOL0     H52760  -2.646   9.137   2.138  1.9482 -2.1915  0.8516
  391MOL0     H52761  -2.706   9.391   2.136  1.1251  1.2699  1.2946
  391MOL0     H52762  -2.843   9.281   2.191 -0.9269 -0.4781  0.6038
  391MOL0     H52763  -2.654   9.443   2.367 -0.7618  0.8233  1.0871
  391MOL0     H52764  -2.756   9.309   2.423 -0.7399 -2.0845 -3.3161
  391MOL0     H52765  -2.845   9.555   2.452 -1.2117  2.1592 -1.6235
  391MOL0     H52766  -2.958   9.447   2.349 -1.6357  0.9481 -0.5894
  391MOL0     H52767  -1.974   8.854   2.112  0.2634 -0.5063  2.2645
  391MOL0     H52768  -1.751   8.769   2.084  0.1726  0.6054 -1.5878
  391MOL0     H52769  -1.307   8.977   2.073  0.6013  0.2501 -1.0083
  391MOL0     H52770  -1.073   8.977   2.087 -1.6880 -0.8441 -0.6089
  391MOL0     H52771   0.664   8.517   2.569 -1.3936 -1.2314 -0.6397
  391MOL0     H52772   0.903   8.560   2.575  0.3904  2.1036 -1.6337
  391MOL0     H52773   1.301   8.459   2.431 -0.1096 -1.2226  0.7659
  391MOL0     H52774   1.546   8.509   2.432  1.7352  1.3916 -0.1751
  391MOL0     H52775   1.735   8.556   2.340 -1.4982  0.3475  1.8830
  391MOL0     H52776   1.760   8.680   2.217  0.4712 -0.0937  0.3400
  391MOL0     H52777   1.894   8.691   2.497 -1.5865 -1.4685 -0.2180
  391MOL0     H52778   1.924   8.794   2.368 -0.8372  0.4080 -0.0674
  391MOL0     H52779   1.975   8.480   2.377 -1.5042  0.5008  0.6506
  391MOL0     H52780   2.097   8.599   2.421  2.0590 -0.4105 -1.2255
  391MOL0     H52781   2.166   8.568   2.210 -1.8000 -1.9737 -0.4469
  391MOL0     H52782   2.048   8.695   2.174 -0.5272  0.0851 -0.2915
  391MOL0     H52783   1.826   8.386   2.009 -0.2083  0.8091 -2.1695
  391MOL0     H52784   1.483   8.915   2.338  0.0072  1.0081 -0.1556
  391MOL0     H52785   1.238   8.877   2.339  0.9363  0.0593  1.2817
  392MOL0     O52786   3.988   5.789   0.815  0.6071 -0.3195 -0.2697
  392MOL0     C52787   3.970   5.742   0.932 -0.4822 -0.0712 -0.3338
  392MOL0     O52788   4.062   5.682   1.011  0.6974 -0.4192 -0.4781
  392MOL0     C52789   4.194   5.684   0.953  0.3724  0.4432 -0.1646
  392MOL0     C52790   4.257   5.802   0.899 -1.1890  0.0490  0.2924
  392MOL0     C52791   4.391   5.796   0.840  0.5566  0.1148  0.8156
  392MOL0     C52792   4.461   5.672   0.848  0.9413 -0.3142 -0.8699
  392MOL0     O52793   4.582   5.655   0.797  0.1959  0.2270 -0.3393
  392MOL0     C52794   4.583   5.575   0.680 -0.1744 -0.4467 -0.0526
  392MOL0     C52795   4.733   5.580   0.618 -0.2414  0.2017  0.3910
  392MOL0     C52796   4.733   5.495   0.489 -0.4116  0.3139 -0.5295
  392MOL0     C52797   4.862   5.513   0.408 -0.0437  0.5090  0.4216
  392MOL0     C52798   4.849   5.429   0.280 -0.4178  0.5228 -0.2788
  392MOL0     C52799   4.830   5.283   0.311 -0.3983  0.4430  0.9150
  392MOL0     C52800   4.846   5.188   0.192  0.7751  0.4764  0.2790
  392MOL0     C52801   4.981   5.118   0.190 -0.2268  0.5363 -0.1908
  392MOL0     N52802   4.983   5.010   0.289 -0.1873  0.0653  0.3680
  392MOL0     C52803   4.902   4.896   0.285 -0.0797  0.2471 -0.0132
  392MOL0     C52804   4.928   4.829   0.402 -0.0938 -0.3375 -1.0140
  392MOL0     C52805   4.889   4.687   0.450 -0.0200 -0.5746  0.8065
  392MOL0     C52806   4.744   4.663   0.408  0.0215  0.1601 -0.1179
  392MOL0     C52807   4.674   4.552   0.483  0.1819  1.2963  0.3391
  392MOL0     C52808   4.529   4.520   0.446 -0.8786  0.2449 -0.5918
  392MOL0     O52809   4.493   4.410   0.534  0.2670 -0.0576  0.7954
  392MOL0     C52810   4.363   4.349   0.512 -0.6667 -1.0211  0.0962
  392MOL0     C52811   4.348   4.220   0.554 -0.3752  0.4468 -0.0272
  392MOL0     C52812   4.229   4.143   0.541  0.5711 -0.4241  1.0496
  392MOL0     C52813   4.229   3.987   0.551 -0.1794  0.1540  0.6770
  392MOL0     C52814   4.120   4.212   0.483 -0.3240  0.5491 -1.5438
  392MOL0     C52815   3.994   4.143   0.458  0.7163 -1.1261  0.3923
  392MOL0     O52816   3.929   4.077   0.558 -0.3521  0.2250  0.4892
  392MOL0     C52817   3.815   4.003   0.534  0.2111  0.5044  0.4866
  392MOL0     C52818   3.711   4.030   0.621  0.1112 -0.3694  0.0640
  392MOL0     C52819   3.584   3.967   0.593 -0.5474  0.3522  0.6726
  392MOL0     C52820   3.573   3.864   0.494  0.1435  0.2205 -0.1661
  392MOL0     O52821   3.452   3.801   0.454 -0.6936 -0.0306  0.7941
  392MOL0     C52822   3.332   3.850   0.517  0.3780 -0.1388  0.1278
  392MOL0     C52823   3.297   3.801   0.661  0.3658 -0.1580  0.2067
  392MOL0     C52824   3.159   3.842   0.717  0.1855  0.5464 -0.1339
  392MOL0     C52825   3.147   3.791   0.864 -0.0691  0.0035  0.4332
  392MOL0     C52826   3.018   3.837   0.929  0.1981  0.1016 -0.4753
  392MOL0     C52827   2.892   3.797   0.859  0.1503 -0.1201  0.3060
  392MOL0     C52828   2.784   3.877   0.916  0.3855 -0.1988 -0.7176
  392MOL0     C52829   2.644   3.825   0.886 -0.5634  0.0012  0.0457
  392MOL0    Cl52830   2.543   3.868   1.030 -0.2578  0.1643 -0.5831
  392MOL0     C52831   3.692   3.828   0.422  0.1233 -0.9795 -0.4883
  392MOL0     C52832   3.807   3.901   0.435 -0.7629  0.5022 -0.3246
  392MOL0     O52833   3.945   4.159   0.344  0.4432  0.2228  0.0004
  392MOL0     C52834   4.130   4.355   0.449 -0.5995  0.4848  0.0290
  392MOL0     C52835   4.250   4.425   0.458 -0.2953  0.7669  0.0366
  392MOL0     N52836   5.028   4.900   0.474  0.1366  0.1195 -0.9526
  392MOL0     N52837   5.049   5.003   0.407 -0.5861 -0.1686  0.0216
  392MOL0     C52838   4.409   5.566   0.927  0.1704  0.5022 -0.5787
  392MOL0     C52839   4.273   5.572   0.975  0.2778  0.6862  0.5191
  392MOL0     C52840   3.829   5.749   0.974  0.0465 -0.1327  0.7082
  392MOL0     C52841   3.732   5.815   0.894 -0.0095 -0.7876 -0.7300
  392MOL0     C52842   3.597   5.809   0.938  0.7219 -0.4716 -0.8602
  392MOL0     C52843   3.553   5.738   1.058  0.8465  0.3340 -0.1940
  392MOL0     O52844   3.418   5.750   1.097  0.5439 -0.3171  0.0591
  392MOL0     C52845   3.368   5.642   1.171 -0.6480  0.3939 -0.1850
  392MOL0     C52846   3.216   5.647   1.181 -0.0801  0.4482  0.3216
  392MOL0     C52847   3.150   5.662   1.038  0.0361 -1.1460  0.4094
  392MOL0     C52848   3.008   5.612   1.023  0.5716  0.2226  0.8176
  392MOL0     C52849   2.901   5.664   1.124  0.0406  0.0987  0.2505
  392MOL0     C52850   2.841   5.689   1.224 -0.1182  0.4583 -0.9932
  392MOL0     C52851   3.652   5.675   1.136  0.7125  0.4439 -0.0871
  392MOL0     C52852   3.782   5.678   1.093 -0.5775 -0.9522  0.2841
  392MOL0     H52853   4.216   5.901   0.914  3.4071  1.8274  3.1936
  392MOL0     H52854   4.425   5.881   0.782  1.5986 -0.6275  0.3103
  392MOL0     H52855   4.556   5.470   0.698 -3.4732  0.3762  0.4118
  392MOL0     H52856   4.508   5.619   0.614 -0.6578 -0.2659  0.6119
  392MOL0     H52857   4.765   5.680   0.585  1.6794 -0.7938 -0.9667
  392MOL0     H52858   4.800   5.533   0.691 -1.6060  0.1201  1.6360
  392MOL0     H52859   4.733   5.397   0.538 -0.4694  0.2324 -0.6961
  392MOL0     H52860   4.653   5.516   0.418  1.7546  1.2093 -2.8497
  392MOL0     H52861   4.879   5.618   0.383  0.2946  0.0168 -1.5593
  392MOL0     H52862   4.953   5.476   0.457 -0.2884 -0.7595 -0.0645
  392MOL0     H52863   4.758   5.460   0.227 -0.1805  2.0349  0.1558
  392MOL0     H52864   4.936   5.449   0.216  2.0547  2.1486  3.2862
  392MOL0     H52865   4.910   5.254   0.381 -1.2998 -2.2326  0.9547
  392MOL0     H52866   4.733   5.270   0.361 -0.5880  0.6440  0.5989
  392MOL0     H52867   4.754   5.130   0.181  0.3221  1.5475 -2.1858
  392MOL0     H52868   4.844   5.246   0.099 -0.9345 -0.2808 -0.2058
  392MOL0     H52869   5.059   5.193   0.202 -1.4069  1.8427 -0.4573
  392MOL0     H52870   4.992   5.076   0.090  0.6894  3.3006 -1.3268
  392MOL0     H52871   4.839   4.854   0.207  1.1377 -0.4027 -0.6666
  392MOL0     H52872   4.955   4.613   0.403  1.2930  2.4913 -2.7433
  392MOL0     H52873   4.902   4.687   0.558  0.2495  1.8652  0.8413
  392MOL0     H52874   4.741   4.666   0.299  1.9247  2.1879 -0.1972
  392MOL0     H52875   4.677   4.747   0.426 -0.9486 -0.7144  0.4529
  392MOL0     H52876   4.673   4.568   0.591 -0.2497  0.4518  0.4691
  392MOL0     H52877   4.731   4.462   0.458 -3.0320 -0.2877 -2.1982
  392MOL0     H52878   4.527   4.485   0.342  0.1154  0.9343 -0.8559
  392MOL0     H52879   4.470   4.609   0.468  1.9870  2.2271 -0.2471
  392MOL0     H52880   4.446   4.182   0.583  0.9888  3.8204  0.2345
  392MOL0     H52881   4.195   3.961   0.651  1.2591 -2.3832  0.5969
  392MOL0     H52882   4.160   3.931   0.487 -2.4598  1.5092  1.8184
  392MOL0     H52883   4.326   3.943   0.524 -0.9595 -1.9415  1.1457
  392MOL0     H52884   3.732   4.089   0.710 -2.4105  2.1796 -0.8833
  392MOL0     H52885   3.504   4.008   0.654 -2.4708  0.1245 -1.5592
  392MOL0     H52886   3.336   3.959   0.522  0.0550 -0.1416  0.5120
  392MOL0     H52887   3.247   3.836   0.449 -0.3414  1.4065  0.6702
  392MOL0     H52888   3.286   3.693   0.648  1.2375 -0.3668  1.1143
  392MOL0     H52889   3.383   3.814   0.727  1.8481  1.9408 -1.9925
  392MOL0     H52890   3.090   3.777   0.662 -0.9836 -0.1239  2.0071
  392MOL0     H52891   3.147   3.950   0.713  0.7779  0.6969  1.4707
  392MOL0     H52892   3.147   3.682   0.853  0.1953  0.0705 -0.3685
  392MOL0     H52893   3.236   3.827   0.917 -0.6047  2.0555  0.0128
  392MOL0     H52894   3.022   3.945   0.946 -0.2536 -0.1874  1.7918
  392MOL0     H52895   3.003   3.803   1.032 -0.1404  1.8971  0.1102
  392MOL0     H52896   2.897   3.819   0.752 -1.2358  0.8954  0.4236
  392MOL0     H52897   2.877   3.690   0.875 -0.2714  0.2117  2.5805
  392MOL0     H52898   2.784   3.981   0.881 -2.3112  1.6614  3.8462
  392MOL0     H52899   2.800   3.884   1.024  1.3545  1.2794 -0.9199
  392MOL0     H52900   2.643   3.716   0.876  4.4555 -0.2782  0.1174
  392MOL0     H52901   2.596   3.881   0.805 -0.7629 -2.5728 -1.7319
  392MOL0     H52902   3.686   3.748   0.350 -1.4948 -0.6958 -0.6999
  392MOL0     H52903   3.885   3.879   0.363 -0.4896  1.6307 -0.3947
  392MOL0     H52904   4.043   4.406   0.408 -0.2813 -0.6216 -2.1991
  392MOL0     H52905   4.253   4.529   0.429 -1.3306  0.8952  0.3642
  392MOL0     H52906   4.469   5.478   0.947  2.5912  1.3254 -3.5548
  392MOL0     H52907   4.231   5.491   1.034 -0.1935 -0.3279 -1.1581
  392MOL0     H52908   3.759   5.880   0.812  1.2653 -0.7937 -0.3406
  392MOL0     H52909   3.523   5.864   0.880 -0.2010  0.4531  1.0951
  392MOL0     H52910   3.401   5.547   1.128 -0.6515  0.0364  0.5854
  392MOL0     H52911   3.411   5.643   1.272 -0.5306  2.9772 -0.1976
  392MOL0     H52912   3.176   5.722   1.249  1.4239 -0.1525  1.9399
  392MOL0     H52913   3.189   5.556   1.236 -2.2798  2.2962  2.5475
  392MOL0     H52914   3.204   5.625   0.950  0.6920 -2.6748  1.4076
  392MOL0     H52915   3.147   5.769   1.013 -1.2135 -1.0003  1.0880
  392MOL0     H52916   3.016   5.504   1.036 -1.1262 -0.3785 -2.2135
  392MOL0     H52917   2.974   5.607   0.919 -1.1559 -3.8952  1.3731
  392MOL0     H52918   2.786   5.707   1.314  1.3850  0.1372  0.0328
  392MOL0     H52919   3.631   5.637   1.236  0.4912  1.2845  0.1885
  392MOL0     H52920   3.863   5.631   1.148  0.3122 -2.5456 -2.2088
  393MOL0     O52921   9.996   9.454   0.279 -0.8286  0.2932 -0.0512
  393MOL0     C52922  10.087   9.463   0.365  0.2103 -0.4626 -0.9291
  393MOL0     O52923  10.078   9.540   0.472 -0.6840  0.2993 -0.3260
  393MOL0     C52924   9.965   9.604   0.500  0.7221  0.5988 -0.1281
  393MOL0     C52925   9.948   9.737   0.462  0.2017  0.0730  0.1340
  393MOL0     C52926   9.842   9.821   0.503 -0.0086  0.0105 -0.0637
  393MOL0     C52927   9.745   9.770   0.589  0.4531 -0.1715  0.5491
  393MOL0     O52928   9.650   9.854   0.638 -0.0761 -0.0120 -0.0371
  393MOL0     C52929   9.535   9.810   0.713  0.0818  1.0679 -0.3888
  393MOL0     C52930   9.426   9.920   0.729  0.4646 -0.5777  0.2807
  393MOL0     C52931   9.394   9.996   0.600  0.0988  0.2815  0.0881
  393MOL0     C52932   9.292  10.105   0.629  0.0520 -0.4002  1.3341
  393MOL0     C52933   9.147  10.051   0.647 -0.5715 -0.4790 -0.1449
  393MOL0     C52934   9.046  10.164   0.676 -0.3744  1.1957  0.1587
  393MOL0     C52935   8.895  10.119   0.653 -0.2088 -0.2040 -0.0912
  393MOL0     C52936   8.800  10.233   0.695  0.1163 -0.4601  0.8601
  393MOL0     N52937   8.651  10.194   0.662 -0.7591 -0.0286 -1.3519
  393MOL0     C52938   8.606  10.131   0.551 -0.7528  0.7398  0.2662
  393MOL0     C52939   8.474  10.143   0.555 -0.3385 -0.4579  0.4760
  393MOL0     C52940   8.383  10.123   0.434 -0.5250 -0.8151  0.1179
  393MOL0     C52941   8.243  10.181   0.434 -0.1619  0.1098  0.2471
  393MOL0     C52942   8.162  10.169   0.302  0.0269 -0.3748 -0.3588
  393MOL0     C52943   8.016  10.233   0.314 -1.0661  0.6496  0.0137
  393MOL0     O52944   7.947  10.173   0.431  0.5086  0.4781 -0.1825
  393MOL0     C52945   7.865  10.250   0.508  0.3777  0.0824 -0.4811
  393MOL0     C52946   7.822  10.196   0.627 -0.0672 -0.1899 -0.1494
  393MOL0     C52947   7.725  10.264   0.700  0.9407  1.0192 -0.1443
  393MOL0     C52948   7.696  10.196   0.829  0.2685  0.7169  0.0296
  393MOL0     C52949   7.681  10.393   0.664 -0.1557 -0.3079  0.7983
  393MOL0     C52950   7.604  10.476   0.759  0.2561  0.2253  0.5063
  393MOL0     O52951   7.511  10.554   0.705 -0.1506  0.6430  0.1004
  393MOL0     C52952   7.437  10.647   0.772  0.0057 -0.5009 -0.0040
  393MOL0     C52953   7.327  10.693   0.706 -1.0269 -0.1355 -0.2120
  393MOL0     C52954   7.237  10.782   0.762 -0.3287  0.1438  0.5103
  393MOL0     C52955   7.258  10.828   0.894  0.2013 -0.0531 -0.3289
  393MOL0     O52956   7.165  10.914   0.942 -0.0349 -0.4979 -0.5546
  393MOL0     C52957   7.110  10.889   1.078  0.4287 -0.5107  0.5037
  393MOL0     C52958   7.017  11.000   1.110  0.1274 -0.7450  0.2553
  393MOL0     C52959   6.952  10.976   1.245  0.2330 -0.4981  0.0977
  393MOL0     C52960   6.859  11.096   1.283 -0.0889  0.3560  0.3626
  393MOL0     C52961   6.767  11.058   1.403 -0.0199 -0.2078 -1.0898
  393MOL0     C52962   6.648  11.157   1.423 -0.8051 -0.7299 -0.0448
  393MOL0     C52963   6.544  11.115   1.533  0.2519  0.7453  0.1198
  393MOL0     C52964   6.550  11.186   1.673  0.1290  0.1363  0.4566
  393MOL0    Cl52965   6.692  11.110   1.751 -0.1937 -0.0631  0.2629
  393MOL0     C52966   7.374  10.789   0.968  0.1185 -0.0253  0.8206
  393MOL0     C52967   7.465  10.707   0.895 -0.3409  0.6751 -0.2147
  393MOL0     O52968   7.629  10.464   0.875  0.2010  0.1102 -0.6649
  393MOL0     C52969   7.727  10.450   0.545 -0.4545  0.6599  0.3375
  393MOL0     C52970   7.823  10.383   0.471 -0.7137 -0.9888  0.4133
  393MOL0     N52971   8.441  10.209   0.670  0.3680  0.2849 -0.2737
  393MOL0     N52972   8.551  10.245   0.729  0.4598 -0.2349 -0.2915
  393MOL0     C52973   9.763   9.641   0.638  0.6183 -0.2527  0.2732
  393MOL0     C52974   9.865   9.557   0.580 -0.2667  0.1992  0.3414
  393MOL0     C52975  10.218   9.400   0.345 -0.0919  0.3792  0.4861
  393MOL0     C52976  10.329   9.434   0.429 -0.5821  0.6781  0.3797
  393MOL0     C52977  10.465   9.386   0.397  1.1570 -0.1657 -0.5715
  393MOL0     C52978  10.472   9.302   0.287  0.0021  0.3934 -0.5082
  393MOL0     O52979  10.603   9.275   0.245 -0.3825  0.3138 -0.2527
  393MOL0     C52980  10.633   9.150   0.182  0.2549 -0.8592  0.5520
  393MOL0     C52981  10.778   9.115   0.210 -0.5263 -0.3898 -0.6410
  393MOL0     C52982  10.871   9.233   0.172  0.2315  0.6117  0.3054
  393MOL0     C52983  10.912   9.336   0.273 -0.0530  0.2755  0.1337
  393MOL0     C52984  10.978   9.265   0.382  0.1319 -0.5588  0.2169
  393MOL0     C52985  11.033   9.203   0.468 -0.4406  0.6618  0.3233
  393MOL0     C52986  10.359   9.262   0.206 -0.4124 -0.0822  0.1491
  393MOL0     C52987  10.238   9.320   0.232  0.0050  0.7257  0.2602
  393MOL0     H52988  10.030   9.788   0.412 -0.4898  1.5463  0.4384
  393MOL0     H52989   9.833   9.924   0.470 -2.5007 -0.3723 -0.8190
  393MOL0     H52990   9.490   9.728   0.656 -3.0185  1.1752  1.6464
  393MOL0     H52991   9.568   9.768   0.808  0.0993 -1.3115 -1.3914
  393MOL0     H52992   9.329   9.897   0.774 -1.2683  1.6879 -1.9443
  393MOL0     H52993   9.476   9.988   0.799 -1.6693  1.3395  0.0774
  393MOL0     H52994   9.476  10.053   0.556  0.8883 -1.1429 -0.3442
  393MOL0     H52995   9.362   9.927   0.521  1.7729 -1.9028  1.2114
  393MOL0     H52996   9.325  10.168   0.712  1.7630 -0.4629  0.7475
  393MOL0     H52997   9.291  10.170   0.540  2.0303 -0.9115  0.8958
  393MOL0     H52998   9.119   9.994   0.559  1.8150 -2.6297  0.3717
  393MOL0     H52999   9.148   9.980   0.731 -0.8232  0.6592  0.8586
  393MOL0     H53000   9.051  10.197   0.780 -1.0786  1.3648  0.1433
  393MOL0     H53001   9.068  10.249   0.610  0.3067  2.5355  2.0465
  393MOL0     H53002   8.890  10.086   0.549  0.1382  1.5016 -0.6797
  393MOL0     H53003   8.869  10.040   0.725  1.8549 -0.8231  0.0379
  393MOL0     H53004   8.824  10.323   0.638  0.2117 -0.2247  1.2748
  393MOL0     H53005   8.812  10.260   0.800  0.0589  1.2243  0.4495
  393MOL0     H53006   8.654  10.074   0.473 -2.4157 -3.5415  2.0590
  393MOL0     H53007   8.435  10.183   0.358 -2.2905  1.6173  0.7159
  393MOL0     H53008   8.370  10.018   0.404 -3.3050 -1.1118  2.0016
  393MOL0     H53009   8.256  10.288   0.454 -0.5288  0.4024 -0.9878
  393MOL0     H53010   8.182  10.148   0.519 -2.7897  0.5177 -1.3794
  393MOL0     H53011   8.146  10.062   0.285 -2.7877 -0.7366  3.1904
  393MOL0     H53012   8.228  10.212   0.226  1.0704 -0.5104  0.4541
  393MOL0     H53013   7.965  10.213   0.219  1.2256  1.0647 -1.3848
  393MOL0     H53014   8.026  10.341   0.324 -0.3994  0.4086  2.5691
  393MOL0     H53015   7.858  10.102   0.668 -1.9063 -0.2200  1.5509
  393MOL0     H53016   7.596  10.219   0.869 -0.0943 -3.9594  2.5388
  393MOL0     H53017   7.696  10.087   0.830 -0.8531  0.6989  0.2578
  393MOL0     H53018   7.763  10.232   0.908  1.5362 -3.3495  1.0269
  393MOL0     H53019   7.306  10.662   0.605 -0.7094  1.6429 -0.8548
  393MOL0     H53020   7.147  10.804   0.704  0.7133  0.2251 -1.1362
  393MOL0     H53021   7.053  10.797   1.065  1.4163 -0.8281 -2.4106
  393MOL0     H53022   7.191  10.867   1.147  2.9336  0.3229 -2.0058
  393MOL0     H53023   7.058  11.101   1.105 -0.6732 -0.4096  0.2016
  393MOL0     H53024   6.935  10.986   1.038 -0.9540  1.1229  1.0601
  393MOL0     H53025   7.017  10.961   1.332 -0.7854 -0.6347  0.8536
  393MOL0     H53026   6.889  10.888   1.229 -1.1757  1.1032 -4.8256
  393MOL0     H53027   6.913  11.186   1.311  1.5189 -0.9413  1.6236
  393MOL0     H53028   6.796  11.114   1.195  2.0540 -3.0566 -2.1197
  393MOL0     H53029   6.825  11.051   1.496 -0.6447 -0.9051 -0.7409
  393MOL0     H53030   6.720  10.961   1.383  1.1001 -0.9104 -0.3693
  393MOL0     H53031   6.683  11.258   1.446 -1.8836 -0.3408 -0.0539
  393MOL0     H53032   6.599  11.175   1.326 -0.5501  0.0921 -0.0236
  393MOL0     H53033   6.543  11.007   1.547 -0.8546  0.9508  1.9319
  393MOL0     H53034   6.442  11.136   1.500 -1.0855 -4.2112  0.3425
  393MOL0     H53035   6.463  11.172   1.738  1.3072 -3.8939  1.4537
  393MOL0     H53036   6.583  11.289   1.658  1.1723 -0.1836  0.4741
  393MOL0     H53037   7.404  10.827   1.066  0.2927  3.3115 -0.4235
  393MOL0     H53038   7.550  10.675   0.954 -1.1416 -0.3496  0.4121
  393MOL0     H53039   7.703  10.551   0.512 -0.5062  0.5100 -0.0870
  393MOL0     H53040   7.849  10.421   0.373  1.7123 -1.5028  0.7899
  393MOL0     H53041   9.701   9.612   0.723  1.3605 -0.2695  0.8217
  393MOL0     H53042   9.865   9.455   0.618 -0.0938 -0.0042 -0.1851
  393MOL0     H53043  10.330   9.495   0.519  3.5406  0.9452  0.3292
  393MOL0     H53044  10.556   9.420   0.444  1.3860  1.4616 -2.0721
  393MOL0     H53045  10.561   9.072   0.207 -2.0705  0.5332 -1.3417
  393MOL0     H53046  10.615   9.164   0.075 -3.7823 -0.1599  1.1693
  393MOL0     H53047  10.803   9.028   0.148 -0.7026 -1.0933  0.2638
  393MOL0     H53048  10.787   9.091   0.316 -0.6936  1.4044 -0.1863
  393MOL0     H53049  10.842   9.278   0.076  2.6143 -0.8890 -1.2346
  393MOL0     H53050  10.968   9.189   0.145 -0.0804  0.0824  0.0409
  393MOL0     H53051  10.823   9.392   0.301 -0.0717  0.4332 -0.2462
  393MOL0     H53052  10.980   9.406   0.224 -1.9501  1.4504 -0.9184
  393MOL0     H53053  11.089   9.145   0.538 -2.6339 -2.3292 -0.2089
  393MOL0     H53054  10.378   9.218   0.108  0.7181  1.8527 -0.5542
  393MOL0     H53055  10.153   9.289   0.173 -0.4271 -0.6721  1.5457
  394MOL0     O53056   8.674   1.458   0.168 -0.0795 -0.1318 -0.0683
  394MOL0     C53057   8.748   1.502   0.259  1.0630  0.7068 -0.3565
  394MOL0     O53058   8.700   1.550   0.379  0.2822 -0.3204 -0.0486
  394MOL0     C53059   8.561   1.534   0.395  0.3857  0.2148  0.0223
  394MOL0     C53060   8.477   1.641   0.366 -0.7974  0.1307 -0.1822
  394MOL0     C53061   8.356   1.646   0.412  0.9016 -0.5826  0.0701
  394MOL0     C53062   8.298   1.540   0.481  0.5695  0.9905 -0.0718
  394MOL0     O53063   8.164   1.560   0.517  0.4483  0.7016 -0.1710
  394MOL0     C53064   8.102   1.462   0.601 -0.6718  0.5111  0.0522
  394MOL0     C53065   7.973   1.512   0.651 -0.0362 -0.0731 -0.9292
  394MOL0     C53066   7.867   1.515   0.548 -0.0318  0.5638 -0.2947
  394MOL0     C53067   7.738   1.555   0.625 -0.3664 -0.8784 -0.0137
  394MOL0     C53068   7.611   1.559   0.539 -0.9549  0.9611 -0.5829
  394MOL0     C53069   7.489   1.621   0.602 -0.0204 -0.1984  0.7497
  394MOL0     C53070   7.392   1.520   0.663 -0.1648 -0.2016  0.4869
  394MOL0     C53071   7.287   1.600   0.745 -0.1506  0.0077 -0.3478
  394MOL0     N53072   7.212   1.684   0.647  0.0254  0.0311  0.2076
  394MOL0     C53073   7.127   1.631   0.559 -0.2626  0.4825 -0.2165
  394MOL0     C53074   7.070   1.731   0.489 -0.4087  0.2567  0.3912
  394MOL0     C53075   6.968   1.728   0.375 -0.6083  0.6336 -1.2051
  394MOL0     C53076   6.824   1.737   0.425 -0.0983  0.0211 -0.4211
  394MOL0     C53077   6.798   1.634   0.530 -0.4356 -0.6084  0.7300
  394MOL0     C53078   6.653   1.637   0.564  0.9235  0.2880  0.1821
  394MOL0     O53079   6.605   1.768   0.591  1.0448  0.0134 -0.1141
  394MOL0     C53080   6.478   1.779   0.628 -0.6102 -0.3896 -0.7057
  394MOL0     C53081   6.456   1.850   0.747 -0.0272 -0.3292  0.2529
  394MOL0     C53082   6.331   1.887   0.790  0.0013  0.2485  0.3355
  394MOL0     C53083   6.328   1.972   0.913  0.3471  0.0257 -0.4573
  394MOL0     C53084   6.211   1.848   0.724 -0.5375  1.1491  0.1881
  394MOL0     C53085   6.065   1.867   0.768  0.3942 -0.1303 -1.2876
  394MOL0     O53086   6.041   1.897   0.901 -0.9037  0.3681 -0.3089
  394MOL0     C53087   5.913   1.890   0.959 -0.6299  0.6329 -0.8248
  394MOL0     C53088   5.788   1.923   0.892 -0.6470  0.1571  0.1277
  394MOL0     C53089   5.666   1.905   0.959  0.4813  0.3221  0.4690
  394MOL0     C53090   5.666   1.855   1.091  0.2520  0.2137 -0.0523
  394MOL0     O53091   5.562   1.823   1.170  0.0625  0.1203  0.3772
  394MOL0     C53092   5.431   1.821   1.116 -0.0243  0.7360 -0.9536
  394MOL0     C53093   5.340   1.762   1.229  0.6876 -0.7871 -0.1062
  394MOL0     C53094   5.191   1.764   1.199  0.7653 -0.2211 -0.4602
  394MOL0     C53095   5.102   1.757   1.324 -0.1390 -0.1143  0.1107
  394MOL0     C53096   4.954   1.789   1.306 -0.2185  0.0820  0.2713
  394MOL0     C53097   4.887   1.680   1.221 -0.2858  0.3594 -0.2492
  394MOL0     C53098   4.738   1.706   1.190  0.0203  0.1210 -0.3745
  394MOL0     C53099   4.692   1.595   1.098 -0.4662  0.4621  0.0421
  394MOL0    Cl53100   4.746   1.644   0.936 -0.1057  0.1918  0.1107
  394MOL0     C53101   5.785   1.836   1.157 -0.3868 -0.2813  1.3512
  394MOL0     C53102   5.905   1.853   1.091  0.5033  0.6856 -0.0770
  394MOL0     O53103   5.979   1.857   0.682 -0.0655 -0.1618 -0.4280
  394MOL0     C53104   6.230   1.777   0.592 -0.4526  0.2836 -0.3336
  394MOL0     C53105   6.365   1.746   0.547  0.5834 -0.7471 -0.5366
  394MOL0     N53106   7.118   1.844   0.550  0.2122 -0.4286  0.9822
  394MOL0     N53107   7.197   1.821   0.644 -0.8649 -0.3161 -0.2956
  394MOL0     C53108   8.379   1.422   0.502  0.4167  0.0419  0.3079
  394MOL0     C53109   8.511   1.417   0.456 -0.4910 -0.5629 -0.5331
  394MOL0     C53110   8.887   1.480   0.224  0.4088  0.3630  0.2939
  394MOL0     C53111   8.987   1.537   0.298  0.7517 -0.6145  0.5362
  394MOL0     C53112   9.117   1.524   0.271  0.9596  0.1598 -0.3262
  394MOL0     C53113   9.162   1.454   0.169 -0.0035 -0.0733  0.8813
  394MOL0     O53114   9.294   1.428   0.145 -0.5780  0.0433  0.3304
  394MOL0     C53115   9.357   1.546   0.089  0.0455 -0.8311 -0.5120
  394MOL0     C53116   9.369   1.542  -0.056 -0.4929  0.1497  0.2155
  394MOL0     C53117   9.489   1.459  -0.103  0.1545  0.4326  0.1180
  394MOL0     C53118   9.520   1.329  -0.035 -0.6852  0.0172  0.3094
  394MOL0     C53119   9.619   1.245  -0.114  0.4823  0.8012  0.9005
  394MOL0     C53120   9.691   1.177  -0.182 -0.4512  1.5023 -0.2333
  394MOL0     C53121   9.067   1.391   0.087  0.6366  0.2739 -0.6914
  394MOL0     C53122   8.934   1.405   0.107 -0.3411  0.0211 -0.3989
  394MOL0     H53123   8.522   1.725   0.315  0.7063  1.0254  2.4281
  394MOL0     H53124   8.290   1.727   0.383  2.0512  0.2043 -0.4053
  394MOL0     H53125   8.069   1.372   0.549 -0.4695 -1.7742  3.5479
  394MOL0     H53126   8.169   1.438   0.684  0.7887  3.5454 -0.1050
  394MOL0     H53127   7.948   1.454   0.740  2.2107 -1.9097 -1.3767
  394MOL0     H53128   7.997   1.615   0.681 -0.5903 -0.4405  0.8869
  394MOL0     H53129   7.889   1.595   0.477  3.3831  0.0437 -0.0180
  394MOL0     H53130   7.844   1.420   0.498 -0.0881  0.3249  0.1800
  394MOL0     H53131   7.736   1.483   0.708 -1.3473 -0.7361  0.1032
  394MOL0     H53132   7.750   1.655   0.667  1.2113 -1.4665  0.9917
  394MOL0     H53133   7.627   1.598   0.438  0.2567 -1.1811 -1.2819
  394MOL0     H53134   7.581   1.460   0.505 -1.1143  1.1872 -1.1146
  394MOL0     H53135   7.520   1.696   0.675 -0.0504 -0.4042  0.9783
  394MOL0     H53136   7.439   1.663   0.514 -1.4224 -3.4080 -0.1394
  394MOL0     H53137   7.347   1.453   0.589  2.0829  0.7275 -1.8930
  394MOL0     H53138   7.443   1.463   0.741 -1.1525 -0.6948  0.7845
  394MOL0     H53139   7.333   1.660   0.824  0.1195  1.7368 -1.7613
  394MOL0     H53140   7.217   1.532   0.794  0.9914 -1.1670 -0.3041
  394MOL0     H53141   7.109   1.526   0.537  1.6247  0.4897 -2.1722
  394MOL0     H53142   6.989   1.812   0.308  0.2472  0.5251 -1.0880
  394MOL0     H53143   6.985   1.638   0.315 -0.9819  0.6077 -1.2709
  394MOL0     H53144   6.753   1.709   0.347 -2.0557  2.3344  0.3805
  394MOL0     H53145   6.802   1.839   0.459  3.5299 -0.0107  2.6447
  394MOL0     H53146   6.849   1.668   0.620 -4.1417  2.1339  2.0297
  394MOL0     H53147   6.832   1.535   0.498  0.5008 -0.7372  2.0456
  394MOL0     H53148   6.639   1.567   0.647  4.1476 -0.0052  0.6197
  394MOL0     H53149   6.588   1.596   0.486  1.1570  3.1943 -1.6919
  394MOL0     H53150   6.549   1.876   0.798  0.1020 -2.4420  1.2017
  394MOL0     H53151   6.285   2.066   0.878 -1.8882 -0.8083 -0.1429
  394MOL0     H53152   6.269   1.930   0.996  1.2434  1.4055  0.9231
  394MOL0     H53153   6.430   1.991   0.947  0.5354 -2.2498  0.4554
  394MOL0     H53154   5.785   1.952   0.788 -3.0820 -1.9701 -0.4787
  394MOL0     H53155   5.574   1.948   0.921  0.7903  0.4011 -0.2091
  394MOL0     H53156   5.401   1.922   1.087  1.3541  1.6996  0.7064
  394MOL0     H53157   5.437   1.761   1.025  0.3439 -0.6777 -0.0312
  394MOL0     H53158   5.372   1.664   1.266  0.9955 -0.4499  0.5408
  394MOL0     H53159   5.341   1.834   1.312 -1.9075 -0.0008 -0.6552
  394MOL0     H53160   5.164   1.683   1.130 -1.2280  2.7530 -3.4534
  394MOL0     H53161   5.162   1.858   1.151  0.1184  0.9496  2.0478
  394MOL0     H53162   5.115   1.656   1.366 -1.1833  0.0211  0.7844
  394MOL0     H53163   5.143   1.829   1.395  1.5348 -0.4823 -0.4535
  394MOL0     H53164   4.940   1.891   1.268 -1.0427 -1.1170 -2.9918
  394MOL0     H53165   4.906   1.797   1.404 -0.0302 -1.5586  0.5266
  394MOL0     H53166   4.948   1.656   1.132  0.3922 -0.4365  0.4129
  394MOL0     H53167   4.888   1.592   1.285 -2.1291  0.1130 -0.5042
  394MOL0     H53168   4.731   1.801   1.136  0.1977 -1.3695 -3.2036
  394MOL0     H53169   4.666   1.701   1.272 -1.3204  1.1472 -1.4354
  394MOL0     H53170   4.584   1.609   1.104 -0.1700  2.4959  1.4614
  394MOL0     H53171   4.734   1.498   1.125  0.0987  1.0194  1.2474
  394MOL0     H53172   5.780   1.803   1.261 -1.9548 -1.9379  0.8018
  394MOL0     H53173   5.999   1.833   1.141 -0.7113 -1.6073  1.4409
  394MOL0     H53174   6.146   1.754   0.528 -0.7960 -1.8916  0.8216
  394MOL0     H53175   6.388   1.697   0.453  0.3673 -0.0311 -0.9776
  394MOL0     H53176   8.331   1.339   0.553  0.4698 -1.3496 -1.7871
  394MOL0     H53177   8.565   1.325   0.474  0.7162  0.6586  2.9519
  394MOL0     H53178   8.961   1.601   0.382 -1.0733 -0.7150  0.0915
  394MOL0     H53179   9.190   1.568   0.339  0.6933  0.3328 -0.1495
  394MOL0     H53180   9.309   1.638   0.124  0.2154 -1.4207  1.3299
  394MOL0     H53181   9.455   1.544   0.136 -1.0748  0.6295  2.0836
  394MOL0     H53182   9.403   1.638  -0.096  3.6575 -0.6203  1.4078
  394MOL0     H53183   9.276   1.497  -0.092 -0.2478 -1.8309  1.8425
  394MOL0     H53184   9.576   1.525  -0.096 -0.0260  0.6134  0.7294
  394MOL0     H53185   9.479   1.434  -0.209  3.2505 -0.9245  0.0356
  394MOL0     H53186   9.427   1.271  -0.033  0.9055 -2.6831 -0.2480
  394MOL0     H53187   9.556   1.353   0.065  1.1507  0.6174 -0.4631
  394MOL0     H53188   9.741   1.109  -0.248 -1.3890 -2.9301  3.1260
  394MOL0     H53189   9.112   1.328   0.012  0.8259  2.1605 -2.2340
  394MOL0     H53190   8.866   1.351   0.041  0.5429 -1.7058  0.0252
  395MOL0     O53191   0.252  10.797   2.850 -0.4873  0.4435  0.3361
  395MOL0     C53192   0.308  10.724   2.769 -0.5836 -0.4690 -0.5434
  395MOL0     O53193   0.270  10.710   2.637  0.2614  0.3417  0.5217
  395MOL0     C53194   0.157  10.769   2.578  0.4662  0.2731 -0.1319
  395MOL0     C53195   0.162  10.832   2.454 -0.6636  0.2510 -0.1872
  395MOL0     C53196   0.050  10.870   2.389  0.5002 -0.1678 -0.6551
  395MOL0     C53197  -0.081  10.853   2.455 -0.5628 -0.3091 -0.1876
  395MOL0     O53198  -0.199  10.874   2.383  0.2578  0.0773  0.5654
  395MOL0     C53199  -0.202  10.890   2.237  0.8567  0.2887 -0.4270
  395MOL0     C53200  -0.340  10.879   2.177 -0.8570  0.2997 -0.4137
  395MOL0     C53201  -0.411  10.755   2.219  0.2237 -0.3942  0.0974
  395MOL0     C53202  -0.541  10.735   2.142  0.5087  0.0551  0.1125
  395MOL0     C53203  -0.645  10.831   2.187  0.5058 -1.3537 -0.4359
  395MOL0     C53204  -0.786  10.789   2.133  0.5592  0.1096  0.3778
  395MOL0     C53205  -0.903  10.869   2.185  0.2723 -0.0724  0.1140
  395MOL0     C53206  -0.921  10.843   2.334  0.8514  0.6237  1.0188
  395MOL0     N53207  -1.036  10.928   2.387 -0.3802 -0.5417 -0.0200
  395MOL0     C53208  -1.032  11.055   2.433 -0.3506 -0.6546  0.3417
  395MOL0     C53209  -1.166  11.091   2.446 -0.7631 -0.5015 -0.7431
  395MOL0     C53210  -1.212  11.217   2.508 -0.2024  0.3287  0.3826
  395MOL0     C53211  -1.358  11.213   2.561 -0.1600 -0.3953  0.8458
  395MOL0     C53212  -1.451  11.218   2.443  0.2325 -0.1735  0.2538
  395MOL0     C53213  -1.598  11.227   2.480 -0.2059 -0.3782 -0.2751
  395MOL0     O53214  -1.675  11.189   2.365  0.2385  0.1248  0.1559
  395MOL0     C53215  -1.810  11.207   2.374 -0.2642  0.2698 -0.1189
  395MOL0     C53216  -1.877  11.230   2.492 -0.2062  1.1447  0.3220
  395MOL0     C53217  -2.011  11.267   2.482  0.7399  0.4616 -0.1893
  395MOL0     C53218  -2.071  11.315   2.616 -0.2328 -0.1358 -1.4874
  395MOL0     C53219  -2.088  11.261   2.367  0.0629  0.0234  0.3958
  395MOL0     C53220  -2.230  11.282   2.346  0.9006 -0.2791 -0.2765
  395MOL0     O53221  -2.297  11.256   2.222 -0.7633  0.0722 -0.0909
  395MOL0     C53222  -2.427  11.277   2.211 -0.6279  0.4730  0.6915
  395MOL0     C53223  -2.527  11.201   2.268  0.3372 -0.9234 -0.8336
  395MOL0     C53224  -2.662  11.230   2.228 -0.4249  0.5614  0.4007
  395MOL0     C53225  -2.691  11.324   2.132  0.2039 -0.5847 -1.2610
  395MOL0     O53226  -2.824  11.341   2.103  0.1225 -0.1109 -0.1276
  395MOL0     C53227  -2.861  11.399   1.976  0.1355  0.5342  0.5291
  395MOL0     C53228  -2.976  11.309   1.908 -0.2216  0.3501 -0.7166
  395MOL0     C53229  -3.080  11.281   2.017  0.3986 -0.0478 -0.4386
  395MOL0     C53230  -3.206  11.239   1.944 -0.5057 -0.1145  0.0497
  395MOL0     C53231  -3.331  11.246   2.036 -0.3998  0.1297  0.1962
  395MOL0     C53232  -3.454  11.196   1.960 -0.0223 -0.5079  0.4970
  395MOL0     C53233  -3.477  11.042   1.950 -0.5966 -0.1746  0.9536
  395MOL0     C53234  -3.575  11.012   1.831  0.2691 -0.4664 -0.4187
  395MOL0    Cl53235  -3.741  11.071   1.866  0.5155  0.4563 -0.1832
  395MOL0     C53236  -2.588  11.390   2.069  0.5442  0.1678  0.1619
  395MOL0     C53237  -2.456  11.369   2.109 -0.1123  0.3763 -0.5442
  395MOL0     O53238  -2.284  11.346   2.437  0.5728 -0.7784  0.5733
  395MOL0     C53239  -2.020  11.222   2.250 -0.2593  0.2772  0.0654
  395MOL0     C53240  -1.885  11.186   2.261 -0.4779 -0.6173  0.1086
  395MOL0     N53241  -1.248  10.981   2.419 -0.6539  0.1468 -0.9029
  395MOL0     N53242  -1.166  10.889   2.383  0.3202 -0.2275  0.0135
  395MOL0     C53243  -0.086  10.795   2.578  0.1418  0.2284 -0.3409
  395MOL0     C53244   0.032  10.751   2.636  0.4375 -0.1180 -0.4034
  395MOL0     C53245   0.420  10.637   2.827  0.7835 -0.7430  0.7237
  395MOL0     C53246   0.504  10.576   2.739 -0.9992  0.0603  0.2031
  395MOL0     C53247   0.611  10.503   2.785  0.1625 -0.8418  0.4524
  395MOL0     C53248   0.646  10.501   2.919 -0.3235 -0.2472 -1.0870
  395MOL0     O53249   0.773  10.447   2.938  0.1207 -0.1146 -0.2165
  395MOL0     C53250   0.847  10.481   3.055 -0.3681  1.0678 -0.3679
  395MOL0     C53251   0.975  10.391   3.056  0.1075  0.6867 -0.2691
  395MOL0     C53252   1.082  10.443   2.956  0.1686 -0.1752 -0.1886
  395MOL0     C53253   1.182  10.333   2.935 -0.0554  0.5795 -0.2990
  395MOL0     C53254   1.202  10.310   2.792  0.1035 -0.2829 -0.0735
  395MOL0     C53255   1.217  10.282   2.672 -0.0453 -0.0215 -0.1933
  395MOL0     C53256   0.571  10.585   3.011 -0.1820 -0.2419 -0.3280
  395MOL0     C53257   0.456  10.644   2.959 -0.7433 -0.2209 -0.7793
  395MOL0     H53258   0.261  10.842   2.410 -0.5490 -2.3228 -0.7240
  395MOL0     H53259   0.056  10.929   2.298 -2.4741  1.3859  0.0119
  395MOL0     H53260  -0.165  10.990   2.211  0.0031  0.8606  0.4897
  395MOL0     H53261  -0.129  10.820   2.197  0.6721 -1.7065  2.5065
  395MOL0     H53262  -0.396  10.970   2.198 -1.7319  0.1751 -2.0998
  395MOL0     H53263  -0.326  10.880   2.069 -0.3402  3.5879 -0.4051
  395MOL0     H53264  -0.348  10.671   2.189  1.9352  1.0053 -0.4356
  395MOL0     H53265  -0.421  10.755   2.328  2.8905  0.0620  0.4216
  395MOL0     H53266  -0.530  10.749   2.034  0.3966 -0.9252 -0.0373
  395MOL0     H53267  -0.565  10.630   2.162  0.9567 -0.6981 -2.8307
  395MOL0     H53268  -0.644  10.836   2.296  1.3202 -1.8320 -0.4124
  395MOL0     H53269  -0.607  10.928   2.154  2.3765 -0.5142  3.6339
  395MOL0     H53270  -0.802  10.796   2.025 -0.9026 -2.2011  0.3771
  395MOL0     H53271  -0.798  10.683   2.158  1.5732  0.3853  2.2624
  395MOL0     H53272  -0.901  10.975   2.159 -1.4462 -0.0320  0.0033
  395MOL0     H53273  -0.983  10.825   2.125  0.8165 -1.5377  0.4138
  395MOL0     H53274  -0.827  10.861   2.387  1.2262 -1.6235  1.2151
  395MOL0     H53275  -0.941  10.736   2.343  0.5557  0.5584 -0.3278
  395MOL0     H53276  -0.950  11.114   2.472 -0.7548  1.5050 -1.8382
  395MOL0     H53277  -1.158  11.244   2.599 -0.9219  2.2902  0.2788
  395MOL0     H53278  -1.191  11.289   2.428 -1.7302  0.6094  0.1994
  395MOL0     H53279  -1.369  11.291   2.637 -0.9237 -0.8846  1.2507
  395MOL0     H53280  -1.381  11.119   2.613 -0.0225 -2.7219 -2.9226
  395MOL0     H53281  -1.443  11.124   2.388  0.3963 -2.0175  3.2792
  395MOL0     H53282  -1.428  11.301   2.374  2.0479 -0.7618  0.1094
  395MOL0     H53283  -1.614  11.331   2.512  1.7158  0.6799 -2.3757
  395MOL0     H53284  -1.616  11.161   2.564 -1.3143  0.3995  0.1214
  395MOL0     H53285  -1.830  11.229   2.590 -3.1598 -2.5896  1.9106
  395MOL0     H53286  -1.993  11.345   2.687  1.6025  1.2298 -3.8924
  395MOL0     H53287  -2.133  11.405   2.613 -0.3728 -0.0922  0.7185
  395MOL0     H53288  -2.124  11.237   2.672  2.4873 -0.3672  1.0128
  395MOL0     H53289  -2.497  11.134   2.348  3.4821 -0.4376 -1.4882
  395MOL0     H53290  -2.738  11.165   2.270 -2.6355  0.5506 -3.1572
  395MOL0     H53291  -2.909  11.497   1.989 -1.4297  0.1749 -1.8561
  395MOL0     H53292  -2.780  11.405   1.903 -0.1278 -0.5256  0.1359
  395MOL0     H53293  -3.016  11.380   1.834  0.4166  1.1061 -0.3566
  395MOL0     H53294  -2.938  11.217   1.863 -1.4672 -0.4427 -0.1771
  395MOL0     H53295  -3.099  11.377   2.065 -0.5606 -0.9553  1.0796
  395MOL0     H53296  -3.048  11.215   2.099  2.7849 -1.1967 -2.1679
  395MOL0     H53297  -3.213  11.298   1.853  2.0515 -2.6704 -1.9923
  395MOL0     H53298  -3.188  11.139   1.903  3.0564  0.5887 -0.4934
  395MOL0     H53299  -3.346  11.352   2.061 -1.1277  0.0567  0.0833
  395MOL0     H53300  -3.317  11.194   2.132  2.5355  0.5564  0.1037
  395MOL0     H53301  -3.543  11.235   2.010  0.5911  1.6208  0.0369
  395MOL0     H53302  -3.455  11.239   1.859 -0.3982 -1.3687  0.1179
  395MOL0     H53303  -3.512  10.991   2.041 -2.4419 -1.1841 -0.2515
  395MOL0     H53304  -3.382  10.994   1.922 -0.4284 -1.8295  3.9030
  395MOL0     H53305  -3.565  10.907   1.803 -1.3404 -0.4018 -1.3998
  395MOL0     H53306  -3.556  11.072   1.741 -1.9045  0.5511 -0.2730
  395MOL0     H53307  -2.600  11.471   1.998 -1.5077  0.6148  0.9510
  395MOL0     H53308  -2.382  11.425   2.053 -1.9502  1.2587 -2.2276
  395MOL0     H53309  -2.069  11.206   2.155 -1.4441 -0.1789  0.7328
  395MOL0     H53310  -1.843  11.145   2.170 -0.1575  1.6793 -0.8199
  395MOL0     H53311  -0.182  10.776   2.625  0.6741  1.3675  1.3131
  395MOL0     H53312   0.027  10.708   2.735 -0.6669  0.7322 -0.0679
  395MOL0     H53313   0.472  10.563   2.636 -0.8323  0.1019  0.1465
  395MOL0     H53314   0.670  10.448   2.713  1.2385  1.2030 -0.3070
  395MOL0     H53315   0.865  10.588   3.067  0.2054  0.8015  1.5389
  395MOL0     H53316   0.786  10.446   3.139 -0.2948  1.7421 -0.0290
  395MOL0     H53317   0.939  10.291   3.029  0.0294  0.5405  0.3705
  395MOL0     H53318   1.015  10.384   3.157 -0.5259 -0.0937 -0.0644
  395MOL0     H53319   1.130  10.532   2.997  2.3529 -1.3154 -0.1557
  395MOL0     H53320   1.029  10.465   2.863  0.0255  1.1138  0.1821
  395MOL0     H53321   1.151  10.242   2.986  0.3836  2.2431  3.2657
  395MOL0     H53322   1.274  10.361   2.988  0.4134  0.8933 -1.2456
  395MOL0     H53323   1.242  10.241   2.577  2.8095  0.8000  0.0970
  395MOL0     H53324   0.590  10.610   3.115 -1.4345 -0.9767  0.0881
  395MOL0     H53325   0.388  10.704   3.018 -0.3746 -1.1389  0.6294
  396MOL0     O53326   4.388   1.334   0.279  0.6100 -0.5522 -0.4807
  396MOL0     C53327   4.445   1.233   0.317  0.2660 -0.4121  0.3373
  396MOL0     O53328   4.381   1.125   0.370 -0.3201  0.0340  0.3773
  396MOL0     C53329   4.244   1.132   0.389 -0.0407 -0.2102 -0.1431
  396MOL0     C53330   4.180   1.241   0.453 -0.2217 -0.4037 -0.0286
  396MOL0     C53331   4.046   1.230   0.498  0.1524  0.1150 -0.4015
  396MOL0     C53332   3.973   1.112   0.474  0.0749 -0.2884  0.3577
  396MOL0     O53333   3.841   1.103   0.496 -0.2339 -0.0252  0.5518
  396MOL0     C53334   3.792   1.015   0.594 -0.3890 -0.3855  0.5113
  396MOL0     C53335   3.642   1.003   0.564 -0.0033  0.1317 -0.4491
  396MOL0     C53336   3.621   0.929   0.428 -0.1181  0.4256  0.5460
  396MOL0     C53337   3.482   0.880   0.410  0.0036 -0.5462  0.7619
  396MOL0     C53338   3.442   0.852   0.264  0.0747 -0.1682  0.2081
  396MOL0     C53339   3.298   0.791   0.265  0.0417 -0.5285  0.1477
  396MOL0     C53340   3.246   0.776   0.127  0.0040  0.3089  0.1796
  396MOL0     C53341   3.105   0.732   0.119 -0.7641 -0.1203  0.2214
  396MOL0     N53342   3.057   0.724  -0.018  0.3715 -0.4650  0.2627
  396MOL0     C53343   3.050   0.828  -0.105  0.1441 -0.5803 -0.3869
  396MOL0     C53344   3.020   0.775  -0.224 -0.3896  0.5873 -0.8550
  396MOL0     C53345   2.988   0.847  -0.350 -0.3281  0.6524 -0.0662
  396MOL0     C53346   2.833   0.838  -0.375 -0.1665  0.1327  0.2115
  396MOL0     C53347   2.740   0.911  -0.268  0.1051 -0.3171  0.6221
  396MOL0     C53348   2.596   0.892  -0.311  0.0409 -0.0505 -0.5737
  396MOL0     O53349   2.562   0.979  -0.418 -0.0881 -0.4658 -0.2874
  396MOL0     C53350   2.436   1.006  -0.442  0.9868 -0.0920  0.1916
  396MOL0     C53351   2.408   1.077  -0.560 -0.1799  0.2991 -0.1095
  396MOL0     C53352   2.280   1.096  -0.615 -1.1540  0.7315 -0.0438
  396MOL0     C53353   2.272   1.161  -0.751 -0.1565  0.8834 -0.4276
  396MOL0     C53354   2.167   1.050  -0.536  0.1540  0.7050 -0.1256
  396MOL0     C53355   2.023   1.049  -0.590  0.8374 -0.2106  0.0075
  396MOL0     O53356   1.926   1.018  -0.501  0.8090  0.8092 -0.0088
  396MOL0     C53357   1.803   0.973  -0.541  0.1858  0.2143 -0.9488
  396MOL0     C53358   1.727   0.920  -0.436  0.3176  0.1357  0.2393
  396MOL0     C53359   1.602   0.864  -0.453  0.1445 -0.9080 -0.0462
  396MOL0     C53360   1.538   0.865  -0.575  0.0727  0.0271 -0.7216
  396MOL0     O53361   1.412   0.803  -0.607  0.4004 -0.5994  0.0152
  396MOL0     C53362   1.347   0.704  -0.523 -0.8096 -0.2101  0.4201
  396MOL0     C53363   1.202   0.707  -0.573  0.7023 -0.0658 -0.3937
  396MOL0     C53364   1.128   0.845  -0.553  0.7491  0.1887  0.0596
  396MOL0     C53365   0.967   0.830  -0.553 -0.0020 -0.4354 -0.5536
  396MOL0     C53366   0.890   0.965  -0.551 -0.3699 -0.1515 -0.2956
  396MOL0     C53367   0.739   0.959  -0.549  0.5738  0.3503  0.3700
  396MOL0     C53368   0.680   0.916  -0.683 -0.1666  0.6678 -0.1856
  396MOL0     C53369   0.544   0.962  -0.728  0.9076 -0.2409  0.8726
  396MOL0    Cl53370   0.409   0.934  -0.599 -0.1904  0.0858  0.3356
  396MOL0     C53371   1.616   0.910  -0.679 -0.1869 -0.0629  0.5917
  396MOL0     C53372   1.746   0.954  -0.666  0.8816  0.2031 -0.3188
  396MOL0     O53373   2.001   1.094  -0.702 -0.1775  0.4348 -0.4818
  396MOL0     C53374   2.190   0.992  -0.412  0.0407  0.3214  0.4704
  396MOL0     C53375   2.318   0.958  -0.371  0.0322  0.1148  0.1400
  396MOL0     N53376   3.023   0.636  -0.212  0.6456  0.4193  0.4524
  396MOL0     N53377   3.050   0.610  -0.091 -0.0906  0.4252  0.7328
  396MOL0     C53378   4.046   1.003   0.416  0.0306  0.8142 -0.6346
  396MOL0     C53379   4.177   1.019   0.366  0.4301  0.8357 -0.6440
  396MOL0     C53380   4.593   1.226   0.304 -0.9716  0.1915 -0.3761
  396MOL0     C53381   4.663   1.129   0.382 -0.0620  0.3190 -0.1960
  396MOL0     C53382   4.801   1.121   0.375 -0.1216 -0.3397  0.0978
  396MOL0     C53383   4.873   1.212   0.293 -0.6607  0.7829 -0.2519
  396MOL0     O53384   5.008   1.200   0.287  0.1686  0.9058  0.1641
  396MOL0     C53385   5.076   1.258   0.175 -1.0423  1.2080  0.5026
  396MOL0     C53386   5.222   1.222   0.194 -0.6503 -0.0063 -0.2264
  396MOL0     C53387   5.235   1.076   0.159 -0.1303 -0.0925 -0.9143
  396MOL0     C53388   5.381   1.020   0.184 -0.9287  0.4615 -0.3034
  396MOL0     C53389   5.487   1.099   0.114 -0.1455 -0.2786 -0.2666
  396MOL0     C53390   5.570   1.157   0.053  0.3527 -0.5373  0.4347
  396MOL0     C53391   4.805   1.305   0.214 -0.1866 -0.1612 -0.3753
  396MOL0     C53392   4.667   1.310   0.226  0.1462  0.1341  0.6692
  396MOL0     H53393   4.237   1.330   0.475 -0.6733  0.3228 -1.6698
  396MOL0     H53394   4.007   1.317   0.550  0.3678  0.6498 -1.1175
  396MOL0     H53395   3.835   0.915   0.584 -0.4476 -0.1822 -3.3523
  396MOL0     H53396   3.800   1.055   0.696  0.8594  2.8336 -0.7187
  396MOL0     H53397   3.599   0.945   0.646  2.2825  1.7323  2.0465
  396MOL0     H53398   3.589   1.099   0.564  1.0226  0.7233  0.3153
  396MOL0     H53399   3.650   0.988   0.341  3.2785 -0.3689  1.0300
  396MOL0     H53400   3.682   0.839   0.439 -0.0466  0.2048 -1.3326
  396MOL0     H53401   3.478   0.789   0.471  1.4930 -1.5434 -0.5400
  396MOL0     H53402   3.412   0.954   0.450  1.2109  0.1766  1.5936
  396MOL0     H53403   3.449   0.952   0.218 -0.5699 -0.5191 -0.6765
  396MOL0     H53404   3.507   0.780   0.213  2.2944  2.0962 -0.3811
  396MOL0     H53405   3.299   0.693   0.314  0.2182 -1.7152 -2.1045
  396MOL0     H53406   3.224   0.842   0.328 -3.0179 -0.3933 -3.2589
  396MOL0     H53407   3.250   0.874   0.080  0.1836 -0.1880 -0.8799
  396MOL0     H53408   3.302   0.704   0.066 -2.4965 -0.5999 -1.1575
  396MOL0     H53409   3.033   0.789   0.178  0.8180  1.4859  0.6770
  396MOL0     H53410   3.095   0.633   0.165 -0.0399  1.2795  3.7035
  396MOL0     H53411   3.063   0.933  -0.082 -0.9280 -0.4572 -0.2791
  396MOL0     H53412   3.023   0.950  -0.352  0.5048  0.3821  0.2638
  396MOL0     H53413   3.033   0.790  -0.432 -0.9318  0.5328 -0.3202
  396MOL0     H53414   2.815   0.731  -0.368 -0.0620  0.1743  1.3812
  396MOL0     H53415   2.803   0.867  -0.476 -0.6913 -0.6617  0.1324
  396MOL0     H53416   2.756   1.018  -0.256 -2.7968  0.1260  1.2690
  396MOL0     H53417   2.750   0.856  -0.173  0.8531 -0.0011  0.7344
  396MOL0     H53418   2.548   0.926  -0.219  2.9672  2.2316  0.2447
  396MOL0     H53419   2.588   0.789  -0.347 -0.6420  0.3569 -1.6575
  396MOL0     H53420   2.485   1.121  -0.622 -0.7225  0.3852 -0.7378
  396MOL0     H53421   2.223   1.258  -0.741 -2.7586 -0.4037  0.3174
  396MOL0     H53422   2.365   1.161  -0.809  0.7144  0.4894  0.9236
  396MOL0     H53423   2.206   1.092  -0.805  1.2606 -0.2044 -0.8268
  396MOL0     H53424   1.766   0.921  -0.335  1.9224  0.0224 -0.3442
  396MOL0     H53425   1.541   0.827  -0.371 -2.8919  1.1793 -1.1896
  396MOL0     H53426   1.406   0.613  -0.537  0.1640  0.4255  0.2477
  396MOL0     H53427   1.357   0.722  -0.416  0.6893  0.4462  0.2004
  396MOL0     H53428   1.189   0.678  -0.678  0.3594 -1.2504 -0.0362
  396MOL0     H53429   1.145   0.630  -0.522 -2.6766  1.8483 -0.9573
  396MOL0     H53430   1.162   0.910  -0.634  1.5881  0.1767  0.3941
  396MOL0     H53431   1.163   0.888  -0.459 -0.4776 -0.7538  0.9807
  396MOL0     H53432   0.933   0.772  -0.640 -1.5814 -0.9368  0.3467
  396MOL0     H53433   0.939   0.772  -0.464 -0.5390  1.5498  0.6369
  396MOL0     H53434   0.927   1.023  -0.636 -1.3882  1.7931  0.5322
  396MOL0     H53435   0.925   1.023  -0.466  3.6408 -0.9971 -1.1472
  396MOL0     H53436   0.696   0.898  -0.469 -3.2264  2.1654 -0.0782
  396MOL0     H53437   0.700   1.060  -0.532 -1.5856 -0.3555  0.0164
  396MOL0     H53438   0.671   0.807  -0.686 -0.5823  0.6723  0.5941
  396MOL0     H53439   0.756   0.940  -0.757  0.9784 -0.5487  0.5437
  396MOL0     H53440   0.516   0.894  -0.809  0.4297 -1.9907  2.4434
  396MOL0     H53441   0.549   1.068  -0.752  1.3770  0.1634  2.6199
  396MOL0     H53442   1.575   0.901  -0.779  3.1586 -0.9564 -0.8494
  396MOL0     H53443   1.790   0.978  -0.762 -0.1622  4.1768 -0.0008
  396MOL0     H53444   2.105   0.957  -0.354  1.2589 -1.0187  1.5129
  396MOL0     H53445   2.341   0.904  -0.280  1.6706  0.9212  0.2561
  396MOL0     H53446   3.993   0.909   0.404 -0.1908  1.0741 -1.8137
  396MOL0     H53447   4.224   0.931   0.323 -0.4940 -0.8759  1.6082
  396MOL0     H53448   4.614   1.050   0.438 -1.4888  0.4674 -1.1542
  396MOL0     H53449   4.851   1.046   0.435 -1.6379 -1.5299 -0.0615
  396MOL0     H53450   5.044   1.228   0.075  1.6874  0.0659 -0.1121
  396MOL0     H53451   5.065   1.367   0.176 -0.3199  1.2983 -0.7205
  396MOL0     H53452   5.258   1.242   0.295 -1.1579  1.7081 -0.3529
  396MOL0     H53453   5.278   1.286   0.126 -0.2207  1.0911  1.1208
  396MOL0     H53454   5.200   1.044   0.060 -2.3282 -1.4136  0.1999
  396MOL0     H53455   5.166   1.014   0.218  0.1135 -0.7772 -1.3402
  396MOL0     H53456   5.386   0.911   0.175 -1.4894  0.1144  2.4527
  396MOL0     H53457   5.408   1.035   0.289 -0.2519  1.6177 -0.6319
  396MOL0     H53458   5.645   1.207  -0.005 -1.0426  1.1831  0.0063
  396MOL0     H53459   4.857   1.379   0.153  1.0109 -1.5264 -1.0851
  396MOL0     H53460   4.617   1.381   0.160  0.1922 -1.4013 -1.0930
  397MOL0     O53461   2.567   7.975   8.946  0.5283  0.1827  0.3642
  397MOL0     C53462   2.594   7.860   8.984 -0.2543  0.1725  0.1343
  397MOL0     O53463   2.507   7.781   9.062 -0.1821  0.0224 -0.3164
  397MOL0     C53464   2.388   7.831   9.086  0.9443  0.0150 -0.9086
  397MOL0     C53465   2.297   7.851   8.979  0.3396  0.7926  0.1853
  397MOL0     C53466   2.166   7.893   9.014 -0.4667 -0.1602 -0.3975
  397MOL0     C53467   2.128   7.912   9.146  1.1598  0.4850 -1.3315
  397MOL0     O53468   1.996   7.940   9.162 -0.1700  0.6989  0.1454
  397MOL0     C53469   1.913   7.863   9.247 -0.4840 -0.3210  0.7684
  397MOL0     C53470   1.842   7.746   9.188 -0.3292  0.3345  0.0160
  397MOL0     C53471   1.789   7.764   9.044 -0.0254  0.0292 -0.5260
  397MOL0     C53472   1.645   7.816   9.038  0.1456  0.7569  0.5260
  397MOL0     C53473   1.591   7.816   8.892 -0.3078  0.4684 -0.6641
  397MOL0     C53474   1.466   7.895   8.892 -0.0653 -0.0991 -0.8925
  397MOL0     C53475   1.392   7.880   8.759  0.6148  0.3950  0.6519
  397MOL0     C53476   1.476   7.909   8.623  0.3960 -0.3159 -0.0077
  397MOL0     N53477   1.543   8.036   8.644 -0.3521 -0.1153 -0.4035
  397MOL0     C53478   1.491   8.156   8.704  0.1940  1.6706  0.7025
  397MOL0     C53479   1.593   8.248   8.679  0.2114 -0.0794 -0.3257
  397MOL0     C53480   1.586   8.393   8.721  0.0137 -0.0798  0.2985
  397MOL0     C53481   1.500   8.474   8.633  0.5761  0.0127  0.2310
  397MOL0     C53482   1.563   8.525   8.499  0.2693  0.4747 -0.0637
  397MOL0     C53483   1.463   8.555   8.390  0.3566  0.5840 -0.0852
  397MOL0     O53484   1.353   8.623   8.453 -0.0048  0.0583  0.6227
  397MOL0     C53485   1.230   8.564   8.451 -0.2654 -0.6481 -0.2118
  397MOL0     C53486   1.146   8.591   8.559 -0.0259 -0.2477 -0.7979
  397MOL0     C53487   1.008   8.562   8.556  0.2693  0.4291  0.6518
  397MOL0     C53488   0.929   8.635   8.651  0.9592 -0.5760 -0.5947
  397MOL0     C53489   0.950   8.490   8.450  0.1610 -0.2451 -1.1980
  397MOL0     C53490   0.802   8.457   8.445 -0.5858 -0.0544  0.0817
  397MOL0     O53491   0.717   8.438   8.564 -0.6098  0.0827 -0.6947
  397MOL0     C53492   0.595   8.394   8.535  0.0362 -0.7921 -0.5194
  397MOL0     C53493   0.487   8.477   8.550  0.8594  0.6757 -0.8065
  397MOL0     C53494   0.359   8.421   8.541  0.0194 -0.8767 -0.0368
  397MOL0     C53495   0.339   8.287   8.503 -0.2933  0.4882  0.3215
  397MOL0     O53496   0.221   8.222   8.503  0.4330  0.3734  0.9607
  397MOL0     C53497   0.099   8.297   8.503 -0.8344  0.1280 -0.2467
  397MOL0     C53498  -0.021   8.200   8.499 -0.5178 -0.3005 -0.3545
  397MOL0     C53499  -0.098   8.197   8.637 -0.1147 -0.8976  0.6430
  397MOL0     C53500  -0.155   8.058   8.664  0.0953 -0.1040  0.1806
  397MOL0     C53501  -0.272   8.061   8.758  0.7753  0.2856 -0.3264
  397MOL0     C53502  -0.400   8.130   8.698  0.0232  0.5557 -0.4548
  397MOL0     C53503  -0.523   8.105   8.778  0.2024  0.1867 -0.9252
  397MOL0     C53504  -0.530   8.133   8.932  0.1604 -0.4135 -0.1189
  397MOL0    Cl53505  -0.469   8.298   8.993 -0.0741 -0.4058 -0.3427
  397MOL0     C53506   0.449   8.212   8.462 -0.2649 -0.8022  0.3593
  397MOL0     C53507   0.574   8.263   8.487 -1.0679  0.2037 -0.8772
  397MOL0     O53508   0.755   8.451   8.329 -0.5901  0.2895  0.1953
  397MOL0     C53509   1.036   8.469   8.339 -0.2344 -0.0002 -0.7307
  397MOL0     C53510   1.172   8.505   8.339 -0.1143  0.3365 -0.2958
  397MOL0     N53511   1.702   8.190   8.624 -0.1166  0.6215 -0.2748
  397MOL0     N53512   1.672   8.059   8.606  0.3589  0.5371 -0.0574
  397MOL0     C53513   2.217   7.898   9.251 -0.2236  0.0460  0.7597
  397MOL0     C53514   2.347   7.851   9.221  0.0751 -0.8803  0.3916
  397MOL0     C53515   2.725   7.797   8.956  0.3312 -0.3357 -0.0996
  397MOL0     C53516   2.752   7.663   8.989  0.4463 -0.4982 -0.2367
  397MOL0     C53517   2.875   7.605   8.985 -0.5058 -0.0631  0.5005
  397MOL0     C53518   2.983   7.687   8.944  0.7663  0.7941  0.2261
  397MOL0     O53519   3.105   7.627   8.948  0.1476  0.2296  0.2763
  397MOL0     C53520   3.230   7.684   8.913  0.2651  0.2384  0.9782
  397MOL0     C53521   3.299   7.721   9.036  0.1737  0.2792  0.0735
  397MOL0     C53522   3.437   7.770   9.002  0.3284 -0.5751  0.1511
  397MOL0     C53523   3.514   7.779   9.136 -0.9952 -0.2361 -0.6548
  397MOL0     C53524   3.659   7.772   9.117  0.1538  0.4146 -0.1025
  397MOL0     C53525   3.780   7.766   9.127  0.0555 -0.7397  0.3511
  397MOL0     C53526   2.960   7.817   8.893 -0.2225 -0.4623  0.6384
  397MOL0     C53527   2.832   7.867   8.899 -0.3275  0.0117  0.2599
  397MOL0     H53528   2.325   7.832   8.876  2.3217 -1.3372  1.0301
  397MOL0     H53529   2.099   7.923   8.934 -1.1162 -1.7837 -0.4990
  397MOL0     H53530   1.962   7.825   9.337  3.4634 -0.7500 -1.3597
  397MOL0     H53531   1.834   7.928   9.289  2.0970  3.4128  0.3273
  397MOL0     H53532   1.912   7.662   9.183  0.5657  1.1167 -3.4142
  397MOL0     H53533   1.757   7.720   9.253 -0.9104  1.7507 -0.1401
  397MOL0     H53534   1.851   7.843   9.001 -1.2898  1.9027  0.8889
  397MOL0     H53535   1.801   7.664   9.003 -0.7425 -0.1554 -0.2988
  397MOL0     H53536   1.588   7.747   9.101 -0.6869  0.9467  0.0024
  397MOL0     H53537   1.647   7.920   9.072  2.4983  1.7491 -2.2883
  397MOL0     H53538   1.670   7.857   8.829  1.2636  2.0871  2.1350
  397MOL0     H53539   1.566   7.711   8.872  1.0673 -0.0366  0.1320
  397MOL0     H53540   1.394   7.862   8.968 -0.2547  2.9565  0.4209
  397MOL0     H53541   1.475   8.002   8.913 -1.4135  0.4427 -2.7244
  397MOL0     H53542   1.359   7.777   8.746  1.8488  0.3077 -3.0180
  397MOL0     H53543   1.295   7.931   8.760  0.3071 -0.1409  2.5477
  397MOL0     H53544   1.410   7.920   8.536 -1.7850 -2.7872  1.1916
  397MOL0     H53545   1.546   7.826   8.609 -2.0008 -2.2939 -1.2051
  397MOL0     H53546   1.394   8.169   8.751 -1.3412 -1.6136 -1.2037
  397MOL0     H53547   1.560   8.411   8.826  0.0149 -1.2211  0.5042
  397MOL0     H53548   1.686   8.437   8.718 -0.5661  1.3937  1.5271
  397MOL0     H53549   1.471   8.561   8.692 -0.0823  0.0616 -0.1576
  397MOL0     H53550   1.416   8.407   8.612 -0.5668  1.6775 -0.7327
  397MOL0     H53551   1.631   8.453   8.453  0.0961  1.1978 -1.5004
  397MOL0     H53552   1.618   8.616   8.524  1.0180  0.4164 -1.4328
  397MOL0     H53553   1.439   8.457   8.346  1.7318  0.9448 -1.7826
  397MOL0     H53554   1.498   8.619   8.309  0.1850 -0.2665 -0.8529
  397MOL0     H53555   1.193   8.646   8.640 -1.1942 -1.5523  0.8444
  397MOL0     H53556   0.939   8.598   8.753  1.2010  0.2656 -0.2995
  397MOL0     H53557   0.955   8.737   8.682  0.1671 -1.1901  2.4443
  397MOL0     H53558   0.820   8.634   8.647  0.8445  0.4740  1.1611
  397MOL0     H53559   0.515   8.579   8.573 -0.5879  0.7833  0.6681
  397MOL0     H53560   0.277   8.484   8.574 -0.9797 -1.7682 -0.7375
  397MOL0     H53561   0.082   8.358   8.592 -1.1910 -2.5350  1.6226
  397MOL0     H53562   0.084   8.366   8.420 -2.8191  0.1589  0.0745
  397MOL0     H53563  -0.093   8.224   8.420 -1.1882  3.6209  1.2401
  397MOL0     H53564   0.021   8.099   8.491  1.1364  0.4537 -1.7429
  397MOL0     H53565  -0.179   8.270   8.634 -0.0685 -0.8171 -3.2006
  397MOL0     H53566  -0.026   8.215   8.717 -1.2891 -1.7978  1.9408
  397MOL0     H53567  -0.198   8.029   8.567 -2.9427  1.4733  0.9305
  397MOL0     H53568  -0.073   7.998   8.703 -0.6524 -0.6324  0.9836
  397MOL0     H53569  -0.250   8.118   8.848 -0.5494 -1.3762  1.1110
  397MOL0     H53570  -0.286   7.961   8.799 -0.7936 -0.1849 -1.8829
  397MOL0     H53571  -0.387   8.239   8.696  0.5860  0.4820 -1.0563
  397MOL0     H53572  -0.417   8.099   8.594  1.5342  0.8836 -0.8213
  397MOL0     H53573  -0.558   8.004   8.755  0.7837  0.3824 -2.8254
  397MOL0     H53574  -0.601   8.168   8.736  0.5023  0.1857 -1.4852
  397MOL0     H53575  -0.472   8.060   8.989  0.9168 -1.6220 -2.3151
  397MOL0     H53576  -0.634   8.138   8.967  0.1661  1.7685 -0.2471
  397MOL0     H53577   0.440   8.109   8.429 -1.9732 -0.1642 -1.3658
  397MOL0     H53578   0.660   8.197   8.482 -0.8501  0.3786  0.1662
  397MOL0     H53579   0.986   8.421   8.256 -0.5405 -1.9176  0.4973
  397MOL0     H53580   1.239   8.498   8.254  1.2305  3.5097  0.3328
  397MOL0     H53581   2.179   7.901   9.353 -0.8008  2.6970  0.5382
  397MOL0     H53582   2.415   7.812   9.295  0.3529 -2.7415 -0.7805
  397MOL0     H53583   2.671   7.597   9.018 -1.8673  1.3055 -2.2657
  397MOL0     H53584   2.890   7.501   9.015 -0.8323  0.1770  1.5254
  397MOL0     H53585   3.294   7.612   8.861  1.1041  0.2886  1.9134
  397MOL0     H53586   3.209   7.775   8.855  1.3634  0.7881  1.4220
  397MOL0     H53587   3.301   7.648   9.118 -0.3097  0.3947  0.1925
  397MOL0     H53588   3.255   7.807   9.089  2.4699  0.5300  1.7631
  397MOL0     H53589   3.435   7.872   8.962  0.7173  0.1991  1.9937
  397MOL0     H53590   3.491   7.703   8.934  1.6997  0.5080  0.1301
  397MOL0     H53591   3.490   7.689   9.193  0.8502  1.3448  2.9782
  397MOL0     H53592   3.495   7.869   9.196  0.3823 -0.1595 -0.3037
  397MOL0     H53593   3.884   7.755   9.148  0.4059  1.1354 -0.2025
  397MOL0     H53594   3.034   7.880   8.846 -0.6409 -0.2904  0.2111
  397MOL0     H53595   2.812   7.963   8.853  1.9513  0.5544  0.2877
  398MOL0     O53596   4.035   8.695   6.169 -0.5805 -0.6671  0.1584
  398MOL0     C53597   4.031   8.813   6.199  0.5680 -0.4402  0.2868
  398MOL0     O53598   3.947   8.897   6.145  0.3916  0.1828 -0.3362
  398MOL0     C53599   3.859   8.867   6.044  0.3783  0.7503 -0.1903
  398MOL0     C53600   3.758   8.771   6.060 -0.8566  0.2688  0.1619
  398MOL0     C53601   3.668   8.734   5.953 -0.1215 -0.2878 -0.5640
  398MOL0     C53602   3.661   8.809   5.838 -0.8153 -0.7632 -0.1371
  398MOL0     O53603   3.567   8.786   5.746 -0.1335  0.8920  0.1682
  398MOL0     C53604   3.565   8.845   5.615  0.0828  0.1457  0.8310
  398MOL0     C53605   3.461   8.761   5.547 -0.3905 -0.8285 -0.3994
  398MOL0     C53606   3.329   8.812   5.594  0.0718  0.0389  0.6038
  398MOL0     C53607   3.216   8.703   5.574  0.3290 -0.0894 -0.7599
  398MOL0     C53608   3.075   8.745   5.609  0.2661 -0.5800 -0.2582
  398MOL0     C53609   3.014   8.853   5.516  0.0069  0.3775  0.2701
  398MOL0     C53610   2.860   8.883   5.545  0.1290 -0.7781  0.7900
  398MOL0     C53611   2.817   9.028   5.500 -1.1223 -0.1061 -0.8942
  398MOL0     N53612   2.682   9.061   5.544  0.5044  0.0591  0.3284
  398MOL0     C53613   2.593   9.123   5.461  0.4297  0.4312  0.0027
  398MOL0     C53614   2.484   9.136   5.539  0.5377  0.7403  0.2748
  398MOL0     C53615   2.345   9.194   5.504 -0.4681 -0.3766  0.3686
  398MOL0     C53616   2.254   9.087   5.437  0.1271  0.5693  0.1850
  398MOL0     C53617   2.135   9.161   5.373  0.1810  0.7213  0.1023
  398MOL0     C53618   2.021   9.073   5.323  0.1227 -0.5087  0.0217
  398MOL0     O53619   1.938   9.171   5.257  0.2810 -0.2232 -0.6369
  398MOL0     C53620   1.810   9.138   5.227 -0.7301 -0.8004  0.9834
  398MOL0     C53621   1.748   9.007   5.229  1.0724 -0.9450 -0.5305
  398MOL0     C53622   1.612   8.999   5.189  0.4074  0.1830  0.2951
  398MOL0     C53623   1.558   8.865   5.201  0.4959 -0.6187 -0.4070
  398MOL0     C53624   1.540   9.118   5.147 -0.5740 -0.5141  0.1879
  398MOL0     C53625   1.398   9.114   5.097 -0.0887 -1.0342  0.2848
  398MOL0     O53626   1.355   9.228   5.026 -0.0677  0.5593 -0.4313
  398MOL0     C53627   1.223   9.231   4.995  0.4823 -0.2733  0.3958
  398MOL0     C53628   1.146   9.321   5.069 -1.0631 -0.2105  0.7775
  398MOL0     C53629   1.011   9.319   5.058 -0.4180 -0.9297 -0.1847
  398MOL0     C53630   0.956   9.225   4.977 -1.3142 -1.0624  0.7450
  398MOL0     O53631   0.815   9.231   4.986 -0.3363 -0.0057 -0.5287
  398MOL0     C53632   0.741   9.233   4.866 -0.4023 -0.2488  0.5932
  398MOL0     C53633   0.622   9.137   4.869 -0.2500  0.3325  0.5301
  398MOL0     C53634   0.656   8.984   4.861  0.2311 -0.3153  0.7092
  398MOL0     C53635   0.558   8.894   4.938  0.1945  0.2760  0.4379
  398MOL0     C53636   0.585   8.735   4.937 -0.3065  0.0360  0.5902
  398MOL0     C53637   0.521   8.657   5.044 -0.4023  0.6857  0.5023
  398MOL0     C53638   0.581   8.689   5.182  0.7982  0.8600 -1.0040
  398MOL0     C53639   0.581   8.578   5.287 -0.2585 -0.0694 -0.0545
  398MOL0    Cl53640   0.421   8.499   5.306  0.0800 -0.0829 -0.1363
  398MOL0     C53641   1.024   9.142   4.899 -0.2771 -0.8089  0.8041
  398MOL0     C53642   1.161   9.143   4.906  0.4996  0.6223  0.0957
  398MOL0     O53643   1.327   9.016   5.131  0.1344 -0.2158  0.1768
  398MOL0     C53644   1.610   9.240   5.147 -0.1818 -0.0068 -0.0492
  398MOL0     C53645   1.737   9.250   5.183  0.2396  0.0294  0.7515
  398MOL0     N53646   2.511   9.079   5.663 -0.4754  0.3705  0.0918
  398MOL0     N53647   2.625   9.022   5.661  0.3809  0.1861 -0.2528
  398MOL0     C53648   3.765   8.906   5.819 -0.1652 -0.0410 -0.0847
  398MOL0     C53649   3.858   8.932   5.916 -0.5423  1.0488 -0.0621
  398MOL0     C53650   4.116   8.861   6.308 -0.0330 -0.5809 -0.2139
  398MOL0     C53651   4.093   8.983   6.372 -0.3528 -0.1051  0.4982
  398MOL0     C53652   4.177   9.033   6.471  0.7636  0.3533 -0.0628
  398MOL0     C53653   4.276   8.946   6.520  0.4045 -1.0295  0.6610
  398MOL0     O53654   4.346   8.976   6.635  0.5241 -0.8665  0.3440
  398MOL0     C53655   4.331   9.104   6.700  0.2601 -0.3801 -0.5651
  398MOL0     C53656   4.409   9.108   6.830 -0.7500 -0.0124  0.1331
  398MOL0     C53657   4.562   9.084   6.809 -0.2813  0.3597  0.0215
  398MOL0     C53658   4.636   9.207   6.756  0.0414  0.9265  0.4629
  398MOL0     C53659   4.617   9.318   6.849 -0.0471  0.2927 -0.0797
  398MOL0     C53660   4.619   9.411   6.921 -0.1310 -1.0371 -0.1512
  398MOL0     C53661   4.302   8.826   6.463  1.3900  0.4853 -0.5965
  398MOL0     C53662   4.222   8.778   6.358  1.2665 -0.4419  0.6728
  398MOL0     H53663   3.765   8.725   6.158  1.6063  4.3396  2.1525
  398MOL0     H53664   3.590   8.661   5.974  0.2966 -0.1646  1.7637
  398MOL0     H53665   3.539   8.951   5.624  2.0004  1.0222 -2.3360
  398MOL0     H53666   3.664   8.850   5.569 -0.5142  1.3682 -0.3773
  398MOL0     H53667   3.467   8.790   5.441  0.1539  0.8795  0.0607
  398MOL0     H53668   3.485   8.655   5.559  2.1431 -0.3132 -0.2208
  398MOL0     H53669   3.333   8.851   5.696 -0.5333  1.3537  0.1473
  398MOL0     H53670   3.292   8.897   5.537  0.5130  0.3081  0.7142
  398MOL0     H53671   3.233   8.666   5.473  1.4303  0.0932 -0.6594
  398MOL0     H53672   3.244   8.621   5.641  0.1959 -1.7002 -2.6046
  398MOL0     H53673   3.018   8.651   5.616  2.4513 -2.1295 -2.0075
  398MOL0     H53674   3.072   8.797   5.706  0.3627  0.3664 -0.7555
  398MOL0     H53675   3.067   8.946   5.539  1.6765 -1.4371  5.2759
  398MOL0     H53676   3.021   8.821   5.412  1.6139 -3.4437  1.3739
  398MOL0     H53677   2.798   8.816   5.485 -1.5252  1.5328 -0.2174
  398MOL0     H53678   2.834   8.875   5.651 -3.8075 -0.8892 -0.0472
  398MOL0     H53679   2.826   9.030   5.391 -1.7400 -2.1425 -1.0248
  398MOL0     H53680   2.888   9.102   5.540 -1.7432 -0.0425  0.1229
  398MOL0     H53681   2.602   9.146   5.355  0.5486  0.5264  0.0330
  398MOL0     H53682   2.297   9.242   5.591  1.9154 -1.1035  2.2056
  398MOL0     H53683   2.361   9.282   5.440 -3.1963  0.4901  0.7388
  398MOL0     H53684   2.223   9.010   5.509  2.4664 -0.9538 -0.3129
  398MOL0     H53685   2.312   9.046   5.354 -1.6943 -1.7116 -0.0716
  398MOL0     H53686   2.180   9.211   5.287 -0.5996 -0.1361 -0.8255
  398MOL0     H53687   2.099   9.226   5.453 -0.1568 -1.1987  1.5895
  398MOL0     H53688   1.971   9.038   5.413  2.8202 -3.0676  0.6682
  398MOL0     H53689   2.058   8.989   5.262 -0.2943  1.2254 -2.8227
  398MOL0     H53690   1.800   8.922   5.271 -0.7695 -2.1434 -0.5991
  398MOL0     H53691   1.510   8.848   5.105 -1.3241  0.6828  0.2165
  398MOL0     H53692   1.647   8.801   5.210  0.7444 -0.0537  1.7292
  398MOL0     H53693   1.498   8.851   5.291 -1.3173  1.9723 -1.0891
  398MOL0     H53694   1.201   9.395   5.125  1.3774 -0.3704 -1.2323
  398MOL0     H53695   0.948   9.396   5.102 -0.0586 -1.1480  0.7154
  398MOL0     H53696   0.715   9.339   4.858  0.4730 -0.1336 -1.0454
  398MOL0     H53697   0.790   9.193   4.777 -2.1776  2.2653 -1.6738
  398MOL0     H53698   0.578   9.157   4.967  0.4692  1.1408  0.7001
  398MOL0     H53699   0.550   9.166   4.792  1.6351 -1.0493 -1.9462
  398MOL0     H53700   0.758   8.979   4.900  0.2434 -1.1367  0.5840
  398MOL0     H53701   0.656   8.955   4.756 -1.7351  0.0258  0.5761
  398MOL0     H53702   0.558   8.921   5.044 -2.5662 -0.0366  0.5934
  398MOL0     H53703   0.460   8.918   4.897  0.0291 -1.1048 -0.0385
  398MOL0     H53704   0.694   8.722   4.940  0.1371  2.4598 -1.5433
  398MOL0     H53705   0.551   8.704   4.838 -2.4932 -0.5671  1.4795
  398MOL0     H53706   0.413   8.656   5.029 -0.2599 -1.9823 -1.0187
  398MOL0     H53707   0.537   8.549   5.036 -0.0120  0.6216  1.9653
  398MOL0     H53708   0.526   8.773   5.226 -0.8574 -1.5233  1.8149
  398MOL0     H53709   0.683   8.727   5.175 -0.1430  4.1049  0.7887
  398MOL0     H53710   0.604   8.624   5.383  0.3202 -1.8741  0.7037
  398MOL0     H53711   0.654   8.500   5.263 -2.0119 -1.5636 -0.7890
  398MOL0     H53712   0.982   9.076   4.824  1.4680 -2.2805  1.0689
  398MOL0     H53713   1.221   9.079   4.842 -1.2970 -2.4320  1.2314
  398MOL0     H53714   1.558   9.329   5.115 -0.7404 -1.0035 -2.0262
  398MOL0     H53715   1.781   9.349   5.183  1.4818 -0.4280 -1.8889
  398MOL0     H53716   3.761   8.958   5.724 -3.0387 -0.5307 -0.3305
  398MOL0     H53717   3.941   8.999   5.895 -0.3724  0.6165 -0.8288
  398MOL0     H53718   4.009   9.036   6.331  0.6169 -0.3965 -2.0506
  398MOL0     H53719   4.148   9.122   6.526 -2.0120 -0.5022  0.0198
  398MOL0     H53720   4.354   9.188   6.634  1.4168 -0.0738  0.2098
  398MOL0     H53721   4.226   9.121   6.727  0.7679  0.9163  0.7686
  398MOL0     H53722   4.383   9.020   6.890 -0.1671  0.4097  1.0183
  398MOL0     H53723   4.398   9.207   6.875 -0.7164 -0.3584  0.9195
  398MOL0     H53724   4.588   8.994   6.753 -1.8225  0.7572 -1.3920
  398MOL0     H53725   4.611   9.065   6.905 -2.0085 -1.0065  0.6817
  398MOL0     H53726   4.612   9.234   6.653  1.7629  0.0573 -0.2123
  398MOL0     H53727   4.745   9.192   6.753  0.1367  1.6192  0.3286
  398MOL0     H53728   4.613   9.495   6.988 -1.6154 -1.2356  0.0139
  398MOL0     H53729   4.383   8.762   6.493  0.5773 -0.6727 -0.8026
  398MOL0     H53730   4.236   8.686   6.301  1.4370 -0.0160  0.0120
  399MOL0     O53731  10.631   4.921  10.924 -0.0771  0.4565  0.2445
  399MOL0     C53732  10.671   4.837  11.001  0.7618  0.0057  0.1675
  399MOL0     O53733  10.618   4.809  11.130 -0.0541  0.0370 -0.2636
  399MOL0     C53734  10.509   4.887  11.152 -0.2806  0.0267 -0.6930
  399MOL0     C53735  10.392   4.896  11.080  0.3818  0.5325  0.1080
  399MOL0     C53736  10.290   4.988  11.114 -0.3497 -0.0681  0.0810
  399MOL0     C53737  10.295   5.073  11.227 -0.4875  0.0676 -0.3345
  399MOL0     O53738  10.203   5.167  11.264 -0.1299 -0.7084  0.1960
  399MOL0     C53739  10.076   5.153  11.197  0.1607 -0.1228  0.4005
  399MOL0     C53740   9.999   5.278  11.245 -0.8038 -0.0247  0.5005
  399MOL0     C53741   9.841   5.283  11.224  0.1726 -0.9489  0.0405
  399MOL0     C53742   9.777   5.385  11.309  0.5667 -0.0336  0.0784
  399MOL0     C53743   9.629   5.391  11.304  0.1063  0.1911  0.3202
  399MOL0     C53744   9.555   5.271  11.359  0.2065 -0.3338 -0.4555
  399MOL0     C53745   9.407   5.292  11.323  0.0547 -0.4889 -0.2589
  399MOL0     C53746   9.303   5.198  11.382 -0.5373 -0.1031 -0.1952
  399MOL0     N53747   9.157   5.228  11.353 -0.3833  0.4895 -0.4966
  399MOL0     C53748   9.110   5.355  11.347  0.5943 -0.1921 -0.7648
  399MOL0     C53749   8.974   5.342  11.310 -0.1245  0.3749  0.3190
  399MOL0     C53750   8.874   5.448  11.286  0.6147  0.0383 -0.5214
  399MOL0     C53751   8.752   5.439  11.378 -0.2737  0.3722 -0.0158
  399MOL0     C53752   8.684   5.580  11.391 -0.7838 -0.8258  0.2149
  399MOL0     C53753   8.561   5.574  11.479  0.0151  0.0816  0.2286
  399MOL0     O53754   8.480   5.462  11.445 -0.2528  0.5763 -0.3569
  399MOL0     C53755   8.388   5.415  11.536 -0.4838  0.5261  0.2230
  399MOL0     C53756   8.390   5.439  11.671  0.7373 -0.4610  0.2088
  399MOL0     C53757   8.287   5.399  11.753 -0.1604  0.3206  0.8519
  399MOL0     C53758   8.307   5.434  11.897 -0.4828 -0.2120 -0.7819
  399MOL0     C53759   8.187   5.308  11.713 -0.2317 -0.1843  0.3451
  399MOL0     C53760   8.083   5.241  11.802 -1.0542  0.0245 -0.0309
  399MOL0     O53761   8.140   5.181  11.909  0.1614  0.3825  0.8189
  399MOL0     C53762   8.081   5.070  11.968 -0.6017  0.3156  0.6644
  399MOL0     C53763   8.004   4.972  11.894  0.6463  0.4304  0.4946
  399MOL0     C53764   7.956   4.855  11.950  0.1955  0.6510  0.9832
  399MOL0     C53765   7.979   4.847  12.082 -0.3120  0.4879 -0.8175
  399MOL0     O53766   7.917   4.746  12.151  0.0750 -0.0988 -0.3769
  399MOL0     C53767   7.966   4.619  12.105 -0.3071 -0.1928 -0.0875
  399MOL0     C53768   7.948   4.513  12.213  1.1371 -0.8721  0.1973
  399MOL0     C53769   7.970   4.372  12.167 -0.0718  1.0372  0.8179
  399MOL0     C53770   7.862   4.331  12.060  0.1895  0.0697 -0.3345
  399MOL0     C53771   7.847   4.180  12.035  0.5908  0.2349  0.4113
  399MOL0     C53772   7.982   4.100  11.989  0.0851  0.4842  0.7578
  399MOL0     C53773   8.060   4.160  11.870  0.3979 -0.5564  0.5954
  399MOL0     C53774   8.186   4.083  11.823  0.0307 -0.2082 -0.8499
  399MOL0    Cl53775   8.314   4.095  11.956 -0.6171 -0.1158 -0.2121
  399MOL0     C53776   8.061   4.923  12.162 -0.0402 -0.1518  0.2011
  399MOL0     C53777   8.113   5.037  12.096  0.0088 -0.4328 -0.7538
  399MOL0     O53778   7.968   5.230  11.758  0.2441 -0.0158  0.4896
  399MOL0     C53779   8.188   5.279  11.576 -0.6163 -0.0784  0.3315
  399MOL0     C53780   8.287   5.329  11.486 -0.1488  1.1993  0.0036
  399MOL0     N53781   8.953   5.202  11.293  0.8499 -0.3005  0.6926
  399MOL0     N53782   9.061   5.141  11.318 -0.8080  0.5512  0.4359
  399MOL0     C53783  10.416   5.061  11.302  0.6300  0.2416  0.1216
  399MOL0     C53784  10.523   4.975  11.262  0.0732  0.2440 -0.7137
  399MOL0     C53785  10.769   4.742  10.941  0.1439  0.2829 -0.4377
  399MOL0     C53786  10.844   4.650  11.022  0.2415  0.1592  0.2983
  399MOL0     C53787  10.946   4.575  10.964 -0.3063  0.3896 -0.4880
  399MOL0     C53788  10.960   4.564  10.826  0.3904 -0.4463  0.0513
  399MOL0     O53789  11.057   4.483  10.781  0.1573  0.6580  0.4274
  399MOL0     C53790  11.105   4.510  10.646 -0.0667 -0.1068 -0.4777
  399MOL0     C53791  11.208   4.400  10.601 -0.1205  0.5415 -0.5262
  399MOL0     C53792  11.332   4.414  10.700 -0.6739  0.3592  0.8645
  399MOL0     C53793  11.424   4.298  10.665  0.2518  0.6396 -0.0211
  399MOL0     C53794  11.537   4.289  10.753  0.3847  0.1666  0.1725
  399MOL0     C53795  11.631   4.273  10.818  0.1186  0.8896 -0.2150
  399MOL0     C53796  10.878   4.650  10.750  0.1756  0.9602  0.2166
  399MOL0     C53797  10.801   4.742  10.807  0.2584  0.6708  0.2863
  399MOL0     H53798  10.387   4.829  10.995 -1.6776  0.3804  0.2986
  399MOL0     H53799  10.200   4.960  11.061 -2.3821  1.5707  2.4370
  399MOL0     H53800  10.087   5.154  11.088 -0.7573 -0.4411  0.3045
  399MOL0     H53801  10.016   5.065  11.221 -2.0901  0.9080 -1.1674
  399MOL0     H53802  10.014   5.308  11.349 -2.3553 -0.6268  0.9112
  399MOL0     H53803  10.041   5.368  11.198  0.1172 -0.3723  0.6285
  399MOL0     H53804   9.806   5.299  11.121  1.3136 -0.5419 -0.2915
  399MOL0     H53805   9.814   5.179  11.248  0.8682 -0.7443  1.8227
  399MOL0     H53806   9.806   5.372  11.414  0.3180  0.2436  0.1846
  399MOL0     H53807   9.814   5.487  11.292 -2.5682  1.2475  0.2739
  399MOL0     H53808   9.582   5.478  11.350 -2.5158 -0.6868 -0.5417
  399MOL0     H53809   9.600   5.406  11.200 -0.8520  1.7277  0.7801
  399MOL0     H53810   9.607   5.178  11.334  3.5161  1.9655 -2.8801
  399MOL0     H53811   9.565   5.279  11.468 -1.3836 -0.0405 -0.3025
  399MOL0     H53812   9.379   5.393  11.351  0.2540 -0.0519 -1.5466
  399MOL0     H53813   9.391   5.271  11.216 -0.1366 -2.7515  0.1488
  399MOL0     H53814   9.322   5.188  11.489  0.6373 -2.3833 -0.5543
  399MOL0     H53815   9.324   5.103  11.333 -0.4936 -0.9723  1.4458
  399MOL0     H53816   9.166   5.441  11.385  1.8732 -2.7385  3.9267
  399MOL0     H53817   8.922   5.544  11.303  1.1794 -0.5668  1.5459
  399MOL0     H53818   8.840   5.444  11.182 -0.2089 -1.2548 -0.2287
  399MOL0     H53819   8.798   5.420  11.475  3.1996  1.8527 -1.2038
  399MOL0     H53820   8.681   5.362  11.347 -1.9994  1.3278  1.4183
  399MOL0     H53821   8.652   5.614  11.292  1.8173 -1.6478 -0.9867
  399MOL0     H53822   8.756   5.655  11.426  2.0600 -1.4957 -3.5221
  399MOL0     H53823   8.509   5.670  11.484  2.7583  1.6068  2.9440
  399MOL0     H53824   8.602   5.549  11.578  0.4550 -1.9955 -0.4329
  399MOL0     H53825   8.469   5.500  11.713 -0.0544  0.0511  0.9900
  399MOL0     H53826   8.351   5.533  11.912  4.0191 -2.2701  1.5643
  399MOL0     H53827   8.215   5.441  11.956  1.3444 -1.4294  2.5134
  399MOL0     H53828   8.367   5.355  11.944 -0.4175 -0.0698 -0.6253
  399MOL0     H53829   7.977   4.987  11.790  1.2997 -0.6047  0.1648
  399MOL0     H53830   7.911   4.778  11.888  0.5460 -0.8721  2.5369
  399MOL0     H53831   7.919   4.594  12.009  3.4582 -1.7612 -1.7077
  399MOL0     H53832   8.072   4.619  12.081 -0.1001 -1.6032  0.7398
  399MOL0     H53833   8.013   4.536  12.298  1.4982  0.5955 -0.4417
  399MOL0     H53834   7.843   4.520  12.242  0.6250 -2.6105 -1.0837
  399MOL0     H53835   7.954   4.307  12.253 -0.6207  1.5216  1.0929
  399MOL0     H53836   8.070   4.367  12.124  0.4256  1.0110  1.9342
  399MOL0     H53837   7.761   4.368  12.080  0.0881 -0.2280 -0.2897
  399MOL0     H53838   7.902   4.387  11.976  1.5668  1.1790  0.9951
  399MOL0     H53839   7.772   4.159  11.958  0.5272 -3.6035  1.3527
  399MOL0     H53840   7.802   4.133  12.123  1.8550  0.5801  1.2724
  399MOL0     H53841   8.048   4.091  12.075  0.4207 -0.3796  0.4195
  399MOL0     H53842   7.947   4.000  11.963  2.0866  0.3295 -1.6724
  399MOL0     H53843   8.076   4.265  11.897 -2.8492 -0.1152  1.1627
  399MOL0     H53844   7.993   4.171  11.785  1.4568 -3.4701 -0.7418
  399MOL0     H53845   8.216   4.128  11.728  3.3873 -0.7612 -0.1756
  399MOL0     H53846   8.153   3.981  11.804  1.0867 -0.8379  0.4704
  399MOL0     H53847   8.076   4.898  12.267  0.4415 -3.2782 -0.5185
  399MOL0     H53848   8.180   5.108  12.143 -1.2316 -0.2777  0.8755
  399MOL0     H53849   8.113   5.214  11.532 -0.1570 -0.9648  0.8278
  399MOL0     H53850   8.271   5.312  11.380  0.3741  1.8422 -0.1910
  399MOL0     H53851  10.428   5.111  11.398 -0.0252 -2.1663  1.5400
  399MOL0     H53852  10.611   4.960  11.325  0.6533 -0.3088 -1.6379
  399MOL0     H53853  10.822   4.653  11.129 -1.0584  2.0088  0.0309
  399MOL0     H53854  11.011   4.514  11.026  0.5203  2.2083  0.4953
  399MOL0     H53855  11.025   4.509  10.572 -1.3585 -0.5930  0.8697
  399MOL0     H53856  11.149   4.610  10.640 -1.6110  0.5790 -0.9914
  399MOL0     H53857  11.232   4.428  10.498  2.0094  3.5322  0.6397
  399MOL0     H53858  11.168   4.298  10.603 -1.9824  1.2412  0.2474
  399MOL0     H53859  11.303   4.409  10.805  0.9278 -1.1233  1.2826
  399MOL0     H53860  11.391   4.506  10.694  0.3269 -0.2045  1.6445
  399MOL0     H53861  11.453   4.321  10.561 -2.1640 -2.5945 -1.5655
  399MOL0     H53862  11.372   4.202  10.668  0.7225  0.3801  0.0010
  399MOL0     H53863  11.721   4.266  10.876 -0.2009  1.0920  0.3156
  399MOL0     H53864  10.872   4.649  10.642 -0.5961  0.8674  0.2604
  399MOL0     H53865  10.742   4.804  10.740 -0.1885  1.0848  1.0368
  400MOL0     O53866   9.935   3.267   4.273  0.6534 -0.1817  0.4376
  400MOL0     C53867   9.827   3.299   4.228 -0.4644 -1.3611 -1.0266
  400MOL0     O53868   9.804   3.361   4.102 -0.3083  0.3517 -0.7392
  400MOL0     C53869   9.912   3.374   4.018  0.1651  0.2230 -0.3827
  400MOL0     C53870  10.003   3.265   3.990 -0.0758 -0.0064  0.5121
  400MOL0     C53871  10.105   3.270   3.891  0.5384  0.3241  0.2401
  400MOL0     C53872  10.126   3.385   3.816 -0.4492 -0.4100  0.3875
  400MOL0     O53873  10.217   3.382   3.715 -0.1678 -0.4190  0.0467
  400MOL0     C53874  10.247   3.488   3.624 -0.1595 -0.5004 -0.5739
  400MOL0     C53875  10.179   3.454   3.494 -1.0362 -0.8958 -0.3623
  400MOL0     C53876  10.232   3.331   3.419  0.3230  0.7561  0.0621
  400MOL0     C53877  10.157   3.312   3.288 -0.3632 -0.7012  0.3337
  400MOL0     C53878  10.175   3.178   3.221  0.0660  0.0302 -0.4017
  400MOL0     C53879  10.103   3.137   3.096  0.7448 -0.8439  0.1631
  400MOL0     C53880   9.949   3.170   3.093 -0.2391 -0.4123  0.8622
  400MOL0     C53881   9.854   3.094   3.190 -0.8111 -0.6058  0.3986
  400MOL0     N53882   9.721   3.154   3.182  1.1001 -0.0082  0.2445
  400MOL0     C53883   9.683   3.277   3.224 -0.4880  0.0017  0.9064
  400MOL0     C53884   9.549   3.291   3.197  0.1375 -0.2718 -0.3249
  400MOL0     C53885   9.458   3.407   3.241 -0.0419 -0.0711 -0.3932
  400MOL0     C53886   9.354   3.344   3.345 -0.1498  0.1618  0.4077
  400MOL0     C53887   9.219   3.368   3.292  0.1953  0.0212 -0.8665
  400MOL0     C53888   9.104   3.304   3.373 -0.0632  0.7296  0.0843
  400MOL0     O53889   8.980   3.349   3.316 -0.2773 -0.4749 -0.6216
  400MOL0     C53890   8.864   3.327   3.384 -0.2667  0.0771 -0.6557
  400MOL0     C53891   8.776   3.427   3.380 -0.9088 -0.3584  0.0095
  400MOL0     C53892   8.668   3.432   3.467  0.1417  0.0706 -0.6360
  400MOL0     C53893   8.572   3.549   3.470  0.1505 -0.0250  0.8821
  400MOL0     C53894   8.646   3.317   3.553  0.5601 -0.5872  0.3038
  400MOL0     C53895   8.536   3.318   3.651 -0.1140 -0.1932 -0.3649
  400MOL0     O53896   8.488   3.442   3.699  0.3298  0.0200 -0.5429
  400MOL0     C53897   8.360   3.429   3.757 -0.0661  1.0422 -0.5051
  400MOL0     C53898   8.248   3.374   3.694 -0.2420  0.1722 -0.0137
  400MOL0     C53899   8.122   3.372   3.756 -0.0671  0.3359  0.7162
  400MOL0     C53900   8.106   3.440   3.878 -0.0042  0.7013 -0.2301
  400MOL0     O53901   7.985   3.438   3.944  0.3589 -0.4573 -0.0950
  400MOL0     C53902   7.974   3.495   4.077  0.3720  0.4027 -0.3994
  400MOL0     C53903   7.826   3.512   4.115  0.4160 -0.5297 -0.1151
  400MOL0     C53904   7.722   3.584   4.019  0.2112 -0.3690  0.2698
  400MOL0     C53905   7.576   3.560   4.049  0.0283  0.1996  0.0027
  400MOL0     C53906   7.547   3.405   4.023  0.3786  0.4212 -0.5279
  400MOL0     C53907   7.398   3.391   4.058 -0.4780 -0.4592 -0.0282
  400MOL0     C53908   7.364   3.406   4.211  0.0971 -1.0212  0.2721
  400MOL0     C53909   7.239   3.324   4.261 -0.5685 -0.5047 -0.6857
  400MOL0    Cl53910   7.089   3.342   4.174  0.1681  0.3365 -0.5397
  400MOL0     C53911   8.223   3.484   3.945  1.4067 -0.0291  0.9197
  400MOL0     C53912   8.346   3.477   3.880  1.4600 -0.7749  0.0742
  400MOL0     O53913   8.510   3.206   3.698  0.1739 -0.0173  0.2990
  400MOL0     C53914   8.733   3.210   3.541 -1.1621 -0.1767 -0.5377
  400MOL0     C53915   8.840   3.210   3.455 -0.1700 -1.0009 -0.9492
  400MOL0     N53916   9.512   3.177   3.122 -0.4708 -0.4040  0.4015
  400MOL0     N53917   9.609   3.096   3.114 -0.3561  0.2243  0.0297
  400MOL0     C53918  10.043   3.491   3.843  0.5170 -0.6033 -0.3759
  400MOL0     C53919   9.943   3.492   3.943  1.1542 -0.3299  0.1003
  400MOL0     C53920   9.708   3.273   4.314 -0.7969 -0.6625 -0.0152
  400MOL0     C53921   9.729   3.243   4.446 -0.3213  0.5964 -0.0938
  400MOL0     C53922   9.626   3.197   4.529 -0.0377 -0.5194  0.4335
  400MOL0     C53923   9.496   3.199   4.481  0.5616 -0.2792 -0.2064
  400MOL0     O53924   9.398   3.157   4.562  0.1322 -0.0782  0.2077
  400MOL0     C53925   9.363   3.020   4.547  0.6133  0.3838  0.0312
  400MOL0     C53926   9.262   2.980   4.438  0.0730 -0.1714  0.2537
  400MOL0     C53927   9.145   3.076   4.439  0.0437  0.2824 -0.5838
  400MOL0     C53928   9.055   3.033   4.332 -0.0486 -0.1062 -0.1297
  400MOL0     C53929   9.118   3.025   4.202  0.0436 -0.0983  0.3815
  400MOL0     C53930   9.175   3.001   4.096 -0.2065 -0.7042  0.3695
  400MOL0     C53931   9.473   3.237   4.346 -0.1288  0.1766  0.1530
  400MOL0     C53932   9.577   3.279   4.262 -0.0132  0.6114 -0.0089
  400MOL0     H53933   9.991   3.167   4.034 -0.1010  0.2513  1.0958
  400MOL0     H53934  10.153   3.176   3.866  0.5032  0.1416  0.8567
  400MOL0     H53935  10.210   3.586   3.658  0.4231 -0.5657  0.2709
  400MOL0     H53936  10.355   3.490   3.608  0.5115 -1.9092  2.9444
  400MOL0     H53937  10.074   3.444   3.521 -0.9558 -2.6981 -0.6306
  400MOL0     H53938  10.188   3.544   3.432 -4.3840  0.6528  1.1539
  400MOL0     H53939  10.338   3.348   3.398  0.4966  0.1521  0.4026
  400MOL0     H53940  10.235   3.238   3.477  3.8737  0.4209 -0.4629
  400MOL0     H53941  10.054   3.347   3.291 -0.7473 -1.7253 -0.2536
  400MOL0     H53942  10.205   3.384   3.220 -3.9077 -1.0646 -2.8822
  400MOL0     H53943  10.279   3.156   3.195 -0.2046 -0.5189 -1.0384
  400MOL0     H53944  10.143   3.099   3.290 -0.7828 -1.6733 -2.6333
  400MOL0     H53945  10.144   3.193   3.010  0.4684 -2.0994 -0.8220
  400MOL0     H53946  10.118   3.033   3.067 -2.2381 -0.6992 -2.4094
  400MOL0     H53947   9.945   3.279   3.098  1.4125 -0.2681 -0.3009
  400MOL0     H53948   9.922   3.143   2.991 -0.6173  2.1511  0.2269
  400MOL0     H53949   9.890   3.111   3.292  1.9627 -2.4445 -0.1547
  400MOL0     H53950   9.863   2.988   3.167  1.0337  0.1380 -2.8528
  400MOL0     H53951   9.740   3.342   3.290 -2.5449 -0.9997  3.8788
  400MOL0     H53952   9.528   3.481   3.280  0.7505 -0.7980 -0.4376
  400MOL0     H53953   9.392   3.455   3.167 -0.2295  3.0736  1.5954
  400MOL0     H53954   9.373   3.386   3.444  1.0093  0.2692  0.1468
  400MOL0     H53955   9.366   3.237   3.366 -1.9900 -0.2671 -0.5267
  400MOL0     H53956   9.215   3.324   3.192  2.1692  2.2521 -2.0317
  400MOL0     H53957   9.198   3.475   3.292  0.7673  0.1896  1.3795
  400MOL0     H53958   9.113   3.321   3.481 -1.9787 -0.4107  0.4799
  400MOL0     H53959   9.101   3.196   3.356 -1.5409  0.6310  0.7516
  400MOL0     H53960   8.810   3.505   3.312 -1.3680  0.0098  0.1963
  400MOL0     H53961   8.469   3.516   3.483 -0.2512  1.5837  2.0870
  400MOL0     H53962   8.591   3.614   3.556 -1.4277 -0.4405  1.5733
  400MOL0     H53963   8.571   3.610   3.379  2.2923  0.2171  0.9514
  400MOL0     H53964   8.266   3.330   3.596 -1.5090 -2.1833  0.7247
  400MOL0     H53965   8.038   3.327   3.703  0.9560  0.4340 -1.0552
  400MOL0     H53966   8.014   3.435   4.158 -0.1825  4.4074  3.2285
  400MOL0     H53967   8.024   3.591   4.091  0.6037 -0.0490  2.4204
  400MOL0     H53968   7.805   3.406   4.135  0.7279 -1.1957 -2.9267
  400MOL0     H53969   7.833   3.563   4.211  1.6286  1.0153 -0.9833
  400MOL0     H53970   7.746   3.554   3.916 -1.2298  2.0141 -0.8560
  400MOL0     H53971   7.738   3.692   4.020  0.9009 -0.4300 -1.0597
  400MOL0     H53972   7.547   3.601   4.146  0.3762  0.7377 -0.1133
  400MOL0     H53973   7.516   3.629   3.989 -1.3576  1.1340  2.3081
  400MOL0     H53974   7.606   3.343   4.092 -1.0385  1.2934  1.5757
  400MOL0     H53975   7.563   3.370   3.921 -0.2414 -2.0406  0.1525
  400MOL0     H53976   7.340   3.467   4.004 -1.8082 -0.6624  1.0554
  400MOL0     H53977   7.349   3.297   4.034 -1.6242  0.1894 -0.3268
  400MOL0     H53978   7.340   3.510   4.238 -0.8971 -1.9396  3.3785
  400MOL0     H53979   7.453   3.378   4.269 -0.0684 -2.0539  0.0419
  400MOL0     H53980   7.222   3.355   4.364 -1.9640 -1.3230 -0.6368
  400MOL0     H53981   7.272   3.220   4.259  0.9691 -0.2747  3.3939
  400MOL0     H53982   8.221   3.520   4.047  1.7812  0.8324  0.6399
  400MOL0     H53983   8.434   3.501   3.940  1.2638 -1.0347  0.4708
  400MOL0     H53984   8.717   3.118   3.595 -3.2088  0.2268 -0.3656
  400MOL0     H53985   8.913   3.131   3.471 -0.2012 -0.7492  0.6294
  400MOL0     H53986  10.062   3.586   3.794  0.3409 -1.0938 -1.4328
  400MOL0     H53987   9.888   3.585   3.958 -1.8397 -2.1055  1.0473
  400MOL0     H53988   9.829   3.225   4.487  0.1496  2.2880 -0.4245
  400MOL0     H53989   9.651   3.162   4.629 -0.5698 -1.2453  0.3192
  400MOL0     H53990   9.449   2.956   4.524 -1.6636 -2.2938 -1.6702
  400MOL0     H53991   9.320   2.988   4.642 -0.9829 -3.0894 -1.6617
  400MOL0     H53992   9.229   2.878   4.460  0.6695 -0.3641  0.2791
  400MOL0     H53993   9.315   2.974   4.343 -1.4859 -1.0431 -0.5950
  400MOL0     H53994   9.178   3.180   4.425 -1.7835  0.7420 -1.9015
  400MOL0     H53995   9.098   3.064   4.537 -0.5192  1.7320 -0.6462
  400MOL0     H53996   8.973   3.105   4.343  0.4370  0.5286 -0.5710
  400MOL0     H53997   9.018   2.936   4.366 -1.3486 -0.8013 -3.2477
  400MOL0     H53998   9.221   2.972   4.004 -0.9574  1.1318 -0.6352
  400MOL0     H53999   9.369   3.240   4.317 -0.7814 -0.0276  2.2497
  400MOL0     H54000   9.561   3.309   4.159  0.6588  0.7463 -0.0823
  401MOL0     O54001   4.095   4.673  10.645  0.5562  0.5554  0.7686
  401MOL0     C54002   4.133   4.718  10.534  0.2333 -0.0822  0.0166
  401MOL0     O54003   4.055   4.729  10.423 -0.0188 -0.4205  0.5478
  401MOL0     C54004   3.919   4.684  10.437  0.0852 -0.8766  0.0128
  401MOL0     C54005   3.827   4.765  10.505  0.1411 -0.3494 -0.4499
  401MOL0     C54006   3.693   4.718  10.514 -0.3695 -0.3723  0.4035
  401MOL0     C54007   3.648   4.601  10.460  0.4503  0.1273  0.8193
  401MOL0     O54008   3.517   4.578  10.473  0.7096 -0.0243  0.0059
  401MOL0     C54009   3.454   4.456  10.417 -0.2264  0.0079  0.4365
  401MOL0     C54010   3.312   4.455  10.454  0.9941 -0.6764  0.6174
  401MOL0     C54011   3.242   4.580  10.412  0.1187 -0.6713  0.4449
  401MOL0     C54012   3.091   4.563  10.413  0.7306  0.3986  0.0491
  401MOL0     C54013   3.013   4.698  10.371  0.0303 -0.7649 -0.0165
  401MOL0     C54014   2.877   4.674  10.313  0.2537 -0.1196  0.1635
  401MOL0     C54015   2.819   4.779  10.235  0.4633 -0.2931  0.0744
  401MOL0     C54016   2.672   4.763  10.188 -0.6250 -0.1708  0.1968
  401MOL0     N54017   2.579   4.788  10.300  0.1664  0.5629  0.1352
  401MOL0     C54018   2.506   4.689  10.359  0.4729 -0.6749 -0.1229
  401MOL0     C54019   2.437   4.759  10.451 -0.9057 -0.7264 -0.8005
  401MOL0     C54020   2.342   4.708  10.552  0.0198 -0.3827  0.2417
  401MOL0     C54021   2.404   4.592  10.633  0.3347 -0.3164  0.6882
  401MOL0     C54022   2.301   4.552  10.735  0.2953 -0.4682 -0.3428
  401MOL0     C54023   2.286   4.646  10.859  0.3094 -0.6585 -0.3618
  401MOL0     O54024   2.221   4.772  10.825  0.5188  0.1485  0.2629
  401MOL0     C54025   2.087   4.783  10.828  0.4765 -0.7569  0.1549
  401MOL0     C54026   1.995   4.684  10.860 -0.0686  1.0069 -0.3276
  401MOL0     C54027   1.858   4.696  10.846  0.2917 -0.2716  0.3031
  401MOL0     C54028   1.776   4.573  10.874  0.3423 -0.8361 -0.7973
  401MOL0     C54029   1.797   4.822  10.813 -0.4236 -0.1003 -0.0692
  401MOL0     C54030   1.650   4.849  10.804 -0.0498  0.0940  0.4767
  401MOL0     O54031   1.607   4.969  10.861  0.2116 -0.1294  0.1607
  401MOL0     C54032   1.474   5.014  10.834  0.6753  0.1863 -1.1678
  401MOL0     C54033   1.384   5.022  10.942  1.2017  0.1774  0.5033
  401MOL0     C54034   1.253   5.064  10.923  0.4101  0.0313  0.2623
  401MOL0     C54035   1.199   5.088  10.798 -0.4896 -0.4540  0.2010
  401MOL0     O54036   1.066   5.125  10.789 -0.0954  0.0610  1.1533
  401MOL0     C54037   1.003   5.119  10.656 -0.6268 -0.2346 -0.9678
  401MOL0     C54038   0.849   5.147  10.676 -0.9957 -0.0568 -0.3800
  401MOL0     C54039   0.784   5.048  10.782  0.3838  0.5497  0.0393
  401MOL0     C54040   0.632   5.073  10.766  0.2655 -0.1273 -0.1608
  401MOL0     C54041   0.555   4.999  10.874  0.0018  0.4190  0.7288
  401MOL0     C54042   0.403   5.008  10.854 -0.2727 -0.1329 -0.8480
  401MOL0     C54043   0.334   5.153  10.857  0.7874 -0.0373  0.0634
  401MOL0     C54044   0.207   5.153  10.935  0.0389  0.2522  0.1105
  401MOL0    Cl54045   0.234   5.133  11.106 -0.3892 -0.1613  0.2406
  401MOL0     C54046   1.293   5.093  10.688 -0.3467  0.6582  0.4488
  401MOL0     C54047   1.427   5.051  10.706  0.8519  0.4226  0.0709
  401MOL0     O54048   1.584   4.770  10.739  0.2359 -0.2228  0.1345
  401MOL0     C54049   1.887   4.922  10.781 -0.2954 -0.0592  0.6429
  401MOL0     C54050   2.030   4.906  10.798  1.0627  0.0876  0.4976
  401MOL0     N54051   2.457   4.898  10.437  0.0367  0.1395 -0.1076
  401MOL0     N54052   2.535   4.911  10.340  0.5389 -0.4337 -0.5106
  401MOL0     C54053   3.745   4.514  10.398  0.2265  0.0675 -0.3285
  401MOL0     C54054   3.878   4.560  10.382  0.3329  0.3713  0.4598
  401MOL0     C54055   4.271   4.763  10.522 -0.7231 -0.8324 -0.6824
  401MOL0     C54056   4.377   4.706  10.594  0.5160 -0.4132  0.1851
  401MOL0     C54057   4.512   4.742  10.565 -0.2881  0.0638  0.3455
  401MOL0     C54058   4.540   4.842  10.471 -0.0258  0.3267  0.2926
  401MOL0     O54059   4.667   4.885  10.436 -0.5770 -0.7851 -0.1333
  401MOL0     C54060   4.782   4.813  10.486 -0.3593  0.1792 -0.2457
  401MOL0     C54061   4.901   4.865  10.392 -0.0893  1.0961  0.6884
  401MOL0     C54062   5.050   4.812  10.420  0.3923  0.2366  0.5473
  401MOL0     C54063   5.085   4.890  10.547 -0.1392 -0.1321  0.0435
  401MOL0     C54064   5.213   4.838  10.596  0.1136  0.1930 -0.1397
  401MOL0     C54065   5.322   4.803  10.638  0.0742 -0.3999  0.8873
  401MOL0     C54066   4.433   4.906  10.414  0.2567 -0.0590 -0.0812
  401MOL0     C54067   4.299   4.868  10.442  0.4134  0.1556  0.1920
  401MOL0     H54068   3.857   4.861  10.546 -2.3827  0.0504  0.6122
  401MOL0     H54069   3.617   4.793  10.533 -0.2655  0.4218 -1.9846
  401MOL0     H54070   3.464   4.441  10.310 -0.9933 -0.4928  0.4225
  401MOL0     H54071   3.503   4.371  10.464  0.2588  1.0094  1.8198
  401MOL0     H54072   3.272   4.373  10.394  0.5100  0.9617 -1.3810
  401MOL0     H54073   3.301   4.438  10.562  3.0118 -3.3450  0.5180
  401MOL0     H54074   3.267   4.663  10.478  0.9792  0.3652 -1.1403
  401MOL0     H54075   3.275   4.615  10.314  1.4518  0.4204  1.2456
  401MOL0     H54076   3.065   4.484  10.342 -0.2215 -0.3809  1.2006
  401MOL0     H54077   3.052   4.538  10.512  0.2779 -0.7107 -0.3865
  401MOL0     H54078   2.992   4.765  10.455  0.1752 -0.6350 -0.0848
  401MOL0     H54079   3.077   4.753  10.302  0.6913  2.5169  2.9070
  401MOL0     H54080   2.879   4.587  10.247 -0.5069 -0.8875  1.1399
  401MOL0     H54081   2.817   4.646  10.399  0.3595 -1.5745 -0.2171
  401MOL0     H54082   2.831   4.869  10.296  1.4852 -1.1109  1.1287
  401MOL0     H54083   2.879   4.791  10.145  1.8782  2.2542  1.2702
  401MOL0     H54084   2.661   4.661  10.153  6.1266 -1.2243 -0.1193
  401MOL0     H54085   2.645   4.822  10.101 -1.0150  0.3117  0.6349
  401MOL0     H54086   2.493   4.588  10.324  0.6918 -0.9318  0.5152
  401MOL0     H54087   2.307   4.790  10.616 -0.4515  0.3948 -0.9671
  401MOL0     H54088   2.255   4.672  10.495 -1.3541  1.7019  0.8817
  401MOL0     H54089   2.504   4.622  10.665 -0.0537  1.3104  0.4994
  401MOL0     H54090   2.415   4.505  10.568  0.5554  1.0887 -1.2396
  401MOL0     H54091   2.332   4.459  10.784  1.4377 -0.2359 -0.6206
  401MOL0     H54092   2.200   4.554  10.693 -0.1832  1.6856  0.7405
  401MOL0     H54093   2.384   4.667  10.904 -0.0024  0.0060  0.0321
  401MOL0     H54094   2.235   4.591  10.938  1.0687 -0.1545  0.5081
  401MOL0     H54095   2.024   4.583  10.887  1.6391  1.1645 -1.3838
  401MOL0     H54096   1.671   4.588  10.903  0.7886  1.3323 -0.1426
  401MOL0     H54097   1.781   4.503  10.790  0.2371 -2.3738  0.4393
  401MOL0     H54098   1.827   4.524  10.957  0.1940 -0.5721 -0.5463
  401MOL0     H54099   1.420   4.990  11.039  3.7558 -1.0809 -0.7799
  401MOL0     H54100   1.190   5.080  11.009 -0.4614  1.8898 -0.6656
  401MOL0     H54101   1.045   5.207  10.606 -1.2479  0.2645 -0.6218
  401MOL0     H54102   1.014   5.022  10.606  0.2153  0.1662 -1.5993
  401MOL0     H54103   0.851   5.254  10.697  1.7113 -0.3606  1.5426
  401MOL0     H54104   0.804   5.122  10.580 -0.9176 -0.1067 -0.4035
  401MOL0     H54105   0.830   5.074  10.878  0.0709 -0.7055  0.5432
  401MOL0     H54106   0.821   4.949  10.753  2.5150  1.0865  0.7143
  401MOL0     H54107   0.622   5.181  10.780  1.1852 -0.0171 -0.2666
  401MOL0     H54108   0.592   5.057  10.666  2.4020  1.6633 -1.3938
  401MOL0     H54109   0.589   5.035  10.971  1.3407 -2.1930  1.3141
  401MOL0     H54110   0.596   4.897  10.869  1.1538  0.9202 -1.3406
  401MOL0     H54111   0.386   4.958  10.759 -3.0058  1.5703 -1.3707
  401MOL0     H54112   0.355   4.948  10.933  0.0628  3.3204  2.2757
  401MOL0     H54113   0.305   5.175  10.754  2.3502 -1.6099 -0.7808
  401MOL0     H54114   0.405   5.232  10.884  1.1233 -0.7292  1.2884
  401MOL0     H54115   0.127   5.084  10.906 -0.2280  1.0200 -1.0337
  401MOL0     H54116   0.162   5.250  10.912  0.8518  0.5139 -0.3912
  401MOL0     H54117   1.271   5.139  10.592 -0.0378  1.5538  0.7914
  401MOL0     H54118   1.502   5.073  10.630 -0.9652  1.7183 -1.4282
  401MOL0     H54119   1.854   5.019  10.745 -0.4032  0.3096  1.7026
  401MOL0     H54120   2.097   4.988  10.774  0.7361  0.4991  0.9669
  401MOL0     H54121   3.711   4.426  10.344 -3.3375  0.2377  1.3298
  401MOL0     H54122   3.954   4.499  10.334 -1.6179 -1.2606 -0.7292
  401MOL0     H54123   4.355   4.627  10.666  0.0171 -0.9101 -0.5024
  401MOL0     H54124   4.590   4.680  10.609 -1.3771 -0.8457  1.0474
  401MOL0     H54125   4.808   4.836  10.589  2.3790  0.3885 -0.9005
  401MOL0     H54126   4.757   4.708  10.467 -3.7964  0.7920  0.1432
  401MOL0     H54127   4.891   4.974  10.395  0.1737  1.1462 -0.0471
  401MOL0     H54128   4.870   4.830  10.293  1.0600  1.5063  0.1661
  401MOL0     H54129   5.125   4.847  10.348 -1.1314  1.5315 -0.4939
  401MOL0     H54130   5.056   4.703  10.413  2.3084  0.4263 -3.9662
  401MOL0     H54131   5.016   4.896  10.631  0.4300 -0.3228  0.5252
  401MOL0     H54132   5.104   4.996  10.526 -1.3033  0.4640  1.7264
  401MOL0     H54133   5.416   4.774  10.680  0.8864  1.8235  0.7145
  401MOL0     H54134   4.447   4.995  10.354 -1.4908 -0.7308 -1.5658
  401MOL0     H54135   4.222   4.921  10.388  0.2212  0.3832  0.6767
  402MOL0     O54136   4.202   6.370   9.112 -0.7580  0.5567  0.6177
  402MOL0     C54137   4.261   6.317   9.206  1.0640 -0.7558  0.1784
  402MOL0     O54138   4.199   6.271   9.315 -0.6447  0.4686  0.1882
  402MOL0     C54139   4.070   6.226   9.298  0.0417  1.0847  0.0486
  402MOL0     C54140   3.967   6.312   9.323 -0.2418 -0.6126 -0.3074
  402MOL0     C54141   3.839   6.281   9.310  0.2364 -1.3246  0.2773
  402MOL0     C54142   3.799   6.156   9.267 -0.5063  0.5340  0.0597
  402MOL0     O54143   3.675   6.116   9.243  0.5021  0.0555 -0.4128
  402MOL0     C54144   3.610   6.190   9.152 -0.3031  0.4994  0.6597
  402MOL0     C54145   3.592   6.130   9.017  0.5056 -0.2824 -0.5425
  402MOL0     C54146   3.708   6.052   8.953 -0.6617  0.1253  0.3617
  402MOL0     C54147   3.701   6.025   8.797  0.2627  0.2984 -0.0425
  402MOL0     C54148   3.608   5.912   8.775 -0.9539  0.2916  0.2424
  402MOL0     C54149   3.665   5.764   8.819  0.7539 -0.8386 -0.6874
  402MOL0     C54150   3.789   5.725   8.743  0.3316  0.9103 -0.2594
  402MOL0     C54151   3.837   5.583   8.776  0.1678 -0.3818  0.7583
  402MOL0     N54152   3.733   5.480   8.764 -0.4961 -0.4093  0.5036
  402MOL0     C54153   3.689   5.410   8.878  1.4614  0.1800 -0.2681
  402MOL0     C54154   3.598   5.323   8.825  0.1064  0.7900 -0.7010
  402MOL0     C54155   3.513   5.225   8.899  0.3574 -1.2711  0.2757
  402MOL0     C54156   3.389   5.303   8.949  0.8417  0.1903  0.1476
  402MOL0     C54157   3.329   5.236   9.067 -0.0171  0.7902 -0.3136
  402MOL0     C54158   3.208   5.326   9.134  0.1847 -0.7634  0.6641
  402MOL0     O54159   3.263   5.454   9.166  0.7457 -0.6283 -0.3410
  402MOL0     C54160   3.183   5.532   9.248  0.3545  0.0429 -0.2584
  402MOL0     C54161   3.244   5.586   9.358  0.1211  0.4460 -0.6375
  402MOL0     C54162   3.174   5.638   9.473  0.8041  0.6485  0.2494
  402MOL0     C54163   3.254   5.669   9.598 -0.9806  0.7431  0.2039
  402MOL0     C54164   3.026   5.653   9.461 -0.0776  0.2027 -0.0188
  402MOL0     C54165   2.940   5.714   9.565 -0.4568  0.3917 -0.4341
  402MOL0     O54166   2.993   5.757   9.688  0.1025  0.0198 -0.2846
  402MOL0     C54167   2.919   5.850   9.758 -0.2993 -0.4913 -0.3124
  402MOL0     C54168   2.783   5.840   9.796 -0.4434  0.3702 -0.7464
  402MOL0     C54169   2.730   5.943   9.879 -0.7579  0.0379  0.8277
  402MOL0     C54170   2.806   6.045   9.934 -0.2863  0.1027 -0.1477
  402MOL0     O54171   2.745   6.125  10.024 -0.4178 -0.1812 -0.7003
  402MOL0     C54172   2.745   6.267   9.998 -0.1039 -0.3865  0.3460
  402MOL0     C54173   2.649   6.300   9.876  0.4957 -0.4098  0.4108
  402MOL0     C54174   2.501   6.266   9.916 -0.1996 -0.1203  0.5304
  402MOL0     C54175   2.424   6.207   9.795 -0.9579 -0.3046 -0.0975
  402MOL0     C54176   2.276   6.178   9.807  0.1484 -0.4803  0.7819
  402MOL0     C54177   2.232   6.098   9.675 -1.0477  0.2606 -0.3987
  402MOL0     C54178   2.081   6.065   9.692  0.9242  0.3379  0.2334
  402MOL0     C54179   2.025   5.986   9.575  0.5700  0.3724 -0.2049
  402MOL0    Cl54180   2.114   5.828   9.573 -0.2655 -0.6739  0.1160
  402MOL0     C54181   2.940   6.049   9.912 -0.5458  0.7584  1.4246
  402MOL0     C54182   2.997   5.953   9.818  0.5901  0.0233 -0.3739
  402MOL0     O54183   2.824   5.736   9.525  0.3045 -0.5674 -0.2842
  402MOL0     C54184   2.966   5.603   9.340 -0.4158  0.2022 -0.6737
  402MOL0     C54185   3.042   5.546   9.240 -0.5355 -0.0003  0.2856
  402MOL0     N54186   3.584   5.343   8.690  0.1052 -0.0613 -0.2273
  402MOL0     N54187   3.665   5.436   8.645 -0.1581  0.4463 -0.2852
  402MOL0     C54188   3.901   6.056   9.248  0.2535 -0.2890 -0.1471
  402MOL0     C54189   4.038   6.096   9.264 -0.4708  0.0845  0.0984
  402MOL0     C54190   4.404   6.300   9.192  0.2719  0.4919  0.9108
  402MOL0     C54191   4.467   6.355   9.078 -0.0875 -0.0668 -0.0297
  402MOL0     C54192   4.597   6.328   9.048 -0.0519 -0.1745 -0.3172
  402MOL0     C54193   4.670   6.248   9.134  0.2669  0.6373  0.4943
  402MOL0     O54194   4.797   6.205   9.111  0.3563 -0.4706 -0.0488
  402MOL0     C54195   4.884   6.281   9.035  0.4062 -1.0174  0.2938
  402MOL0     C54196   5.024   6.230   9.051 -0.3945 -1.0015 -0.1306
  402MOL0     C54197   5.133   6.314   8.996 -0.8403  0.2398 -0.2392
  402MOL0     C54198   5.266   6.245   8.999  0.1809 -0.4162  0.1342
  402MOL0     C54199   5.280   6.157   8.885 -0.7388 -0.0080  1.2680
  402MOL0     C54200   5.301   6.101   8.780  0.1759  0.5202  0.1221
  402MOL0     C54201   4.607   6.192   9.242 -0.2690 -0.1033 -0.2158
  402MOL0     C54202   4.474   6.212   9.271 -0.4819 -0.3243 -0.0401
  402MOL0     H54203   3.997   6.412   9.354 -0.8475  1.0653 -4.4698
  402MOL0     H54204   3.761   6.354   9.326 -0.2050 -1.5259 -0.8520
  402MOL0     H54205   3.510   6.212   9.189 -1.3388  0.6686 -2.0313
  402MOL0     H54206   3.649   6.292   9.142  1.7513 -0.4091 -1.6303
  402MOL0     H54207   3.512   6.059   9.038  2.0521 -1.9701 -0.1217
  402MOL0     H54208   3.557   6.211   8.952 -0.7111  0.5151  1.0250
  402MOL0     H54209   3.789   6.121   8.978 -1.1567 -0.1510  3.0926
  402MOL0     H54210   3.706   5.953   8.998 -0.8689 -0.7855 -1.5727
  402MOL0     H54211   3.672   6.121   8.754 -0.0240  0.3326  0.2218
  402MOL0     H54212   3.800   5.996   8.759  1.0441  0.8551  1.4780
  402MOL0     H54213   3.522   5.945   8.835  0.2153 -1.2409  2.9264
  402MOL0     H54214   3.596   5.912   8.666  1.9913 -0.1535 -0.1667
  402MOL0     H54215   3.679   5.754   8.927 -4.7078 -1.7322  0.2292
  402MOL0     H54216   3.581   5.707   8.780  0.7336  0.2263 -2.2716
  402MOL0     H54217   3.766   5.728   8.637  1.1554 -0.0221 -0.4826
  402MOL0     H54218   3.865   5.798   8.773 -0.7145  2.0899 -0.4125
  402MOL0     H54219   3.866   5.593   8.881 -2.1259  1.9545  1.2734
  402MOL0     H54220   3.926   5.552   8.720 -0.0735  0.5983 -0.2222
  402MOL0     H54221   3.722   5.423   8.980  0.4969 -1.6458  0.3017
  402MOL0     H54222   3.489   5.142   8.833  2.0427 -0.5115 -1.3911
  402MOL0     H54223   3.566   5.186   8.987 -0.7865  0.0889  1.6302
  402MOL0     H54224   3.308   5.308   8.876 -1.8388 -1.4875  2.7454
  402MOL0     H54225   3.415   5.404   8.981 -1.0006  0.5423  0.6514
  402MOL0     H54226   3.398   5.206   9.147 -1.3174 -1.1775  0.1414
  402MOL0     H54227   3.283   5.142   9.036  1.9623 -1.4061  2.7990
  402MOL0     H54228   3.174   5.274   9.225 -2.3202 -1.3259 -0.4861
  402MOL0     H54229   3.121   5.338   9.069  0.6181 -1.5490 -0.0927
  402MOL0     H54230   3.352   5.574   9.355  0.1577  0.4274  0.4919
  402MOL0     H54231   3.218   5.748   9.664  0.4370  0.2930  1.5849
  402MOL0     H54232   3.263   5.575   9.653  0.2692  1.0623  0.5808
  402MOL0     H54233   3.359   5.696   9.580 -0.9606  1.4988  1.3384
  402MOL0     H54234   2.730   5.751   9.765  0.1524  1.0658 -4.2256
  402MOL0     H54235   2.624   5.947   9.902 -0.9536 -0.7745  0.1670
  402MOL0     H54236   2.709   6.319  10.088  0.5299 -2.5010  1.8880
  402MOL0     H54237   2.847   6.305   9.987 -0.1367  0.7631  2.9897
  402MOL0     H54238   2.644   6.409   9.873  0.1918 -0.3323  2.3088
  402MOL0     H54239   2.686   6.256   9.783 -0.0858 -0.6218  0.2785
  402MOL0     H54240   2.441   6.347   9.958  0.5704  1.0843 -0.6233
  402MOL0     H54241   2.508   6.187   9.992  3.0110  0.1792  0.6802
  402MOL0     H54242   2.439   6.276   9.711  0.6091 -0.7503 -0.2349
  402MOL0     H54243   2.471   6.110   9.776  0.9859  0.4087  0.7403
  402MOL0     H54244   2.219   6.271   9.810  0.0520 -0.3900 -1.9377
  402MOL0     H54245   2.243   6.120   9.894 -1.8072  1.7969  1.6512
  402MOL0     H54246   2.258   6.160   9.588  3.1758 -1.7496 -0.8341
  402MOL0     H54247   2.291   6.006   9.671  0.9270  1.3758  1.2681
  402MOL0     H54248   2.022   6.156   9.708  1.5139  0.6975  0.3903
  402MOL0     H54249   2.057   6.002   9.778 -1.3596 -0.4909 -0.9273
  402MOL0     H54250   2.031   6.046   9.484 -0.7203  0.7963 -0.0256
  402MOL0     H54251   1.921   5.956   9.594  0.4620  0.2195 -0.9746
  402MOL0     H54252   3.001   6.125   9.960 -0.6813  1.8556 -0.0670
  402MOL0     H54253   3.105   5.953   9.814  0.6949  1.5133  1.1502
  402MOL0     H54254   2.858   5.589   9.334 -0.5967  1.4670 -0.6834
  402MOL0     H54255   2.992   5.494   9.158 -2.8316 -0.9199  2.1608
  402MOL0     H54256   3.877   5.954   9.217 -1.8597  0.2334 -0.3330
  402MOL0     H54257   4.117   6.024   9.244 -2.4358 -1.6467 -1.9475
  402MOL0     H54258   4.404   6.414   9.013  1.0533  2.0229  0.6779
  402MOL0     H54259   4.642   6.358   8.954  0.2857  1.0008  0.2006
  402MOL0     H54260   4.851   6.272   8.931  0.4125  1.2316  0.0497
  402MOL0     H54261   4.872   6.383   9.072  1.1881 -1.5946  2.2344
  402MOL0     H54262   5.024   6.130   9.005 -1.6596 -0.8187 -0.5740
  402MOL0     H54263   5.038   6.211   9.158 -2.0179 -2.3579 -0.1239
  402MOL0     H54264   5.148   6.407   9.052 -0.8592  1.6790 -2.5258
  402MOL0     H54265   5.108   6.335   8.892 -3.7658 -0.3132  0.2702
  402MOL0     H54266   5.297   6.194   9.090  0.1297  0.5101  0.6951
  402MOL0     H54267   5.346   6.318   8.982 -0.1968 -0.7690 -4.6481
  402MOL0     H54268   5.332   6.054   8.689  0.6559 -0.6650  0.8700
  402MOL0     H54269   4.669   6.131   9.307  1.5695 -0.2961 -2.0250
  402MOL0     H54270   4.440   6.170   9.365  0.6826 -2.5015 -0.5147
  403MOL0     O54271   9.995   0.133   7.689  0.3227 -0.0190 -0.5461
  403MOL0     C54272   9.993   0.170   7.573 -0.3127  0.4822 -0.6018
  403MOL0     O54273   9.919   0.276   7.528  0.9409  0.1282  0.4793
  403MOL0     C54274   9.800   0.302   7.600  0.1639 -0.0670  1.2298
  403MOL0     C54275   9.690   0.205   7.616  0.4668  0.2818  0.6737
  403MOL0     C54276   9.575   0.252   7.675 -0.8898 -0.2235  0.7209
  403MOL0     C54277   9.546   0.389   7.715  0.1218  0.0161  0.2907
  403MOL0     O54278   9.431   0.445   7.765  0.1549  0.3630 -0.4666
  403MOL0     C54279   9.323   0.356   7.779  0.6146  0.3366  0.0452
  403MOL0     C54280   9.224   0.410   7.879 -0.5791 -0.5550 -0.1087
  403MOL0     C54281   9.091   0.343   7.877  0.3150 -0.1222 -0.3807
  403MOL0     C54282   8.997   0.392   7.987  0.5001  0.5437 -0.2697
  403MOL0     C54283   8.857   0.335   7.956 -0.7331  0.0926  0.4236
  403MOL0     C54284   8.771   0.319   8.073  0.2214  0.1316  0.2707
  403MOL0     C54285   8.628   0.289   8.026  1.1230  0.0563 -0.1919
  403MOL0     C54286   8.517   0.313   8.123 -0.1699  0.4133 -0.9801
  403MOL0     N54287   8.385   0.317   8.052 -0.4960  0.5033 -0.7253
  403MOL0     C54288   8.330   0.436   8.011 -0.4636  0.0759 -0.3276
  403MOL0     C54289   8.249   0.389   7.917 -0.6890 -0.8373 -0.5790
  403MOL0     C54290   8.184   0.481   7.815  0.8108  0.9826 -0.6987
  403MOL0     C54291   8.081   0.578   7.886 -0.7133 -0.3535  0.5314
  403MOL0     C54292   8.037   0.690   7.791 -0.1382 -0.2494 -0.4961
  403MOL0     C54293   7.915   0.761   7.844  0.4091  0.2838  0.5696
  403MOL0     O54294   7.874   0.846   7.736 -0.7750 -0.1077 -0.7439
  403MOL0     C54295   7.742   0.876   7.729  0.9077 -0.5382  0.3129
  403MOL0     C54296   7.653   0.779   7.701 -0.0103  0.8983 -0.4120
  403MOL0     C54297   7.513   0.800   7.683 -0.7053  0.1754 -0.0948
  403MOL0     C54298   7.436   0.676   7.667  0.5672  0.6638  0.1763
  403MOL0     C54299   7.461   0.935   7.680 -0.4455 -0.1793 -0.0810
  403MOL0     C54300   7.319   0.976   7.673 -0.3976 -0.5720 -0.4567
  403MOL0     O54301   7.291   1.099   7.727  0.0470 -0.3657  0.0252
  403MOL0     C54302   7.154   1.128   7.722  0.0887 -0.5122  0.1381
  403MOL0     C54303   7.118   1.250   7.667 -0.2785 -0.6021  0.0756
  403MOL0     C54304   6.985   1.289   7.666 -0.0961 -0.1018  0.2596
  403MOL0     C54305   6.890   1.208   7.728  0.5415 -0.1846  1.1329
  403MOL0     O54306   6.756   1.226   7.742 -0.7319  0.3654  0.6226
  403MOL0     C54307   6.702   1.330   7.661 -0.5367  0.2815  0.1902
  403MOL0     C54308   6.568   1.375   7.716 -0.4437  0.2961  0.1426
  403MOL0     C54309   6.579   1.399   7.864  0.7702  0.1339  0.3996
  403MOL0     C54310   6.476   1.512   7.906 -1.3552 -0.0120  0.1865
  403MOL0     C54311   6.490   1.530   8.063  0.3499 -0.5535  0.4153
  403MOL0     C54312   6.619   1.581   8.113  0.6615 -0.1195 -0.4771
  403MOL0     C54313   6.611   1.597   8.263  0.4172  0.8434 -0.8249
  403MOL0     C54314   6.722   1.683   8.316  0.4946 -0.1662 -0.2613
  403MOL0    Cl54315   6.793   1.614   8.464  0.4776 -0.2317 -0.3679
  403MOL0     C54316   6.928   1.088   7.793 -1.3144  0.0062 -0.1637
  403MOL0     C54317   7.062   1.048   7.788  0.0685  0.6908 -0.3451
  403MOL0     O54318   7.256   0.917   7.592  0.3117 -0.1858  0.9737
  403MOL0     C54319   7.550   1.036   7.698  0.4419 -0.5923  0.6044
  403MOL0     C54320   7.688   1.004   7.722  0.3721  0.8629 -0.1836
  403MOL0     N54321   8.223   0.260   7.927  0.6674 -0.0683 -0.3173
  403MOL0     N54322   8.301   0.213   8.022 -0.0841 -0.3306  0.3491
  403MOL0     C54323   9.651   0.471   7.695  0.3262 -0.3964  0.5361
  403MOL0     C54324   9.777   0.432   7.647  0.2009 -0.3567 -0.2067
  403MOL0     C54325  10.103   0.122   7.477  0.2767 -0.1767 -0.0239
  403MOL0     C54326  10.215   0.057   7.518  0.7613  0.1157 -0.5152
  403MOL0     C54327  10.311   0.014   7.426  0.1723 -0.2249  0.1344
  403MOL0     C54328  10.302   0.050   7.290  0.0506  0.1255  0.4084
  403MOL0     O54329  10.394   0.034   7.189  0.2690 -0.2681  0.4089
  403MOL0     C54330  10.395  -0.098   7.134 -0.3040  0.1428 -0.9694
  403MOL0     C54331  10.500  -0.102   7.024  1.1553 -0.1106 -0.0910
  403MOL0     C54332  10.651  -0.103   7.064 -0.2517  0.2208 -0.0152
  403MOL0     C54333  10.711   0.038   7.053  0.3870  0.1733 -0.1723
  403MOL0     C54334  10.854   0.046   7.085  0.5068 -0.3506  0.2465
  403MOL0     C54335  10.969   0.065   7.126 -0.3399 -0.0751 -0.2220
  403MOL0     C54336  10.193   0.115   7.243  0.7490  0.0334  0.4232
  403MOL0     C54337  10.090   0.147   7.339 -0.8192 -1.0564  0.5227
  403MOL0     H54338   9.704   0.101   7.589 -1.1911  0.3214 -0.4829
  403MOL0     H54339   9.499   0.175   7.683 -0.3130 -0.8245  0.5769
  403MOL0     H54340   9.270   0.357   7.684 -0.0733  0.1002  0.4171
  403MOL0     H54341   9.360   0.256   7.805 -2.4721 -1.0707 -0.5225
  403MOL0     H54342   9.264   0.402   7.981 -2.3193  1.1527  0.7659
  403MOL0     H54343   9.209   0.517   7.861  0.1702 -0.6576 -1.4553
  403MOL0     H54344   9.049   0.352   7.776  1.5366  0.5188 -0.8475
  403MOL0     H54345   9.102   0.235   7.887 -1.1680 -0.3384 -0.8138
  403MOL0     H54346   9.012   0.361   8.090 -0.4902  0.4595 -0.1397
  403MOL0     H54347   8.994   0.502   7.989  0.6313  0.5622 -0.7893
  403MOL0     H54348   8.817   0.396   7.874 -2.1046  0.7390  1.5283
  403MOL0     H54349   8.864   0.238   7.905  1.1752  0.2360  0.3553
  403MOL0     H54350   8.801   0.238   8.140 -3.0042 -0.3107  1.3306
  403MOL0     H54351   8.777   0.420   8.114  0.8497 -0.1417  0.8691
  403MOL0     H54352   8.607   0.342   7.933 -1.1566 -0.7379 -0.2060
  403MOL0     H54353   8.621   0.182   8.000 -1.4439  0.5580 -2.0814
  403MOL0     H54354   8.523   0.409   8.176  2.5806  1.0038 -2.1783
  403MOL0     H54355   8.523   0.228   8.191  0.8120 -0.5714 -2.2265
  403MOL0     H54356   8.372   0.536   8.014  2.1475 -0.9405 -0.7674
  403MOL0     H54357   8.268   0.538   7.775  1.9964 -0.3173 -0.1388
  403MOL0     H54358   8.133   0.430   7.732 -1.2362  1.7266  0.0388
  403MOL0     H54359   8.126   0.623   7.975 -0.3146 -1.8557  1.1170
  403MOL0     H54360   7.995   0.521   7.921 -0.2824 -1.7218 -0.5473
  403MOL0     H54361   8.013   0.659   7.689  1.6012 -0.7890 -0.7848
  403MOL0     H54362   8.122   0.757   7.776  1.5687 -2.3136 -0.5298
  403MOL0     H54363   7.934   0.827   7.930  1.8200  1.0098 -0.2713
  403MOL0     H54364   7.839   0.695   7.886 -1.9886  4.4032  3.4943
  403MOL0     H54365   7.678   0.674   7.713 -2.2531  0.2534 -0.8774
  403MOL0     H54366   7.414   0.678   7.560  0.2316 -2.3793  0.1023
  403MOL0     H54367   7.496   0.587   7.684 -2.1333 -2.5750 -4.8108
  403MOL0     H54368   7.345   0.669   7.727 -1.6747 -0.0697 -3.0615
  403MOL0     H54369   7.196   1.309   7.621  0.9790 -0.9455  1.6623
  403MOL0     H54370   6.960   1.379   7.610 -1.8978 -1.8538 -1.9153
  403MOL0     H54371   6.762   1.421   7.662 -0.5089  0.5831 -4.7903
  403MOL0     H54372   6.703   1.299   7.556  0.4723 -0.9235  0.5373
  403MOL0     H54373   6.532   1.465   7.666  2.5036  0.7440 -1.3953
  403MOL0     H54374   6.499   1.291   7.701 -0.8214  0.4535  0.9779
  403MOL0     H54375   6.682   1.422   7.893  0.4337  1.9546  0.2814
  403MOL0     H54376   6.555   1.306   7.917 -0.2085 -0.2055 -0.6174
  403MOL0     H54377   6.497   1.606   7.855 -3.9527  0.6414  0.1691
  403MOL0     H54378   6.371   1.486   7.889 -1.4240  0.6564 -0.4598
  403MOL0     H54379   6.481   1.435   8.115 -0.0854  0.9932  3.3628
  403MOL0     H54380   6.412   1.599   8.096  3.0275  2.4061  1.0243
  403MOL0     H54381   6.698   1.510   8.087 -0.3864 -1.8468  0.8150
  403MOL0     H54382   6.631   1.678   8.065 -0.1241 -0.6550 -1.8086
  403MOL0     H54383   6.617   1.498   8.310  1.7305  0.9265 -0.7844
  403MOL0     H54384   6.518   1.635   8.306 -1.6800 -3.6506 -0.7362
  403MOL0     H54385   6.691   1.787   8.325  0.6963 -0.0454 -0.9021
  403MOL0     H54386   6.805   1.681   8.244 -1.4402 -0.8457 -2.6217
  403MOL0     H54387   6.857   1.025   7.845  0.1940  0.7454  3.0011
  403MOL0     H54388   7.097   0.967   7.852  0.1955  2.6239  2.1882
  403MOL0     H54389   7.510   1.134   7.675  1.9707 -0.4648 -1.8015
  403MOL0     H54390   7.756   1.089   7.722  1.5995 -0.1097  0.0511
  403MOL0     H54391   9.654   0.579   7.708 -0.2920 -0.0403 -1.8152
  403MOL0     H54392   9.857   0.497   7.613  0.7214 -2.8511 -4.5889
  403MOL0     H54393  10.225   0.037   7.624 -3.5570 -0.7446 -0.0706
  403MOL0     H54394  10.398  -0.036   7.467 -1.3184 -0.5812  3.1254
  403MOL0     H54395  10.407  -0.173   7.212 -1.0978 -0.6560 -1.5850
  403MOL0     H54396  10.298  -0.118   7.087 -0.6292 -0.4652 -0.0567
  403MOL0     H54397  10.482  -0.022   6.953 -0.1533 -0.9663 -0.7542
  403MOL0     H54398  10.471  -0.193   6.971 -0.6043  0.2453  0.2240
  403MOL0     H54399  10.704  -0.166   6.992  0.4985 -1.8402  2.2326
  403MOL0     H54400  10.664  -0.150   7.161  0.7037 -0.8760 -0.6450
  403MOL0     H54401  10.656   0.097   7.126  0.0517 -0.5608  0.1783
  403MOL0     H54402  10.696   0.073   6.951 -0.6439 -0.8308 -0.3904
  403MOL0     H54403  11.075   0.061   7.144 -0.1381 -0.8557 -1.5000
  403MOL0     H54404  10.185   0.138   7.137 -0.2757 -0.0614  0.4687
  403MOL0     H54405  10.003   0.205   7.310  1.5403  1.7257 -1.6121
  404MOL0     O54406   8.708   8.952  10.890  0.2651 -0.3504 -0.2486
  404MOL0     C54407   8.752   8.965  11.008 -0.3174 -0.1780  0.2707
  404MOL0     O54408   8.674   8.968  11.126 -0.1023 -0.9303  0.0116
  404MOL0     C54409   8.538   8.944  11.101 -0.2465  0.2603 -0.0010
  404MOL0     C54410   8.449   9.025  11.028  0.1846  0.0003 -0.4214
  404MOL0     C54411   8.318   8.997  11.011  0.6074  0.2599 -0.0807
  404MOL0     C54412   8.256   8.883  11.059 -0.0343  0.0428  0.2651
  404MOL0     O54413   8.131   8.872  11.024  0.0818  0.3174  0.5492
  404MOL0     C54414   8.057   8.752  11.061  0.7068 -0.7597 -0.0988
  404MOL0     C54415   7.910   8.749  11.017 -0.0867 -0.2569  0.2876
  404MOL0     C54416   7.840   8.861  11.085  0.1459  0.2816 -0.0863
  404MOL0     C54417   7.688   8.851  11.061  0.0493 -0.3582  0.2950
  404MOL0     C54418   7.607   8.915  11.183 -0.4170 -0.0767  0.1342
  404MOL0     C54419   7.457   8.954  11.151  0.0646 -0.4178  0.3045
  404MOL0     C54420   7.360   8.989  11.267  0.6752 -0.5887  0.3437
  404MOL0     C54421   7.414   9.089  11.376 -0.5113  0.2141 -0.4209
  404MOL0     N54422   7.306   9.115  11.472  0.2109 -0.1258 -0.4263
  404MOL0     C54423   7.295   9.039  11.584 -0.2657 -0.4043  0.4097
  404MOL0     C54424   7.176   9.079  11.639 -0.0164 -0.4666 -0.2157
  404MOL0     C54425   7.133   9.033  11.778  0.4916  0.3942 -0.6695
  404MOL0     C54426   7.071   8.893  11.779  0.4537 -0.3549  1.0533
  404MOL0     C54427   7.019   8.849  11.918 -0.3780  0.1745  0.0064
  404MOL0     C54428   7.102   8.755  12.019  0.0974 -0.7458  0.4241
  404MOL0     O54429   7.054   8.749  12.154  0.1380  0.0727  0.3397
  404MOL0     C54430   6.930   8.702  12.175  0.4842 -0.2336  0.0387
  404MOL0     C54431   6.867   8.601  12.105 -0.6775 -0.4480  1.0803
  404MOL0     C54432   6.735   8.566  12.139 -0.5329 -0.2555 -0.1542
  404MOL0     C54433   6.666   8.457  12.054 -0.2284 -0.5904 -0.1634
  404MOL0     C54434   6.676   8.615  12.254  0.9189 -0.1990  0.1900
  404MOL0     C54435   6.534   8.592  12.295 -0.5887 -0.6861 -0.1177
  404MOL0     O54436   6.497   8.658  12.412  0.1509  0.7002 -0.5755
  404MOL0     C54437   6.376   8.639  12.472 -0.0906 -0.1270  0.4180
  404MOL0     C54438   6.378   8.613  12.605  0.0740 -1.1158 -0.2013
  404MOL0     C54439   6.265   8.594  12.680  0.2074  0.8219  0.5678
  404MOL0     C54440   6.140   8.616  12.619 -0.9020 -0.0257  0.7366
  404MOL0     O54441   6.024   8.628  12.687  0.1832  0.9242 -0.6229
  404MOL0     C54442   5.973   8.493  12.721 -0.0516  0.4244  0.7832
  404MOL0     C54443   5.824   8.502  12.732 -0.4819  0.0062 -0.2045
  404MOL0     C54444   5.761   8.360  12.727  0.0064  0.1273 -0.0559
  404MOL0     C54445   5.620   8.367  12.776  0.8593 -0.5699  0.2563
  404MOL0     C54446   5.546   8.237  12.780  0.3363  0.8461  0.0193
  404MOL0     C54447   5.415   8.254  12.850  0.4479  0.0874  0.4958
  404MOL0     C54448   5.357   8.113  12.886 -0.4833  0.3505 -0.3198
  404MOL0     C54449   5.218   8.130  12.946 -0.4983 -0.8707  0.1638
  404MOL0    Cl54450   5.153   7.971  12.976  0.0084  0.0183 -0.1530
  404MOL0     C54451   6.136   8.626  12.479 -0.1806  0.8355  0.0645
  404MOL0     C54452   6.251   8.628  12.406  0.7427 -0.4363  0.6060
  404MOL0     O54453   6.462   8.524  12.220 -0.0827  0.2338  0.4488
  404MOL0     C54454   6.747   8.703  12.341  0.2383  0.0944  0.6530
  404MOL0     C54455   6.873   8.747  12.300 -0.7700 -0.5667  0.5062
  404MOL0     N54456   7.114   9.171  11.554  0.6270  0.8905 -0.7143
  404MOL0     N54457   7.201   9.198  11.459 -0.7010 -0.0516 -0.2811
  404MOL0     C54458   8.338   8.794  11.137 -0.6766  0.1768 -0.1639
  404MOL0     C54459   8.477   8.826  11.155  0.3963 -0.0821 -0.1033
  404MOL0     C54460   8.899   8.963  11.032 -0.0212 -0.5216 -0.1212
  404MOL0     C54461   8.987   8.928  10.934  0.0543  0.5643  0.2058
  404MOL0     C54462   9.126   8.921  10.959  0.1318  0.4623 -0.4673
  404MOL0     C54463   9.175   8.936  11.090  0.6033 -0.5890 -0.1189
  404MOL0     O54464   9.302   8.901  11.112 -0.6933 -0.1388  0.9257
  404MOL0     C54465   9.381   9.003  11.185 -0.4549 -0.1104  0.1229
  404MOL0     C54466   9.532   8.954  11.203  0.0112  0.2776  0.1734
  404MOL0     C54467   9.626   8.975  11.080 -0.1228 -0.7092 -0.3125
  404MOL0     C54468   9.677   9.130  11.083 -0.7103  0.9797 -0.2911
  404MOL0     C54469   9.745   9.177  11.205  0.1400  0.4468 -0.4319
  404MOL0     C54470   9.791   9.214  11.310 -0.4869 -0.4434 -0.1101
  404MOL0     C54471   9.084   8.971  11.197 -1.1778  0.1446 -1.1695
  404MOL0     C54472   8.951   8.986  11.163  0.2435 -0.2043 -0.1871
  404MOL0     H54473   8.495   9.115  10.990  0.4789  0.7938  1.6829
  404MOL0     H54474   8.265   9.068  10.948  0.7109  0.0913 -0.3550
  404MOL0     H54475   8.114   8.664  11.029  2.6500  1.0501 -1.9532
  404MOL0     H54476   8.055   8.741  11.170  1.8381  1.7934  0.2603
  404MOL0     H54477   7.896   8.748  10.908 -2.1419  1.2382  0.4971
  404MOL0     H54478   7.861   8.657  11.052  3.0430 -1.6287  1.4512
  404MOL0     H54479   7.853   8.867  11.194  1.1623  0.2173 -0.1978
  404MOL0     H54480   7.868   8.958  11.043  3.3916 -0.2976  0.4566
  404MOL0     H54481   7.685   8.900  10.963  0.5431 -2.1104 -0.6337
  404MOL0     H54482   7.649   8.750  11.047  1.6311 -0.6995 -2.2958
  404MOL0     H54483   7.614   8.842  11.264 -2.9295 -1.1303 -0.5167
  404MOL0     H54484   7.667   9.002  11.211 -0.6467  0.1886 -0.1945
  404MOL0     H54485   7.457   9.040  11.084  0.2259  2.7536  4.0402
  404MOL0     H54486   7.404   8.872  11.102 -0.3815 -1.3563  2.2394
  404MOL0     H54487   7.270   9.036  11.225  0.8696 -2.0047 -1.8285
  404MOL0     H54488   7.328   8.899  11.319  3.1899 -1.1047  1.1124
  404MOL0     H54489   7.447   9.187  11.338  0.6629 -0.3304 -0.8674
  404MOL0     H54490   7.505   9.046  11.419  1.0008  2.1722 -1.4825
  404MOL0     H54491   7.365   8.972  11.632 -1.5260 -1.0156  1.4700
  404MOL0     H54492   7.221   9.048  11.842 -0.4418  0.3311  0.6646
  404MOL0     H54493   7.051   9.097  11.813  0.4293 -0.4788  0.8906
  404MOL0     H54494   7.146   8.822  11.743  2.0288  1.7590 -0.0940
  404MOL0     H54495   6.995   8.882  11.702  1.7856 -0.5262 -0.2764
  404MOL0     H54496   6.928   8.796  11.889 -0.2192  0.8266 -1.7960
  404MOL0     H54497   7.000   8.940  11.976 -0.5462 -0.9739  1.8267
  404MOL0     H54498   7.203   8.795  12.006 -1.3424  2.2155 -4.7857
  404MOL0     H54499   7.100   8.653  11.980  0.0326 -1.0148  1.1155
  404MOL0     H54500   6.923   8.559  12.022 -1.0888  0.2575  0.4302
  404MOL0     H54501   6.734   8.403  11.988  0.1895 -0.8158  0.4481
  404MOL0     H54502   6.621   8.380  12.117 -0.8436 -1.0528 -1.1375
  404MOL0     H54503   6.587   8.499  11.991 -0.9520  4.2648  3.3996
  404MOL0     H54504   6.475   8.610  12.654 -0.4068 -0.2727  0.8399
  404MOL0     H54505   6.256   8.579  12.787 -1.5631 -1.3136  0.1793
  404MOL0     H54506   6.000   8.423  12.642 -0.5409  2.0461 -0.8770
  404MOL0     H54507   6.025   8.455  12.810 -0.3887 -2.1157 -0.0080
  404MOL0     H54508   5.782   8.556  12.818  0.1488  0.8053 -0.3921
  404MOL0     H54509   5.794   8.564  12.647  2.5897  1.0129 -0.6871
  404MOL0     H54510   5.815   8.298  12.800  0.0275  0.0444 -0.1404
  404MOL0     H54511   5.769   8.318  12.626 -0.7299 -1.7458  0.6166
  404MOL0     H54512   5.624   8.414  12.875  2.0508 -2.1744  1.0122
  404MOL0     H54513   5.569   8.436  12.708 -1.1874 -0.9148  1.3855
  404MOL0     H54514   5.605   8.154  12.820 -1.2613 -1.6795 -2.5438
  404MOL0     H54515   5.538   8.205  12.676  4.6737 -0.7151 -0.0363
  404MOL0     H54516   5.422   8.307  12.945  1.3999 -2.3246  1.8644
  404MOL0     H54517   5.356   8.329  12.796  2.0805  0.1495 -1.3167
  404MOL0     H54518   5.436   8.072  12.949  1.3867  2.3077 -1.2573
  404MOL0     H54519   5.339   8.055  12.795  0.9977  1.7261 -1.5389
  404MOL0     H54520   5.158   8.188  12.875 -0.3312  0.8096  1.3461
  404MOL0     H54521   5.210   8.182  13.041 -1.7702  2.5171 -1.6219
  404MOL0     H54522   6.040   8.637  12.430  0.0328  1.7691 -0.1589
  404MOL0     H54523   6.240   8.637  12.299  0.0782  1.2753  0.7773
  404MOL0     H54524   6.718   8.731  12.441 -2.0497 -1.6123  0.5340
  404MOL0     H54525   6.936   8.815  12.356 -0.2991  1.3456 -2.1405
  404MOL0     H54526   8.298   8.706  11.187 -1.0230 -0.0302 -0.8043
  404MOL0     H54527   8.552   8.763  11.201  1.7676 -0.2237 -2.3698
  404MOL0     H54528   8.946   8.893  10.840  0.1007  2.3217 -0.5078
  404MOL0     H54529   9.187   8.889  10.874 -1.0233  0.1477 -1.2028
  404MOL0     H54530   9.385   9.097  11.129 -0.1210 -0.7868 -1.0185
  404MOL0     H54531   9.336   9.004  11.285 -1.2901  0.6739 -0.2383
  404MOL0     H54532   9.527   8.850  11.233  2.6335  0.4528  1.4174
  404MOL0     H54533   9.572   8.995  11.296 -0.1039 -2.9964  1.7807
  404MOL0     H54534   9.568   8.949  10.991  0.1233  0.7195 -0.9074
  404MOL0     H54535   9.713   8.909  11.087  0.7558  0.3835 -0.7388
  404MOL0     H54536   9.591   9.196  11.068 -1.8862 -0.3719  0.2742
  404MOL0     H54537   9.747   9.141  11.000 -2.0832  0.0138 -1.6338
  404MOL0     H54538   9.821   9.251  11.406 -1.3940  3.4101 -1.1360
  404MOL0     H54539   9.110   8.979  11.302  3.8002  1.3330 -2.2261
  404MOL0     H54540   8.874   9.014  11.234 -1.3780 -0.2735 -1.8461
  405MOL0     O54541   1.309   1.666  10.490  0.3690  0.2968  0.3072
  405MOL0     C54542   1.309   1.767  10.560 -0.1382 -0.4825  1.0140
  405MOL0     O54543   1.196   1.820  10.628  0.1190 -0.2265  0.2382
  405MOL0     C54544   1.072   1.773  10.605  0.0063 -0.6268  0.9848
  405MOL0     C54545   1.017   1.729  10.484 -0.3583 -0.3327 -0.4507
  405MOL0     C54546   0.876   1.717  10.477  0.0687  0.9104  0.5036
  405MOL0     C54547   0.791   1.729  10.586 -1.1519  0.1729  0.6309
  405MOL0     O54548   0.660   1.688  10.597  0.1124 -0.2702 -0.0631
  405MOL0     C54549   0.585   1.659  10.475 -0.3747  0.1554 -0.2910
  405MOL0     C54550   0.456   1.589  10.512 -0.2000 -1.1311 -0.3224
  405MOL0     C54551   0.488   1.466  10.594 -1.1528 -0.4518  0.1006
  405MOL0     C54552   0.380   1.358  10.600  0.1763 -0.1741  0.2569
  405MOL0     C54553   0.248   1.399  10.673 -0.1303  0.9794  0.9630
  405MOL0     C54554   0.261   1.357  10.820  0.1778  0.7728 -0.1553
  405MOL0     C54555   0.136   1.398  10.905  0.0140 -0.0677  0.3583
  405MOL0     C54556   0.023   1.296  10.864 -1.2056 -0.2514  0.3060
  405MOL0     N54557  -0.108   1.337  10.932  0.0640 -0.2843 -0.3914
  405MOL0     C54558  -0.128   1.337  11.068 -0.6670 -0.1242  0.3897
  405MOL0     C54559  -0.261   1.363  11.079 -1.0080 -0.1520 -0.4969
  405MOL0     C54560  -0.329   1.351  11.212  0.1600 -0.0631  0.0544
  405MOL0     C54561  -0.380   1.485  11.268  0.0727  0.2646 -0.5317
  405MOL0     C54562  -0.430   1.459  11.407  0.0904 -0.0358  0.1720
  405MOL0     C54563  -0.463   1.584  11.488  0.1791  0.5406 -0.1923
  405MOL0     O54564  -0.578   1.650  11.428 -0.0355  0.2583  0.0062
  405MOL0     C54565  -0.630   1.760  11.477  0.5487 -0.2904 -0.8904
  405MOL0     C54566  -0.601   1.810  11.604  0.1367  0.8554  0.1670
  405MOL0     C54567  -0.654   1.924  11.662  0.4312 -0.0470  0.6555
  405MOL0     C54568  -0.620   1.955  11.799  0.6732 -0.7026  0.3399
  405MOL0     C54569  -0.740   2.003  11.581  0.2158 -0.7989 -0.7738
  405MOL0     C54570  -0.809   2.128  11.634 -0.5873 -0.0068  0.1013
  405MOL0     O54571  -0.866   2.204  11.536  0.3451 -0.6495  0.4266
  405MOL0     C54572  -0.889   2.342  11.546 -0.1443 -1.0789 -0.2715
  405MOL0     C54573  -0.979   2.407  11.457 -0.5249 -0.3456  0.5252
  405MOL0     C54574  -0.991   2.544  11.452 -0.4389  0.0729  0.0735
  405MOL0     C54575  -0.931   2.628  11.542  0.5525  0.4393  0.1954
  405MOL0     O54576  -0.946   2.769  11.533 -0.0936  0.0481 -0.0614
  405MOL0     C54577  -0.845   2.860  11.589  0.7462  0.1044  0.3312
  405MOL0     C54578  -0.900   3.001  11.557  0.6842  0.0406  0.7892
  405MOL0     C54579  -0.894   3.033  11.404 -0.7405  0.4575 -0.1494
  405MOL0     C54580  -0.852   3.171  11.382 -1.1129  0.2859  0.2829
  405MOL0     C54581  -0.859   3.218  11.232  0.1578  0.0701 -1.3061
  405MOL0     C54582  -0.755   3.151  11.149 -0.2188 -0.2433  0.3508
  405MOL0     C54583  -0.747   3.199  11.007 -0.5154 -0.6605  0.3081
  405MOL0     C54584  -0.684   3.101  10.913  0.0233  0.2822 -0.3996
  405MOL0    Cl54585  -0.750   3.156  10.751  0.2352  0.0147 -0.1389
  405MOL0     C54586  -0.834   2.570  11.624  0.3585 -0.2867 -0.5206
  405MOL0     C54587  -0.816   2.428  11.631  0.0091  0.7270 -0.0778
  405MOL0     O54588  -0.827   2.147  11.751 -0.3067  0.1818  0.1455
  405MOL0     C54589  -0.776   1.960  11.443 -0.2445 -0.0166  0.3585
  405MOL0     C54590  -0.724   1.831  11.404  1.4003 -0.0991 -1.0033
  405MOL0     N54591  -0.309   1.390  10.951 -0.7944  0.1910  0.5730
  405MOL0     N54592  -0.215   1.376  10.864 -0.0132 -0.0699 -0.0378
  405MOL0     C54593   0.845   1.789  10.701 -0.3679 -0.0562  0.3904
  405MOL0     C54594   0.982   1.812  10.709  0.4061  0.2354 -0.5469
  405MOL0     C54595   1.439   1.837  10.588  0.4257 -0.1667 -0.3240
  405MOL0     C54596   1.440   1.956  10.664  0.0128 -0.4709 -0.4595
  405MOL0     C54597   1.555   2.029  10.692 -0.2020  0.3108 -0.2385
  405MOL0     C54598   1.671   1.991  10.623 -0.3940 -0.5597 -0.2825
  405MOL0     O54599   1.777   2.080  10.643 -0.4543  0.5899 -0.3254
  405MOL0     C54600   1.906   2.057  10.583  0.2331  0.1669 -0.2293
  405MOL0     C54601   1.966   2.185  10.557 -1.2089 -0.3745  0.4311
  405MOL0     C54602   2.116   2.174  10.512  0.0952  0.3126  0.5103
  405MOL0     C54603   2.177   2.308  10.469  0.1785  0.4449 -0.1233
  405MOL0     C54604   2.319   2.282  10.421 -0.1484 -0.4925  0.7689
  405MOL0     C54605   2.431   2.266  10.377 -0.6193 -0.8475 -0.6785
  405MOL0     C54606   1.676   1.875  10.538 -0.0737  0.2566  0.5791
  405MOL0     C54607   1.556   1.792  10.523 -0.3500 -0.3259 -0.2087
  405MOL0     H54608   1.075   1.697  10.399 -1.1499  0.9604 -1.5045
  405MOL0     H54609   0.837   1.681  10.382 -3.1830  3.0623  0.8531
  405MOL0     H54610   0.556   1.754  10.429 -3.2477 -0.3751  0.1938
  405MOL0     H54611   0.646   1.596  10.411  1.7948  1.8020  0.0184
  405MOL0     H54612   0.397   1.664  10.567  0.4673 -0.1128 -0.9598
  405MOL0     H54613   0.396   1.563  10.424 -1.9736 -1.1244  0.8217
  405MOL0     H54614   0.573   1.412  10.551 -1.3529 -2.7022  2.2933
  405MOL0     H54615   0.519   1.486  10.697 -2.8190 -1.4416  0.8389
  405MOL0     H54616   0.356   1.329  10.498  1.9501 -0.4488 -0.1133
  405MOL0     H54617   0.413   1.267  10.652 -1.7036  0.9247  3.7097
  405MOL0     H54618   0.218   1.504  10.665  0.0743  1.0127  0.5875
  405MOL0     H54619   0.166   1.347  10.622  0.2557 -0.3922  1.6973
  405MOL0     H54620   0.264   1.249  10.832 -0.6963  0.6016 -1.3318
  405MOL0     H54621   0.355   1.397  10.859  0.9689  1.7568 -2.8312
  405MOL0     H54622   0.164   1.381  11.009  1.7150 -0.3840 -0.1109
  405MOL0     H54623   0.100   1.497  10.876  0.4269 -0.5511 -2.0528
  405MOL0     H54624   0.039   1.194  10.898  1.4046  0.1697  0.5405
  405MOL0     H54625   0.009   1.305  10.755  1.1147  2.8700  0.1340
  405MOL0     H54626  -0.045   1.320  11.136  0.9010  0.5988 -1.2512
  405MOL0     H54627  -0.416   1.286  11.199  1.4423 -1.6770 -0.7513
  405MOL0     H54628  -0.255   1.303  11.276 -1.7622 -0.9417  1.7011
  405MOL0     H54629  -0.463   1.518  11.204  1.3829  0.0908 -2.3891
  405MOL0     H54630  -0.296   1.554  11.272  0.1091  0.2407 -0.8100
  405MOL0     H54631  -0.371   1.386  11.462 -1.6182 -0.7311  1.1860
  405MOL0     H54632  -0.528   1.411  11.393  0.4167 -1.2119  1.7388
  405MOL0     H54633  -0.372   1.640  11.512  0.3929 -0.5172  1.7127
  405MOL0     H54634  -0.506   1.554  11.584 -1.3253 -0.7161 -1.2079
  405MOL0     H54635  -0.536   1.747  11.666 -0.6021 -2.7491 -2.3913
  405MOL0     H54636  -0.558   1.875  11.841  2.1534 -0.0116 -0.4624
  405MOL0     H54637  -0.559   2.046  11.807  1.4498 -1.2059  0.2867
  405MOL0     H54638  -0.702   1.968  11.870  1.7561 -1.2200  1.7252
  405MOL0     H54639  -1.025   2.338  11.388 -1.9380  1.7501 -0.7150
  405MOL0     H54640  -1.045   2.598  11.375 -0.0316  3.9501  2.2346
  405MOL0     H54641  -0.835   2.849  11.698 -1.0314  2.0913  0.7568
  405MOL0     H54642  -0.744   2.838  11.552  0.9811 -0.5951  1.3320
  405MOL0     H54643  -1.005   3.012  11.588  0.1072  1.1074 -1.3616
  405MOL0     H54644  -0.841   3.071  11.616 -1.1419  1.7473  0.6959
  405MOL0     H54645  -0.996   3.023  11.366 -1.1285  3.0071  0.0512
  405MOL0     H54646  -0.826   2.972  11.343 -1.2529  2.2190 -2.6305
  405MOL0     H54647  -0.923   3.222  11.447 -1.8765 -0.5534  0.1223
  405MOL0     H54648  -0.748   3.188  11.414 -1.2688  0.0737  0.9157
  405MOL0     H54649  -0.850   3.325  11.213  2.3146  0.3565  0.7850
  405MOL0     H54650  -0.962   3.199  11.200  0.8467  1.5689 -4.7537
  405MOL0     H54651  -0.662   3.186  11.194 -0.4993  0.7030  0.2046
  405MOL0     H54652  -0.760   3.042  11.163 -3.2335 -0.2439  0.0189
  405MOL0     H54653  -0.692   3.293  10.995 -1.1409 -0.4767 -1.2627
  405MOL0     H54654  -0.847   3.233  10.980  0.7258  2.1380 -1.2316
  405MOL0     H54655  -0.705   2.999  10.944  2.5399 -0.3907 -0.7324
  405MOL0     H54656  -0.575   3.098  10.910  0.0747  1.1536  0.1925
  405MOL0     H54657  -0.767   2.632  11.683  0.3027 -0.4906 -0.2435
  405MOL0     H54658  -0.742   2.388  11.699 -0.4076  0.3267  0.1513
  405MOL0     H54659  -0.827   2.030  11.378  1.5691 -0.5409 -1.7306
  405MOL0     H54660  -0.760   1.793  11.309 -0.5543  0.5909 -0.5762
  405MOL0     H54661   0.768   1.818  10.771 -0.5713  1.9689 -0.5772
  405MOL0     H54662   1.024   1.859  10.798  0.5797  1.2803 -1.1601
  405MOL0     H54663   1.356   1.993  10.723  0.8470  0.0429  0.4262
  405MOL0     H54664   1.560   2.114  10.760  0.2413  0.0140  0.0960
  405MOL0     H54665   1.978   1.991  10.632  0.5961 -1.0284 -2.2672
  405MOL0     H54666   1.900   2.010  10.485 -1.3839 -0.3963  0.1115
  405MOL0     H54667   1.973   2.246  10.647 -0.8143 -1.6714  1.3138
  405MOL0     H54668   1.917   2.249  10.483  1.9135  0.4820 -1.0808
  405MOL0     H54669   2.108   2.110  10.423  0.1541  1.9861 -0.7328
  405MOL0     H54670   2.180   2.121  10.584 -0.3771  0.1340  0.8010
  405MOL0     H54671   2.182   2.381  10.550  0.1739  2.0010 -1.4809
  405MOL0     H54672   2.114   2.338  10.384 -1.6122 -5.0882 -1.1824
  405MOL0     H54673   2.532   2.255  10.342 -0.0134 -3.0060  1.4568
  405MOL0     H54674   1.758   1.827  10.486 -1.2441 -0.7699 -0.3830
  405MOL0     H54675   1.563   1.695  10.476  0.6018 -0.7636  0.7985
  406MOL0     O54676   3.119   8.697   8.762  0.1493 -0.2406 -0.5390
  406MOL0     C54677   3.185   8.612   8.821  0.2592  0.3133 -0.2574
  406MOL0     O54678   3.130   8.518   8.905  0.2739  0.0140  0.0328
  406MOL0     C54679   2.999   8.522   8.941 -0.8671  0.3276  0.1358
  406MOL0     C54680   2.902   8.496   8.847  0.0149  0.4011 -0.1308
  406MOL0     C54681   2.760   8.496   8.876 -0.1621  0.1069  0.0541
  406MOL0     C54682   2.720   8.512   9.016 -1.0201  0.9257  0.3072
  406MOL0     O54683   2.590   8.508   9.066 -0.4192 -0.1379  0.4341
  406MOL0     C54684   2.504   8.434   8.979  0.7476  0.1676 -0.4374
  406MOL0     C54685   2.387   8.394   9.070 -0.2741 -0.3776  0.2614
  406MOL0     C54686   2.288   8.293   9.004  0.4497 -0.2392 -0.0666
  406MOL0     C54687   2.172   8.353   8.912  0.4092  0.2816  0.0240
  406MOL0     C54688   2.063   8.445   8.976  0.0110  0.6732  0.3921
  406MOL0     C54689   1.955   8.483   8.872  1.3364 -0.1960  0.0924
  406MOL0     C54690   1.857   8.595   8.908 -0.0748  0.3528 -1.2059
  406MOL0     C54691   1.784   8.546   9.035 -0.0676 -0.2521 -0.1092
  406MOL0     N54692   1.661   8.624   9.049 -0.0497  0.1391  0.7184
  406MOL0     C54693   1.657   8.755   9.102 -1.0610  0.1971 -0.3306
  406MOL0     C54694   1.536   8.775   9.146 -0.3704  0.6905  0.1613
  406MOL0     C54695   1.472   8.880   9.227  0.8201 -0.8421  0.9930
  406MOL0     C54696   1.461   9.005   9.140 -0.1443  0.6477 -1.0696
  406MOL0     C54697   1.417   9.135   9.219  0.4909  0.4537 -0.3828
  406MOL0     C54698   1.271   9.141   9.254 -0.2886  0.4949  0.5549
  406MOL0     O54699   1.194   9.109   9.136  0.3160 -0.5966  0.4541
  406MOL0     C54700   1.060   9.124   9.161  0.1427  0.0400 -0.5319
  406MOL0     C54701   0.992   9.045   9.252  0.3057 -0.1767 -0.1897
  406MOL0     C54702   0.859   9.075   9.287 -0.0837  0.2541 -1.5283
  406MOL0     C54703   0.795   8.995   9.398 -0.8479  0.2545 -0.4947
  406MOL0     C54704   0.784   9.183   9.230 -0.1982 -0.4234 -0.6795
  406MOL0     C54705   0.642   9.221   9.266  0.6458  0.4943  0.1966
  406MOL0     O54706   0.586   9.313   9.183 -0.0665  0.3041  0.1114
  406MOL0     C54707   0.453   9.334   9.196  0.0032  0.0978 -0.0036
  406MOL0     C54708   0.359   9.234   9.183  0.7257 -0.1920 -1.2809
  406MOL0     C54709   0.223   9.256   9.206 -0.7163  0.3012 -0.3081
  406MOL0     C54710   0.187   9.383   9.252 -0.2621 -0.2762  0.0743
  406MOL0     O54711   0.057   9.400   9.289  0.8005 -0.0034 -0.7667
  406MOL0     C54712   0.017   9.503   9.372 -0.2295  0.2848 -0.0134
  406MOL0     C54713  -0.137   9.506   9.390 -0.4156 -0.4820 -0.5471
  406MOL0     C54714  -0.184   9.374   9.445  0.5328 -0.0868 -0.6668
  406MOL0     C54715  -0.333   9.367   9.471  0.1618 -0.5426  0.6195
  406MOL0     C54716  -0.420   9.368   9.338  0.1508  0.1713 -0.3001
  406MOL0     C54717  -0.570   9.375   9.365  0.3650  0.2913 -0.4023
  406MOL0     C54718  -0.645   9.389   9.236 -0.3200  0.1112 -0.6059
  406MOL0     C54719  -0.789   9.337   9.236 -0.4966  0.4090 -0.4576
  406MOL0    Cl54720  -0.882   9.441   9.356 -0.1701 -0.3489 -0.1170
  406MOL0     C54721   0.280   9.489   9.257 -0.6548 -0.0393 -0.1018
  406MOL0     C54722   0.410   9.466   9.222 -0.4527  0.1074  0.4590
  406MOL0     O54723   0.605   9.200   9.378  0.9224  0.1077  0.5001
  406MOL0     C54724   0.853   9.255   9.130 -0.1238 -0.1401 -0.2120
  406MOL0     C54725   0.990   9.232   9.114  0.1612 -0.7601  0.2429
  406MOL0     N54726   1.457   8.659   9.101 -0.0630  0.6358  0.0008
  406MOL0     N54727   1.534   8.578   9.034 -0.6570  0.0303 -0.2290
  406MOL0     C54728   2.819   8.560   9.106  0.3596 -0.1998  0.0601
  406MOL0     C54729   2.958   8.560   9.070 -0.0378  0.1195  0.8452
  406MOL0     C54730   3.328   8.586   8.802 -0.0526  0.6341  0.2187
  406MOL0     C54731   3.389   8.648   8.684 -0.8568  0.5682 -0.9780
  406MOL0     C54732   3.525   8.635   8.674  0.1489  1.0271  0.2728
  406MOL0     C54733   3.604   8.548   8.752 -0.0691  0.2174 -0.5848
  406MOL0     O54734   3.736   8.528   8.717  0.0100  0.1994 -0.6325
  406MOL0     C54735   3.820   8.443   8.790 -0.6007 -0.3586  0.2899
  406MOL0     C54736   3.858   8.503   8.923  0.0746  0.1799  0.4232
  406MOL0     C54737   3.958   8.626   8.920  0.1097 -0.1288 -0.0812
  406MOL0     C54738   4.103   8.585   8.870  1.2289 -1.2248 -0.0627
  406MOL0     C54739   4.152   8.490   8.970 -0.4641  0.7819 -0.1099
  406MOL0     C54740   4.166   8.399   9.051  0.4421 -0.7514 -0.2161
  406MOL0     C54741   3.538   8.479   8.861  0.2424  0.4188 -0.0912
  406MOL0     C54742   3.399   8.498   8.883 -1.0400  0.4340  0.4381
  406MOL0     H54743   2.933   8.475   8.745  0.6200 -0.8832  0.2849
  406MOL0     H54744   2.689   8.474   8.797  0.4820 -2.2700  0.0574
  406MOL0     H54745   2.455   8.508   8.914  0.6056  2.0465  1.6708
  406MOL0     H54746   2.543   8.345   8.930 -1.2040  0.5984 -2.9819
  406MOL0     H54747   2.433   8.350   9.159  0.5788 -1.1028 -0.5085
  406MOL0     H54748   2.334   8.487   9.094  0.7104  0.4506 -0.6617
  406MOL0     H54749   2.354   8.229   8.946 -2.8347 -1.5852 -2.6739
  406MOL0     H54750   2.242   8.231   9.082 -3.1007 -2.0809 -3.3064
  406MOL0     H54751   2.224   8.417   8.840  0.6126 -0.5548 -0.5933
  406MOL0     H54752   2.127   8.266   8.863 -0.1953  1.0069 -0.7293
  406MOL0     H54753   2.017   8.397   9.063  0.1630 -1.2484 -0.5501
  406MOL0     H54754   2.113   8.538   9.004  0.0408  1.1179 -1.0682
  406MOL0     H54755   2.001   8.515   8.778  0.9945 -0.2579 -0.1003
  406MOL0     H54756   1.896   8.398   8.836  0.6974  0.6359 -0.8801
  406MOL0     H54757   1.893   8.692   8.941 -2.0369  0.4495  0.9233
  406MOL0     H54758   1.791   8.609   8.821 -1.3027 -0.6711 -0.4742
  406MOL0     H54759   1.845   8.559   9.125 -2.3179  1.6384  1.2734
  406MOL0     H54760   1.760   8.440   9.022 -0.2008 -0.0618 -1.5410
  406MOL0     H54761   1.734   8.829   9.114  0.7338 -1.7017  0.6132
  406MOL0     H54762   1.378   8.847   9.272 -0.5024  2.2609  0.7349
  406MOL0     H54763   1.543   8.905   9.307  2.7980  1.1694 -1.2230
  406MOL0     H54764   1.398   8.990   9.053  1.2313 -1.4634 -1.7802
  406MOL0     H54765   1.561   9.015   9.098 -0.0633  0.9385 -0.8177
  406MOL0     H54766   1.443   9.219   9.154  3.4009  0.7190  0.9221
  406MOL0     H54767   1.478   9.141   9.310  0.7574  0.7877 -0.5770
  406MOL0     H54768   1.248   9.237   9.301  1.6930  1.6121 -0.6445
  406MOL0     H54769   1.254   9.068   9.334  1.1166 -0.1390  0.3024
  406MOL0     H54770   1.051   8.962   9.289  2.6233  0.8677 -1.3306
  406MOL0     H54771   0.829   8.892   9.408 -0.9162  0.3208  0.4394
  406MOL0     H54772   0.807   9.049   9.492  1.7294 -0.7457 -0.1696
  406MOL0     H54773   0.689   8.975   9.377 -0.4869 -1.9646 -0.4279
  406MOL0     H54774   0.385   9.135   9.145 -0.9459 -2.1737  2.2585
  406MOL0     H54775   0.146   9.180   9.198 -2.0632  1.6856 -0.9529
  406MOL0     H54776   0.062   9.487   9.470  1.5435  1.5162 -0.5733
  406MOL0     H54777   0.057   9.602   9.346 -0.0124 -0.2117 -1.6827
  406MOL0     H54778  -0.157   9.598   9.445 -0.5370 -0.2147 -1.0309
  406MOL0     H54779  -0.174   9.520   9.288  1.1693 -1.9332 -1.3796
  406MOL0     H54780  -0.134   9.352   9.539  1.4934  0.6421 -0.9887
  406MOL0     H54781  -0.157   9.287   9.384 -0.2803 -0.7748 -0.0608
  406MOL0     H54782  -0.365   9.277   9.525 -0.8972 -0.4314  0.1922
  406MOL0     H54783  -0.363   9.457   9.526  1.4986  0.2352  0.1273
  406MOL0     H54784  -0.391   9.282   9.276  2.3197 -0.3782  1.3341
  406MOL0     H54785  -0.389   9.455   9.279  0.0323  0.0744 -0.5076
  406MOL0     H54786  -0.605   9.290   9.424  2.6392  1.1820  2.4643
  406MOL0     H54787  -0.592   9.467   9.419 -0.2992  0.9942 -1.8058
  406MOL0     H54788  -0.592   9.342   9.153 -2.1584  0.9080 -2.3053
  406MOL0     H54789  -0.653   9.494   9.206  0.1702 -0.0847 -1.4338
  406MOL0     H54790  -0.797   9.231   9.262 -0.7723  0.9157  1.7530
  406MOL0     H54791  -0.841   9.357   9.142 -1.7448 -0.2090  0.0717
  406MOL0     H54792   0.243   9.589   9.278 -2.7075 -0.4387 -1.4675
  406MOL0     H54793   0.473   9.554   9.229  0.9277 -0.9475  1.5931
  406MOL0     H54794   0.806   9.333   9.071  1.6036 -0.0174 -1.5295
  406MOL0     H54795   1.032   9.295   9.036 -2.2526 -2.1955 -2.4445
  406MOL0     H54796   2.782   8.596   9.202 -1.5171  0.1278 -0.7491
  406MOL0     H54797   3.039   8.583   9.139 -0.1568 -3.7797  2.5304
  406MOL0     H54798   3.337   8.705   8.608 -1.1446  1.9484  0.2001
  406MOL0     H54799   3.578   8.670   8.586 -1.2975 -1.4120 -1.7121
  406MOL0     H54800   3.778   8.346   8.818  1.4728 -1.2676  0.4144
  406MOL0     H54801   3.908   8.430   8.727 -0.4520  1.7000 -0.0126
  406MOL0     H54802   3.896   8.426   8.991  0.4371 -1.2298 -1.3236
  406MOL0     H54803   3.764   8.543   8.962  0.8245  1.3331  1.1160
  406MOL0     H54804   3.967   8.657   9.025 -1.1648 -0.4084  0.1228
  406MOL0     H54805   3.906   8.712   8.878 -0.2781  0.5617  1.7333
  406MOL0     H54806   4.177   8.666   8.866  0.2248 -0.2842  0.0567
  406MOL0     H54807   4.096   8.529   8.776 -0.7018 -1.9840  0.4877
  406MOL0     H54808   4.177   8.324   9.128  1.1983 -2.5638 -2.0030
  406MOL0     H54809   3.589   8.406   8.923 -1.1412  1.9997  3.1639
  406MOL0     H54810   3.361   8.443   8.969 -2.5646  0.2370 -0.3187
  407MOL0     O54811   2.979   5.771   7.248  0.2043 -0.0710  0.6801
  407MOL0     C54812   3.049   5.810   7.342  0.6807 -0.4511  0.2785
  407MOL0     O54813   3.004   5.869   7.453 -0.3050  0.3840 -0.3675
  407MOL0     C54814   2.869   5.879   7.490  0.6230  0.3186 -0.1052
  407MOL0     C54815   2.829   6.002   7.548  0.4784  0.4020 -0.2977
  407MOL0     C54816   2.697   6.014   7.600  0.9867  0.3066 -0.2802
  407MOL0     C54817   2.598   5.915   7.581 -0.2334  0.0270  0.4109
  407MOL0     O54818   2.476   5.912   7.635 -0.0807  0.4417 -0.4393
  407MOL0     C54819   2.413   6.030   7.694  0.3059  1.2211  0.2090
  407MOL0     C54820   2.276   5.990   7.739 -0.3255  0.3594  1.0073
  407MOL0     C54821   2.185   5.973   7.615 -1.1090  0.2452 -0.7624
  407MOL0     C54822   2.043   5.923   7.652 -0.1567  0.2738 -0.6337
  407MOL0     C54823   1.955   5.901   7.527 -0.0083  0.2822 -0.9480
  407MOL0     C54824   1.957   5.768   7.447 -0.7784  0.3389 -0.8490
  407MOL0     C54825   1.834   5.751   7.348 -0.2611  0.4078 -0.2793
  407MOL0     C54826   1.875   5.784   7.203  0.1293  0.3022 -0.2636
  407MOL0     N54827   1.755   5.747   7.114  0.4140  0.1772 -0.1876
  407MOL0     C54828   1.721   5.626   7.073  0.6555  0.0881  0.7079
  407MOL0     C54829   1.610   5.644   7.002 -0.5754 -0.0248 -0.5758
  407MOL0     C54830   1.558   5.525   6.923  0.4867  0.2538  0.1919
  407MOL0     C54831   1.408   5.527   6.920 -0.1581  0.7376  0.3736
  407MOL0     C54832   1.358   5.419   6.817  1.2915  0.3794 -0.3217
  407MOL0     C54833   1.206   5.387   6.847 -0.1751 -0.5200 -0.4281
  407MOL0     O54834   1.201   5.298   6.955  0.1592 -0.0797 -0.1353
  407MOL0     C54835   1.080   5.278   7.023  0.1857  0.4599  0.0336
  407MOL0     C54836   0.951   5.279   6.970 -0.0170  0.0685  0.6686
  407MOL0     C54837   0.839   5.293   7.055 -0.2961  0.7558  0.4691
  407MOL0     C54838   0.710   5.319   6.987  0.7376  0.4409 -0.4166
  407MOL0     C54839   0.859   5.277   7.192 -0.6114  0.2400 -0.2493
  407MOL0     C54840   0.745   5.278   7.287 -0.8376 -0.2651 -0.6950
  407MOL0     O54841   0.755   5.187   7.389  0.4444 -0.6141 -0.1174
  407MOL0     C54842   0.633   5.150   7.449 -0.7395  0.0979  0.8523
  407MOL0     C54843   0.649   5.108   7.579  0.1738  0.3353 -1.0869
  407MOL0     C54844   0.545   5.051   7.649 -0.6191  0.6774 -0.0526
  407MOL0     C54845   0.416   5.032   7.587 -0.2732 -0.4634  0.0292
  407MOL0     O54846   0.302   4.973   7.642 -0.5186  0.4398  0.0991
  407MOL0     C54847   0.274   5.016   7.774  0.3123 -0.4221 -0.3049
  407MOL0     C54848   0.140   5.000   7.848  0.0172 -0.4112  0.4069
  407MOL0     C54849   0.030   5.078   7.771  0.5616 -0.0144  0.0448
  407MOL0     C54850  -0.102   5.076   7.848 -0.6858  0.5357  0.4690
  407MOL0     C54851  -0.188   4.948   7.827  0.0093  0.1663 -0.1648
  407MOL0     C54852  -0.341   4.969   7.838  0.1704 -0.3697  0.1281
  407MOL0     C54853  -0.419   4.845   7.849  0.9821  0.1064 -0.0403
  407MOL0     C54854  -0.416   4.773   7.980 -0.6373  0.5765  0.1239
  407MOL0    Cl54855  -0.484   4.874   8.117  0.0952 -0.2800 -0.2439
  407MOL0     C54856   0.405   5.068   7.455 -0.2217  0.4905  0.7944
  407MOL0     C54857   0.510   5.133   7.379  0.4033 -0.2458 -0.8404
  407MOL0     O54858   0.653   5.354   7.276 -0.1371  0.3611  0.2431
  407MOL0     C54859   0.985   5.245   7.245  0.9277 -1.0724  0.3481
  407MOL0     C54860   1.092   5.262   7.158  0.3428 -1.2797 -0.1429
  407MOL0     N54861   1.577   5.776   7.010  0.5439 -0.1046 -0.1725
  407MOL0     N54862   1.667   5.842   7.066  0.5824 -0.2558 -0.0080
  407MOL0     C54863   2.641   5.803   7.517  0.6798  0.3271  1.3057
  407MOL0     C54864   2.773   5.784   7.467  0.2339  0.1981  0.2634
  407MOL0     C54865   3.192   5.780   7.337  0.7285  0.1758 -0.3685
  407MOL0     C54866   3.232   5.675   7.246  0.3163 -0.4622  0.8889
  407MOL0     C54867   3.370   5.662   7.213 -0.8193 -0.2929  0.1174
  407MOL0     C54868   3.463   5.742   7.278  0.4233  0.1839  0.8057
  407MOL0     O54869   3.594   5.732   7.253  0.0288 -0.0723 -0.2153
  407MOL0     C54870   3.645   5.645   7.148 -0.4598  0.0417 -0.9840
  407MOL0     C54871   3.802   5.667   7.140 -0.0726  0.4061 -0.1294
  407MOL0     C54872   3.874   5.600   7.263 -0.4906  0.2939  0.1230
  407MOL0     C54873   4.028   5.596   7.238 -0.3035  0.2120 -0.7549
  407MOL0     C54874   4.062   5.483   7.147 -0.2860 -0.5271 -0.4093
  407MOL0     C54875   4.105   5.403   7.070  0.4021  0.2031  0.4237
  407MOL0     C54876   3.424   5.835   7.376 -0.1853  0.1657  0.0508
  407MOL0     C54877   3.289   5.853   7.411 -0.9083  0.5145  0.6515
  407MOL0     H54878   2.906   6.077   7.567 -1.5617  2.6295 -0.4533
  407MOL0     H54879   2.664   6.100   7.657 -0.7627 -0.3721 -0.2010
  407MOL0     H54880   2.466   6.062   7.784 -2.1199  0.4048  2.0289
  407MOL0     H54881   2.409   6.114   7.623  1.3256 -1.3037 -3.0923
  407MOL0     H54882   2.292   5.901   7.800  2.1296 -1.9416 -2.6331
  407MOL0     H54883   2.229   6.071   7.795 -1.7299  0.5717 -0.4119
  407MOL0     H54884   2.173   6.063   7.555 -0.9396 -1.2222 -3.1369
  407MOL0     H54885   2.229   5.898   7.549 -1.3780  0.0806 -0.7598
  407MOL0     H54886   2.058   5.835   7.715  0.9030  0.8746 -0.0065
  407MOL0     H54887   2.006   6.007   7.712  2.9820  0.2949  1.5318
  407MOL0     H54888   1.856   5.916   7.570  0.3258  3.2631 -1.0469
  407MOL0     H54889   1.968   5.983   7.457 -3.8841  0.4104 -1.7388
  407MOL0     H54890   2.052   5.754   7.394 -1.4369  0.9255 -2.2465
  407MOL0     H54891   1.962   5.687   7.520 -0.5735  1.8270  0.8762
  407MOL0     H54892   1.812   5.644   7.362 -0.9250  0.0183 -3.4522
  407MOL0     H54893   1.751   5.816   7.377  0.3107  1.6058 -1.2879
  407MOL0     H54894   1.962   5.729   7.164  1.5022  2.2149 -0.0025
  407MOL0     H54895   1.906   5.888   7.202  2.1823 -0.2664 -0.4904
  407MOL0     H54896   1.771   5.535   7.104  0.0840 -1.5031 -2.5476
  407MOL0     H54897   1.605   5.546   6.826  1.1524  0.8600  0.6402
  407MOL0     H54898   1.588   5.429   6.966 -0.3364  0.8618  2.2478
  407MOL0     H54899   1.373   5.625   6.888 -0.9489  0.5886  0.7577
  407MOL0     H54900   1.366   5.507   7.019 -1.4628  1.5319  0.0026
  407MOL0     H54901   1.410   5.323   6.820 -0.5250 -0.6660  3.0172
  407MOL0     H54902   1.361   5.460   6.716  1.8259  1.3094  0.0595
  407MOL0     H54903   1.155   5.353   6.756  1.4801  0.2423 -1.6853
  407MOL0     H54904   1.147   5.471   6.884  0.6705 -0.8165  1.7513
  407MOL0     H54905   0.939   5.287   6.862  0.4294  1.4072  0.7032
  407MOL0     H54906   0.639   5.238   7.006 -0.0353  1.1694 -0.1789
  407MOL0     H54907   0.678   5.420   7.013  0.7564  0.3991 -0.2254
  407MOL0     H54908   0.729   5.314   6.879  0.3952 -2.7447 -0.4156
  407MOL0     H54909   0.744   5.117   7.630 -0.4195 -2.3493  0.6881
  407MOL0     H54910   0.565   5.018   7.750 -1.9423  0.4273  0.1483
  407MOL0     H54911   0.342   4.962   7.840 -1.4045 -0.8049  1.2489
  407MOL0     H54912   0.294   5.124   7.774 -0.2561 -0.3098 -0.0103
  407MOL0     H54913   0.118   4.893   7.855  3.8761 -1.2304  2.9169
  407MOL0     H54914   0.151   5.037   7.950  0.1443  2.9238 -0.7059
  407MOL0     H54915   0.007   5.036   7.672 -1.0393 -1.2640  0.8903
  407MOL0     H54916   0.054   5.184   7.769  2.4053 -0.3532  1.6397
  407MOL0     H54917  -0.084   5.098   7.954 -0.1083 -1.8564  0.9415
  407MOL0     H54918  -0.162   5.160   7.813 -2.2351  0.6978  3.2352
  407MOL0     H54919  -0.160   4.883   7.911  0.0947 -1.4923 -1.4206
  407MOL0     H54920  -0.155   4.884   7.745  0.8136 -2.4592  2.0615
  407MOL0     H54921  -0.353   5.020   7.934 -2.7074 -2.7378  1.1859
  407MOL0     H54922  -0.379   5.037   7.762  1.6823  1.4044  0.8694
  407MOL0     H54923  -0.383   4.771   7.777  0.6690  0.6395 -0.7474
  407MOL0     H54924  -0.519   4.875   7.818  1.8596  1.4264 -1.7083
  407MOL0     H54925  -0.314   4.740   8.002 -1.3993 -1.5446  0.6964
  407MOL0     H54926  -0.482   4.686   7.974 -0.5763  0.5686 -0.4301
  407MOL0     H54927   0.312   5.063   7.399  1.6698  0.6922 -2.6244
  407MOL0     H54928   0.513   5.152   7.273  1.5790 -2.9981 -1.3896
  407MOL0     H54929   1.007   5.232   7.351  0.7454  2.5460  0.9334
  407MOL0     H54930   1.192   5.273   7.198 -0.0824  2.5180  0.2945
  407MOL0     H54931   2.572   5.719   7.505  0.6450  0.5139  0.1043
  407MOL0     H54932   2.779   5.691   7.412  0.8338  0.7955 -0.6958
  407MOL0     H54933   3.160   5.614   7.193 -0.5836  1.3327 -0.0445
  407MOL0     H54934   3.402   5.584   7.144 -1.9459  1.5528 -2.6545
  407MOL0     H54935   3.630   5.539   7.169 -0.4966  0.1278 -0.5762
  407MOL0     H54936   3.603   5.666   7.049 -0.7478  0.0830 -0.8548
  407MOL0     H54937   3.839   5.770   7.128 -2.6247  1.7005  2.0868
  407MOL0     H54938   3.833   5.623   7.045  0.5091  1.0796 -0.2653
  407MOL0     H54939   3.832   5.499   7.259 -2.0656  0.9473 -1.4423
  407MOL0     H54940   3.846   5.647   7.358 -2.5125 -0.1294 -0.2160
  407MOL0     H54941   4.081   5.592   7.334 -1.4094 -0.5339 -0.1557
  407MOL0     H54942   4.046   5.689   7.184 -1.8241  0.7347 -0.4277
  407MOL0     H54943   4.128   5.322   7.003 -0.5427  0.5087 -0.2877
  407MOL0     H54944   3.497   5.897   7.427  0.0904 -0.1612  0.0527
  407MOL0     H54945   3.249   5.928   7.478 -1.9324  0.1754  0.4415
  408MOL0     O54946   5.016   8.106   7.287  0.4315  0.6501 -0.1299
  408MOL0     C54947   5.025   8.133   7.171  0.4517 -0.7741  0.0694
  408MOL0     O54948   4.922   8.115   7.071  0.1300  0.4019  0.3816
  408MOL0     C54949   4.794   8.081   7.088 -0.4389 -0.2525 -0.1089
  408MOL0     C54950   4.705   8.078   7.205  0.8005  0.0939  0.2324
  408MOL0     C54951   4.576   8.031   7.197 -0.1243  0.0739 -0.3232
  408MOL0     C54952   4.528   7.977   7.080  0.8316  0.4455  0.7627
  408MOL0     O54953   4.399   7.926   7.067  0.3852  0.1870  0.0887
  408MOL0     C54954   4.297   8.022   7.108 -0.0343  0.3028  0.6317
  408MOL0     C54955   4.156   7.970   7.073  0.0554 -0.1081 -0.4004
  408MOL0     C54956   4.141   7.930   6.930  0.2389 -0.1994  0.3784
  408MOL0     C54957   4.009   7.863   6.892 -0.1647  0.3378  0.0456
  408MOL0     C54958   3.881   7.952   6.894  0.3276 -0.4631  0.2696
  408MOL0     C54959   3.795   7.929   6.763 -0.5166  0.0018 -0.2421
  408MOL0     C54960   3.649   7.974   6.787  0.9903  0.3708  0.5295
  408MOL0     C54961   3.562   7.926   6.670 -0.8558 -1.3860  0.4572
  408MOL0     N54962   3.490   8.035   6.604  1.1181  0.4199 -0.7794
  408MOL0     C54963   3.476   8.056   6.473  0.0663 -0.2949 -0.1570
  408MOL0     C54964   3.376   8.145   6.459 -0.0907  0.2545 -0.7708
  408MOL0     C54965   3.316   8.186   6.329  0.7019 -0.1695 -0.0016
  408MOL0     C54966   3.192   8.094   6.293 -0.2673  0.5529 -0.3175
  408MOL0     C54967   3.070   8.133   6.374 -0.1610 -0.3259  0.6852
  408MOL0     C54968   2.924   8.093   6.315  0.2150 -0.2398 -0.3657
  408MOL0     O54969   2.819   8.143   6.398  0.0845 -0.5180 -0.0453
  408MOL0     C54970   2.693   8.092   6.401  0.6610 -0.2050 -0.3266
  408MOL0     C54971   2.615   8.158   6.492  0.5211  0.1222  0.4321
  408MOL0     C54972   2.478   8.130   6.496 -0.4541 -0.8013 -0.6489
  408MOL0     C54973   2.387   8.192   6.598  0.4686 -0.5981  0.1609
  408MOL0     C54974   2.422   8.037   6.403  0.1229  0.8135 -0.7402
  408MOL0     C54975   2.279   7.980   6.401 -0.2621 -0.9890 -0.0290
  408MOL0     O54976   2.261   7.848   6.357  0.5579 -0.3833 -0.2372
  408MOL0     C54977   2.135   7.806   6.322 -0.5549 -0.2742 -0.6406
  408MOL0     C54978   2.059   7.881   6.225  0.0069  0.4526 -1.0280
  408MOL0     C54979   1.932   7.829   6.177 -0.5020  0.7057 -0.2353
  408MOL0     C54980   1.888   7.703   6.216  1.0737  0.2547  0.5591
  408MOL0     O54981   1.764   7.664   6.168  0.4299  0.0306  0.4392
  408MOL0     C54982   1.662   7.766   6.165 -0.3615  0.0543 -0.2020
  408MOL0     C54983   1.531   7.688   6.166  0.7953  0.0896  0.7595
  408MOL0     C54984   1.413   7.782   6.204 -0.5750  0.1248 -0.1005
  408MOL0     C54985   1.280   7.757   6.130 -0.3900  0.0605  0.7482
  408MOL0     C54986   1.223   7.616   6.128  0.0048  0.1551  0.5570
  408MOL0     C54987   1.073   7.633   6.091  1.0463  0.4111  0.8476
  408MOL0     C54988   0.981   7.553   6.173 -0.5163 -1.0243  0.4926
  408MOL0     C54989   0.967   7.608   6.316 -0.9887 -0.0088 -0.4272
  408MOL0    Cl54990   0.826   7.531   6.384 -0.5318  0.5279 -0.1366
  408MOL0     C54991   1.966   7.629   6.304  0.5981 -0.3460 -0.4832
  408MOL0     C54992   2.086   7.680   6.359 -1.0395  0.3888 -1.0359
  408MOL0     O54993   2.188   8.058   6.437  0.5721  0.1715 -0.4134
  408MOL0     C54994   2.507   7.965   6.322 -0.9544 -0.0920  0.6785
  408MOL0     C54995   2.638   7.989   6.331 -0.4991  0.1072 -0.2245
  408MOL0     N54996   3.323   8.163   6.586 -0.1720  0.0367 -0.0544
  408MOL0     N54997   3.393   8.098   6.672 -0.1443  0.1945  0.1779
  408MOL0     C54998   4.609   7.976   6.970  0.6924 -0.4541  0.3544
  408MOL0     C54999   4.736   8.034   6.972  0.4422  0.1200  0.5861
  408MOL0     C55000   5.158   8.183   7.122  0.2047  0.1666 -0.0181
  408MOL0     C55001   5.264   8.211   7.211 -0.5884  0.0615 -0.0015
  408MOL0     C55002   5.392   8.247   7.161 -0.5685 -0.4315  0.6211
  408MOL0     C55003   5.410   8.269   7.022 -0.0018 -0.5840 -0.1415
  408MOL0     O55004   5.532   8.307   6.989  0.0571 -0.3498  0.1262
  408MOL0     C55005   5.574   8.272   6.849  0.0820 -1.4822  0.4371
  408MOL0     C55006   5.718   8.317   6.837 -0.1000  0.2077  0.0121
  408MOL0     C55007   5.812   8.250   6.943  0.2938  0.5616  0.1582
  408MOL0     C55008   5.947   8.313   6.917  0.1006 -0.3891 -0.0427
  408MOL0     C55009   6.043   8.253   7.003 -0.3596 -0.4838 -0.1323
  408MOL0     C55010   6.128   8.196   7.062  0.8996 -0.3279  0.0496
  408MOL0     C55011   5.307   8.242   6.932  0.1084  1.0532  0.2655
  408MOL0     C55012   5.184   8.204   6.987 -0.3566 -0.1393  0.0486
  408MOL0     H55013   4.735   8.134   7.293 -0.8005  3.0973 -0.9743
  408MOL0     H55014   4.512   8.030   7.285  1.9329  0.5635  1.2713
  408MOL0     H55015   4.305   8.033   7.216  1.4582 -0.4343  0.6112
  408MOL0     H55016   4.311   8.121   7.063 -1.4888  1.4057  2.4402
  408MOL0     H55017   4.139   7.879   7.131 -4.7929  0.2216 -0.8307
  408MOL0     H55018   4.081   8.048   7.092 -0.8142 -1.2690  1.2266
  408MOL0     H55019   4.147   8.027   6.880  1.8705  0.5228  1.8498
  408MOL0     H55020   4.225   7.868   6.899 -0.4943 -2.2705  2.2963
  408MOL0     H55021   4.023   7.819   6.793  0.6182  0.6693  0.0024
  408MOL0     H55022   3.985   7.776   6.953 -1.5590 -0.4844 -1.5706
  408MOL0     H55023   3.826   7.938   6.987  0.6405 -0.3507  0.4714
  408MOL0     H55024   3.906   8.059   6.899 -3.2415  0.4874  0.5211
  408MOL0     H55025   3.848   7.989   6.689 -0.1028  0.0267  0.0741
  408MOL0     H55026   3.792   7.824   6.730 -0.1125 -0.3392  0.7656
  408MOL0     H55027   3.603   7.930   6.876  0.2808 -1.8826 -0.8670
  408MOL0     H55028   3.639   8.081   6.805 -0.4994 -0.2006  3.9942
  408MOL0     H55029   3.492   7.848   6.701 -1.0202 -2.4170 -2.2237
  408MOL0     H55030   3.621   7.872   6.595 -0.5813  1.7675 -1.8204
  408MOL0     H55031   3.522   8.016   6.383  1.1600  2.0075 -0.7114
  408MOL0     H55032   3.280   8.289   6.336 -1.2033 -0.8973  2.7108
  408MOL0     H55033   3.390   8.193   6.249 -0.6397 -3.6147 -1.7570
  408MOL0     H55034   3.223   7.990   6.308  0.1475  1.1633  4.2771
  408MOL0     H55035   3.170   8.113   6.187  3.0728 -0.7318 -1.3859
  408MOL0     H55036   3.068   8.242   6.387 -0.1743 -0.5860  3.6102
  408MOL0     H55037   3.081   8.093   6.475  0.4059 -3.2254 -0.4191
  408MOL0     H55038   2.918   7.987   6.289  1.6793 -0.3684 -0.2853
  408MOL0     H55039   2.908   8.145   6.220 -1.5580 -0.5641 -0.2763
  408MOL0     H55040   2.645   8.244   6.551  0.6796  1.3247 -1.3219
  408MOL0     H55041   2.317   8.116   6.633 -0.5621  0.7404  1.1097
  408MOL0     H55042   2.456   8.224   6.677  2.0085 -0.1475 -1.3059
  408MOL0     H55043   2.334   8.273   6.548 -0.1015 -2.4090 -2.3823
  408MOL0     H55044   2.103   7.975   6.193  0.2525  0.1742 -1.5259
  408MOL0     H55045   1.876   7.877   6.097 -1.9078 -2.4229 -1.2914
  408MOL0     H55046   1.669   7.834   6.250  2.9233 -0.6749  0.2359
  408MOL0     H55047   1.664   7.825   6.073 -0.8086  2.2196  1.0982
  408MOL0     H55048   1.506   7.646   6.068  2.2043  1.5164 -0.2765
  408MOL0     H55049   1.538   7.606   6.237 -1.6470 -0.9818 -0.1417
  408MOL0     H55050   1.440   7.882   6.171 -0.7805  0.0469 -0.5062
  408MOL0     H55051   1.383   7.768   6.308 -0.7347  1.0494 -0.0181
  408MOL0     H55052   1.204   7.820   6.176 -1.0898 -0.2119 -0.0098
  408MOL0     H55053   1.284   7.793   6.027 -4.0992 -1.1942  0.0142
  408MOL0     H55054   1.241   7.568   6.225 -2.3950  0.6888  1.3434
  408MOL0     H55055   1.259   7.551   6.048  1.2525  1.9536 -0.4167
  408MOL0     H55056   1.032   7.734   6.086 -0.4987 -0.2435 -1.0721
  408MOL0     H55057   1.067   7.606   5.985 -0.8068  3.3169  0.1042
  408MOL0     H55058   1.030   7.455   6.176  2.7189  0.3642 -1.1597
  408MOL0     H55059   0.883   7.546   6.124 -0.5933 -4.0089  0.8678
  408MOL0     H55060   0.964   7.717   6.326  2.6931  0.0879  1.4918
  408MOL0     H55061   1.059   7.584   6.369  0.4886  0.3345 -2.6801
  408MOL0     H55062   1.929   7.538   6.351  1.0348 -1.1455 -1.6362
  408MOL0     H55063   2.146   7.622   6.428 -1.4441  0.2698 -0.7817
  408MOL0     H55064   2.476   7.882   6.261 -2.3028 -1.9096  3.6023
  408MOL0     H55065   2.705   7.927   6.271 -1.2578 -1.8900  0.8938
  408MOL0     H55066   4.576   7.940   6.873 -0.8911  2.2404 -0.1996
  408MOL0     H55067   4.795   8.033   6.881  0.9913 -0.9623  0.9445
  408MOL0     H55068   5.243   8.200   7.317  0.1855  1.6418  0.3353
  408MOL0     H55069   5.477   8.247   7.229  1.1788  3.9631 -1.2283
  408MOL0     H55070   5.568   8.164   6.829 -1.2921 -0.8979 -3.0116
  408MOL0     H55071   5.517   8.328   6.774  0.5253 -0.9304  0.5084
  408MOL0     H55072   5.715   8.426   6.839 -5.6237  0.3130 -0.0119
  408MOL0     H55073   5.761   8.277   6.744  1.1204 -1.6191  1.2820
  408MOL0     H55074   5.816   8.146   6.909 -0.9218  1.9715 -5.1439
  408MOL0     H55075   5.777   8.251   7.046  2.1089  2.7339  0.8539
  408MOL0     H55076   5.946   8.422   6.925  3.3100 -0.2065 -0.8242
  408MOL0     H55077   5.978   8.290   6.814 -0.5269  2.4499 -0.9441
  408MOL0     H55078   6.198   8.135   7.115 -0.4724 -1.0542  1.1007
  408MOL0     H55079   5.311   8.262   6.825  0.9189  1.4941  0.3706
  408MOL0     H55080   5.096   8.197   6.924 -0.0872  1.5326 -0.5561
  409MOL0     O55081   8.520   7.961   3.467  1.0189  0.0793  0.2920
  409MOL0     C55082   8.554   7.842   3.480 -0.2495 -0.1998 -0.3710
  409MOL0     O55083   8.481   7.731   3.480  0.3961 -0.1169  0.7710
  409MOL0     C55084   8.345   7.730   3.467  0.0039 -0.8158  0.2207
  409MOL0     C55085   8.262   7.839   3.493 -0.0391  1.2355  0.5351
  409MOL0     C55086   8.122   7.825   3.488  0.0624 -0.2706  0.8178
  409MOL0     C55087   8.060   7.703   3.463 -1.1599 -0.1827  0.2785
  409MOL0     O55088   7.927   7.703   3.462  0.5473 -0.3803 -0.0334
  409MOL0     C55089   7.870   7.591   3.387 -0.5465 -0.6392 -0.2933
  409MOL0     C55090   7.723   7.625   3.367  0.5623  0.7690  0.1165
  409MOL0     C55091   7.687   7.708   3.238  0.3011 -0.0175  0.2969
  409MOL0     C55092   7.537   7.702   3.210 -0.4421  0.0612  0.5796
  409MOL0     C55093   7.502   7.762   3.073  0.8521  0.0123 -0.3242
  409MOL0     C55094   7.355   7.737   3.043  0.5970  0.2801 -0.0173
  409MOL0     C55095   7.255   7.849   3.072 -0.4690 -0.3827 -0.7065
  409MOL0     C55096   7.128   7.842   2.975  0.6139  0.3221 -0.9093
  409MOL0     N55097   7.038   7.738   3.020  0.5099  0.5948 -0.3364
  409MOL0     C55098   7.057   7.602   2.979 -0.4101  0.3025  0.0201
  409MOL0     C55099   6.980   7.538   3.068 -0.3020  0.6325  0.2916
  409MOL0     C55100   6.992   7.392   3.082 -0.3412  0.4294 -0.7337
  409MOL0     C55101   6.908   7.309   2.983  0.0772  0.2190  1.0795
  409MOL0     C55102   6.764   7.361   2.977  0.2901 -0.2394 -1.0540
  409MOL0     C55103   6.663   7.258   2.902  0.5204  0.1678  0.4548
  409MOL0     O55104   6.525   7.313   2.889  0.2702  0.4014 -0.4348
  409MOL0     C55105   6.433   7.277   2.989  0.2580  0.7237 -0.4100
  409MOL0     C55106   6.470   7.211   3.110  0.5763 -0.5395  0.2770
  409MOL0     C55107   6.363   7.182   3.204 -0.2858  0.2663 -0.1186
  409MOL0     C55108   6.393   7.111   3.333 -0.5068 -1.1644 -0.2834
  409MOL0     C55109   6.229   7.212   3.166 -0.4706 -1.9334  0.7904
  409MOL0     C55110   6.108   7.207   3.253 -1.7153 -0.5916 -0.4386
  409MOL0     O55111   5.994   7.188   3.183  0.3987 -0.8053  0.0506
  409MOL0     C55112   5.871   7.168   3.233 -0.7448 -0.0826 -0.0918
  409MOL0     C55113   5.819   7.220   3.355 -1.0066 -0.0431 -0.0046
  409MOL0     C55114   5.696   7.189   3.395 -0.2133  0.2058 -0.0178
  409MOL0     C55115   5.606   7.121   3.316  0.4987 -0.0283  0.7798
  409MOL0     O55116   5.483   7.089   3.366  0.3061 -0.3123 -0.0495
  409MOL0     C55117   5.438   7.157   3.487 -0.5085 -0.3022  0.0881
  409MOL0     C55118   5.288   7.117   3.498 -0.2216  0.5921  0.0447
  409MOL0     C55119   5.220   7.197   3.617 -0.4312 -0.1870  0.1153
  409MOL0     C55120   5.067   7.197   3.588  0.2042 -0.8526 -1.0148
  409MOL0     C55121   4.997   7.284   3.697  0.5226 -0.5214  0.4827
  409MOL0     C55122   4.979   7.216   3.836 -0.1501  0.1469 -0.3964
  409MOL0     C55123   5.067   7.294   3.938 -0.4407  0.7036 -0.2115
  409MOL0     C55124   4.990   7.404   4.003 -0.2104  0.2971 -0.5601
  409MOL0    Cl55125   4.886   7.363   4.141 -0.0185  0.1761  0.4692
  409MOL0     C55126   5.649   7.085   3.189  0.3851 -0.2647  0.0135
  409MOL0     C55127   5.783   7.107   3.148  0.0903 -0.4898 -0.3943
  409MOL0     O55128   6.115   7.228   3.376  0.0089 -0.8847 -0.4389
  409MOL0     C55129   6.202   7.274   3.040 -0.3819 -0.7215  0.0833
  409MOL0     C55130   6.301   7.301   2.950  0.4708  0.2019  0.2969
  409MOL0     N55131   6.893   7.623   3.136 -0.6626 -0.0158  0.4489
  409MOL0     N55132   6.928   7.741   3.103  0.2934  0.1265  0.0048
  409MOL0     C55133   8.147   7.593   3.440 -0.9676 -0.2403 -0.3995
  409MOL0     C55134   8.289   7.604   3.448  0.5971 -0.0265  0.0269
  409MOL0     C55135   8.707   7.830   3.505  0.2580 -0.1558 -1.0849
  409MOL0     C55136   8.796   7.930   3.478 -0.1751 -0.0166  0.0333
  409MOL0     C55137   8.934   7.910   3.502 -0.7509  0.3170  0.1988
  409MOL0     C55138   8.988   7.792   3.557 -0.0021  0.7312  0.6639
  409MOL0     O55139   9.128   7.787   3.565 -0.4459  0.3113 -0.4635
  409MOL0     C55140   9.194   7.664   3.587  0.6269 -0.7580 -0.1935
  409MOL0     C55141   9.341   7.692   3.562 -1.0145 -0.7486 -0.6040
  409MOL0     C55142   9.446   7.602   3.630  0.0296 -0.1738  0.6078
  409MOL0     C55143   9.586   7.653   3.598  0.3500 -0.7335  1.1580
  409MOL0     C55144   9.685   7.617   3.707  0.7820  0.2263  0.2168
  409MOL0     C55145   9.769   7.593   3.790 -1.1593  0.3453 -0.7102
  409MOL0     C55146   8.896   7.697   3.595  0.0042 -0.2650  0.1524
  409MOL0     C55147   8.762   7.714   3.574 -0.0205 -0.8147 -0.0239
  409MOL0     H55148   8.299   7.933   3.531 -1.2896  1.6703  0.7276
  409MOL0     H55149   8.059   7.913   3.503 -1.0089 -0.2877 -2.7488
  409MOL0     H55150   7.927   7.584   3.294 -1.5241  1.2836 -1.0954
  409MOL0     H55151   7.876   7.495   3.440 -2.8239 -0.3932  0.5602
  409MOL0     H55152   7.663   7.533   3.366 -1.0436  1.7567 -1.7133
  409MOL0     H55153   7.689   7.668   3.461 -0.4594 -3.0207  1.6906
  409MOL0     H55154   7.703   7.816   3.248  0.2858  0.2161 -1.7125
  409MOL0     H55155   7.743   7.671   3.151  1.2605  0.1526  0.8310
  409MOL0     H55156   7.504   7.598   3.205  3.5618 -1.3336 -0.4997
  409MOL0     H55157   7.481   7.754   3.288  1.5653  1.1542  1.3594
  409MOL0     H55158   7.526   7.869   3.068 -1.0567  0.4202 -3.2577
  409MOL0     H55159   7.562   7.708   3.000  0.0332 -0.8179 -0.4085
  409MOL0     H55160   7.353   7.707   2.938 -0.4171 -0.5083  0.2056
  409MOL0     H55161   7.311   7.650   3.094  0.3682  0.0534 -0.5992
  409MOL0     H55162   7.223   7.841   3.176  0.2521 -0.6056 -0.5000
  409MOL0     H55163   7.289   7.951   3.056 -1.0513 -0.2163 -0.9141
  409MOL0     H55164   7.174   7.826   2.877 -0.0799  0.9940 -1.3570
  409MOL0     H55165   7.080   7.940   2.967 -1.8158 -0.6226  0.9298
  409MOL0     H55166   7.130   7.564   2.910  0.5702 -1.0879  1.7317
  409MOL0     H55167   7.099   7.372   3.075 -0.8488 -2.7922 -0.6240
  409MOL0     H55168   6.977   7.363   3.186  1.8138  0.2872 -0.4298
  409MOL0     H55169   6.913   7.202   3.009 -1.1742 -0.1643 -0.1248
  409MOL0     H55170   6.948   7.329   2.883  0.2100  0.1907  1.1267
  409MOL0     H55171   6.764   7.456   2.923  0.9326 -1.2936 -3.0014
  409MOL0     H55172   6.720   7.367   3.077 -0.4190  2.9323 -1.4421
  409MOL0     H55173   6.662   7.159   2.948  0.1784 -0.5712 -1.0633
  409MOL0     H55174   6.690   7.245   2.796  1.3216  1.2921  0.5116
  409MOL0     H55175   6.570   7.170   3.125 -0.5235 -3.8013 -0.4303
  409MOL0     H55176   6.317   7.033   3.342 -0.8433 -0.6341  2.2502
  409MOL0     H55177   6.497   7.076   3.329  0.0666  0.0017  2.1797
  409MOL0     H55178   6.386   7.177   3.420 -3.3018 -1.3426 -0.2970
  409MOL0     H55179   5.880   7.270   3.429 -0.4816  0.6240 -0.8636
  409MOL0     H55180   5.683   7.226   3.497 -0.0998 -0.0578  0.0942
  409MOL0     H55181   5.490   7.123   3.577  1.7728  2.2036 -0.1573
  409MOL0     H55182   5.446   7.265   3.472  1.2679 -0.3251  0.5856
  409MOL0     H55183   5.246   7.147   3.401  1.3261  1.6653 -0.3475
  409MOL0     H55184   5.284   7.009   3.514  0.2659  0.8733  2.3253
  409MOL0     H55185   5.243   7.304   3.614 -0.6833 -0.1476 -1.4013
  409MOL0     H55186   5.237   7.154   3.716 -4.7710  1.5721  1.9315
  409MOL0     H55187   5.046   7.246   3.493  0.4978  0.3041 -0.5054
  409MOL0     H55188   5.030   7.094   3.587 -1.7609 -0.1977 -0.1954
  409MOL0     H55189   4.897   7.312   3.664  0.9400  2.5383  1.5164
  409MOL0     H55190   5.050   7.379   3.703  1.0481 -0.7530 -0.2883
  409MOL0     H55191   4.878   7.218   3.877 -1.2862 -0.9745 -2.8874
  409MOL0     H55192   5.000   7.110   3.820 -2.8345 -0.9517  2.4606
  409MOL0     H55193   5.164   7.325   3.899  0.0401 -1.6658 -1.1015
  409MOL0     H55194   5.099   7.227   4.018 -1.1829  1.2137  0.5338
  409MOL0     H55195   4.932   7.452   3.924 -2.3595  1.7271  1.7455
  409MOL0     H55196   5.065   7.474   4.042  1.2760 -0.5174 -1.8686
  409MOL0     H55197   5.582   7.042   3.116 -1.4116  4.0522 -1.2174
  409MOL0     H55198   5.805   7.073   3.047 -4.2248 -1.2234 -1.2857
  409MOL0     H55199   6.099   7.296   3.012  0.1860 -0.4917 -1.9540
  409MOL0     H55200   6.275   7.330   2.849  0.5147 -3.4286 -0.9006
  409MOL0     H55201   8.115   7.492   3.418 -0.5799 -0.5660  0.4920
  409MOL0     H55202   8.353   7.519   3.428  0.2465  0.2871 -2.9415
  409MOL0     H55203   8.753   8.022   3.440 -0.3690  0.6558  1.7917
  409MOL0     H55204   8.990   8.000   3.479 -1.6770  0.4629 -1.6722
  409MOL0     H55205   9.182   7.625   3.689 -0.1654  2.5684  1.0954
  409MOL0     H55206   9.159   7.584   3.521  0.1805 -2.5719  2.0705
  409MOL0     H55207   9.361   7.799   3.580 -1.2517 -0.7788 -0.1494
  409MOL0     H55208   9.363   7.686   3.455 -2.1200 -1.8358 -0.7879
  409MOL0     H55209   9.436   7.500   3.591 -5.0000  0.3068 -0.0160
  409MOL0     H55210   9.423   7.603   3.737 -1.4389  0.2582  0.3075
  409MOL0     H55211   9.592   7.760   3.578 -1.4628 -1.0474 -1.7837
  409MOL0     H55212   9.616   7.609   3.502  1.3134  3.6217 -0.7563
  409MOL0     H55213   9.852   7.611   3.855 -0.5201 -1.3058 -1.0266
  409MOL0     H55214   8.921   7.605   3.648 -1.2354 -0.4569  0.4222
  409MOL0     H55215   8.689   7.636   3.593 -1.5701  0.8502  1.1397
  410MOL0     O55216   5.945   7.400   5.590 -0.1625 -1.2944  0.1429
  410MOL0     C55217   6.030   7.420   5.506  0.3260 -0.0739  0.1889
  410MOL0     O55218   6.012   7.470   5.381  0.3686 -0.2096 -0.2945
  410MOL0     C55219   5.889   7.511   5.330 -0.5375 -0.9678 -0.0247
  410MOL0     C55220   5.779   7.553   5.414 -0.6892  0.3727  0.6633
  410MOL0     C55221   5.656   7.574   5.349  0.2171  0.5167 -0.6599
  410MOL0     C55222   5.636   7.573   5.205  0.0935 -0.1196  0.9558
  410MOL0     O55223   5.519   7.606   5.122  0.2977 -0.2898 -0.1126
  410MOL0     C55224   5.429   7.700   5.176  0.0456 -0.5717  0.9904
  410MOL0     C55225   5.292   7.662   5.145 -0.2885  0.0269 -0.0839
  410MOL0     C55226   5.185   7.756   5.190 -0.0937 -0.7772  0.1353
  410MOL0     C55227   5.051   7.703   5.134 -1.3862  1.1399  0.3666
  410MOL0     C55228   4.936   7.787   5.194  0.2786  0.3604 -0.0601
  410MOL0     C55229   4.908   7.917   5.120  1.5401  0.5892 -0.2529
  410MOL0     C55230   4.764   7.967   5.146  0.5025  0.3921 -0.9401
  410MOL0     C55231   4.755   8.034   5.283 -0.5809  0.5303 -0.7016
  410MOL0     N55232   4.612   8.068   5.314 -0.5219 -0.0677 -0.9023
  410MOL0     C55233   4.574   8.186   5.374 -0.0049  0.1763  0.1442
  410MOL0     C55234   4.459   8.162   5.430  0.4196 -0.3054  0.1150
  410MOL0     C55235   4.380   8.265   5.493 -0.6800 -0.5091 -0.5930
  410MOL0     C55236   4.266   8.204   5.585 -0.6443  0.1125  0.2183
  410MOL0     C55237   4.168   8.315   5.629  0.6110  0.5899 -0.0755
  410MOL0     C55238   4.064   8.309   5.515 -0.1250 -0.4342 -0.2764
  410MOL0     O55239   3.960   8.404   5.545  0.5872 -0.9766  0.7123
  410MOL0     C55240   3.852   8.365   5.617  0.7716 -0.7539  0.6443
  410MOL0     C55241   3.824   8.235   5.673 -0.0588  0.4637  0.0755
  410MOL0     C55242   3.704   8.194   5.750  0.1026  0.1770 -0.8715
  410MOL0     C55243   3.692   8.044   5.781  0.3668  0.2200  0.0207
  410MOL0     C55244   3.606   8.297   5.770  0.1946 -0.1580 -0.2011
  410MOL0     C55245   3.482   8.275   5.845  0.5407  0.1998 -0.6799
  410MOL0     O55246   3.408   8.385   5.877 -0.6344 -1.2464 -0.7072
  410MOL0     C55247   3.280   8.372   5.920 -0.6114 -0.2851  0.2148
  410MOL0     C55248   3.254   8.380   6.054 -0.6120 -0.2243 -0.8799
  410MOL0     C55249   3.122   8.375   6.104  0.0210 -0.0887  0.6536
  410MOL0     C55250   3.011   8.388   6.023  0.8816 -0.2832  0.4415
  410MOL0     O55251   2.885   8.402   6.083 -0.0709  0.1611  0.5153
  410MOL0     C55252   2.776   8.474   6.022 -0.0986  0.1917 -0.2264
  410MOL0     C55253   2.687   8.368   5.952 -0.6419 -0.4548 -0.0435
  410MOL0     C55254   2.542   8.425   5.936 -0.1561  0.3596 -0.3230
  410MOL0     C55255   2.459   8.319   5.863 -0.4106 -1.0386 -0.3111
  410MOL0     C55256   2.319   8.370   5.840  0.4146  0.1306  0.3326
  410MOL0     C55257   2.240   8.286   5.742 -0.3853  0.2329 -0.1655
  410MOL0     C55258   2.096   8.333   5.712  0.4429  0.4568 -0.4228
  410MOL0     C55259   2.007   8.335   5.840  0.5144  0.4406  0.6405
  410MOL0    Cl55260   1.990   8.192   5.922 -0.0115 -0.1186  0.3833
  410MOL0     C55261   3.034   8.382   5.889  0.2836  0.0841 -0.0705
  410MOL0     C55262   3.165   8.367   5.841 -0.0777  0.3203 -0.5199
  410MOL0     O55263   3.447   8.164   5.872  0.7486 -0.3709 -0.5109
  410MOL0     C55264   3.633   8.426   5.720  0.3129 -0.2706  0.0203
  410MOL0     C55265   3.747   8.453   5.642  0.1253 -0.1116 -0.0007
  410MOL0     N55266   4.418   8.036   5.399 -0.3210  0.5842  0.1346
  410MOL0     N55267   4.510   7.980   5.332 -0.9334 -0.0688 -0.1100
  410MOL0     C55268   5.749   7.539   5.131  0.6183  0.4596 -0.1034
  410MOL0     C55269   5.869   7.494   5.192 -0.0370 -0.6956 -0.2181
  410MOL0     C55270   6.159   7.359   5.537 -0.0937 -0.5262  1.5330
  410MOL0     C55271   6.163   7.234   5.595  0.4494  0.4116 -0.6310
  410MOL0     C55272   6.284   7.169   5.618  0.0144  1.2386  0.1462
  410MOL0     C55273   6.404   7.216   5.564 -0.0262 -0.2643 -0.6857
  410MOL0     O55274   6.513   7.126   5.565 -0.3472 -0.4422 -0.8204
  410MOL0     C55275   6.651   7.177   5.554  0.2617 -0.8719  0.0634
  410MOL0     C55276   6.683   7.255   5.685 -0.3642  0.8441  0.8825
  410MOL0     C55277   6.729   7.166   5.807 -0.4127  0.6979  0.3966
  410MOL0     C55278   6.844   7.077   5.760  0.9455 -0.2970  0.3995
  410MOL0     C55279   6.901   7.001   5.863 -0.1040 -0.3764 -0.5728
  410MOL0     C55280   6.960   6.934   5.950 -1.1258 -0.7477  1.5302
  410MOL0     C55281   6.399   7.348   5.510  0.1339  0.1609 -0.3388
  410MOL0     C55282   6.276   7.416   5.489 -0.6440 -0.3048  0.1547
  410MOL0     H55283   5.790   7.578   5.519  1.1829  1.6833  0.2271
  410MOL0     H55284   5.586   7.610   5.423 -0.9653 -0.6426 -1.1784
  410MOL0     H55285   5.430   7.717   5.284 -0.7151 -0.3676  0.9682
  410MOL0     H55286   5.454   7.795   5.126  0.9651 -3.7903 -5.8094
  410MOL0     H55287   5.280   7.640   5.039  2.2082  3.1399 -1.1684
  410MOL0     H55288   5.291   7.566   5.199  0.9516  0.2923  0.4477
  410MOL0     H55289   5.184   7.753   5.299 -2.1856 -1.2905  0.1586
  410MOL0     H55290   5.198   7.860   5.158 -0.0345 -0.3054  1.6291
  410MOL0     H55291   5.049   7.696   5.024 -4.6029 -1.3475  0.4388
  410MOL0     H55292   5.038   7.595   5.147  0.4609  0.7302 -0.7936
  410MOL0     H55293   4.852   7.717   5.191  1.2343 -0.8938  1.1227
  410MOL0     H55294   4.949   7.804   5.301 -0.6171  1.1795 -0.0701
  410MOL0     H55295   4.977   7.993   5.156  0.8272  1.2927 -0.3600
  410MOL0     H55296   4.930   7.902   5.014  0.0076 -1.9028 -0.3235
  410MOL0     H55297   4.738   8.045   5.073 -3.0203  1.2273  0.9937
  410MOL0     H55298   4.692   7.884   5.141  2.0694 -1.0196 -0.7326
  410MOL0     H55299   4.831   8.111   5.300  0.6586 -0.9211  0.6400
  410MOL0     H55300   4.772   7.950   5.351 -0.1853 -0.6150 -2.1487
  410MOL0     H55301   4.628   8.280   5.383 -0.9504  0.7113  0.4720
  410MOL0     H55302   4.447   8.334   5.544  1.8424 -0.8840 -3.1739
  410MOL0     H55303   4.337   8.314   5.405  1.7703  0.6619 -1.2246
  410MOL0     H55304   4.316   8.169   5.676 -0.8807  1.3019  0.8288
  410MOL0     H55305   4.221   8.120   5.533 -1.6490  1.3493 -0.9808
  410MOL0     H55306   4.225   8.408   5.633  0.7864  0.4553  1.1321
  410MOL0     H55307   4.124   8.287   5.726 -1.0285 -1.8569 -1.4173
  410MOL0     H55308   4.025   8.211   5.486  0.4930 -0.6799 -0.3032
  410MOL0     H55309   4.104   8.354   5.423 -1.3674  0.7735 -0.2552
  410MOL0     H55310   3.894   8.152   5.669  0.4890  0.8600  1.0213
  410MOL0     H55311   3.619   8.003   5.710  1.4420 -0.3859 -0.7546
  410MOL0     H55312   3.785   7.990   5.764 -0.5345 -1.0413 -1.0000
  410MOL0     H55313   3.656   8.033   5.884  0.7716  1.2542  0.2903
  410MOL0     H55314   3.340   8.394   6.119 -0.0731 -0.9855 -1.4045
  410MOL0     H55315   3.102   8.376   6.210 -1.0990 -4.2136  0.6391
  410MOL0     H55316   2.720   8.533   6.094  1.4424  2.6605 -0.9121
  410MOL0     H55317   2.814   8.537   5.940  0.9481 -1.8933 -1.4364
  410MOL0     H55318   2.728   8.340   5.855  1.9132  0.3784  0.7136
  410MOL0     H55319   2.677   8.281   6.017 -0.1634 -1.6636 -1.5248
  410MOL0     H55320   2.553   8.514   5.873  1.6451  0.4251  0.0314
  410MOL0     H55321   2.499   8.443   6.035 -0.4284 -0.0557 -0.3636
  410MOL0     H55322   2.520   8.312   5.773  2.6382  4.0461  0.9996
  410MOL0     H55323   2.461   8.221   5.913  0.7299 -1.9582 -2.0534
  410MOL0     H55324   2.317   8.474   5.806  0.1887 -0.3185 -1.1138
  410MOL0     H55325   2.272   8.368   5.939 -1.3067  1.8615 -0.3752
  410MOL0     H55326   2.292   8.270   5.646  1.7312  0.4185  0.8838
  410MOL0     H55327   2.246   8.185   5.783  3.3256  0.5661  0.5113
  410MOL0     H55328   2.049   8.270   5.636 -1.4384  3.5964 -2.0869
  410MOL0     H55329   2.098   8.432   5.665 -4.0525  1.3912  0.8483
  410MOL0     H55330   1.911   8.377   5.809  1.5943 -0.2183 -4.7669
  410MOL0     H55331   2.045   8.405   5.914 -1.3484  0.6754  1.4197
  410MOL0     H55332   2.950   8.390   5.820 -1.0712  1.5151  1.6635
  410MOL0     H55333   3.185   8.355   5.735  0.6310 -2.0776 -0.1824
  410MOL0     H55334   3.558   8.504   5.731  1.8789  0.9301  3.3734
  410MOL0     H55335   3.746   8.550   5.594  0.9433 -1.3958 -2.7862
  410MOL0     H55336   5.730   7.539   5.024  1.9928  1.3246 -0.3752
  410MOL0     H55337   5.949   7.470   5.122 -2.9657  0.2125 -4.1881
  410MOL0     H55338   6.068   7.188   5.618  0.0320  1.2052 -0.7357
  410MOL0     H55339   6.290   7.081   5.680  0.5615  1.2142  0.0674
  410MOL0     H55340   6.725   7.104   5.517  0.4986 -0.3790 -0.4654
  410MOL0     H55341   6.655   7.257   5.479  0.2285 -1.4814 -0.6066
  410MOL0     H55342   6.591   7.309   5.709 -1.2767  0.2809 -1.1397
  410MOL0     H55343   6.762   7.328   5.664  0.8228 -0.9716 -1.5711
  410MOL0     H55344   6.637   7.115   5.836 -0.6757 -0.0451 -1.6453
  410MOL0     H55345   6.765   7.235   5.884 -2.3361  1.0006  1.0915
  410MOL0     H55346   6.926   7.137   5.721  0.4097 -0.1056 -0.4543
  410MOL0     H55347   6.803   7.000   5.694  1.0324 -0.1046  0.1227
  410MOL0     H55348   7.026   6.881   6.016  1.1030 -0.9335 -0.6810
  410MOL0     H55349   6.487   7.393   5.465  0.6882 -0.1918  0.3752
  410MOL0     H55350   6.283   7.513   5.441  0.5040 -0.5485 -0.1787
  411MOL0     O55351   9.432   3.440   7.580 -0.4429  0.1173  0.1098
  411MOL0     C55352   9.424   3.563   7.592 -0.3652 -0.2417 -0.2107
  411MOL0     O55353   9.318   3.633   7.638  0.4728 -0.8534 -0.2630
  411MOL0     C55354   9.212   3.567   7.686 -0.6452  0.4531  0.2108
  411MOL0     C55355   9.173   3.606   7.818  0.5488  0.0132  0.8017
  411MOL0     C55356   9.055   3.556   7.873  0.5382  0.0862  0.4571
  411MOL0     C55357   8.968   3.468   7.804 -0.3616  0.2187  0.8304
  411MOL0     O55358   8.850   3.419   7.852  0.0021 -0.2894  0.4331
  411MOL0     C55359   8.784   3.467   7.968 -0.0716  0.4270  0.3319
  411MOL0     C55360   8.634   3.427   7.959 -0.0123  0.0025  0.2895
  411MOL0     C55361   8.561   3.504   7.849  0.4205 -0.1129  0.3843
  411MOL0     C55362   8.437   3.421   7.800  0.2600  0.3986  0.2098
  411MOL0     C55363   8.366   3.488   7.686  0.2333  0.7163  0.0621
  411MOL0     C55364   8.229   3.430   7.654 -0.1643  0.7084 -0.0583
  411MOL0     C55365   8.125   3.455   7.760  0.1183 -0.3582  0.0521
  411MOL0     C55366   7.990   3.404   7.708  0.1657  0.3549 -0.9409
  411MOL0     N55367   7.946   3.467   7.576  0.3330 -0.5343 -0.0500
  411MOL0     C55368   7.881   3.392   7.477 -0.1137  0.0871  0.3048
  411MOL0     C55369   7.851   3.483   7.384  0.6034  0.2414 -1.4692
  411MOL0     C55370   7.779   3.444   7.258  0.3156 -0.2189 -1.1373
  411MOL0     C55371   7.628   3.471   7.263 -0.3945  0.4467 -0.0297
  411MOL0     C55372   7.564   3.407   7.144  0.0538  0.4159  0.9274
  411MOL0     C55373   7.414   3.454   7.134  1.0268  0.2985 -0.1639
  411MOL0     O55374   7.343   3.363   7.046 -0.6283  0.9951 -0.2600
  411MOL0     C55375   7.206   3.352   7.051 -0.1143  0.5453  0.1966
  411MOL0     C55376   7.145   3.250   6.979  0.3731 -0.2037  0.6341
  411MOL0     C55377   7.000   3.240   6.978 -0.4574  0.4800  0.6494
  411MOL0     C55378   6.946   3.132   6.890 -0.8838 -0.5931  0.7550
  411MOL0     C55379   6.921   3.316   7.065  0.7578 -0.3158  0.4380
  411MOL0     C55380   6.770   3.312   7.061  0.2583 -0.2867  0.1086
  411MOL0     O55381   6.714   3.382   7.160 -0.3210  0.4916  0.2168
  411MOL0     C55382   6.584   3.388   7.172 -0.5574 -0.5835 -0.0665
  411MOL0     C55383   6.512   3.495   7.121 -0.7920  0.4593  0.3899
  411MOL0     C55384   6.385   3.507   7.152 -0.3112  1.1872  0.6336
  411MOL0     C55385   6.314   3.421   7.233  0.3264 -0.1093 -0.3812
  411MOL0     O55386   6.182   3.414   7.271 -0.1657 -0.7820  0.1598
  411MOL0     C55387   6.086   3.497   7.200 -0.2772 -0.4952 -0.4171
  411MOL0     C55388   5.949   3.486   7.272 -0.2484  0.0141 -0.1131
  411MOL0     C55389   5.838   3.556   7.187 -0.2534 -0.4105  0.1677
  411MOL0     C55390   5.710   3.564   7.273  0.2687 -0.3313 -0.2593
  411MOL0     C55391   5.705   3.689   7.362 -0.4371 -0.1124 -0.1266
  411MOL0     C55392   5.571   3.701   7.429  0.1522 -0.0211 -0.0673
  411MOL0     C55393   5.572   3.815   7.534 -0.2881  0.6793  0.3934
  411MOL0     C55394   5.425   3.852   7.570 -0.5742  0.6450  0.4892
  411MOL0    Cl55395   5.328   3.925   7.443  0.3076  0.2088 -0.3765
  411MOL0     C55396   6.383   3.311   7.282  0.1253 -0.1190 -0.0830
  411MOL0     C55397   6.520   3.297   7.259 -1.1517 -0.8562  0.8558
  411MOL0     O55398   6.710   3.248   6.980 -0.3128 -0.2387  0.4182
  411MOL0     C55399   6.987   3.417   7.137 -0.2992  0.0531 -1.0674
  411MOL0     C55400   7.124   3.445   7.122 -0.1874  0.5644 -0.2598
  411MOL0     N55401   7.875   3.609   7.435 -0.2973  0.5978 -0.5855
  411MOL0     N55402   7.939   3.600   7.551 -0.2176  0.2076  0.0106
  411MOL0     C55403   9.009   3.428   7.677 -0.1171  0.1482 -0.4477
  411MOL0     C55404   9.127   3.472   7.621 -0.6521 -0.6732  0.5716
  411MOL0     C55405   9.546   3.641   7.559 -0.0447  1.0594 -0.1971
  411MOL0     C55406   9.528   3.780   7.542  0.0666  0.6176 -0.2859
  411MOL0     C55407   9.638   3.853   7.506 -0.4181 -0.2673  0.2663
  411MOL0     C55408   9.762   3.794   7.487  0.1970 -0.2152 -0.4396
  411MOL0     O55409   9.879   3.858   7.454 -0.2893  0.2781  0.5774
  411MOL0     C55410   9.898   3.993   7.480 -0.0816  0.1838  0.5720
  411MOL0     C55411  10.051   4.001   7.504 -0.0398 -1.1691 -0.2620
  411MOL0     C55412  10.097   4.145   7.533 -0.4740 -0.1967  0.5608
  411MOL0     C55413  10.250   4.160   7.528 -0.2529  0.5796 -0.4471
  411MOL0     C55414  10.317   4.100   7.420  0.5745  0.1920  0.5260
  411MOL0     C55415  10.378   4.058   7.327  0.4622 -0.1040 -0.0571
  411MOL0     C55416   9.780   3.662   7.510  0.1102 -0.0713 -0.0950
  411MOL0     C55417   9.675   3.579   7.548  0.4324 -0.2280 -1.0720
  411MOL0     H55418   9.232   3.681   7.870 -0.4970 -0.6412  3.0556
  411MOL0     H55419   9.036   3.599   7.971 -0.3016 -0.1412  0.3995
  411MOL0     H55420   8.837   3.438   8.059  1.7966  0.5656 -0.6628
  411MOL0     H55421   8.787   3.576   7.968 -1.6676  0.4853  0.6259
  411MOL0     H55422   8.647   3.320   7.936 -2.3067 -0.2338 -0.0756
  411MOL0     H55423   8.575   3.432   8.051  0.7515 -0.6211  0.8420
  411MOL0     H55424   8.547   3.604   7.890 -0.1939  1.1365 -2.6707
  411MOL0     H55425   8.631   3.519   7.767  2.4418 -2.1586  1.6018
  411MOL0     H55426   8.463   3.320   7.769  0.2897  0.3543  0.3782
  411MOL0     H55427   8.367   3.403   7.883 -0.1332  2.0232  0.2644
  411MOL0     H55428   8.362   3.594   7.715  2.4308  0.6211  0.9549
  411MOL0     H55429   8.425   3.486   7.594 -0.5373 -0.5252 -0.4306
  411MOL0     H55430   8.198   3.469   7.556 -0.9981  2.0237  0.7000
  411MOL0     H55431   8.241   3.321   7.645 -1.0919  0.3989  1.9771
  411MOL0     H55432   8.157   3.403   7.851 -1.1658  1.4293  1.6243
  411MOL0     H55433   8.120   3.563   7.782  0.5847 -0.5848  1.3911
  411MOL0     H55434   7.908   3.418   7.780  0.6350  0.1806 -0.3631
  411MOL0     H55435   8.008   3.297   7.694 -0.0081  0.1480  0.3174
  411MOL0     H55436   7.870   3.284   7.466 -1.1255  0.3496 -1.7814
  411MOL0     H55437   7.833   3.495   7.177 -0.5720  1.7537 -0.5469
  411MOL0     H55438   7.790   3.337   7.237 -0.3113 -0.5766  0.2275
  411MOL0     H55439   7.604   3.577   7.273 -2.0165 -0.0335  1.7249
  411MOL0     H55440   7.596   3.424   7.356 -0.1477  0.6027  0.1365
  411MOL0     H55441   7.563   3.299   7.160 -0.7968  0.5211  1.6314
  411MOL0     H55442   7.624   3.443   7.060 -1.6399  1.2192  0.0079
  411MOL0     H55443   7.412   3.554   7.090  1.3649  0.6217  0.5473
  411MOL0     H55444   7.370   3.457   7.234 -0.1146 -1.9744 -0.5390
  411MOL0     H55445   7.207   3.181   6.923 -0.9384 -1.9905  1.2711
  411MOL0     H55446   7.024   3.066   6.850 -2.6633 -0.4584 -3.4065
  411MOL0     H55447   6.876   3.064   6.941  0.5486 -3.5427 -0.9260
  411MOL0     H55448   6.892   3.173   6.804  1.5063 -0.0551 -0.5739
  411MOL0     H55449   6.564   3.568   7.060 -0.5167 -0.6426 -0.7471
  411MOL0     H55450   6.337   3.591   7.104 -0.5069  1.9600  2.1351
  411MOL0     H55451   6.123   3.600   7.203  0.4819 -0.7699 -0.0941
  411MOL0     H55452   6.084   3.471   7.094  5.0251  0.0025 -0.8971
  411MOL0     H55453   5.911   3.385   7.291 -0.9922  0.2344 -0.4060
  411MOL0     H55454   5.960   3.520   7.375 -1.2888 -0.3564  0.1233
  411MOL0     H55455   5.831   3.497   7.096  0.9549 -2.8840  1.5827
  411MOL0     H55456   5.866   3.660   7.165 -1.3116 -0.5061 -1.7810
  411MOL0     H55457   5.627   3.583   7.204  1.1102 -1.7999 -1.7190
  411MOL0     H55458   5.696   3.471   7.328 -0.8086  0.4115  0.7958
  411MOL0     H55459   5.722   3.769   7.290 -0.6239  0.1390  0.1087
  411MOL0     H55460   5.792   3.694   7.428 -0.0796  0.3172 -0.6209
  411MOL0     H55461   5.505   3.731   7.347  2.3223  3.5648 -0.7150
  411MOL0     H55462   5.543   3.605   7.472 -2.6793 -0.9046 -3.4539
  411MOL0     H55463   5.624   3.900   7.488 -0.3628  0.3271 -0.3585
  411MOL0     H55464   5.624   3.791   7.627 -0.5280 -1.7522 -0.0245
  411MOL0     H55465   5.428   3.924   7.653 -0.7661 -0.1522  1.2056
  411MOL0     H55466   5.379   3.766   7.620 -0.0400 -0.6100 -1.1036
  411MOL0     H55467   6.335   3.227   7.331  2.1043 -0.5169  1.3259
  411MOL0     H55468   6.562   3.205   7.299  1.5482 -0.4776 -0.8427
  411MOL0     H55469   6.930   3.486   7.199 -1.9378 -1.1243 -1.1740
  411MOL0     H55470   7.168   3.536   7.163  3.6431 -0.8809 -0.6848
  411MOL0     H55471   8.939   3.368   7.621  0.2584 -0.0406 -0.7170
  411MOL0     H55472   9.157   3.451   7.519  1.1581  0.2887  0.8544
  411MOL0     H55473   9.429   3.824   7.552 -1.4234 -2.5203  0.2000
  411MOL0     H55474   9.617   3.957   7.485  1.7249  0.7443  2.6031
  411MOL0     H55475   9.873   4.056   7.393  1.3472  0.6072  0.4410
  411MOL0     H55476   9.825   4.037   7.549  1.1026  1.5040  1.0319
  411MOL0     H55477  10.103   3.966   7.414  1.0343 -0.3243  0.0127
  411MOL0     H55478  10.058   3.944   7.597  2.4172  2.6625  2.1646
  411MOL0     H55479  10.070   4.184   7.632  0.3758  2.3288 -0.1182
  411MOL0     H55480  10.058   4.217   7.460  2.5282  1.7070  0.6521
  411MOL0     H55481  10.299   4.118   7.617  1.2098  0.7860 -1.1251
  411MOL0     H55482  10.283   4.264   7.523  3.4000 -0.2099  2.7967
  411MOL0     H55483  10.417   4.022   7.234 -1.6851  3.2791 -2.4890
  411MOL0     H55484   9.880   3.619   7.500  0.4926  0.7234  0.1942
  411MOL0     H55485   9.697   3.475   7.566 -0.5718 -0.3041 -0.1540
  412MOL0     O55486   5.131   0.464   6.962  0.0825 -0.1465  0.0759
  412MOL0     C55487   5.188   0.571   6.946 -0.2373 -0.0198 -0.0593
  412MOL0     O55488   5.312   0.595   6.889  0.3771 -1.0287 -0.1901
  412MOL0     C55489   5.379   0.490   6.832 -0.5620  0.3863 -0.0216
  412MOL0     C55490   5.521   0.519   6.826  0.4855  0.7674 -0.4725
  412MOL0     C55491   5.599   0.430   6.756  0.3742  0.5736  0.5045
  412MOL0     C55492   5.546   0.309   6.704  0.2904 -0.0255 -0.7674
  412MOL0     O55493   5.638   0.233   6.635  0.2256 -0.2906  0.8482
  412MOL0     C55494   5.681   0.128   6.719 -0.7580  0.5272 -0.2843
  412MOL0     C55495   5.826   0.093   6.677  0.6504  0.1471  0.2466
  412MOL0     C55496   5.919   0.214   6.693  0.6522  0.0851  0.8205
  412MOL0     C55497   6.058   0.174   6.680 -0.3410 -0.0788 -0.9634
  412MOL0     C55498   6.099   0.111   6.546 -0.1663  0.4292  0.8926
  412MOL0     C55499   6.213   0.000   6.566 -0.1522 -0.1891 -0.4939
  412MOL0     C55500   6.333   0.037   6.646 -0.0495  0.8401 -0.5088
  412MOL0     C55501   6.425   0.140   6.584  0.7124  0.0233 -0.0384
  412MOL0     N55502   6.541   0.164   6.671 -0.5374  0.5418  0.7139
  412MOL0     C55503   6.642   0.068   6.700  0.1708 -0.1089  0.8245
  412MOL0     C55504   6.744   0.136   6.762 -0.2804 -0.4571 -0.9631
  412MOL0     C55505   6.868   0.070   6.825  0.3454  0.9515  0.4290
  412MOL0     C55506   6.918  -0.048   6.742  0.4994 -0.3745 -0.2852
  412MOL0     C55507   7.060  -0.096   6.786 -0.3300 -0.3768 -0.4484
  412MOL0     C55508   7.103  -0.212   6.690 -1.5448 -0.5711  0.4052
  412MOL0     O55509   7.242  -0.243   6.690  0.1350  0.6854  0.1016
  412MOL0     C55510   7.296  -0.304   6.796  0.6561  0.4505 -0.0846
  412MOL0     C55511   7.426  -0.283   6.826  1.1335 -0.0200 -0.2060
  412MOL0     C55512   7.497  -0.364   6.920  0.6006 -0.0040  0.1617
  412MOL0     C55513   7.636  -0.344   6.923 -0.3212  0.3420  0.5547
  412MOL0     C55514   7.423  -0.459   6.997  0.5099  0.3458  0.3903
  412MOL0     C55515   7.488  -0.557   7.087  0.1275  0.4930 -0.4997
  412MOL0     O55516   7.407  -0.653   7.136 -0.1899 -0.0172  0.7618
  412MOL0     C55517   7.464  -0.756   7.210  0.3674 -0.4242 -0.5388
  412MOL0     C55518   7.574  -0.743   7.300 -0.7991  0.5889  0.3226
  412MOL0     C55519   7.611  -0.857   7.367 -0.3105 -0.0846 -0.0915
  412MOL0     C55520   7.557  -0.985   7.349  0.9468  0.1552 -0.4618
  412MOL0     O55521   7.610  -1.091   7.418 -0.0770 -0.2914  0.4026
  412MOL0     C55522   7.576  -1.225   7.387 -0.5934  0.0452 -0.8362
  412MOL0     C55523   7.674  -1.330   7.449 -0.3683 -0.7920  0.1603
  412MOL0     C55524   7.807  -1.327   7.366 -0.0778  0.1940  0.9097
  412MOL0     C55525   7.898  -1.438   7.420  0.5309 -0.1480 -0.4032
  412MOL0     C55526   8.045  -1.420   7.384 -0.3992  0.5594  0.2768
  412MOL0     C55527   8.070  -1.434   7.229  1.3772 -0.1893  0.3066
  412MOL0     C55528   8.214  -1.408   7.203 -0.2184  0.2221 -0.4663
  412MOL0     C55529   8.240  -1.271   7.160 -0.4518  0.1763 -0.2024
  412MOL0    Cl55530   8.248  -1.144   7.293 -0.5998 -0.1717  0.0128
  412MOL0     C55531   7.448  -0.992   7.262  0.3250  0.9632  0.4762
  412MOL0     C55532   7.400  -0.874   7.198  0.0013  0.6222 -0.3871
  412MOL0     O55533   7.615  -0.563   7.088  0.1340  0.2086 -0.9147
  412MOL0     C55534   7.284  -0.466   6.984  0.9694  0.3964 -0.0545
  412MOL0     C55535   7.219  -0.396   6.879  0.1935 -0.1437  0.2454
  412MOL0     N55536   6.708   0.271   6.774 -1.2301 -0.1120  0.1959
  412MOL0     N55537   6.587   0.287   6.713 -0.1488  0.2251 -0.7772
  412MOL0     C55538   5.410   0.286   6.709 -0.1440 -0.4059 -0.0858
  412MOL0     C55539   5.322   0.372   6.771  0.4430  0.3293  0.4239
  412MOL0     C55540   5.118   0.698   6.976 -0.2185 -0.5451  0.9193
  412MOL0     C55541   5.013   0.694   7.068 -0.1660  0.0457  0.8820
  412MOL0     C55542   4.933   0.809   7.088 -0.6997  0.2984 -0.2004
  412MOL0     C55543   4.984   0.939   7.042  0.7228 -0.0659 -1.0940
  412MOL0     O55544   4.922   1.061   7.073  0.2386 -0.0341 -0.3489
  412MOL0     C55545   4.794   1.054   7.148  0.0694 -0.0569 -0.0641
  412MOL0     C55546   4.727   1.193   7.155  0.1209  1.1023  0.3994
  412MOL0     C55547   4.589   1.194   7.219  0.2399  1.0258  0.7100
  412MOL0     C55548   4.488   1.115   7.121 -0.1298 -0.4737  0.0824
  412MOL0     C55549   4.347   1.133   7.172  0.0406  0.1057  0.0634
  412MOL0     C55550   4.243   1.161   7.235 -0.4340 -0.1045 -0.6157
  412MOL0     C55551   5.094   0.942   6.959  0.0073 -0.6254 -1.0444
  412MOL0     C55552   5.162   0.822   6.932 -1.0535 -0.1317  0.8639
  412MOL0     H55553   5.566   0.610   6.864  2.4566 -0.4385  0.2525
  412MOL0     H55554   5.705   0.437   6.733  0.2594 -0.6367 -0.4971
  412MOL0     H55555   5.678   0.157   6.824  1.6152  1.7412 -0.4973
  412MOL0     H55556   5.614   0.044   6.695 -0.6425  0.0439  1.0230
  412MOL0     H55557   5.865   0.010   6.737 -1.6452 -1.4066 -0.3097
  412MOL0     H55558   5.819   0.063   6.572  2.4116 -1.3961  0.5208
  412MOL0     H55559   5.891   0.295   6.625 -0.3095  1.6040  2.9162
  412MOL0     H55560   5.904   0.257   6.793 -1.4458 -1.5970  1.3055
  412MOL0     H55561   6.123   0.260   6.699  1.3661 -1.1558 -1.6533
  412MOL0     H55562   6.085   0.105   6.761  0.6793  0.9195 -0.4190
  412MOL0     H55563   6.009   0.078   6.494  1.6985  0.4480 -2.7168
  412MOL0     H55564   6.146   0.187   6.482 -1.7218  1.4930  0.9594
  412MOL0     H55565   6.158  -0.073   6.626  0.5836  1.4353  2.3347
  412MOL0     H55566   6.247  -0.040   6.470 -2.6772 -2.9025 -0.4167
  412MOL0     H55567   6.299   0.068   6.746  0.7711 -0.7072  0.2843
  412MOL0     H55568   6.390  -0.055   6.663 -0.5685  0.4509 -0.8351
  412MOL0     H55569   6.367   0.232   6.575 -1.3715 -0.6321  4.1240
  412MOL0     H55570   6.460   0.106   6.486  1.2725  1.2779 -0.2860
  412MOL0     H55571   6.627  -0.035   6.670 -1.7007 -0.0870  1.5508
  412MOL0     H55572   6.950   0.142   6.827 -0.0940  1.4395  1.3214
  412MOL0     H55573   6.857   0.037   6.929  2.0143  0.0229  0.3500
  412MOL0     H55574   6.917  -0.008   6.641 -0.5999 -0.5426 -0.3562
  412MOL0     H55575   6.844  -0.129   6.745  1.1786 -1.2108 -3.2833
  412MOL0     H55576   7.052  -0.123   6.891 -1.5772 -0.1623 -0.4725
  412MOL0     H55577   7.136  -0.018   6.782  0.1142 -0.8509 -2.3922
  412MOL0     H55578   7.079  -0.175   6.590  1.2470 -1.3611 -0.6456
  412MOL0     H55579   7.043  -0.303   6.701  2.1309 -2.9665  2.2142
  412MOL0     H55580   7.482  -0.207   6.771  3.3870 -1.2641  0.2401
  412MOL0     H55581   7.677  -0.256   6.874  0.4549 -0.2458  0.1293
  412MOL0     H55582   7.673  -0.345   7.026 -2.4695 -1.0726  1.4070
  412MOL0     H55583   7.680  -0.433   6.876  0.6801 -0.5747  3.0436
  412MOL0     H55584   7.627  -0.653   7.327  0.3685  0.2922 -0.8846
  412MOL0     H55585   7.693  -0.856   7.438  1.6050 -3.8463 -1.9486
  412MOL0     H55586   7.479  -1.235   7.437 -1.0171  0.7314 -1.5073
  412MOL0     H55587   7.565  -1.239   7.279  1.0750  0.4842 -1.0852
  412MOL0     H55588   7.695  -1.304   7.553  0.8870 -1.8214  0.1816
  412MOL0     H55589   7.626  -1.428   7.450  0.0075 -0.9898 -0.7631
  412MOL0     H55590   7.863  -1.233   7.374  4.2873 -1.9957 -0.9175
  412MOL0     H55591   7.791  -1.350   7.261  2.0797  1.6895  0.1895
  412MOL0     H55592   7.900  -1.428   7.529  0.1315  1.0359 -0.4867
  412MOL0     H55593   7.866  -1.541   7.403  1.2383 -0.3490 -0.5200
  412MOL0     H55594   8.095  -1.503   7.433  1.2835  0.9055 -0.7599
  412MOL0     H55595   8.083  -1.323   7.417 -1.0095  1.2926 -1.0815
  412MOL0     H55596   8.051  -1.535   7.193  5.9910 -0.7251 -1.3384
  412MOL0     H55597   8.020  -1.358   7.168  1.7261 -1.2069 -1.3198
  412MOL0     H55598   8.255  -1.469   7.122 -0.7268  0.6514 -1.0512
  412MOL0     H55599   8.274  -1.423   7.294 -1.2533 -1.8247 -0.0694
  412MOL0     H55600   8.161  -1.248   7.088 -2.1994 -2.7890  0.6017
  412MOL0     H55601   8.334  -1.262   7.106  0.3834 -0.8076  1.0378
  412MOL0     H55602   7.396  -1.085   7.243  0.5280  1.4568 -3.5118
  412MOL0     H55603   7.311  -0.873   7.137 -0.5835  2.6014  0.4183
  412MOL0     H55604   7.225  -0.535   7.043  0.2505  0.1658 -1.0238
  412MOL0     H55605   7.114  -0.415   6.863  0.7767 -1.7551 -2.1439
  412MOL0     H55606   5.382   0.202   6.647 -0.4122  1.0683 -2.0483
  412MOL0     H55607   5.217   0.349   6.754  0.3257  1.4354 -0.4135
  412MOL0     H55608   4.990   0.608   7.130 -2.8266 -1.8980 -2.4836
  412MOL0     H55609   4.854   0.800   7.162  0.5551  0.7545  1.2604
  412MOL0     H55610   4.720   0.980   7.114  0.5683 -1.9926  2.6529
  412MOL0     H55611   4.808   1.022   7.252  0.8083  1.8082  0.4451
  412MOL0     H55612   4.720   1.228   7.052  2.0603 -0.0439 -0.1643
  412MOL0     H55613   4.797   1.262   7.203  0.8006  0.7959 -0.1329
  412MOL0     H55614   4.555   1.297   7.231 -1.3189  0.3812  2.1862
  412MOL0     H55615   4.597   1.151   7.319 -1.0417  2.3547  1.4121
  412MOL0     H55616   4.508   1.008   7.119  2.6822 -0.1760  3.1775
  412MOL0     H55617   4.511   1.151   7.020  1.6483 -1.2733  0.1576
  412MOL0     H55618   4.157   1.202   7.285 -0.3232  0.8717 -1.2028
  412MOL0     H55619   5.125   1.040   6.925  1.0479  0.3751  2.3521
  412MOL0     H55620   5.239   0.833   6.857 -1.9111  0.5977  0.0693
  413MOL0     O55621  11.194   7.366   0.256  0.1514  0.0638  0.8615
  413MOL0     C55622  11.254   7.457   0.315  0.4188  0.7156 -0.4604
  413MOL0     O55623  11.208   7.585   0.337  0.4688 -0.0711 -0.0717
  413MOL0     C55624  11.087   7.613   0.286 -0.3503  0.2245  0.6403
  413MOL0     C55625  10.971   7.591   0.355  0.5265  1.0549 -0.1605
  413MOL0     C55626  10.842   7.625   0.294  0.4030 -0.1682 -1.2400
  413MOL0     C55627  10.830   7.672   0.165 -0.0403  0.2342 -0.1121
  413MOL0     O55628  10.712   7.705   0.101  0.1360  0.1377 -0.2566
  413MOL0     C55629  10.691   7.842   0.106 -0.4731  0.1731 -0.2072
  413MOL0     C55630  10.548   7.892   0.099  0.6974 -0.7691 -0.7248
  413MOL0     C55631  10.559   8.037   0.146 -0.4561 -0.3394 -0.8312
  413MOL0     C55632  10.429   8.106   0.129  0.0311  0.1283 -0.3112
  413MOL0     C55633  10.433   8.256   0.143  0.0990  0.2616  0.0943
  413MOL0     C55634  10.298   8.322   0.114 -0.5649 -0.2039  0.0645
  413MOL0     C55635  10.297   8.471   0.107 -0.0698  0.6353 -0.9144
  413MOL0     C55636  10.356   8.532   0.241  0.8226  0.3156  0.3165
  413MOL0     N55637  10.348   8.679   0.243  0.7821 -0.5309 -0.4578
  413MOL0     C55638  10.233   8.750   0.266 -0.3433  0.4807 -0.2648
  413MOL0     C55639  10.274   8.872   0.303 -0.3641  0.1747  0.0524
  413MOL0     C55640  10.183   8.976   0.367 -0.7389 -0.4039  0.3670
  413MOL0     C55641  10.100   8.926   0.490 -0.5685  0.2169  0.1304
  413MOL0     C55642  10.021   9.032   0.566 -0.0611 -0.6325 -0.4205
  413MOL0     C55643   9.954   9.142   0.478 -0.1832  0.2048 -0.2276
  413MOL0     O55644   9.854   9.084   0.390  0.2546  0.0723 -0.1100
  413MOL0     C55645   9.744   9.162   0.361 -0.6015 -0.6090  1.1041
  413MOL0     C55646   9.731   9.298   0.365  0.0330 -0.9093  0.0913
  413MOL0     C55647   9.610   9.369   0.335  0.1738  0.1903 -0.3697
  413MOL0     C55648   9.605   9.522   0.357 -0.3610 -0.5649 -0.1833
  413MOL0     C55649   9.505   9.286   0.295  0.9352  0.5441  0.7365
  413MOL0     C55650   9.363   9.330   0.274 -0.2910  0.1285 -0.0623
  413MOL0     O55651   9.276   9.233   0.231  0.3181 -0.2301 -0.2982
  413MOL0     C55652   9.140   9.260   0.209  0.3312  0.0100 -0.0630
  413MOL0     C55653   9.070   9.381   0.184 -0.5530  0.8284 -0.0397
  413MOL0     C55654   8.934   9.380   0.157  0.7012  1.3189 -0.1119
  413MOL0     C55655   8.853   9.265   0.153 -0.1265 -0.5198  0.1733
  413MOL0     O55656   8.721   9.278   0.122  0.1528 -0.1978  0.1927
  413MOL0     C55657   8.634   9.165   0.146 -0.5924  0.7702  0.1452
  413MOL0     C55658   8.492   9.191   0.122 -0.0027 -0.5993 -0.3799
  413MOL0     C55659   8.402   9.066   0.124  0.4721  0.0091 -0.3495
  413MOL0     C55660   8.264   9.116   0.149  0.5735 -0.4404 -0.1959
  413MOL0     C55661   8.159   9.015   0.089 -0.8608 -1.2503 -1.3311
  413MOL0     C55662   8.019   9.025   0.156  0.8778 -0.0088 -0.2211
  413MOL0     C55663   7.995   8.915   0.259 -0.4877  0.0802 -0.3600
  413MOL0     C55664   7.875   8.937   0.363  0.4377  0.7729 -0.5235
  413MOL0    Cl55665   7.715   8.997   0.285 -0.4774  0.2341 -0.2925
  413MOL0     C55666   8.922   9.148   0.180  0.0686  0.6647 -0.7924
  413MOL0     C55667   9.057   9.152   0.213 -0.1317 -0.4304  0.0876
  413MOL0     O55668   9.331   9.444   0.295  0.1862  0.0955  0.1955
  413MOL0     C55669   9.527   9.147   0.268 -0.0626  0.0396  0.4204
  413MOL0     C55670   9.647   9.090   0.298  0.3410  0.0564  0.0488
  413MOL0     N55671  10.413   8.875   0.285  0.3052  0.0302 -0.6936
  413MOL0     N55672  10.452   8.760   0.252  0.4967 -1.0252 -0.3448
  413MOL0     C55673  10.949   7.694   0.095 -0.1452  0.1017  0.1417
  413MOL0     C55674  11.073   7.667   0.154 -0.1092  0.0906 -0.1246
  413MOL0     C55675  11.382   7.423   0.368 -0.0664  0.1080  0.5131
  413MOL0     C55676  11.456   7.315   0.317 -0.2012 -0.8404 -0.1687
  413MOL0     C55677  11.588   7.311   0.359  0.2191  0.3292 -0.4181
  413MOL0     C55678  11.645   7.396   0.449 -0.0964 -0.0132 -0.4211
  413MOL0     O55679  11.776   7.365   0.475 -0.1082 -0.0352  0.0185
  413MOL0     C55680  11.832   7.418   0.597  0.2285  0.3515  0.0943
  413MOL0     C55681  11.957   7.343   0.641  0.4607 -0.1345 -0.8762
  413MOL0     C55682  12.031   7.402   0.758 -0.7960 -0.4551 -0.3992
  413MOL0     C55683  12.131   7.314   0.837 -0.8540  0.3630 -0.1467
  413MOL0     C55684  12.257   7.382   0.879 -0.0241  0.1795 -0.3541
  413MOL0     C55685  12.369   7.424   0.917 -0.0689 -0.0315  0.3586
  413MOL0     C55686  11.569   7.487   0.512  0.5742 -0.0316  0.5757
  413MOL0     C55687  11.437   7.507   0.472  0.5786  0.8306 -0.1630
  413MOL0     H55688  10.986   7.545   0.452  0.1238  0.2655 -0.4653
  413MOL0     H55689  10.753   7.621   0.356  2.1140 -2.0308  1.3149
  413MOL0     H55690  10.727   7.875   0.203 -0.9165 -0.3309  0.1324
  413MOL0     H55691  10.740   7.889   0.020 -2.6312  0.0479 -1.5810
  413MOL0     H55692  10.501   7.889   0.001 -1.0445  1.1289 -0.0186
  413MOL0     H55693  10.482   7.834   0.164  0.5578 -1.1893 -1.2382
  413MOL0     H55694  10.572   8.033   0.255  3.2134 -0.9037 -1.1534
  413MOL0     H55695  10.647   8.090   0.109  1.3236  1.5284  4.9952
  413MOL0     H55696  10.385   8.078   0.033 -0.7087 -0.0417  0.0707
  413MOL0     H55697  10.355   8.074   0.202 -0.6914  0.4406 -0.8870
  413MOL0     H55698  10.464   8.277   0.246 -0.0326  0.7174  0.0428
  413MOL0     H55699  10.512   8.299   0.080 -0.0786  0.6715  0.1455
  413MOL0     H55700  10.269   8.276   0.019  2.0654  1.6520 -1.7734
  413MOL0     H55701  10.229   8.288   0.192  0.4653 -1.9410  0.2784
  413MOL0     H55702  10.360   8.502   0.023  0.9046 -0.6190 -0.6793
  413MOL0     H55703  10.197   8.508   0.083 -0.0305  1.2627 -0.1504
  413MOL0     H55704  10.457   8.503   0.272  0.4452 -0.3031  1.0153
  413MOL0     H55705  10.296   8.496   0.325  1.5458 -1.2018  0.2013
  413MOL0     H55706  10.127   8.727   0.276 -0.2173  0.2059  0.5158
  413MOL0     H55707  10.243   9.062   0.399  0.7090 -1.0279 -0.5747
  413MOL0     H55708  10.114   9.014   0.291  0.2618  0.9478  0.1100
  413MOL0     H55709  10.166   8.874   0.559 -0.8710  0.5200  0.6533
  413MOL0     H55710  10.029   8.848   0.461 -1.9743  2.0310 -1.5917
  413MOL0     H55711  10.091   9.079   0.636  0.7703 -3.1958  0.6017
  413MOL0     H55712   9.943   8.981   0.622  0.5125 -3.5217 -2.0150
  413MOL0     H55713  10.036   9.194   0.426  0.0809  0.2710  0.2483
  413MOL0     H55714   9.919   9.224   0.541 -0.9860 -1.3939  1.5039
  413MOL0     H55715   9.822   9.345   0.400  1.1741 -2.1614 -1.0648
  413MOL0     H55716   9.548   9.578   0.282  0.0631  1.5017  0.9549
  413MOL0     H55717   9.550   9.542   0.449 -0.1278  2.2744 -0.5738
  413MOL0     H55718   9.705   9.566   0.357  0.6859 -2.8171 -0.4078
  413MOL0     H55719   9.130   9.470   0.168 -0.3544  0.6753 -0.1418
  413MOL0     H55720   8.877   9.471   0.141 -1.0247  0.3236  0.1466
  413MOL0     H55721   8.667   9.082   0.083  0.8657  2.9064 -2.1315
  413MOL0     H55722   8.662   9.129   0.245  0.5062  0.5279 -0.2441
  413MOL0     H55723   8.459   9.267   0.194 -0.7456  0.8643 -2.1731
  413MOL0     H55724   8.488   9.244   0.026  0.3318  0.7278  0.3051
  413MOL0     H55725   8.430   8.982   0.187  0.1913 -0.4125 -0.7796
  413MOL0     H55726   8.405   9.029   0.021 -0.1299 -0.9284 -0.0378
  413MOL0     H55727   8.252   9.133   0.256 -1.4284  1.7862 -0.6893
  413MOL0     H55728   8.245   9.208   0.093 -1.9294 -0.1883  0.9443
  413MOL0     H55729   8.204   8.915   0.089  1.8651 -0.2303  1.9807
  413MOL0     H55730   8.149   9.040  -0.016  0.5636  1.8950 -0.8502
  413MOL0     H55731   7.999   9.122   0.202  1.9640  1.3144 -2.3644
  413MOL0     H55732   7.941   9.011   0.080  2.3304 -1.5352 -1.5312
  413MOL0     H55733   8.083   8.903   0.322 -1.3717  1.0061  1.1158
  413MOL0     H55734   7.988   8.827   0.194  0.2160  0.8732 -1.5602
  413MOL0     H55735   7.900   9.020   0.429 -2.6434  0.3469  1.3738
  413MOL0     H55736   7.860   8.846   0.423  0.5544  0.3897 -1.0734
  413MOL0     H55737   8.865   9.057   0.192 -0.3376  1.2948  3.3291
  413MOL0     H55738   9.106   9.059   0.242 -0.1610  0.0583  1.8712
  413MOL0     H55739   9.444   9.085   0.235  0.1621 -0.2854  0.4556
  413MOL0     H55740   9.655   8.984   0.277  0.0556  0.1666 -0.6677
  413MOL0     H55741  10.940   7.746   0.001  1.6919 -2.0757 -1.3499
  413MOL0     H55742  11.158   7.698   0.095 -1.0103  0.2947 -1.3532
  413MOL0     H55743  11.421   7.251   0.237  4.9654 -1.2245 -2.5281
  413MOL0     H55744  11.655   7.233   0.324  0.7852 -0.4816  2.2322
  413MOL0     H55745  11.874   7.519   0.588  2.1650 -0.2360  1.6415
  413MOL0     H55746  11.764   7.422   0.683  1.9947 -0.2158  1.6067
  413MOL0     H55747  12.016   7.343   0.549 -2.8116 -0.2604 -3.1293
  413MOL0     H55748  11.924   7.240   0.659  1.0736 -0.2103 -0.0940
  413MOL0     H55749  11.949   7.439   0.820 -0.1282  2.0851 -0.9416
  413MOL0     H55750  12.089   7.487   0.722 -2.8747  1.3245  0.2861
  413MOL0     H55751  12.153   7.232   0.769 -3.0406 -0.9471  0.6147
  413MOL0     H55752  12.078   7.273   0.923 -2.4093  0.0464 -1.2210
  413MOL0     H55753  12.467   7.462   0.935  0.6234 -0.2912 -2.5118
  413MOL0     H55754  11.608   7.562   0.581  0.3661 -0.3127  1.0072
  413MOL0     H55755  11.389   7.597   0.509 -0.9368  0.0880 -0.2243
  414MOL0     O55756   5.453   9.786   4.194  0.4859 -0.4842 -0.1292
  414MOL0     C55757   5.557   9.762   4.246  0.1801  1.2709 -0.6686
  414MOL0     O55758   5.624   9.845   4.335 -0.0800  0.5480 -0.0999
  414MOL0     C55759   5.572   9.966   4.364 -0.4282 -1.3361  0.8295
  414MOL0     C55760   5.604  10.078   4.285 -0.2365  1.5808  0.2330
  414MOL0     C55761   5.567  10.206   4.313  0.0470 -0.2153 -0.4755
  414MOL0     C55762   5.499  10.234   4.427 -0.6405  0.1289  0.4127
  414MOL0     O55763   5.473  10.365   4.454  0.0256  0.2164 -0.3527
  414MOL0     C55764   5.335  10.397   4.433 -0.1973  0.6745  0.0567
  414MOL0     C55765   5.308  10.499   4.325  0.2395  0.7552 -0.2013
  414MOL0     C55766   5.178  10.569   4.328  0.4634 -0.1466  0.4859
  414MOL0     C55767   5.176  10.697   4.411  0.6006  0.8668 -0.0586
  414MOL0     C55768   5.039  10.757   4.379 -0.4443 -0.6584 -0.3716
  414MOL0     C55769   4.973  10.811   4.514 -0.0572  0.7665  0.5313
  414MOL0     C55770   4.840  10.869   4.492  0.1777  1.0776  0.1916
  414MOL0     C55771   4.799  10.932   4.626  0.9500 -0.3150  0.2833
  414MOL0     N55772   4.669  11.001   4.620 -1.1213  0.0172 -0.3407
  414MOL0     C55773   4.628  11.086   4.725  0.4078  0.2603 -1.4195
  414MOL0     C55774   4.498  11.114   4.696 -0.1216 -0.6222  0.1088
  414MOL0     C55775   4.401  11.195   4.781  0.0846 -0.6850  0.1598
  414MOL0     C55776   4.376  11.338   4.710 -0.0207  0.8221 -0.2021
  414MOL0     C55777   4.270  11.420   4.790 -0.2042  0.6828  0.1048
  414MOL0     C55778   4.247  11.558   4.714  0.0040 -0.3514 -0.1437
  414MOL0     O55779   4.171  11.540   4.591  0.6033 -0.0672 -0.0753
  414MOL0     C55780   4.036  11.518   4.612  0.5011  0.4450 -0.3336
  414MOL0     C55781   3.973  11.485   4.500  0.0407 -0.0249  0.1680
  414MOL0     C55782   3.842  11.464   4.497 -0.0928 -0.5770  0.1208
  414MOL0     C55783   3.799  11.436   4.362  0.3552  0.6499  0.1613
  414MOL0     C55784   3.756  11.488   4.610  0.6775 -0.4084 -0.9597
  414MOL0     C55785   3.607  11.489   4.614 -0.4563 -0.5745  0.1492
  414MOL0     O55786   3.550  11.498   4.734  0.4825  0.1531 -0.3258
  414MOL0     C55787   3.414  11.508   4.731  0.0460 -0.0812 -0.1556
  414MOL0     C55788   3.348  11.386   4.707  0.3340  0.3939  0.2075
  414MOL0     C55789   3.208  11.372   4.721 -0.6123  0.1416  0.0997
  414MOL0     C55790   3.133  11.482   4.765 -0.1348  0.1891 -0.0445
  414MOL0     O55791   3.010  11.475   4.807 -0.0570 -0.4930 -0.1980
  414MOL0     C55792   2.926  11.432   4.700 -0.3661 -0.5793  0.3308
  414MOL0     C55793   2.869  11.557   4.625 -0.3142  0.5175  0.7790
  414MOL0     C55794   2.739  11.529   4.547  0.0168 -0.2355 -0.2161
  414MOL0     C55795   2.619  11.631   4.566  0.2631 -0.1023  0.6640
  414MOL0     C55796   2.642  11.766   4.487 -0.2309  0.5851 -0.2087
  414MOL0     C55797   2.533  11.862   4.518  0.3822  0.0005  0.2969
  414MOL0     C55798   2.546  11.995   4.460 -0.8045 -0.5237  0.6959
  414MOL0     C55799   2.448  12.098   4.527 -0.4508 -0.3125  0.0591
  414MOL0    Cl55800   2.288  12.026   4.558 -0.3613  0.0133  0.0030
  414MOL0     C55801   3.200  11.606   4.780  0.0968 -0.3466  0.2778
  414MOL0     C55802   3.336  11.630   4.756 -0.1308  0.1232 -0.3092
  414MOL0     O55803   3.547  11.493   4.508  0.3056  0.4126 -0.0130
  414MOL0     C55804   3.829  11.519   4.731  0.4497 -0.5037 -0.2168
  414MOL0     C55805   3.965  11.534   4.735 -0.2398  0.1959 -0.1535
  414MOL0     N55806   4.469  11.056   4.566  0.2494 -0.0636 -0.0144
  414MOL0     N55807   4.571  10.983   4.532  0.4862 -0.7098 -0.7440
  414MOL0     C55808   5.461  10.132   4.505  0.4499  0.3466  0.1255
  414MOL0     C55809   5.487   9.999   4.469 -1.0974 -0.5264  0.9886
  414MOL0     C55810   5.625   9.641   4.215  0.4855 -0.4323 -0.1722
  414MOL0     C55811   5.569   9.550   4.122 -0.5380 -0.0051 -0.3181
  414MOL0     C55812   5.636   9.434   4.095  0.7302 -1.0747 -0.6317
  414MOL0     C55813   5.764   9.409   4.152 -0.4258  0.0594  0.2544
  414MOL0     O55814   5.834   9.299   4.131 -0.1392  0.3358  0.1033
  414MOL0     C55815   5.806   9.198   4.027  0.2902 -0.4961  0.3862
  414MOL0     C55816   5.839   9.263   3.894 -0.3600  0.0357  0.1421
  414MOL0     C55817   5.982   9.322   3.896  0.6982 -0.0554  0.1893
  414MOL0     C55818   6.077   9.210   3.873 -0.9544  0.3270  0.0964
  414MOL0     C55819   6.135   9.151   3.999 -0.3203 -1.0887 -0.4829
  414MOL0     C55820   6.200   9.101   4.086  0.3555 -0.1435  0.1436
  414MOL0     C55821   5.818   9.497   4.247  0.3937 -0.0363  0.1054
  414MOL0     C55822   5.741   9.608   4.280 -0.4292  0.2124  0.9555
  414MOL0     H55823   5.674  10.078   4.202  1.3458  1.8890  1.5203
  414MOL0     H55824   5.608  10.288   4.254  2.3519 -0.8835  0.0718
  414MOL0     H55825   5.284  10.302   4.414  4.1597 -1.7969 -0.7588
  414MOL0     H55826   5.285  10.442   4.519 -2.5879  0.9549 -1.3928
  414MOL0     H55827   5.380  10.579   4.347  1.0434  0.5791 -2.0048
  414MOL0     H55828   5.326  10.454   4.227 -0.9357  0.8371 -0.4656
  414MOL0     H55829   5.160  10.603   4.226  0.7066 -0.8924  0.1847
  414MOL0     H55830   5.104  10.491   4.349  0.1144  0.3803  1.2837
  414MOL0     H55831   5.187  10.672   4.517 -1.9588  0.6495  0.2244
  414MOL0     H55832   5.256  10.764   4.378  2.2233 -0.3272  1.2548
  414MOL0     H55833   5.057  10.837   4.307 -1.3647 -0.1323 -0.0380
  414MOL0     H55834   4.970  10.689   4.329 -2.3776  1.1188 -0.2547
  414MOL0     H55835   4.969  10.733   4.590  0.3917 -1.9845 -2.0812
  414MOL0     H55836   5.034  10.895   4.547  0.3858  0.8360 -0.4211
  414MOL0     H55837   4.845  10.937   4.406 -0.0157 -2.7752 -3.1932
  414MOL0     H55838   4.767  10.803   4.443  1.0595  1.7341 -2.1236
  414MOL0     H55839   4.873  11.006   4.656 -1.0366  1.4045  1.2378
  414MOL0     H55840   4.806  10.854   4.702 -1.2590 -0.2985  0.5638
  414MOL0     H55841   4.694  11.117   4.805  2.1907  1.1198 -3.1100
  414MOL0     H55842   4.305  11.147   4.802  0.8965 -0.6889  5.0194
  414MOL0     H55843   4.450  11.224   4.875  0.1948  0.9386 -0.3753
  414MOL0     H55844   4.332  11.322   4.611  4.2737  1.1486 -2.4327
  414MOL0     H55845   4.471  11.393   4.702  0.6025 -0.2067  0.0259
  414MOL0     H55846   4.309  11.444   4.890 -1.7195  1.6766  0.4975
  414MOL0     H55847   4.180  11.360   4.807 -1.4377  2.3115 -0.4197
  414MOL0     H55848   4.337  11.619   4.701 -0.0355 -0.3060 -0.1996
  414MOL0     H55849   4.189  11.622   4.780 -2.7757 -1.2431 -1.5614
  414MOL0     H55850   4.034  11.475   4.411 -0.4924  1.3120 -0.3696
  414MOL0     H55851   3.703  11.385   4.345  1.0826 -0.2680 -1.4541
  414MOL0     H55852   3.787  11.531   4.310 -0.7255  1.2896  1.5178
  414MOL0     H55853   3.873  11.380   4.304  0.2754  1.1640 -0.4495
  414MOL0     H55854   3.410  11.299   4.689  2.1361  1.8219 -0.8092
  414MOL0     H55855   3.155  11.278   4.708 -1.8229  1.0516 -2.2570
  414MOL0     H55856   2.957  11.363   4.620 -2.6607 -1.1276 -0.1650
  414MOL0     H55857   2.840  11.381   4.743 -0.3810 -0.3005  0.6392
  414MOL0     H55858   2.843  11.632   4.700 -0.3312  0.3467  0.9466
  414MOL0     H55859   2.942  11.594   4.552 -0.8113 -0.3770 -0.2049
  414MOL0     H55860   2.700  11.429   4.567 -1.0212  0.2826  0.4162
  414MOL0     H55861   2.780  11.522   4.446 -2.6026 -0.4172 -1.3432
  414MOL0     H55862   2.528  11.585   4.525 -0.0244  1.8144 -1.0538
  414MOL0     H55863   2.616  11.658   4.672  1.8947 -1.7578  1.1851
  414MOL0     H55864   2.651  11.743   4.380 -0.7387  3.4627 -0.9468
  414MOL0     H55865   2.731  11.817   4.523 -0.0777 -0.4348  0.9327
  414MOL0     H55866   2.439  11.813   4.488  0.3281 -1.0019  1.9928
  414MOL0     H55867   2.529  11.868   4.627 -0.6565  1.5310  0.2104
  414MOL0     H55868   2.530  11.988   4.352 -1.4479 -0.2310  0.7703
  414MOL0     H55869   2.643  12.043   4.475  0.2973 -2.1878 -0.7002
  414MOL0     H55870   2.430  12.187   4.465 -0.3864  0.1053  0.6272
  414MOL0     H55871   2.500  12.128   4.618  0.0522  2.0458 -0.9055
  414MOL0     H55872   3.142  11.692   4.811 -0.7501 -0.9895  0.5156
  414MOL0     H55873   3.378  11.729   4.749 -0.6540  0.4056  0.4590
  414MOL0     H55874   3.785  11.529   4.830  1.4468 -1.8324  0.3907
  414MOL0     H55875   4.015  11.545   4.831  1.0012 -2.3441 -0.4197
  414MOL0     H55876   5.414  10.148   4.601  2.6183 -2.1061  1.7537
  414MOL0     H55877   5.463   9.930   4.549 -1.7283 -1.5253 -0.0411
  414MOL0     H55878   5.471   9.566   4.079 -1.2972  2.5834  2.0839
  414MOL0     H55879   5.607   9.356   4.025  2.7440 -2.1981 -0.2806
  414MOL0     H55880   5.854   9.101   4.039  3.0791  0.6450 -0.8171
  414MOL0     H55881   5.701   9.167   4.024  0.0930  0.2067 -2.3037
  414MOL0     H55882   5.771   9.344   3.866 -0.1856 -0.5986 -2.4007
  414MOL0     H55883   5.822   9.185   3.819 -1.5123  1.1659 -0.8089
  414MOL0     H55884   6.011   9.388   3.978  0.8919 -1.7051  1.5217
  414MOL0     H55885   5.997   9.382   3.807  3.0241  0.5623  0.9292
  414MOL0     H55886   6.158   9.246   3.810  0.8802  1.0536  2.7015
  414MOL0     H55887   6.022   9.132   3.818  0.3956 -0.1593 -0.6027
  414MOL0     H55888   6.251   9.065   4.174  3.6186 -0.0268 -1.5258
  414MOL0     H55889   5.913   9.477   4.296  0.5503  2.0053  0.7181
  414MOL0     H55890   5.788   9.671   4.355  0.1500  1.3432 -0.3020
  415MOL0     O55891   3.052   7.071   8.926 -0.4776 -0.6483 -0.2352
  415MOL0     C55892   3.063   7.172   8.988  0.2072 -0.2664  0.1530
  415MOL0     O55893   2.954   7.257   9.031  0.3686  0.2931 -0.5277
  415MOL0     C55894   2.828   7.197   9.008 -0.2000 -0.6850  0.1735
  415MOL0     C55895   2.772   7.102   9.098 -0.1904 -0.3466 -0.8258
  415MOL0     C55896   2.652   7.031   9.077 -0.4552 -0.1034  0.6124
  415MOL0     C55897   2.589   7.044   8.954  0.1458  1.1862  0.0746
  415MOL0     O55898   2.486   6.953   8.918 -0.6149  0.4591 -0.2195
  415MOL0     C55899   2.471   6.905   8.786 -0.4623 -0.1947 -0.4307
  415MOL0     C55900   2.377   6.780   8.802  0.2771  0.1413 -0.0980
  415MOL0     C55901   2.237   6.807   8.877  0.1239  0.0723 -0.5801
  415MOL0     C55902   2.180   6.675   8.929  0.0143  0.9130  0.4065
  415MOL0     C55903   2.033   6.691   8.983 -0.1562 -0.0679  0.7192
  415MOL0     C55904   1.996   6.583   9.081  0.8179  0.2219  0.0377
  415MOL0     C55905   1.846   6.577   9.112 -0.3287  0.6982 -0.3243
  415MOL0     C55906   1.794   6.678   9.222 -0.6705  0.1765  0.2004
  415MOL0     N55907   1.649   6.672   9.242  1.2813 -0.0235 -0.2503
  415MOL0     C55908   1.576   6.710   9.359  0.8755  0.1437 -0.7292
  415MOL0     C55909   1.450   6.687   9.332 -0.4090  0.5884  0.2662
  415MOL0     C55910   1.341   6.703   9.436 -0.4055 -0.2678  0.1250
  415MOL0     C55911   1.208   6.657   9.383  0.3895  0.2178 -0.9740
  415MOL0     C55912   1.094   6.703   9.466  0.3912  0.3123  0.4101
  415MOL0     C55913   0.951   6.657   9.424 -0.0512 -0.2319  0.3064
  415MOL0     O55914   0.852   6.709   9.511 -0.3864  0.3149 -0.1850
  415MOL0     C55915   0.721   6.713   9.465 -0.4011 -0.0988 -0.0612
  415MOL0     C55916   0.662   6.686   9.341  0.3000 -0.0604  0.1550
  415MOL0     C55917   0.533   6.714   9.313  0.1532  0.0139 -1.3395
  415MOL0     C55918   0.489   6.667   9.177 -0.1443  0.3323  0.4094
  415MOL0     C55919   0.452   6.778   9.406  0.3711 -0.0166 -0.3929
  415MOL0     C55920   0.308   6.818   9.383  0.1977 -0.0625 -0.1461
  415MOL0     O55921   0.264   6.917   9.465 -0.4922  0.4062  0.1328
  415MOL0     C55922   0.150   6.982   9.430  0.0123 -0.7730 -0.4540
  415MOL0     C55923   0.161   7.112   9.401  0.0579 -0.1887  0.0568
  415MOL0     C55924   0.048   7.186   9.375  0.7829 -0.9458 -1.0474
  415MOL0     C55925  -0.079   7.131   9.403 -0.0990  0.2287  0.5180
  415MOL0     O55926  -0.176   7.219   9.373  0.2445 -0.0989  0.2381
  415MOL0     C55927  -0.278   7.231   9.465 -0.7152 -0.4720  0.5005
  415MOL0     C55928  -0.361   7.352   9.428 -0.2882 -0.5536  0.1114
  415MOL0     C55929  -0.478   7.364   9.529  0.2945 -0.2470  0.5341
  415MOL0     C55930  -0.571   7.473   9.465  0.1929 -0.6723 -0.5945
  415MOL0     C55931  -0.713   7.478   9.528 -1.0614 -0.1407 -0.4801
  415MOL0     C55932  -0.816   7.550   9.446 -0.6804 -0.2946 -0.4591
  415MOL0     C55933  -0.942   7.542   9.518  0.9294  0.4799 -0.4400
  415MOL0     C55934  -1.058   7.579   9.429  1.0881  0.1323  0.1349
  415MOL0    Cl55935  -1.208   7.596   9.536  0.0514  0.0089  0.4009
  415MOL0     C55936  -0.092   6.998   9.444 -0.4941  0.0299 -0.5063
  415MOL0     C55937   0.027   6.925   9.463  0.2822 -0.8198 -0.7362
  415MOL0     O55938   0.247   6.763   9.287  0.1253 -0.6509 -0.4793
  415MOL0     C55939   0.505   6.797   9.540  0.2945 -0.1506 -0.4100
  415MOL0     C55940   0.632   6.754   9.566  0.3649 -0.4197  1.0530
  415MOL0     N55941   1.437   6.660   9.194 -0.7241  0.3534  0.0139
  415MOL0     N55942   1.554   6.645   9.149 -0.6763 -0.0422  0.4250
  415MOL0     C55943   2.642   7.139   8.867  0.8657  0.2905  0.0866
  415MOL0     C55944   2.754   7.220   8.896  0.1873  0.0717  0.4816
  415MOL0     C55945   3.199   7.206   9.026 -0.6660  0.3366  0.2464
  415MOL0     C55946   3.313   7.122   8.998 -0.6399 -0.3008  0.3197
  415MOL0     C55947   3.444   7.171   9.018 -0.8008  0.4066 -0.3062
  415MOL0     C55948   3.465   7.292   9.090  0.3586  0.2152  0.1943
  415MOL0     O55949   3.591   7.326   9.128  0.2251  0.0277  0.5240
  415MOL0     C55950   3.627   7.251   9.247  1.2025 -0.3159  0.0929
  415MOL0     C55951   3.741   7.320   9.309 -0.4836  0.3133 -0.4122
  415MOL0     C55952   3.693   7.460   9.356  0.9081  0.8893 -0.4176
  415MOL0     C55953   3.807   7.546   9.412  0.4269  0.5512  0.0374
  415MOL0     C55954   3.886   7.485   9.524 -0.3607 -0.2467  1.0165
  415MOL0     C55955   3.956   7.432   9.603  0.1234 -0.4726  0.0565
  415MOL0     C55956   3.353   7.362   9.139 -0.2146  0.5586  0.5228
  415MOL0     C55957   3.219   7.331   9.098 -0.2255 -0.3438  0.0886
  415MOL0     H55958   2.824   7.077   9.190  0.5021 -1.2989 -1.4554
  415MOL0     H55959   2.617   6.959   9.150  0.0667  1.0135  1.9945
  415MOL0     H55960   2.428   6.988   8.731 -1.0240  1.5177  2.3755
  415MOL0     H55961   2.569   6.866   8.755 -0.0497 -0.8223  1.5259
  415MOL0     H55962   2.338   6.745   8.706  2.0323 -0.7418 -0.5233
  415MOL0     H55963   2.424   6.706   8.867  1.7250 -0.6266 -1.9206
  415MOL0     H55964   2.251   6.871   8.964 -0.8993 -1.4200  0.7393
  415MOL0     H55965   2.164   6.860   8.815 -1.0790 -0.8907 -0.0414
  415MOL0     H55966   2.178   6.598   8.851 -0.9204  3.1123 -1.8976
  415MOL0     H55967   2.245   6.645   9.011 -1.2884 -1.8990  0.5233
  415MOL0     H55968   2.026   6.790   9.029  1.1788  0.2431  0.2831
  415MOL0     H55969   1.966   6.687   8.896 -0.4141  0.0102  0.9133
  415MOL0     H55970   2.017   6.484   9.038 -1.7291 -0.9384  1.2703
  415MOL0     H55971   2.054   6.596   9.173  2.7658 -2.4406 -0.6572
  415MOL0     H55972   1.777   6.568   9.027 -0.6937  2.0913 -0.2022
  415MOL0     H55973   1.836   6.481   9.163  0.2784  0.7327 -0.1324
  415MOL0     H55974   1.823   6.778   9.191  0.8177 -0.8420 -1.8988
  415MOL0     H55975   1.839   6.639   9.314 -1.1915 -3.3494 -0.8906
  415MOL0     H55976   1.616   6.743   9.455 -0.6490 -0.1535  0.0539
  415MOL0     H55977   1.377   6.652   9.526  0.9704 -2.0715 -1.3628
  415MOL0     H55978   1.330   6.811   9.447 -1.6168 -0.1935 -1.4888
  415MOL0     H55979   1.212   6.548   9.395  0.0189  0.4949  2.8846
  415MOL0     H55980   1.190   6.687   9.280 -0.4856  2.2373 -0.2674
  415MOL0     H55981   1.085   6.812   9.462  0.3701  0.4239  2.4676
  415MOL0     H55982   1.116   6.670   9.568 -1.1298 -0.9503  0.3704
  415MOL0     H55983   0.943   6.548   9.433 -1.3157 -0.5931 -3.3097
  415MOL0     H55984   0.936   6.693   9.322  0.0727  1.4069  0.8491
  415MOL0     H55985   0.723   6.657   9.255 -0.6129  1.8265 -1.2107
  415MOL0     H55986   0.563   6.621   9.111  2.2024  4.0251  0.1674
  415MOL0     H55987   0.396   6.613   9.194 -0.3407  0.8288  0.9328
  415MOL0     H55988   0.462   6.756   9.119 -0.2270 -0.2636 -0.4978
  415MOL0     H55989   0.264   7.141   9.382 -0.8842  0.9673 -4.4227
  415MOL0     H55990   0.044   7.290   9.346  1.3943 -1.0350 -1.4874
  415MOL0     H55991  -0.335   7.138   9.477  1.8503 -2.2572 -0.1477
  415MOL0     H55992  -0.238   7.238   9.567 -0.9073 -2.0217  0.7112
  415MOL0     H55993  -0.300   7.444   9.430 -2.1026  0.7458  3.5616
  415MOL0     H55994  -0.395   7.325   9.328  0.4383  0.0330 -0.3039
  415MOL0     H55995  -0.444   7.367   9.633  0.4958 -2.2067  0.5538
  415MOL0     H55996  -0.545   7.279   9.537 -0.6495  0.4438  0.1532
  415MOL0     H55997  -0.533   7.575   9.476  2.9951 -1.8885  3.7352
  415MOL0     H55998  -0.597   7.440   9.363 -1.1714 -0.8154 -0.2185
  415MOL0     H55999  -0.704   7.518   9.630 -2.0006 -2.2079  0.4784
  415MOL0     H56000  -0.759   7.379   9.543 -2.1827  0.3935 -0.2572
  415MOL0     H56001  -0.788   7.655   9.435  2.0886 -1.1693 -3.3221
  415MOL0     H56002  -0.838   7.503   9.349  0.2168  1.5371 -1.6012
  415MOL0     H56003  -0.930   7.612   9.601  0.1455 -1.4042  1.3371
  415MOL0     H56004  -0.950   7.441   9.560 -0.6231  0.6214 -0.3555
  415MOL0     H56005  -1.082   7.511   9.347  0.2974  0.1286  0.3612
  415MOL0     H56006  -1.035   7.677   9.385  0.7229  1.1943  2.1907
  415MOL0     H56007  -0.194   6.963   9.454 -0.6293  0.4073 -0.5389
  415MOL0     H56008   0.022   6.820   9.492  3.1047 -1.4953 -2.3107
  415MOL0     H56009   0.442   6.855   9.606 -1.4650  0.6014 -2.6130
  415MOL0     H56010   0.671   6.756   9.667 -1.6908 -0.3629  1.9140
  415MOL0     H56011   2.605   7.158   8.767  1.1881 -0.0722 -0.1026
  415MOL0     H56012   2.787   7.299   8.829  0.8874 -0.8619 -0.3039
  415MOL0     H56013   3.305   7.027   8.948  2.1991 -0.3347 -0.1962
  415MOL0     H56014   3.529   7.111   8.986 -0.6931 -0.0215  0.7586
  415MOL0     H56015   3.550   7.239   9.323  2.6494 -0.9954  1.5215
  415MOL0     H56016   3.671   7.154   9.220  1.5103 -0.9305  2.5786
  415MOL0     H56017   3.826   7.333   9.242 -0.9798 -0.2050 -1.1589
  415MOL0     H56018   3.774   7.261   9.395 -3.6377 -1.7646 -0.4488
  415MOL0     H56019   3.614   7.438   9.429  0.1962  1.1325 -1.1025
  415MOL0     H56020   3.648   7.521   9.277  1.6826  0.1490 -1.4596
  415MOL0     H56021   3.755   7.634   9.452 -1.6084  0.4836 -2.2356
  415MOL0     H56022   3.871   7.562   9.325 -2.3454 -0.6986 -2.4281
  415MOL0     H56023   4.022   7.389   9.676 -0.3304  0.6932  1.1849
  415MOL0     H56024   3.367   7.450   9.200 -0.0225 -0.7455  2.4646
  415MOL0     H56025   3.131   7.382   9.135 -1.6234 -1.3132 -1.7449
  416MOL0     O56026   6.197   9.419   7.908  0.0501 -0.4327  0.4700
  416MOL0     C56027   6.302   9.487   7.902  0.0125  0.9789 -0.5145
  416MOL0     O56028   6.322   9.615   7.933 -0.6069 -0.0891 -1.1285
  416MOL0     C56029   6.222   9.701   7.976 -0.5651  0.6017 -0.0226
  416MOL0     C56030   6.257   9.835   7.973  0.4619 -0.3511  0.4072
  416MOL0     C56031   6.179   9.929   8.038 -0.3158  0.3357  0.5079
  416MOL0     C56032   6.054   9.894   8.086  0.5900  0.3822 -0.1666
  416MOL0     O56033   5.962   9.977   8.144 -0.4873 -0.0642 -0.0719
  416MOL0     C56034   5.997  10.071   8.239  0.4861 -0.8597 -0.1135
  416MOL0     C56035   6.022  10.207   8.163  0.0348  0.5268 -0.0491
  416MOL0     C56036   6.089  10.314   8.261 -0.5597  0.4988 -0.4905
  416MOL0     C56037   6.215  10.265   8.346 -0.2434 -0.0917 -0.2190
  416MOL0     C56038   6.261  10.386   8.425 -0.3037 -0.2438  0.1362
  416MOL0     C56039   6.383  10.381   8.516  0.3096 -0.4748  1.0273
  416MOL0     C56040   6.414  10.524   8.563  0.8569  0.9387  0.1491
  416MOL0     C56041   6.522  10.532   8.668 -0.4147 -0.0655 -0.4646
  416MOL0     N56042   6.656  10.496   8.614  0.9149 -0.4214 -0.0673
  416MOL0     C56043   6.715  10.381   8.643 -0.6240 -0.5771  0.1027
  416MOL0     C56044   6.817  10.365   8.551 -0.0940  0.7441 -0.6729
  416MOL0     C56045   6.911  10.244   8.532  0.0498  0.4164  0.3667
  416MOL0     C56046   6.975  10.236   8.394 -0.2566 -0.6069  0.6232
  416MOL0     C56047   6.874  10.176   8.298 -1.2209  0.3941  0.5178
  416MOL0     C56048   6.755  10.264   8.259 -0.0860 -0.8010  0.4249
  416MOL0     O56049   6.707  10.213   8.128  0.1114 -0.8816 -0.0072
  416MOL0     C56050   6.596  10.261   8.068  0.8045  0.1268 -0.1065
  416MOL0     C56051   6.548  10.387   8.107 -0.2602  0.9079 -0.5013
  416MOL0     C56052   6.451  10.458   8.028  0.1473  0.2022 -0.4883
  416MOL0     C56053   6.421  10.601   8.057  0.2456 -0.2424 -0.0631
  416MOL0     C56054   6.382  10.381   7.928 -0.1105  0.1749 -0.7218
  416MOL0     C56055   6.266  10.430   7.849  0.1433  1.0974 -1.0783
  416MOL0     O56056   6.253  10.374   7.729 -0.0537  0.0939  0.4404
  416MOL0     C56057   6.146  10.425   7.651  0.4112  0.8292  0.9717
  416MOL0     C56058   6.176  10.500   7.537 -0.0386  0.2794  0.7714
  416MOL0     C56059   6.065  10.553   7.461 -0.7110  0.6903  0.4213
  416MOL0     C56060   5.935  10.535   7.494 -0.4328  0.0107  0.3798
  416MOL0     O56061   5.836  10.594   7.414 -0.3867  0.1218 -0.0816
  416MOL0     C56062   5.872  10.714   7.333 -0.2874  0.5135  0.3299
  416MOL0     C56063   5.755  10.795   7.303 -0.0921 -0.0174 -0.4057
  416MOL0     C56064   5.716  10.895   7.415  0.4250  0.1158  0.2040
  416MOL0     C56065   5.580  10.955   7.401 -0.0526  0.7414  0.1620
  416MOL0     C56066   5.462  10.857   7.396  0.1580 -0.2086  0.0261
  416MOL0     C56067   5.329  10.923   7.440 -0.3962  0.0545  0.4078
  416MOL0     C56068   5.276  11.031   7.347  0.7798 -0.3377 -1.0055
  416MOL0     C56069   5.191  11.120   7.441  0.1600  0.4900  0.2922
  416MOL0    Cl56070   5.300  11.222   7.542 -0.3164  0.0117  0.1775
  416MOL0     C56071   5.912  10.465   7.615  0.3338 -0.4446 -0.1953
  416MOL0     C56072   6.010  10.404   7.687 -0.8404 -0.8169 -0.0518
  416MOL0     O56073   6.180  10.495   7.913  0.8059  0.1643 -0.7417
  416MOL0     C56074   6.419  10.248   7.910 -0.2044  1.2768  0.6290
  416MOL0     C56075   6.521  10.183   7.980  0.2739  0.2747  0.4482
  416MOL0     N56076   6.817  10.494   8.484 -0.7269 -0.2792 -0.3400
  416MOL0     N56077   6.724  10.568   8.519 -1.1876 -0.5001 -0.5740
  416MOL0     C56078   6.005   9.760   8.064 -0.0671 -0.1815 -0.6805
  416MOL0     C56079   6.099   9.663   8.019  0.8226  0.3974 -0.1621
  416MOL0     C56080   6.412   9.423   7.833 -0.6736 -0.0059  0.2131
  416MOL0     C56081   6.414   9.285   7.809  0.6058 -0.0041  0.2666
  416MOL0     C56082   6.532   9.228   7.756  0.2348  0.5398 -0.6882
  416MOL0     C56083   6.649   9.302   7.728  0.2463  0.7405 -0.3267
  416MOL0     O56084   6.763   9.242   7.677  0.5091 -0.5282 -0.4145
  416MOL0     C56085   6.802   9.291   7.552  0.5099 -0.2174  0.5032
  416MOL0     C56086   6.870   9.185   7.490 -0.6942  0.9180  0.4906
  416MOL0     C56087   7.011   9.158   7.549 -0.0875 -0.4213 -0.7199
  416MOL0     C56088   7.133   9.220   7.473 -0.4087 -0.5570  0.0740
  416MOL0     C56089   7.242   9.253   7.559  0.2654 -0.1508  0.3315
  416MOL0     C56090   7.325   9.279   7.649 -0.1460  0.5110  0.6433
  416MOL0     C56091   6.644   9.440   7.748  0.1287  0.3600  0.1957
  416MOL0     C56092   6.527   9.499   7.800  0.1833 -0.2250 -0.4359
  416MOL0     H56093   6.354   9.863   7.932  1.0390 -3.3614 -0.5209
  416MOL0     H56094   6.212  10.033   8.037  1.1015 -0.0711 -1.8819
  416MOL0     H56095   5.908  10.090   8.299 -2.3374  0.3938 -4.2633
  416MOL0     H56096   6.077  10.040   8.307 -0.5449  1.6811  2.4160
  416MOL0     H56097   6.095  10.205   8.081  2.3774 -0.5400  1.9078
  416MOL0     H56098   5.932  10.253   8.123  1.4460  2.1547 -1.5456
  416MOL0     H56099   6.122  10.403   8.207  2.4281 -0.6428 -0.7213
  416MOL0     H56100   6.015  10.343   8.336  0.3293 -1.0143  1.0468
  416MOL0     H56101   6.198  10.183   8.417  0.9073  0.4799  0.7620
  416MOL0     H56102   6.285  10.229   8.270 -1.0800 -1.5339 -0.3584
  416MOL0     H56103   6.285  10.456   8.344 -0.1504 -0.8484 -0.3528
  416MOL0     H56104   6.175  10.415   8.486 -1.7870  1.2963 -2.4945
  416MOL0     H56105   6.367  10.304   8.592  0.0035  0.0951  1.5541
  416MOL0     H56106   6.472  10.356   8.458  0.6419  1.5111  0.6069
  416MOL0     H56107   6.442  10.590   8.480  0.4782  2.1422  0.9532
  416MOL0     H56108   6.325  10.560   8.615  2.3824  2.1316  2.0629
  416MOL0     H56109   6.491  10.469   8.752  0.4611 -2.2710 -1.7050
  416MOL0     H56110   6.522  10.634   8.707 -2.1740 -0.1439 -0.1553
  416MOL0     H56111   6.687  10.314   8.723  1.8609 -2.9166 -0.7974
  416MOL0     H56112   7.002  10.246   8.593  1.2810  0.0717 -1.3889
  416MOL0     H56113   6.847  10.158   8.551 -1.4782  1.6650  1.0887
  416MOL0     H56114   7.064  10.173   8.400  1.4079  1.6678  1.4491
  416MOL0     H56115   7.018  10.333   8.367  0.8589 -0.0849  3.8635
  416MOL0     H56116   6.835  10.087   8.348  1.9750  1.1169  4.8736
  416MOL0     H56117   6.926  10.144   8.207 -1.7937 -0.1783  0.3788
  416MOL0     H56118   6.786  10.369   8.251 -0.0435 -0.7487  1.2575
  416MOL0     H56119   6.676  10.269   8.334  0.3061  0.6214  0.7837
  416MOL0     H56120   6.577  10.428   8.203  1.1611 -2.1863  0.5093
  416MOL0     H56121   6.364  10.654   7.980 -2.4949 -0.8933  1.4063
  416MOL0     H56122   6.364  10.605   8.150  1.9449 -1.8786  1.1167
  416MOL0     H56123   6.514  10.656   8.073  0.9597 -0.8936 -1.6719
  416MOL0     H56124   6.284  10.506   7.521 -0.2643  2.1475 -0.3806
  416MOL0     H56125   6.086  10.607   7.369 -3.3922  0.9319 -0.1379
  416MOL0     H56126   5.955  10.772   7.374  2.8822 -2.1783 -1.7667
  416MOL0     H56127   5.919  10.678   7.241  1.7463 -0.7749  1.7966
  416MOL0     H56128   5.780  10.854   7.215  0.4705  0.5753  0.1479
  416MOL0     H56129   5.672  10.730   7.272 -0.3260 -0.6496  1.4061
  416MOL0     H56130   5.794  10.972   7.411  0.4616  0.0597 -0.1732
  416MOL0     H56131   5.716  10.849   7.514 -0.2105 -1.6107 -0.5556
  416MOL0     H56132   5.570  11.023   7.486 -0.1446 -0.1605  0.8820
  416MOL0     H56133   5.595  11.021   7.314  0.6272  0.7917  0.3138
  416MOL0     H56134   5.482  10.771   7.461 -1.1441  0.4970  1.4160
  416MOL0     H56135   5.428  10.824   7.297 -3.4032  1.4303  0.5428
  416MOL0     H56136   5.249  10.848   7.444 -0.1966 -0.0875  2.1941
  416MOL0     H56137   5.337  10.961   7.542  0.5643 -1.9548  1.1203
  416MOL0     H56138   5.217  10.989   7.265 -0.2359  1.9813 -1.5564
  416MOL0     H56139   5.355  11.098   7.312  0.2273  2.6709  2.7918
  416MOL0     H56140   5.122  11.061   7.501 -0.6990 -0.9489 -1.9695
  416MOL0     H56141   5.131  11.188   7.379 -0.7893 -0.1361  0.5054
  416MOL0     H56142   5.810  10.454   7.649  1.5613  1.0200  4.8972
  416MOL0     H56143   5.995  10.347   7.778  0.1471 -1.9031 -0.5356
  416MOL0     H56144   6.358  10.189   7.842  0.6819  0.6432  0.3783
  416MOL0     H56145   6.563  10.089   7.947  1.8328  1.3084 -0.6717
  416MOL0     H56146   5.906   9.740   8.103 -0.1309  1.4888  0.1062
  416MOL0     H56147   6.069   9.560   8.029  1.7449 -0.0816 -1.9343
  416MOL0     H56148   6.330   9.218   7.828 -0.3598  0.6322 -1.5794
  416MOL0     H56149   6.538   9.120   7.746  0.4847  0.7886 -4.3147
  416MOL0     H56150   6.714   9.336   7.507 -1.6246 -0.8449  3.6727
  416MOL0     H56151   6.877   9.370   7.561 -0.5458  0.7410  1.0345
  416MOL0     H56152   6.880   9.217   7.386  0.0956  0.2039  0.3290
  416MOL0     H56153   6.805   9.097   7.490 -0.1495  0.4340 -2.3409
  416MOL0     H56154   7.029   9.050   7.552 -1.1769 -0.5800  1.4227
  416MOL0     H56155   7.032   9.180   7.654  1.1911 -1.0160 -0.8351
  416MOL0     H56156   7.105   9.313   7.422  1.3859  0.0221  0.0863
  416MOL0     H56157   7.156   9.140   7.403  1.0834 -1.2732  1.3118
  416MOL0     H56158   7.412   9.306   7.706  2.4481  1.2347 -3.2371
  416MOL0     H56159   6.723   9.514   7.739  0.0276  0.9956  3.5414
  416MOL0     H56160   6.521   9.603   7.829 -2.2128 -0.8295  1.6515
  417MOL0     O56161   1.513   0.217   4.510 -0.3898  0.7344  0.2055
  417MOL0     C56162   1.480   0.334   4.527 -0.1205 -0.0567  0.7114
  417MOL0     O56163   1.503   0.410   4.629 -0.2120 -0.2520 -0.4507
  417MOL0     C56164   1.538   0.359   4.747 -0.1044 -0.0273  0.5362
  417MOL0     C56165   1.654   0.277   4.764 -0.2610  0.1531 -0.5553
  417MOL0     C56166   1.688   0.212   4.890 -0.2828  0.5614 -0.4109
  417MOL0     C56167   1.598   0.233   4.999  0.2660  0.0450  0.3829
  417MOL0     O56168   1.627   0.192   5.125 -0.0500  0.4286  0.0509
  417MOL0     C56169   1.692   0.063   5.142  0.1069  0.3571 -0.6605
  417MOL0     C56170   1.682   0.016   5.294  0.6006 -0.2407  0.1295
  417MOL0     C56171   1.643  -0.133   5.304 -0.8659 -0.9299  0.6682
  417MOL0     C56172   1.492  -0.167   5.269 -0.0996  0.0807 -0.5694
  417MOL0     C56173   1.398  -0.137   5.385 -0.3666 -0.2353  0.1638
  417MOL0     C56174   1.246  -0.148   5.331 -0.2580 -0.4796 -0.6617
  417MOL0     C56175   1.146  -0.089   5.437 -0.9944 -0.7511  0.7039
  417MOL0     C56176   1.006  -0.057   5.370  1.0990  0.6735 -0.8686
  417MOL0     N56177   0.927  -0.165   5.304  0.8159  0.3105 -0.1961
  417MOL0     C56178   0.799  -0.145   5.254 -0.3417  0.1375  0.1277
  417MOL0     C56179   0.765  -0.260   5.187 -0.8817  0.1444  0.5084
  417MOL0     C56180   0.627  -0.275   5.126  0.0008 -0.0324  0.5160
  417MOL0     C56181   0.545  -0.397   5.164 -0.5324 -0.3231 -0.0044
  417MOL0     C56182   0.434  -0.436   5.071 -0.4284 -0.6212  0.2671
  417MOL0     C56183   0.360  -0.565   5.121 -0.7757 -0.0765 -0.2864
  417MOL0     O56184   0.458  -0.669   5.102  0.2615  0.7009 -0.3913
  417MOL0     C56185   0.421  -0.791   5.130 -0.2791 -0.4082 -0.6513
  417MOL0     C56186   0.529  -0.877   5.166 -0.2359 -0.2792  0.1170
  417MOL0     C56187   0.509  -1.009   5.218 -0.0899 -0.2433 -0.3323
  417MOL0     C56188   0.635  -1.082   5.270 -0.5703  0.3733 -0.4338
  417MOL0     C56189   0.378  -1.057   5.231 -0.4427 -0.4855  0.3964
  417MOL0     C56190   0.338  -1.180   5.300 -1.3458  0.2768 -0.0730
  417MOL0     O56191   0.217  -1.184   5.369 -0.2162 -0.4504 -0.3995
  417MOL0     C56192   0.171  -1.307   5.416 -0.2559 -0.6529 -0.4301
  417MOL0     C56193   0.095  -1.296   5.535  0.8013  0.1470  0.3513
  417MOL0     C56194   0.035  -1.406   5.603 -0.8174 -0.3668  0.1933
  417MOL0     C56195   0.060  -1.537   5.546 -0.3346  0.3513 -0.9921
  417MOL0     O56196   0.005  -1.655   5.604 -0.4694  0.4555 -0.6511
  417MOL0     C56197  -0.080  -1.629   5.711  0.3091 -0.2081  1.0784
  417MOL0     C56198  -0.138  -1.762   5.756 -0.5112  0.3076  0.0008
  417MOL0     C56199  -0.219  -1.741   5.884  0.0250 -0.4940  0.7601
  417MOL0     C56200  -0.346  -1.662   5.846  0.0918  0.0732 -0.7493
  417MOL0     C56201  -0.447  -1.663   5.954 -0.7669 -0.4016  0.2675
  417MOL0     C56202  -0.568  -1.585   5.905 -0.3522  0.2408 -0.1195
  417MOL0     C56203  -0.680  -1.599   6.003  0.3771 -0.0041 -0.4161
  417MOL0     C56204  -0.807  -1.552   5.927 -0.0828 -0.0648 -0.6263
  417MOL0    Cl56205  -0.945  -1.494   6.030  0.1934  0.0441  0.0063
  417MOL0     C56206   0.142  -1.545   5.429 -0.8324 -1.3270 -0.4885
  417MOL0     C56207   0.196  -1.433   5.363  0.3733 -1.0916 -0.6109
  417MOL0     O56208   0.419  -1.278   5.294 -0.9932  0.7947  0.9068
  417MOL0     C56209   0.269  -0.981   5.180  0.9949  0.2198  0.6084
  417MOL0     C56210   0.294  -0.844   5.142 -0.0328  0.0353 -0.3058
  417MOL0     N56211   0.876  -0.345   5.184 -0.1007 -0.1593  0.7711
  417MOL0     N56212   0.967  -0.286   5.252 -0.4859  0.3966 -0.0008
  417MOL0     C56213   1.482   0.309   4.981  0.5443 -0.1543 -0.0039
  417MOL0     C56214   1.452   0.377   4.857 -0.0880 -0.3277 -0.2485
  417MOL0     C56215   1.417   0.395   4.405 -0.3935 -0.0240  0.0951
  417MOL0     C56216   1.385   0.535   4.405  0.1524  0.8337 -0.3602
  417MOL0     C56217   1.322   0.590   4.294 -0.4022 -0.5730  0.5226
  417MOL0     C56218   1.301   0.510   4.174 -0.4221  0.1385 -1.0426
  417MOL0     O56219   1.213   0.569   4.086  0.2213 -1.0531 -0.2575
  417MOL0     C56220   1.177   0.486   3.973 -0.8668 -0.1433  0.3434
  417MOL0     C56221   1.087   0.542   3.871  0.1880 -0.4007  0.3148
  417MOL0     C56222   0.965   0.618   3.940  0.0020 -0.0412 -0.5187
  417MOL0     C56223   0.897   0.704   3.826 -0.5717  0.5300 -0.8955
  417MOL0     C56224   0.819   0.811   3.877  0.0893 -0.2762  0.3367
  417MOL0     C56225   0.774   0.917   3.917  1.0777  0.4310  0.0765
  417MOL0     C56226   1.339   0.376   4.177  0.6244 -0.0476 -0.3067
  417MOL0     C56227   1.400   0.319   4.287 -0.0729 -1.2068 -0.7905
  417MOL0     H56228   1.728   0.266   4.685 -1.8169 -1.6960 -1.8759
  417MOL0     H56229   1.780   0.158   4.907  0.0769  0.7266 -1.7454
  417MOL0     H56230   1.635  -0.012   5.086 -0.7277 -1.5103  2.4227
  417MOL0     H56231   1.797   0.058   5.115  0.7033 -1.4518  1.6033
  417MOL0     H56232   1.772   0.040   5.351 -1.2368  2.3081  2.1599
  417MOL0     H56233   1.604   0.072   5.346 -0.0181  0.7013 -1.7238
  417MOL0     H56234   1.707  -0.195   5.240 -1.1665 -0.4745 -0.0853
  417MOL0     H56235   1.675  -0.179   5.398 -1.9748 -2.6694  0.2436
  417MOL0     H56236   1.457  -0.112   5.180 -0.2647  0.7537 -0.1001
  417MOL0     H56237   1.482  -0.274   5.252  0.5501  0.3075 -2.7522
  417MOL0     H56238   1.416  -0.215   5.459  0.9631 -1.2729 -1.1833
  417MOL0     H56239   1.415  -0.037   5.427  0.7650 -0.8413  1.2027
  417MOL0     H56240   1.245  -0.080   5.246 -1.0404  1.2117  0.6389
  417MOL0     H56241   1.222  -0.251   5.304 -1.8632 -0.7247  1.4043
  417MOL0     H56242   1.124  -0.166   5.511 -2.9121 -0.7492  0.1911
  417MOL0     H56243   1.182   0.001   5.488 -0.6634 -0.7232  0.4245
  417MOL0     H56244   1.011   0.025   5.298 -0.5153  1.5023 -0.0843
  417MOL0     H56245   0.954  -0.010   5.453  2.0489  2.2644 -1.1310
  417MOL0     H56246   0.744  -0.053   5.268  0.0579  0.6250 -1.3268
  417MOL0     H56247   0.567  -0.188   5.153  1.8597  1.4191  0.2051
  417MOL0     H56248   0.641  -0.256   5.019  3.6650  1.7569  1.1432
  417MOL0     H56249   0.508  -0.386   5.266  0.3584  3.5744  0.0458
  417MOL0     H56250   0.612  -0.483   5.168 -0.4332 -0.1983  1.7487
  417MOL0     H56251   0.465  -0.446   4.967 -2.8311  1.7975 -0.8105
  417MOL0     H56252   0.368  -0.349   5.064  1.0378  0.3790 -4.0584
  417MOL0     H56253   0.272  -0.567   5.056  0.0615 -1.5186 -1.4279
  417MOL0     H56254   0.334  -0.564   5.227  1.7497 -0.7309  0.4111
  417MOL0     H56255   0.628  -0.833   5.159 -0.2663 -0.1809  0.3057
  417MOL0     H56256   0.644  -1.172   5.209 -0.8349  1.8998 -2.8250
  417MOL0     H56257   0.723  -1.026   5.235 -0.6577 -0.6515 -2.3977
  417MOL0     H56258   0.637  -1.105   5.377  1.2063  0.3965 -0.4217
  417MOL0     H56259   0.072  -1.194   5.565 -0.4296  0.0968 -0.3387
  417MOL0     H56260  -0.017  -1.377   5.694  0.1879 -0.4806  0.8192
  417MOL0     H56261  -0.027  -1.584   5.796 -0.8108  2.0214  0.6382
  417MOL0     H56262  -0.166  -1.567   5.686  1.2326  1.5896  2.1259
  417MOL0     H56263  -0.206  -1.811   5.686 -1.2477  2.5923 -0.9752
  417MOL0     H56264  -0.053  -1.824   5.785  0.5785  2.6985  2.3349
  417MOL0     H56265  -0.165  -1.696   5.969 -0.5997 -3.1965  2.7275
  417MOL0     H56266  -0.242  -1.837   5.931  2.5666 -1.8194 -0.5453
  417MOL0     H56267  -0.321  -1.556   5.838 -3.1379  0.9771 -0.3090
  417MOL0     H56268  -0.391  -1.695   5.752 -1.8612 -1.6637  0.7262
  417MOL0     H56269  -0.406  -1.623   6.047 -2.0277  0.3080  0.5386
  417MOL0     H56270  -0.476  -1.765   5.982 -1.6024 -0.4034 -0.5680
  417MOL0     H56271  -0.546  -1.479   5.889  4.2353 -0.9452 -3.8945
  417MOL0     H56272  -0.595  -1.629   5.809 -1.0731 -0.9627  0.6111
  417MOL0     H56273  -0.659  -1.534   6.089  0.3843  0.6376 -0.8996
  417MOL0     H56274  -0.688  -1.698   6.048  1.0912  1.4864  3.4284
  417MOL0     H56275  -0.838  -1.639   5.867  0.6875 -1.2490  0.6303
  417MOL0     H56276  -0.789  -1.472   5.856 -2.5767  1.8557  0.7344
  417MOL0     H56277   0.176  -1.640   5.387 -0.4298 -2.6176  2.5106
  417MOL0     H56278   0.258  -1.460   5.278  0.0845 -0.5526 -0.9961
  417MOL0     H56279   0.165  -1.012   5.183  0.5025  1.6821 -0.2451
  417MOL0     H56280   0.204  -0.789   5.113 -0.5550 -0.4615  0.3483
  417MOL0     H56281   1.421   0.308   5.071 -2.2710 -0.7875 -1.7747
  417MOL0     H56282   1.372   0.449   4.842 -0.8300 -1.6761 -3.7802
  417MOL0     H56283   1.401   0.593   4.496  0.1844 -0.9411  0.8045
  417MOL0     H56284   1.287   0.693   4.300  0.7631 -0.1889  1.1701
  417MOL0     H56285   1.273   0.461   3.927 -0.1973  2.3724  0.2344
  417MOL0     H56286   1.130   0.393   4.007  0.6390  0.1040  3.4283
  417MOL0     H56287   1.054   0.465   3.801 -3.9242  3.0125 -1.9952
  417MOL0     H56288   1.145   0.611   3.809  0.2641 -1.5608 -0.9553
  417MOL0     H56289   1.004   0.690   4.013  0.0315  1.2745 -1.7820
  417MOL0     H56290   0.901   0.545   3.990  1.1338 -0.7593 -0.0660
  417MOL0     H56291   0.841   0.635   3.762  1.4817  0.9956 -3.3767
  417MOL0     H56292   0.968   0.745   3.752 -2.0065 -0.7603 -3.0872
  417MOL0     H56293   0.725   1.010   3.941  1.3180  0.2228  1.4608
  417MOL0     H56294   1.328   0.307   4.094  0.7997 -0.1898 -0.2133
  417MOL0     H56295   1.423   0.213   4.292 -1.5805 -1.5204  0.2902
  418MOL0     O56296  10.424  10.229   9.906  0.1446  0.1884  0.1451
  418MOL0     C56297  10.524  10.285   9.947  0.0778 -0.0099  0.0762
  418MOL0     O56298  10.517  10.393  10.036  0.6442 -0.1488  0.2863
  418MOL0     C56299  10.400  10.466  10.045 -0.8523  0.2215 -0.2433
  418MOL0     C56300  10.337  10.520   9.928 -0.0137  0.1060 -0.1870
  418MOL0     C56301  10.217  10.594   9.952 -0.0229 -0.0112 -0.8750
  418MOL0     C56302  10.172  10.623  10.077  0.4553  0.6149  0.1633
  418MOL0     O56303  10.059  10.708  10.077 -0.3907  0.1708 -0.1672
  418MOL0     C56304   9.978  10.722  10.199 -0.3600 -0.1772  0.1983
  418MOL0     C56305   9.837  10.762  10.164  0.5946  0.1219  0.2925
  418MOL0     C56306   9.829  10.861  10.053 -0.2789 -1.0411  0.7979
  418MOL0     C56307   9.684  10.907  10.038 -0.1670 -1.2775 -0.5132
  418MOL0     C56308   9.666  11.030   9.944  0.3487 -0.0091  0.2808
  418MOL0     C56309   9.724  11.151  10.018 -0.6920  0.1373 -0.7457
  418MOL0     C56310   9.694  11.276   9.941  0.0683 -0.3702 -0.3151
  418MOL0     C56311   9.546  11.323   9.944 -0.3276 -0.0205  0.2187
  418MOL0     N56312   9.510  11.372  10.074 -0.1480  0.4654  0.4446
  418MOL0     C56313   9.567  11.486  10.130 -0.3249 -0.4743 -0.1137
  418MOL0     C56314   9.505  11.492  10.246  0.4721 -0.6094 -0.5375
  418MOL0     C56315   9.543  11.597  10.347 -0.6081 -0.6081  0.9110
  418MOL0     C56316   9.427  11.703  10.357 -0.7088  0.3390 -1.1846
  418MOL0     C56317   9.440  11.800  10.233  0.1118 -0.3054 -0.2362
  418MOL0     C56318   9.347  11.918  10.236 -0.0619  0.0260 -0.1424
  418MOL0     O56319   9.321  11.995  10.359 -0.7718  0.7646  0.0704
  418MOL0     C56320   9.230  12.095  10.372  0.0667 -0.3851  0.6117
  418MOL0     C56321   9.179  12.170  10.262 -0.8976  0.2616 -0.4994
  418MOL0     C56322   9.089  12.275  10.282  0.2364  0.6527  0.1436
  418MOL0     C56323   9.036  12.335  10.149  0.1627  0.2672  0.4041
  418MOL0     C56324   9.055  12.321  10.412 -0.6712 -0.0429 -0.0497
  418MOL0     C56325   8.950  12.420  10.441  0.2493  0.1260  0.7551
  418MOL0     O56326   8.918  12.518  10.355  0.3318  0.4560 -0.1239
  418MOL0     C56327   8.818  12.608  10.377 -0.5797  0.5420  0.4543
  418MOL0     C56328   8.827  12.741  10.342  0.5609  0.1463  0.0462
  418MOL0     C56329   8.728  12.833  10.374  0.4529 -0.4445  0.0670
  418MOL0     C56330   8.604  12.792  10.436 -0.2886  0.3319 -0.6173
  418MOL0     O56331   8.509  12.883  10.467 -0.2657  0.1490  0.0286
  418MOL0     C56332   8.386  12.832  10.518  0.1936  0.0470 -0.1145
  418MOL0     C56333   8.287  12.952  10.528  0.6347 -0.4574 -0.6149
  418MOL0     C56334   8.157  12.900  10.596 -0.4112  0.3202  0.6321
  418MOL0     C56335   8.084  12.796  10.515 -0.7069 -0.3185  0.2021
  418MOL0     C56336   7.948  12.762  10.577  0.2486 -0.0678  0.5600
  418MOL0     C56337   7.819  12.850  10.553  0.6232  0.3827 -0.1880
  418MOL0     C56338   7.764  12.855  10.408  0.2355  0.4742 -0.0809
  418MOL0     C56339   7.623  12.912  10.394  0.2196  0.3035  0.2872
  418MOL0    Cl56340   7.600  12.980  10.231 -0.0356  0.0348  0.2595
  418MOL0     C56341   8.592  12.661  10.462 -0.7485  0.3724 -0.5244
  418MOL0     C56342   8.693  12.570  10.430 -0.3220 -0.4078  0.5371
  418MOL0     O56343   8.904  12.410  10.556  0.4882 -0.1189 -0.2149
  418MOL0     C56344   9.112  12.249  10.525 -0.4113  0.4487 -0.5637
  418MOL0     C56345   9.193  12.137  10.502  0.0442  0.0164  0.4962
  418MOL0     N56346   9.390  11.407  10.250  0.2847 -0.1067  0.4927
  418MOL0     N56347   9.390  11.342  10.135  0.7846 -0.1573  0.0760
  418MOL0     C56348  10.243  10.574  10.185  0.3352  0.1740 -0.9189
  418MOL0     C56349  10.350  10.492  10.172 -0.0832  0.7416  0.9946
  418MOL0     C56350  10.656  10.224   9.916  0.5628 -0.1557 -0.7244
  418MOL0     C56351  10.670  10.109   9.844  0.4039  0.6498 -0.3766
  418MOL0     C56352  10.799  10.048   9.840  0.9769 -0.2467  0.0078
  418MOL0     C56353  10.910  10.121   9.877 -0.3206  0.6678 -0.1828
  418MOL0     O56354  11.028  10.059   9.859  0.4243 -0.1579 -0.2182
  418MOL0     C56355  11.147  10.137   9.844  0.0740  0.3641 -1.2131
  418MOL0     C56356  11.260  10.069   9.756 -0.0517 -0.4111  0.0937
  418MOL0     C56357  11.200  10.013   9.627  0.1062  0.1692 -0.6371
  418MOL0     C56358  11.315   9.955   9.534  1.4416 -0.2749 -0.8764
  418MOL0     C56359  11.373   9.829   9.573  0.0595  0.5362 -0.0921
  418MOL0     C56360  11.413   9.719   9.605  0.3247 -0.8142 -0.9333
  418MOL0     C56361  10.901  10.240   9.947  0.8797 -0.0606  0.3304
  418MOL0     C56362  10.767  10.288   9.969 -1.0678 -0.4605 -0.3431
  418MOL0     H56363  10.371  10.494   9.828  0.1534 -1.2138  0.1966
  418MOL0     H56364  10.168  10.640   9.867  1.0847 -0.0092 -1.5213
  418MOL0     H56365   9.986  10.630  10.258  1.6244 -0.5859 -0.6127
  418MOL0     H56366  10.024  10.795  10.266 -0.4609 -3.1404  3.8477
  418MOL0     H56367   9.783  10.676  10.124  3.4402 -1.3320 -0.6443
  418MOL0     H56368   9.799  10.803  10.258  0.8173 -1.0639  0.9214
  418MOL0     H56369   9.903  10.940  10.064  1.3358 -1.5247 -4.1306
  418MOL0     H56370   9.857  10.827   9.953  0.9575  1.4634  0.2115
  418MOL0     H56371   9.615  10.829  10.005 -0.6000 -0.2624 -2.1340
  418MOL0     H56372   9.642  10.930  10.137  1.7039  0.7148 -0.1068
  418MOL0     H56373   9.718  11.014   9.849  1.2388 -0.0818  0.7647
  418MOL0     H56374   9.559  11.039   9.925  0.1114 -0.0312  1.5095
  418MOL0     H56375   9.703  11.161  10.124  3.9226 -1.6986  0.5622
  418MOL0     H56376   9.832  11.139  10.016 -0.2542  1.5731  3.6632
  418MOL0     H56377   9.749  11.359   9.985 -1.7492  0.2660  0.8802
  418MOL0     H56378   9.728  11.259   9.838 -1.8141 -1.5201 -0.7914
  418MOL0     H56379   9.485  11.239   9.910  0.9360 -0.6122 -0.6640
  418MOL0     H56380   9.538  11.407   9.874 -0.7104  1.0156  1.4732
  418MOL0     H56381   9.652  11.544  10.094  0.0063 -1.5305 -1.0922
  418MOL0     H56382   9.551  11.542  10.441 -1.5288 -2.6967 -0.1524
  418MOL0     H56383   9.636  11.646  10.317 -1.5291 -0.3028 -1.7523
  418MOL0     H56384   9.442  11.762  10.448 -2.3039  0.9416 -1.2825
  418MOL0     H56385   9.328  11.657  10.363 -0.4348 -0.2328 -0.9734
  418MOL0     H56386   9.409  11.737  10.149  0.3031 -2.0966  0.9859
  418MOL0     H56387   9.543  11.834  10.220 -0.3765  1.3204 -0.1375
  418MOL0     H56388   9.249  11.877  10.211 -0.0287  0.3768 -0.9074
  418MOL0     H56389   9.370  11.986  10.153 -4.0029  2.3427  0.4173
  418MOL0     H56390   9.209  12.150  10.160 -1.4193 -1.3979 -0.3501
  418MOL0     H56391   8.941  12.282  10.133  0.5239 -0.7291  1.4460
  418MOL0     H56392   9.025  12.443  10.137  0.1431 -0.0567 -3.8574
  418MOL0     H56393   9.103  12.307  10.068 -0.9397 -1.5434  0.0592
  418MOL0     H56394   8.918  12.789  10.308  1.9013  1.4981  4.7892
  418MOL0     H56395   8.749  12.934  10.340  0.3963 -0.3489  0.3210
  418MOL0     H56396   8.344  12.760  10.447  0.1595 -0.2936  0.2483
  418MOL0     H56397   8.406  12.788  10.615  0.1319  3.7989  1.7846
  418MOL0     H56398   8.333  13.031  10.587 -0.4619 -1.1828  1.3138
  418MOL0     H56399   8.263  12.980  10.425  0.1966  0.6704 -0.2111
  418MOL0     H56400   8.096  12.990  10.607  1.0161  1.6745 -1.6898
  418MOL0     H56401   8.181  12.863  10.696  0.6247 -1.2094 -0.1358
  418MOL0     H56402   8.075  12.841  10.416  1.9269 -0.2831 -0.1047
  418MOL0     H56403   8.145  12.705  10.517 -1.5228 -0.8745  1.4363
  418MOL0     H56404   7.967  12.753  10.684 -1.4981  0.3751  0.9393
  418MOL0     H56405   7.933  12.657  10.551 -1.4053  0.7532 -2.3205
  418MOL0     H56406   7.739  12.804  10.612 -1.2983 -1.5977 -3.9282
  418MOL0     H56407   7.841  12.952  10.584  1.7165  0.5245 -1.3478
  418MOL0     H56408   7.769  12.754  10.367 -0.0966  1.3504 -2.3841
  418MOL0     H56409   7.835  12.907  10.343 -0.0104 -3.6106 -4.0458
  418MOL0     H56410   7.619  12.992  10.469 -0.2204  0.2241  0.3478
  418MOL0     H56411   7.549  12.833  10.405 -1.1232  0.8905 -3.3231
  418MOL0     H56412   8.500  12.618  10.501 -1.2921  1.3958 -0.6381
  418MOL0     H56413   8.683  12.462  10.437 -1.6268 -0.1780  3.3286
  418MOL0     H56414   9.091  12.276  10.628  2.0663  0.7397 -0.0529
  418MOL0     H56415   9.224  12.079  10.588 -1.0105 -1.6424 -0.1856
  418MOL0     H56416  10.215  10.596  10.288 -1.2673 -0.1448 -1.2682
  418MOL0     H56417  10.409  10.454  10.255  1.3657 -4.3638 -1.9089
  418MOL0     H56418  10.589  10.050   9.804 -0.7090  0.5212  1.9600
  418MOL0     H56419  10.820   9.947   9.806  1.7235  0.2422 -1.0643
  418MOL0     H56420  11.127  10.233   9.796  1.3404  0.6574 -1.1854
  418MOL0     H56421  11.171  10.152   9.950 -2.0853 -1.7609 -0.3217
  418MOL0     H56422  11.304   9.997   9.827  0.6211  1.0326  1.1940
  418MOL0     H56423  11.326  10.152   9.730 -1.0316  0.3945  0.1398
  418MOL0     H56424  11.151  10.087   9.563 -1.8785 -0.7247 -0.2141
  418MOL0     H56425  11.139   9.927   9.655  2.5050 -1.2687  0.4251
  418MOL0     H56426  11.398  10.025   9.518  0.2031  1.5012  0.1214
  418MOL0     H56427  11.269   9.943   9.435 -1.5471  1.4783  0.1706
  418MOL0     H56428  11.442   9.618   9.624  0.2301 -0.5261  0.8782
  418MOL0     H56429  10.988  10.290   9.987  2.3537 -2.1782 -0.0242
  418MOL0     H56430  10.757  10.374  10.034  1.7220  0.1404 -0.5659
  419MOL0     O56431   0.377   5.416   5.251  0.3189  0.2601 -0.4135
  419MOL0     C56432   0.452   5.474   5.327  0.2896 -0.4000 -0.2136
  419MOL0     O56433   0.408   5.544   5.444  0.0244  0.4196 -0.1155
  419MOL0     C56434   0.270   5.530   5.477  0.3597  0.3802 -0.5994
  419MOL0     C56435   0.209   5.640   5.523  0.0044  0.3042 -0.2081
  419MOL0     C56436   0.076   5.633   5.552  1.4369  0.2823 -0.5685
  419MOL0     C56437   0.007   5.514   5.555 -0.1570  1.1408 -0.4678
  419MOL0     O56438  -0.126   5.521   5.593 -0.5996 -0.2490 -0.1173
  419MOL0     C56439  -0.214   5.411   5.587 -0.8518 -0.2179  0.4494
  419MOL0     C56440  -0.354   5.449   5.642  0.6377  0.3488 -0.4915
  419MOL0     C56441  -0.392   5.588   5.582  0.5279 -1.0537 -0.8838
  419MOL0     C56442  -0.531   5.633   5.639 -0.4720 -0.5832  0.4409
  419MOL0     C56443  -0.592   5.740   5.550  0.8866  0.3716  0.1096
  419MOL0     C56444  -0.740   5.765   5.602 -0.0554  0.6138 -0.4084
  419MOL0     C56445  -0.833   5.822   5.497  0.2053 -0.3985 -0.6132
  419MOL0     C56446  -0.980   5.832   5.524 -0.2938 -0.0008  0.0053
  419MOL0     N56447  -1.017   5.913   5.637 -0.4287 -0.6038  1.3372
  419MOL0     C56448  -1.009   5.878   5.769  1.0153  0.3838 -0.3290
  419MOL0     C56449  -1.067   5.983   5.828  0.1570  1.3964  0.2634
  419MOL0     C56450  -1.055   5.991   5.972  0.0789 -0.4611 -0.9129
  419MOL0     C56451  -1.183   6.017   6.041 -0.3159  0.2563 -0.5641
  419MOL0     C56452  -1.281   5.901   6.045  0.3945 -0.2133 -0.6063
  419MOL0     C56453  -1.398   5.910   6.143 -0.1239 -0.7860 -0.4599
  419MOL0     O56454  -1.470   6.037   6.127  0.4938 -0.3428 -0.2297
  419MOL0     C56455  -1.584   6.047   6.209  0.2979 -0.0465  0.3070
  419MOL0     C56456  -1.667   6.159   6.201 -0.5201 -0.2449 -0.6144
  419MOL0     C56457  -1.785   6.167   6.281  0.3444  0.3702  0.7239
  419MOL0     C56458  -1.868   6.285   6.254  0.5364 -0.2601 -0.4039
  419MOL0     C56459  -1.812   6.072   6.369 -0.1955 -0.2714 -0.0272
  419MOL0     C56460  -1.936   6.059   6.448 -0.3746  0.2315  0.2654
  419MOL0     O56461  -1.972   5.931   6.462 -0.1331  0.0317 -0.2893
  419MOL0     C56462  -2.099   5.910   6.497 -0.8971  0.5437 -0.1155
  419MOL0     C56463  -2.121   5.851   6.622  0.0082  0.1125  0.1882
  419MOL0     C56464  -2.247   5.829   6.677 -0.4631  0.0359  0.0534
  419MOL0     C56465  -2.363   5.856   6.596 -0.2007  0.1703 -0.1321
  419MOL0     O56466  -2.480   5.792   6.626 -0.3334  0.3409  0.7536
  419MOL0     C56467  -2.564   5.765   6.514  0.0034  0.5886  0.4099
  419MOL0     C56468  -2.655   5.647   6.557 -0.0294  0.4171 -0.2762
  419MOL0     C56469  -2.728   5.590   6.442  1.1722 -0.6054  0.8119
  419MOL0     C56470  -2.825   5.481   6.485 -0.7307 -0.0765  0.1912
  419MOL0     C56471  -2.946   5.470   6.393  0.0459  0.2539 -0.7078
  419MOL0     C56472  -2.901   5.446   6.251  0.4560 -0.0128  0.3076
  419MOL0     C56473  -3.017   5.414   6.158 -0.1420 -0.3870 -0.4447
  419MOL0     C56474  -2.963   5.337   6.038  0.8232  0.2952 -0.8618
  419MOL0    Cl56475  -2.919   5.177   6.074 -0.4289 -0.2908  0.3775
  419MOL0     C56476  -2.342   5.918   6.465 -0.2032  0.1829 -1.0110
  419MOL0     C56477  -2.208   5.947   6.425  1.1253  0.3351  0.8542
  419MOL0     O56478  -1.994   6.153   6.503 -0.0336 -0.2966  0.3183
  419MOL0     C56479  -1.727   5.960   6.378  0.4398 -0.6423 -0.5392
  419MOL0     C56480  -1.615   5.941   6.299  0.0756 -0.5363  0.4431
  419MOL0     N56481  -1.108   6.080   5.744  0.3417 -0.5156 -0.2384
  419MOL0     N56482  -1.079   6.034   5.631  0.1150 -0.5215  0.5869
  419MOL0     C56483   0.070   5.393   5.511 -0.1603  0.5080 -1.2094
  419MOL0     C56484   0.201   5.404   5.472  0.2991  0.1703  0.4410
  419MOL0     C56485   0.590   5.484   5.286  0.9375  0.0675  0.5843
  419MOL0     C56486   0.681   5.583   5.329  0.2834 -0.3329  0.8294
  419MOL0     C56487   0.815   5.581   5.289 -0.0708  0.2111  0.7150
  419MOL0     C56488   0.867   5.481   5.215  0.4353  0.5274  0.3377
  419MOL0     O56489   1.008   5.474   5.204 -0.1045 -0.0885 -0.3419
  419MOL0     C56490   1.070   5.377   5.124 -0.2753 -0.5259  0.0693
  419MOL0     C56491   1.214   5.391   5.138 -0.4260  0.5340 -1.2369
  419MOL0     C56492   1.257   5.506   5.042 -0.6142  0.1994 -0.3285
  419MOL0     C56493   1.408   5.533   5.035 -0.5923 -0.8257 -0.2665
  419MOL0     C56494   1.468   5.577   5.158 -0.4147 -0.0109 -1.1022
  419MOL0     C56495   1.517   5.605   5.264  0.5742 -1.2163  0.8160
  419MOL0     C56496   0.776   5.381   5.172  0.1692 -0.0763  1.2180
  419MOL0     C56497   0.641   5.382   5.198 -0.4058  0.2724 -0.8175
  419MOL0     H56498   0.258   5.736   5.537  0.2010  0.3495 -1.1258
  419MOL0     H56499   0.022   5.719   5.588 -1.6639 -1.3345 -1.0401
  419MOL0     H56500  -0.229   5.370   5.486 -1.7543  2.2684 -0.4917
  419MOL0     H56501  -0.177   5.333   5.654  1.8799  0.1017 -0.5644
  419MOL0     H56502  -0.430   5.387   5.595 -1.7194  3.2573 -0.8077
  419MOL0     H56503  -0.350   5.439   5.751 -1.4959 -0.5064 -0.4596
  419MOL0     H56504  -0.318   5.659   5.622 -0.3621  0.7557 -2.3036
  419MOL0     H56505  -0.394   5.587   5.473  2.7062  0.4962 -1.0081
  419MOL0     H56506  -0.596   5.545   5.633  0.7415 -1.4360 -1.0585
  419MOL0     H56507  -0.534   5.674   5.740  1.2583  1.3255 -0.2245
  419MOL0     H56508  -0.531   5.831   5.551  1.1231  0.2595  2.4989
  419MOL0     H56509  -0.605   5.710   5.445 -1.2815 -0.9298  0.6889
  419MOL0     H56510  -0.791   5.671   5.629  0.7464  0.0895 -0.6745
  419MOL0     H56511  -0.739   5.834   5.687 -1.8086  2.8013 -2.0545
  419MOL0     H56512  -0.796   5.923   5.480 -0.0282  0.1057  1.6609
  419MOL0     H56513  -0.818   5.757   5.410 -0.0964 -0.3471 -0.7044
  419MOL0     H56514  -1.012   5.729   5.539  0.6093 -0.1978  0.6494
  419MOL0     H56515  -1.027   5.877   5.435  1.1133 -0.2679 -0.9095
  419MOL0     H56516  -0.956   5.792   5.810  1.6906 -0.0265 -1.9708
  419MOL0     H56517  -1.014   5.895   6.005  1.1237  0.2391 -0.1166
  419MOL0     H56518  -0.987   6.074   5.994 -0.2291  0.2736 -2.5925
  419MOL0     H56519  -1.227   6.104   5.992  0.3241 -0.0202 -1.6677
  419MOL0     H56520  -1.157   6.046   6.143 -0.8191 -0.6493 -0.1600
  419MOL0     H56521  -1.226   5.811   6.072 -0.5962 -0.2287  1.5811
  419MOL0     H56522  -1.320   5.871   5.947  0.9035 -0.7883 -0.6373
  419MOL0     H56523  -1.368   5.890   6.247  1.9508  1.0746 -0.6225
  419MOL0     H56524  -1.458   5.823   6.115 -0.2214 -0.8999  0.0788
  419MOL0     H56525  -1.648   6.235   6.126 -3.1428  1.2193  0.0689
  419MOL0     H56526  -1.970   6.248   6.265  1.4035 -2.9209 -0.5188
  419MOL0     H56527  -1.847   6.361   6.330  1.8969  0.2512 -1.2592
  419MOL0     H56528  -1.863   6.322   6.151 -2.4152  2.4178  0.2483
  419MOL0     H56529  -2.041   5.815   6.687 -0.2763  0.8670  0.9685
  419MOL0     H56530  -2.253   5.783   6.775 -0.0923  1.7530  0.9137
  419MOL0     H56531  -2.622   5.852   6.483 -0.0667  1.0762  1.8274
  419MOL0     H56532  -2.507   5.725   6.429  2.7102 -0.9493  2.7739
  419MOL0     H56533  -2.598   5.563   6.600 -0.0150  0.1982 -0.7077
  419MOL0     H56534  -2.728   5.691   6.624  0.3713 -1.5637  1.5522
  419MOL0     H56535  -2.659   5.535   6.377 -0.3640 -2.5618  0.7484
  419MOL0     H56536  -2.778   5.668   6.385 -3.6408 -2.0095  2.6629
  419MOL0     H56537  -2.764   5.390   6.485  0.6535  0.7495  2.5117
  419MOL0     H56538  -2.867   5.503   6.584 -2.5504 -0.0424 -0.5574
  419MOL0     H56539  -3.013   5.556   6.402  0.8812  1.1116 -2.1694
  419MOL0     H56540  -3.002   5.384   6.430  2.9330 -1.7054 -0.5642
  419MOL0     H56541  -2.842   5.529   6.211  1.6963 -1.0242  0.0007
  419MOL0     H56542  -2.828   5.365   6.253  0.3526 -0.2408 -1.8637
  419MOL0     H56543  -3.058   5.511   6.126 -0.3915 -0.7435 -1.2351
  419MOL0     H56544  -3.102   5.360   6.199 -1.8078 -0.2474 -3.3947
  419MOL0     H56545  -2.891   5.385   5.972  0.4616 -0.4272 -1.8041
  419MOL0     H56546  -3.051   5.323   5.973 -3.3721  1.9628  3.7986
  419MOL0     H56547  -2.424   5.948   6.402 -0.6131  1.1487 -0.0560
  419MOL0     H56548  -2.201   6.021   6.345 -1.8811  0.0118  0.1962
  419MOL0     H56549  -1.745   5.886   6.455 -0.1447  1.0755  1.0468
  419MOL0     H56550  -1.543   5.871   6.340  0.3868  0.1376  1.0452
  419MOL0     H56551   0.021   5.297   5.517  3.3348 -1.3338  0.3790
  419MOL0     H56552   0.256   5.312   5.455 -0.0336 -0.6411  3.2358
  419MOL0     H56553   0.647   5.661   5.397 -0.9764 -0.3494  0.2380
  419MOL0     H56554   0.884   5.650   5.337  2.2050 -1.8024  0.5107
  419MOL0     H56555   1.029   5.282   5.162 -4.3669  1.1694  0.5016
  419MOL0     H56556   1.039   5.378   5.019 -1.7844 -0.1849  0.4863
  419MOL0     H56557   1.251   5.290   5.120 -0.5773  0.2885 -0.2591
  419MOL0     H56558   1.247   5.409   5.241  0.6883 -2.0739 -1.0817
  419MOL0     H56559   1.212   5.603   5.066 -0.1779  0.3057  0.0795
  419MOL0     H56560   1.230   5.481   4.940  0.7730  1.6833 -1.1133
  419MOL0     H56561   1.425   5.613   4.963 -3.3706 -0.5991 -0.7627
  419MOL0     H56562   1.460   5.442   5.003 -0.0602 -0.8615  0.6537
  419MOL0     H56563   1.544   5.662   5.351  1.6569  0.1204 -0.3367
  419MOL0     H56564   0.806   5.299   5.107  0.1372  0.6414  0.2826
  419MOL0     H56565   0.585   5.292   5.174  0.0567 -0.0488 -0.6933
  420MOL0     O56566   4.855  10.204   6.425 -0.1232  0.0845 -0.2617
  420MOL0     C56567   4.840  10.100   6.489  0.1518 -0.4228 -0.4544
  420MOL0     O56568   4.727  10.025   6.489  0.0720 -0.0224  0.3101
  420MOL0     C56569   4.618  10.055   6.421 -0.1705 -0.7398  0.5490
  420MOL0     C56570   4.603  10.149   6.310  0.0695  1.1556  0.1269
  420MOL0     C56571   4.481  10.174   6.248  0.6207 -0.1098 -0.2767
  420MOL0     C56572   4.367  10.106   6.289  0.5305 -0.5770  0.1000
  420MOL0     O56573   4.254  10.132   6.208 -0.0998 -0.6078  0.0644
  420MOL0     C56574   4.212  10.275   6.216 -0.5705 -0.6381  0.6346
  420MOL0     C56575   4.056  10.277   6.246  0.0549  0.0780 -0.2882
  420MOL0     C56576   3.958  10.260   6.125 -0.4008 -0.5745  0.5292
  420MOL0     C56577   3.984  10.376   6.022 -0.4994  0.0705  0.3078
  420MOL0     C56578   3.880  10.367   5.905 -0.0442  0.2296  0.2639
  420MOL0     C56579   3.885  10.493   5.815  0.5497  0.4487  0.2318
  420MOL0     C56580   4.003  10.479   5.706  0.2868  0.1458 -0.2228
  420MOL0     C56581   4.011  10.592   5.603  0.2782 -0.4478 -0.4927
  420MOL0     N56582   3.877  10.613   5.549 -0.2499  0.2135  0.0978
  420MOL0     C56583   3.808  10.517   5.473  0.8023  0.4347 -0.4043
  420MOL0     C56584   3.685  10.564   5.465 -0.3514 -0.3594 -0.5723
  420MOL0     C56585   3.582  10.499   5.380  0.4048 -0.1278  0.8879
  420MOL0     C56586   3.505  10.405   5.463  0.0088  0.0899  0.1259
  420MOL0     C56587   3.411  10.323   5.389 -0.2195  0.0149 -0.4798
  420MOL0     C56588   3.324  10.390   5.279 -0.1482  0.9535 -0.1560
  420MOL0     O56589   3.240  10.298   5.207  0.0381 -0.7545 -0.6632
  420MOL0     C56590   3.142  10.346   5.121 -0.7909 -1.0452 -0.7639
  420MOL0     C56591   3.107  10.486   5.102 -0.6942 -0.5604 -0.6370
  420MOL0     C56592   2.996  10.518   5.023 -0.3438 -0.1511 -0.1070
  420MOL0     C56593   2.975  10.656   4.984  0.1873 -0.5641 -0.7898
  420MOL0     C56594   2.907  10.415   4.982 -0.3838 -0.9541  0.9096
  420MOL0     C56595   2.778  10.438   4.900  0.7603  1.6626  0.1246
  420MOL0     O56596   2.721  10.564   4.905 -0.1956 -0.3029  0.1725
  420MOL0     C56597   2.624  10.595   4.807  0.3648 -0.0477  0.0457
  420MOL0     C56598   2.642  10.702   4.719 -1.1007  0.4692 -0.9438
  420MOL0     C56599   2.546  10.739   4.634  0.3161  0.5198  0.1724
  420MOL0     C56600   2.427  10.664   4.625  0.1637 -0.1291  0.2370
  420MOL0     O56601   2.321  10.700   4.537  0.5172  0.1503 -0.2386
  420MOL0     C56602   2.282  10.603   4.450 -0.5585  0.4330 -0.1249
  420MOL0     C56603   2.190  10.668   4.343  0.0555  0.2956 -0.5291
  420MOL0     C56604   2.052  10.720   4.397 -0.0368 -0.6120  0.3457
  420MOL0     C56605   1.966  10.771   4.276 -0.2341  0.1348 -0.4038
  420MOL0     C56606   1.839  10.852   4.312 -0.0802 -1.3163 -0.8406
  420MOL0     C56607   1.733  10.768   4.375 -0.3170  0.1590 -0.1758
  420MOL0     C56608   1.643  10.864   4.448  0.1612 -0.3385  0.2657
  420MOL0     C56609   1.514  10.788   4.496  0.2208 -0.0197  0.8944
  420MOL0    Cl56610   1.396  10.903   4.566  0.1863  0.1607 -0.5525
  420MOL0     C56611   2.412  10.553   4.703  0.4307 -0.9117  0.8187
  420MOL0     C56612   2.501  10.524   4.793 -0.0339 -0.2846 -0.5253
  420MOL0     O56613   2.755  10.349   4.818 -0.3251 -0.0022 -0.1392
  420MOL0     C56614   2.953  10.276   4.990  0.6620 -0.2730 -1.5333
  420MOL0     C56615   3.067  10.243   5.062 -0.0477 -0.4316  0.8058
  420MOL0     N56616   3.682  10.689   5.531  0.2635  0.3718  0.2077
  420MOL0     N56617   3.797  10.716   5.591  0.1597  0.4450  0.6149
  420MOL0     C56618   4.375  10.015   6.395  0.0004 -0.1275 -0.2831
  420MOL0     C56619   4.502   9.994   6.452 -0.0765 -0.0519  0.1023
  420MOL0     C56620   4.952  10.066   6.580  0.6158  0.1841 -0.3124
  420MOL0     C56621   5.086  10.111   6.556  0.5816 -0.0530 -0.1313
  420MOL0     C56622   5.188  10.069   6.637 -0.2057 -0.1057 -0.3499
  420MOL0     C56623   5.164   9.999   6.753 -0.0014 -0.3401  0.0804
  420MOL0     O56624   5.272   9.944   6.827 -0.0628 -0.5672 -0.7707
  420MOL0     C56625   5.401   9.996   6.807  0.4181  0.5240 -0.0291
  420MOL0     C56626   5.479   9.970   6.937  0.7842 -0.0275  0.2119
  420MOL0     C56627   5.429  10.046   7.060  1.4379  0.4718  0.9118
  420MOL0     C56628   5.545  10.096   7.147 -0.0939 -0.0885  0.6765
  420MOL0     C56629   5.632  10.003   7.223  0.1336  0.4910 -0.6123
  420MOL0     C56630   5.701   9.941   7.301 -0.7208  1.0351 -0.5370
  420MOL0     C56631   5.041   9.952   6.774  0.8970 -0.4551  0.9931
  420MOL0     C56632   4.935   9.983   6.688  0.2705  0.1987  0.8464
  420MOL0     H56633   4.691  10.200   6.271  0.8835 -0.8624 -0.7947
  420MOL0     H56634   4.478  10.254   6.175  2.7212  0.7251  0.4589
  420MOL0     H56635   4.264  10.331   6.294  0.6862  0.3740 -0.8573
  420MOL0     H56636   4.225  10.324   6.119  1.7148 -0.4303  0.9984
  420MOL0     H56637   4.032  10.209   6.328  2.5622 -0.9131 -0.2965
  420MOL0     H56638   4.035  10.380   6.277 -0.6324 -0.4060  0.9441
  420MOL0     H56639   3.976  10.160   6.084  1.7164 -1.0898  2.4768
  420MOL0     H56640   3.855  10.272   6.159 -0.9414  4.1908 -1.9657
  420MOL0     H56641   3.983  10.474   6.071 -0.7838 -0.0101  0.4618
  420MOL0     H56642   4.083  10.365   5.977 -1.0541  0.6548 -1.1158
  420MOL0     H56643   3.889  10.278   5.842 -0.2661  0.5795 -0.2688
  420MOL0     H56644   3.779  10.371   5.946 -0.9588 -1.9528 -1.5745
  420MOL0     H56645   3.794  10.506   5.756 -1.0440 -0.9147  2.2090
  420MOL0     H56646   3.879  10.579   5.883 -2.8855 -0.2451  1.0168
  420MOL0     H56647   4.101  10.464   5.751  0.7072  1.6384 -0.5912
  420MOL0     H56648   3.994  10.387   5.648 -2.5135  0.1426  0.0613
  420MOL0     H56649   4.084  10.569   5.524  0.8851  2.9304 -1.0636
  420MOL0     H56650   4.058  10.674   5.658 -0.3667 -0.4289  0.0402
  420MOL0     H56651   3.851  10.431   5.423 -0.8390  0.0215 -1.1783
  420MOL0     H56652   3.512  10.575   5.344 -0.1647 -1.3246 -0.7137
  420MOL0     H56653   3.634  10.449   5.297  2.1496 -1.2949  2.5882
  420MOL0     H56654   3.439  10.460   5.530  0.2369 -0.5750  0.9133
  420MOL0     H56655   3.571  10.342   5.524 -0.9694 -2.1818 -1.0038
  420MOL0     H56656   3.335  10.280   5.456 -0.4148  2.3387  0.8805
  420MOL0     H56657   3.467  10.239   5.347 -0.7727 -0.4659 -0.2758
  420MOL0     H56658   3.385  10.434   5.199  0.1308  0.0065 -0.4925
  420MOL0     H56659   3.283  10.478   5.328 -1.3054  0.2271  0.2201
  420MOL0     H56660   3.155  10.569   5.152 -1.8471 -1.1826  1.6434
  420MOL0     H56661   2.914  10.707   5.060 -0.8869 -1.0072 -1.3352
  420MOL0     H56662   3.065  10.717   4.972 -0.4382  0.4002 -0.6577
  420MOL0     H56663   2.935  10.662   4.883  0.0272 -0.0226 -0.6964
  420MOL0     H56664   2.733  10.762   4.723 -0.2729 -0.8090 -0.0545
  420MOL0     H56665   2.558  10.831   4.578 -0.3562  0.9592  0.7327
  420MOL0     H56666   2.367  10.557   4.400 -1.8220  0.1524 -2.1322
  420MOL0     H56667   2.226  10.521   4.497 -0.4756 -0.1290 -0.9897
  420MOL0     H56668   2.244  10.745   4.286 -0.0465 -2.1593 -4.3255
  420MOL0     H56669   2.167  10.593   4.267  0.2053 -2.1126  1.6440
  420MOL0     H56670   2.080  10.794   4.473  0.0948  0.0005 -0.2916
  420MOL0     H56671   1.997  10.639   4.446  2.3934 -2.6921 -0.1877
  420MOL0     H56672   2.035  10.830   4.215  0.9197  1.3034  1.8737
  420MOL0     H56673   1.941  10.691   4.206 -0.3229  0.5219 -0.8189
  420MOL0     H56674   1.793  10.917   4.237 -3.9656  1.4848  3.4114
  420MOL0     H56675   1.866  10.925   4.389 -0.6650  4.8670 -5.7031
  420MOL0     H56676   1.692  10.701   4.299  2.8673 -0.1916 -1.7774
  420MOL0     H56677   1.771  10.704   4.455  3.6239  2.1611 -0.1758
  420MOL0     H56678   1.609  10.939   4.375 -2.1700 -0.8978  0.7020
  420MOL0     H56679   1.697  10.911   4.530  0.8693  0.3251 -0.5532
  420MOL0     H56680   1.532  10.711   4.571  1.5347 -1.3930 -0.7583
  420MOL0     H56681   1.475  10.736   4.409  1.1250  0.8134 -0.0316
  420MOL0     H56682   2.327  10.486   4.711  0.6762 -1.2833  0.3156
  420MOL0     H56683   2.468  10.449   4.863 -0.8177  0.9657  0.4832
  420MOL0     H56684   2.895  10.193   4.950  0.5282 -0.6225 -0.6481
  420MOL0     H56685   3.092  10.137   5.061 -4.1142 -1.5394 -0.5801
  420MOL0     H56686   4.288   9.961   6.429  0.3067  0.1574  1.0081
  420MOL0     H56687   4.504   9.914   6.526 -1.0095  0.4767  0.7281
  420MOL0     H56688   5.097  10.169   6.465  1.8469 -0.2688 -0.1352
  420MOL0     H56689   5.284  10.110   6.606  1.3152 -3.2529 -0.2337
  420MOL0     H56690   5.441   9.943   6.719  1.7275  1.5046 -0.0515
  420MOL0     H56691   5.403  10.104   6.791 -0.2823  0.5162 -0.2445
  420MOL0     H56692   5.582   9.998   6.915  0.3756 -0.4727 -2.6611
  420MOL0     H56693   5.467   9.864   6.962 -0.5903 -0.4206 -1.9092
  420MOL0     H56694   5.361   9.980   7.116 -0.1614  1.9282  0.7689
  420MOL0     H56695   5.370  10.132   7.027  1.5984  1.3075  2.6693
  420MOL0     H56696   5.492  10.160   7.218  0.5483  1.7447 -0.4003
  420MOL0     H56697   5.614  10.160   7.091 -2.2785  0.4747 -1.5758
  420MOL0     H56698   5.761   9.903   7.382 -1.5612  0.0541 -0.3524
  420MOL0     H56699   5.021   9.884   6.857 -0.4551  0.8573  1.7886
  420MOL0     H56700   4.838   9.936   6.702  0.4108 -0.8027 -1.2233
  421MOL0     O56701   5.158   7.376   7.440  1.0439  0.2148  0.1102
  421MOL0     C56702   5.243   7.458   7.472  0.0553  0.1925 -0.4926
  421MOL0     O56703   5.233   7.562   7.566 -0.1963  0.1202  0.4158
  421MOL0     C56704   5.110   7.568   7.633 -0.6100 -0.7596  0.1846
  421MOL0     C56705   5.002   7.640   7.580 -0.2469  0.2642  0.0787
  421MOL0     C56706   4.885   7.643   7.649  0.0444 -0.1769  0.0926
  421MOL0     C56707   4.862   7.566   7.767 -0.5526 -0.1639  0.2284
  421MOL0     O56708   4.736   7.551   7.830  0.1518  0.0846 -0.3240
  421MOL0     C56709   4.611   7.578   7.758  0.6590 -0.5581 -0.4169
  421MOL0     C56710   4.488   7.506   7.818  0.4737 -1.0082  0.2475
  421MOL0     C56711   4.358   7.568   7.750 -1.1644  1.4171 -0.0505
  421MOL0     C56712   4.245   7.511   7.834  0.8702  0.1913  0.0079
  421MOL0     C56713   4.102   7.560   7.792 -0.2810  0.5000 -0.4441
  421MOL0     C56714   3.988   7.493   7.875  0.3297 -0.0995  0.1075
  421MOL0     C56715   3.853   7.550   7.826  0.6684 -1.2305 -0.0667
  421MOL0     C56716   3.737   7.482   7.882 -0.0386  0.7055 -0.2608
  421MOL0     N56717   3.610   7.505   7.813  0.2008 -0.4966 -0.0742
  421MOL0     C56718   3.525   7.614   7.833 -0.8035  0.3406  0.1536
  421MOL0     C56719   3.427   7.588   7.748  0.4207  0.1839 -0.1104
  421MOL0     C56720   3.308   7.670   7.716 -0.2015 -1.1004 -0.9596
  421MOL0     C56721   3.181   7.604   7.765  0.1379 -0.2291  0.0546
  421MOL0     C56722   3.080   7.717   7.791  0.5345  0.5178 -0.2854
  421MOL0     C56723   2.957   7.650   7.847  0.9639  0.7073 -0.2920
  421MOL0     O56724   2.849   7.746   7.842 -0.0089 -0.2329  0.2764
  421MOL0     C56725   2.722   7.694   7.836  0.4333  0.1166 -0.6473
  421MOL0     C56726   2.639   7.703   7.719 -0.6360  0.7995  0.2479
  421MOL0     C56727   2.508   7.662   7.724 -0.1728  0.7666  0.6480
  421MOL0     C56728   2.428   7.673   7.592  0.3624 -0.3011 -0.1271
  421MOL0     C56729   2.448   7.598   7.840  0.4354 -0.3725 -0.1179
  421MOL0     C56730   2.304   7.561   7.849  0.4737  0.3038  0.2000
  421MOL0     O56731   2.262   7.434   7.847 -0.0881  0.9728 -1.0454
  421MOL0     C56732   2.135   7.399   7.870  0.2284  0.1378 -0.3342
  421MOL0     C56733   2.041   7.404   7.765 -0.1615 -0.5463 -0.0869
  421MOL0     C56734   1.917   7.351   7.781  0.0134  0.6633 -0.1159
  421MOL0     C56735   1.874   7.314   7.911 -0.2249 -0.0033  0.4245
  421MOL0     O56736   1.757   7.256   7.934 -0.2382 -0.5821  0.0473
  421MOL0     C56737   1.637   7.305   7.863  0.0017 -0.7039 -0.8396
  421MOL0     C56738   1.502   7.303   7.946  0.3132 -0.1009 -0.4924
  421MOL0     C56739   1.385   7.361   7.865  0.2082 -0.0396  0.1581
  421MOL0     C56740   1.363   7.313   7.723  0.0212 -0.1815 -0.3970
  421MOL0     C56741   1.242   7.377   7.644  0.3243  0.3945 -0.5122
  421MOL0     C56742   1.250   7.533   7.629 -0.5126  1.1514  0.5072
  421MOL0     C56743   1.381   7.581   7.565 -0.9858  0.1449 -0.3497
  421MOL0     C56744   1.377   7.721   7.529  0.1050  0.5533 -0.8881
  421MOL0    Cl56745   1.529   7.774   7.481 -0.4683 -0.3200 -0.1915
  421MOL0     C56746   1.970   7.309   8.011  0.0409  0.6732  0.4497
  421MOL0     C56747   2.101   7.353   7.992  0.8944  0.1534  0.5555
  421MOL0     O56748   2.229   7.662   7.868 -0.8038  0.5433 -0.5602
  421MOL0     C56749   2.532   7.589   7.954  0.0248  0.1452  0.5576
  421MOL0     C56750   2.665   7.627   7.945 -0.2964  0.0364 -0.3662
  421MOL0     N56751   3.452   7.471   7.682  0.3638  0.2956  0.3169
  421MOL0     N56752   3.557   7.419   7.721  0.4931  0.0845 -0.0270
  421MOL0     C56753   4.971   7.491   7.814  1.4856 -0.7082  0.3386
  421MOL0     C56754   5.096   7.499   7.754 -0.7084 -0.2305 -0.6265
  421MOL0     C56755   5.378   7.430   7.409 -0.1868 -0.5570  0.7427
  421MOL0     C56756   5.495   7.493   7.463  0.5393  0.8602  0.1221
  421MOL0     C56757   5.609   7.487   7.385  0.5231 -0.2792  0.3891
  421MOL0     C56758   5.632   7.392   7.281  0.6591  0.9330 -1.1282
  421MOL0     O56759   5.758   7.362   7.225  0.9104  0.1065 -0.1540
  421MOL0     C56760   5.790   7.433   7.102 -0.3952  0.0015 -0.6745
  421MOL0     C56761   5.835   7.342   6.980  0.9614 -0.4154 -0.4598
  421MOL0     C56762   5.921   7.224   7.026  0.0476  0.2677  0.0775
  421MOL0     C56763   6.061   7.250   7.089  0.0330 -0.2461 -0.1419
  421MOL0     C56764   6.143   7.333   7.007  0.7579  0.0216  0.9402
  421MOL0     C56765   6.195   7.396   6.918 -0.1704 -0.1037  0.7847
  421MOL0     C56766   5.522   7.321   7.250  0.6350 -0.1647  0.4533
  421MOL0     C56767   5.399   7.343   7.301  0.3135 -0.4034 -0.1659
  421MOL0     H56768   5.019   7.693   7.486  1.7343 -1.4023 -0.5897
  421MOL0     H56769   4.806   7.704   7.605  1.0077 -0.1410 -1.6493
  421MOL0     H56770   4.593   7.685   7.742 -0.5348 -0.9158 -1.7177
  421MOL0     H56771   4.619   7.544   7.654  2.1844  0.1044 -0.5438
  421MOL0     H56772   4.486   7.403   7.781  0.1686 -0.7638 -0.4317
  421MOL0     H56773   4.502   7.507   7.927  0.1989  2.2825  0.3684
  421MOL0     H56774   4.355   7.677   7.746  1.3818  1.5463 -0.1378
  421MOL0     H56775   4.364   7.534   7.646 -0.8672  1.8794 -0.1900
  421MOL0     H56776   4.237   7.402   7.835 -0.9307  0.2783  2.2982
  421MOL0     H56777   4.262   7.537   7.939 -1.2623 -0.3467  0.5355
  421MOL0     H56778   4.106   7.667   7.812  1.6818  0.0138  2.1512
  421MOL0     H56779   4.082   7.539   7.686  0.5081 -1.0730 -0.3171
  421MOL0     H56780   3.988   7.386   7.854  1.2595 -0.0431 -0.2444
  421MOL0     H56781   3.998   7.493   7.984 -0.6507 -1.4439  0.2146
  421MOL0     H56782   3.850   7.653   7.864  1.5186 -1.2485  0.0591
  421MOL0     H56783   3.848   7.562   7.717 -0.4553  1.0339  0.1700
  421MOL0     H56784   3.734   7.526   7.982  2.7938 -0.6375  0.5099
  421MOL0     H56785   3.761   7.376   7.885  3.3563  1.2976 -1.6132
  421MOL0     H56786   3.542   7.695   7.903  0.0357  2.2764 -2.1518
  421MOL0     H56787   3.312   7.771   7.760 -2.4549  0.0417 -3.0874
  421MOL0     H56788   3.293   7.686   7.609  0.9443  2.3813 -0.7486
  421MOL0     H56789   3.194   7.558   7.863 -1.7290 -1.8965 -0.4033
  421MOL0     H56790   3.147   7.524   7.698  2.2030 -1.0660 -0.0540
  421MOL0     H56791   3.069   7.784   7.705  1.6770 -1.1807 -1.8436
  421MOL0     H56792   3.114   7.782   7.872 -0.6628 -0.3095  0.9410
  421MOL0     H56793   2.967   7.590   7.938 -2.5433 -0.8567 -0.7683
  421MOL0     H56794   2.935   7.566   7.780  1.6179 -1.7301  2.3092
  421MOL0     H56795   2.673   7.766   7.637  2.1990 -2.6928 -1.5719
  421MOL0     H56796   2.392   7.574   7.564  3.1017 -1.8143  1.3762
  421MOL0     H56797   2.349   7.749   7.598  0.7885  0.5406 -3.2193
  421MOL0     H56798   2.494   7.710   7.512  0.7500  0.4707  0.5329
  421MOL0     H56799   2.073   7.445   7.670 -4.5003  0.3563 -1.3767
  421MOL0     H56800   1.854   7.363   7.693  2.5175  0.3159 -2.0784
  421MOL0     H56801   1.651   7.408   7.829 -3.0155 -0.6706 -2.2721
  421MOL0     H56802   1.621   7.237   7.779 -0.2722 -3.0455  0.9922
  421MOL0     H56803   1.472   7.199   7.965 -1.5343 -0.0342 -2.7363
  421MOL0     H56804   1.517   7.362   8.037 -1.7726  2.0713 -1.4643
  421MOL0     H56805   1.400   7.469   7.863 -3.0976  0.5312  0.1196
  421MOL0     H56806   1.298   7.344   7.928  1.0019  0.5058  1.4314
  421MOL0     H56807   1.448   7.340   7.661 -0.4866  0.0781 -0.9982
  421MOL0     H56808   1.347   7.205   7.727  1.6555 -0.4061  0.8443
  421MOL0     H56809   1.153   7.337   7.695  2.5135 -3.1910  0.9144
  421MOL0     H56810   1.240   7.330   7.546 -1.0608  1.6963 -1.1540
  421MOL0     H56811   1.170   7.566   7.562  0.6630  2.0163 -0.5065
  421MOL0     H56812   1.244   7.580   7.728  2.0132  0.0028  1.2953
  421MOL0     H56813   1.409   7.526   7.475 -1.0252  0.1185 -0.3456
  421MOL0     H56814   1.454   7.573   7.646 -3.1609 -0.6249  1.6669
  421MOL0     H56815   1.337   7.771   7.618 -1.3480 -0.7721 -0.7590
  421MOL0     H56816   1.309   7.743   7.446 -3.7225  2.6599  2.4914
  421MOL0     H56817   1.943   7.265   8.106 -1.1942  1.9682  0.7391
  421MOL0     H56818   2.177   7.337   8.068  0.4901  2.3054  1.4985
  421MOL0     H56819   2.498   7.537   8.043  2.1292  0.2090  1.4690
  421MOL0     H56820   2.736   7.614   8.025  0.5116  1.8635 -0.7236
  421MOL0     H56821   4.943   7.438   7.905 -0.3548  0.2735  0.3772
  421MOL0     H56822   5.185   7.450   7.792 -1.5435 -1.1370  0.2203
  421MOL0     H56823   5.491   7.558   7.550 -0.4179  0.7059  0.2021
  421MOL0     H56824   5.691   7.546   7.427  1.0184  0.7157 -1.8431
  421MOL0     H56825   5.709   7.501   7.074 -0.9700  1.2579  3.4833
  421MOL0     H56826   5.865   7.504   7.136 -0.2549 -0.5908  0.2936
  421MOL0     H56827   5.883   7.401   6.901 -0.4346  0.2532 -0.8256
  421MOL0     H56828   5.745   7.300   6.936  1.3354 -3.3272  1.2927
  421MOL0     H56829   5.935   7.155   6.942 -2.0047 -1.8174  1.3284
  421MOL0     H56830   5.848   7.169   7.086 -0.0031 -1.2701 -1.3196
  421MOL0     H56831   6.115   7.158   7.113  1.8146  1.2386  1.8195
  421MOL0     H56832   6.046   7.300   7.185  0.8641  2.7385 -1.4567
  421MOL0     H56833   6.228   7.447   6.830  0.1602 -0.4419  0.7145
  421MOL0     H56834   5.517   7.251   7.167  0.0048 -2.0807  2.0319
  421MOL0     H56835   5.314   7.296   7.253 -0.9130  2.6375 -1.1745
  422MOL0     O56836   3.541   8.938   0.735 -0.0003 -0.0095 -0.3468
  422MOL0     C56837   3.583   8.923   0.626  0.0367  0.7024 -0.0637
  422MOL0     O56838   3.533   8.976   0.514 -0.0741 -0.7503 -0.0815
  422MOL0     C56839   3.404   9.020   0.499  0.7071  0.5587 -0.4317
  422MOL0     C56840   3.375   9.114   0.403  0.6657 -0.5500 -0.6049
  422MOL0     C56841   3.249   9.166   0.394 -0.1478 -0.4234 -0.5943
  422MOL0     C56842   3.151   9.137   0.493  0.5289 -0.1831 -0.3567
  422MOL0     O56843   3.032   9.203   0.484  0.5799 -0.0617 -0.4552
  422MOL0     C56844   2.929   9.154   0.565  0.2346  0.6274 -0.6364
  422MOL0     C56845   2.814   9.250   0.587  0.6928  0.0891 -0.3415
  422MOL0     C56846   2.770   9.307   0.461  0.1222 -1.3196  0.2966
  422MOL0     C56847   2.627   9.359   0.470  0.0081  0.6535 -0.9104
  422MOL0     C56848   2.591   9.462   0.370  0.5007  0.0960 -0.6774
  422MOL0     C56849   2.459   9.518   0.419  0.0981 -0.2320 -0.5167
  422MOL0     C56850   2.376   9.588   0.308  0.5057  0.1437  0.5694
  422MOL0     C56851   2.297   9.496   0.206 -0.2308  0.4422 -0.5029
  422MOL0     N56852   2.175   9.441   0.266  0.2293 -0.4523  0.7582
  422MOL0     C56853   2.158   9.336   0.352 -0.2689  0.3873 -0.2260
  422MOL0     C56854   2.026   9.337   0.398 -0.1811  0.1205  0.5678
  422MOL0     C56855   1.950   9.234   0.485 -0.6401  0.7593 -0.0322
  422MOL0     C56856   1.825   9.165   0.425  0.4581  0.2995  0.1385
  422MOL0     C56857   1.740   9.104   0.534  0.6840 -0.4500  0.3739
  422MOL0     C56858   1.599   9.077   0.489 -0.8767  0.0569 -0.7203
  422MOL0     O56859   1.593   9.004   0.366  0.3210 -0.2289  0.2194
  422MOL0     C56860   1.470   8.961   0.321 -0.2761 -1.0212 -0.4808
  422MOL0     C56861   1.464   8.891   0.206 -0.6720 -0.5113 -0.8464
  422MOL0     C56862   1.343   8.863   0.137  0.3516  0.1118 -0.3666
  422MOL0     C56863   1.351   8.781   0.017 -0.1143  0.6783 -0.1157
  422MOL0     C56864   1.221   8.910   0.178 -0.3823 -1.6702  0.3852
  422MOL0     C56865   1.090   8.888   0.105  1.1070 -0.2621 -0.7662
  422MOL0     O56866   0.982   8.849   0.190  0.1029 -0.4063  0.4519
  422MOL0     C56867   0.860   8.825   0.141 -0.2574  0.2157  0.4664
  422MOL0     C56868   0.794   8.890   0.033 -1.2930  0.1229 -0.1072
  422MOL0     C56869   0.662   8.854  -0.009 -0.0186  0.6127 -1.4662
  422MOL0     C56870   0.591   8.753   0.056  0.2526 -0.1863  0.4347
  422MOL0     O56871   0.476   8.691   0.008 -0.0069  0.1381  0.8234
  422MOL0     C56872   0.362   8.683   0.099 -0.7107 -0.5146  0.9859
  422MOL0     C56873   0.261   8.605   0.008 -0.0690 -0.3035  0.0565
  422MOL0     C56874   0.145   8.544   0.084 -0.3021 -0.3295 -0.4789
  422MOL0     C56875   0.034   8.492  -0.001 -0.2170 -0.5829 -0.5066
  422MOL0     C56876  -0.104   8.469   0.066 -0.8916  0.0614  0.2380
  422MOL0     C56877  -0.090   8.341   0.147 -0.3181 -0.4115  0.0174
  422MOL0     C56878  -0.224   8.277   0.186 -0.2852 -0.0181  0.4869
  422MOL0     C56879  -0.197   8.153   0.283  0.1659 -0.1602  0.7492
  422MOL0    Cl56880  -0.136   8.205   0.443  0.0319 -0.2141  0.0271
  422MOL0     C56881   0.654   8.681   0.162  0.3324 -0.1908  0.3526
  422MOL0     C56882   0.782   8.724   0.206 -0.0962 -0.1188  0.2186
  422MOL0     O56883   1.082   8.898  -0.014 -0.3116  0.1674  0.2990
  422MOL0     C56884   1.223   8.990   0.301  0.6821 -0.5122 -0.6082
  422MOL0     C56885   1.348   9.002   0.376 -0.4964  0.1777  0.0330
  422MOL0     N56886   1.974   9.453   0.348  0.3224  0.3903  0.5912
  422MOL0     N56887   2.057   9.512   0.268 -0.0614 -0.4620  0.0481
  422MOL0     C56888   3.172   9.031   0.576  0.0269  0.1749 -0.0398
  422MOL0     C56889   3.303   8.967   0.581 -0.0158 -1.4744  0.0574
  422MOL0     C56890   3.708   8.849   0.617 -0.7977 -0.3017  0.7077
  422MOL0     C56891   3.766   8.837   0.486 -0.4326 -0.1061  0.7359
  422MOL0     C56892   3.898   8.781   0.476  0.7266 -0.3705 -0.3439
  422MOL0     C56893   3.964   8.728   0.592  0.1854  0.2615  0.2433
  422MOL0     O56894   4.095   8.684   0.595 -0.4954  0.3197 -0.4355
  422MOL0     C56895   4.164   8.653   0.470 -0.3854  0.2291 -0.2633
  422MOL0     C56896   4.282   8.557   0.493  0.0254 -0.1483 -0.5327
  422MOL0     C56897   4.234   8.416   0.541 -0.0522 -0.3757  0.5055
  422MOL0     C56898   4.141   8.331   0.457 -0.0030 -0.4759 -0.3200
  422MOL0     C56899   4.001   8.370   0.456 -0.1958  0.0364  0.2724
  422MOL0     C56900   3.890   8.402   0.453 -0.3973  0.1123 -0.0744
  422MOL0     C56901   3.905   8.742   0.714  0.1151 -0.5174 -0.3128
  422MOL0     C56902   3.777   8.801   0.728 -0.5621 -0.4845  0.2108
  422MOL0     H56903   3.458   9.141   0.340 -0.2269  2.9572 -0.4632
  422MOL0     H56904   3.233   9.234   0.311  3.6825  0.8943 -0.4708
  422MOL0     H56905   2.880   9.066   0.524  0.5797  0.1057  0.0426
  422MOL0     H56906   2.964   9.138   0.668  0.1809  2.5345 -0.2880
  422MOL0     H56907   2.737   9.208   0.652  0.2598 -0.3926 -1.1587
  422MOL0     H56908   2.845   9.334   0.651 -0.6064 -0.0271  0.4770
  422MOL0     H56909   2.826   9.399   0.441 -3.0759  1.4409  2.8696
  422MOL0     H56910   2.769   9.241   0.373 -0.1924 -1.5205  0.4493
  422MOL0     H56911   2.567   9.269   0.456  4.0358 -3.4102  3.7282
  422MOL0     H56912   2.606   9.386   0.574 -0.0717  0.5315 -0.8944
  422MOL0     H56913   2.668   9.541   0.374 -0.4886  1.1060 -0.9795
  422MOL0     H56914   2.584   9.412   0.273 -0.5085  1.1517 -1.1689
  422MOL0     H56915   2.396   9.434   0.449  0.8376 -0.9139 -0.8161
  422MOL0     H56916   2.470   9.592   0.499  0.5524  0.2403 -1.0058
  422MOL0     H56917   2.308   9.654   0.362  1.6337  0.1251  2.0737
  422MOL0     H56918   2.449   9.644   0.249  0.7068  1.0084  1.6201
  422MOL0     H56919   2.362   9.409   0.190  1.3611  1.3906  0.4845
  422MOL0     H56920   2.283   9.552   0.113  1.5673  0.6361 -0.6993
  422MOL0     H56921   2.234   9.268   0.386 -0.1468  0.7961  0.3349
  422MOL0     H56922   2.027   9.163   0.516  0.5527  1.7661 -0.5881
  422MOL0     H56923   1.921   9.289   0.575 -0.9636 -0.0122  0.3403
  422MOL0     H56924   1.852   9.086   0.354 -0.3412  1.3863 -1.4320
  422MOL0     H56925   1.768   9.243   0.374 -0.9123 -1.8680 -1.8699
  422MOL0     H56926   1.738   9.173   0.618  2.6381 -2.1637  1.9112
  422MOL0     H56927   1.775   9.008   0.571 -0.0683 -0.7627  0.3100
  422MOL0     H56928   1.543   9.169   0.468  2.1211  1.6237 -2.6946
  422MOL0     H56929   1.548   9.011   0.560 -1.5694  1.0707 -0.2578
  422MOL0     H56930   1.558   8.864   0.159 -0.6269  0.4096 -1.3130
  422MOL0     H56931   1.454   8.752  -0.005  0.4128  0.3632  2.4371
  422MOL0     H56932   1.284   8.696   0.028 -1.5175  1.8457  0.7904
  422MOL0     H56933   1.311   8.836  -0.069 -1.1631 -1.5451 -1.1102
  422MOL0     H56934   0.848   8.971  -0.015  0.0811 -2.2466 -2.8857
  422MOL0     H56935   0.615   8.901  -0.094 -1.2435  1.2176 -0.4960
  422MOL0     H56936   0.394   8.626   0.187  2.1717 -0.5154  0.0618
  422MOL0     H56937   0.334   8.786   0.122 -0.2800  0.0791 -0.9385
  422MOL0     H56938   0.233   8.679  -0.068  0.3179  1.0880  1.2279
  422MOL0     H56939   0.309   8.525  -0.049 -0.0800  1.4074 -2.5406
  422MOL0     H56940   0.121   8.630   0.148  1.0577 -0.1407 -0.1978
  422MOL0     H56941   0.182   8.466   0.151 -0.1820 -1.2691 -1.6083
  422MOL0     H56942   0.013   8.567  -0.077 -0.3024 -1.1520 -1.0596
  422MOL0     H56943   0.066   8.399  -0.050  0.4126 -0.3890 -0.4705
  422MOL0     H56944  -0.192   8.467   0.001  0.0594 -0.1129 -1.1100
  422MOL0     H56945  -0.115   8.555   0.131  1.5889  0.8091 -0.2069
  422MOL0     H56946  -0.033   8.267   0.091 -1.1095 -1.1914  0.2209
  422MOL0     H56947  -0.037   8.363   0.240  1.4304 -0.7771 -0.8557
  422MOL0     H56948  -0.271   8.244   0.093 -2.4318 -0.1633  1.5417
  422MOL0     H56949  -0.294   8.350   0.229 -0.9841  0.8218 -1.9440
  422MOL0     H56950  -0.134   8.080   0.233 -1.7302 -2.7960  1.9792
  422MOL0     H56951  -0.297   8.110   0.298  0.0319 -0.6048 -1.2325
  422MOL0     H56952   0.601   8.603   0.215 -0.5199  0.0918 -0.0739
  422MOL0     H56953   0.824   8.662   0.285 -1.7993  0.3628  1.5465
  422MOL0     H56954   1.127   9.023   0.338  0.7871 -3.0082  2.2803
  422MOL0     H56955   1.345   9.053   0.472 -3.5112 -1.3929  0.9072
  422MOL0     H56956   3.098   8.995   0.647  0.8952 -1.1260  0.2318
  422MOL0     H56957   3.311   8.884   0.651 -2.1894 -2.2506 -0.5234
  422MOL0     H56958   3.714   8.885   0.404 -0.8623  0.7545  1.4943
  422MOL0     H56959   3.958   8.774   0.386  3.7009 -1.1335  1.5583
  422MOL0     H56960   4.091   8.610   0.401 -0.4972 -2.5587  1.4133
  422MOL0     H56961   4.198   8.745   0.422  3.1309  0.2504  1.9181
  422MOL0     H56962   4.348   8.599   0.569 -1.1010 -1.2115  1.1129
  422MOL0     H56963   4.338   8.539   0.401  1.8496  1.6407  0.1639
  422MOL0     H56964   4.178   8.426   0.635 -2.7878  0.9338 -1.1639
  422MOL0     H56965   4.328   8.365   0.566 -0.0394 -1.1833 -1.0885
  422MOL0     H56966   4.149   8.240   0.518  2.7610  0.5325  0.9848
  422MOL0     H56967   4.180   8.311   0.357  2.5847  1.5499  0.1821
  422MOL0     H56968   3.788   8.433   0.440 -0.3249  0.6328  0.5406
  422MOL0     H56969   3.951   8.700   0.803 -1.4731  2.7707  2.3056
  422MOL0     H56970   3.730   8.803   0.826  1.1646 -0.1224  1.0829
  423MOL0     O56971   0.724  10.162   3.447  0.2696  0.7160 -0.0607
  423MOL0     C56972   0.753  10.051   3.390 -0.4615  0.1736  0.2307
  423MOL0     O56973   0.664   9.961   3.334  0.8213  0.0402 -0.0569
  423MOL0     C56974   0.525   9.972   3.366 -0.2297  0.6142 -0.6568
  423MOL0     C56975   0.466   9.886   3.460 -0.8502 -0.6016  0.3674
  423MOL0     C56976   0.330   9.890   3.491  0.6944  0.0663  0.1881
  423MOL0     C56977   0.239   9.981   3.421 -0.2252 -0.6381  0.2271
  423MOL0     O56978   0.097   9.970   3.446 -0.2651  0.0853  0.0477
  423MOL0     C56979   0.005  10.078   3.410  0.3035  0.4295  0.0770
  423MOL0     C56980   0.032  10.193   3.502  0.2157 -0.2898  0.5737
  423MOL0     C56981  -0.077  10.291   3.515 -0.3719 -0.4909 -0.2567
  423MOL0     C56982  -0.186  10.229   3.604  0.1441 -1.0722  0.6622
  423MOL0     C56983  -0.302  10.327   3.612 -0.0145 -0.2136 -0.2830
  423MOL0     C56984  -0.393  10.296   3.728 -0.5790  0.0989  0.1964
  423MOL0     C56985  -0.481  10.420   3.764  0.5264 -0.9883 -0.1449
  423MOL0     C56986  -0.560  10.405   3.893  0.2118 -0.0697  0.3351
  423MOL0     N56987  -0.695  10.372   3.855  0.3075  0.2010  0.2295
  423MOL0     C56988  -0.742  10.257   3.787  0.8208 -0.6954 -0.0897
  423MOL0     C56989  -0.874  10.287   3.761  0.5417 -0.8662  0.6992
  423MOL0     C56990  -0.980  10.199   3.697 -0.1385  0.0959 -0.5667
  423MOL0     C56991  -1.061  10.270   3.588  1.0740  0.2377  0.1389
  423MOL0     C56992  -1.169  10.179   3.530  0.6794 -0.1964  0.8059
  423MOL0     C56993  -1.288  10.263   3.470 -0.3464 -0.7774  0.3695
  423MOL0     O56994  -1.379  10.169   3.411 -0.6056 -0.0998 -0.1051
  423MOL0     C56995  -1.507  10.200   3.403  0.5497 -0.0419  0.5608
  423MOL0     C56996  -1.563  10.327   3.407 -0.1900  0.0197 -0.1465
  423MOL0     C56997  -1.700  10.343   3.421  0.4526 -0.9304 -0.4363
  423MOL0     C56998  -1.753  10.483   3.392  0.3381  0.7150 -0.5647
  423MOL0     C56999  -1.788  10.232   3.448 -0.7812 -0.3503 -0.3353
  423MOL0     C57000  -1.931  10.243   3.462  0.1508  0.2312  0.1333
  423MOL0     O57001  -1.988  10.372   3.475 -0.6508  0.0888  0.8693
  423MOL0     C57002  -2.126  10.378   3.454 -0.0708  0.0847 -0.0140
  423MOL0     C57003  -2.212  10.450   3.550 -0.0492 -0.7033  0.7981
  423MOL0     C57004  -2.351  10.467   3.532 -0.0974 -0.0730  0.3815
  423MOL0     C57005  -2.409  10.429   3.407 -0.8325  0.5424  0.1692
  423MOL0     O57006  -2.545  10.430   3.397  0.2424 -0.8507 -0.4836
  423MOL0     C57007  -2.608  10.409   3.268  0.4250 -0.7102 -0.5480
  423MOL0     C57008  -2.746  10.476   3.257  0.5619  0.8278  0.0435
  423MOL0     C57009  -2.852  10.447   3.368  0.1265  0.2961 -0.0432
  423MOL0     C57010  -2.982  10.513   3.322 -0.0610  1.0503 -0.2820
  423MOL0     C57011  -3.093  10.469   3.412 -0.1062 -0.8233  0.3204
  423MOL0     C57012  -3.234  10.488   3.361  0.6132  0.2549 -0.4279
  423MOL0     C57013  -3.347  10.473   3.474 -0.0809  0.5982  0.5745
  423MOL0     C57014  -3.484  10.495   3.419  0.4827 -0.9596 -0.1029
  423MOL0    Cl57015  -3.537  10.362   3.302  0.0310  0.0454 -0.0001
  423MOL0     C57016  -2.329  10.348   3.321 -0.5886 -0.3092  0.3702
  423MOL0     C57017  -2.192  10.331   3.343  0.1580 -0.8475 -0.6251
  423MOL0     O57018  -1.998  10.146   3.461  0.2718  0.0643 -0.3672
  423MOL0     C57019  -1.726  10.103   3.448 -0.5407  0.6191 -0.4503
  423MOL0     C57020  -1.590  10.087   3.433  0.1588  0.7944  0.7604
  423MOL0     N57021  -0.900  10.419   3.796  0.0619  0.8837  0.0892
  423MOL0     N57022  -0.795  10.465   3.851  0.1123 -0.3178  0.0943
  423MOL0     C57023   0.301  10.062   3.324 -0.1856 -0.6324  0.5305
  423MOL0     C57024   0.442  10.061   3.304 -0.5075 -0.5561  0.4461
  423MOL0     C57025   0.897  10.011   3.393  0.1812  0.1444  0.0220
  423MOL0     C57026   0.933   9.879   3.376  0.4368  0.2548  0.2463
  423MOL0     C57027   1.059   9.831   3.375 -0.2319  0.1511 -0.0294
  423MOL0     C57028   1.164   9.922   3.399 -0.7783 -0.3265 -0.3391
  423MOL0     O57029   1.291   9.878   3.384 -0.3242  0.7574 -0.3648
  423MOL0     C57030   1.349   9.851   3.517 -0.7808 -1.1444 -0.7851
  423MOL0     C57031   1.497   9.879   3.496 -0.4164  0.2793  0.6038
  423MOL0     C57032   1.558   9.817   3.372 -0.1623 -0.2374  0.9409
  423MOL0     C57033   1.711   9.807   3.378 -0.0982  0.4347 -1.2685
  423MOL0     C57034   1.771   9.941   3.383 -0.3092  0.9902 -0.1073
  423MOL0     C57035   1.805  10.057   3.377  0.4165  0.8547 -0.6693
  423MOL0     C57036   1.141  10.059   3.423  0.2056  0.3495  0.0975
  423MOL0     C57037   1.001  10.106   3.422  0.3284 -0.2019 -0.0178
  423MOL0     H57038   0.531   9.812   3.506 -0.7570 -0.4526  0.4765
  423MOL0     H57039   0.296   9.819   3.565  1.0364  0.1841  0.4606
  423MOL0     H57040   0.018  10.107   3.306 -0.5964 -0.3421 -0.2611
  423MOL0     H57041  -0.099  10.044   3.410 -0.3202  1.8150 -3.8312
  423MOL0     H57042   0.058  10.158   3.602 -2.4772  1.1449  1.9062
  423MOL0     H57043   0.116  10.242   3.452 -0.2631 -0.2501 -0.2034
  423MOL0     H57044  -0.041  10.384   3.560 -0.1270 -0.4264 -0.5773
  423MOL0     H57045  -0.106  10.307   3.411  1.0595 -3.4107 -1.2308
  423MOL0     H57046  -0.212  10.126   3.579 -0.4866 -0.7785  0.0325
  423MOL0     H57047  -0.143  10.222   3.704  1.6911 -0.6953  0.0493
  423MOL0     H57048  -0.259  10.426   3.630  1.2076 -0.8842  0.7274
  423MOL0     H57049  -0.358  10.327   3.518 -1.1603  0.6704  0.3736
  423MOL0     H57050  -0.452  10.206   3.706  1.1277 -0.7941 -0.9725
  423MOL0     H57051  -0.329  10.273   3.814  0.3657  0.7174 -0.3299
  423MOL0     H57052  -0.407  10.500   3.777  0.2503 -0.4566 -1.6709
  423MOL0     H57053  -0.539  10.450   3.677 -0.1322 -1.2881  0.1826
  423MOL0     H57054  -0.560  10.489   3.963  2.1832 -0.1519  0.4920
  423MOL0     H57055  -0.517  10.327   3.957  3.6484 -0.2255 -1.8965
  423MOL0     H57056  -0.689  10.164   3.769  1.7704 -0.4176  1.1836
  423MOL0     H57057  -0.926  10.111   3.659  0.6624  0.7563 -0.9953
  423MOL0     H57058  -1.047  10.167   3.777  0.1402  2.1372  0.5457
  423MOL0     H57059  -0.994  10.309   3.511  1.4711 -0.3814  0.1610
  423MOL0     H57060  -1.114  10.346   3.646 -0.5111 -0.9026  0.2538
  423MOL0     H57061  -1.199  10.101   3.601  2.7100 -0.0889  1.8598
  423MOL0     H57062  -1.122  10.126   3.446 -1.2422  0.5670 -0.8537
  423MOL0     H57063  -1.259  10.335   3.393  0.0727 -1.2125  0.1086
  423MOL0     H57064  -1.329  10.319   3.554  0.5937  2.4526 -1.1297
  423MOL0     H57065  -1.502  10.414   3.383 -0.9266  1.4258  2.6050
  423MOL0     H57066  -1.809  10.528   3.475  0.0419 -1.6489  0.6108
  423MOL0     H57067  -1.668  10.547   3.367  2.3042 -1.0946  1.1341
  423MOL0     H57068  -1.822  10.477   3.307 -0.2032  0.3732 -0.1129
  423MOL0     H57069  -2.173  10.477   3.648 -0.8741  2.0090  0.4649
  423MOL0     H57070  -2.404  10.514   3.614  3.6201 -0.9049  3.5238
  423MOL0     H57071  -2.540  10.446   3.191  3.1531  1.4397  2.6149
  423MOL0     H57072  -2.623  10.301   3.262  0.0196 -0.6820 -0.1295
  423MOL0     H57073  -2.736  10.585   3.249 -1.3435  1.2043  2.0329
  423MOL0     H57074  -2.785  10.448   3.158 -2.7490 -3.0058  2.1517
  423MOL0     H57075  -2.813  10.497   3.457  0.0079 -0.4714  0.4545
  423MOL0     H57076  -2.858  10.339   3.385  2.5904  0.0507 -0.3728
  423MOL0     H57077  -2.977  10.621   3.309 -2.0686  0.9780 -2.3340
  423MOL0     H57078  -3.002  10.472   3.223  0.4301 -1.1437  0.4600
  423MOL0     H57079  -3.087  10.519   3.510 -2.1484 -1.0791  0.6013
  423MOL0     H57080  -3.080  10.361   3.416  2.6902 -0.5974 -0.3267
  423MOL0     H57081  -3.241  10.594   3.332  0.7577  0.1182 -0.9681
  423MOL0     H57082  -3.249  10.419   3.278  2.8088 -0.2718 -0.4282
  423MOL0     H57083  -3.333  10.547   3.554 -1.9629  1.4191  0.1951
  423MOL0     H57084  -3.340  10.369   3.508  3.4603  0.2852 -0.7248
  423MOL0     H57085  -3.480  10.596   3.376  0.3093 -0.5287  0.8637
  423MOL0     H57086  -3.551  10.498   3.506  1.3028  2.4055  0.5634
  423MOL0     H57087  -2.368  10.316   3.225  0.6730 -1.8573  0.3410
  423MOL0     H57088  -2.124  10.298   3.265  1.7232 -0.4563  0.5161
  423MOL0     H57089  -1.781  10.017   3.484 -1.2263 -0.1417 -3.0868
  423MOL0     H57090  -1.545   9.989   3.439 -1.6614 -0.2524 -1.3765
  423MOL0     H57091   0.244  10.127   3.259  2.5778  0.3976 -1.0601
  423MOL0     H57092   0.482  10.129   3.230 -0.5632 -0.9271  0.0757
  423MOL0     H57093   0.859   9.810   3.337 -0.1557  1.6813 -1.2540
  423MOL0     H57094   1.073   9.729   3.343  1.3545  0.5001 -0.5168
  423MOL0     H57095   1.302   9.909   3.597  0.0975  0.3228 -1.2834
  423MOL0     H57096   1.328   9.747   3.542 -1.2235 -1.1252 -1.0741
  423MOL0     H57097   1.556   9.851   3.584 -3.5632 -0.8840  2.5325
  423MOL0     H57098   1.500   9.987   3.485 -0.6429  0.1611 -0.7465
  423MOL0     H57099   1.538   9.872   3.279 -0.4110 -2.0727 -0.1371
  423MOL0     H57100   1.504   9.724   3.351  0.2924 -0.3701  0.3455
  423MOL0     H57101   1.746   9.754   3.289 -0.7417 -1.4932 -0.4193
  423MOL0     H57102   1.741   9.740   3.459  0.2489  3.4252  1.2894
  423MOL0     H57103   1.826  10.162   3.376 -4.1075  1.9994 -0.3647
  423MOL0     H57104   1.218  10.131   3.448  1.2043 -0.3890 -0.7989
  423MOL0     H57105   0.977  10.210   3.442  1.2127 -0.2863  1.6900
  424MOL0     O57106   8.781  10.937   7.619 -0.0113 -0.0825 -1.0629
  424MOL0     C57107   8.744  10.894   7.507 -0.6258  0.5988 -0.5549
  424MOL0     O57108   8.626  10.914   7.448  0.2268 -0.0053  0.7403
  424MOL0     C57109   8.530  10.981   7.513 -0.4887 -0.4594  0.3794
  424MOL0     C57110   8.546  11.092   7.603 -0.0476  0.7396 -0.0199
  424MOL0     C57111   8.436  11.142   7.671  0.4106  0.7427 -0.3253
  424MOL0     C57112   8.310  11.077   7.657  0.0071 -0.2134 -0.2023
  424MOL0     O57113   8.209  11.124   7.734 -0.0555  0.2431 -0.8771
  424MOL0     C57114   8.102  11.038   7.777  0.5079 -0.2873 -0.1528
  424MOL0     C57115   7.975  11.048   7.683 -1.2363  0.1851 -0.9239
  424MOL0     C57116   7.944  11.195   7.647  0.0153 -0.4329  0.2475
  424MOL0     C57117   7.790  11.221   7.657  0.7185 -0.4767  0.3781
  424MOL0     C57118   7.731  11.359   7.620 -0.3907 -0.7844 -0.5353
  424MOL0     C57119   7.577  11.374   7.636  0.0714  0.1663  0.3159
  424MOL0     C57120   7.511  11.498   7.571  0.0999 -1.2120 -1.1492
  424MOL0     C57121   7.504  11.486   7.418 -0.6407 -0.4270  0.0903
  424MOL0     N57122   7.407  11.593   7.370  0.1367 -0.4924 -0.2811
  424MOL0     C57123   7.424  11.728   7.381  0.2143  0.0507 -0.2550
  424MOL0     C57124   7.325  11.789   7.316  0.1873 -0.2702  0.0050
  424MOL0     C57125   7.316  11.939   7.276  0.3258 -0.1938  0.2795
  424MOL0     C57126   7.172  11.992   7.272  0.7918  0.2226  0.5803
  424MOL0     C57127   7.086  11.934   7.388 -0.3400 -0.0583  0.1513
  424MOL0     C57128   6.982  12.036   7.428 -0.1790 -0.7866  0.4228
  424MOL0     O57129   6.890  12.059   7.326  0.5823  0.0132 -0.1943
  424MOL0     C57130   6.781  12.148   7.342 -0.6145  1.1663  0.1886
  424MOL0     C57131   6.699  12.174   7.237 -1.2241 -0.8127 -0.1509
  424MOL0     C57132   6.596  12.269   7.241 -0.6975  0.1091  0.0923
  424MOL0     C57133   6.517  12.267   7.112  0.0183  0.2042 -1.1572
  424MOL0     C57134   6.581  12.348   7.357  0.0679  0.0546  0.1465
  424MOL0     C57135   6.483  12.461   7.356  0.3583  0.2130  0.1825
  424MOL0     O57136   6.404  12.472   7.472  0.4812 -0.0847  0.4419
  424MOL0     C57137   6.329  12.586   7.483 -0.3909 -0.0673  0.0636
  424MOL0     C57138   6.388  12.715   7.452  0.4312 -0.3152 -0.1412
  424MOL0     C57139   6.315  12.829   7.462  0.3988  0.2599  0.3825
  424MOL0     C57140   6.179  12.819   7.497  0.6779 -0.1957 -0.3728
  424MOL0     O57141   6.094  12.934   7.529  0.6582 -0.4002 -0.0455
  424MOL0     C57142   6.141  13.063   7.484  0.4310  0.2903 -0.3821
  424MOL0     C57143   6.009  13.153   7.488 -0.3298 -0.0041 -0.0336
  424MOL0     C57144   5.893  13.118   7.401  0.1414 -0.2511 -0.3623
  424MOL0     C57145   5.938  13.136   7.252  0.7236 -0.0288  1.7213
  424MOL0     C57146   5.815  13.130   7.160  0.3683 -0.4539  0.5984
  424MOL0     C57147   5.737  13.266   7.142 -0.3236 -0.0403 -0.5849
  424MOL0     C57148   5.592  13.235   7.089 -0.5455 -0.4360 -0.2574
  424MOL0     C57149   5.518  13.361   7.074 -0.0710 -1.0484  0.4369
  424MOL0    Cl57150   5.346  13.314   7.051 -0.4341 -0.0507  0.0959
  424MOL0     C57151   6.119  12.694   7.522  0.6516 -0.2196 -0.7526
  424MOL0     C57152   6.198  12.576   7.519 -0.0768 -0.8721  0.0378
  424MOL0     O57153   6.481  12.535   7.262  0.2494 -0.1687 -0.7964
  424MOL0     C57154   6.661  12.319   7.469  0.9542  0.7572 -0.5564
  424MOL0     C57155   6.757  12.221   7.460 -0.9379  0.0864  0.6662
  424MOL0     N57156   7.261  11.690   7.245  0.4829  0.0268  0.4973
  424MOL0     N57157   7.307  11.570   7.279  0.2349 -0.0584  0.2370
  424MOL0     C57158   8.296  10.969   7.571  0.1932  0.5050  0.8520
  424MOL0     C57159   8.407  10.916   7.494  1.3317 -0.5240  0.3934
  424MOL0     C57160   8.843  10.817   7.433 -0.4353  0.1952 -0.3571
  424MOL0     C57161   8.968  10.785   7.498 -0.6165  0.2650 -1.2098
  424MOL0     C57162   9.064  10.715   7.429 -0.1526 -0.8236 -0.1273
  424MOL0     C57163   9.055  10.679   7.296  0.3506  0.4522  0.4725
  424MOL0     O57164   9.141  10.599   7.224  0.2983  0.4605  0.2784
  424MOL0     C57165   9.181  10.486   7.300 -0.0418  0.3422  0.6499
  424MOL0     C57166   9.222  10.358   7.217 -0.3799 -0.3925 -0.1451
  424MOL0     C57167   9.107  10.276   7.162 -0.9890  0.3812 -0.3357
  424MOL0     C57168   9.153  10.123   7.144 -0.0398  0.1408 -0.4023
  424MOL0     C57169   9.263  10.106   7.048  1.2284 -0.4853 -0.1493
  424MOL0     C57170   9.360  10.115   6.981  0.7917 -0.6448 -0.5805
  424MOL0     C57171   8.934  10.705   7.233 -0.6820  0.0110  0.6699
  424MOL0     C57172   8.826  10.768   7.300  0.5129  0.4886 -0.6245
  424MOL0     H57173   8.642  11.140   7.614 -0.0490  1.4015 -2.3384
  424MOL0     H57174   8.459  11.222   7.740 -1.2925  1.1893 -0.2303
  424MOL0     H57175   8.147  10.940   7.794  1.0591  0.1568  1.0365
  424MOL0     H57176   8.069  11.073   7.875  2.7929  0.5597  0.3849
  424MOL0     H57177   7.979  10.981   7.596 -0.7836 -0.2963 -0.5417
  424MOL0     H57178   7.892  10.999   7.735  0.2720  1.1038  2.6876
  424MOL0     H57179   7.998  11.266   7.710  0.5069 -0.9001  0.3539
  424MOL0     H57180   7.986  11.217   7.548 -2.7294  2.0131 -0.5378
  424MOL0     H57181   7.729  11.153   7.597 -2.6193  2.8353 -0.3506
  424MOL0     H57182   7.765  11.214   7.764 -0.1752 -0.9419  0.1508
  424MOL0     H57183   7.792  11.430   7.676 -0.1234 -0.5603 -1.1127
  424MOL0     H57184   7.751  11.382   7.515  1.0635  1.8328  0.2214
  424MOL0     H57185   7.524  11.289   7.591  1.3596 -0.0532 -0.8667
  424MOL0     H57186   7.559  11.370   7.744 -0.7816  0.0153  0.1734
  424MOL0     H57187   7.410  11.505   7.614  1.5141 -2.1980  2.7224
  424MOL0     H57188   7.570  11.582   7.608 -0.6409 -0.8204 -0.8179
  424MOL0     H57189   7.462  11.391   7.383 -0.4780  0.3288 -2.2929
  424MOL0     H57190   7.602  11.506   7.375 -1.6112  1.4759 -1.4283
  424MOL0     H57191   7.513  11.771   7.428  0.5346  2.0556 -2.5210
  424MOL0     H57192   7.362  11.992   7.360  0.5699 -1.7921  1.1974
  424MOL0     H57193   7.362  11.943   7.177 -2.5315 -3.6181 -1.4163
  424MOL0     H57194   7.134  11.969   7.172  2.8862  0.4640 -0.3321
  424MOL0     H57195   7.164  12.100   7.284 -1.1929 -0.0704  2.4965
  424MOL0     H57196   7.158  11.921   7.470 -0.2821  2.3412  0.5621
  424MOL0     H57197   7.038  11.838   7.370  0.4473 -0.0427 -2.4186
  424MOL0     H57198   7.037  12.128   7.449 -1.2228  0.1916 -0.9277
  424MOL0     H57199   6.937  12.014   7.526 -1.1552  4.7695  1.5736
  424MOL0     H57200   6.720  12.111   7.151  1.0715  1.0630 -1.0997
  424MOL0     H57201   6.552  12.187   7.045  0.0271  0.3673 -1.3474
  424MOL0     H57202   6.413  12.244   7.134  0.7097 -1.7107  0.4772
  424MOL0     H57203   6.529  12.365   7.065  4.0963  1.5990  2.1035
  424MOL0     H57204   6.488  12.737   7.416  0.5733  1.6421  1.3242
  424MOL0     H57205   6.358  12.922   7.427 -0.3915  0.0210 -1.3301
  424MOL0     H57206   6.229  13.105   7.534  1.6590 -0.1302 -2.0950
  424MOL0     H57207   6.172  13.062   7.379  1.5768  1.3916 -0.0780
  424MOL0     H57208   5.965  13.145   7.588 -0.1629  0.3976  0.0719
  424MOL0     H57209   6.034  13.258   7.469 -1.0248 -0.0779 -1.4577
  424MOL0     H57210   5.805  13.181   7.419 -1.2388 -1.9501 -0.9150
  424MOL0     H57211   5.863  13.014   7.410  1.1032 -0.3512  2.5295
  424MOL0     H57212   5.992  13.228   7.230  0.1893 -0.0804  0.0543
  424MOL0     H57213   6.005  13.057   7.217 -2.0009 -0.5029 -3.4791
  424MOL0     H57214   5.747  13.053   7.196 -4.0451  2.8655  0.2759
  424MOL0     H57215   5.842  13.105   7.057 -0.4447  1.8084 -0.2390
  424MOL0     H57216   5.727  13.324   7.234  2.4247  0.2304 -0.4036
  424MOL0     H57217   5.806  13.315   7.074  2.0822 -3.9650 -1.3203
  424MOL0     H57218   5.541  13.169   7.159 -0.5765  0.6638  0.8027
  424MOL0     H57219   5.598  13.187   6.991  2.2578 -1.7855  0.4722
  424MOL0     H57220   5.558  13.433   7.003 -0.9353 -0.5973  0.3968
  424MOL0     H57221   5.525  13.406   7.173 -2.5578  1.4713 -0.3823
  424MOL0     H57222   6.014  12.700   7.549  1.1297  0.1947  1.1427
  424MOL0     H57223   6.147  12.483   7.540 -0.8702 -0.0749  1.8400
  424MOL0     H57224   6.653  12.392   7.549 -2.1911  1.8325 -1.6927
  424MOL0     H57225   6.822  12.207   7.545 -0.0213 -0.1371 -0.0473
  424MOL0     H57226   8.194  10.935   7.554 -1.3119  4.1087  1.6660
  424MOL0     H57227   8.389  10.833   7.426 -2.6422  0.5244 -0.1053
  424MOL0     H57228   8.976  10.818   7.601 -1.1516 -0.5590 -0.8938
  424MOL0     H57229   9.158  10.697   7.481  1.0825  1.6157 -1.3467
  424MOL0     H57230   9.267  10.510   7.364  2.1932 -3.2895 -0.6670
  424MOL0     H57231   9.101  10.448   7.364  0.5559 -0.2204  1.0792
  424MOL0     H57232   9.276  10.298   7.291 -1.1263  0.9716  1.5595
  424MOL0     H57233   9.285  10.395   7.135 -0.6934  1.9597  0.6083
  424MOL0     H57234   9.080  10.319   7.065  1.9251 -0.3098 -1.5577
  424MOL0     H57235   9.017  10.304   7.217 -1.2212 -1.8672  0.5334
  424MOL0     H57236   9.070  10.052   7.133  0.4978 -0.6990  0.8081
  424MOL0     H57237   9.197  10.088   7.237  0.2483 -2.6948 -1.5093
  424MOL0     H57238   9.451  10.122   6.924  1.0293  0.5446 -0.0853
  424MOL0     H57239   8.927  10.676   7.129  0.9255 -0.0673  0.5581
  424MOL0     H57240   8.728  10.780   7.255  0.5027 -0.6827 -0.9384
  425MOL0     O57241  10.147   8.580   6.318  0.0643  0.5237 -0.7800
  425MOL0     C57242  10.099   8.635   6.216 -0.3783  0.0933 -0.1769
  425MOL0     O57243  10.015   8.743   6.222  0.6765  0.4472  0.7025
  425MOL0     C57244   9.983   8.783   6.350 -0.5720 -0.9246 -0.7894
  425MOL0     C57245   9.860   8.738   6.409  0.1368  0.2002 -0.2943
  425MOL0     C57246   9.827   8.789   6.535  0.0355  0.1332  0.0461
  425MOL0     C57247   9.917   8.871   6.606 -0.1124 -0.9068  0.5990
  425MOL0     O57248   9.869   8.918   6.724  0.8374  0.4698  0.0876
  425MOL0     C57249   9.942   9.016   6.798 -0.2996  0.2916  1.2365
  425MOL0     C57250   9.859   9.037   6.923  0.9419 -0.1709 -1.0924
  425MOL0     C57251   9.727   9.099   6.890 -0.4308 -0.2626  0.7346
  425MOL0     C57252   9.650   9.119   7.024 -0.2083  0.0922 -0.0274
  425MOL0     C57253   9.506   9.120   7.009  0.8927  0.0817  0.0532
  425MOL0     C57254   9.465   9.224   6.904  0.3333 -0.3709  0.8090
  425MOL0     C57255   9.315   9.256   6.911 -0.1915  0.1624 -1.0722
  425MOL0     C57256   9.278   9.369   6.814 -0.6010 -0.3573 -0.0746
  425MOL0     N57257   9.134   9.385   6.788 -0.0908 -0.5625 -0.1552
  425MOL0     C57258   9.025   9.349   6.868  0.2362 -0.2855 -0.3114
  425MOL0     C57259   8.909   9.375   6.796 -0.3152 -0.6257 -0.3775
  425MOL0     C57260   8.765   9.351   6.838  0.0087 -0.1660  0.5677
  425MOL0     C57261   8.698   9.487   6.860  0.6530 -0.5154 -0.1393
  425MOL0     C57262   8.550   9.445   6.888 -0.3878  0.0702 -0.7583
  425MOL0     C57263   8.456   9.551   6.931 -0.1203 -0.6104  0.6272
  425MOL0     O57264   8.341   9.481   6.980  0.5979 -0.1131  0.5486
  425MOL0     C57265   8.209   9.518   6.953  0.1160  0.5773 -0.0791
  425MOL0     C57266   8.099   9.431   6.980 -0.7354  0.7125 -0.9655
  425MOL0     C57267   7.966   9.475   6.974  0.1240 -0.7925 -0.4105
  425MOL0     C57268   7.852   9.374   6.985  0.1282 -0.4214  0.1971
  425MOL0     C57269   7.932   9.605   6.928 -0.2081 -0.0213 -0.7469
  425MOL0     C57270   7.788   9.640   6.931  0.2029 -0.4611 -0.8637
  425MOL0     O57271   7.740   9.703   7.035  0.2020  0.3225 -0.3660
  425MOL0     C57272   7.622   9.771   7.032 -0.5191  0.1614  0.4796
  425MOL0     C57273   7.506   9.736   7.104 -0.4640  0.4129  0.4228
  425MOL0     C57274   7.398   9.822   7.104  0.3474 -0.1240  0.6603
  425MOL0     C57275   7.389   9.936   7.026 -0.3958 -0.7482  0.5448
  425MOL0     O57276   7.270   9.994   7.020 -0.1633 -0.0540  0.1325
  425MOL0     C57277   7.247  10.112   6.944  0.4966  0.3336 -0.3731
  425MOL0     C57278   7.126  10.198   7.003 -0.7845  0.3586 -0.1565
  425MOL0     C57279   7.069  10.295   6.901 -0.7630 -0.9733 -0.7827
  425MOL0     C57280   6.914  10.307   6.916 -0.5384  0.4984 -0.3896
  425MOL0     C57281   6.848  10.379   6.799 -0.2582  0.1741 -1.0279
  425MOL0     C57282   6.695  10.354   6.808 -0.5918 -1.0283 -0.1172
  425MOL0     C57283   6.635  10.440   6.923  0.3496  0.7221  0.3626
  425MOL0     C57284   6.500  10.496   6.885  0.1950  0.3454  0.4417
  425MOL0    Cl57285   6.379  10.364   6.873 -0.0695 -0.1978 -0.1242
  425MOL0     C57286   7.505   9.969   6.953  0.3002  0.3501  0.1838
  425MOL0     C57287   7.618   9.888   6.960 -0.2226 -0.5696  0.2673
  425MOL0     O57288   7.735   9.632   6.821 -0.0407 -0.2109 -0.0878
  425MOL0     C57289   8.039   9.679   6.889 -0.3995 -0.9430 -0.2064
  425MOL0     C57290   8.175   9.644   6.905  0.0368  0.8647 -0.2738
  425MOL0     N57291   8.956   9.410   6.673 -0.3260  0.2039  0.7405
  425MOL0     N57292   9.082   9.413   6.664 -0.4239 -0.0063 -0.0450
  425MOL0     C57293  10.044   8.902   6.553 -0.0602  0.3274  0.5531
  425MOL0     C57294  10.073   8.861   6.424 -0.2449  0.1974  0.1680
  425MOL0     C57295  10.146   8.583   6.085  1.5683 -0.3473  0.1513
  425MOL0     C57296  10.229   8.471   6.082  0.5479  0.6393 -0.6577
  425MOL0     C57297  10.282   8.421   5.964 -0.1036 -0.4552  0.0475
  425MOL0     C57298  10.258   8.491   5.839 -0.0323  0.2969  0.3493
  425MOL0     O57299  10.301   8.433   5.718 -0.5614 -0.1846 -0.3447
  425MOL0     C57300  10.345   8.514   5.610 -0.4820 -0.7000 -0.1161
  425MOL0     C57301  10.382   8.430   5.491  1.3388 -0.6388  0.7698
  425MOL0     C57302  10.502   8.341   5.517  0.3501  0.0524  0.1734
  425MOL0     C57303  10.517   8.233   5.411  0.7626  0.5449 -0.1910
  425MOL0     C57304  10.513   8.292   5.274 -0.1643  0.6318  1.0056
  425MOL0     C57305  10.511   8.342   5.161  0.1534  0.0387  0.3346
  425MOL0     C57306  10.170   8.599   5.838  0.8191 -0.4670 -0.3964
  425MOL0     C57307  10.111   8.648   5.960 -0.1308  0.0885 -0.4650
  425MOL0     H57308   9.805   8.666   6.350  3.3463 -2.7663 -0.0063
  425MOL0     H57309   9.726   8.772   6.571  0.0096 -1.6143 -0.7334
  425MOL0     H57310  10.042   8.978   6.820  1.2792  2.8874 -0.8428
  425MOL0     H57311   9.942   9.104   6.733 -4.2169 -0.3049  0.1716
  425MOL0     H57312   9.848   8.940   6.972 -0.2089 -1.0992 -3.0591
  425MOL0     H57313   9.919   9.103   6.987  0.0701  1.2989 -1.7620
  425MOL0     H57314   9.742   9.196   6.842 -1.5548 -0.8444 -0.9091
  425MOL0     H57315   9.673   9.036   6.818  2.3558 -2.3478  0.3167
  425MOL0     H57316   9.672   9.031   7.085 -1.1239 -0.4940 -0.5154
  425MOL0     H57317   9.684   9.205   7.082  1.6616 -0.2424 -0.5491
  425MOL0     H57318   9.483   9.017   6.979  0.3830 -0.1128  1.0741
  425MOL0     H57319   9.459   9.138   7.106  0.1956 -4.8731  0.8975
  425MOL0     H57320   9.527   9.313   6.920 -0.1265  0.5112 -1.9008
  425MOL0     H57321   9.494   9.191   6.804  6.1407  1.1108  1.6251
  425MOL0     H57322   9.268   9.159   6.892  1.7521 -0.8740 -0.8034
  425MOL0     H57323   9.294   9.288   7.013 -2.3509 -0.7576 -1.1776
  425MOL0     H57324   9.327   9.355   6.717 -0.6966 -2.1131  0.0939
  425MOL0     H57325   9.320   9.460   6.858 -0.5487 -1.3362  2.0612
  425MOL0     H57326   9.023   9.301   6.965  0.0481 -2.3862 -1.3150
  425MOL0     H57327   8.728   9.291   6.753  1.1991 -0.5482  0.3000
  425MOL0     H57328   8.750   9.296   6.931 -1.5331 -1.3788 -0.3392
  425MOL0     H57329   8.711   9.554   6.774  1.1989 -2.3613 -1.5574
  425MOL0     H57330   8.738   9.531   6.951  0.4282 -1.6304  0.5210
  425MOL0     H57331   8.554   9.364   6.962  4.0844  0.5540 -0.1980
  425MOL0     H57332   8.511   9.398   6.797 -2.2856 -1.1400  0.6058
  425MOL0     H57333   8.423   9.617   6.851 -0.0974  1.1561  2.0097
  425MOL0     H57334   8.508   9.611   7.007 -1.0907  0.2147  0.6483
  425MOL0     H57335   8.112   9.328   7.011  1.4977  0.3193 -2.9484
  425MOL0     H57336   7.779   9.399   7.062  0.4944  2.3239 -0.2692
  425MOL0     H57337   7.796   9.371   6.891 -1.4536 -0.9209  1.1157
  425MOL0     H57338   7.893   9.274   7.002 -2.6946 -1.7224 -0.1682
  425MOL0     H57339   7.496   9.640   7.153 -3.1265  0.3647 -0.0354
  425MOL0     H57340   7.308   9.789   7.154  0.6350  0.7168  1.7523
  425MOL0     H57341   7.342  10.166   6.950  1.4631 -1.1089 -1.6729
  425MOL0     H57342   7.223  10.083   6.841 -1.5269 -0.9593  0.3957
  425MOL0     H57343   7.055  10.127   7.048 -3.5685  2.4431 -0.9376
  425MOL0     H57344   7.163  10.257   7.086 -1.4999  0.1944  0.2869
  425MOL0     H57345   7.095  10.263   6.799 -0.1601  1.7740 -1.5718
  425MOL0     H57346   7.114  10.392   6.924 -2.5078 -0.5694  1.2393
  425MOL0     H57347   6.868  10.208   6.906 -0.5173  0.5418 -1.0061
  425MOL0     H57348   6.903  10.362   7.009  3.4851  1.8509 -0.4858
  425MOL0     H57349   6.885  10.330   6.708  1.6717  1.3759 -0.9392
  425MOL0     H57350   6.868  10.486   6.798 -0.2500  0.2255  1.2033
  425MOL0     H57351   6.657  10.377   6.708  3.2736  0.0177 -1.5216
  425MOL0     H57352   6.677  10.246   6.819 -2.1249 -0.9154 -1.0926
  425MOL0     H57353   6.690  10.533   6.939 -0.2953  1.0372  0.8056
  425MOL0     H57354   6.621  10.384   7.016 -3.2389  0.4480 -0.2006
  425MOL0     H57355   6.517  10.546   6.789 -3.6656  0.1817 -0.4725
  425MOL0     H57356   6.476  10.573   6.958 -0.6101  2.9655 -2.3787
  425MOL0     H57357   7.506  10.057   6.889  0.7972  0.8821  0.9034
  425MOL0     H57358   7.709   9.905   6.903 -0.1457  0.0597  0.5684
  425MOL0     H57359   8.017   9.778   6.851  2.7830 -0.7810 -2.0568
  425MOL0     H57360   8.245   9.725   6.886  0.7208  0.1421 -0.8529
  425MOL0     H57361  10.109   8.965   6.614 -0.2336  2.9702 -1.7904
  425MOL0     H57362  10.169   8.896   6.387  1.6384  0.0468  4.2828
  425MOL0     H57363  10.254   8.405   6.165  0.4571  2.3621  0.7921
  425MOL0     H57364  10.342   8.331   5.964 -0.3330 -0.6220  1.0406
  425MOL0     H57365  10.265   8.583   5.581 -0.2528 -0.0245  0.8279
  425MOL0     H57366  10.436   8.568   5.638 -1.5645  0.8129  0.6131
  425MOL0     H57367  10.404   8.500   5.411 -4.4218 -1.2475 -1.8245
  425MOL0     H57368  10.297   8.372   5.453  0.4585 -0.0955  1.8670
  425MOL0     H57369  10.481   8.282   5.607 -0.0944 -0.1741 -0.0782
  425MOL0     H57370  10.591   8.402   5.535  0.6211 -0.0695 -0.7134
  425MOL0     H57371  10.440   8.158   5.427  0.9080  0.7098  1.4536
  425MOL0     H57372  10.613   8.185   5.433  0.6837  0.5834  0.2549
  425MOL0     H57373  10.496   8.385   5.064  0.3790 -1.2447 -0.2999
  425MOL0     H57374  10.154   8.644   5.741  2.2870 -2.1245 -1.4852
  425MOL0     H57375  10.039   8.728   5.956  0.5363  0.7774  0.6523
  426MOL0     O57376   5.852   4.813   1.472  0.2602  0.3902  0.1783
  426MOL0     C57377   5.896   4.886   1.384  0.7775 -0.2704  0.6471
  426MOL0     O57378   5.823   4.947   1.288  0.4849 -0.3823 -0.5845
  426MOL0     C57379   5.691   4.984   1.317  0.3127  0.1791  0.7995
  426MOL0     C57380   5.659   5.030   1.449 -0.4897 -0.8985 -0.5993
  426MOL0     C57381   5.535   5.095   1.472  0.0983  0.1930  1.0611
  426MOL0     C57382   5.437   5.098   1.376 -0.1802  0.5600  0.5308
  426MOL0     O57383   5.308   5.124   1.415  0.2922 -0.4851  0.0028
  426MOL0     C57384   5.202   5.114   1.318  0.3349  0.0538  0.3705
  426MOL0     C57385   5.066   5.153   1.390  0.2844  0.1389  0.4698
  426MOL0     C57386   4.929   5.112   1.319 -1.2838  0.3188 -0.0871
  426MOL0     C57387   4.816   5.135   1.422  0.6959  0.1253  0.6798
  426MOL0     C57388   4.675   5.115   1.358  0.3173 -0.8634  0.1568
  426MOL0     C57389   4.631   4.974   1.319 -0.4317 -0.6725  0.6139
  426MOL0     C57390   4.479   4.951   1.308  0.1979  0.1604  0.0233
  426MOL0     C57391   4.401   5.033   1.207 -0.8284  0.4521 -0.4274
  426MOL0     N57392   4.252   5.024   1.206 -0.3080  0.1098 -0.9886
  426MOL0     C57393   4.178   4.911   1.240 -0.0300 -0.9013 -0.5064
  426MOL0     C57394   4.049   4.946   1.217 -0.2104 -0.5195  0.2736
  426MOL0     C57395   3.943   4.841   1.226 -0.6217  0.4265 -0.7769
  426MOL0     C57396   3.962   4.714   1.132 -0.9937 -0.0312  0.5702
  426MOL0     C57397   3.828   4.654   1.078 -0.3756  0.1875 -0.0126
  426MOL0     C57398   3.726   4.623   1.179 -0.4667 -0.5308 -0.3298
  426MOL0     O57399   3.781   4.556   1.287 -0.4838  0.1618  0.0413
  426MOL0     C57400   3.700   4.460   1.345  0.4200 -0.6565 -0.3831
  426MOL0     C57401   3.565   4.490   1.385 -0.9590 -0.3900  0.0665
  426MOL0     C57402   3.476   4.397   1.447 -0.6759 -0.4918  0.5291
  426MOL0     C57403   3.362   4.467   1.504  0.4669  1.2145 -0.5570
  426MOL0     C57404   3.519   4.262   1.474 -1.6590 -0.2476 -0.0996
  426MOL0     C57405   3.434   4.158   1.546 -0.6668 -1.1311 -0.0662
  426MOL0     O57406   3.500   4.038   1.574  1.1747 -0.5798 -0.7180
  426MOL0     C57407   3.425   3.956   1.656 -0.2353  0.4111 -0.1990
  426MOL0     C57408   3.420   3.969   1.795  0.5534 -0.7733 -1.1702
  426MOL0     C57409   3.353   3.873   1.868  0.2666  0.4330  0.3163
  426MOL0     C57410   3.290   3.760   1.816  0.1927  0.6021 -1.0516
  426MOL0     O57411   3.220   3.676   1.903  0.3014 -0.3030 -0.4798
  426MOL0     C57412   3.117   3.600   1.848  0.0765  0.5889 -0.1457
  426MOL0     C57413   3.026   3.535   1.959 -0.5946  0.0822  0.0165
  426MOL0     C57414   2.954   3.629   2.047  0.2152 -0.8964 -0.5648
  426MOL0     C57415   2.831   3.569   2.119  0.3699  0.1360 -0.7330
  426MOL0     C57416   2.776   3.658   2.228 -0.1509 -0.0902  0.0535
  426MOL0     C57417   2.649   3.604   2.304 -0.8718  0.1675  0.5977
  426MOL0     C57418   2.520   3.648   2.244  0.6959 -0.3336 -0.3240
  426MOL0     C57419   2.418   3.705   2.347  0.6298  0.1407 -0.4068
  426MOL0    Cl57420   2.350   3.571   2.433 -0.2829  0.4013  0.0205
  426MOL0     C57421   3.293   3.751   1.677  0.2627 -0.2196  0.2793
  426MOL0     C57422   3.355   3.851   1.596 -0.0743 -0.1186 -0.6658
  426MOL0     O57423   3.321   4.190   1.576 -0.0685 -0.0912 -0.0125
  426MOL0     C57424   3.648   4.219   1.412  0.0225 -0.4474 -0.5129
  426MOL0     C57425   3.731   4.318   1.346 -0.8975 -0.2869  0.8610
  426MOL0     N57426   4.051   5.076   1.165 -0.2048 -0.0174 -0.1026
  426MOL0     N57427   4.166   5.125   1.170 -0.4920  0.5751  0.0083
  426MOL0     C57428   5.475   5.056   1.245 -0.4372 -0.0145 -0.2535
  426MOL0     C57429   5.597   5.000   1.212 -0.4130 -0.0113  0.4792
  426MOL0     C57430   6.041   4.878   1.365  0.2348  0.0991 -0.5157
  426MOL0     C57431   6.127   4.812   1.453 -0.2155  0.0482 -0.0239
  426MOL0     C57432   6.258   4.785   1.422  0.3974 -0.4106 -0.1452
  426MOL0     C57433   6.325   4.842   1.314  0.2288  0.3084 -0.0350
  426MOL0     O57434   6.464   4.819   1.289  0.4594  0.0580  0.4964
  426MOL0     C57435   6.547   4.922   1.232  0.6298  0.1684 -0.8171
  426MOL0     C57436   6.628   4.975   1.347 -0.0746 -0.1573 -0.6769
  426MOL0     C57437   6.742   4.886   1.398  0.3186  0.5035  0.4903
  426MOL0     C57438   6.826   4.956   1.509 -0.3388 -0.7146 -0.0051
  426MOL0     C57439   6.944   4.870   1.537  0.6117 -0.7788 -0.3820
  426MOL0     C57440   7.042   4.804   1.570 -0.5328  0.2887  0.4731
  426MOL0     C57441   6.246   4.916   1.225  1.1931  0.0801 -0.4136
  426MOL0     C57442   6.108   4.932   1.248  0.0069  0.2132 -0.6026
  426MOL0     H57443   5.746   5.042   1.513  0.6284  1.6692 -2.4182
  426MOL0     H57444   5.517   5.140   1.569 -1.1850  0.5900  0.6671
  426MOL0     H57445   5.219   5.188   1.239 -0.2422  0.1403  0.3239
  426MOL0     H57446   5.187   5.013   1.281  0.4474  0.2692 -0.2756
  426MOL0     H57447   5.065   5.089   1.478 -0.1340 -1.0247 -0.3614
  426MOL0     H57448   5.068   5.259   1.417  0.2942  0.6734 -1.4708
  426MOL0     H57449   4.907   5.182   1.238  2.0718  3.0270  1.0943
  426MOL0     H57450   4.948   5.007   1.292  0.7282 -0.3221  3.2783
  426MOL0     H57451   4.828   5.073   1.511 -2.8205  0.8536  1.7850
  426MOL0     H57452   4.834   5.230   1.473 -0.3606  0.5141  0.3632
  426MOL0     H57453   4.601   5.158   1.425 -1.3072  1.6803 -3.0018
  426MOL0     H57454   4.683   5.192   1.280  0.8753  1.3698  2.3098
  426MOL0     H57455   4.677   4.961   1.221  1.3539  0.0544  1.3148
  426MOL0     H57456   4.676   4.905   1.390  2.2837  2.5116  2.2905
  426MOL0     H57457   4.468   4.844   1.287  1.9436 -0.4637  1.9511
  426MOL0     H57458   4.444   4.958   1.411  1.4108 -1.1799  0.5683
  426MOL0     H57459   4.436   4.991   1.112  1.8994  1.5282  0.0108
  426MOL0     H57460   4.427   5.139   1.199 -0.4768  0.3726 -0.3414
  426MOL0     H57461   4.218   4.815   1.272  3.7348 -0.0258 -1.9592
  426MOL0     H57462   3.957   4.824   1.333 -0.8944  2.0194 -0.4597
  426MOL0     H57463   3.840   4.866   1.201 -0.8560 -1.2677 -1.6649
  426MOL0     H57464   4.014   4.639   1.193  2.3198  2.9406  1.7241
  426MOL0     H57465   4.025   4.737   1.046  1.0505 -0.9365  1.7558
  426MOL0     H57466   3.856   4.564   1.023  1.7996  1.8324 -1.8144
  426MOL0     H57467   3.788   4.723   1.004  1.7091  0.0093 -1.3931
  426MOL0     H57468   3.661   4.554   1.125 -0.0416  0.9687 -2.8867
  426MOL0     H57469   3.670   4.708   1.218 -1.7150 -2.4184  2.3807
  426MOL0     H57470   3.538   4.595   1.382 -1.6737 -0.4928  1.7551
  426MOL0     H57471   3.366   4.468   1.613  0.6888 -0.6084 -0.5212
  426MOL0     H57472   3.354   4.569   1.465 -0.6076 -0.2289 -4.6945
  426MOL0     H57473   3.270   4.415   1.476  1.6720 -1.3763 -0.0428
  426MOL0     H57474   3.476   4.044   1.850 -0.9578 -2.3248  2.9176
  426MOL0     H57475   3.357   3.888   1.975  0.7036  0.6828  0.2686
  426MOL0     H57476   3.055   3.657   1.778 -1.0526 -0.6064 -0.1479
  426MOL0     H57477   3.154   3.517   1.788  0.0383  0.3372  0.1768
  426MOL0     H57478   2.949   3.480   1.904 -1.5161  2.3848 -1.1339
  426MOL0     H57479   3.092   3.473   2.019  1.7794  1.0313 -1.4865
  426MOL0     H57480   2.920   3.715   1.989  0.0300 -0.1402  0.6091
  426MOL0     H57481   3.030   3.671   2.114 -1.0375  4.3957 -1.9390
  426MOL0     H57482   2.751   3.546   2.048 -3.0085  2.7955  1.8759
  426MOL0     H57483   2.857   3.469   2.154  0.1307  0.4411  0.3411
  426MOL0     H57484   2.767   3.757   2.182  4.2613  1.1297  1.3256
  426MOL0     H57485   2.851   3.674   2.306  1.0709  2.0905 -1.4650
  426MOL0     H57486   2.657   3.498   2.328 -1.1506  0.4143  1.8934
  426MOL0     H57487   2.666   3.659   2.397  3.7128  0.1272 -0.0035
  426MOL0     H57488   2.469   3.568   2.188 -3.0837  0.8362  1.1007
  426MOL0     H57489   2.530   3.731   2.173 -1.4763 -0.3342 -0.7167
  426MOL0     H57490   2.328   3.742   2.297 -0.5366 -0.9750  0.7863
  426MOL0     H57491   2.460   3.781   2.413  2.0521  1.1334 -2.3292
  426MOL0     H57492   3.241   3.673   1.623 -1.1918  0.3388  0.8348
  426MOL0     H57493   3.363   3.833   1.489  1.4840  1.7514 -0.9070
  426MOL0     H57494   3.685   4.117   1.410 -1.2081 -0.9509  0.5907
  426MOL0     H57495   3.823   4.277   1.304 -1.5691 -0.9148 -0.0298
  426MOL0     H57496   5.398   5.059   1.168  0.1919 -1.3695 -0.9767
  426MOL0     H57497   5.621   4.977   1.109 -0.7145  3.3078 -0.4396
  426MOL0     H57498   6.085   4.768   1.543 -1.1195  0.0259 -0.4411
  426MOL0     H57499   6.318   4.723   1.488 -0.7849 -0.7174  0.6719
  426MOL0     H57500   6.614   4.877   1.158  1.0784 -0.4835 -0.0382
  426MOL0     H57501   6.493   4.997   1.174  0.8541  0.4779 -0.6352
  426MOL0     H57502   6.555   4.994   1.426  0.5047 -1.8075  0.2822
  426MOL0     H57503   6.677   5.065   1.310 -0.5695  0.8922  1.1146
  426MOL0     H57504   6.807   4.854   1.316  1.0348 -0.5880  1.4630
  426MOL0     H57505   6.701   4.796   1.444 -0.4166  1.2866  1.4157
  426MOL0     H57506   6.771   4.969   1.603  0.1682  0.6795  0.1247
  426MOL0     H57507   6.859   5.056   1.479 -0.7993  0.0578  1.9336
  426MOL0     H57508   7.123   4.738   1.594 -1.8475 -1.5460  0.0344
  426MOL0     H57509   6.290   4.964   1.139  0.6355  0.9349 -0.2356
  426MOL0     H57510   6.047   4.999   1.187 -0.2831  2.8422  2.3197
  427MOL0     O57511   1.039   0.179   6.894  0.3998  0.7374 -0.0465
  427MOL0     C57512   1.081   0.225   7.002  0.1803 -0.0771 -1.3580
  427MOL0     O57513   1.015   0.214   7.119 -0.4353  0.0437 -0.5963
  427MOL0     C57514   0.900   0.142   7.125 -1.1314  0.2715  0.3143
  427MOL0     C57515   0.786   0.188   7.056  0.5607  0.2837  0.3546
  427MOL0     C57516   0.673   0.101   7.058  0.4794 -0.1031  0.6816
  427MOL0     C57517   0.685  -0.026   7.109 -0.1852 -0.0332 -0.1038
  427MOL0     O57518   0.577  -0.106   7.097 -0.0731  0.4145  0.3996
  427MOL0     C57519   0.569  -0.205   6.997 -0.6214 -0.0903  0.7698
  427MOL0     C57520   0.436  -0.276   6.987  0.9716 -0.2657 -0.3637
  427MOL0     C57521   0.349  -0.221   6.875  0.8146  0.0958  0.4337
  427MOL0     C57522   0.209  -0.297   6.868  0.2671  0.3623 -0.2995
  427MOL0     C57523   0.108  -0.221   6.781 -0.9640 -0.4302  0.7958
  427MOL0     C57524   0.065  -0.084   6.831  0.3876 -0.1895 -0.0178
  427MOL0     C57525  -0.086  -0.064   6.791  0.4012  0.4927  0.1883
  427MOL0     C57526  -0.111  -0.031   6.647  0.3850  0.2865  0.2214
  427MOL0     N57527  -0.239   0.047   6.625 -0.1185  0.5144 -0.6727
  427MOL0     C57528  -0.349   0.048   6.702  0.7645  0.6081  0.1580
  427MOL0     C57529  -0.408   0.163   6.663  0.0463  0.4993 -0.3385
  427MOL0     C57530  -0.529   0.237   6.713  0.0974 -0.3900 -0.2974
  427MOL0     C57531  -0.659   0.193   6.642 -0.1839  0.2925  0.0694
  427MOL0     C57532  -0.687   0.041   6.658 -0.9251 -0.0177 -0.0686
  427MOL0     C57533  -0.828   0.013   6.605  0.8585 -0.6849  0.4884
  427MOL0     O57534  -0.858  -0.122   6.636 -0.7756 -0.2582  0.4371
  427MOL0     C57535  -0.964  -0.189   6.588  0.7175 -0.7112 -0.2768
  427MOL0     C57536  -1.041  -0.151   6.477  0.7648 -0.4765  1.4450
  427MOL0     C57537  -1.157  -0.224   6.430 -0.1811  0.0337 -0.0177
  427MOL0     C57538  -1.236  -0.162   6.325  0.0694  0.5733  0.4167
  427MOL0     C57539  -1.188  -0.350   6.493 -0.4555  0.9554 -0.2973
  427MOL0     C57540  -1.309  -0.433   6.453 -0.6134 -0.4350  0.2271
  427MOL0     O57541  -1.404  -0.363   6.385  0.1350 -0.0470 -0.2863
  427MOL0     C57542  -1.515  -0.443   6.363  0.8272  0.0053  0.2567
  427MOL0     C57543  -1.617  -0.444   6.453  0.5297  0.2601 -0.2516
  427MOL0     C57544  -1.740  -0.511   6.421  0.6680 -0.6273 -0.2332
  427MOL0     C57545  -1.752  -0.580   6.305 -0.1996  0.1981  0.3058
  427MOL0     O57546  -1.848  -0.666   6.267 -0.1735  0.0613  0.2375
  427MOL0     C57547  -1.966  -0.678   6.352 -0.3016  1.1172 -0.4566
  427MOL0     C57548  -2.051  -0.799   6.307 -0.2477 -0.1756  0.0197
  427MOL0     C57549  -2.188  -0.790   6.367 -0.5108 -0.0228 -0.5351
  427MOL0     C57550  -2.271  -0.883   6.284  0.4174  0.7787  0.4348
  427MOL0     C57551  -2.425  -0.856   6.273 -0.7036 -0.4014 -0.1335
  427MOL0     C57552  -2.458  -0.747   6.171 -0.2113 -0.4025 -0.4583
  427MOL0     C57553  -2.603  -0.749   6.112 -0.2078  0.5679  0.6184
  427MOL0     C57554  -2.635  -0.876   6.025  0.0079 -0.6429 -0.4403
  427MOL0    Cl57555  -2.580  -0.853   5.866 -0.0012 -0.3550 -0.1994
  427MOL0     C57556  -1.646  -0.576   6.211 -0.0588 -0.3396  0.0595
  427MOL0     C57557  -1.525  -0.512   6.244 -0.3258  0.6816  0.3901
  427MOL0     O57558  -1.311  -0.551   6.490  0.8058 -1.3888 -0.0276
  427MOL0     C57559  -1.094  -0.397   6.594 -0.1887 -0.5728  0.0753
  427MOL0     C57560  -0.991  -0.308   6.644  1.3185  1.0372 -0.4222
  427MOL0     N57561  -0.337   0.220   6.558 -0.7926 -0.0084 -0.1157
  427MOL0     N57562  -0.232   0.146   6.537  0.9496  0.0180  0.1793
  427MOL0     C57563   0.801  -0.058   7.179 -0.3587  0.7722  0.1569
  427MOL0     C57564   0.909   0.018   7.186 -0.0860  0.1237  0.2629
  427MOL0     C57565   1.208   0.301   7.005 -0.0052  0.5712  0.0998
  427MOL0     C57566   1.260   0.343   6.883 -0.1006 -0.0763 -0.0413
  427MOL0     C57567   1.392   0.393   6.872  0.0444 -0.3530  0.7280
  427MOL0     C57568   1.467   0.418   6.993  0.1698 -0.3466  0.6186
  427MOL0     O57569   1.586   0.490   6.989 -0.0085  0.0552 -0.0212
  427MOL0     C57570   1.695   0.404   6.965  0.0039  0.3994 -0.4751
  427MOL0     C57571   1.737   0.330   7.098 -0.5389 -0.0254 -0.6227
  427MOL0     C57572   1.892   0.316   7.109  0.8126  0.7809 -0.1013
  427MOL0     C57573   1.942   0.193   7.035  0.2024  0.6934 -0.0078
  427MOL0     C57574   2.084   0.218   7.018  0.3148  0.2167  1.6417
  427MOL0     C57575   2.204   0.205   7.015  0.1687  0.2870  0.0759
  427MOL0     C57576   1.415   0.381   7.113 -0.2139  0.7565  0.1419
  427MOL0     C57577   1.289   0.319   7.118  0.7638  0.0281 -0.0296
  427MOL0     H57578   0.770   0.290   7.022 -0.6077  0.2388  0.7244
  427MOL0     H57579   0.588   0.141   7.004  1.7851  2.9269  0.6826
  427MOL0     H57580   0.598  -0.161   6.901  1.1746  2.2300  2.2354
  427MOL0     H57581   0.643  -0.282   7.023 -2.2687 -2.1782 -0.4385
  427MOL0     H57582   0.453  -0.383   6.972  1.7734 -0.4742  1.7642
  427MOL0     H57583   0.383  -0.256   7.080  0.3095 -2.0230 -0.3261
  427MOL0     H57584   0.331  -0.115   6.893  0.3551  0.1132 -0.1105
  427MOL0     H57585   0.393  -0.245   6.778 -1.4191 -0.0702 -0.6051
  427MOL0     H57586   0.230  -0.399   6.835  1.8869  0.6641 -0.3139
  427MOL0     H57587   0.174  -0.313   6.971  1.1293 -0.4120 -0.1142
  427MOL0     H57588   0.153  -0.203   6.683 -1.7821  1.9904  0.7950
  427MOL0     H57589   0.016  -0.275   6.761 -1.1748  1.0241 -2.8824
  427MOL0     H57590   0.068  -0.083   6.940  0.2506 -1.1658  0.0044
  427MOL0     H57591   0.126  -0.001   6.793  1.6632 -0.4184  1.4568
  427MOL0     H57592  -0.144  -0.150   6.826 -0.6095  2.7482  4.8257
  427MOL0     H57593  -0.128   0.015   6.854  0.8786  0.8857  0.0163
  427MOL0     H57594  -0.110  -0.121   6.585  0.1817 -0.6512  1.5152
  427MOL0     H57595  -0.025   0.020   6.604  0.4684  0.1488  0.2251
  427MOL0     H57596  -0.376  -0.013   6.788  1.0032 -0.5793 -0.5866
  427MOL0     H57597  -0.548   0.217   6.819  1.3580  1.5194  0.3512
  427MOL0     H57598  -0.516   0.345   6.703  0.2001 -0.0816  2.3320
  427MOL0     H57599  -0.654   0.216   6.535 -0.2579 -1.1667 -0.2636
  427MOL0     H57600  -0.744   0.254   6.674 -0.7599 -0.2444 -0.3934
  427MOL0     H57601  -0.670  -0.001   6.758 -0.9499 -3.9874 -1.5547
  427MOL0     H57602  -0.614  -0.021   6.607 -3.1198 -2.4503 -0.4549
  427MOL0     H57603  -0.822   0.050   6.503  2.9639  1.6200  1.3477
  427MOL0     H57604  -0.900   0.076   6.658 -1.0113 -1.4551 -0.9958
  427MOL0     H57605  -1.021  -0.056   6.430 -1.5891  0.1819  1.6390
  427MOL0     H57606  -1.336  -0.128   6.355 -0.4620  0.1489 -0.8260
  427MOL0     H57607  -1.181  -0.079   6.280  0.5538 -1.4340 -3.0444
  427MOL0     H57608  -1.242  -0.241   6.250 -1.1802  0.2321  0.8398
  427MOL0     H57609  -1.599  -0.395   6.548  2.9356 -1.3341  0.1991
  427MOL0     H57610  -1.817  -0.507   6.497  1.1131 -0.2327  0.2028
  427MOL0     H57611  -1.943  -0.671   6.459 -2.2046 -1.4266  0.2230
  427MOL0     H57612  -2.027  -0.592   6.325  1.6547  3.1393  1.2149
  427MOL0     H57613  -2.059  -0.793   6.198 -1.8252  1.4083  0.1801
  427MOL0     H57614  -2.005  -0.896   6.330 -2.2839 -0.6633  2.4505
  427MOL0     H57615  -2.221  -0.689   6.342  0.8557  0.0360 -2.2941
  427MOL0     H57616  -2.184  -0.809   6.475  1.4944 -0.2781 -0.6088
  427MOL0     H57617  -2.240  -0.901   6.181 -0.1019  2.6456 -0.0730
  427MOL0     H57618  -2.255  -0.982   6.328  1.1971  0.7456  0.0760
  427MOL0     H57619  -2.464  -0.825   6.370 -0.8557  3.3631 -1.2372
  427MOL0     H57620  -2.480  -0.950   6.257 -2.2118  0.1132  1.6413
  427MOL0     H57621  -2.433  -0.657   6.228  1.0676 -0.5538 -0.7619
  427MOL0     H57622  -2.387  -0.760   6.089 -2.1961 -1.1651 -2.1380
  427MOL0     H57623  -2.624  -0.654   6.061 -0.4480  0.7299  1.0129
  427MOL0     H57624  -2.674  -0.750   6.196 -2.2297  1.5238 -1.0095
  427MOL0     H57625  -2.741  -0.904   6.027 -0.0377 -0.4621  1.8403
  427MOL0     H57626  -2.590  -0.966   6.069 -3.1540 -1.4837  1.3893
  427MOL0     H57627  -1.643  -0.645   6.127  0.8807  1.0477 -1.1240
  427MOL0     H57628  -1.453  -0.514   6.163 -1.0742  0.3325 -0.2794
  427MOL0     H57629  -1.112  -0.494   6.639 -2.1141 -1.2370 -1.9177
  427MOL0     H57630  -0.929  -0.334   6.729 -0.8094  2.0577  1.5879
  427MOL0     H57631   0.798  -0.158   7.222 -2.8374 -0.8507 -3.2261
  427MOL0     H57632   0.999  -0.024   7.231  0.4654 -0.4996 -1.3739
  427MOL0     H57633   1.210   0.336   6.787  0.8722  0.2722 -0.5944
  427MOL0     H57634   1.432   0.418   6.774  0.2253  0.0941  0.9146
  427MOL0     H57635   1.685   0.331   6.885  1.5167 -2.1470  1.4766
  427MOL0     H57636   1.782   0.462   6.935  0.9022 -2.0075 -2.8857
  427MOL0     H57637   1.693   0.230   7.112  2.3426 -1.3853 -0.5680
  427MOL0     H57638   1.709   0.393   7.183 -0.0892  2.1229 -1.9844
  427MOL0     H57639   1.910   0.288   7.213  0.1584  1.3267  0.1698
  427MOL0     H57640   1.944   0.408   7.079  1.0225  0.8573  0.4836
  427MOL0     H57641   1.890   0.182   6.940 -0.4948  1.8023  0.2238
  427MOL0     H57642   1.936   0.109   7.105  1.4927 -0.7857 -1.6053
  427MOL0     H57643   2.310   0.189   7.008 -0.2471 -2.4330 -2.4152
  427MOL0     H57644   1.467   0.397   7.207 -1.6532  3.0985  0.6336
  427MOL0     H57645   1.244   0.285   7.210 -2.4373  0.5445 -1.2568
  428MOL0     O57646   5.789   8.044   5.002  0.2801  0.0839  0.0906
  428MOL0     C57647   5.802   7.942   4.934 -0.0944 -0.0337  0.9716
  428MOL0     O57648   5.703   7.884   4.854  0.8805  0.5242  0.1967
  428MOL0     C57649   5.588   7.938   4.813  0.5802 -0.9764  0.6507
  428MOL0     C57650   5.484   7.843   4.801  0.5034  0.3264 -0.2983
  428MOL0     C57651   5.354   7.891   4.779  0.1833 -0.8562 -0.0448
  428MOL0     C57652   5.329   8.026   4.756  0.3320 -0.4300  0.9565
  428MOL0     O57653   5.205   8.078   4.731  0.3615 -0.2380 -0.1563
  428MOL0     C57654   5.085   7.987   4.729 -0.5036  0.3981 -0.6074
  428MOL0     C57655   4.948   8.056   4.717  0.3853  0.2039 -0.0769
  428MOL0     C57656   4.933   8.161   4.831  0.3153 -1.0321  0.1373
  428MOL0     C57657   4.825   8.272   4.798  0.2570  0.4520 -0.2242
  428MOL0     C57658   4.786   8.337   4.938 -0.1096 -0.0962  0.7088
  428MOL0     C57659   4.639   8.379   4.954  0.3452 -0.0485  0.4737
  428MOL0     C57660   4.620   8.458   5.089  0.4293  0.3886 -0.0867
  428MOL0     C57661   4.477   8.510   5.101  0.0208  0.3581 -0.7944
  428MOL0     N57662   4.462   8.572   5.233 -0.2782  0.5874  0.0751
  428MOL0     C57663   4.516   8.696   5.259 -1.1569  0.6622  0.7503
  428MOL0     C57664   4.481   8.720   5.391  0.3053  0.0964  0.3353
  428MOL0     C57665   4.524   8.837   5.470 -0.4610 -0.6471 -0.1563
  428MOL0     C57666   4.463   8.956   5.410  0.5350 -0.1356 -0.4767
  428MOL0     C57667   4.481   9.068   5.522 -0.3456  0.0736 -0.1099
  428MOL0     C57668   4.433   9.195   5.454 -1.1181 -0.3136 -0.0974
  428MOL0     O57669   4.395   9.299   5.545  0.2132  0.2011  0.1987
  428MOL0     C57670   4.479   9.388   5.592 -0.3842  0.0684  0.4387
  428MOL0     C57671   4.437   9.522   5.593  0.3508  0.0306 -0.3975
  428MOL0     C57672   4.517   9.629   5.631  0.1580 -0.5226 -0.5306
  428MOL0     C57673   4.464   9.770   5.626 -0.3228  0.3280 -0.3468
  428MOL0     C57674   4.651   9.602   5.665  0.1849 -0.2999 -0.3721
  428MOL0     C57675   4.743   9.695   5.723  0.5678  0.2635 -0.7136
  428MOL0     O57676   4.816   9.792   5.655  0.4972 -0.1107  0.7740
  428MOL0     C57677   4.785   9.832   5.530  0.2228  0.2534  0.9843
  428MOL0     C57678   4.774   9.740   5.425  0.1362  0.4498  0.6326
  428MOL0     C57679   4.756   9.793   5.296 -0.9187 -0.5023 -0.4495
  428MOL0     C57680   4.757   9.931   5.274  1.2494 -0.3182  0.5031
  428MOL0     O57681   4.734   9.995   5.154 -0.1253 -0.3571  0.5667
  428MOL0     C57682   4.686   9.914   5.046 -0.0577 -0.1739 -0.6108
  428MOL0     C57683   4.663  10.004   4.918  0.1966  0.4197 -0.5893
  428MOL0     C57684   4.632   9.914   4.799  0.3293 -0.1225 -0.0616
  428MOL0     C57685   4.586  10.013   4.681  0.4636  0.9417 -0.2811
  428MOL0     C57686   4.632   9.947   4.557  0.3795 -0.1000  0.5609
  428MOL0     C57687   4.603  10.036   4.437 -0.2629 -0.3716  0.2068
  428MOL0     C57688   4.451  10.080   4.392 -0.8440 -0.0941 -0.2999
  428MOL0     C57689   4.361   9.957   4.386 -0.1264 -0.1032 -0.1795
  428MOL0    Cl57690   4.190  10.015   4.367  0.1601 -0.2319  0.4255
  428MOL0     C57691   4.774  10.016   5.378  0.0711  0.4404 -0.1874
  428MOL0     C57692   4.786   9.966   5.506 -0.2839 -0.9977  0.7441
  428MOL0     O57693   4.770   9.650   5.831  0.1502  0.1848 -0.4555
  428MOL0     C57694   4.697   9.468   5.648  0.3567  0.0292  0.2983
  428MOL0     C57695   4.614   9.358   5.613 -0.1703 -0.8706 -0.0822
  428MOL0     N57696   4.396   8.621   5.440 -0.1752  0.3187  0.0453
  428MOL0     N57697   4.386   8.542   5.337 -0.1370  1.0277  0.3078
  428MOL0     C57698   5.427   8.116   4.763 -0.2675 -0.8926 -0.1262
  428MOL0     C57699   5.561   8.076   4.794  0.7225 -0.0716  0.0301
  428MOL0     C57700   5.928   7.871   4.945 -0.4865  0.2216 -0.3171
  428MOL0     C57701   6.034   7.910   5.024  0.4127 -0.2208 -0.3399
  428MOL0     C57702   6.158   7.839   5.030  0.3777 -0.0296  0.0780
  428MOL0     C57703   6.173   7.724   4.962  0.0512  0.1062  0.5997
  428MOL0     O57704   6.301   7.660   4.969 -0.0058  0.0549 -0.1368
  428MOL0     C57705   6.349   7.561   4.874 -0.0824 -0.1377 -0.6170
  428MOL0     C57706   6.501   7.515   4.893  0.6359 -0.1017  0.0373
  428MOL0     C57707   6.604   7.613   4.817 -0.4169  0.7378 -0.5158
  428MOL0     C57708   6.741   7.605   4.884 -0.6441 -0.4368 -0.2155
  428MOL0     C57709   6.752   7.642   5.026  0.3322  0.4330  0.3971
  428MOL0     C57710   6.768   7.660   5.142  0.6342 -0.3038 -0.7370
  428MOL0     C57711   6.070   7.679   4.881  0.7435  0.0773  0.8027
  428MOL0     C57712   5.947   7.749   4.872 -0.5149 -0.1366 -1.2336
  428MOL0     H57713   5.510   7.742   4.829  1.8254  1.1638  1.7020
  428MOL0     H57714   5.266   7.828   4.785  1.2791 -2.3546  1.0143
  428MOL0     H57715   5.102   7.920   4.644  6.0167 -0.4322  0.8515
  428MOL0     H57716   5.085   7.935   4.825  1.3386  3.0765  0.9544
  428MOL0     H57717   4.941   8.107   4.620 -0.9519  0.5874  0.2042
  428MOL0     H57718   4.866   7.986   4.731 -0.2574  1.0816  0.7017
  428MOL0     H57719   4.904   8.109   4.922  0.8433 -2.4072 -0.4527
  428MOL0     H57720   5.030   8.207   4.854  1.0920 -1.1005 -2.6309
  428MOL0     H57721   4.868   8.345   4.729  0.0557  0.9471  0.1714
  428MOL0     H57722   4.741   8.227   4.745 -0.7234 -2.8117  3.5720
  428MOL0     H57723   4.810   8.275   5.025  1.8150  1.3277  1.2684
  428MOL0     H57724   4.845   8.429   4.951 -0.5996  0.4172 -0.5693
  428MOL0     H57725   4.605   8.437   4.868 -2.0452 -1.0817  0.6382
  428MOL0     H57726   4.576   8.291   4.966  1.4939 -0.8713  0.7104
  428MOL0     H57727   4.649   8.395   5.174  0.3169 -0.8489 -0.9456
  428MOL0     H57728   4.686   8.545   5.088  1.7294 -0.5602 -0.1007
  428MOL0     H57729   4.407   8.428   5.081  0.3511 -0.1857  0.1940
  428MOL0     H57730   4.455   8.588   5.028 -0.6779  1.6877  0.7803
  428MOL0     H57731   4.587   8.743   5.192 -0.6261 -0.7854  0.2496
  428MOL0     H57732   4.493   8.829   5.575  0.8740  0.9849  0.4158
  428MOL0     H57733   4.633   8.842   5.462 -0.3612  1.5998  1.5629
  428MOL0     H57734   4.354   8.951   5.400  0.4951  1.5721 -1.3565
  428MOL0     H57735   4.505   8.977   5.311 -0.1426 -2.6214 -1.3342
  428MOL0     H57736   4.588   9.076   5.541 -0.3834  1.4938 -0.3543
  428MOL0     H57737   4.421   9.052   5.612  0.6017  0.9684  0.7064
  428MOL0     H57738   4.342   9.183   5.394 -0.1132  0.4440 -1.8815
  428MOL0     H57739   4.507   9.228   5.380 -0.4246 -3.6148 -1.0562
  428MOL0     H57740   4.334   9.547   5.570  0.8288  1.8637 -0.7069
  428MOL0     H57741   4.360   9.769   5.590 -0.5673 -3.5283  0.0802
  428MOL0     H57742   4.470   9.816   5.725  0.5371 -1.0481  0.2707
  428MOL0     H57743   4.518   9.835   5.557 -1.4001  0.1132 -1.4269
  428MOL0     H57744   4.773   9.634   5.450  3.8128  0.1605  0.1458
  428MOL0     H57745   4.735   9.718   5.221 -1.4825 -1.1783  0.3604
  428MOL0     H57746   4.759   9.835   5.027  0.0827 -0.2714  0.2929
  428MOL0     H57747   4.597   9.861   5.084  0.8506  0.7225  3.1689
  428MOL0     H57748   4.581  10.075   4.933  0.8711  1.1595 -0.3433
  428MOL0     H57749   4.756  10.060   4.902 -1.7165  3.0946 -3.4115
  428MOL0     H57750   4.549   9.847   4.824 -1.5510  2.6326  1.7499
  428MOL0     H57751   4.715   9.849   4.770  1.1408  1.2070 -0.8712
  428MOL0     H57752   4.479  10.034   4.684 -0.1239 -1.0420 -3.0704
  428MOL0     H57753   4.639  10.108   4.697 -0.5840  1.5622 -0.3970
  428MOL0     H57754   4.588   9.848   4.539  1.7742 -0.6525  0.0370
  428MOL0     H57755   4.740   9.946   4.571  0.9406 -0.1212 -3.0283
  428MOL0     H57756   4.659  10.130   4.448  1.7338 -1.7180  2.4762
  428MOL0     H57757   4.648   9.974   4.359  0.8310 -2.8140  2.6352
  428MOL0     H57758   4.452  10.135   4.297 -0.2447  2.0220  0.8628
  428MOL0     H57759   4.410  10.152   4.463  1.1729  0.4783  0.3467
  428MOL0     H57760   4.371   9.894   4.475 -3.1851  0.1105  0.4153
  428MOL0     H57761   4.386   9.894   4.299 -0.5111 -0.8400  0.2304
  428MOL0     H57762   4.764  10.122   5.356 -0.6829  0.4349  0.0885
  428MOL0     H57763   4.811  10.036   5.585 -1.9671  0.5375 -0.0314
  428MOL0     H57764   4.801   9.454   5.675  0.6061  0.8953 -0.1844
  428MOL0     H57765   4.651   9.256   5.617  1.6382 -0.2342  0.2586
  428MOL0     H57766   5.407   8.219   4.736  0.7021 -0.3590  1.0950
  428MOL0     H57767   5.639   8.148   4.818 -0.2371  0.2634  2.3523
  428MOL0     H57768   6.026   7.995   5.090  1.4913  0.5146 -1.1244
  428MOL0     H57769   6.239   7.881   5.089 -2.5739  0.5346  4.1743
  428MOL0     H57770   6.283   7.474   4.877 -0.6361  0.2790 -0.2191
  428MOL0     H57771   6.334   7.605   4.775  3.8254  1.4262 -0.6791
  428MOL0     H57772   6.505   7.419   4.840  2.0114  1.4318 -2.8467
  428MOL0     H57773   6.518   7.492   4.999 -2.3418 -0.9224  0.4250
  428MOL0     H57774   6.571   7.716   4.833  0.5328  0.9913 -0.1768
  428MOL0     H57775   6.615   7.588   4.711  0.7916  0.0525 -0.2400
  428MOL0     H57776   6.793   7.681   4.825 -3.2660  2.1853  0.5942
  428MOL0     H57777   6.783   7.504   4.875  3.5312  0.7924  2.6272
  428MOL0     H57778   6.790   7.646   5.245 -3.6578  0.2087  0.4318
  428MOL0     H57779   6.085   7.589   4.821 -0.0249  0.5307 -0.1032
  428MOL0     H57780   5.870   7.709   4.807 -0.0498 -1.5946 -0.9261
  429MOL0     O57781   0.379   6.122   5.155  0.2188 -0.4524 -0.4155
  429MOL0     C57782   0.447   6.093   5.251 -0.1183 -0.7358 -0.5634
  429MOL0     O57783   0.399   6.063   5.371  0.4034 -0.0295 -0.6612
  429MOL0     C57784   0.261   6.082   5.395 -0.2786  0.7427  0.1728
  429MOL0     C57785   0.180   5.969   5.384  0.1611 -0.3252 -0.4125
  429MOL0     C57786   0.048   5.970   5.422 -0.6320 -0.0249 -0.3078
  429MOL0     C57787  -0.004   6.084   5.486 -0.0189 -0.5142  0.6646
  429MOL0     O57788  -0.141   6.092   5.514  0.2642  0.8808  0.1001
  429MOL0     C57789  -0.197   6.206   5.578 -0.1695 -0.1545  0.1734
  429MOL0     C57790  -0.337   6.178   5.619 -0.2781  1.0539 -0.5851
  429MOL0     C57791  -0.426   6.165   5.494 -0.8868  0.4574 -0.3173
  429MOL0     C57792  -0.569   6.128   5.541  0.1881 -0.2826  0.5956
  429MOL0     C57793  -0.641   6.260   5.579 -0.3042  0.2913 -0.4920
  429MOL0     C57794  -0.780   6.227   5.639 -0.0346 -0.2363 -1.0431
  429MOL0     C57795  -0.854   6.360   5.679  0.1038  0.2485  0.2965
  429MOL0     C57796  -0.782   6.444   5.780  0.2299  0.4822 -0.5385
  429MOL0     N57797  -0.740   6.365   5.897  0.3672  0.5523 -0.7120
  429MOL0     C57798  -0.824   6.346   6.010  0.4330  0.0929 -0.5567
  429MOL0     C57799  -0.747   6.289   6.109  0.6719  0.1953  0.2923
  429MOL0     C57800  -0.785   6.261   6.255 -0.2885 -0.0159  1.1547
  429MOL0     C57801  -0.907   6.176   6.282  0.3124  0.0072 -0.3692
  429MOL0     C57802  -0.919   6.139   6.432  0.1086 -0.9209  0.1172
  429MOL0     C57803  -1.024   6.032   6.465  0.3204  0.4773  0.0287
  429MOL0     O57804  -0.986   5.912   6.391 -0.0560  0.0766  0.2960
  429MOL0     C57805  -1.073   5.801   6.379  0.3547 -0.1186 -0.2627
  429MOL0     C57806  -1.029   5.719   6.277  1.7032  0.0549 -0.2545
  429MOL0     C57807  -1.097   5.600   6.244  0.8084  0.2457 -0.2009
  429MOL0     C57808  -1.038   5.519   6.138  0.1429  0.5396 -0.2388
  429MOL0     C57809  -1.230   5.578   6.303 -1.1988 -0.0047  0.6267
  429MOL0     C57810  -1.331   5.481   6.260  0.1107 -0.0846 -0.0311
  429MOL0     O57811  -1.449   5.479   6.337  0.0766 -0.2276  0.1355
  429MOL0     C57812  -1.560   5.448   6.262  1.1830 -0.1678 -0.2023
  429MOL0     C57813  -1.639   5.548   6.200 -0.2111  0.9524 -0.2276
  429MOL0     C57814  -1.755   5.517   6.131 -0.4102  0.6868  0.4311
  429MOL0     C57815  -1.784   5.382   6.112  0.1765  0.1782  0.3372
  429MOL0     O57816  -1.890   5.342   6.043  0.5020 -0.4450  0.1975
  429MOL0     C57817  -1.934   5.418   5.924  0.7521  0.3950 -0.0860
  429MOL0     C57818  -2.037   5.341   5.866  0.8469  0.0525 -0.4461
  429MOL0     C57819  -2.067   5.385   5.720  0.2841 -0.0221  0.1698
  429MOL0     C57820  -2.087   5.539   5.704 -0.1845 -0.2784 -0.1509
  429MOL0     C57821  -2.106   5.570   5.549  0.2451 -0.1202 -0.1691
  429MOL0     C57822  -2.077   5.721   5.530  0.4751 -0.3865  0.3918
  429MOL0     C57823  -2.118   5.758   5.383 -0.1809  0.1908  0.9565
  429MOL0     C57824  -2.050   5.888   5.337  1.0802 -0.3255  0.7774
  429MOL0    Cl57825  -2.113   6.033   5.433  0.0601  0.0385 -0.0176
  429MOL0     C57826  -1.711   5.284   6.176 -0.2725 -0.0313  1.2292
  429MOL0     C57827  -1.591   5.317   6.238  0.5008  0.9620 -0.8537
  429MOL0     O57828  -1.307   5.398   6.174 -0.3464  0.4776  0.2977
  429MOL0     C57829  -1.268   5.670   6.404  0.2075  0.1086 -0.6098
  429MOL0     C57830  -1.198   5.788   6.433  0.4989 -0.8771 -0.1934
  429MOL0     N57831  -0.622   6.270   6.045  0.5094 -0.3948  0.4783
  429MOL0     N57832  -0.622   6.313   5.917 -0.2542 -0.5813  0.1688
  429MOL0     C57833   0.082   6.199   5.500 -0.4738 -0.0213  0.2305
  429MOL0     C57834   0.212   6.191   5.460 -0.6352  0.7121  0.3349
  429MOL0     C57835   0.589   6.092   5.228 -0.0238 -0.1326 -0.0467
  429MOL0     C57836   0.670   6.008   5.297 -0.1199  0.4189 -0.0370
  429MOL0     C57837   0.811   5.998   5.268  0.0726 -0.4959 -0.1630
  429MOL0     C57838   0.862   6.067   5.157  0.2600  0.1339  0.8517
  429MOL0     O57839   0.991   6.035   5.127  0.1719 -0.0279 -0.4321
  429MOL0     C57840   1.048   6.109   5.019 -0.5245 -0.5822 -1.2185
  429MOL0     C57841   1.203   6.067   5.014 -0.4665  0.9162  0.3589
  429MOL0     C57842   1.284   6.091   5.138  0.0938  0.1089 -0.4051
  429MOL0     C57843   1.431   6.072   5.133 -0.6546  0.0270  0.2705
  429MOL0     C57844   1.486   6.103   5.271 -1.3583  0.2034  0.5513
  429MOL0     C57845   1.516   6.136   5.384  0.5237 -0.3753 -0.1688
  429MOL0     C57846   0.783   6.156   5.083 -0.4013  0.6431  0.1388
  429MOL0     C57847   0.651   6.165   5.117  0.7905  0.3181  0.0695
  429MOL0     H57848   0.208   5.876   5.335 -1.2165 -1.0444  0.0987
  429MOL0     H57849  -0.009   5.881   5.398  1.8511 -1.3686 -1.5852
  429MOL0     H57850  -0.142   6.235   5.668  1.3398 -2.9539  0.2812
  429MOL0     H57851  -0.198   6.296   5.516 -2.6916  0.0032  0.3328
  429MOL0     H57852  -0.335   6.086   5.679 -0.3222  0.1633 -1.8983
  429MOL0     H57853  -0.372   6.258   5.684 -1.1058 -0.3878  0.8123
  429MOL0     H57854  -0.432   6.263   5.447  0.1515  0.7039  0.0352
  429MOL0     H57855  -0.380   6.105   5.415  0.6972  1.7421 -0.4350
  429MOL0     H57856  -0.611   6.073   5.457  0.8746 -1.9842  1.3257
  429MOL0     H57857  -0.563   6.071   5.634  1.6304  1.5348  1.6782
  429MOL0     H57858  -0.579   6.301   5.659 -0.0114 -0.7728 -0.1626
  429MOL0     H57859  -0.657   6.320   5.489 -1.3471 -0.6234 -0.9387
  429MOL0     H57860  -0.834   6.164   5.568 -0.2407 -1.3659  0.0766
  429MOL0     H57861  -0.773   6.163   5.728 -4.9280  0.4413  0.1473
  429MOL0     H57862  -0.871   6.417   5.587  0.8285 -0.3175 -0.1962
  429MOL0     H57863  -0.957   6.339   5.711  0.0651  0.0794  0.0583
  429MOL0     H57864  -0.847   6.521   5.823  0.4325  0.8145 -0.8253
  429MOL0     H57865  -0.691   6.490   5.740 -0.2461  0.3121 -1.8674
  429MOL0     H57866  -0.930   6.368   6.022  0.0534 -2.4493  1.7900
  429MOL0     H57867  -0.695   6.217   6.299  0.4215 -1.8189 -1.7782
  429MOL0     H57868  -0.796   6.351   6.315 -3.4573 -0.7797  1.8799
  429MOL0     H57869  -0.899   6.088   6.218 -0.2260 -0.5460  0.3124
  429MOL0     H57870  -1.002   6.227   6.262 -0.2348 -0.6490  0.4669
  429MOL0     H57871  -0.937   6.234   6.482  3.6647  0.8908 -1.6680
  429MOL0     H57872  -0.819   6.105   6.462 -0.3805 -1.4490  1.2089
  429MOL0     H57873  -1.119   6.078   6.436  0.0559  0.5848  1.0304
  429MOL0     H57874  -1.037   6.017   6.572  2.8121  1.3541  0.5141
  429MOL0     H57875  -0.937   5.736   6.222 -0.1404  0.3154 -3.4883
  429MOL0     H57876  -0.930   5.536   6.145  0.1632 -0.0374  1.4447
  429MOL0     H57877  -1.058   5.412   6.148  1.0125  0.1688 -2.1326
  429MOL0     H57878  -1.073   5.543   6.038  0.1454  0.4178 -0.2691
  429MOL0     H57879  -1.612   5.651   6.218 -1.2253  1.7628 -2.8888
  429MOL0     H57880  -1.824   5.593   6.096  0.0390  1.4919  1.2779
  429MOL0     H57881  -1.971   5.518   5.947  0.1171  0.6727 -2.0747
  429MOL0     H57882  -1.852   5.411   5.852 -0.4566 -0.9231 -1.4079
  429MOL0     H57883  -1.998   5.239   5.855  2.4332  0.6532 -0.6018
  429MOL0     H57884  -2.128   5.349   5.927  1.3685 -0.3381  0.4070
  429MOL0     H57885  -2.160   5.337   5.688 -0.0705  0.7036  0.0865
  429MOL0     H57886  -1.998   5.344   5.646 -1.4990  0.3057 -1.7679
  429MOL0     H57887  -2.173   5.574   5.762 -2.2284 -1.6860 -2.1116
  429MOL0     H57888  -1.998   5.591   5.738  1.3340 -1.6524 -1.8073
  429MOL0     H57889  -2.211   5.547   5.532 -0.2112  1.4558  0.2924
  429MOL0     H57890  -2.025   5.509   5.508  1.3705  0.8963  0.4644
  429MOL0     H57891  -2.120   5.785   5.607  0.7118 -0.0076  0.2134
  429MOL0     H57892  -1.973   5.743   5.556 -0.5381  1.8844  3.0109
  429MOL0     H57893  -2.223   5.788   5.380  0.0284  0.8380 -1.4641
  429MOL0     H57894  -2.094   5.681   5.310  0.5464  0.0323  1.3542
  429MOL0     H57895  -2.075   5.906   5.232 -0.8717 -0.3062  1.2031
  429MOL0     H57896  -1.941   5.887   5.348  0.9702 -1.2051  1.9428
  429MOL0     H57897  -1.730   5.178   6.158 -0.4679  0.1153  0.5618
  429MOL0     H57898  -1.526   5.237   6.272  3.0685  3.1971 -0.1977
  429MOL0     H57899  -1.362   5.652   6.455  1.3366 -0.2565  1.4254
  429MOL0     H57900  -1.216   5.858   6.514  1.7198 -0.8659  0.0855
  429MOL0     H57901   0.047   6.290   5.548  2.2622  0.6482  1.2033
  429MOL0     H57902   0.292   6.263   5.471  1.3722 -1.0808 -1.4583
  429MOL0     H57903   0.646   5.935   5.374  0.8625 -3.5639 -3.1870
  429MOL0     H57904   0.864   5.915   5.314 -1.2614  0.2067  2.9259
  429MOL0     H57905   1.004   6.064   4.929 -3.4193 -1.1871  0.3671
  429MOL0     H57906   1.031   6.217   5.022 -0.2697 -0.4924  3.1613
  429MOL0     H57907   1.246   6.127   4.934 -1.5454 -0.6607 -1.5035
  429MOL0     H57908   1.203   5.961   4.985 -1.8044 -0.7453  5.2813
  429MOL0     H57909   1.254   6.019   5.215 -3.1172  1.3712 -0.3184
  429MOL0     H57910   1.248   6.187   5.178 -0.8977 -0.4450  0.0657
  429MOL0     H57911   1.464   6.131   5.047 -1.4296 -0.3350 -0.2933
  429MOL0     H57912   1.453   5.971   5.098  1.8388  0.2991  0.8417
  429MOL0     H57913   1.548   6.148   5.486 -0.7146  0.8168  0.1095
  429MOL0     H57914   0.810   6.212   4.994 -0.3035 -0.6870 -0.6842
  429MOL0     H57915   0.581   6.223   5.057 -0.6296 -0.3505  1.0385
  430MOL0     O57916   7.928   1.399   0.973 -0.2772  0.0885 -0.0175
  430MOL0     C57917   8.003   1.497   0.996 -0.7469 -0.3321 -0.0831
  430MOL0     O57918   7.952   1.622   1.018  0.1014 -0.1906  0.5248
  430MOL0     C57919   7.812   1.626   1.038  1.4957  0.0673  0.6797
  430MOL0     C57920   7.757   1.734   0.981  0.4776 -0.0423 -0.2935
  430MOL0     C57921   7.620   1.769   0.989  0.6890  0.2363 -0.6551
  430MOL0     C57922   7.530   1.682   1.056 -0.4060 -0.2195  0.5584
  430MOL0     O57923   7.398   1.729   1.058 -0.6374  0.7416 -0.1580
  430MOL0     C57924   7.311   1.674   1.157 -0.5607 -0.7330 -0.1625
  430MOL0     C57925   7.184   1.747   1.151  0.6767 -0.5192  0.2841
  430MOL0     C57926   7.118   1.697   1.282  0.1934 -0.6159  0.3345
  430MOL0     C57927   6.965   1.731   1.279  0.1908  0.2080  0.3302
  430MOL0     C57928   6.890   1.675   1.396 -0.2692 -0.8082  0.0054
  430MOL0     C57929   6.739   1.709   1.394  0.2475  0.1090 -0.2105
  430MOL0     C57930   6.673   1.663   1.529  0.6370  0.5774 -0.0659
  430MOL0     C57931   6.528   1.679   1.511  0.6320  0.5862  0.2573
  430MOL0     N57932   6.447   1.658   1.634  0.7065 -0.4277 -0.5834
  430MOL0     C57933   6.389   1.542   1.686 -0.0960  0.3305 -0.5769
  430MOL0     C57934   6.316   1.577   1.796 -0.1060  0.2214  0.0797
  430MOL0     C57935   6.226   1.488   1.883 -0.3739 -0.7118  0.1877
  430MOL0     C57936   6.081   1.498   1.853  0.0310  1.2974  1.1038
  430MOL0     C57937   6.002   1.381   1.907 -1.0225  0.2409  0.6131
  430MOL0     C57938   5.853   1.423   1.930 -0.1565  0.2522  0.5404
  430MOL0     O57939   5.785   1.432   1.806 -0.0474  1.0109 -0.2212
  430MOL0     C57940   5.647   1.427   1.805  0.5318 -0.3007  0.2423
  430MOL0     C57941   5.580   1.439   1.682 -0.5866  0.4142 -0.7541
  430MOL0     C57942   5.440   1.431   1.676 -0.0748  0.7552  0.4605
  430MOL0     C57943   5.391   1.466   1.532 -0.4135  0.3314  0.7110
  430MOL0     C57944   5.360   1.420   1.790  0.5147  1.0667  0.9025
  430MOL0     C57945   5.209   1.434   1.788 -0.1146  0.4448 -0.2377
  430MOL0     O57946   5.145   1.389   1.674 -0.2594 -0.1735  0.2990
  430MOL0     C57947   5.010   1.402   1.681 -1.0300 -0.2654 -0.6118
  430MOL0     C57948   4.956   1.494   1.589 -0.5360  0.0343 -0.3962
  430MOL0     C57949   4.816   1.519   1.598 -0.6382 -0.5450  0.4607
  430MOL0     C57950   4.730   1.458   1.687 -0.1138  0.7639  0.4549
  430MOL0     O57951   4.597   1.492   1.687 -0.4072  0.2273 -0.5327
  430MOL0     C57952   4.506   1.413   1.768 -0.5114 -0.5687 -0.4065
  430MOL0     C57953   4.368   1.427   1.696 -0.3760  0.8793 -0.2640
  430MOL0     C57954   4.289   1.289   1.688  0.1471  0.2333 -0.3845
  430MOL0     C57955   4.155   1.309   1.614  0.0992 -0.5292 -0.4323
  430MOL0     C57956   4.056   1.192   1.635  1.1067  0.1144 -0.3751
  430MOL0     C57957   4.117   1.062   1.583  0.9383  0.8527 -0.8773
  430MOL0     C57958   4.012   0.955   1.558 -0.3697  0.0720 -0.9693
  430MOL0     C57959   4.085   0.819   1.523  0.7723  0.3550 -0.0040
  430MOL0    Cl57960   4.139   0.810   1.353  0.1152  0.2575 -0.0347
  430MOL0     C57961   4.792   1.377   1.780  0.4880  0.5091  0.0043
  430MOL0     C57962   4.927   1.338   1.771 -0.0141  0.5344 -0.7477
  430MOL0     O57963   5.152   1.470   1.886  0.7828  0.4620  0.0322
  430MOL0     C57964   5.422   1.402   1.915  0.9233  0.6916  0.3908
  430MOL0     C57965   5.558   1.418   1.924 -0.5773 -0.1048  0.5195
  430MOL0     N57966   6.338   1.710   1.813 -0.4554  0.4711  0.5762
  430MOL0     N57967   6.411   1.759   1.719  0.0918  0.1100  0.4434
  430MOL0     C57968   7.580   1.567   1.121  0.5791 -0.0750 -0.1467
  430MOL0     C57969   7.714   1.539   1.105 -0.5698 -0.5837 -0.3711
  430MOL0     C57970   8.148   1.477   0.976 -0.4238  0.4839  0.1148
  430MOL0     C57971   8.216   1.357   0.960  0.7063  0.3229 -0.0212
  430MOL0     C57972   8.353   1.348   0.925 -0.6635 -0.1028 -0.4996
  430MOL0     C57973   8.427   1.467   0.911 -0.3724 -0.5513  0.7394
  430MOL0     O57974   8.544   1.463   0.845  0.0445  0.0103  0.1151
  430MOL0     C57975   8.610   1.570   0.775  0.9455 -0.1902 -0.7153
  430MOL0     C57976   8.733   1.539   0.696 -0.6217  0.1548 -0.2145
  430MOL0     C57977   8.840   1.461   0.782 -0.3673 -0.3525  0.2079
  430MOL0     C57978   8.930   1.373   0.687  0.3154 -0.2715  0.7369
  430MOL0     C57979   9.049   1.323   0.752 -0.2002  1.3543 -0.2404
  430MOL0     C57980   9.152   1.287   0.808  0.1071  1.1096 -0.1413
  430MOL0     C57981   8.356   1.583   0.928 -0.7349 -0.4103  0.6574
  430MOL0     C57982   8.223   1.591   0.957 -0.0587  0.3081  0.0055
  430MOL0     H57983   7.825   1.803   0.933 -0.5178  0.6918 -0.6781
  430MOL0     H57984   7.580   1.862   0.949  0.5178  0.4636  0.0369
  430MOL0     H57985   7.296   1.568   1.138 -3.6780 -0.3217 -0.5318
  430MOL0     H57986   7.354   1.692   1.256  0.2956 -0.2400 -0.6086
  430MOL0     H57987   7.207   1.854   1.145  0.0196 -0.3998 -0.2199
  430MOL0     H57988   7.125   1.712   1.066  1.4378  1.2371 -1.0359
  430MOL0     H57989   7.142   1.592   1.298 -1.8463 -1.0987  0.3839
  430MOL0     H57990   7.165   1.736   1.373  0.3191 -1.6571  0.7228
  430MOL0     H57991   6.951   1.840   1.274  2.4351  0.4839 -2.5107
  430MOL0     H57992   6.923   1.692   1.186 -1.0716 -0.5624  1.1942
  430MOL0     H57993   6.901   1.566   1.394 -0.9518 -0.8839 -1.8403
  430MOL0     H57994   6.933   1.712   1.489  2.2018  1.9770 -2.0553
  430MOL0     H57995   6.719   1.816   1.382 -0.3273  0.2178  1.3735
  430MOL0     H57996   6.694   1.651   1.313 -1.2579  0.3016  0.4552
  430MOL0     H57997   6.702   1.561   1.557  1.0557  0.6196 -0.3379
  430MOL0     H57998   6.710   1.708   1.622 -0.8315 -2.5229  2.2484
  430MOL0     H57999   6.489   1.613   1.433 -0.5511  1.9907 -0.3886
  430MOL0     H58000   6.506   1.779   1.472  1.1225  0.4222 -0.4651
  430MOL0     H58001   6.399   1.444   1.641  0.4053 -0.9434  2.0967
  430MOL0     H58002   6.249   1.382   1.869 -1.9193 -1.1416  0.7533
  430MOL0     H58003   6.241   1.519   1.987 -2.2342  1.2899 -0.0552
  430MOL0     H58004   6.080   1.501   1.743  3.6373 -0.0950  0.8900
  430MOL0     H58005   6.040   1.586   1.903  0.6144  1.8211  0.6786
  430MOL0     H58006   6.042   1.348   2.003 -1.0214 -1.5682  0.0153
  430MOL0     H58007   5.995   1.292   1.844 -0.9971  0.1440  0.7474
  430MOL0     H58008   5.832   1.514   1.987  0.3048  2.2521 -2.2888
  430MOL0     H58009   5.812   1.345   1.996  0.5129  0.1571  0.8541
  430MOL0     H58010   5.634   1.440   1.588 -3.5291  1.6408 -2.5557
  430MOL0     H58011   5.473   1.455   1.460  0.1061 -0.3004  1.3779
  430MOL0     H58012   5.320   1.388   1.499 -1.6772  0.9402  1.8993
  430MOL0     H58013   5.355   1.568   1.524  0.9051  0.6561 -4.1893
  430MOL0     H58014   5.015   1.545   1.515 -2.0802  2.5451 -0.0097
  430MOL0     H58015   4.760   1.584   1.530 -0.0124  3.2705  3.2680
  430MOL0     H58016   4.538   1.310   1.785 -1.2564 -0.2393  5.0288
  430MOL0     H58017   4.497   1.451   1.871  1.2665 -0.3909 -0.2947
  430MOL0     H58018   4.307   1.494   1.758  0.8460  1.0462  0.7883
  430MOL0     H58019   4.385   1.465   1.595  1.3033  0.4893 -0.1438
  430MOL0     H58020   4.271   1.249   1.788 -4.7217  0.1082 -1.0913
  430MOL0     H58021   4.349   1.218   1.630 -1.9944  0.2141 -2.7337
  430MOL0     H58022   4.113   1.401   1.655  0.3207  0.4500 -2.2913
  430MOL0     H58023   4.175   1.332   1.509 -1.3608  0.5588 -0.4988
  430MOL0     H58024   3.964   1.219   1.583  0.7269 -1.3071 -0.4785
  430MOL0     H58025   4.023   1.191   1.739 -1.1234  0.5285 -1.0232
  430MOL0     H58026   4.166   1.071   1.485  2.7756  0.3665 -0.0640
  430MOL0     H58027   4.192   1.019   1.651 -2.0130 -2.3479  0.6664
  430MOL0     H58028   3.943   0.980   1.476 -1.7224  1.6391  0.5559
  430MOL0     H58029   3.957   0.944   1.652  3.3605  1.7988  1.6469
  430MOL0     H58030   4.012   0.739   1.538  1.1027  0.2461  1.1481
  430MOL0     H58031   4.170   0.806   1.591  1.4755  3.0718 -0.2264
  430MOL0     H58032   4.726   1.340   1.858 -0.0126  2.1050  0.3774
  430MOL0     H58033   4.973   1.274   1.846 -0.9573 -0.5595 -1.0772
  430MOL0     H58034   5.371   1.378   2.007 -1.1317 -0.4264 -0.9626
  430MOL0     H58035   5.607   1.413   2.021 -1.1904  1.1468  0.9033
  430MOL0     H58036   7.511   1.499   1.170  1.4298  0.1448  1.4209
  430MOL0     H58037   7.746   1.450   1.160 -4.2214 -1.8754 -0.0637
  430MOL0     H58038   8.171   1.259   0.975  1.7506 -0.0903  0.5021
  430MOL0     H58039   8.397   1.249   0.911 -0.0640 -0.0033  0.6316
  430MOL0     H58040   8.543   1.623   0.707 -0.8953 -2.6764 -1.0067
  430MOL0     H58041   8.644   1.633   0.857  1.4629 -0.2693 -0.8664
  430MOL0     H58042   8.777   1.629   0.651  3.1310 -0.7128  1.2644
  430MOL0     H58043   8.696   1.462   0.628 -0.8323 -0.6064  0.7420
  430MOL0     H58044   8.781   1.398   0.849 -3.6090  1.1918 -0.9733
  430MOL0     H58045   8.902   1.535   0.835 -1.0137  0.9017 -0.7339
  430MOL0     H58046   8.965   1.436   0.604  0.1450  0.1368  0.9704
  430MOL0     H58047   8.872   1.295   0.637  0.4174  0.7230 -1.0346
  430MOL0     H58048   9.240   1.243   0.850  0.0281  0.5277 -0.5648
  430MOL0     H58049   8.403   1.677   0.899  0.2689 -1.0988 -0.0140
  430MOL0     H58050   8.184   1.691   0.971  1.7980  0.8729  1.6217
  431MOL0     O58051   4.245  11.064  10.909 -0.0004 -0.4886  1.4256
  431MOL0     C58052   4.353  11.047  10.851 -0.4905  0.2769  0.3357
  431MOL0     O58053   4.354  10.984  10.730 -0.0816 -0.3143 -0.1007
  431MOL0     C58054   4.240  10.932  10.669 -0.8047  0.3132  0.1664
  431MOL0     C58055   4.214  10.976  10.537  0.2672  0.4091 -0.0852
  431MOL0     C58056   4.097  10.923  10.469 -0.6905 -0.0029  0.3573
  431MOL0     C58057   4.009  10.848  10.534 -0.4924 -0.3573 -0.5886
  431MOL0     O58058   3.892  10.813  10.481  0.4966  0.3362  0.3842
  431MOL0     C58059   3.821  10.925  10.434  1.2441 -0.6724  0.3147
  431MOL0     C58060   3.677  10.886  10.421  0.2486  0.7650 -0.0800
  431MOL0     C58061   3.658  10.778  10.305  0.2260  0.0666  0.1812
  431MOL0     C58062   3.501  10.774  10.282 -1.1354  0.3669  0.2698
  431MOL0     C58063   3.454  10.695  10.157 -0.4505  0.2594  0.3829
  431MOL0     C58064   3.474  10.797  10.040  1.0649 -0.0120 -0.0723
  431MOL0     C58065   3.442  10.719   9.910 -0.7680 -1.0635  0.6247
  431MOL0     C58066   3.489  10.793   9.789  0.7244 -0.7434 -0.6682
  431MOL0     N58067   3.395  10.903   9.742  0.0756  0.3092 -0.5615
  431MOL0     C58068   3.276  10.890   9.682  0.1253  0.6581  0.0350
  431MOL0     C58069   3.240  11.015   9.646  0.1261 -0.9506 -0.7485
  431MOL0     C58070   3.102  11.039   9.592  0.0917  0.5372  0.2509
  431MOL0     C58071   3.047  11.185   9.603  0.4273 -0.4811  0.0435
  431MOL0     C58072   2.918  11.199   9.523 -0.3642  0.0216 -0.2506
  431MOL0     C58073   2.840  11.329   9.546  0.1645  0.2006  0.2213
  431MOL0     O58074   2.768  11.319   9.675 -0.4773  0.0298 -0.4881
  431MOL0     C58075   2.668  11.407   9.690 -0.3968 -0.3571 -0.3044
  431MOL0     C58076   2.543  11.350   9.726 -0.3780 -0.3668 -0.0274
  431MOL0     C58077   2.425  11.417   9.721 -0.4873 -0.1282 -0.1980
  431MOL0     C58078   2.303  11.343   9.738  0.1138  0.5025  0.1911
  431MOL0     C58079   2.422  11.552   9.678  0.0581 -0.5783 -0.1645
  431MOL0     C58080   2.297  11.627   9.649 -0.3263  0.7285  0.2637
  431MOL0     O58081   2.288  11.754   9.701  0.4907  0.3940 -0.1687
  431MOL0     C58082   2.165  11.820   9.688 -0.2342 -0.5165 -0.6646
  431MOL0     C58083   2.126  11.868   9.563  0.1579  0.7000 -0.0982
  431MOL0     C58084   2.011  11.942   9.554 -0.0731  0.4064 -0.4151
  431MOL0     C58085   1.931  11.974   9.666 -1.2392  0.2333 -0.3964
  431MOL0     O58086   1.811  12.031   9.652 -0.0069  0.0471 -0.0080
  431MOL0     C58087   1.830  12.148   9.578 -0.1108  0.4514  1.0239
  431MOL0     C58088   1.748  12.248   9.644  0.1423  0.6752  0.2651
  431MOL0     C58089   1.765  12.390   9.585  0.1936 -0.2585 -0.4775
  431MOL0     C58090   1.660  12.490   9.638  0.2903  0.1954 -0.0472
  431MOL0     C58091   1.657  12.623   9.566 -0.2512  0.5607  0.2411
  431MOL0     C58092   1.796  12.699   9.568 -1.0380  0.5735  0.5239
  431MOL0     C58093   1.773  12.845   9.509 -0.4503  0.2155 -0.1399
  431MOL0     C58094   1.911  12.920   9.495 -0.3723 -0.0284 -0.2863
  431MOL0    Cl58095   2.004  12.820   9.375 -0.1188  0.1332 -0.0253
  431MOL0     C58096   1.972  11.924   9.797 -0.0692  0.7471  0.7206
  431MOL0     C58097   2.088  11.847   9.807  0.4558 -0.2902 -0.4487
  431MOL0     O58098   2.210  11.571   9.581 -0.3652 -0.8432  0.4416
  431MOL0     C58099   2.544  11.614   9.642  0.1737 -0.2770 -0.3852
  431MOL0     C58100   2.668  11.539   9.651 -1.0393 -0.0654  0.9407
  431MOL0     N58101   3.328  11.110   9.698  0.1276  0.5284 -0.0778
  431MOL0     N58102   3.429  11.041   9.745 -0.5740  0.7173  0.4293
  431MOL0     C58103   4.042  10.811  10.667  0.4034 -0.8259  0.4034
  431MOL0     C58104   4.161  10.846  10.731  0.3024  0.4446 -0.7841
  431MOL0     C58105   4.472  11.104  10.911 -0.6554 -0.0552  0.6743
  431MOL0     C58106   4.599  11.090  10.851  1.3960 -0.9068 -0.7035
  431MOL0     C58107   4.708  11.157  10.895  1.2100  0.4852  0.7051
  431MOL0     C58108   4.703  11.242  11.003 -0.6152 -0.3373  0.7511
  431MOL0     O58109   4.805  11.312  11.061  0.1942 -0.1241  0.3197
  431MOL0     C58110   4.935  11.265  11.054 -0.9815 -0.3173  0.7087
  431MOL0     C58111   4.951  11.123  11.109 -0.0366  0.1358  0.0053
  431MOL0     C58112   5.101  11.101  11.128  0.1513 -0.0239  0.5486
  431MOL0     C58113   5.136  10.963  11.174  0.0833 -0.6641  0.0892
  431MOL0     C58114   5.286  10.946  11.170  0.1997  0.0344  0.3230
  431MOL0     C58115   5.407  10.927  11.167 -0.2248  1.2955 -0.4758
  431MOL0     C58116   4.574  11.256  11.066 -0.1547 -0.7243 -0.7536
  431MOL0     C58117   4.461  11.186  11.022  0.4660  0.1195  0.3531
  431MOL0     H58118   4.295  11.028  10.488 -0.4837  0.6146 -1.1385
  431MOL0     H58119   4.087  10.928  10.361  2.7045 -0.8273 -0.1163
  431MOL0     H58120   3.831  11.014  10.498 -0.1204 -0.0256 -0.3205
  431MOL0     H58121   3.848  10.960  10.333 -0.0043  0.1076  0.2274
  431MOL0     H58122   3.639  10.848  10.516  1.0851 -2.6681 -0.9658
  431MOL0     H58123   3.616  10.972  10.395  0.2056  1.5267  2.3403
  431MOL0     H58124   3.703  10.814  10.212  0.9100 -1.3533 -0.0690
  431MOL0     H58125   3.695  10.677  10.329 -0.1264  0.4840  2.7643
  431MOL0     H58126   3.460  10.729  10.373 -0.6489  0.7586  0.6900
  431MOL0     H58127   3.461  10.876  10.285 -1.0165  0.4358 -0.2829
  431MOL0     H58128   3.504  10.598  10.149 -0.1914  0.4559 -0.4921
  431MOL0     H58129   3.347  10.680  10.169 -0.5160  0.3343 -0.1137
  431MOL0     H58130   3.408  10.884  10.047  2.2323  1.3570 -3.5893
  431MOL0     H58131   3.577  10.834  10.042  1.2028 -0.3806  2.3681
  431MOL0     H58132   3.512  10.635   9.918 -1.6740 -2.3630 -2.9482
  431MOL0     H58133   3.339  10.693   9.883 -0.4192 -0.5692 -1.3431
  431MOL0     H58134   3.490  10.718   9.709  1.1648 -2.7213  1.1155
  431MOL0     H58135   3.588  10.839   9.793  0.1537  1.1020 -3.8598
  431MOL0     H58136   3.217  10.799   9.671 -1.3313  1.6424 -0.5083
  431MOL0     H58137   3.109  11.014   9.485 -0.8374 -1.1536  0.5374
  431MOL0     H58138   3.034  10.968   9.642 -0.7747 -1.1316 -2.9900
  431MOL0     H58139   3.120  11.258   9.568  0.3967  2.3850  5.0614
  431MOL0     H58140   3.027  11.220   9.705 -1.1345  2.3090 -1.0846
  431MOL0     H58141   2.849  11.114   9.535  2.2812 -2.3286 -0.8012
  431MOL0     H58142   2.959  11.210   9.423  0.9501 -1.0651  0.1388
  431MOL0     H58143   2.773  11.333   9.459  1.2989 -1.9126 -0.8279
  431MOL0     H58144   2.914  11.409   9.539  1.6767 -1.2482 -1.5371
  431MOL0     H58145   2.542  11.241   9.726 -1.3830 -0.3837  1.2160
  431MOL0     H58146   2.257  11.317   9.642  2.0818 -0.9239 -0.4404
  431MOL0     H58147   2.330  11.248   9.785 -1.4234  0.5418  1.2370
  431MOL0     H58148   2.231  11.395   9.801  1.2184 -0.3970  2.2808
  431MOL0     H58149   2.193  11.845   9.480  1.6415 -3.0834  1.9339
  431MOL0     H58150   1.983  11.973   9.454  1.3724  1.6276 -0.4850
  431MOL0     H58151   1.933  12.184   9.568 -0.1275 -0.0671 -6.3162
  431MOL0     H58152   1.793  12.130   9.477 -1.1253 -0.3309  1.5112
  431MOL0     H58153   1.643  12.217   9.635  1.1311 -2.2883 -5.1280
  431MOL0     H58154   1.773  12.258   9.749 -0.5882  0.4705  0.4695
  431MOL0     H58155   1.768  12.393   9.476  2.4201  1.1392 -0.4481
  431MOL0     H58156   1.865  12.416   9.622  1.1970 -3.2478 -0.8451
  431MOL0     H58157   1.560  12.447   9.646  0.2011  0.0883 -1.5000
  431MOL0     H58158   1.690  12.523   9.738 -0.3852 -2.6636  1.2011
  431MOL0     H58159   1.576  12.682   9.611 -0.6088 -1.3008  2.2373
  431MOL0     H58160   1.628  12.588   9.467 -0.8024 -1.3231  1.0276
  431MOL0     H58161   1.834  12.715   9.669 -2.9479 -0.0699  1.3813
  431MOL0     H58162   1.870  12.641   9.512  0.7935  1.1687  2.2268
  431MOL0     H58163   1.696  12.893   9.569 -2.2403 -1.6795 -0.7751
  431MOL0     H58164   1.746  12.834   9.404  3.7937 -2.1099 -1.2272
  431MOL0     H58165   1.967  12.924   9.588 -0.8046 -3.5044  0.2389
  431MOL0     H58166   1.884  13.021   9.461 -0.5129  0.4117  1.0590
  431MOL0     H58167   1.922  11.944   9.892  0.6529 -0.4401  1.3729
  431MOL0     H58168   2.115  11.812   9.906  0.1962  1.5990  0.3212
  431MOL0     H58169   2.540  11.713   9.598  0.5437 -0.2630 -0.3914
  431MOL0     H58170   2.757  11.586   9.608 -2.7866  1.7995 -0.8868
  431MOL0     H58171   3.976  10.737  10.711 -1.3560 -0.2210 -1.1331
  431MOL0     H58172   4.185  10.813  10.831 -0.9328 -1.2025 -0.9889
  431MOL0     H58173   4.593  11.026  10.763  1.1733  0.9160 -2.0742
  431MOL0     H58174   4.797  11.135  10.838 -0.4018 -2.8956 -0.7522
  431MOL0     H58175   4.960  11.264  10.947 -0.0510  1.9651  0.8578
  431MOL0     H58176   5.005  11.334  11.102  3.5065 -1.9845 -2.6437
  431MOL0     H58177   4.915  11.053  11.033 -0.0357 -0.1017  0.2220
  431MOL0     H58178   4.897  11.105  11.202  1.6386 -0.3461  0.9188
  431MOL0     H58179   5.151  11.159  11.207  3.9031 -1.2510 -0.7377
  431MOL0     H58180   5.151  11.127  11.035 -0.8422  0.2588  0.0848
  431MOL0     H58181   5.100  10.895  11.097 -2.3015  2.2802 -1.6164
  431MOL0     H58182   5.087  10.948  11.271 -1.4059 -0.7927 -0.6594
  431MOL0     H58183   5.513  10.917  11.158 -0.0040  0.3236  2.2719
  431MOL0     H58184   4.574  11.318  11.156 -0.7667 -0.2612 -1.0609
  431MOL0     H58185   4.365  11.194  11.073  0.0131  3.1304 -0.7883
  432MOL0     O58186   5.125   9.399   1.827 -0.1310 -0.0643  0.9000
  432MOL0     C58187   5.114   9.507   1.889  0.0618  0.2121  0.0743
  432MOL0     O58188   4.998   9.553   1.945  0.7788 -0.2070  0.4430
  432MOL0     C58189   4.894   9.464   1.940  0.0067  1.3533  0.1110
  432MOL0     C58190   4.905   9.332   1.982 -0.4338 -0.6617  0.3793
  432MOL0     C58191   4.794   9.246   1.972  0.5446  0.2687 -0.1050
  432MOL0     C58192   4.668   9.284   1.926 -0.9603 -0.4252  0.4110
  432MOL0     O58193   4.565   9.195   1.927  0.1624 -0.1467 -0.2726
  432MOL0     C58194   4.444   9.229   1.852 -0.5552  0.1427 -0.6760
  432MOL0     C58195   4.349   9.283   1.951 -0.8731 -0.1807 -0.5683
  432MOL0     C58196   4.210   9.323   1.886 -0.2026  0.8910  0.9896
  432MOL0     C58197   4.098   9.334   1.994  0.5113  0.4555 -0.0003
  432MOL0     C58198   3.956   9.284   1.960 -1.0655  0.2153 -0.7716
  432MOL0     C58199   3.900   9.359   1.840  0.4880  0.7082 -0.8776
  432MOL0     C58200   3.748   9.382   1.859 -0.5366  0.6191  1.2600
  432MOL0     C58201   3.674   9.247   1.869 -0.1085  1.0912  0.0288
  432MOL0     N58202   3.544   9.287   1.908  0.0568  0.0183 -0.4724
  432MOL0     C58203   3.491   9.288   2.031 -0.0679 -0.0265 -0.1450
  432MOL0     C58204   3.362   9.337   2.016 -1.2447 -0.5763 -0.5722
  432MOL0     C58205   3.263   9.334   2.129 -0.9004  0.1479 -0.4130
  432MOL0     C58206   3.116   9.323   2.084 -0.4877  0.0766 -0.1017
  432MOL0     C58207   3.071   9.182   2.021  0.2224 -0.2798 -0.5822
  432MOL0     C58208   2.923   9.177   1.993  0.3491  0.0362  0.0339
  432MOL0     O58209   2.886   9.044   1.955  0.0328 -0.3774  0.3353
  432MOL0     C58210   2.752   9.016   1.952  0.9147  0.8596 -0.7299
  432MOL0     C58211   2.719   8.877   1.964 -0.5305 -0.6357 -0.2452
  432MOL0     C58212   2.593   8.827   1.954  0.1548  0.2024  0.3590
  432MOL0     C58213   2.572   8.683   1.949 -0.0497 -0.0605  0.0141
  432MOL0     C58214   2.484   8.923   1.931  1.1533 -0.1182  0.8386
  432MOL0     C58215   2.339   8.891   1.902  0.3777  1.0486 -0.0127
  432MOL0     O58216   2.256   9.003   1.881  0.1039  0.7464  0.3867
  432MOL0     C58217   2.121   8.980   1.869 -0.2028 -0.7135 -0.4085
  432MOL0     C58218   2.042   8.990   1.989 -0.1893  0.7044 -0.0046
  432MOL0     C58219   1.904   8.973   1.974 -0.6022 -0.7354 -0.4565
  432MOL0     C58220   1.844   8.946   1.851  0.0558 -0.8707 -0.2184
  432MOL0     O58221   1.709   8.907   1.841 -0.5878 -0.0623  0.8850
  432MOL0     C58222   1.636   8.882   1.957  0.3892 -0.0558  0.4038
  432MOL0     C58223   1.507   8.801   1.920 -0.2622  0.0248  0.3099
  432MOL0     C58224   1.388   8.821   2.023 -0.4820 -0.4307  0.0591
  432MOL0     C58225   1.258   8.807   1.946  0.7927 -0.5028  0.2213
  432MOL0     C58226   1.154   8.761   2.042  0.0755  0.1005  1.1042
  432MOL0     C58227   1.020   8.762   1.969  0.9201  0.4776  0.2920
  432MOL0     C58228   0.905   8.723   2.057  0.6141  0.8870 -0.2231
  432MOL0     C58229   0.767   8.740   1.995  0.2353 -0.1917 -0.4371
  432MOL0    Cl58230   0.626   8.722   2.109 -0.5649  0.0442 -0.3728
  432MOL0     C58231   1.919   8.944   1.743  0.4536  0.8687  0.0070
  432MOL0     C58232   2.063   8.965   1.740 -0.7600 -0.2033 -0.5251
  432MOL0     O58233   2.301   8.775   1.900 -0.1747  0.3262 -0.1527
  432MOL0     C58234   2.513   9.059   1.924  0.0050 -0.4788  0.4793
  432MOL0     C58235   2.645   9.104   1.920  0.0613 -0.4080  0.7534
  432MOL0     N58236   3.344   9.385   1.883  0.5619  0.1474  0.2002
  432MOL0     N58237   3.450   9.352   1.821 -0.7625 -0.1786  0.8192
  432MOL0     C58238   4.661   9.416   1.873  0.7084 -0.4628  0.5662
  432MOL0     C58239   4.772   9.501   1.889  0.2154 -0.0712 -0.6334
  432MOL0     C58240   5.234   9.593   1.911 -0.6341  0.4568 -0.6444
  432MOL0     C58241   5.345   9.586   1.826  0.6269  0.3028 -0.6942
  432MOL0     C58242   5.451   9.675   1.842  0.2596 -0.5366  0.1376
  432MOL0     C58243   5.456   9.771   1.936 -0.4095 -0.0204 -0.3056
  432MOL0     O58244   5.558   9.864   1.955 -0.8224  0.9126 -0.1329
  432MOL0     C58245   5.661   9.861   1.865  0.5329 -0.3319  0.1862
  432MOL0     C58246   5.744   9.988   1.861  0.0955 -0.4541 -0.3564
  432MOL0     C58247   5.833   9.982   1.989  0.0517 -0.4106  0.8696
  432MOL0     C58248   5.963  10.060   1.968 -0.7100 -1.7585 -0.7537
  432MOL0     C58249   6.055  10.001   1.868  1.0577  1.1749  0.6683
  432MOL0     C58250   6.131   9.946   1.785 -0.3400  0.3006 -0.2504
  432MOL0     C58251   5.352   9.766   2.035  0.3168 -0.4134 -0.8250
  432MOL0     C58252   5.234   9.690   2.016 -0.1562  0.1100 -0.5188
  432MOL0     H58253   4.993   9.291   2.031  0.5890 -2.4625 -2.6962
  432MOL0     H58254   4.799   9.142   2.002  0.7651  0.0508 -0.8776
  432MOL0     H58255   4.451   9.296   1.766 -2.2332 -1.6267 -2.3238
  432MOL0     H58256   4.401   9.131   1.826 -0.6220  0.3316 -1.2948
  432MOL0     H58257   4.335   9.206   2.027 -1.8710  0.3486 -0.1840
  432MOL0     H58258   4.406   9.366   1.994  2.2171 -2.4845  0.1069
  432MOL0     H58259   4.225   9.414   1.827  3.0627 -0.5763 -0.7222
  432MOL0     H58260   4.186   9.242   1.816  0.2874 -1.7608  3.6575
  432MOL0     H58261   4.128   9.279   2.084 -1.0350 -1.9197 -0.8390
  432MOL0     H58262   4.081   9.439   2.019 -0.0103  0.2584  0.4923
  432MOL0     H58263   3.951   9.177   1.939 -2.1795  0.3193 -1.0851
  432MOL0     H58264   3.905   9.309   2.053  3.4332  2.5013  1.4059
  432MOL0     H58265   3.942   9.460   1.835 -0.3729  1.0439 -1.6508
  432MOL0     H58266   3.932   9.308   1.748  0.4001  1.3623 -1.2788
  432MOL0     H58267   3.727   9.454   1.939  1.9649  0.4318  2.1688
  432MOL0     H58268   3.707   9.420   1.764  0.6650 -2.1500 -0.4892
  432MOL0     H58269   3.699   9.186   1.957 -1.1754  0.5339 -0.0485
  432MOL0     H58270   3.680   9.188   1.777 -2.0398  1.0712 -0.1042
  432MOL0     H58271   3.530   9.256   2.127  0.6958 -0.3785 -0.5668
  432MOL0     H58272   3.292   9.253   2.196  0.7568  1.5721  0.6717
  432MOL0     H58273   3.273   9.422   2.194  1.9764 -0.6030  0.2922
  432MOL0     H58274   3.099   9.407   2.017 -0.0802  0.0839 -0.2004
  432MOL0     H58275   3.059   9.352   2.173 -0.0346  0.1379  0.1732
  432MOL0     H58276   3.099   9.100   2.088 -2.6682 -1.8448 -1.1582
  432MOL0     H58277   3.130   9.180   1.929  2.0992  2.8365  0.4001
  432MOL0     H58278   2.910   9.246   1.909  0.2970 -2.0789 -1.7998
  432MOL0     H58279   2.860   9.205   2.077 -1.6027 -2.8804 -0.2971
  432MOL0     H58280   2.793   8.803   1.993 -2.2076 -1.9558  0.8850
  432MOL0     H58281   2.496   8.656   2.023 -0.8157 -0.6223 -0.9475
  432MOL0     H58282   2.540   8.647   1.851 -0.7008 -1.4290  0.7082
  432MOL0     H58283   2.665   8.634   1.980 -0.5802  0.1279  2.1105
  432MOL0     H58284   2.090   9.015   2.083  0.0830  2.8648 -0.6756
  432MOL0     H58285   1.843   8.983   2.063  1.0788  0.5416  0.6333
  432MOL0     H58286   1.689   8.813   2.023 -2.0193 -1.2557  1.2274
  432MOL0     H58287   1.613   8.977   2.007  1.1114  0.7104 -0.6840
  432MOL0     H58288   1.480   8.853   1.827  2.7335  4.2088  1.4787
  432MOL0     H58289   1.529   8.696   1.898 -1.3967  0.2059 -1.9712
  432MOL0     H58290   1.400   8.920   2.069  3.1281 -0.6409 -0.1640
  432MOL0     H58291   1.391   8.748   2.104 -0.0866  0.2099  0.6269
  432MOL0     H58292   1.237   8.909   1.914 -2.8683 -2.0386 -3.0190
  432MOL0     H58293   1.259   8.745   1.856  0.9232  0.3881 -0.4066
  432MOL0     H58294   1.159   8.840   2.118 -0.2076  2.2914 -1.0346
  432MOL0     H58295   1.186   8.667   2.086  0.5760 -0.3641 -0.2069
  432MOL0     H58296   0.999   8.865   1.938 -1.6139 -0.2700 -0.7152
  432MOL0     H58297   1.022   8.690   1.887  1.7484 -1.0276  1.5930
  432MOL0     H58298   0.915   8.791   2.143  4.9100 -1.1944  1.2025
  432MOL0     H58299   0.917   8.617   2.082 -2.5214  1.1375  3.3030
  432MOL0     H58300   0.761   8.669   1.912 -1.4587 -2.3753  1.4356
  432MOL0     H58301   0.766   8.844   1.958  2.6319 -0.4687 -1.4300
  432MOL0     H58302   1.869   8.929   1.648 -0.5183  1.0631  0.4706
  432MOL0     H58303   2.120   8.953   1.649 -0.3459 -1.9253 -0.0765
  432MOL0     H58304   2.437   9.135   1.908 -0.9430 -0.7635  3.1039
  432MOL0     H58305   2.666   9.208   1.898  1.7059 -0.7811  0.4252
  432MOL0     H58306   4.573   9.459   1.827 -0.7507 -3.6238  0.1321
  432MOL0     H58307   4.768   9.606   1.862  0.4715  1.0366  3.0910
  432MOL0     H58308   5.332   9.515   1.745 -0.5137 -1.1282  0.6669
  432MOL0     H58309   5.521   9.667   1.759  1.2199  0.7776  0.7822
  432MOL0     H58310   5.722   9.776   1.898  0.8658  1.0856  3.6212
  432MOL0     H58311   5.616   9.849   1.766  1.4930 -2.1671 -0.0718
  432MOL0     H58312   5.680  10.076   1.866  0.7674 -0.0408  1.8393
  432MOL0     H58313   5.803   9.999   1.769  1.2787  1.3656  0.5660
  432MOL0     H58314   5.851   9.879   2.019  2.9635 -0.5006 -0.8055
  432MOL0     H58315   5.774  10.038   2.062  1.3027  1.5470  0.4679
  432MOL0     H58316   6.014  10.061   2.064  1.0855  2.8612 -1.5024
  432MOL0     H58317   5.932  10.163   1.949  1.2630 -0.9435  0.2222
  432MOL0     H58318   6.198   9.894   1.720  0.1272  2.8532 -1.9659
  432MOL0     H58319   5.359   9.820   2.128  0.4575  0.5963 -1.4071
  432MOL0     H58320   5.148   9.707   2.080  0.2159  0.8952 -0.2212
  433MOL0     O58321  10.091   9.212   1.211  0.2179  0.5356 -0.3288
  433MOL0     C58322  10.091   9.128   1.304 -0.5101  0.4843  0.0027
  433MOL0     O58323   9.997   9.122   1.400  0.1349  0.0775  0.1495
  433MOL0     C58324   9.904   9.226   1.400  0.2569  0.2093  0.0946
  433MOL0     C58325   9.787   9.216   1.325 -0.9017 -0.4175  0.1331
  433MOL0     C58326   9.684   9.304   1.347  0.3915  0.2372 -0.0709
  433MOL0     C58327   9.704   9.416   1.424  0.3788 -0.2918  0.1768
  433MOL0     O58328   9.605   9.510   1.438  0.1347  0.4804 -0.4231
  433MOL0     C58329   9.637   9.652   1.443  0.5718  0.0642  0.1348
  433MOL0     C58330   9.499   9.722   1.473  0.5788 -0.5492  0.3546
  433MOL0     C58331   9.437   9.685   1.616  0.7503  0.8456  0.3165
  433MOL0     C58332   9.327   9.781   1.671  0.2006 -0.3203  0.4061
  433MOL0     C58333   9.188   9.777   1.612 -0.2057 -0.2207  0.5574
  433MOL0     C58334   9.124   9.642   1.641  0.3070  0.5503 -0.5542
  433MOL0     C58335   8.978   9.634   1.598 -1.0940 -0.4467  0.3936
  433MOL0     C58336   8.934   9.485   1.610  0.2313  0.1929  0.5013
  433MOL0     N58337   8.808   9.472   1.529 -0.4752 -0.2667  0.4634
  433MOL0     C58338   8.786   9.373   1.436  0.5947 -0.1122 -0.0710
  433MOL0     C58339   8.657   9.393   1.391  0.7348  0.5270  0.0751
  433MOL0     C58340   8.572   9.297   1.306  0.2336  0.2700 -0.5047
  433MOL0     C58341   8.471   9.223   1.388  0.1518 -0.1094  0.5357
  433MOL0     C58342   8.380   9.131   1.299 -0.1258 -0.2369 -0.2263
  433MOL0     C58343   8.279   9.054   1.390  1.0549 -0.6602  0.0736
  433MOL0     O58344   8.170   9.000   1.315  0.2566  0.0114  0.5783
  433MOL0     C58345   8.053   8.963   1.375 -0.2527 -0.2145  0.2197
  433MOL0     C58346   8.026   8.977   1.511 -1.0736 -0.2427  0.2265
  433MOL0     C58347   7.902   8.960   1.556  0.2684  0.4137 -0.6945
  433MOL0     C58348   7.881   8.991   1.707 -0.9588 -0.0836  0.5527
  433MOL0     C58349   7.793   8.922   1.480 -0.6626  0.7291  0.1859
  433MOL0     C58350   7.658   8.893   1.530 -0.1724 -0.0778  0.2576
  433MOL0     O58351   7.641   8.848   1.659 -0.5696 -0.2919 -0.7552
  433MOL0     C58352   7.516   8.847   1.708  0.0506 -0.4869  0.1831
  433MOL0     C58353   7.476   8.729   1.772 -0.7130 -0.0404  0.0972
  433MOL0     C58354   7.347   8.719   1.836  0.3288 -0.0282 -0.3962
  433MOL0     C58355   7.252   8.834   1.830 -0.7227  0.7876 -0.4921
  433MOL0     O58356   7.122   8.833   1.881  0.2391  0.9391  0.0850
  433MOL0     C58357   7.094   8.753   1.999 -0.3032  0.2046  0.2483
  433MOL0     C58358   7.191   8.790   2.112 -0.2120  0.0583 -0.0946
  433MOL0     C58359   7.208   8.945   2.138  0.1103 -0.6286  0.0649
  433MOL0     C58360   7.072   9.019   2.169  0.7349  0.3900  0.9009
  433MOL0     C58361   7.072   9.167   2.187 -0.1327 -1.1634  0.0718
  433MOL0     C58362   7.138   9.247   2.077 -0.4041  0.5305 -0.5202
  433MOL0     C58363   7.093   9.207   1.939  0.4216  0.8871  0.1025
  433MOL0     C58364   7.138   9.312   1.842  0.5742  0.9146  0.6854
  433MOL0    Cl58365   7.129   9.270   1.672 -0.5548 -0.0492 -0.1562
  433MOL0     C58366   7.302   8.943   1.758  0.3626 -0.6246  0.0185
  433MOL0     C58367   7.428   8.953   1.696  0.5683 -0.1283 -0.2896
  433MOL0     O58368   7.569   8.888   1.448  0.5869  0.2442  0.6765
  433MOL0     C58369   7.819   8.916   1.337 -0.0436  0.2753 -1.3540
  433MOL0     C58370   7.946   8.933   1.290 -0.0152 -0.2296  0.4261
  433MOL0     N58371   8.603   9.497   1.463  0.0467  0.1306  0.2424
  433MOL0     N58372   8.695   9.542   1.541  0.8998  0.0398  1.0477
  433MOL0     C58373   9.827   9.431   1.493 -0.0871 -0.5027  0.7928
  433MOL0     C58374   9.927   9.339   1.478  0.2415 -0.0255 -0.0522
  433MOL0     C58375  10.201   9.032   1.288 -0.1713  0.1016 -1.1526
  433MOL0     C58376  10.306   9.047   1.196  0.2058  0.1601  0.2830
  433MOL0     C58377  10.403   8.951   1.186 -0.0043 -0.2336  0.2052
  433MOL0     C58378  10.405   8.837   1.256  0.1009  1.0389 -1.3331
  433MOL0     O58379  10.501   8.749   1.224 -1.4068 -0.0882 -0.2966
  433MOL0     C58380  10.532   8.632   1.295  0.6340  1.0434  0.4706
  433MOL0     C58381  10.444   8.521   1.245  0.6189  0.0143 -0.2823
  433MOL0     C58382  10.529   8.433   1.151 -0.6120  0.6031 -0.1037
  433MOL0     C58383  10.438   8.338   1.077 -0.3151 -0.0062  0.8443
  433MOL0     C58384  10.528   8.257   0.988  0.1406  0.4066 -0.3771
  433MOL0     C58385  10.599   8.189   0.924 -0.0054 -0.8264  0.3465
  433MOL0     C58386  10.305   8.820   1.355 -0.4722  0.3188  0.7117
  433MOL0     C58387  10.203   8.917   1.374 -0.5807  0.4802  0.4462
  433MOL0     H58388   9.768   9.127   1.265 -1.7627 -1.4046  1.7792
  433MOL0     H58389   9.586   9.277   1.309  0.3769 -0.3476  0.3603
  433MOL0     H58390   9.698   9.681   1.528  0.1274  1.1013  0.1131
  433MOL0     H58391   9.673   9.685   1.345 -0.2810 -0.0051 -0.2132
  433MOL0     H58392   9.513   9.830   1.470 -1.3547 -0.2768 -0.1161
  433MOL0     H58393   9.427   9.687   1.398 -1.8301  1.6174  1.5237
  433MOL0     H58394   9.404   9.582   1.627  0.9648  0.8438  0.9960
  433MOL0     H58395   9.523   9.691   1.685  1.8987 -0.9711 -0.8577
  433MOL0     H58396   9.318   9.771   1.780 -1.3547  0.2038  0.3435
  433MOL0     H58397   9.360   9.882   1.646 -1.5759  0.4965  1.1641
  433MOL0     H58398   9.126   9.858   1.651  0.4177  1.1277 -1.1265
  433MOL0     H58399   9.202   9.790   1.505 -0.1919  2.4129  0.8270
  433MOL0     H58400   9.179   9.566   1.585  0.6068 -0.8326  1.5219
  433MOL0     H58401   9.147   9.605   1.741  3.4004 -0.3561 -1.4878
  433MOL0     H58402   8.918   9.702   1.660 -1.9489  0.4534 -1.3459
  433MOL0     H58403   8.969   9.672   1.496  4.3816  1.8086  0.4105
  433MOL0     H58404   8.912   9.471   1.716  0.5908  1.8815  0.8281
  433MOL0     H58405   9.013   9.415   1.582 -1.8000 -1.8965 -0.3182
  433MOL0     H58406   8.854   9.297   1.400  0.5248 -0.8605  1.2896
  433MOL0     H58407   8.528   9.362   1.230  1.6649 -0.2080 -1.7790
  433MOL0     H58408   8.630   9.215   1.263 -1.4567 -0.9708 -0.5318
  433MOL0     H58409   8.404   9.292   1.440 -0.2174 -0.1824  0.1635
  433MOL0     H58410   8.511   9.159   1.467 -0.0217  1.7044  2.1486
  433MOL0     H58411   8.439   9.048   1.261 -0.1406 -1.3717  2.0200
  433MOL0     H58412   8.334   9.188   1.218  1.0088  0.5335 -0.3373
  433MOL0     H58413   8.234   9.134   1.450  1.0417 -0.0673 -0.7201
  433MOL0     H58414   8.331   8.985   1.456  1.9091 -1.9186 -1.8437
  433MOL0     H58415   8.103   9.015   1.578 -0.9936 -0.9420  0.5478
  433MOL0     H58416   7.887   8.896   1.760 -0.0396 -0.2542  0.1631
  433MOL0     H58417   7.960   9.055   1.747  0.7390 -2.8874  2.0004
  433MOL0     H58418   7.787   9.044   1.727 -0.1895  1.0681  1.2190
  433MOL0     H58419   7.550   8.652   1.788  0.7589  1.6246  1.7351
  433MOL0     H58420   7.315   8.624   1.878  0.2434  0.2028  0.0615
  433MOL0     H58421   6.992   8.761   2.040  0.4535 -0.8127  2.4976
  433MOL0     H58422   7.102   8.647   1.971  0.9904 -0.1347  1.7819
  433MOL0     H58423   7.161   8.738   2.203  1.7218 -0.7972  0.0944
  433MOL0     H58424   7.284   8.746   2.076 -0.6788 -0.7345 -0.3601
  433MOL0     H58425   7.243   8.984   2.042  1.0135 -0.5486  0.4217
  433MOL0     H58426   7.284   8.971   2.213  1.7498 -2.5632 -0.8366
  433MOL0     H58427   6.998   8.998   2.091  1.4398  0.6945  0.1363
  433MOL0     H58428   7.049   8.968   2.262  1.8438 -1.8744  0.0141
  433MOL0     H58429   7.122   9.193   2.281  1.7613 -1.6670 -0.7600
  433MOL0     H58430   6.970   9.206   2.195  0.6349  0.9564  0.3376
  433MOL0     H58431   7.117   9.352   2.100 -3.6012  0.0604 -0.8985
  433MOL0     H58432   7.247   9.235   2.077 -0.3658  0.2459  2.2076
  433MOL0     H58433   6.984   9.210   1.941  0.4188  0.2805  1.1984
  433MOL0     H58434   7.122   9.108   1.904  0.4650  1.4699 -1.6159
  433MOL0     H58435   7.243   9.335   1.860  0.5181  1.0661  0.8176
  433MOL0     H58436   7.083   9.406   1.850 -0.9407  0.2467 -1.0901
  433MOL0     H58437   7.237   9.029   1.754  0.6798 -0.2630  1.8880
  433MOL0     H58438   7.467   9.036   1.637 -0.9119 -0.7112 -2.1977
  433MOL0     H58439   7.728   8.909   1.278 -1.6880  2.8425  0.6607
  433MOL0     H58440   7.955   8.914   1.183 -0.7452  0.4455  0.2342
  433MOL0     H58441   9.848   9.523   1.545 -0.6534 -1.2042  2.3098
  433MOL0     H58442  10.021   9.341   1.531 -0.7403 -2.4727  1.9828
  433MOL0     H58443  10.311   9.129   1.126  0.5983 -0.4068 -0.3568
  433MOL0     H58444  10.491   8.973   1.127  0.8204 -1.7176  0.8064
  433MOL0     H58445  10.638   8.609   1.278  0.2889 -1.2361  1.0728
  433MOL0     H58446  10.511   8.638   1.402  3.5054  0.6100  1.1607
  433MOL0     H58447  10.359   8.563   1.190  2.3291  1.2047 -2.1677
  433MOL0     H58448  10.411   8.455   1.326  0.8762 -0.3950 -0.5091
  433MOL0     H58449  10.603   8.376   1.208  0.9256  1.5502 -1.0762
  433MOL0     H58450  10.585   8.494   1.079  1.7161 -2.9291 -1.5317
  433MOL0     H58451  10.366   8.397   1.019  0.7819  2.2446  1.6852
  433MOL0     H58452  10.386   8.269   1.144 -0.7034  0.3084  0.8702
  433MOL0     H58453  10.675   8.138   0.870  0.0775  0.7996 -1.1692
  433MOL0     H58454  10.297   8.732   1.418 -1.4124 -0.7544 -0.8224
  433MOL0     H58455  10.117   8.904   1.438  0.4223  0.3745  1.8345
  434MOL0     O58456   5.061   9.540   3.890  0.3470 -0.3170  0.4974
  434MOL0     C58457   5.078   9.461   3.798 -0.2545 -0.1354 -0.0375
  434MOL0     O58458   4.978   9.388   3.740 -0.4011 -0.3503  0.1345
  434MOL0     C58459   4.855   9.371   3.793 -0.4162  0.5937  0.0144
  434MOL0     C58460   4.747   9.414   3.726  0.9646 -0.4507  0.6801
  434MOL0     C58461   4.616   9.389   3.781 -0.1577 -0.8171 -0.9591
  434MOL0     C58462   4.602   9.329   3.907  0.4684  0.1543 -0.6085
  434MOL0     O58463   4.472   9.312   3.951  0.0877  0.2736  0.0989
  434MOL0     C58464   4.441   9.248   4.075 -0.2004 -0.4350 -0.4157
  434MOL0     C58465   4.292   9.245   4.091  0.1076  0.1881  0.0866
  434MOL0     C58466   4.238   9.108   4.065  0.3496  0.1270 -0.0020
  434MOL0     C58467   4.087   9.094   4.077 -1.2308 -0.1911 -0.6694
  434MOL0     C58468   4.037   8.947   4.053  0.2659 -0.2133  0.2337
  434MOL0     C58469   3.886   8.957   4.072 -0.3290 -0.1929  0.4723
  434MOL0     C58470   3.817   8.828   4.024 -0.8698  0.1581 -0.4965
  434MOL0     C58471   3.666   8.842   4.036  0.5730 -0.0819  0.5427
  434MOL0     N58472   3.616   8.833   4.176 -0.1820 -0.3530 -0.4700
  434MOL0     C58473   3.497   8.882   4.230 -0.0608  0.5164 -0.0622
  434MOL0     C58474   3.512   8.864   4.365 -0.2644 -0.2221  0.1510
  434MOL0     C58475   3.401   8.863   4.464  0.3233 -0.3992 -0.8418
  434MOL0     C58476   3.321   9.001   4.465 -1.1154 -0.7588  0.3512
  434MOL0     C58477   3.406   9.133   4.490 -0.6012  0.7669  0.3729
  434MOL0     C58478   3.507   9.126   4.610  0.3141 -0.0901 -0.7058
  434MOL0     O58479   3.428   9.087   4.728  1.1076 -0.2395 -0.3758
  434MOL0     C58480   3.491   9.079   4.849 -0.5229 -0.2410  0.4463
  434MOL0     C58481   3.421   9.029   4.960 -0.7469  0.3106  0.3111
  434MOL0     C58482   3.475   9.007   5.081  0.3782  0.6348 -0.4597
  434MOL0     C58483   3.373   8.941   5.176 -1.2545  0.2629  0.3636
  434MOL0     C58484   3.608   9.041   5.110  0.7141  0.6609 -0.2636
  434MOL0     C58485   3.680   9.020   5.238 -0.1835  0.8051  0.4503
  434MOL0     O58486   3.805   9.074   5.245 -0.1850  0.5197  1.1690
  434MOL0     C58487   3.887   9.032   5.347  0.5420  0.0078  0.1405
  434MOL0     C58488   3.986   8.937   5.315  0.9861 -0.3559 -0.0192
  434MOL0     C58489   4.078   8.884   5.408  0.1069  0.2235  0.1211
  434MOL0     C58490   4.056   8.927   5.543 -0.2315 -0.2050  0.2763
  434MOL0     O58491   4.138   8.878   5.643  0.6388  0.5336  0.4731
  434MOL0     C58492   4.117   8.741   5.676  0.0100  0.7782  0.0316
  434MOL0     C58493   4.172   8.725   5.819 -1.1549  0.4488  0.3331
  434MOL0     C58494   4.315   8.749   5.842 -0.1995  0.2190 -0.8422
  434MOL0     C58495   4.348   8.734   5.991 -0.1133 -0.0979 -0.0807
  434MOL0     C58496   4.475   8.805   6.041  1.2144  0.0252  0.1579
  434MOL0     C58497   4.597   8.751   5.967 -0.3914 -0.5173  1.2802
  434MOL0     C58498   4.736   8.790   6.005  0.5121 -0.6769  0.5238
  434MOL0     C58499   4.771   8.938   6.006 -0.4639  0.5729 -0.7551
  434MOL0    Cl58500   4.742   9.021   5.848 -0.2876 -0.0997  0.2058
  434MOL0     C58501   3.973   9.037   5.575  0.3153  0.8641  0.3313
  434MOL0     C58502   3.891   9.092   5.474 -0.1563 -0.2332 -0.7914
  434MOL0     O58503   3.630   8.947   5.322 -0.3148  0.5131 -0.5710
  434MOL0     C58504   3.685   9.092   5.000 -0.4249  0.6642  0.4128
  434MOL0     C58505   3.624   9.115   4.871 -0.1213  0.2672 -0.7162
  434MOL0     N58506   3.638   8.820   4.393  0.3336 -0.5081 -0.0498
  434MOL0     N58507   3.697   8.797   4.282  0.2732  0.2537  0.1229
  434MOL0     C58508   4.718   9.292   3.979 -0.0864 -0.1993 -0.6228
  434MOL0     C58509   4.844   9.315   3.923  0.0344 -0.0143  1.2646
  434MOL0     C58510   5.215   9.450   3.755 -0.0731 -0.6544  0.2524
  434MOL0     C58511   5.321   9.530   3.806 -0.3425 -0.3902 -0.4193
  434MOL0     C58512   5.448   9.516   3.752  0.0959 -0.1233  0.5924
  434MOL0     C58513   5.473   9.428   3.649 -0.2609 -0.8736 -0.2307
  434MOL0     O58514   5.584   9.417   3.572 -0.3473 -0.1035  0.2098
  434MOL0     C58515   5.700   9.499   3.604 -0.7227 -0.6810  1.0245
  434MOL0     C58516   5.821   9.442   3.526 -0.1352  0.8326  0.3295
  434MOL0     C58517   5.832   9.289   3.536 -0.5097 -0.0952  0.3138
  434MOL0     C58518   5.941   9.239   3.439 -0.1566  0.3879 -0.7657
  434MOL0     C58519   5.938   9.084   3.432 -0.3774 -0.9600 -0.0534
  434MOL0     C58520   5.934   8.964   3.441 -1.3094 -0.3512 -0.4551
  434MOL0     C58521   5.370   9.345   3.604 -0.0374 -0.2840 -0.0953
  434MOL0     C58522   5.237   9.364   3.648 -0.6021  0.4913  0.0836
  434MOL0     H58523   4.762   9.471   3.634 -2.3271  0.7979  0.7647
  434MOL0     H58524   4.531   9.420   3.721 -0.7156 -0.1054  0.1736
  434MOL0     H58525   4.491   9.154   4.100  3.0744  1.5092  0.9367
  434MOL0     H58526   4.475   9.322   4.148 -0.9535  0.3613 -0.8540
  434MOL0     H58527   4.261   9.271   4.193 -2.8023  0.3100 -0.7206
  434MOL0     H58528   4.237   9.306   4.018 -1.8796 -1.2761  0.2757
  434MOL0     H58529   4.260   9.076   3.962 -1.5278 -0.5334 -0.2385
  434MOL0     H58530   4.276   9.031   4.132 -0.2781 -0.8384 -0.7237
  434MOL0     H58531   4.052   9.125   4.176 -2.4095 -0.5430 -0.9603
  434MOL0     H58532   4.046   9.159   3.998 -0.8243  0.9600  0.0399
  434MOL0     H58533   4.058   8.906   3.953 -0.8004  1.2440 -0.6209
  434MOL0     H58534   4.086   8.882   4.126  2.6653  4.0143  2.7984
  434MOL0     H58535   3.863   8.989   4.174  0.7375 -1.6332  1.2121
  434MOL0     H58536   3.846   9.030   4.001  3.0875  0.0592 -1.4234
  434MOL0     H58537   3.847   8.799   3.923  1.9888  1.0345  0.0256
  434MOL0     H58538   3.844   8.740   4.083 -0.9913 -0.1248 -0.8550
  434MOL0     H58539   3.612   8.760   3.988  1.7079 -1.8591  2.1594
  434MOL0     H58540   3.638   8.938   3.993 -1.8811 -1.0017 -0.0662
  434MOL0     H58541   3.412   8.921   4.176  0.7686  1.8139 -0.4751
  434MOL0     H58542   3.331   8.782   4.442 -1.4570 -0.1558  2.9788
  434MOL0     H58543   3.427   8.854   4.570 -3.9681 -2.5536  0.2927
  434MOL0     H58544   3.242   8.997   4.542  0.5529  2.1742  2.4140
  434MOL0     H58545   3.278   9.007   4.365 -0.5209  2.2412  0.1769
  434MOL0     H58546   3.333   9.213   4.505 -2.2859 -0.9564  1.9106
  434MOL0     H58547   3.460   9.163   4.400 -1.2497  1.2120  0.1171
  434MOL0     H58548   3.550   9.224   4.628 -0.0483  0.3363 -2.0853
  434MOL0     H58549   3.588   9.057   4.585  2.0181  1.8133 -0.6594
  434MOL0     H58550   3.320   9.006   4.926 -0.3353  0.7656 -1.3100
  434MOL0     H58551   3.273   8.970   5.144 -2.3412 -2.3922  1.0894
  434MOL0     H58552   3.392   8.833   5.167 -1.6530  0.3511 -2.4960
  434MOL0     H58553   3.391   8.978   5.277  0.5460 -1.0779  0.5897
  434MOL0     H58554   4.006   8.910   5.211 -1.2365 -1.5818 -0.1856
  434MOL0     H58555   4.157   8.810   5.395 -0.3831 -0.4402  0.7889
  434MOL0     H58556   4.011   8.718   5.668 -0.3277  1.6456  1.7491
  434MOL0     H58557   4.178   8.675   5.614  2.7200 -0.7487  3.9395
  434MOL0     H58558   4.114   8.793   5.882  0.7105  0.4572  2.1336
  434MOL0     H58559   4.159   8.622   5.852  2.1154 -0.8624 -1.9773
  434MOL0     H58560   4.334   8.852   5.810 -0.3066  1.3952  2.4630
  434MOL0     H58561   4.379   8.680   5.786  0.1730 -0.6129  0.5432
  434MOL0     H58562   4.270   8.782   6.052  2.8417  3.1846  1.4568
  434MOL0     H58563   4.362   8.627   6.012  0.5968 -0.2264 -1.1606
  434MOL0     H58564   4.492   8.786   6.147 -2.4048 -3.8290  0.3569
  434MOL0     H58565   4.459   8.913   6.037  0.3009 -0.1167 -3.1717
  434MOL0     H58566   4.590   8.642   5.973 -3.4053 -0.3595  2.8108
  434MOL0     H58567   4.588   8.778   5.862  1.0463  2.3825  1.7942
  434MOL0     H58568   4.807   8.742   5.935  1.9059  1.4477  0.4058
  434MOL0     H58569   4.749   8.751   6.106 -2.1760 -0.9093  0.8490
  434MOL0     H58570   4.874   8.943   6.042 -0.5073 -4.1786  0.7128
  434MOL0     H58571   4.721   8.990   6.088  4.7143  1.2339  2.4400
  434MOL0     H58572   3.985   9.085   5.671  0.1980 -1.1853  1.4199
  434MOL0     H58573   3.820   9.170   5.501  0.0740  0.1116 -1.1737
  434MOL0     H58574   3.788   9.126   5.004  0.3080 -0.4410 -3.8001
  434MOL0     H58575   3.677   9.155   4.786 -0.4209 -1.8387 -1.9581
  434MOL0     H58576   4.713   9.262   4.084  2.0146  1.1929 -0.0600
  434MOL0     H58577   4.933   9.281   3.975  1.6386  1.0980 -0.6188
  434MOL0     H58578   5.318   9.598   3.890 -0.1008  1.0367 -1.5396
  434MOL0     H58579   5.521   9.589   3.788  0.0248  0.3270 -0.1704
  434MOL0     H58580   5.685   9.605   3.582 -0.0086 -0.4037  1.8410
  434MOL0     H58581   5.732   9.493   3.708  0.2755  4.1228  1.2272
  434MOL0     H58582   5.913   9.494   3.553  1.9390 -1.4027 -1.8462
  434MOL0     H58583   5.798   9.470   3.422 -0.4770 -2.2245 -0.5165
  434MOL0     H58584   5.736   9.238   3.520 -1.0167  0.7878  0.4833
  434MOL0     H58585   5.864   9.271   3.639  1.7941 -0.3407 -0.3822
  434MOL0     H58586   6.037   9.268   3.483 -0.6813  0.7111  0.1950
  434MOL0     H58587   5.939   9.284   3.339 -2.7482 -0.0638 -0.9915
  434MOL0     H58588   5.905   8.861   3.449  2.1019 -1.4870 -1.0253
  434MOL0     H58589   5.386   9.279   3.519 -1.3734 -0.1161 -0.4948
  434MOL0     H58590   5.158   9.303   3.605 -1.3254 -2.4383  4.7895
  435MOL0     O58591   3.523   5.833   5.712  1.2862 -0.2618 -0.1124
  435MOL0     C58592   3.463   5.742   5.666 -0.6814 -0.1453 -0.1084
  435MOL0     O58593   3.356   5.747   5.580 -0.1564 -0.1802 -0.2525
  435MOL0     C58594   3.289   5.865   5.546 -0.7819 -0.4824 -0.3123
  435MOL0     C58595   3.349   5.995   5.558  0.7636 -0.7655  0.0832
  435MOL0     C58596   3.279   6.103   5.512 -0.2569  0.3737  0.0434
  435MOL0     C58597   3.149   6.090   5.468  0.1626  0.4436 -0.1247
  435MOL0     O58598   3.093   6.205   5.416 -0.2797  0.2202 -0.5924
  435MOL0     C58599   2.952   6.217   5.399  0.2356  0.0395  0.1556
  435MOL0     C58600   2.935   6.370   5.378 -0.3004  0.1806 -0.2306
  435MOL0     C58601   2.787   6.399   5.363 -0.2449 -0.3352  0.0797
  435MOL0     C58602   2.773   6.532   5.281  0.1483 -0.1113 -0.1468
  435MOL0     C58603   2.628   6.587   5.290 -0.7777 -0.2592 -0.4102
  435MOL0     C58604   2.516   6.497   5.255 -0.0875 -0.5042 -0.3230
  435MOL0     C58605   2.381   6.573   5.247 -0.3948 -0.0940  0.5421
  435MOL0     C58606   2.341   6.662   5.366 -0.2084  0.4170 -0.8508
  435MOL0     N58607   2.205   6.716   5.346 -0.5877  0.3483  0.1076
  435MOL0     C58608   2.080   6.654   5.340 -0.4480 -0.0309 -0.0370
  435MOL0     C58609   1.995   6.756   5.317 -0.4065 -0.0630 -0.6359
  435MOL0     C58610   1.844   6.742   5.315 -0.4980 -0.0744  0.6342
  435MOL0     C58611   1.762   6.837   5.244 -0.1389 -0.5591  0.5667
  435MOL0     C58612   1.611   6.790   5.243  0.4005 -0.1396  0.1295
  435MOL0     C58613   1.521   6.917   5.252 -0.0259  0.1064 -0.7128
  435MOL0     O58614   1.390   6.877   5.222  0.0342  0.4887 -0.1199
  435MOL0     C58615   1.286   6.956   5.252  0.3059 -0.5369  1.2709
  435MOL0     C58616   1.170   6.934   5.175 -0.2245 -0.7857  0.1339
  435MOL0     C58617   1.051   7.004   5.197  0.7553  0.1394  0.6974
  435MOL0     C58618   0.936   6.957   5.122 -0.6485 -0.1050 -0.2156
  435MOL0     C58619   1.043   7.108   5.296 -0.8861  0.7781 -0.2392
  435MOL0     C58620   0.930   7.192   5.327  0.1545  0.1866  0.3214
  435MOL0     O58621   0.955   7.296   5.403  0.3443 -0.5257  0.0911
  435MOL0     C58622   0.849   7.363   5.458  0.3782 -0.5758  0.2270
  435MOL0     C58623   0.771   7.313   5.563 -0.2507 -0.1623 -0.1302
  435MOL0     C58624   0.662   7.387   5.620 -0.2024 -0.7881 -0.5927
  435MOL0     C58625   0.630   7.512   5.573  0.0202  0.2601 -0.5534
  435MOL0     O58626   0.509   7.558   5.617  0.2521 -0.6932  0.4510
  435MOL0     C58627   0.472   7.697   5.607  0.3035  0.0044 -0.3003
  435MOL0     C58628   0.320   7.723   5.633 -0.4166  0.3716 -0.1798
  435MOL0     C58629   0.270   7.668   5.767 -0.6497  0.0957  0.0335
  435MOL0     C58630   0.144   7.738   5.808  0.0985 -0.4979 -0.0000
  435MOL0     C58631   0.104   7.683   5.947  0.3976  1.5753 -0.0356
  435MOL0     C58632  -0.012   7.778   5.990 -0.5838 -0.0588  0.0490
  435MOL0     C58633  -0.064   7.743   6.125 -0.3266 -0.7542  0.4255
  435MOL0     C58634   0.008   7.825   6.238  0.0008  0.2097  0.0309
  435MOL0    Cl58635  -0.044   7.768   6.395 -0.0201 -0.2785 -0.0182
  435MOL0     C58636   0.718   7.572   5.477 -0.4664  0.3071 -0.4188
  435MOL0     C58637   0.820   7.498   5.423 -0.8733  0.3381  0.0807
  435MOL0     O58638   0.817   7.158   5.292 -1.0414 -0.7911  0.1017
  435MOL0     C58639   1.170   7.145   5.354  0.2781 -0.0424  0.8175
  435MOL0     C58640   1.287   7.075   5.331 -0.1923 -0.3235  0.2545
  435MOL0     N58641   2.064   6.873   5.307  0.1165 -0.4105  0.3320
  435MOL0     N58642   2.188   6.852   5.329 -0.2922  0.2283 -0.5426
  435MOL0     C58643   3.087   5.963   5.463 -0.0264  0.1429  1.0425
  435MOL0     C58644   3.156   5.850   5.509 -0.3496 -0.5428 -0.2487
  435MOL0     C58645   3.511   5.606   5.698  0.8497 -0.8533 -0.2229
  435MOL0     C58646   3.465   5.501   5.618 -0.5899 -0.6360  0.2485
  435MOL0     C58647   3.522   5.371   5.644  0.8103  0.2734  0.4910
  435MOL0     C58648   3.614   5.350   5.742  0.3419  0.0408 -0.3427
  435MOL0     O58649   3.663   5.217   5.748  0.5344 -0.0494  0.3417
  435MOL0     C58650   3.800   5.199   5.785  0.1213 -0.6055  0.1139
  435MOL0     C58651   3.831   5.055   5.790 -0.7571  0.6518  0.0044
  435MOL0     C58652   3.751   4.988   5.900  0.0648  0.3027  0.2387
  435MOL0     C58653   3.781   5.034   6.045  0.1716 -0.0340  0.3653
  435MOL0     C58654   3.920   5.040   6.080  0.7239 -0.3812 -0.6204
  435MOL0     C58655   4.038   5.042   6.099 -0.1436  0.0740  1.2418
  435MOL0     C58656   3.655   5.456   5.825 -0.2655 -0.4528  0.0710
  435MOL0     C58657   3.599   5.581   5.804 -0.1351 -0.0920  0.5599
  435MOL0     H58658   3.450   6.016   5.592  0.9237  0.3322 -0.9882
  435MOL0     H58659   3.326   6.201   5.512 -1.6092  1.0599 -1.5776
  435MOL0     H58660   2.911   6.155   5.319  0.4480 -0.9908  0.8264
  435MOL0     H58661   2.916   6.199   5.501 -1.4872 -0.8485 -0.5810
  435MOL0     H58662   2.968   6.434   5.460 -1.7001  0.2824  0.2693
  435MOL0     H58663   2.986   6.398   5.285  2.2046 -2.1449  0.3128
  435MOL0     H58664   2.746   6.319   5.300  3.1650 -0.5771 -2.0443
  435MOL0     H58665   2.739   6.410   5.461  1.5286  2.6883  0.7555
  435MOL0     H58666   2.852   6.595   5.322  0.1402  0.1329 -0.5078
  435MOL0     H58667   2.803   6.531   5.176 -2.4977  0.0082 -0.9818
  435MOL0     H58668   2.609   6.618   5.394  0.0085  0.0498 -0.3505
  435MOL0     H58669   2.632   6.676   5.226 -0.7651 -0.1080 -0.2036
  435MOL0     H58670   2.540   6.473   5.151  1.0410  3.0299 -1.0113
  435MOL0     H58671   2.510   6.403   5.311 -1.2738  0.4926  1.3148
  435MOL0     H58672   2.384   6.651   5.170 -0.7284  0.6046  1.2309
  435MOL0     H58673   2.305   6.499   5.222 -1.5520  0.8156  1.2877
  435MOL0     H58674   2.410   6.746   5.378 -0.4847  0.7084 -1.3058
  435MOL0     H58675   2.338   6.600   5.457 -2.4151  1.4336 -0.1749
  435MOL0     H58676   2.053   6.549   5.350 -1.1855  0.3100  1.6870
  435MOL0     H58677   1.834   6.639   5.278  2.5566  0.0168 -0.7401
  435MOL0     H58678   1.804   6.733   5.417 -1.4365  1.5964  0.4428
  435MOL0     H58679   1.801   6.838   5.142  0.5729 -0.5430  0.8330
  435MOL0     H58680   1.784   6.939   5.276  1.2000 -0.2241 -1.2471
  435MOL0     H58681   1.576   6.736   5.331 -2.2562  1.5628  0.2249
  435MOL0     H58682   1.584   6.723   5.161 -3.4390 -1.2328  2.0739
  435MOL0     H58683   1.558   6.992   5.182  2.4154  0.9381  1.3466
  435MOL0     H58684   1.537   6.948   5.355  2.0194 -1.9959 -0.3008
  435MOL0     H58685   1.178   6.855   5.101 -1.1762 -1.4308  0.6957
  435MOL0     H58686   0.869   6.907   5.192  0.7912 -2.7718 -0.6139
  435MOL0     H58687   0.886   7.043   5.077 -0.3420  0.4256  0.4410
  435MOL0     H58688   0.950   6.873   5.053 -0.8699 -2.3748  2.3587
  435MOL0     H58689   0.795   7.219   5.610  1.2536  0.3138  0.0896
  435MOL0     H58690   0.599   7.348   5.700  0.6812  1.9245  1.6025
  435MOL0     H58691   0.533   7.754   5.678 -1.0831 -0.4106  1.3074
  435MOL0     H58692   0.492   7.734   5.507  0.9223  0.6836  0.0674
  435MOL0     H58693   0.297   7.829   5.619 -0.9894  0.1445 -1.0667
  435MOL0     H58694   0.261   7.669   5.558 -1.1505 -3.3196  2.7738
  435MOL0     H58695   0.348   7.689   5.840  0.1200 -1.3114 -0.3575
  435MOL0     H58696   0.254   7.560   5.766  2.5061 -0.4985 -2.5537
  435MOL0     H58697   0.156   7.847   5.806 -0.2104 -0.4378 -2.6970
  435MOL0     H58698   0.067   7.715   5.734 -0.1554  1.0588 -0.2570
  435MOL0     H58699   0.184   7.686   6.022 -0.8852  0.9476  1.4210
  435MOL0     H58700   0.070   7.579   5.946 -3.1330  2.5030  2.8762
  435MOL0     H58701   0.033   7.878   5.994 -1.4951  0.3307  1.7266
  435MOL0     H58702  -0.093   7.777   5.917  0.1798  1.8958 -0.9220
  435MOL0     H58703  -0.054   7.635   6.141  0.2729 -0.9366 -1.0513
  435MOL0     H58704  -0.169   7.773   6.124  0.1515  1.2034 -2.1125
  435MOL0     H58705  -0.006   7.933   6.235  1.1770  0.3895 -3.7104
  435MOL0     H58706   0.114   7.802   6.232  0.7999  3.2678  1.0964
  435MOL0     H58707   0.693   7.673   5.446  0.8219  0.1474 -2.1635
  435MOL0     H58708   0.889   7.548   5.356  0.8425  0.3191  1.7401
  435MOL0     H58709   1.191   7.235   5.410  2.6532  1.4548 -2.1461
  435MOL0     H58710   1.384   7.107   5.370  0.3823 -0.0142 -1.3604
  435MOL0     H58711   2.988   5.953   5.419 -1.4061  0.4188  3.8807
  435MOL0     H58712   3.107   5.753   5.514  1.1197 -1.4238 -1.7889
  435MOL0     H58713   3.400   5.513   5.532 -1.5852 -2.0696  0.7575
  435MOL0     H58714   3.500   5.287   5.579  1.2568 -0.1728  0.9060
  435MOL0     H58715   3.866   5.251   5.715 -0.4984 -2.5128 -1.9932
  435MOL0     H58716   3.817   5.249   5.881 -1.1845  0.3297 -0.1082
  435MOL0     H58717   3.939   5.040   5.800 -0.4874  0.2083 -2.7532
  435MOL0     H58718   3.804   5.010   5.694  1.8394  0.3361 -0.6595
  435MOL0     H58719   3.754   4.879   5.895 -0.4393  0.3328 -1.0223
  435MOL0     H58720   3.644   4.996   5.881  0.1591 -2.2522 -1.8682
  435MOL0     H58721   3.728   4.955   6.101 -0.3522 -0.9781 -1.3731
  435MOL0     H58722   3.737   5.133   6.060 -0.8231 -0.6442  1.7293
  435MOL0     H58723   4.144   5.043   6.115  0.7303  0.3769 -3.2394
  435MOL0     H58724   3.740   5.453   5.892  0.7341  0.1485 -1.1319
  435MOL0     H58725   3.638   5.662   5.864  2.0677  1.0020 -2.1833
  436MOL0     O58726   0.813   8.787   3.958 -0.6260 -0.3722 -0.1443
  436MOL0     C58727   0.872   8.717   3.869 -0.3801  0.3802 -0.3643
  436MOL0     O58728   0.806   8.670   3.764 -0.1521 -0.2695  0.5957
  436MOL0     C58729   0.671   8.713   3.748 -0.5411  0.6169 -0.6827
  436MOL0     C58730   0.641   8.833   3.680  0.2019  1.4341 -0.1912
  436MOL0     C58731   0.512   8.864   3.641  0.0623 -0.1531  0.1915
  436MOL0     C58732   0.406   8.771   3.670  0.4394  0.4252 -0.0391
  436MOL0     O58733   0.282   8.806   3.627 -0.3386  0.4177  0.4535
  436MOL0     C58734   0.171   8.725   3.670  0.1042 -0.8404 -0.6038
  436MOL0     C58735   0.051   8.821   3.656 -0.0022  0.0528 -0.3871
  436MOL0     C58736  -0.081   8.761   3.705 -0.1996 -0.6777  0.0107
  436MOL0     C58737  -0.197   8.841   3.691  0.4042  0.0118 -0.7021
  436MOL0     C58738  -0.310   8.784   3.781 -1.1923  0.0509  0.0788
  436MOL0     C58739  -0.420   8.889   3.791  0.9282  0.7118 -0.7471
  436MOL0     C58740  -0.487   8.908   3.660 -0.1112 -0.1492  0.2691
  436MOL0     C58741  -0.538   8.782   3.592 -0.2207 -0.0327  0.6050
  436MOL0     N58742  -0.683   8.767   3.619 -0.0918  0.3677 -0.3185
  436MOL0     C58743  -0.738   8.665   3.698  0.8724  0.3425 -0.4402
  436MOL0     C58744  -0.871   8.664   3.660  0.5271 -0.8256  0.4267
  436MOL0     C58745  -0.990   8.583   3.713 -0.8434  0.6541  0.3399
  436MOL0     C58746  -1.079   8.540   3.592 -1.1327 -0.2757  0.2344
  436MOL0     C58747  -1.201   8.460   3.644 -1.0465 -0.5924 -0.2180
  436MOL0     C58748  -1.277   8.410   3.523  0.3237  0.1978 -0.7615
  436MOL0     O58749  -1.339   8.513   3.446  0.1967  0.5084 -0.3316
  436MOL0     C58750  -1.468   8.541   3.473 -0.1593  0.0584 -0.7040
  436MOL0     C58751  -1.535   8.512   3.598 -0.6980 -0.4221 -0.1234
  436MOL0     C58752  -1.665   8.555   3.623  0.0284  0.2947 -0.1230
  436MOL0     C58753  -1.731   8.515   3.750 -0.0185  0.0429  0.0669
  436MOL0     C58754  -1.730   8.626   3.516  0.2824  0.2898 -0.2566
  436MOL0     C58755  -1.868   8.673   3.528  0.6444 -0.6671  0.9457
  436MOL0     O58756  -1.902   8.798   3.463  0.4892 -0.0067 -0.6571
  436MOL0     C58757  -2.024   8.857   3.485 -0.6738 -0.4671 -0.1214
  436MOL0     C58758  -2.097   8.862   3.606 -0.7510  0.1890  0.1740
  436MOL0     C58759  -2.214   8.935   3.615 -0.0539  0.5759  0.4723
  436MOL0     C58760  -2.261   9.005   3.504  0.0473 -0.0415 -0.1323
  436MOL0     O58761  -2.379   9.077   3.511 -0.4814 -0.5746  0.0328
  436MOL0     C58762  -2.490   8.989   3.546  0.0847 -0.5174 -0.6715
  436MOL0     C58763  -2.611   9.063   3.491 -0.0889 -0.8328  0.5245
  436MOL0     C58764  -2.742   8.983   3.512 -1.1155  0.1633 -0.8072
  436MOL0     C58765  -2.788   9.007   3.663 -0.2238 -0.3379  0.5950
  436MOL0     C58766  -2.941   8.988   3.674 -0.0401  0.5691 -1.0717
  436MOL0     C58767  -3.017   9.104   3.601 -0.2800 -0.2035 -0.7296
  436MOL0     C58768  -3.174   9.075   3.631  0.4030  0.7061 -0.2792
  436MOL0     C58769  -3.225   9.124   3.767  0.5570 -0.2901  0.0901
  436MOL0    Cl58770  -3.237   9.305   3.748  0.0286 -0.2372 -0.0165
  436MOL0     C58771  -2.191   9.005   3.383  0.6067  0.1963  0.4626
  436MOL0     C58772  -2.080   8.926   3.375  0.5997 -0.2342 -0.1280
  436MOL0     O58773  -1.940   8.614   3.601  0.7006 -0.2399 -1.0313
  436MOL0     C58774  -1.657   8.656   3.398  0.1868  0.6091  0.0163
  436MOL0     C58775  -1.538   8.609   3.374 -0.8556  0.6523 -0.5530
  436MOL0     N58776  -0.882   8.763   3.567 -0.4922 -0.0593 -0.2111
  436MOL0     N58777  -0.777   8.817   3.537  0.2560 -1.1717  0.1778
  436MOL0     C58778   0.437   8.659   3.753  0.4812  0.0509 -0.1514
  436MOL0     C58779   0.569   8.626   3.782  0.8906  0.7795 -0.2606
  436MOL0     C58780   1.014   8.685   3.883  0.2355 -0.4367  0.5676
  436MOL0     C58781   1.071   8.603   3.783 -0.6030 -0.1486 -0.7026
  436MOL0     C58782   1.211   8.582   3.790  0.5895  0.0953  0.7597
  436MOL0     C58783   1.294   8.632   3.896 -0.2638 -0.1487  0.5350
  436MOL0     O58784   1.421   8.592   3.919  0.1288  0.0265  0.7968
  436MOL0     C58785   1.496   8.556   3.799 -0.3678  0.4152 -0.3393
  436MOL0     C58786   1.632   8.526   3.855  0.2465 -0.8043 -0.6618
  436MOL0     C58787   1.724   8.433   3.769  0.0319 -1.0436 -0.4472
  436MOL0     C58788   1.859   8.432   3.845  0.3150  0.1493 -0.3082
  436MOL0     C58789   1.851   8.341   3.961  0.0892  0.5640  0.1683
  436MOL0     C58790   1.837   8.266   4.053 -0.0274  0.2981 -0.5279
  436MOL0     C58791   1.234   8.710   3.991  0.1286  0.6712  0.0890
  436MOL0     C58792   1.089   8.731   3.990 -0.4064  0.1131  0.3328
  436MOL0     H58793   0.722   8.897   3.644  3.8413 -2.9414 -0.7794
  436MOL0     H58794   0.483   8.954   3.587 -1.0053 -0.0334  0.9263
  436MOL0     H58795   0.156   8.635   3.610  0.5253 -1.2963 -0.0392
  436MOL0     H58796   0.183   8.692   3.774  0.7492 -2.2073 -1.0771
  436MOL0     H58797   0.074   8.915   3.707 -0.9059  0.8390 -1.3888
  436MOL0     H58798   0.036   8.838   3.549 -1.5579 -0.5618 -0.2927
  436MOL0     H58799  -0.096   8.670   3.645  1.5770  1.3965 -3.9561
  436MOL0     H58800  -0.065   8.742   3.811 -2.6967  0.7192  0.7013
  436MOL0     H58801  -0.175   8.941   3.729 -0.7637  0.2264 -0.5445
  436MOL0     H58802  -0.223   8.839   3.585  0.1424  1.8428 -0.7121
  436MOL0     H58803  -0.343   8.681   3.763 -1.2821  0.2309 -0.8529
  436MOL0     H58804  -0.270   8.777   3.882  0.3141  1.7077 -0.3636
  436MOL0     H58805  -0.501   8.868   3.861  2.3713  2.7008  1.7037
  436MOL0     H58806  -0.373   8.978   3.835 -0.3292  0.5193  1.1373
  436MOL0     H58807  -0.569   8.979   3.652  1.2616  1.2298 -3.8662
  436MOL0     H58808  -0.416   8.966   3.601 -1.5355  3.6276  1.9283
  436MOL0     H58809  -0.482   8.689   3.607  0.0015 -0.5449 -2.7316
  436MOL0     H58810  -0.534   8.795   3.484 -2.6799  1.8744  0.6431
  436MOL0     H58811  -0.687   8.610   3.776  1.5682 -1.2567 -1.9583
  436MOL0     H58812  -0.961   8.493   3.769 -0.7234 -0.4358 -1.4272
  436MOL0     H58813  -1.042   8.649   3.783  0.9560  1.9694  0.5253
  436MOL0     H58814  -1.009   8.478   3.536 -2.1101 -0.9161 -0.3221
  436MOL0     H58815  -1.101   8.631   3.534 -0.0405  0.6964  1.2902
  436MOL0     H58816  -1.269   8.532   3.691 -2.3196 -2.5748  1.1031
  436MOL0     H58817  -1.164   8.390   3.719  2.7688  0.8795 -0.5055
  436MOL0     H58818  -1.348   8.331   3.551 -0.7942  1.2738 -0.4548
  436MOL0     H58819  -1.208   8.362   3.454  0.1159 -1.5816  0.2056
  436MOL0     H58820  -1.488   8.456   3.678  0.9832 -1.4223 -1.7333
  436MOL0     H58821  -1.657   8.475   3.821  0.3157 -1.2750 -0.9760
  436MOL0     H58822  -1.785   8.596   3.800  0.3509  0.0017  0.5434
  436MOL0     H58823  -1.792   8.426   3.728  0.5487 -0.7794  1.6041
  436MOL0     H58824  -2.062   8.819   3.699  1.5299  2.4080  0.4510
  436MOL0     H58825  -2.268   8.932   3.709  3.6062 -2.4699  2.7690
  436MOL0     H58826  -2.500   8.890   3.500 -5.1866 -0.3857 -0.4155
  436MOL0     H58827  -2.491   8.983   3.655 -0.9847  0.5156 -0.6062
  436MOL0     H58828  -2.626   9.154   3.550 -7.8704 -1.6960  0.9733
  436MOL0     H58829  -2.594   9.092   3.387  0.4493 -2.1126  0.2437
  436MOL0     H58830  -2.716   8.878   3.496  1.4889  0.6240 -0.0003
  436MOL0     H58831  -2.820   9.011   3.441  1.0572  4.1177 -1.9582
  436MOL0     H58832  -2.732   8.936   3.725 -1.5966 -0.3515  1.8781
  436MOL0     H58833  -2.763   9.108   3.696 -0.8256  0.8975 -2.4294
  436MOL0     H58834  -2.962   8.991   3.782 -2.1621 -1.3037 -1.3640
  436MOL0     H58835  -2.976   8.891   3.640 -1.4972  1.9780 -3.9161
  436MOL0     H58836  -2.993   9.203   3.642 -2.5759  0.0202  0.2031
  436MOL0     H58837  -3.007   9.090   3.493  3.2384  0.4172 -0.6081
  436MOL0     H58838  -3.178   8.966   3.643 -0.3666  0.5843 -1.4173
  436MOL0     H58839  -3.232   9.110   3.545 -1.2120  2.9321  1.6246
  436MOL0     H58840  -3.160   9.096   3.850 -0.1792 -0.2541  0.6864
  436MOL0     H58841  -3.324   9.081   3.785  1.2508 -1.0960  2.3175
  436MOL0     H58842  -2.221   9.068   3.299  0.8390  0.8079  0.8340
  436MOL0     H58843  -2.019   8.936   3.286 -0.2163  1.9068 -0.4938
  436MOL0     H58844  -1.711   8.714   3.323 -1.2974  1.3120  1.5574
  436MOL0     H58845  -1.496   8.639   3.278  0.0392  1.4976  0.0800
  436MOL0     H58846   0.358   8.590   3.779  1.9234 -0.8284  2.3132
  436MOL0     H58847   0.598   8.540   3.842 -1.7966  1.1383  1.7028
  436MOL0     H58848   1.017   8.580   3.692 -1.6413 -1.7901  0.2868
  436MOL0     H58849   1.256   8.525   3.709  1.1197  1.0974  0.3277
  436MOL0     H58850   1.460   8.461   3.759  3.4375 -2.1570  1.6689
  436MOL0     H58851   1.503   8.640   3.729  2.4350  2.4777  2.1236
  436MOL0     H58852   1.620   8.473   3.950  1.0387 -0.9832 -0.6537
  436MOL0     H58853   1.681   8.620   3.881 -0.0397 -1.1766  1.4043
  436MOL0     H58854   1.728   8.487   3.674 -0.5640  1.3288  0.7849
  436MOL0     H58855   1.679   8.336   3.748 -0.0141 -0.6165 -2.5397
  436MOL0     H58856   1.897   8.532   3.866  0.7661 -0.2685  0.9881
  436MOL0     H58857   1.925   8.391   3.769  2.1258  2.0896  0.1450
  436MOL0     H58858   1.830   8.193   4.131  0.9873 -0.3542 -1.0313
  436MOL0     H58859   1.293   8.741   4.077  2.9476 -4.5021  0.4219
  436MOL0     H58860   1.042   8.799   4.060 -0.9822 -1.0025  1.0526
  437MOL0     O58861   2.558   3.174   8.615  0.1255 -0.1990 -0.5925
  437MOL0     C58862   2.630   3.254   8.667  0.7296 -0.0209 -0.1301
  437MOL0     O58863   2.596   3.364   8.746  0.3691  0.1845  0.0116
  437MOL0     C58864   2.466   3.399   8.753  0.1675 -0.1596  0.3335
  437MOL0     C58865   2.414   3.425   8.879 -0.1418 -0.1277  0.4687
  437MOL0     C58866   2.281   3.449   8.897  0.2166 -0.0877  0.7405
  437MOL0     C58867   2.200   3.464   8.785 -0.8164  0.5502  0.5614
  437MOL0     O58868   2.072   3.485   8.809  0.0109  0.3394 -0.2160
  437MOL0     C58869   1.989   3.518   8.688  0.1642 -0.0932 -0.3813
  437MOL0     C58870   1.855   3.545   8.755  0.6842 -0.2419 -0.2580
  437MOL0     C58871   1.750   3.601   8.668 -0.1152 -0.8720  0.5918
  437MOL0     C58872   1.787   3.750   8.636 -0.0747  0.2348 -0.1920
  437MOL0     C58873   1.684   3.827   8.547  0.6097 -0.0930 -0.6300
  437MOL0     C58874   1.544   3.847   8.614  0.4589  0.2361  0.2449
  437MOL0     C58875   1.435   3.899   8.514  0.1033  0.0549  0.3450
  437MOL0     C58876   1.299   3.891   8.570 -0.6118  0.9460 -0.5246
  437MOL0     N58877   1.210   3.974   8.482 -0.1930  0.1997  0.5445
  437MOL0     C58878   1.241   4.078   8.406  0.0237  0.8667 -0.0446
  437MOL0     C58879   1.124   4.103   8.342 -0.0353  0.1980  0.3494
  437MOL0     C58880   1.114   4.207   8.240  0.1290 -0.0305 -0.0544
  437MOL0     C58881   1.146   4.352   8.291  0.5322 -0.1036 -0.3782
  437MOL0     C58882   1.158   4.454   8.177 -0.6978  0.0258  0.6065
  437MOL0     C58883   1.205   4.592   8.231  0.2673 -0.8573 -1.0674
  437MOL0     O58884   1.098   4.650   8.305  0.3089  0.2260 -0.7011
  437MOL0     C58885   0.974   4.676   8.248 -1.1728 -1.0777  0.5898
  437MOL0     C58886   0.959   4.737   8.118  0.2442  0.0996  0.2514
  437MOL0     C58887   0.830   4.777   8.071  0.2985  0.3448  0.2827
  437MOL0     C58888   0.819   4.841   7.930 -0.4493 -0.8121 -1.0829
  437MOL0     C58889   0.717   4.764   8.163  0.4300 -0.0256  1.2887
  437MOL0     C58890   0.580   4.800   8.125  0.5650 -0.0379 -0.6629
  437MOL0     O58891   0.484   4.746   8.208  0.1342 -0.2461 -0.0222
  437MOL0     C58892   0.356   4.721   8.156  0.3821  0.1302  0.4369
  437MOL0     C58893   0.312   4.590   8.124  0.9678  0.5454 -0.1894
  437MOL0     C58894   0.174   4.562   8.089  0.1658  0.0817 -1.0433
  437MOL0     C58895   0.081   4.672   8.064  0.0499 -0.3668 -0.5700
  437MOL0     O58896  -0.046   4.658   8.016 -0.3865 -0.2206 -0.1966
  437MOL0     C58897  -0.088   4.528   7.970 -0.9983 -0.5126 -0.2319
  437MOL0     C58898  -0.024   4.487   7.838 -0.1426  1.1167 -0.6041
  437MOL0     C58899  -0.020   4.606   7.738  0.1806  0.7881 -0.1698
  437MOL0     C58900   0.011   4.573   7.594 -0.2158  0.6313 -0.1358
  437MOL0     C58901   0.016   4.690   7.497 -0.2899  0.5068  0.9190
  437MOL0     C58902   0.072   4.653   7.359  0.1373 -0.1629  0.8038
  437MOL0     C58903   0.068   4.769   7.262  0.1029 -0.2545  0.8067
  437MOL0     C58904   0.119   4.712   7.126 -0.0127 -0.1266  0.1416
  437MOL0    Cl58905  -0.014   4.605   7.055  0.1255 -0.1357  0.2503
  437MOL0     C58906   0.126   4.799   8.102  0.0851  0.3473  0.4132
  437MOL0     C58907   0.261   4.824   8.136  0.0438  0.0272 -0.0230
  437MOL0     O58908   0.561   4.870   8.023  0.9278  0.5923  0.5885
  437MOL0     C58909   0.743   4.707   8.291  0.2347  0.2765  0.0727
  437MOL0     C58910   0.870   4.656   8.329 -0.3807  0.9377 -0.1662
  437MOL0     N58911   1.025   4.023   8.387  1.4121 -0.7509 -0.1291
  437MOL0     N58912   1.080   3.938   8.470 -1.1151 -0.9759  0.0159
  437MOL0     C58913   2.254   3.454   8.653  0.6003  0.4710 -0.0343
  437MOL0     C58914   2.384   3.417   8.637 -0.4244 -0.6785 -0.4045
  437MOL0     C58915   2.772   3.256   8.619  1.1945 -1.0694 -0.4112
  437MOL0     C58916   2.854   3.370   8.642  0.1706 -0.2131 -0.8330
  437MOL0     C58917   2.994   3.376   8.617  0.1796 -0.4490  1.1166
  437MOL0     C58918   3.055   3.258   8.563  0.6932 -0.2543  0.2906
  437MOL0     O58919   3.182   3.253   8.524 -0.2544  0.2090  0.4465
  437MOL0     C58920   3.255   3.370   8.483 -0.0920  0.0462  0.3589
  437MOL0     C58921   3.323   3.436   8.603  0.3197 -0.0897  0.3010
  437MOL0     C58922   3.369   3.570   8.562 -0.1220 -0.6004 -0.0558
  437MOL0     C58923   3.273   3.692   8.566 -1.0154  0.6649  0.2791
  437MOL0     C58924   3.163   3.697   8.469  0.3410  0.2746 -0.5144
  437MOL0     C58925   3.077   3.715   8.387  0.4746 -0.0473  0.0796
  437MOL0     C58926   2.977   3.152   8.539 -0.1437  0.2555 -1.1880
  437MOL0     C58927   2.837   3.143   8.576  0.3188 -0.4228  0.0604
  437MOL0     H58928   2.479   3.407   8.963 -0.8367  1.1418  1.3156
  437MOL0     H58929   2.244   3.460   8.999  0.4854  2.5751  0.6203
  437MOL0     H58930   2.035   3.609   8.649 -1.1193  0.7451 -0.0214
  437MOL0     H58931   1.989   3.436   8.616  2.8061 -1.2700  0.8474
  437MOL0     H58932   1.822   3.455   8.807 -0.3699 -1.7991 -3.4141
  437MOL0     H58933   1.869   3.617   8.837 -0.5312 -0.6723  0.3427
  437MOL0     H58934   1.734   3.546   8.575 -1.2088  1.4461 -0.6832
  437MOL0     H58935   1.654   3.603   8.721 -1.0815  1.8318 -1.0461
  437MOL0     H58936   1.808   3.800   8.731 -1.0880 -1.0506  0.7493
  437MOL0     H58937   1.879   3.753   8.577 -1.0423 -0.5699 -1.8324
  437MOL0     H58938   1.724   3.923   8.513  0.4226 -0.3113 -1.4696
  437MOL0     H58939   1.670   3.769   8.456  0.7885  2.0032 -2.0658
  437MOL0     H58940   1.502   3.755   8.656 -1.2240  1.4318  1.3200
  437MOL0     H58941   1.548   3.914   8.701  0.3302  0.1942  0.2839
  437MOL0     H58942   1.470   4.001   8.497  1.7593 -0.5671 -0.1107
  437MOL0     H58943   1.443   3.848   8.418  0.4719 -1.3114  1.0847
  437MOL0     H58944   1.304   3.928   8.673  2.7844 -2.1935  0.6853
  437MOL0     H58945   1.264   3.789   8.587 -0.2759  0.9969  0.5264
  437MOL0     H58946   1.330   4.134   8.378  0.7202  0.3673  1.0901
  437MOL0     H58947   1.188   4.187   8.162 -1.7927 -2.3117 -1.4248
  437MOL0     H58948   1.018   4.186   8.193  0.5203 -3.3409  0.3566
  437MOL0     H58949   1.236   4.364   8.351  1.0377  2.1096 -1.4765
  437MOL0     H58950   1.058   4.366   8.355 -0.5538 -0.9745 -1.6086
  437MOL0     H58951   1.059   4.461   8.131 -0.0027 -1.4374 -1.2534
  437MOL0     H58952   1.234   4.419   8.106 -1.0492  2.6778 -1.2332
  437MOL0     H58953   1.228   4.658   8.147 -0.2817 -0.5380 -0.9697
  437MOL0     H58954   1.289   4.587   8.301  0.0758 -1.4174 -0.8773
  437MOL0     H58955   1.047   4.753   8.056 -0.8052 -2.8998 -2.2440
  437MOL0     H58956   0.914   4.839   7.877 -0.0915  1.4261 -0.6014
  437MOL0     H58957   0.745   4.789   7.869 -0.6483  0.9972 -2.4521
  437MOL0     H58958   0.794   4.946   7.943  0.6121 -0.5396 -1.2167
  437MOL0     H58959   0.381   4.508   8.137 -0.4458 -0.3580  2.5440
  437MOL0     H58960   0.158   4.457   8.068  0.3253  0.1988 -1.7773
  437MOL0     H58961  -0.068   4.447   8.041  0.0171 -0.3117 -0.2845
  437MOL0     H58962  -0.196   4.536   7.954 -0.8094 -0.3079 -1.4783
  437MOL0     H58963   0.081   4.456   7.849 -0.7974 -1.4518 -0.8827
  437MOL0     H58964  -0.087   4.415   7.787 -1.4714  0.9919  1.1197
  437MOL0     H58965   0.045   4.681   7.784  4.1047 -2.4601  0.1343
  437MOL0     H58966  -0.117   4.656   7.747  0.2822  1.2096 -1.1824
  437MOL0     H58967   0.107   4.520   7.596  1.9440  4.1771 -0.3344
  437MOL0     H58968  -0.060   4.503   7.549 -0.6378 -0.3847  1.9902
  437MOL0     H58969   0.063   4.783   7.529 -0.7577  1.6996 -1.6318
  437MOL0     H58970  -0.090   4.718   7.490 -0.4794 -0.0073  1.6167
  437MOL0     H58971   0.177   4.627   7.373  0.3168  0.3650  0.4537
  437MOL0     H58972   0.027   4.561   7.318 -2.6937  1.6371 -0.4496
  437MOL0     H58973   0.127   4.852   7.303  0.0321 -1.1432  2.8208
  437MOL0     H58974  -0.034   4.809   7.252  0.4395  0.1054 -2.2231
  437MOL0     H58975   0.209   4.651   7.136 -1.0179 -1.3748  2.4485
  437MOL0     H58976   0.147   4.789   7.054  1.4799 -0.4771  0.3095
  437MOL0     H58977   0.057   4.880   8.083 -0.3160 -0.2017 -0.5408
  437MOL0     H58978   0.284   4.928   8.158 -4.2435  1.9554 -3.2172
  437MOL0     H58979   0.667   4.689   8.366  0.2954  0.0571  0.0819
  437MOL0     H58980   0.889   4.611   8.426  3.8406  0.1187 -1.1730
  437MOL0     H58981   2.202   3.466   8.559 -1.6026 -4.5648  0.2134
  437MOL0     H58982   2.439   3.403   8.545  0.8302  2.2691 -0.2213
  437MOL0     H58983   2.808   3.456   8.689 -0.7047 -0.6472 -0.8828
  437MOL0     H58984   3.045   3.469   8.636  0.9088 -0.9976  1.9381
  437MOL0     H58985   3.330   3.347   8.406  1.2513  2.6211  0.7825
  437MOL0     H58986   3.178   3.440   8.451  0.3527 -0.0457 -0.9642
  437MOL0     H58987   3.407   3.372   8.631  1.5786 -0.2349 -3.2345
  437MOL0     H58988   3.250   3.440   8.684  1.1457 -3.9109  1.4504
  437MOL0     H58989   3.393   3.562   8.456 -1.2189  0.2812 -0.3953
  437MOL0     H58990   3.460   3.589   8.619 -0.3689 -1.5723  0.6964
  437MOL0     H58991   3.335   3.780   8.545  1.0750 -1.1182 -1.4933
  437MOL0     H58992   3.224   3.702   8.663 -1.8224 -0.9380  0.0730
  437MOL0     H58993   3.011   3.729   8.304  1.2745 -0.8345 -0.7025
  437MOL0     H58994   3.030   3.062   8.511  1.1613 -0.3102  2.4893
  437MOL0     H58995   2.783   3.050   8.560 -0.3100 -0.6378  3.0088
  438MOL0     O58996   0.889   0.542   8.022 -0.0503 -0.3816 -0.8983
  438MOL0     C58997   0.764   0.533   8.031 -0.6158 -0.0410 -0.6076
  438MOL0     O58998   0.688   0.424   8.000 -0.9530 -0.0824 -0.2295
  438MOL0     C58999   0.735   0.314   7.935  1.1968  0.2822 -0.2896
  438MOL0     C59000   0.860   0.260   7.954  0.5578  0.3653  0.3132
  438MOL0     C59001   0.902   0.146   7.885 -0.0146  0.4787  0.2565
  438MOL0     C59002   0.816   0.072   7.799  0.2524  0.0300 -0.1103
  438MOL0     O59003   0.862  -0.034   7.723 -0.1396 -0.3630  0.2321
  438MOL0     C59004   0.919   0.024   7.607 -0.1760  0.0105  0.1029
  438MOL0     C59005   1.014  -0.073   7.546 -1.0167 -0.4070  0.1172
  438MOL0     C59006   1.113  -0.145   7.640  0.1711  0.3475  0.5853
  438MOL0     C59007   1.205  -0.036   7.700 -0.3656  0.9253 -0.1199
  438MOL0     C59008   1.309  -0.089   7.800 -0.1018  0.0943 -0.0497
  438MOL0     C59009   1.413  -0.166   7.733 -0.0905  0.1350  0.2017
  438MOL0     C59010   1.506  -0.218   7.845  0.2778 -0.5172  0.3094
  438MOL0     C59011   1.628  -0.300   7.787  0.3351  0.4106  0.2365
  438MOL0     N59012   1.601  -0.423   7.721  0.0882 -0.5913 -0.3604
  438MOL0     C59013   1.497  -0.515   7.722 -0.2942 -0.7270 -0.2473
  438MOL0     C59014   1.531  -0.617   7.638 -0.4443  0.2560 -0.2925
  438MOL0     C59015   1.441  -0.730   7.609 -0.1799  0.0430 -0.6871
  438MOL0     C59016   1.384  -0.700   7.470 -0.1657 -0.5936 -0.3080
  438MOL0     C59017   1.302  -0.823   7.420 -0.0210  0.1624  0.3290
  438MOL0     C59018   1.290  -0.814   7.272  0.1693 -0.2756 -0.0947
  438MOL0     O59019   1.246  -0.934   7.212  0.3863  0.0650 -0.4301
  438MOL0     C59020   1.124  -0.995   7.214  0.2792 -0.1041 -0.8148
  438MOL0     C59021   1.111  -1.125   7.182  0.5198 -0.5545 -0.0667
  438MOL0     C59022   0.989  -1.197   7.186 -0.5525  0.8838  0.1780
  438MOL0     C59023   0.994  -1.345   7.143  0.4122 -0.8664  0.4533
  438MOL0     C59024   0.870  -1.130   7.232 -0.3919  0.4692  0.6934
  438MOL0     C59025   0.734  -1.177   7.238 -0.8980 -0.3059 -0.6349
  438MOL0     O59026   0.669  -1.172   7.364 -0.2010  0.1420  0.0874
  438MOL0     C59027   0.531  -1.176   7.366  0.5916  0.0899 -0.0047
  438MOL0     C59028   0.455  -1.110   7.271  0.4251 -0.5161 -0.7808
  438MOL0     C59029   0.321  -1.131   7.277  0.2960  0.1887  0.6610
  438MOL0     C59030   0.263  -1.222   7.364  0.2669 -0.0823  0.4324
  438MOL0     O59031   0.129  -1.241   7.371  1.0079  0.1967 -0.4460
  438MOL0     C59032   0.059  -1.158   7.463 -0.4777  0.1248  1.0180
  438MOL0     C59033  -0.075  -1.220   7.485 -0.6306  0.4663 -0.3150
  438MOL0     C59034  -0.182  -1.157   7.401 -0.4251 -0.8802  0.6708
  438MOL0     C59035  -0.321  -1.217   7.438 -0.2127  0.1844  0.4185
  438MOL0     C59036  -0.434  -1.111   7.438 -1.4356  1.2274  0.1358
  438MOL0     C59037  -0.568  -1.180   7.452  0.4014  0.5572 -1.4116
  438MOL0     C59038  -0.680  -1.086   7.473  0.6399  0.2194 -0.8112
  438MOL0     C59039  -0.817  -1.150   7.452 -0.1852  0.7053 -0.0030
  438MOL0    Cl59040  -0.944  -1.025   7.485 -0.2563 -0.1780 -0.3466
  438MOL0     C59041   0.343  -1.281   7.456 -0.0260  0.4756 -0.1695
  438MOL0     C59042   0.480  -1.265   7.458 -0.4097 -1.0322  0.5056
  438MOL0     O59043   0.690  -1.207   7.133  0.2701  0.0654 -0.0516
  438MOL0     C59044   0.894  -0.997   7.265  0.4975  0.3383 -1.0559
  438MOL0     C59045   1.014  -0.927   7.249 -0.4778 -0.4329 -0.7515
  438MOL0     N59046   1.649  -0.578   7.585  0.2990  0.2759 -0.7965
  438MOL0     N59047   1.698  -0.474   7.638  0.5296  0.4855  0.6670
  438MOL0     C59048   0.687   0.123   7.792  0.2165 -0.4149  0.0443
  438MOL0     C59049   0.643   0.246   7.850 -0.7322  1.6054  0.3516
  438MOL0     C59050   0.692   0.642   8.094 -0.4452  0.4408 -0.0511
  438MOL0     C59051   0.552   0.633   8.122  0.0788  0.1286  0.5855
  438MOL0     C59052   0.485   0.734   8.197  0.2893 -0.2016  0.2392
  438MOL0     C59053   0.553   0.851   8.234  0.2743  0.2276  1.2504
  438MOL0     O59054   0.507   0.970   8.274 -0.2575 -0.2462 -0.0213
  438MOL0     C59055   0.366   1.001   8.275  0.0500  0.1567 -0.4739
  438MOL0     C59056   0.308   0.954   8.413  0.3897 -0.2689  0.1065
  438MOL0     C59057   0.191   1.047   8.457  0.1941  0.1043 -0.2609
  438MOL0     C59058   0.054   1.001   8.399 -0.5200 -0.4580 -0.2022
  438MOL0     C59059  -0.057   1.055   8.485 -0.0658  0.5499  0.7663
  438MOL0     C59060  -0.146   1.109   8.545 -0.3706  0.4085 -0.9248
  438MOL0     C59061   0.691   0.852   8.203 -0.2613 -0.3026 -0.0962
  438MOL0     C59062   0.763   0.753   8.143 -0.4061 -0.0831  0.6652
  438MOL0     H59063   0.937   0.306   8.014 -0.0035  0.6007  0.8569
  438MOL0     H59064   1.005   0.114   7.893 -0.5267 -1.5121 -0.5198
  438MOL0     H59065   0.835   0.049   7.542 -0.0017 -1.6472 -0.8144
  438MOL0     H59066   0.975   0.116   7.626  1.7788 -1.0408 -0.2886
  438MOL0     H59067   0.951  -0.144   7.491  0.1398 -1.5933  0.2784
  438MOL0     H59068   1.067  -0.017   7.468 -0.4092 -1.8430 -0.5504
  438MOL0     H59069   1.054  -0.210   7.705 -2.3316 -1.8292 -3.4108
  438MOL0     H59070   1.172  -0.215   7.581 -3.4581 -0.7741 -2.1207
  438MOL0     H59071   1.247   0.016   7.614 -0.3824  1.3078  0.1018
  438MOL0     H59072   1.136   0.032   7.751  1.1216  1.9714  0.5687
  438MOL0     H59073   1.352  -0.009   7.861  2.3950 -1.7626  0.7747
  438MOL0     H59074   1.256  -0.154   7.870 -2.8843  0.1058 -2.0006
  438MOL0     H59075   1.374  -0.251   7.676 -1.4379  0.6561  0.3133
  438MOL0     H59076   1.466  -0.091   7.673 -1.2736  2.4024  1.8143
  438MOL0     H59077   1.537  -0.125   7.893  0.0463 -0.0291 -0.4768
  438MOL0     H59078   1.448  -0.282   7.912 -0.1247 -0.5221 -0.0450
  438MOL0     H59079   1.691  -0.322   7.874  0.0338  0.8876  0.5849
  438MOL0     H59080   1.686  -0.236   7.719 -0.5954  0.3337 -0.6482
  438MOL0     H59081   1.415  -0.515   7.793 -1.6091 -0.5273 -1.7153
  438MOL0     H59082   1.494  -0.824   7.624 -1.2985 -0.1477  2.9761
  438MOL0     H59083   1.363  -0.737   7.685 -0.9094 -1.9991 -1.5437
  438MOL0     H59084   1.458  -0.678   7.392 -0.0229  0.9529  0.2150
  438MOL0     H59085   1.320  -0.612   7.483  0.9605  0.3691 -1.0319
  438MOL0     H59086   1.198  -0.827   7.457  0.0881  0.5817  0.6877
  438MOL0     H59087   1.348  -0.916   7.456 -0.0300 -1.2257 -2.9270
  438MOL0     H59088   1.385  -0.795   7.221 -0.5762  2.3568 -0.6935
  438MOL0     H59089   1.221  -0.741   7.229 -1.6529 -2.6814 -1.5277
  438MOL0     H59090   1.200  -1.183   7.163  0.2715 -0.9967  0.1165
  438MOL0     H59091   0.907  -1.405   7.169  0.1705 -0.7104  0.0155
  438MOL0     H59092   1.024  -1.358   7.039  1.6461  1.4821  0.4421
  438MOL0     H59093   1.075  -1.387   7.204  0.9120 -0.3051  0.1900
  438MOL0     H59094   0.490  -1.044   7.193  4.9677 -2.0262 -0.3253
  438MOL0     H59095   0.259  -1.080   7.204  1.5450  1.5606  0.5012
  438MOL0     H59096   0.106  -1.147   7.562 -1.1693 -0.6476  1.4437
  438MOL0     H59097   0.054  -1.059   7.416  1.7560 -0.3142 -0.3057
  438MOL0     H59098  -0.060  -1.328   7.487 -0.1717  0.4819  3.1501
  438MOL0     H59099  -0.108  -1.192   7.585 -0.1563  1.8856 -0.5297
  438MOL0     H59100  -0.157  -1.184   7.297 -0.7773  0.9134  0.0830
  438MOL0     H59101  -0.181  -1.049   7.419 -4.1676 -0.2119 -1.9464
  438MOL0     H59102  -0.352  -1.302   7.377 -1.3123  0.4024  0.6572
  438MOL0     H59103  -0.323  -1.257   7.540 -4.0452  1.7936  1.1340
  438MOL0     H59104  -0.436  -1.070   7.337  3.9227  0.4117 -0.5861
  438MOL0     H59105  -0.414  -1.032   7.510 -0.6984  2.4321 -1.3292
  438MOL0     H59106  -0.587  -1.249   7.370 -0.8136 -2.1565  0.9689
  438MOL0     H59107  -0.557  -1.242   7.542 -1.6351  1.1397 -0.7075
  438MOL0     H59108  -0.667  -0.999   7.407  0.0020  0.8698 -0.0917
  438MOL0     H59109  -0.678  -1.054   7.577  1.9776  1.3551 -1.1477
  438MOL0     H59110  -0.832  -1.238   7.514 -0.0374 -1.5900 -2.9904
  438MOL0     H59111  -0.843  -1.177   7.349 -0.7173  3.3684 -0.6653
  438MOL0     H59112   0.295  -1.356   7.518  3.0183  0.8909  3.0584
  438MOL0     H59113   0.546  -1.325   7.520 -0.0435 -0.7328  0.4088
  438MOL0     H59114   0.809  -0.941   7.305  2.3976  2.1829  0.6252
  438MOL0     H59115   1.030  -0.822   7.270  1.9619 -0.6314 -1.3517
  438MOL0     H59116   0.611   0.069   7.737 -1.7582  0.2731  1.9926
  438MOL0     H59117   0.539   0.272   7.833 -1.5087 -0.5321  1.4686
  438MOL0     H59118   0.495   0.556   8.072  0.6997  0.2292 -0.2948
  438MOL0     H59119   0.378   0.730   8.214  0.2212  2.1038  0.5633
  438MOL0     H59120   0.354   1.109   8.265 -2.2419  0.0935  1.0538
  438MOL0     H59121   0.312   0.961   8.189 -3.2955  2.5589  0.3115
  438MOL0     H59122   0.382   0.970   8.491 -0.8417 -0.0271  1.2715
  438MOL0     H59123   0.278   0.849   8.414 -1.3617  0.1662 -1.3948
  438MOL0     H59124   0.217   1.148   8.426 -0.1457  0.5087  0.7346
  438MOL0     H59125   0.187   1.046   8.567 -0.0421  0.3274 -0.2684
  438MOL0     H59126   0.051   0.893   8.380 -3.1641 -0.9957  2.5551
  438MOL0     H59127   0.049   1.033   8.294  1.0308  1.9142  0.3674
  438MOL0     H59128  -0.212   1.177   8.595  1.6133  0.6139  1.5973
  438MOL0     H59129   0.749   0.939   8.233  0.0604 -0.0484 -1.4099
  438MOL0     H59130   0.864   0.789   8.130  0.4528 -1.7586  2.3412
  439MOL0     O59131   6.468   5.441   3.219 -0.1291 -0.2944 -0.5808
  439MOL0     C59132   6.525   5.341   3.259 -0.0912  0.0388 -0.6970
  439MOL0     O59133   6.461   5.228   3.303 -0.5365 -0.1425  0.0403
  439MOL0     C59134   6.322   5.228   3.297 -1.0116 -0.2896 -0.3632
  439MOL0     C59135   6.248   5.298   3.392 -0.1782  0.3367  0.0639
  439MOL0     C59136   6.109   5.297   3.386 -0.7352 -0.7741 -0.2116
  439MOL0     C59137   6.042   5.210   3.292 -1.2136 -0.3263 -0.1616
  439MOL0     O59138   5.911   5.200   3.309 -0.2249  0.6392 -0.1033
  439MOL0     C59139   5.833   5.140   3.200 -0.1674 -0.1950 -0.1377
  439MOL0     C59140   5.678   5.150   3.210 -0.4633  0.2275  0.2286
  439MOL0     C59141   5.611   5.081   3.332  0.0240  0.6905 -0.4792
  439MOL0     C59142   5.460   5.084   3.330  0.0713  1.0063 -0.2455
  439MOL0     C59143   5.393   4.969   3.405  0.5819  0.7767  0.2496
  439MOL0     C59144   5.235   4.975   3.394  0.4449 -0.8455 -0.2165
  439MOL0     C59145   5.169   4.870   3.494 -0.2522  0.3133  0.0714
  439MOL0     C59146   5.172   4.731   3.437  0.5280  0.2377 -0.3666
  439MOL0     N59147   5.101   4.629   3.524 -0.2610 -0.2290 -0.9321
  439MOL0     C59148   5.169   4.546   3.615  0.9103 -1.1669 -0.2671
  439MOL0     C59149   5.066   4.480   3.675  0.1979 -0.0919 -0.1201
  439MOL0     C59150   5.078   4.373   3.784  0.3680  0.7320  0.2272
  439MOL0     C59151   4.998   4.246   3.733 -0.3850  0.0939  0.1624
  439MOL0     C59152   4.872   4.221   3.819  1.1900 -0.9881  0.3041
  439MOL0     C59153   4.768   4.326   3.783 -0.3717  0.1709  0.0318
  439MOL0     O59154   4.652   4.290   3.858 -0.2178 -0.3437  0.2089
  439MOL0     C59155   4.546   4.379   3.838 -0.5435  0.1154 -0.4039
  439MOL0     C59156   4.419   4.329   3.880 -0.1061 -0.2302  0.1176
  439MOL0     C59157   4.295   4.393   3.848  0.0568 -0.0407  0.0898
  439MOL0     C59158   4.166   4.325   3.895 -0.1368  0.1014 -0.6003
  439MOL0     C59159   4.299   4.519   3.771 -0.2362  0.9791 -0.3709
  439MOL0     C59160   4.178   4.594   3.732  1.0202 -0.2182  0.0313
  439MOL0     O59161   4.201   4.715   3.685 -0.4983 -0.3312 -0.5332
  439MOL0     C59162   4.090   4.785   3.646  0.9350  0.4107  0.4781
  439MOL0     C59163   4.067   4.790   3.503 -0.2109  0.1086  0.2681
  439MOL0     C59164   3.966   4.872   3.445 -0.0778 -0.6243 -0.2386
  439MOL0     C59165   3.887   4.941   3.532  0.2670 -0.2197  0.2408
  439MOL0     O59166   3.789   5.022   3.487  0.5936  0.4412 -0.1882
  439MOL0     C59167   3.802   5.067   3.347  0.7040  0.4753 -0.2928
  439MOL0     C59168   3.716   5.185   3.298 -0.5415  0.3977  0.3076
  439MOL0     C59169   3.563   5.141   3.295 -0.0566 -0.1488 -0.6051
  439MOL0     C59170   3.463   5.252   3.315  0.4629  0.0210 -0.4134
  439MOL0     C59171   3.328   5.196   3.358 -0.0804 -0.6618 -0.3769
  439MOL0     C59172   3.241   5.303   3.420  0.2664 -0.5771  0.0929
  439MOL0     C59173   3.097   5.244   3.449 -0.2333  0.3073 -0.2729
  439MOL0     C59174   3.013   5.354   3.506 -0.2722  0.1009  0.3900
  439MOL0    Cl59175   2.860   5.292   3.567  0.0323  0.2812  0.1363
  439MOL0     C59176   3.908   4.939   3.670  0.3676  0.1216 -0.4845
  439MOL0     C59177   4.006   4.863   3.728 -0.0577 -0.5105  0.5975
  439MOL0     O59178   4.064   4.542   3.737 -0.0846  0.4775  0.1369
  439MOL0     C59179   4.427   4.567   3.734  0.1717  0.6805 -0.1843
  439MOL0     C59180   4.550   4.506   3.773  1.0429 -0.1792  0.2754
  439MOL0     N59181   4.946   4.521   3.620  0.2782 -0.2306  0.2578
  439MOL0     N59182   4.973   4.615   3.535  1.0368  0.7204  0.2792
  439MOL0     C59183   6.118   5.145   3.189 -0.0306 -0.3919 -0.8041
  439MOL0     C59184   6.261   5.162   3.198  0.5663  0.1129 -0.3283
  439MOL0     C59185   6.670   5.330   3.285 -0.5144  1.1661  0.5410
  439MOL0     C59186   6.752   5.439   3.253  0.5830 -0.4606  0.8460
  439MOL0     C59187   6.884   5.448   3.300  0.3983 -0.3666 -0.3200
  439MOL0     C59188   6.948   5.334   3.362  0.0181  1.2221 -0.3583
  439MOL0     O59189   7.082   5.351   3.406 -0.2536  0.2881  1.0190
  439MOL0     C59190   7.173   5.256   3.342 -0.4820  0.2705  0.1997
  439MOL0     C59191   7.309   5.297   3.391 -1.3883 -0.7059 -0.2431
  439MOL0     C59192   7.335   5.260   3.543 -0.3170  0.2299  0.5192
  439MOL0     C59193   7.485   5.270   3.587  0.6142 -0.0379  0.8432
  439MOL0     C59194   7.499   5.343   3.703  0.0992 -0.6630 -1.0967
  439MOL0     C59195   7.517   5.404   3.810  0.4037  0.0634  0.7159
  439MOL0     C59196   6.869   5.216   3.382 -0.0840  0.1239  0.1075
  439MOL0     C59197   6.733   5.217   3.359  0.1737 -0.7784 -0.3440
  439MOL0     H59198   6.293   5.366   3.464  2.2168 -0.4341 -0.5855
  439MOL0     H59199   6.061   5.362   3.458 -0.6039 -0.2036 -0.6305
  439MOL0     H59200   5.868   5.192   3.110  2.3493  2.1074  1.9715
  439MOL0     H59201   5.856   5.033   3.200 -0.7248 -0.3214  0.4066
  439MOL0     H59202   5.662   5.255   3.234  2.2710  0.3376  2.0328
  439MOL0     H59203   5.641   5.107   3.117 -0.5383  0.3923  0.1823
  439MOL0     H59204   5.632   4.973   3.328 -2.6450  0.0878 -0.1815
  439MOL0     H59205   5.652   5.116   3.428 -0.4606  1.3008 -0.4894
  439MOL0     H59206   5.429   5.177   3.377 -0.3299  0.2929  0.9412
  439MOL0     H59207   5.417   5.092   3.230  0.8127  0.7204 -0.5962
  439MOL0     H59208   5.420   4.869   3.370  1.1352  1.0526 -0.1242
  439MOL0     H59209   5.423   4.974   3.511  1.5059  0.1078  0.0353
  439MOL0     H59210   5.210   5.076   3.426  0.6553 -0.9418  0.2692
  439MOL0     H59211   5.197   4.968   3.292 -2.5575  1.4425  0.6177
  439MOL0     H59212   5.221   4.875   3.591  1.2834  0.1426 -0.7183
  439MOL0     H59213   5.068   4.911   3.507  0.4158  2.1463 -0.1949
  439MOL0     H59214   5.278   4.707   3.426  0.9523  2.9024 -3.4238
  439MOL0     H59215   5.132   4.735   3.336  0.8149 -0.1169 -0.4988
  439MOL0     H59216   5.275   4.523   3.623  0.5176 -2.7205  1.0343
  439MOL0     H59217   5.186   4.360   3.795  0.1952 -0.8333  0.2894
  439MOL0     H59218   5.033   4.406   3.878  0.1924 -2.8738  1.5747
  439MOL0     H59219   5.066   4.162   3.748  0.5961  1.1193  1.7921
  439MOL0     H59220   4.974   4.250   3.626 -1.5947  1.9596  0.4488
  439MOL0     H59221   4.885   4.228   3.927 -1.9079 -0.1764  0.7117
  439MOL0     H59222   4.827   4.125   3.792 -1.2228  0.0628  0.3181
  439MOL0     H59223   4.744   4.329   3.676  0.9760  2.3838 -0.2692
  439MOL0     H59224   4.805   4.425   3.813  1.5194  0.8456 -3.9484
  439MOL0     H59225   4.425   4.233   3.931  2.7035 -0.8744 -1.2371
  439MOL0     H59226   4.182   4.232   3.949  2.3367  0.2158 -1.0215
  439MOL0     H59227   4.113   4.399   3.957  0.8857 -0.1449  0.5950
  439MOL0     H59228   4.116   4.296   3.801  1.4821 -1.0972 -1.1354
  439MOL0     H59229   4.119   4.727   3.432 -1.7685 -0.9307 -0.0096
  439MOL0     H59230   3.953   4.877   3.337  1.4476  0.7190 -0.4039
  439MOL0     H59231   3.910   5.081   3.340  1.2515 -1.3799  2.5178
  439MOL0     H59232   3.779   4.987   3.275 -1.4593  1.1774 -0.4610
  439MOL0     H59233   3.731   5.267   3.369 -1.2344 -0.1376  1.0845
  439MOL0     H59234   3.748   5.220   3.199 -0.6867  1.5208  0.6448
  439MOL0     H59235   3.535   5.079   3.380 -2.7893  2.4819  0.6263
  439MOL0     H59236   3.544   5.096   3.197 -1.6376  1.5045 -1.1313
  439MOL0     H59237   3.497   5.324   3.389  1.7531  1.6132 -2.4418
  439MOL0     H59238   3.455   5.311   3.223 -0.9615 -1.5526 -1.3714
  439MOL0     H59239   3.350   5.118   3.432  3.7753 -2.0376 -2.6567
  439MOL0     H59240   3.285   5.146   3.271 -3.1276  0.7798  0.1680
  439MOL0     H59241   3.291   5.351   3.505  3.5531 -1.6115 -1.1050
  439MOL0     H59242   3.224   5.376   3.340  1.2871  2.4528  2.4308
  439MOL0     H59243   3.112   5.171   3.528  0.6723  0.0306 -0.6799
  439MOL0     H59244   3.054   5.204   3.356 -0.0514  2.4648 -1.3603
  439MOL0     H59245   2.987   5.431   3.433 -0.2876 -2.6801 -2.8030
  439MOL0     H59246   3.065   5.396   3.592  2.0097 -1.0509 -0.3303
  439MOL0     H59247   3.840   4.999   3.730  1.3688 -0.0016  0.8134
  439MOL0     H59248   4.030   4.863   3.834 -1.7523  0.1033  1.0180
  439MOL0     H59249   4.427   4.658   3.675  0.0502  1.0773  0.4166
  439MOL0     H59250   4.640   4.543   3.727  0.7063  1.0837  0.5945
  439MOL0     H59251   6.068   5.096   3.107 -0.7082  1.2453 -1.4111
  439MOL0     H59252   6.314   5.113   3.117 -1.4867 -1.0678 -1.0426
  439MOL0     H59253   6.706   5.526   3.208  1.6197 -0.5377 -0.4351
  439MOL0     H59254   6.952   5.531   3.282 -0.0657  0.1119  0.1408
  439MOL0     H59255   7.155   5.153   3.371  5.2728 -0.8827  1.0502
  439MOL0     H59256   7.169   5.266   3.233 -1.2000 -1.2573  0.0662
  439MOL0     H59257   7.315   5.405   3.377  0.1663 -0.5297  1.4518
  439MOL0     H59258   7.388   5.260   3.325  1.4620  0.5672  2.2377
  439MOL0     H59259   7.306   5.157   3.565 -3.0323  0.8467  0.2298
  439MOL0     H59260   7.275   5.326   3.607  1.8731  2.3396  0.5247
  439MOL0     H59261   7.539   5.322   3.507  2.0869  0.9557  2.4350
  439MOL0     H59262   7.528   5.170   3.597  0.0355 -0.5500 -1.1817
  439MOL0     H59263   7.538   5.452   3.903  0.0077  0.9397  0.3574
  439MOL0     H59264   6.910   5.125   3.425 -0.4986  0.5500  1.4773
  439MOL0     H59265   6.679   5.128   3.390 -1.0069 -1.1103 -3.0452
  440MOL0     O59266   8.462   7.620   6.125  0.8816  0.0525 -0.6871
  440MOL0     C59267   8.486   7.744   6.114  0.7543  0.0955  0.2019
  440MOL0     O59268   8.387   7.837   6.074 -0.1376 -0.6909 -0.6857
  440MOL0     C59269   8.254   7.807   6.102 -0.3874  0.0736 -0.6011
  440MOL0     C59270   8.167   7.854   6.005  0.8874  0.8709  0.2122
  440MOL0     C59271   8.032   7.834   6.014  1.1802  0.5965 -0.7653
  440MOL0     C59272   7.982   7.748   6.124  0.3060 -0.0263 -0.2310
  440MOL0     O59273   7.852   7.709   6.139 -0.3752 -0.2146 -0.7771
  440MOL0     C59274   7.758   7.820   6.145 -0.0655  0.0822 -0.2729
  440MOL0     C59275   7.635   7.767   6.214  0.6606 -0.2888  0.6992
  440MOL0     C59276   7.551   7.684   6.113 -0.0149 -0.9809 -0.1442
  440MOL0     C59277   7.418   7.637   6.172 -0.5719 -0.7042 -0.4127
  440MOL0     C59278   7.355   7.549   6.067 -1.2506 -0.3129 -0.5797
  440MOL0     C59279   7.203   7.560   6.079  0.9709  0.1338 -0.7023
  440MOL0     C59280   7.123   7.428   6.051  0.4357  0.2365 -0.1781
  440MOL0     C59281   7.128   7.370   5.908 -0.4848  0.2118 -0.9739
  440MOL0     N59282   7.066   7.464   5.811  0.2600 -0.0038  0.2548
  440MOL0     C59283   6.969   7.564   5.833  0.2182 -0.1279 -0.0316
  440MOL0     C59284   6.916   7.581   5.710 -0.6019 -0.7462  0.4027
  440MOL0     C59285   6.803   7.682   5.665  0.9277 -0.0794  0.2038
  440MOL0     C59286   6.699   7.707   5.778  0.0233 -0.3426  0.4818
  440MOL0     C59287   6.709   7.855   5.836 -0.0040  0.3658 -0.6358
  440MOL0     C59288   6.589   7.867   5.933 -0.0274  0.7424  0.1002
  440MOL0     O59289   6.468   7.889   5.868 -0.1916  0.0596  0.3085
  440MOL0     C59290   6.357   7.891   5.949  1.0364 -0.9133  1.2027
  440MOL0     C59291   6.254   7.978   5.910 -0.4496 -0.2993  0.6310
  440MOL0     C59292   6.131   7.997   5.975  0.2826  0.9323  0.2870
  440MOL0     C59293   6.036   8.085   5.907  0.0463 -0.6149 -0.6093
  440MOL0     C59294   6.112   7.924   6.096  0.1566 -0.1348 -0.1264
  440MOL0     C59295   5.993   7.944   6.181  0.0710  0.6866 -0.3692
  440MOL0     O59296   5.888   8.028   6.144  0.7207  0.4398 -0.0133
  440MOL0     C59297   5.756   7.987   6.153 -0.1459  0.1909 -0.1363
  440MOL0     C59298   5.720   7.848   6.153 -0.1883  0.1315  0.4606
  440MOL0     C59299   5.582   7.814   6.162 -0.5121  0.4941  0.5192
  440MOL0     C59300   5.489   7.918   6.151  0.6547  0.2365 -0.2276
  440MOL0     O59301   5.354   7.886   6.134 -0.4397  0.2438 -0.2059
  440MOL0     C59302   5.266   7.967   6.050 -0.2950 -0.0154 -0.0381
  440MOL0     C59303   5.131   7.979   6.112 -0.0994 -0.3855 -0.1762
  440MOL0     C59304   5.032   8.081   6.054  0.0831 -0.3039 -0.8280
  440MOL0     C59305   5.040   8.219   6.118 -0.6197  0.0984 -0.5645
  440MOL0     C59306   4.923   8.302   6.061 -0.5560 -1.1100 -0.2218
  440MOL0     C59307   4.919   8.455   6.089  0.3639 -0.5647  0.8777
  440MOL0     C59308   4.970   8.494   6.226 -0.0424 -0.5981 -0.6561
  440MOL0     C59309   4.955   8.640   6.275 -0.0466  0.1764  0.8642
  440MOL0    Cl59310   5.026   8.768   6.173  0.4605 -0.0114  0.0937
  440MOL0     C59311   5.533   8.051   6.152 -0.0887  0.0875  0.1271
  440MOL0     C59312   5.660   8.089   6.159 -0.2443  0.4116 -0.3009
  440MOL0     O59313   5.992   7.875   6.287  0.6699  0.3737  0.7148
  440MOL0     C59314   6.216   7.833   6.138 -0.2746 -0.2856 -0.0431
  440MOL0     C59315   6.345   7.826   6.072  0.6771  0.4764 -0.2746
  440MOL0     N59316   6.998   7.510   5.618 -0.4988  0.1899 -0.3173
  440MOL0     N59317   7.084   7.441   5.675 -0.0537 -0.2848  0.2465
  440MOL0     C59318   8.065   7.718   6.222 -0.0672 -0.2703 -0.4766
  440MOL0     C59319   8.199   7.748   6.220  0.1908 -0.2519  0.2803
  440MOL0     C59320   8.624   7.792   6.132  0.1796  0.3363  0.4457
  440MOL0     C59321   8.722   7.700   6.184 -1.0042  0.3429 -0.0762
  440MOL0     C59322   8.858   7.742   6.189  0.4145 -1.0433  0.1142
  440MOL0     C59323   8.891   7.879   6.155  0.6258 -0.4649  0.4321
  440MOL0     O59324   9.015   7.922   6.170 -0.5984 -0.4243 -0.2894
  440MOL0     C59325   9.110   7.857   6.088  0.0951  0.6975  0.7424
  440MOL0     C59326   9.237   7.939   6.074 -0.3097 -0.6629  0.4480
  440MOL0     C59327   9.333   7.926   6.203  0.3749  0.0251  0.7470
  440MOL0     C59328   9.467   7.995   6.161  0.5272 -0.4810  0.0554
  440MOL0     C59329   9.570   7.956   6.260  0.4311  0.6314 -0.6968
  440MOL0     C59330   9.649   7.935   6.350 -0.3150 -0.2367  0.2417
  440MOL0     C59331   8.790   7.967   6.124  0.6906  0.5729  0.3854
  440MOL0     C59332   8.661   7.930   6.112 -0.1613  0.5473 -0.5354
  440MOL0     H59333   8.201   7.911   5.919  0.5553  1.0247  0.1807
  440MOL0     H59334   7.957   7.862   5.941 -1.2643 -5.3425 -1.0796
  440MOL0     H59335   7.791   7.904   6.206 -2.2578  1.1735 -0.5020
  440MOL0     H59336   7.743   7.864   6.047 -0.4956 -0.0991 -0.2909
  440MOL0     H59337   7.658   7.713   6.306  0.9492  1.2313  1.5477
  440MOL0     H59338   7.579   7.856   6.242 -0.5810  0.4367 -3.3445
  440MOL0     H59339   7.531   7.749   6.027  0.7047  0.9013  1.0679
  440MOL0     H59340   7.608   7.602   6.068 -1.2572 -2.3885  0.7263
  440MOL0     H59341   7.437   7.588   6.268 -1.3771 -1.0119 -0.4091
  440MOL0     H59342   7.361   7.729   6.188  0.0111 -0.3354 -0.4205
  440MOL0     H59343   7.390   7.564   5.965  1.4630 -0.7217  0.2141
  440MOL0     H59344   7.388   7.451   6.105 -1.9631  0.5468  2.5524
  440MOL0     H59345   7.184   7.584   6.184  0.8875  2.0160 -1.1219
  440MOL0     H59346   7.171   7.649   6.025  0.0116  0.7705  0.8853
  440MOL0     H59347   7.162   7.351   6.118  1.2300  0.4509 -0.3939
  440MOL0     H59348   7.018   7.439   6.080  0.1989  0.8524 -1.2272
  440MOL0     H59349   7.075   7.275   5.905 -0.6747  0.3046 -0.6131
  440MOL0     H59350   7.226   7.333   5.878 -0.1353  0.3771 -0.0679
  440MOL0     H59351   6.941   7.607   5.928 -3.7984 -0.5756 -0.8648
  440MOL0     H59352   6.820   7.773   5.607 -0.8721 -0.2368 -0.6204
  440MOL0     H59353   6.747   7.618   5.595 -1.0910  0.4858  1.2530
  440MOL0     H59354   6.711   7.626   5.850  3.5160 -0.0505  0.3703
  440MOL0     H59355   6.598   7.701   5.735  0.2964  0.7534 -0.3678
  440MOL0     H59356   6.726   7.923   5.752  0.8857 -0.0316 -0.7965
  440MOL0     H59357   6.798   7.862   5.899 -0.0249 -1.9672 -0.2437
  440MOL0     H59358   6.614   7.962   5.980  1.3478  1.6385 -2.2692
  440MOL0     H59359   6.581   7.782   6.001 -2.7042  1.3654  0.6929
  440MOL0     H59360   6.276   8.031   5.819  1.0934 -1.0456  0.5251
  440MOL0     H59361   5.951   8.034   5.860 -0.0164  0.3806 -1.6430
  440MOL0     H59362   5.980   8.154   5.971  0.0570 -1.2345  0.0791
  440MOL0     H59363   6.080   8.144   5.826  1.1602  1.3760  1.3275
  440MOL0     H59364   5.800   7.775   6.152  0.9820  1.3754  1.0276
  440MOL0     H59365   5.552   7.710   6.161 -0.5518  0.3289 -4.0892
  440MOL0     H59366   5.308   8.067   6.042  0.1424 -0.2767 -1.1659
  440MOL0     H59367   5.268   7.932   5.947 -0.7220  1.9395 -0.7546
  440MOL0     H59368   5.081   7.881   6.109 -0.9206 -0.0893  2.0229
  440MOL0     H59369   5.148   8.001   6.217 -1.2044 -1.9123  0.3683
  440MOL0     H59370   4.932   8.038   6.064  0.8297 -1.7460  1.0189
  440MOL0     H59371   5.056   8.097   5.948  0.8755  0.5190 -0.5299
  440MOL0     H59372   5.047   8.204   6.226  2.1952 -1.2150 -0.8363
  440MOL0     H59373   5.132   8.269   6.088 -0.0274 -0.4037  0.3788
  440MOL0     H59374   4.825   8.258   6.085 -0.8405 -1.5985 -2.1550
  440MOL0     H59375   4.927   8.292   5.952  0.7880  6.1373 -1.3655
  440MOL0     H59376   4.989   8.506   6.022 -1.3215  2.6324  1.3390
  440MOL0     H59377   4.826   8.505   6.059 -0.5409 -2.0191  1.1519
  440MOL0     H59378   5.074   8.461   6.236  0.2759  0.5332 -0.1604
  440MOL0     H59379   4.905   8.433   6.290 -0.6579 -1.5680 -2.1537
  440MOL0     H59380   5.000   8.646   6.375  3.5306 -0.3929 -0.5744
  440MOL0     H59381   4.847   8.659   6.273 -0.3206 -0.7004  3.4525
  440MOL0     H59382   5.464   8.134   6.138 -0.2879  0.1730  1.5376
  440MOL0     H59383   5.679   8.196   6.161 -1.9332  0.7399  0.8728
  440MOL0     H59384   6.208   7.781   6.233 -0.7960  0.9335  0.6028
  440MOL0     H59385   6.428   7.777   6.121  2.0233  1.6727 -1.2412
  440MOL0     H59386   8.017   7.693   6.316  1.2020 -0.5065  0.1235
  440MOL0     H59387   8.259   7.723   6.307  1.2122  0.2713 -0.2565
  440MOL0     H59388   8.697   7.601   6.220 -1.0683  0.9757  1.7154
  440MOL0     H59389   8.940   7.681   6.226 -0.1371 -0.0950  3.2063
  440MOL0     H59390   9.133   7.757   6.125 -2.6376 -0.3181 -0.0430
  440MOL0     H59391   9.069   7.835   5.988  0.7617 -0.8767  0.7913
  440MOL0     H59392   9.222   8.046   6.054  0.0972 -0.7430 -0.3232
  440MOL0     H59393   9.297   7.893   5.995  0.4014  0.0372  0.5626
  440MOL0     H59394   9.358   7.820   6.216  3.5785  0.4431 -1.0415
  440MOL0     H59395   9.278   7.967   6.289 -1.8158  0.0606 -0.6024
  440MOL0     H59396   9.448   8.103   6.167  1.9254 -0.1827 -0.3990
  440MOL0     H59397   9.497   7.969   6.059 -0.2034 -0.8925 -0.0559
  440MOL0     H59398   9.714   7.944   6.435  0.1650  1.9442 -0.2875
  440MOL0     H59399   8.812   8.072   6.110  0.9310  0.7250  1.7417
  440MOL0     H59400   8.588   8.007   6.089 -0.8237 -0.1903 -0.9204
  441MOL0     O59401   6.532   5.268   9.996 -0.9091 -0.2611 -1.0018
  441MOL0     C59402   6.603   5.252   9.899 -0.0438 -0.4511 -0.3736
  441MOL0     O59403   6.569   5.227   9.779 -0.2421  0.1807  0.4108
  441MOL0     C59404   6.431   5.229   9.741 -0.1180  1.0327  0.1015
  441MOL0     C59405   6.408   5.172   9.610  0.0909  0.1115 -0.1453
  441MOL0     C59406   6.280   5.176   9.559 -0.3039 -0.2812 -0.2390
  441MOL0     C59407   6.168   5.222   9.636 -0.5220  1.0861 -0.5592
  441MOL0     O59408   6.036   5.231   9.597  0.3077  0.2818 -0.4151
  441MOL0     C59409   6.016   5.244   9.455  0.1609 -0.7717 -0.9996
  441MOL0     C59410   5.870   5.245   9.425 -0.9637 -0.9374 -0.0205
  441MOL0     C59411   5.812   5.383   9.454  0.8311  0.4779  0.5541
  441MOL0     C59412   5.674   5.394   9.391 -0.1578 -0.4935 -0.6128
  441MOL0     C59413   5.604   5.528   9.438  0.2308  0.6312 -0.3629
  441MOL0     C59414   5.574   5.545   9.588  0.2780 -0.1169 -0.4696
  441MOL0     C59415   5.439   5.485   9.627  0.2364  0.5945  0.7348
  441MOL0     C59416   5.387   5.517   9.764  0.0267  0.0713 -0.6601
  441MOL0     N59417   5.243   5.485   9.773 -0.4219 -0.1574 -0.3095
  441MOL0     C59418   5.159   5.590   9.792  0.8672  0.2553 -0.4632
  441MOL0     C59419   5.042   5.531   9.830  0.2366 -0.0700  0.5333
  441MOL0     C59420   4.925   5.612   9.866  0.3021  0.1673 -0.7062
  441MOL0     C59421   4.938   5.679  10.004 -0.2020  0.3111  1.0685
  441MOL0     C59422   4.973   5.577  10.118 -0.1872 -0.1587 -0.6420
  441MOL0     C59423   4.881   5.452  10.120 -0.1796 -0.2478  0.1893
  441MOL0     O59424   4.747   5.501  10.136 -0.0718  0.2717  0.1186
  441MOL0     C59425   4.651   5.406  10.128  0.3990 -0.1193  0.0807
  441MOL0     C59426   4.683   5.272  10.110  0.7172  0.0280  0.2016
  441MOL0     C59427   4.576   5.181  10.090  0.0476  0.4973 -0.7285
  441MOL0     C59428   4.624   5.043  10.074  0.2670 -0.2812  0.5687
  441MOL0     C59429   4.441   5.215  10.086 -0.7190 -0.1444 -0.3376
  441MOL0     C59430   4.327   5.119  10.066  0.6021 -0.2776  0.3144
  441MOL0     O59431   4.215   5.171  10.023  0.2624 -0.3050  0.5456
  441MOL0     C59432   4.087   5.117  10.052 -0.3212 -1.0699 -0.4271
  441MOL0     C59433   4.050   5.056  10.169  0.0018  0.1629 -0.4524
  441MOL0     C59434   3.934   4.980  10.182 -0.2785 -0.4460 -0.3430
  441MOL0     C59435   3.835   4.991  10.085 -0.6139  0.4410  0.3589
  441MOL0     O59436   3.713   4.929  10.093  0.0235 -1.2706 -0.8142
  441MOL0     C59437   3.665   4.880  10.221 -0.1144  0.8618  0.6130
  441MOL0     C59438   3.510   4.865  10.203 -0.0791  0.5211 -0.1726
  441MOL0     C59439   3.431   4.997  10.223  1.0373 -0.5042 -0.4669
  441MOL0     C59440   3.295   4.972  10.297 -0.8360  0.4094  0.7634
  441MOL0     C59441   3.230   5.104  10.322 -0.6962  0.6443 -0.1147
  441MOL0     C59442   3.098   5.067  10.389  0.0718 -1.0593  0.4792
  441MOL0     C59443   3.062   5.196  10.455  1.1658  0.3184  0.3022
  441MOL0     C59444   2.917   5.170  10.511 -0.1619  0.2143  0.4565
  441MOL0    Cl59445   2.865   5.321  10.603  0.3551  0.1800  0.4816
  441MOL0     C59446   3.864   5.051   9.966 -0.6301 -0.2724 -0.3775
  441MOL0     C59447   3.996   5.116   9.950  0.7314 -0.9846  0.3088
  441MOL0     O59448   4.337   5.007  10.094  0.1720  0.0369 -0.3331
  441MOL0     C59449   4.412   5.353  10.107  0.1873  0.7428  0.8214
  441MOL0     C59450   4.513   5.447  10.119 -0.3611 -0.3241  0.7723
  441MOL0     N59451   5.064   5.388   9.837 -0.5416  0.0901  0.6374
  441MOL0     N59452   5.187   5.365   9.802 -0.0188 -0.2869  0.0886
  441MOL0     C59453   6.194   5.259   9.763 -0.8331 -0.2413  1.1322
  441MOL0     C59454   6.322   5.271   9.811  0.4709  0.1791  0.4781
  441MOL0     C59455   6.744   5.257   9.920 -0.1239  0.0243 -0.9275
  441MOL0     C59456   6.803   5.305  10.043 -0.5708 -0.2556  0.0238
  441MOL0     C59457   6.946   5.310  10.060  0.8305 -0.0057  0.5399
  441MOL0     C59458   7.031   5.258   9.965 -0.3560  0.9426  0.7719
  441MOL0     O59459   7.167   5.265   9.978 -0.4289 -0.0009 -0.5190
  441MOL0     C59460   7.237   5.287  10.110 -0.4513 -0.1607  0.3696
  441MOL0     C59461   7.393   5.279  10.094  0.0166  0.5128  0.6549
  441MOL0     C59462   7.476   5.299  10.222  0.0154  0.6760  0.0415
  441MOL0     C59463   7.617   5.296  10.196 -0.0889 -0.2301  0.8468
  441MOL0     C59464   7.656   5.425  10.128  0.3880  0.1360 -0.8165
  441MOL0     C59465   7.689   5.524  10.077 -0.3360 -0.7312  1.0695
  441MOL0     C59466   6.974   5.212   9.845 -0.7531  0.2572  0.1746
  441MOL0     C59467   6.841   5.210   9.824  0.9052 -0.7365 -0.3416
  441MOL0     H59468   6.498   5.140   9.559 -1.1652  0.5374 -2.8111
  441MOL0     H59469   6.262   5.159   9.453 -2.6252  0.9029 -0.1081
  441MOL0     H59470   6.071   5.325   9.407 -0.6914 -1.9861 -4.3086
  441MOL0     H59471   6.048   5.152   9.404  0.2401 -0.2365 -1.9479
  441MOL0     H59472   5.868   5.236   9.316  2.2269 -0.4722 -0.2029
  441MOL0     H59473   5.817   5.163   9.474  1.1166 -3.8806 -2.3627
  441MOL0     H59474   5.824   5.416   9.557  1.2860 -1.6306  1.2306
  441MOL0     H59475   5.872   5.451   9.394  0.4689  3.5985  3.4534
  441MOL0     H59476   5.678   5.389   9.282  0.1255  1.3761 -0.7249
  441MOL0     H59477   5.607   5.313   9.420 -2.3093  1.7266  1.0624
  441MOL0     H59478   5.665   5.616   9.416 -0.3540  0.7656 -1.4663
  441MOL0     H59479   5.509   5.544   9.387 -1.8029 -1.3874  2.5037
  441MOL0     H59480   5.650   5.500   9.653 -1.2956 -1.7401  0.3093
  441MOL0     H59481   5.558   5.651   9.611 -4.5263 -1.0833  1.8718
  441MOL0     H59482   5.368   5.527   9.555  0.0804  1.3331  1.3080
  441MOL0     H59483   5.443   5.376   9.611  1.4744  0.6881  0.3161
  441MOL0     H59484   5.392   5.623   9.794  0.9081  0.1359 -1.0009
  441MOL0     H59485   5.443   5.462   9.839  0.4634  0.9142 -0.3519
  441MOL0     H59486   5.192   5.693   9.793  0.4168  0.4020  1.3982
  441MOL0     H59487   4.902   5.695   9.799 -0.0326  1.7857  1.3111
  441MOL0     H59488   4.837   5.548   9.856  0.7878 -1.2309  2.6136
  441MOL0     H59489   4.843   5.726  10.028 -0.2269  1.3413 -0.8745
  441MOL0     H59490   5.019   5.752   9.998  0.4412 -0.4663 -0.0798
  441MOL0     H59491   4.970   5.620  10.219  0.9808  1.1648 -1.1447
  441MOL0     H59492   5.078   5.547  10.110 -0.2863 -0.6919 -0.0442
  441MOL0     H59493   4.914   5.388  10.203  0.3785 -0.6983 -0.3736
  441MOL0     H59494   4.894   5.402  10.024  0.3632  1.5518 -0.7102
  441MOL0     H59495   4.781   5.228  10.099  0.0522 -1.1346 -1.5277
  441MOL0     H59496   4.565   5.001   9.992  0.7136  1.5238 -0.7353
  441MOL0     H59497   4.730   5.037  10.051 -0.2450  1.3482 -2.7014
  441MOL0     H59498   4.610   4.978  10.162  1.8690 -0.6596  0.5793
  441MOL0     H59499   4.120   5.058  10.252 -0.1900 -2.0957 -0.1732
  441MOL0     H59500   3.922   4.915  10.268  0.6180  0.1702  0.2712
  441MOL0     H59501   3.704   4.779  10.240 -2.9123 -0.7072 -1.1353
  441MOL0     H59502   3.687   4.950  10.302  0.0219  0.7393  0.6820
  441MOL0     H59503   3.495   4.821  10.104  1.3688 -0.8303  0.1637
  441MOL0     H59504   3.473   4.794  10.277 -0.3255  0.4066 -0.4046
  441MOL0     H59505   3.399   5.037  10.126  1.9967  0.1967 -0.4996
  441MOL0     H59506   3.495   5.063  10.282 -0.4070 -1.0839  1.8700
  441MOL0     H59507   3.246   4.897  10.234  0.3311  0.3752 -0.1387
  441MOL0     H59508   3.313   4.922  10.393  0.8173 -1.1654 -0.2884
  441MOL0     H59509   3.218   5.159  10.228 -1.1815  1.3891  0.3778
  441MOL0     H59510   3.296   5.148  10.397  1.0029 -2.0121  0.0834
  441MOL0     H59511   3.026   5.046  10.309 -0.3916  1.5152  0.1138
  441MOL0     H59512   3.106   4.987  10.462  0.6132 -0.3980  1.1561
  441MOL0     H59513   3.056   5.282  10.387  0.0931 -0.3613 -0.5078
  441MOL0     H59514   3.128   5.210  10.541  2.9436 -1.7547 -0.6141
  441MOL0     H59515   2.923   5.098  10.594  2.5203  1.9769  1.9446
  441MOL0     H59516   2.843   5.131  10.440 -1.7136 -0.3215  2.2937
  441MOL0     H59517   3.793   5.051   9.884 -0.6464 -3.3925 -0.4829
  441MOL0     H59518   4.016   5.164   9.855 -0.6935 -0.2087  0.3597
  441MOL0     H59519   4.314   5.395  10.089  1.3401  3.3485  0.0835
  441MOL0     H59520   4.492   5.552  10.136 -0.8073 -0.4508  1.0405
  441MOL0     H59521   6.103   5.287   9.815 -1.2418  0.0974  0.2511
  441MOL0     H59522   6.330   5.325   9.905  1.5275  0.7876  0.0650
  441MOL0     H59523   6.734   5.344  10.118  1.6116  1.1434  1.4104
  441MOL0     H59524   6.984   5.364  10.146  1.5295 -0.3202  0.4398
  441MOL0     H59525   7.216   5.391  10.138  0.5044  0.1946 -0.1705
  441MOL0     H59526   7.192   5.221  10.184 -5.4670  3.6323  1.1969
  441MOL0     H59527   7.421   5.353  10.018  2.6309 -2.6309 -1.7422
  441MOL0     H59528   7.414   5.176  10.064  3.1481  1.0060  0.8682
  441MOL0     H59529   7.450   5.212  10.283  0.7442  1.8471  2.1114
  441MOL0     H59530   7.444   5.385  10.281  0.3550  1.9238 -1.5435
  441MOL0     H59531   7.669   5.215  10.144  2.3148  1.3642  0.5863
  441MOL0     H59532   7.673   5.298  10.290  1.6693  2.4784 -0.1286
  441MOL0     H59533   7.725   5.609  10.023 -1.7165 -1.6556 -1.5305
  441MOL0     H59534   7.040   5.177   9.767 -1.8134 -0.4124 -0.4421
  441MOL0     H59535   6.806   5.179   9.726 -0.4883 -2.7667  0.7264
  442MOL0     O59536   3.377   6.898   6.135  1.0685 -0.5401 -0.5260
  442MOL0     C59537   3.260   6.871   6.103  0.4062  1.3528 -0.2901
  442MOL0     O59538   3.216   6.756   6.035 -0.3105  0.5016 -0.8149
  442MOL0     C59539   3.309   6.661   5.999  0.0469 -0.1046  0.5508
  442MOL0     C59540   3.308   6.619   5.868 -0.3473 -0.3339 -0.3076
  442MOL0     C59541   3.401   6.517   5.827  1.2654 -0.3392 -0.0322
  442MOL0     C59542   3.483   6.447   5.919 -0.1774  0.0999 -0.3684
  442MOL0     O59543   3.552   6.330   5.901  0.1862 -0.1830 -0.0601
  442MOL0     C59544   3.557   6.272   5.769 -0.0299 -0.0786  0.0976
  442MOL0     C59545   3.670   6.316   5.679  0.0333  0.4501  0.7292
  442MOL0     C59546   3.706   6.213   5.564  0.2327  0.4442 -0.3936
  442MOL0     C59547   3.818   6.262   5.471 -0.0669 -0.5933 -0.2356
  442MOL0     C59548   3.886   6.136   5.416  0.7561 -0.1911 -0.4508
  442MOL0     C59549   4.023   6.172   5.353  0.0101  0.3327  0.5937
  442MOL0     C59550   4.090   6.052   5.280  0.4599 -0.4271  1.1377
  442MOL0     C59551   4.147   5.934   5.357  0.6153 -0.6141 -0.5618
  442MOL0     N59552   4.238   5.966   5.477  0.2244  0.0874 -0.1508
  442MOL0     C59553   4.348   6.044   5.478 -0.1460 -0.2852  1.0300
  442MOL0     C59554   4.370   6.084   5.604 -0.5574 -0.3328 -0.4816
  442MOL0     C59555   4.472   6.188   5.654 -0.0347  0.4770 -0.0781
  442MOL0     C59556   4.413   6.326   5.670 -0.0850  0.5971  0.0403
  442MOL0     C59557   4.319   6.347   5.795 -0.3869 -0.3560  0.3900
  442MOL0     C59558   4.179   6.284   5.793  0.4249  0.0274  0.2541
  442MOL0     O59559   4.086   6.361   5.870 -0.4444  0.9261 -1.2777
  442MOL0     C59560   3.981   6.283   5.917  0.0874  0.1374 -1.1090
  442MOL0     C59561   3.936   6.162   5.867  1.2482  0.1961 -0.0107
  442MOL0     C59562   3.833   6.091   5.931  0.3101 -0.6186 -0.2968
  442MOL0     C59563   3.799   5.952   5.880 -0.2432 -0.5586  0.1681
  442MOL0     C59564   3.766   6.151   6.047 -0.3629 -0.4615  0.0389
  442MOL0     C59565   3.646   6.090   6.112 -0.6675  0.0484  0.1366
  442MOL0     O59566   3.551   6.175   6.167  0.3685 -0.6374  0.6090
  442MOL0     C59567   3.427   6.121   6.189  0.6050  0.2162 -0.6128
  442MOL0     C59568   3.391   6.086   6.318 -0.0665  0.0878 -0.0656
  442MOL0     C59569   3.264   6.037   6.350  0.5475 -0.2218  0.0342
  442MOL0     C59570   3.168   6.015   6.246 -0.8311 -0.6782  0.6848
  442MOL0     O59571   3.054   5.945   6.263  0.2009  0.0456  0.2235
  442MOL0     C59572   2.970   5.986   6.378  0.5130  0.1529  0.4417
  442MOL0     C59573   2.948   5.873   6.482  0.2974  0.4913  0.1947
  442MOL0     C59574   2.874   5.940   6.607 -0.4024 -0.3762 -0.4231
  442MOL0     C59575   2.806   5.837   6.696 -0.1603 -0.2312 -0.8431
  442MOL0     C59576   2.724   5.892   6.813 -0.9269  0.3972  0.2880
  442MOL0     C59577   2.802   5.998   6.902 -0.1193  0.9139  0.2727
  442MOL0     C59578   2.756   6.004   7.052 -0.3294  0.7475  0.2642
  442MOL0     C59579   2.840   6.108   7.132 -0.0337  0.3723  0.0791
  442MOL0    Cl59580   2.817   6.271   7.076 -0.7933 -0.2725  0.3556
  442MOL0     C59581   3.200   6.054   6.119 -0.3791 -0.0301 -0.4998
  442MOL0     C59582   3.327   6.105   6.092  0.0860 -0.2027  0.5882
  442MOL0     O59583   3.639   5.963   6.108  0.2337 -0.4299  0.1036
  442MOL0     C59584   3.809   6.281   6.086  0.6617  0.4620  0.5662
  442MOL0     C59585   3.913   6.344   6.023 -0.5656 -0.1517 -0.0171
  442MOL0     N59586   4.283   6.010   5.680  0.3691 -0.5207  0.2653
  442MOL0     N59587   4.203   5.947   5.603 -0.4441  0.7956  0.1590
  442MOL0     C59588   3.476   6.492   6.056  0.7076  0.1412  0.3277
  442MOL0     C59589   3.394   6.599   6.093 -0.4382  0.0342  0.4331
  442MOL0     C59590   3.164   6.964   6.150 -0.3261 -0.5048  0.2861
  442MOL0     C59591   3.031   6.933   6.182  0.1572  0.7414  1.0958
  442MOL0     C59592   2.950   7.032   6.233  0.1289 -0.0485 -0.1108
  442MOL0     C59593   2.991   7.163   6.256  0.4515  0.1425 -0.5319
  442MOL0     O59594   2.896   7.244   6.306 -0.5982 -0.6996 -0.0648
  442MOL0     C59595   2.935   7.377   6.353 -0.2977  0.0872  0.0221
  442MOL0     C59596   2.805   7.464   6.383 -0.3616 -0.3136  0.0109
  442MOL0     C59597   2.730   7.515   6.250  0.9224 -0.0353  0.1007
  442MOL0     C59598   2.624   7.622   6.283  0.2121 -0.2104 -1.0149
  442MOL0     C59599   2.508   7.559   6.354  1.1719  0.2625 -0.0185
  442MOL0     C59600   2.412   7.523   6.429  0.3782  0.4579 -0.5037
  442MOL0     C59601   3.120   7.196   6.221 -0.3251 -0.0272 -1.0879
  442MOL0     C59602   3.211   7.101   6.169  0.0993  0.2569 -0.1438
  442MOL0     H59603   3.245   6.668   5.793 -2.6961  0.2799  1.9219
  442MOL0     H59604   3.399   6.490   5.722 -1.6350  0.3604 -0.2180
  442MOL0     H59605   3.567   6.168   5.801 -0.7869  0.1094  0.9852
  442MOL0     H59606   3.458   6.282   5.724 -0.4385 -0.5229  0.8857
  442MOL0     H59607   3.640   6.413   5.638 -1.3056 -0.3081 -0.1516
  442MOL0     H59608   3.765   6.326   5.732  0.4890  0.7297 -0.1230
  442MOL0     H59609   3.744   6.123   5.615 -0.7237  0.7877  0.9783
  442MOL0     H59610   3.618   6.190   5.503 -0.0346 -0.8477  0.4140
  442MOL0     H59611   3.767   6.323   5.397 -0.1795  1.2224  1.2691
  442MOL0     H59612   3.887   6.324   5.530 -1.4103  1.0617 -0.3396
  442MOL0     H59613   3.898   6.049   5.481 -0.0702 -0.1549 -0.2372
  442MOL0     H59614   3.817   6.093   5.342  2.2255 -1.7622 -0.9779
  442MOL0     H59615   4.011   6.269   5.304 -1.8920  0.3039  0.9542
  442MOL0     H59616   4.099   6.190   5.430  1.2039 -1.9064  0.0430
  442MOL0     H59617   4.021   6.017   5.204 -0.4798  1.8122  0.8834
  442MOL0     H59618   4.167   6.095   5.217 -1.0252  1.5483  0.5752
  442MOL0     H59619   4.196   5.863   5.290 -1.6917 -1.8978 -0.9844
  442MOL0     H59620   4.066   5.876   5.404  0.0371  0.4663 -0.2067
  442MOL0     H59621   4.407   6.064   5.389  1.6301 -2.5892  1.6013
  442MOL0     H59622   4.503   6.172   5.758  0.2454  0.1314 -0.2164
  442MOL0     H59623   4.560   6.184   5.589 -0.2506 -1.4019 -0.3217
  442MOL0     H59624   4.353   6.337   5.579  0.4689 -4.7342 -1.2901
  442MOL0     H59625   4.490   6.402   5.685 -1.7353  1.9357  2.4397
  442MOL0     H59626   4.299   6.454   5.809  1.3899 -0.0095  0.5262
  442MOL0     H59627   4.377   6.324   5.885  2.1574 -0.1030 -1.1111
  442MOL0     H59628   4.187   6.187   5.842  1.0092 -0.3359 -0.5510
  442MOL0     H59629   4.145   6.271   5.690  0.1885 -0.6291  0.4092
  442MOL0     H59630   3.985   6.111   5.785  2.9316  1.1015  0.3826
  442MOL0     H59631   3.804   5.876   5.958 -0.7957 -0.2107  0.5465
  442MOL0     H59632   3.694   5.950   5.849 -0.0113 -0.8316 -0.6245
  442MOL0     H59633   3.870   5.927   5.800 -0.3248  1.1277 -0.4780
  442MOL0     H59634   3.466   6.094   6.397 -0.2917  0.9159  0.0692
  442MOL0     H59635   3.253   5.984   6.445 -2.1418  1.9811  1.1060
  442MOL0     H59636   3.020   6.066   6.433 -0.7701  1.3069 -0.0021
  442MOL0     H59637   2.870   6.013   6.343  0.3650 -0.8363  0.0517
  442MOL0     H59638   2.873   5.804   6.442 -1.0550  2.1150 -0.1603
  442MOL0     H59639   3.042   5.822   6.504  1.1719  1.1385 -1.7657
  442MOL0     H59640   2.784   5.997   6.583 -0.1492  0.5740  0.8065
  442MOL0     H59641   2.946   6.005   6.657 -1.5454  1.8956 -1.5461
  442MOL0     H59642   2.733   5.777   6.641 -2.1725  1.1093  0.2757
  442MOL0     H59643   2.880   5.771   6.743 -2.3837 -1.0274  1.7882
  442MOL0     H59644   2.704   5.802   6.871  0.5762 -1.2202 -1.5660
  442MOL0     H59645   2.635   5.938   6.770 -1.7263 -3.0503 -2.1384
  442MOL0     H59646   2.908   5.970   6.906 -0.5525 -0.9888 -0.4107
  442MOL0     H59647   2.783   6.098   6.862 -6.1064  0.0382  0.0309
  442MOL0     H59648   2.766   5.904   7.096 -2.2871  1.2322  1.9707
  442MOL0     H59649   2.648   6.021   7.055 -0.2950  1.1840 -0.6989
  442MOL0     H59650   2.943   6.076   7.115 -1.3770 -3.3977 -2.1695
  442MOL0     H59651   2.826   6.118   7.240  3.7932  4.7336  0.4705
  442MOL0     H59652   3.124   6.038   6.044  0.5665  1.5561 -1.8600
  442MOL0     H59653   3.366   6.130   5.994  5.5582 -1.5655  2.0573
  442MOL0     H59654   3.753   6.330   6.165  0.9036 -0.9837  1.6706
  442MOL0     H59655   3.948   6.438   6.065  0.8941 -1.9145  2.9710
  442MOL0     H59656   3.524   6.458   6.147  1.8916  2.2951  0.5790
  442MOL0     H59657   3.391   6.622   6.199  2.8730  0.3877  0.5604
  442MOL0     H59658   2.989   6.833   6.178  0.0916  0.7864  0.5536
  442MOL0     H59659   2.844   7.018   6.252  0.5936 -1.3886  1.8697
  442MOL0     H59660   3.002   7.372   6.440 -1.0007  0.3799  0.5894
  442MOL0     H59661   2.996   7.433   6.281  0.5821 -1.2674 -0.3269
  442MOL0     H59662   2.849   7.550   6.435  1.5654 -0.5624 -1.1009
  442MOL0     H59663   2.736   7.407   6.445  0.7674 -1.1956  0.4864
  442MOL0     H59664   2.687   7.429   6.199 -1.7859  0.9303  0.5989
  442MOL0     H59665   2.799   7.558   6.177 -1.0506  0.8642 -1.3349
  442MOL0     H59666   2.591   7.661   6.186  2.3394  5.2849  0.1184
  442MOL0     H59667   2.664   7.708   6.337  0.0184  1.8909 -3.9849
  442MOL0     H59668   2.326   7.489   6.483  1.7409 -0.6439  1.0275
  442MOL0     H59669   3.157   7.297   6.235 -0.7030  0.3317 -2.5166
  442MOL0     H59670   3.309   7.138   6.143 -0.3678  0.1323 -2.2046
  443MOL0     O59671   4.414  10.892   1.004  0.7308 -0.6578  0.2878
  443MOL0     C59672   4.496  10.811   1.058 -0.3448  0.1120 -0.1302
  443MOL0     O59673   4.459  10.689   1.114  0.2220 -0.5594 -0.3882
  443MOL0     C59674   4.338  10.645   1.153  0.0600 -0.0760  0.5580
  443MOL0     C59675   4.311  10.515   1.195  0.1975  0.9996  0.6974
  443MOL0     C59676   4.182  10.470   1.239 -0.4516 -0.4815  0.2693
  443MOL0     C59677   4.076  10.560   1.240  0.6149 -0.6889 -0.4313
  443MOL0     O59678   3.963  10.517   1.292  0.3858 -0.0610 -0.7575
  443MOL0     C59679   3.838  10.594   1.269  0.9916  0.3115 -0.2547
  443MOL0     C59680   3.710  10.511   1.283 -0.6007 -1.1012 -0.1735
  443MOL0     C59681   3.607  10.609   1.227 -0.0323  0.3568  0.7676
  443MOL0     C59682   3.475  10.527   1.225  0.2994 -0.6491 -0.4825
  443MOL0     C59683   3.363  10.621   1.215  0.8923 -0.0966 -1.1039
  443MOL0     C59684   3.368  10.714   1.096 -0.1974 -0.3497  1.0731
  443MOL0     C59685   3.249  10.820   1.103 -0.6255  0.1488 -0.3261
  443MOL0     C59686   3.112  10.760   1.058  0.4066  0.4253 -0.2859
  443MOL0     N59687   2.996  10.853   1.066  0.7993  0.7801  0.3847
  443MOL0     C59688   2.866  10.825   1.036 -0.8825 -0.1020 -0.0574
  443MOL0     C59689   2.790  10.927   1.060 -0.2676 -0.7742 -0.4371
  443MOL0     C59690   2.638  10.929   1.050 -0.7676  0.6690 -0.1266
  443MOL0     C59691   2.571  10.861   1.169 -0.3876 -0.2333  0.7501
  443MOL0     C59692   2.422  10.889   1.168 -0.2179  0.4042  0.2986
  443MOL0     C59693   2.341  10.846   1.041 -0.0457  0.1216 -0.3030
  443MOL0     O59694   2.200  10.845   1.068 -0.3599  0.5288 -0.7614
  443MOL0     C59695   2.119  10.781   0.974 -0.3565  0.3361  0.1403
  443MOL0     C59696   2.155  10.754   0.837  0.8052  0.9089 -0.4075
  443MOL0     C59697   2.060  10.704   0.739  0.0560 -0.2949  0.3235
  443MOL0     C59698   2.113  10.687   0.594  0.0840 -0.1977 -0.7473
  443MOL0     C59699   1.925  10.680   0.788  0.1033 -0.8826  0.0493
  443MOL0     C59700   1.829  10.609   0.711  0.2036 -0.6973 -0.4804
  443MOL0     O59701   1.732  10.555   0.782  0.0935 -0.2768  0.5170
  443MOL0     C59702   1.643  10.475   0.712  0.0520 -0.3505  0.3591
  443MOL0     C59703   1.676  10.340   0.675 -0.3944 -0.5298 -0.1198
  443MOL0     C59704   1.581  10.253   0.631  0.8930 -0.3610  0.4468
  443MOL0     C59705   1.450  10.288   0.614  0.1493  0.3819  0.6564
  443MOL0     O59706   1.365  10.193   0.557  0.9367  0.1767 -0.2283
  443MOL0     C59707   1.234  10.236   0.536 -0.0012  0.7784  1.0823
  443MOL0     C59708   1.149  10.109   0.520 -0.2489  0.2780 -0.0969
  443MOL0     C59709   0.995  10.152   0.507 -0.9271 -0.1197 -0.2686
  443MOL0     C59710   0.903  10.026   0.483  0.0716 -0.3514  0.1089
  443MOL0     C59711   0.751  10.059   0.479 -0.3275 -0.2228  0.8088
  443MOL0     C59712   0.709  10.113   0.349 -0.8899 -0.9112 -0.1853
  443MOL0     C59713   0.562  10.120   0.331  0.8425  0.1129 -0.1119
  443MOL0     C59714   0.521  10.241   0.243 -0.3117 -0.1537  0.7174
  443MOL0    Cl59715   0.501  10.398   0.330 -0.0152  0.1958  0.0040
  443MOL0     C59716   1.415  10.425   0.652  0.4484 -0.9236  0.3264
  443MOL0     C59717   1.508  10.506   0.701  1.1204 -0.1911  0.9729
  443MOL0     O59718   1.833  10.612   0.587 -0.3574 -0.2223 -0.1515
  443MOL0     C59719   1.896  10.702   0.924 -0.4962  0.8117  0.8091
  443MOL0     C59720   1.986  10.758   1.014  0.4913  0.0858  0.6000
  443MOL0     N59721   2.877  11.027   1.099  0.4090  0.4803  0.0568
  443MOL0     N59722   3.001  10.985   1.100 -0.0681  0.2869  0.2602
  443MOL0     C59723   4.102  10.699   1.207 -0.1482 -0.0717  0.2424
  443MOL0     C59724   4.228  10.730   1.156  0.3411  0.2878  0.1332
  443MOL0     C59725   4.639  10.842   1.056 -1.1427  0.7653  0.0647
  443MOL0     C59726   4.729  10.757   1.106 -0.1535  0.7286  0.8207
  443MOL0     C59727   4.863  10.802   1.112  0.2420 -0.7606  0.1236
  443MOL0     C59728   4.910  10.926   1.056  1.1226 -0.3220  0.2909
  443MOL0     O59729   5.044  10.948   1.060 -0.0698  0.3966  1.5224
  443MOL0     C59730   5.089  11.044   0.967 -0.5332  0.0978  0.0266
  443MOL0     C59731   5.243  11.047   0.970  0.4140 -0.3336 -0.3606
  443MOL0     C59732   5.304  11.128   1.102  0.5840 -0.1249  0.2912
  443MOL0     C59733   5.455  11.133   1.111  0.2064 -0.2809  0.4018
  443MOL0     C59734   5.496  11.268   1.094  0.4437 -0.3108 -0.1212
  443MOL0     C59735   5.527  11.387   1.101  0.6490 -0.2757 -0.4565
  443MOL0     C59736   4.808  11.015   1.007  0.1454  0.0002  0.0262
  443MOL0     C59737   4.676  10.965   1.003  0.4187  0.0010  0.6356
  443MOL0     H59738   4.387  10.438   1.191 -0.1016  0.7564 -1.0076
  443MOL0     H59739   4.168  10.364   1.261  0.0048 -0.5324  0.3246
  443MOL0     H59740   3.837  10.673   1.345 -1.5419 -0.0299  0.1537
  443MOL0     H59741   3.852  10.640   1.171  2.6041  2.2863  0.8169
  443MOL0     H59742   3.723  10.423   1.220  0.6436  0.2094 -1.8357
  443MOL0     H59743   3.696  10.472   1.384  1.7836 -4.4471 -0.9885
  443MOL0     H59744   3.608  10.704   1.282 -0.6738  0.6225  0.3330
  443MOL0     H59745   3.634  10.642   1.126  2.2797 -0.2991  1.0999
  443MOL0     H59746   3.476  10.462   1.137  3.2911 -1.6781  0.1883
  443MOL0     H59747   3.469  10.463   1.314 -0.8489 -0.6710 -0.5585
  443MOL0     H59748   3.279  10.551   1.219 -0.4697  1.5163 -0.3430
  443MOL0     H59749   3.358  10.678   1.308  0.7991 -1.5497 -0.1801
  443MOL0     H59750   3.466  10.761   1.106  1.3568 -3.4521  1.8515
  443MOL0     H59751   3.368  10.661   1.000 -1.0599 -2.4277  2.1580
  443MOL0     H59752   3.248  10.847   1.209  0.2450  2.3441 -0.8305
  443MOL0     H59753   3.262  10.907   1.039  1.3665 -0.1652 -0.4359
  443MOL0     H59754   3.087  10.676   1.123  3.4466  1.3761  2.4001
  443MOL0     H59755   3.131  10.717   0.959  1.4466 -2.9677  1.2572
  443MOL0     H59756   2.821  10.732   1.003  2.1513 -2.0540  0.8773
  443MOL0     H59757   2.608  11.034   1.046 -0.7758  0.6280 -1.8123
  443MOL0     H59758   2.619  10.881   0.954  0.4800 -0.3946  0.1100
  443MOL0     H59759   2.623  10.904   1.254  1.7374  1.9286 -1.4637
  443MOL0     H59760   2.577  10.752   1.175 -3.5720 -0.6727 -1.1705
  443MOL0     H59761   2.396  10.986   1.211  1.3720  0.6126  0.9035
  443MOL0     H59762   2.384  10.817   1.241 -0.0159  1.2675  1.2943
  443MOL0     H59763   2.377  10.747   1.012  0.6759  0.5790 -0.9959
  443MOL0     H59764   2.387  10.902   0.959  2.0057 -0.7365  0.2223
  443MOL0     H59765   2.254  10.775   0.796  0.2228  0.4952 -2.1019
  443MOL0     H59766   2.216  10.722   0.594  0.4855 -1.3570 -0.4684
  443MOL0     H59767   2.111  10.589   0.546 -1.2241  0.8448 -3.0197
  443MOL0     H59768   2.061  10.759   0.529  0.4563  0.3565 -0.4380
  443MOL0     H59769   1.779  10.309   0.686 -0.0003  0.8916  0.3823
  443MOL0     H59770   1.614  10.155   0.599  1.2535 -0.0347 -0.2066
  443MOL0     H59771   1.191  10.289   0.622  0.5145  3.2807 -0.1049
  443MOL0     H59772   1.225  10.297   0.445 -1.9214 -0.3893  0.4202
  443MOL0     H59773   1.172  10.067   0.421 -0.1164  0.6539 -0.2245
  443MOL0     H59774   1.172  10.038   0.601  1.9249  1.3566  0.2969
  443MOL0     H59775   0.991  10.229   0.429  3.2987  0.0369 -0.5715
  443MOL0     H59776   0.963  10.198   0.601  0.3177  1.5621 -0.6040
  443MOL0     H59777   0.923   9.980   0.386 -2.7290 -1.7864  0.1116
  443MOL0     H59778   0.927   9.946   0.554  4.2578 -1.2842 -2.0399
  443MOL0     H59779   0.735  10.132   0.559  0.7817 -0.2960  1.1168
  443MOL0     H59780   0.700   9.967   0.511  0.0529  0.2830  3.0436
  443MOL0     H59781   0.744  10.216   0.335 -2.3993 -0.2497  0.6862
  443MOL0     H59782   0.755  10.052   0.271  0.5997 -0.2473  0.1452
  443MOL0     H59783   0.508  10.117   0.426 -1.4325  1.4999 -1.2591
  443MOL0     H59784   0.525  10.037   0.270 -0.1616  0.3486  0.1531
  443MOL0     H59785   0.422  10.218   0.204 -0.8163  0.3371  1.6792
  443MOL0     H59786   0.594  10.248   0.161  1.4503 -0.0365  2.2321
  443MOL0     H59787   1.314  10.463   0.650 -0.0022 -2.1050 -0.0462
  443MOL0     H59788   1.473  10.604   0.731 -0.4206  0.0904 -1.4766
  443MOL0     H59789   1.801  10.664   0.961 -0.9793  0.6516 -0.5520
  443MOL0     H59790   1.949  10.774   1.114  0.0150  0.6591  0.3389
  443MOL0     H59791   4.023  10.772   1.209 -3.1973 -2.7867 -3.7193
  443MOL0     H59792   4.238  10.830   1.114  0.3880  0.6049  0.8863
  443MOL0     H59793   4.697  10.657   1.134 -1.7379  0.1483 -2.6158
  443MOL0     H59794   4.922  10.729   1.165 -0.6758 -2.9973 -1.7506
  443MOL0     H59795   5.053  11.026   0.865  0.9098  0.9475 -0.6702
  443MOL0     H59796   5.038  11.138   0.989 -6.1910 -2.5266  0.0232
  443MOL0     H59797   5.283  11.104   0.886  0.4250 -0.1446 -0.2269
  443MOL0     H59798   5.287  10.947   0.975  1.8393  0.3262  2.2293
  443MOL0     H59799   5.261  11.083   1.192 -0.1578  1.9640  1.0402
  443MOL0     H59800   5.271  11.232   1.096  1.3617  0.1946  1.1953
  443MOL0     H59801   5.514  11.079   1.036 -0.9882 -1.0524 -0.0173
  443MOL0     H59802   5.495  11.103   1.208  1.6110 -1.1813 -0.4035
  443MOL0     H59803   5.552  11.490   1.118 -1.7201  0.1720  0.7409
  443MOL0     H59804   4.834  11.112   0.968  2.2080 -0.5410 -0.0804
  443MOL0     H59805   4.595  11.020   0.955  1.6587  0.8227 -0.5860
  444MOL0     O59806   9.097   4.280   2.364  0.8198 -0.2215  0.6115
  444MOL0     C59807   9.131   4.305   2.249  0.1045 -0.2609  0.2106
  444MOL0     O59808   9.053   4.371   2.156  0.0531 -0.2548 -0.0288
  444MOL0     C59809   8.919   4.375   2.178  0.5321  0.1429 -0.0224
  444MOL0     C59810   8.840   4.281   2.247  0.4263  0.1401 -0.3508
  444MOL0     C59811   8.700   4.294   2.266 -0.0430  0.0481 -0.5944
  444MOL0     C59812   8.636   4.406   2.216 -0.5886  0.5069 -0.0250
  444MOL0     O59813   8.503   4.440   2.234  0.1644  0.3780  0.4046
  444MOL0     C59814   8.399   4.341   2.242  0.9045  0.4891  0.0079
  444MOL0     C59815   8.279   4.403   2.308 -0.1001  0.2297  0.8673
  444MOL0     C59816   8.203   4.509   2.218 -0.2673 -0.0584  0.3710
  444MOL0     C59817   8.058   4.459   2.183 -0.4453 -0.0077  0.4815
  444MOL0     C59818   7.974   4.556   2.097 -0.2032 -0.0653 -0.1172
  444MOL0     C59819   7.828   4.523   2.104 -0.3437 -0.4051  0.4743
  444MOL0     C59820   7.748   4.560   2.230 -0.5067 -0.5591 -0.2101
  444MOL0     C59821   7.683   4.699   2.217 -0.3692  0.0858  0.3437
  444MOL0     N59822   7.777   4.809   2.198 -0.2078  0.4331  0.3057
  444MOL0     C59823   7.850   4.864   2.298 -0.2564 -0.1130  0.2369
  444MOL0     C59824   7.909   4.965   2.226 -0.0992 -0.3691 -0.3867
  444MOL0     C59825   8.016   5.052   2.290  0.3632 -0.2835 -0.1746
  444MOL0     C59826   8.149   5.030   2.221 -0.4039  0.7757 -0.2207
  444MOL0     C59827   8.272   5.093   2.283  0.1353 -0.4983  0.4618
  444MOL0     C59828   8.389   5.088   2.177  0.1966 -0.3065  0.0464
  444MOL0     O59829   8.359   5.126   2.038  0.3802 -0.1520  0.9772
  444MOL0     C59830   8.450   5.095   1.940 -0.4388 -0.0250  0.2564
  444MOL0     C59831   8.418   5.136   1.809 -0.3113 -0.1554 -0.2552
  444MOL0     C59832   8.511   5.119   1.702 -0.3615  0.1808  0.1844
  444MOL0     C59833   8.455   5.172   1.574 -0.1035  0.2367 -0.6469
  444MOL0     C59834   8.637   5.067   1.725 -0.4701  0.2409 -1.0842
  444MOL0     C59835   8.744   5.062   1.619 -0.3499 -0.2396 -0.4085
  444MOL0     O59836   8.877   5.054   1.660  1.1561 -0.1510  0.0996
  444MOL0     C59837   8.978   5.055   1.568  0.5084 -0.1431  0.2495
  444MOL0     C59838   9.093   5.011   1.637 -0.0379 -0.3912 -0.4424
  444MOL0     C59839   9.215   4.996   1.564  0.2734  1.1046 -0.9945
  444MOL0     C59840   9.214   5.006   1.422 -0.8288  0.6561  0.3310
  444MOL0     O59841   9.332   4.991   1.349 -0.0030  0.4342 -0.0283
  444MOL0     C59842   9.426   4.894   1.385 -0.3678  0.4399 -0.6096
  444MOL0     C59843   9.540   4.901   1.288  0.2806  0.6625  0.1799
  444MOL0     C59844   9.654   4.798   1.319 -0.5704  0.3107  1.0088
  444MOL0     C59845   9.632   4.656   1.256  1.1156  0.2133  0.0548
  444MOL0     C59846   9.749   4.558   1.262  0.6790  0.0734  0.4436
  444MOL0     C59847   9.745   4.468   1.141  0.6468 -0.6160  0.0876
  444MOL0     C59848   9.856   4.369   1.150  0.5119  0.0918  0.1811
  444MOL0     C59849   9.995   4.400   1.210  0.1991 -0.1894  0.4524
  444MOL0    Cl59850  10.093   4.247   1.221 -0.7939 -0.3015  0.2803
  444MOL0     C59851   9.100   5.057   1.358 -0.0257 -0.6978 -0.1444
  444MOL0     C59852   8.983   5.080   1.433  0.1439 -1.0717 -0.0670
  444MOL0     O59853   8.707   5.060   1.500  0.5232 -0.4132  0.7021
  444MOL0     C59854   8.668   5.021   1.860 -0.6853 -1.2474  0.6664
  444MOL0     C59855   8.573   5.033   1.961 -0.1425 -0.4528  0.1051
  444MOL0     N59856   7.882   4.948   2.090 -0.9881 -0.3977 -0.3550
  444MOL0     N59857   7.799   4.863   2.081 -0.3313  0.6853  0.3524
  444MOL0     C59858   8.715   4.501   2.145  0.7337 -0.1555 -0.8564
  444MOL0     C59859   8.848   4.487   2.127  0.1034 -0.6827  0.0540
  444MOL0     C59860   9.267   4.271   2.204 -0.5387  0.2940  1.3251
  444MOL0     C59861   9.302   4.277   2.066  0.7764  0.4286 -0.0062
  444MOL0     C59862   9.433   4.262   2.024 -0.0063  0.3692 -0.5634
  444MOL0     C59863   9.529   4.243   2.120 -0.1016  0.8272  0.0310
  444MOL0     O59864   9.656   4.227   2.070 -0.4084 -0.7198  0.2821
  444MOL0     C59865   9.763   4.262   2.154 -1.1002  0.0602 -0.8659
  444MOL0     C59866   9.825   4.137   2.221  0.3321  0.4472  0.4366
  444MOL0     C59867   9.880   4.158   2.363  0.3445 -0.3185  0.0163
  444MOL0     C59868   9.998   4.262   2.367 -0.8335  0.1076  1.0329
  444MOL0     C59869  10.113   4.191   2.300 -0.0760 -0.9477  0.0138
  444MOL0     C59870  10.224   4.155   2.259 -0.0426  0.4495 -0.0390
  444MOL0     C59871   9.497   4.236   2.260 -0.1322 -0.4491 -0.1633
  444MOL0     C59872   9.365   4.247   2.296  0.9452  0.1590  0.5851
  444MOL0     H59873   8.873   4.189   2.294 -1.5963  0.6746  2.3998
  444MOL0     H59874   8.650   4.211   2.316 -2.1430  0.0173 -2.5817
  444MOL0     H59875   8.358   4.312   2.145  4.4437  0.1188 -1.5360
  444MOL0     H59876   8.433   4.251   2.293  2.8241 -0.1233 -2.1499
  444MOL0     H59877   8.210   4.320   2.327  0.4637  0.1603  2.8087
  444MOL0     H59878   8.309   4.432   2.409  1.4372 -4.1222  1.8746
  444MOL0     H59879   8.192   4.606   2.267 -0.1655  0.4719 -0.6231
  444MOL0     H59880   8.260   4.528   2.126 -3.3039 -2.7408 -2.3237
  444MOL0     H59881   8.066   4.364   2.130 -0.3380  1.2982 -1.9775
  444MOL0     H59882   7.997   4.430   2.269  0.2273 -1.4307  0.5009
  444MOL0     H59883   7.988   4.661   2.122  0.6798  0.2365 -1.7086
  444MOL0     H59884   8.008   4.533   1.995 -0.9515 -0.8773 -0.1936
  444MOL0     H59885   7.778   4.570   2.018 -0.3448  2.4514  1.9327
  444MOL0     H59886   7.818   4.417   2.079  1.8106 -0.5680  0.1706
  444MOL0     H59887   7.673   4.480   2.232 -0.5069 -0.7760 -3.5246
  444MOL0     H59888   7.811   4.553   2.319  2.4995 -0.2963 -2.1709
  444MOL0     H59889   7.621   4.723   2.303 -0.4438  1.5147 -0.0969
  444MOL0     H59890   7.609   4.692   2.137 -1.5542 -1.6692  1.4895
  444MOL0     H59891   7.856   4.829   2.400 -1.8997 -1.8814 -0.2312
  444MOL0     H59892   7.982   5.156   2.284 -2.8908 -1.0061  2.5736
  444MOL0     H59893   8.015   5.027   2.397 -2.3001 -0.1960 -0.1190
  444MOL0     H59894   8.141   5.077   2.123  3.7084  1.4795 -0.3800
  444MOL0     H59895   8.168   4.923   2.207 -0.8582  0.8178 -1.2922
  444MOL0     H59896   8.289   5.034   2.374 -0.5542 -0.1640  0.8137
  444MOL0     H59897   8.253   5.198   2.305 -0.0038 -0.8082  1.9158
  444MOL0     H59898   8.433   4.988   2.187  2.5698  0.6727  0.1376
  444MOL0     H59899   8.476   5.143   2.214  1.4121 -2.3449  0.4135
  444MOL0     H59900   8.319   5.178   1.793 -1.1882 -1.1024  2.1315
  444MOL0     H59901   8.527   5.248   1.543  2.4974 -2.4809 -1.7205
  444MOL0     H59902   8.449   5.089   1.503  0.8087  0.9033 -1.5272
  444MOL0     H59903   8.353   5.209   1.587 -1.3768 -3.3574  0.7915
  444MOL0     H59904   9.094   4.993   1.744  2.0634 -1.3413 -0.5702
  444MOL0     H59905   9.304   4.967   1.618 -1.7868 -0.3469  1.8843
  444MOL0     H59906   9.460   4.913   1.487 -0.0339 -2.1146 -0.1778
  444MOL0     H59907   9.373   4.800   1.403 -2.6338  1.9600  1.3935
  444MOL0     H59908   9.520   4.889   1.181 -0.2796  4.7070 -0.2953
  444MOL0     H59909   9.579   5.003   1.296  0.2881  0.7129 -0.3906
  444MOL0     H59910   9.672   4.787   1.426 -3.4367  1.2866  1.6667
  444MOL0     H59911   9.744   4.843   1.274  0.1826  0.6727  2.7930
  444MOL0     H59912   9.551   4.606   1.310  2.1992 -0.3406  1.2312
  444MOL0     H59913   9.608   4.676   1.151 -1.7131  2.5883  1.0059
  444MOL0     H59914   9.749   4.501   1.356 -0.2772 -1.7103 -0.5843
  444MOL0     H59915   9.838   4.621   1.254 -1.0153  3.0268  2.6726
  444MOL0     H59916   9.646   4.421   1.142 -1.5156  3.4782 -0.2513
  444MOL0     H59917   9.740   4.518   1.044 -3.7834 -1.6053 -0.4336
  444MOL0     H59918   9.877   4.341   1.046 -2.6071  2.6996 -1.3093
  444MOL0     H59919   9.823   4.274   1.194  0.8060 -0.0102  0.1873
  444MOL0     H59920   9.975   4.433   1.313  1.2337  2.7482 -0.1886
  444MOL0     H59921  10.045   4.486   1.163 -1.9267  0.5869 -0.5232
  444MOL0     H59922   9.093   5.061   1.250 -1.9066  0.2786 -0.0410
  444MOL0     H59923   8.902   5.112   1.369  0.8240  1.9762  0.4555
  444MOL0     H59924   8.768   4.979   1.863 -0.4687 -1.0467 -1.7513
  444MOL0     H59925   8.597   4.989   2.057 -3.2983  1.9366  2.2032
  444MOL0     H59926   8.653   4.576   2.098  1.8073  0.6704 -0.9707
  444MOL0     H59927   8.908   4.556   2.069 -0.9430  1.0129  0.9129
  444MOL0     H59928   9.221   4.292   1.996  0.2568 -1.0424  0.2517
  444MOL0     H59929   9.458   4.273   1.918  1.8194  3.5911  0.0835
  444MOL0     H59930   9.839   4.322   2.103 -0.8874  0.3535 -0.2064
  444MOL0     H59931   9.740   4.336   2.230 -0.1617  1.1772 -1.6371
  444MOL0     H59932   9.903   4.105   2.151 -0.8253 -0.2747 -0.5480
  444MOL0     H59933   9.757   4.053   2.236  1.3240 -0.3809  0.4547
  444MOL0     H59934   9.924   4.062   2.394  1.4059  0.6109  1.4899
  444MOL0     H59935   9.803   4.200   2.429 -0.4204  1.7125 -2.0448
  444MOL0     H59936  10.018   4.281   2.473 -1.0027 -1.1953  1.3142
  444MOL0     H59937   9.972   4.358   2.323 -1.1761  0.0520  1.1038
  444MOL0     H59938  10.316   4.114   2.224 -0.7566  0.4840 -2.0845
  444MOL0     H59939   9.567   4.206   2.337  1.3013  3.5180  0.2783
  444MOL0     H59940   9.349   4.240   2.403  0.6473  2.6560  0.7756
  445MOL0     O59941   7.373   3.973   7.668 -0.0057 -0.2415 -0.3871
  445MOL0     C59942   7.441   3.930   7.578  0.6604  0.1948  0.3745
  445MOL0     O59943   7.400   3.829   7.497  0.3284 -0.4165  0.5834
  445MOL0     C59944   7.269   3.792   7.487 -0.1545  0.0485  0.5573
  445MOL0     C59945   7.236   3.655   7.491  0.1717 -0.1106 -0.5347
  445MOL0     C59946   7.105   3.607   7.465  0.3690 -0.3209 -0.1174
  445MOL0     C59947   7.007   3.702   7.428  0.6559  0.2324 -0.0009
  445MOL0     O59948   6.883   3.665   7.394 -0.4130 -0.0496 -0.0910
  445MOL0     C59949   6.816   3.590   7.494  0.0418 -0.3692  0.7591
  445MOL0     C59950   6.668   3.603   7.468  0.4438  0.3768  0.3415
  445MOL0     C59951   6.588   3.509   7.566 -0.8096  1.2468  0.8576
  445MOL0     C59952   6.438   3.542   7.581 -0.1247 -1.1297 -0.7440
  445MOL0     C59953   6.348   3.433   7.658 -0.3432 -0.1655  0.5213
  445MOL0     C59954   6.209   3.493   7.669  0.1707 -0.6298 -0.4489
  445MOL0     C59955   6.115   3.409   7.753 -0.5209  0.0953  0.2748
  445MOL0     C59956   5.986   3.490   7.759 -0.9014 -0.0237  0.6282
  445MOL0     N59957   5.885   3.427   7.848  0.9116 -0.4468 -0.3311
  445MOL0     C59958   5.847   3.298   7.843 -0.0365  0.4583  0.2110
  445MOL0     C59959   5.751   3.291   7.942  0.6884  0.2169  0.3919
  445MOL0     C59960   5.689   3.159   7.986  0.3564  0.0828 -0.1220
  445MOL0     C59961   5.597   3.108   7.878  0.0082 -0.0234 -0.0649
  445MOL0     C59962   5.530   2.971   7.908  0.2576 -0.0001 -0.0717
  445MOL0     C59963   5.414   2.917   7.818  0.1921 -0.3159 -0.1516
  445MOL0     O59964   5.318   3.017   7.793  0.8271 -0.4146  0.4635
  445MOL0     C59965   5.184   2.985   7.777 -0.5621  0.0340  0.0529
  445MOL0     C59966   5.090   3.084   7.777 -0.0415 -0.1551 -0.0881
  445MOL0     C59967   4.955   3.076   7.766 -0.4988 -0.1389 -0.3236
  445MOL0     C59968   4.872   3.199   7.745 -0.7493 -0.6955 -0.1275
  445MOL0     C59969   4.896   2.939   7.775  0.3827 -0.3548  0.2516
  445MOL0     C59970   4.745   2.908   7.774  0.3953 -0.1188 -0.5528
  445MOL0     O59971   4.716   2.782   7.741 -0.4361  0.3263 -0.1207
  445MOL0     C59972   4.588   2.747   7.710  0.7819 -0.7217 -0.1381
  445MOL0     C59973   4.501   2.728   7.814 -0.2773 -0.5061 -0.5301
  445MOL0     C59974   4.374   2.682   7.786 -0.3886  0.0954  0.5578
  445MOL0     C59975   4.323   2.670   7.654 -0.2992 -0.0995  0.1400
  445MOL0     O59976   4.200   2.613   7.633  0.0741 -0.2671  0.8191
  445MOL0     C59977   4.178   2.546   7.504  1.4200 -0.1958 -0.2760
  445MOL0     C59978   4.051   2.458   7.517  0.4677 -0.9979 -0.1963
  445MOL0     C59979   3.918   2.547   7.516 -0.1147 -0.3009  0.0349
  445MOL0     C59980   3.798   2.460   7.522 -0.0440 -0.2530  0.3651
  445MOL0     C59981   3.668   2.537   7.547  0.2019  0.8244  0.6582
  445MOL0     C59982   3.542   2.451   7.573  0.6108  0.1308  0.5219
  445MOL0     C59983   3.409   2.533   7.595 -0.3819  0.1048 -0.8768
  445MOL0     C59984   3.272   2.462   7.601 -0.8489  0.2139  0.5287
  445MOL0    Cl59985   3.206   2.415   7.436 -0.2251  0.1599 -0.2140
  445MOL0     C59986   4.414   2.711   7.550  0.5711  0.9130  0.0922
  445MOL0     C59987   4.541   2.749   7.579 -0.9071 -0.4964 -0.6271
  445MOL0     O59988   4.664   2.989   7.815 -0.2674  0.1113  0.1579
  445MOL0     C59989   4.994   2.834   7.780 -0.2407 -0.6231  1.0484
  445MOL0     C59990   5.132   2.856   7.790  0.4613 -0.0188  0.9831
  445MOL0     N59991   5.746   3.411   8.014  0.7812  0.0195  0.2261
  445MOL0     N59992   5.823   3.489   7.949 -0.0973 -0.2256 -1.1516
  445MOL0     C59993   7.038   3.834   7.413 -0.1412  0.1703 -1.0466
  445MOL0     C59994   7.169   3.880   7.440  0.6388 -0.5744  0.5868
  445MOL0     C59995   7.582   3.955   7.589  1.2840 -0.3323 -0.1167
  445MOL0     C59996   7.685   3.888   7.526  0.4713  0.9311 -0.3527
  445MOL0     C59997   7.823   3.921   7.557  0.3135 -0.3441 -0.5578
  445MOL0     C59998   7.865   4.003   7.665  0.3627 -0.3181 -0.4654
  445MOL0     O59999   7.990   4.039   7.707  0.0605 -0.0255  0.0389
  445MOL0     C60000   8.094   3.967   7.635 -0.3373  0.3182 -0.3070
  445MOL0     C60001   8.224   4.043   7.671  0.2199  0.3281  0.2287
  445MOL0     C60002   8.246   4.089   7.816 -0.7897  0.1914  0.5728
  445MOL0     C60003   8.387   4.145   7.840  0.7038 -0.2311  0.9409
  445MOL0     C60004   8.488   4.048   7.869 -0.3160  0.5696  0.0428
  445MOL0     C60005   8.575   3.964   7.892  0.0186  0.2160  0.2593
  445MOL0     C60006   7.762   4.065   7.732  0.5523 -0.2156  0.4129
  445MOL0     C60007   7.626   4.057   7.680 -0.1333 -0.6623  0.4590
  445MOL0     H60008   7.320   3.592   7.519 -0.4355  0.3957  2.9449
  445MOL0     H60009   7.073   3.507   7.491  0.8809 -0.0642  1.6331
  445MOL0     H60010   6.849   3.486   7.485  0.6143  0.0184 -3.7514
  445MOL0     H60011   6.832   3.620   7.598 -1.5393 -3.6985  2.1098
  445MOL0     H60012   6.628   3.699   7.499  0.2605  0.5662 -0.4591
  445MOL0     H60013   6.652   3.582   7.362  0.0952 -0.7621  0.6046
  445MOL0     H60014   6.594   3.410   7.520  0.7220  1.7102 -0.0005
  445MOL0     H60015   6.633   3.505   7.665  0.7749  2.0256  0.2025
  445MOL0     H60016   6.438   3.644   7.621 -1.3211  0.1684 -3.7018
  445MOL0     H60017   6.392   3.551   7.482  1.2373  0.2129 -1.2832
  445MOL0     H60018   6.344   3.348   7.589 -1.8473  0.0098  0.3665
  445MOL0     H60019   6.389   3.393   7.752 -2.1107 -0.8461  1.0555
  445MOL0     H60020   6.219   3.591   7.716 -1.2994 -0.3847 -0.6034
  445MOL0     H60021   6.166   3.507   7.569 -1.2743  0.3360  0.2734
  445MOL0     H60022   6.096   3.308   7.716 -1.7302 -0.3502  1.9488
  445MOL0     H60023   6.156   3.394   7.854 -2.0876  1.0500  1.0914
  445MOL0     H60024   5.940   3.489   7.659 -2.1801 -1.8895  1.1768
  445MOL0     H60025   6.009   3.591   7.791 -0.5893 -0.4570  1.8152
  445MOL0     H60026   5.876   3.221   7.772  1.7861  0.3790  0.9797
  445MOL0     H60027   5.763   3.086   8.019 -0.2548  0.4241  2.1327
  445MOL0     H60028   5.634   3.178   8.078 -3.0010 -0.1154 -1.8979
  445MOL0     H60029   5.649   3.105   7.782  4.8277  0.8922  2.2563
  445MOL0     H60030   5.515   3.181   7.872  0.1563  0.0931 -0.7840
  445MOL0     H60031   5.498   2.969   8.013  1.2042 -1.4922  0.2125
  445MOL0     H60032   5.607   2.894   7.899 -0.1124 -0.4458  0.4835
  445MOL0     H60033   5.375   2.841   7.887  0.4751 -0.5064 -0.1998
  445MOL0     H60034   5.446   2.867   7.726  0.4425 -2.1611  0.8840
  445MOL0     H60035   5.126   3.186   7.778 -0.5819  0.0432  0.4919
  445MOL0     H60036   4.792   3.185   7.672 -1.1244 -0.1878  0.1794
  445MOL0     H60037   4.838   3.226   7.845  1.8301  3.3347 -0.1152
  445MOL0     H60038   4.938   3.281   7.713  1.6742 -2.7731 -0.8196
  445MOL0     H60039   4.542   2.729   7.914 -1.7429  1.0006  0.1165
  445MOL0     H60040   4.303   2.677   7.868 -0.4690  4.3542  0.9495
  445MOL0     H60041   4.160   2.615   7.422  1.8072  0.2816  0.0316
  445MOL0     H60042   4.261   2.476   7.488  2.2470  0.0936  2.2454
  445MOL0     H60043   4.052   2.396   7.427  4.4447  0.3758 -1.3348
  445MOL0     H60044   4.056   2.398   7.609 -2.8953 -0.3079  0.5509
  445MOL0     H60045   3.924   2.609   7.426 -0.1468  0.4386  0.5305
  445MOL0     H60046   3.914   2.620   7.598  0.6223  1.9351 -1.7890
  445MOL0     H60047   3.773   2.409   7.428  0.0684  2.8470 -1.5035
  445MOL0     H60048   3.814   2.388   7.602  5.8227 -0.5765 -0.6520
  445MOL0     H60049   3.642   2.601   7.462 -1.7385  0.7492  1.1492
  445MOL0     H60050   3.682   2.603   7.633  1.4515 -1.9032  2.7138
  445MOL0     H60051   3.516   2.393   7.484 -1.0220  4.4069 -2.0926
  445MOL0     H60052   3.567   2.388   7.659  1.5497 -0.2036  0.0167
  445MOL0     H60053   3.412   2.611   7.518  0.6812 -0.2234 -1.1934
  445MOL0     H60054   3.429   2.588   7.687  0.4443  0.2938 -1.1512
  445MOL0     H60055   3.195   2.529   7.640 -1.7660 -0.4180 -0.1227
  445MOL0     H60056   3.279   2.371   7.661 -0.4321  0.1381  0.3631
  445MOL0     H60057   4.376   2.694   7.450  0.0101 -1.8380  0.6746
  445MOL0     H60058   4.612   2.759   7.498  0.6205  1.0386  0.8162
  445MOL0     H60059   4.980   2.727   7.791  2.7305 -1.1685  0.3844
  445MOL0     H60060   5.198   2.770   7.784  0.6386  0.0923  1.3533
  445MOL0     H60061   6.953   3.902   7.405 -1.6087 -1.4598 -0.1038
  445MOL0     H60062   7.206   3.981   7.430  2.6418 -1.3562 -0.3536
  445MOL0     H60063   7.659   3.804   7.463 -2.6893  0.3666  1.5032
  445MOL0     H60064   7.898   3.870   7.496 -0.7696 -2.1146 -0.4999
  445MOL0     H60065   8.113   3.865   7.670 -0.9231 -1.2260 -3.9937
  445MOL0     H60066   8.094   3.967   7.526  2.7103  0.4287 -0.4080
  445MOL0     H60067   8.228   4.138   7.617  4.3072  0.0193 -0.3140
  445MOL0     H60068   8.308   3.979   7.642 -0.2777 -0.2745  0.0839
  445MOL0     H60069   8.233   4.011   7.891  2.9491 -0.4085  0.7944
  445MOL0     H60070   8.172   4.166   7.841 -2.2534 -1.1327  0.4683
  445MOL0     H60071   8.382   4.199   7.935 -0.2301 -0.4503  1.0188
  445MOL0     H60072   8.416   4.206   7.754  1.4078 -3.2043 -1.0754
  445MOL0     H60073   8.654   3.893   7.903  2.4318  2.6463 -0.0836
  445MOL0     H60074   7.788   4.132   7.814  0.1122  1.3817 -0.6966
  445MOL0     H60075   7.551   4.107   7.740  0.2021  1.5163 -0.8146
  446MOL0     O60076   8.364   1.965   0.258  0.3608 -0.3370  0.3241
  446MOL0     C60077   8.450   2.050   0.287  0.2246 -0.5114  0.2114
  446MOL0     O60078   8.426   2.154   0.379 -0.2598  0.1286  0.2912
  446MOL0     C60079   8.302   2.180   0.419 -0.3613  0.4796 -0.4152
  446MOL0     C60080   8.289   2.215   0.549  0.1876 -0.3670  0.5273
  446MOL0     C60081   8.159   2.259   0.594 -0.4612  0.9988 -0.2203
  446MOL0     C60082   8.053   2.271   0.504  0.5533  1.0301  0.6025
  446MOL0     O60083   7.929   2.317   0.532  0.1942 -0.3043 -0.5809
  446MOL0     C60084   7.915   2.402   0.649  0.0686 -0.0483 -0.0037
  446MOL0     C60085   7.815   2.516   0.625 -0.1195 -0.1341  0.3271
  446MOL0     C60086   7.677   2.456   0.608 -0.0314  0.0728 -0.1836
  446MOL0     C60087   7.592   2.580   0.565 -0.0453  0.7487  0.5343
  446MOL0     C60088   7.447   2.537   0.589  0.3830 -0.1618 -0.1606
  446MOL0     C60089   7.407   2.415   0.514 -0.0330  0.0032 -0.4933
  446MOL0     C60090   7.254   2.394   0.528 -0.1233 -0.3911  0.6613
  446MOL0     C60091   7.200   2.287   0.434  0.0198  0.2011 -0.0881
  446MOL0     N60092   7.067   2.253   0.477  0.2696 -0.3597 -0.1731
  446MOL0     C60093   7.007   2.158   0.561 -0.1137 -0.1495  0.0526
  446MOL0     C60094   6.872   2.173   0.552 -0.0046 -0.0696 -0.5348
  446MOL0     C60095   6.766   2.091   0.630  0.7446  0.1275  0.1651
  446MOL0     C60096   6.642   2.174   0.688  0.4533 -0.1770  0.2428
  446MOL0     C60097   6.533   2.211   0.589  0.3046  0.4248  0.5021
  446MOL0     C60098   6.405   2.278   0.642  0.2070  0.4089 -0.6184
  446MOL0     O60099   6.324   2.307   0.529  0.3277 -0.6922  0.0363
  446MOL0     C60100   6.197   2.296   0.560 -0.3543 -0.3528  0.4128
  446MOL0     C60101   6.136   2.417   0.596  0.2886  0.5459  0.3039
  446MOL0     C60102   5.995   2.414   0.616  1.1293  0.2995  0.7493
  446MOL0     C60103   5.932   2.546   0.655  0.3247 -0.4449 -0.6660
  446MOL0     C60104   5.922   2.292   0.605 -0.4443 -0.3487 -0.4353
  446MOL0     C60105   5.774   2.286   0.611  0.4054 -0.4007 -1.1920
  446MOL0     O60106   5.732   2.179   0.681  0.3898 -0.2365  0.3594
  446MOL0     C60107   5.602   2.148   0.660 -0.7631 -0.6474  0.1346
  446MOL0     C60108   5.572   2.045   0.564  0.1639 -0.2746  0.9124
  446MOL0     C60109   5.438   2.017   0.543  0.5892  1.0842 -0.3881
  446MOL0     C60110   5.335   2.091   0.602 -0.0914  1.0395  0.2282
  446MOL0     O60111   5.202   2.064   0.593 -0.1943 -0.3690  0.0510
  446MOL0     C60112   5.160   1.929   0.620  0.1736 -0.6202 -0.3241
  446MOL0     C60113   5.162   1.904   0.774 -0.2507  0.6466 -0.8398
  446MOL0     C60114   5.085   2.000   0.865 -0.3793 -0.8707  0.5748
  446MOL0     C60115   4.936   2.001   0.838 -0.0760 -0.3368  0.6928
  446MOL0     C60116   4.869   2.098   0.927 -0.2138 -0.3540 -0.1848
  446MOL0     C60117   4.727   2.097   0.878  0.1626 -0.6182  0.4763
  446MOL0     C60118   4.632   2.180   0.973 -0.7321  0.7527  0.4469
  446MOL0     C60119   4.492   2.168   0.930 -0.9985 -0.1237  0.1463
  446MOL0    Cl60120   4.487   2.256   0.774  0.3066 -0.0487  0.5200
  446MOL0     C60121   5.371   2.195   0.684  0.0219 -0.0239 -0.3155
  446MOL0     C60122   5.503   2.220   0.722  0.0431  0.5168 -0.0707
  446MOL0     O60123   5.705   2.357   0.537 -0.6983  0.1438  0.3394
  446MOL0     C60124   5.990   2.180   0.569 -0.0018 -0.0011 -0.0495
  446MOL0     C60125   6.127   2.174   0.540 -0.4959 -0.5806  0.1771
  446MOL0     N60126   6.847   2.275   0.465 -0.1962  0.2692 -0.3050
  446MOL0     N60127   6.963   2.330   0.429 -0.4228  0.7493  0.4168
  446MOL0     C60128   8.070   2.237   0.376 -0.3695 -0.5043  0.6942
  446MOL0     C60129   8.195   2.187   0.331  0.1065 -0.0158  0.2371
  446MOL0     C60130   8.592   2.021   0.244 -0.2360  0.1623 -0.0521
  446MOL0     C60131   8.633   1.911   0.168 -0.3413  0.0106 -0.3280
  446MOL0     C60132   8.770   1.883   0.142 -0.1843 -0.6537  0.0625
  446MOL0     C60133   8.873   1.971   0.180  0.3491 -0.2352 -0.4610
  446MOL0     O60134   9.002   1.932   0.144  0.3720 -0.4082  0.5607
  446MOL0     C60135   9.109   2.026   0.156  0.2030  0.3566  1.1223
  446MOL0     C60136   9.207   1.985   0.257 -0.0608  0.3297 -0.2255
  446MOL0     C60137   9.139   1.921   0.382  0.5190 -0.9601 -0.2834
  446MOL0     C60138   9.241   1.893   0.495  0.0301  1.2079  0.4513
  446MOL0     C60139   9.350   1.796   0.458  0.4857 -0.8208  0.5431
  446MOL0     C60140   9.433   1.716   0.416  0.0728 -0.6173 -0.4624
  446MOL0     C60141   8.829   2.067   0.279  0.2073 -0.3400  0.7798
  446MOL0     C60142   8.691   2.098   0.304 -0.6779  0.4077 -0.0702
  446MOL0     H60143   8.383   2.216   0.603  0.4318  1.0740  0.1323
  446MOL0     H60144   8.152   2.295   0.696 -0.9919  0.6552 -0.1302
  446MOL0     H60145   7.879   2.335   0.727  2.3948 -1.3421  0.0458
  446MOL0     H60146   8.003   2.455   0.685 -2.0525  2.7087  1.5058
  446MOL0     H60147   7.801   2.578   0.715 -1.6484 -0.0519  0.0594
  446MOL0     H60148   7.848   2.574   0.539 -2.1389 -0.2142 -0.5479
  446MOL0     H60149   7.677   2.370   0.540  1.1310  0.5301 -0.7936
  446MOL0     H60150   7.647   2.410   0.702  1.0410  2.4236  1.4146
  446MOL0     H60151   7.617   2.662   0.633 -0.2661 -0.9018  2.7300
  446MOL0     H60152   7.608   2.616   0.463  4.0652  0.8007  1.0060
  446MOL0     H60153   7.416   2.512   0.691  0.7241 -1.0833 -0.2751
  446MOL0     H60154   7.386   2.620   0.552 -0.2500  0.6301  2.4416
  446MOL0     H60155   7.429   2.435   0.409  1.7516  2.0846  0.2012
  446MOL0     H60156   7.468   2.332   0.551 -1.3929 -1.4901 -1.4658
  446MOL0     H60157   7.239   2.366   0.632  1.2548 -0.8250  0.7512
  446MOL0     H60158   7.196   2.485   0.508 -0.4844 -0.6416  0.5598
  446MOL0     H60159   7.250   2.191   0.450  0.1686  0.0630 -1.2415
  446MOL0     H60160   7.215   2.304   0.326  1.6661 -2.7499 -0.4328
  446MOL0     H60161   7.058   2.077   0.614 -0.0068 -0.2328 -0.1759
  446MOL0     H60162   6.730   2.014   0.560 -0.2214  0.3327  0.4249
  446MOL0     H60163   6.795   2.039   0.722 -3.8146 -0.1437  1.7081
  446MOL0     H60164   6.668   2.268   0.739  2.3654  0.5519 -1.9394
  446MOL0     H60165   6.590   2.115   0.765 -1.8010  1.7420  0.3368
  446MOL0     H60166   6.509   2.129   0.521 -0.3879 -0.1757  1.4515
  446MOL0     H60167   6.586   2.280   0.522 -0.0444 -3.0684 -3.7980
  446MOL0     H60168   6.429   2.376   0.686 -2.3645  0.4528  0.9281
  446MOL0     H60169   6.365   2.211   0.718  3.3116 -1.1404 -0.2223
  446MOL0     H60170   6.203   2.502   0.603  1.4604 -0.3376  0.2904
  446MOL0     H60171   5.968   2.570   0.755  0.3071  1.1508 -1.0225
  446MOL0     H60172   5.962   2.627   0.588  1.3298  1.5042  1.9958
  446MOL0     H60173   5.824   2.549   0.675  0.5858 -1.5872  1.1207
  446MOL0     H60174   5.647   2.006   0.496  0.1611  0.1083  0.6863
  446MOL0     H60175   5.409   1.943   0.470  0.9441  0.6497 -0.0972
  446MOL0     H60176   5.055   1.921   0.590 -0.0220 -2.3650  0.6936
  446MOL0     H60177   5.234   1.857   0.584  1.1287 -0.6438  1.5590
  446MOL0     H60178   5.116   1.805   0.784  0.8096 -0.4544 -4.9812
  446MOL0     H60179   5.266   1.888   0.802 -0.8208  1.2853  1.9589
  446MOL0     H60180   5.125   2.102   0.866 -0.4428 -0.8263 -0.4715
  446MOL0     H60181   5.097   1.971   0.970 -1.3683  0.7885  1.1796
  446MOL0     H60182   4.929   2.040   0.736  0.3442 -2.9900 -0.4389
  446MOL0     H60183   4.901   1.898   0.832 -0.1089 -0.2353 -2.4558
  446MOL0     H60184   4.905   2.200   0.913 -1.5112  0.0050 -1.1189
  446MOL0     H60185   4.882   2.067   1.031 -3.6801  1.5756  1.0027
  446MOL0     H60186   4.731   2.135   0.775  3.2225  1.5989  1.2636
  446MOL0     H60187   4.683   1.997   0.871 -0.4891 -0.3039 -0.0379
  446MOL0     H60188   4.654   2.287   0.976 -0.9974  0.8090  0.4064
  446MOL0     H60189   4.648   2.148   1.077 -0.4043  0.3156  0.2649
  446MOL0     H60190   4.419   2.215   0.997 -0.7845  1.3697 -0.6255
  446MOL0     H60191   4.470   2.061   0.923  0.3963 -0.8415  4.2536
  446MOL0     H60192   5.294   2.247   0.741  0.8425 -0.6375  1.4096
  446MOL0     H60193   5.524   2.297   0.795 -1.3183 -0.6155  1.6058
  446MOL0     H60194   5.934   2.090   0.545 -3.1911  2.2455 -1.8188
  446MOL0     H60195   6.174   2.088   0.492 -1.4895 -0.7881 -0.4424
  446MOL0     H60196   7.985   2.230   0.310 -0.3896  0.9192  0.5528
  446MOL0     H60197   8.197   2.155   0.227 -2.6707  0.5786 -0.0637
  446MOL0     H60198   8.562   1.843   0.122 -0.3459  1.2537 -2.2702
  446MOL0     H60199   8.797   1.796   0.084  0.5115 -1.2619  1.2563
  446MOL0     H60200   9.154   2.037   0.057 -1.6175 -1.3731  0.0202
  446MOL0     H60201   9.073   2.126   0.184 -1.1654 -0.2097  1.4866
  446MOL0     H60202   9.270   2.068   0.290  1.4025 -1.0709  0.6036
  446MOL0     H60203   9.274   1.918   0.202 -1.6175 -1.3145 -0.2126
  446MOL0     H60204   9.084   1.832   0.353 -0.7262  0.2458 -1.8076
  446MOL0     H60205   9.065   1.986   0.428 -1.0066 -2.4683 -0.5310
  446MOL0     H60206   9.192   1.846   0.580  1.7709  0.3536  1.0130
  446MOL0     H60207   9.292   1.979   0.539  2.6222  0.2032 -0.4240
  446MOL0     H60208   9.512   1.653   0.380  1.3030  1.1621 -1.0009
  446MOL0     H60209   8.900   2.128   0.333  1.3543  0.5074 -1.5226
  446MOL0     H60210   8.674   2.171   0.383  0.3087 -0.8898  1.3839
  447MOL0     O60211   6.790   8.858   8.627 -0.3504 -0.1642  0.5021
  447MOL0     C60212   6.900   8.804   8.609 -0.5552  1.1554 -0.0102
  447MOL0     O60213   6.927   8.664   8.636  0.5214 -0.9420 -0.6400
  447MOL0     C60214   6.819   8.589   8.684 -0.6089  0.7474 -0.8037
  447MOL0     C60215   6.717   8.630   8.781  0.0792  0.1480 -0.2966
  447MOL0     C60216   6.614   8.546   8.811  0.5766  0.9533  0.4403
  447MOL0     C60217   6.608   8.412   8.760  0.5019 -0.0921  0.2464
  447MOL0     O60218   6.495   8.347   8.808  0.6659  0.0256  0.4804
  447MOL0     C60219   6.484   8.210   8.778 -0.3554 -0.3890  0.4224
  447MOL0     C60220   6.389   8.153   8.881 -0.5755 -0.3877  0.1924
  447MOL0     C60221   6.247   8.216   8.881 -0.8029  0.2475 -0.2876
  447MOL0     C60222   6.164   8.159   8.999  0.0883 -0.2822  0.2634
  447MOL0     C60223   6.037   8.234   9.016  0.3674 -0.2118 -0.6200
  447MOL0     C60224   5.962   8.161   9.121 -0.0846 -0.0335 -0.6014
  447MOL0     C60225   5.828   8.219   9.155 -0.0206  0.3452 -0.7276
  447MOL0     C60226   5.735   8.260   9.037 -0.5860 -0.7590 -0.0697
  447MOL0     N60227   5.602   8.297   9.086  0.1091 -0.7824  1.2851
  447MOL0     C60228   5.582   8.413   9.147  0.3969 -0.2821 -0.6017
  447MOL0     C60229   5.444   8.424   9.146  0.2383 -0.1070  0.4447
  447MOL0     C60230   5.367   8.541   9.209  0.1147  0.0582  0.4669
  447MOL0     C60231   5.326   8.641   9.097 -0.3033 -0.3359  0.3383
  447MOL0     C60232   5.235   8.756   9.147  0.1691  0.2022 -0.0595
  447MOL0     C60233   5.093   8.713   9.178  0.4312  0.6931  0.3184
  447MOL0     O60234   5.007   8.830   9.181 -0.2758  0.9304 -0.0358
  447MOL0     C60235   4.869   8.831   9.163  0.4992  0.3980  0.0978
  447MOL0     C60236   4.796   8.955   9.163 -0.9777  0.0961  0.1175
  447MOL0     C60237   4.658   8.965   9.145  0.4242 -0.7452 -0.4781
  447MOL0     C60238   4.610   9.110   9.148 -0.2150 -0.4487  0.3751
  447MOL0     C60239   4.582   8.851   9.126 -0.2088  0.1445 -0.3165
  447MOL0     C60240   4.436   8.856   9.093 -0.1030  0.1579 -0.2789
  447MOL0     O60241   4.353   8.948   9.142 -0.4907  0.2146  0.0950
  447MOL0     C60242   4.226   8.952   9.103 -0.2872  0.4516  0.8701
  447MOL0     C60243   4.175   8.932   8.980 -0.4512  1.2617  0.6873
  447MOL0     C60244   4.044   8.946   8.957  0.0563  0.6584 -0.1017
  447MOL0     C60245   3.950   8.965   9.058  0.1024 -0.6094  0.4280
  447MOL0     O60246   3.815   8.976   9.039  0.3390  0.5449 -0.1532
  447MOL0     C60247   3.768   8.982   8.904  0.7312  0.2592  0.3009
  447MOL0     C60248   3.621   9.019   8.910  0.5286 -1.0656 -0.1831
  447MOL0     C60249   3.560   9.032   8.774 -0.5607 -0.4504  0.9342
  447MOL0     C60250   3.415   9.081   8.782  0.3290 -0.2454 -0.6247
  447MOL0     C60251   3.344   9.085   8.652 -0.1333  0.3548 -0.1294
  447MOL0     C60252   3.193   9.132   8.668 -0.5860 -0.4214 -1.0927
  447MOL0     C60253   3.125   9.143   8.523  0.1502  0.2062  0.0551
  447MOL0     C60254   2.973   9.104   8.532 -0.3272 -0.4567  0.2512
  447MOL0    Cl60255   2.910   9.097   8.367 -0.2185  0.4368 -0.1221
  447MOL0     C60256   3.995   8.984   9.185 -0.5318  0.0878 -0.5441
  447MOL0     C60257   4.133   8.982   9.209 -0.2972  0.2488  0.2195
  447MOL0     O60258   4.411   8.769   9.012  0.1784  0.1194  0.0064
  447MOL0     C60259   4.649   8.728   9.137 -0.1340  0.3601  0.4003
  447MOL0     C60260   4.781   8.719   9.165  0.9345  0.2285 -1.4133
  447MOL0     N60261   5.380   8.324   9.077 -0.0763  0.7008  0.5848
  447MOL0     N60262   5.480   8.252   9.034  0.8599  0.5742  0.7176
  447MOL0     C60263   6.708   8.376   8.672  0.4061 -0.1367  0.5555
  447MOL0     C60264   6.811   8.457   8.641 -0.1390  0.0154 -0.0702
  447MOL0     C60265   7.016   8.884   8.555  0.0708 -0.6308  0.5887
  447MOL0     C60266   7.144   8.833   8.567 -0.7563  0.1602 -0.8928
  447MOL0     C60267   7.250   8.914   8.528 -0.0917 -0.3723 -0.0097
  447MOL0     C60268   7.226   9.036   8.459 -0.0011  0.1742 -0.1741
  447MOL0     O60269   7.333   9.100   8.413  0.1429  0.5795  0.6502
  447MOL0     C60270   7.343   9.245   8.429 -0.3430 -0.1688 -0.3862
  447MOL0     C60271   7.382   9.309   8.295 -0.1141 -0.3061  0.2590
  447MOL0     C60272   7.276   9.272   8.191  0.3157 -0.2556  0.0936
  447MOL0     C60273   7.319   9.334   8.054  0.2415  0.3659 -0.8213
  447MOL0     C60274   7.200   9.363   7.972 -0.2891  0.2368 -0.1812
  447MOL0     C60275   7.125   9.405   7.884 -0.1702 -0.1210 -0.6404
  447MOL0     C60276   7.098   9.070   8.431  0.4956  0.2515 -0.4619
  447MOL0     C60277   6.993   9.001   8.488 -0.1582 -0.1204 -0.0563
  447MOL0     H60278   6.707   8.729   8.824 -0.7347 -0.5622  1.2271
  447MOL0     H60279   6.540   8.576   8.885 -1.4634  1.1460 -1.5778
  447MOL0     H60280   6.444   8.202   8.676 -1.9652 -1.4064  1.0968
  447MOL0     H60281   6.580   8.158   8.774 -0.7062 -1.0664  0.7542
  447MOL0     H60282   6.377   8.048   8.852 -0.2720  0.4245 -3.3414
  447MOL0     H60283   6.439   8.156   8.979  0.4269 -0.7390 -0.2975
  447MOL0     H60284   6.241   8.325   8.881 -1.7379  0.2078 -0.4188
  447MOL0     H60285   6.204   8.182   8.786 -1.1358 -3.7771  1.1208
  447MOL0     H60286   6.141   8.053   8.989  0.8789 -0.3822 -0.6408
  447MOL0     H60287   6.229   8.182   9.084  0.5597 -2.4415  0.5337
  447MOL0     H60288   6.039   8.341   9.038  0.2349 -0.3092 -0.1202
  447MOL0     H60289   5.978   8.243   8.925  0.6498  1.1758 -0.6775
  447MOL0     H60290   5.957   8.057   9.087  2.7413 -0.9400  1.4363
  447MOL0     H60291   6.022   8.156   9.212 -0.1018  3.2409 -0.2899
  447MOL0     H60292   5.782   8.134   9.207  1.5411 -0.7534 -1.0695
  447MOL0     H60293   5.844   8.310   9.214  0.6314  0.8368 -1.6498
  447MOL0     H60294   5.736   8.176   8.967 -0.3534  0.1374 -1.1739
  447MOL0     H60295   5.777   8.342   8.979 -0.7039  0.4967  1.5700
  447MOL0     H60296   5.654   8.481   9.189 -2.5330  1.7504  1.5555
  447MOL0     H60297   5.283   8.506   9.269 -1.3421  4.2885  1.2083
  447MOL0     H60298   5.436   8.594   9.275 -0.5606  3.6886 -1.4678
  447MOL0     H60299   5.281   8.590   9.012  1.9573  1.1070 -1.8560
  447MOL0     H60300   5.420   8.688   9.067  0.7657 -1.0633  2.3556
  447MOL0     H60301   5.236   8.824   9.061  3.3044 -0.0296 -0.3068
  447MOL0     H60302   5.281   8.814   9.228  2.9463  1.6027 -2.4282
  447MOL0     H60303   5.094   8.658   9.273  0.3768 -2.3414 -1.3300
  447MOL0     H60304   5.049   8.649   9.101 -1.0544  0.8148  1.0343
  447MOL0     H60305   4.867   9.034   9.187  0.3142 -0.9808 -0.0419
  447MOL0     H60306   4.698   9.175   9.140 -0.4576  0.3347  3.0947
  447MOL0     H60307   4.539   9.134   9.068 -0.4581  2.7564  1.4102
  447MOL0     H60308   4.551   9.139   9.235 -2.6550  0.6427 -1.5106
  447MOL0     H60309   4.239   8.926   8.892 -0.4562 -1.0758  0.7875
  447MOL0     H60310   4.003   8.944   8.857 -1.1878  1.5536  0.3730
  447MOL0     H60311   3.808   9.063   8.843 -2.0028  0.9827 -0.6641
  447MOL0     H60312   3.777   8.887   8.851 -0.8986  0.0795  0.2838
  447MOL0     H60313   3.561   8.954   8.973  0.0686 -0.0276  0.4615
  447MOL0     H60314   3.620   9.123   8.941  0.7758 -1.1277  0.0407
  447MOL0     H60315   3.568   8.932   8.730 -0.2627 -0.0873  0.1347
  447MOL0     H60316   3.626   9.100   8.718  2.2465 -1.7145  2.5124
  447MOL0     H60317   3.363   9.011   8.848  2.8174 -0.8039  0.8686
  447MOL0     H60318   3.414   9.179   8.830  2.5399  0.0634 -1.1325
  447MOL0     H60319   3.351   8.984   8.610  0.1202  0.7872 -1.1706
  447MOL0     H60320   3.404   9.149   8.586  0.7103 -0.7496 -0.4576
  447MOL0     H60321   3.144   9.058   8.732  1.3622 -2.0546 -1.3526
  447MOL0     H60322   3.187   9.226   8.722 -0.8858  0.0846 -1.9925
  447MOL0     H60323   3.189   9.079   8.461 -0.0117  1.2044 -1.1755
  447MOL0     H60324   3.129   9.245   8.484 -0.4430  0.6399  1.0783
  447MOL0     H60325   2.923   9.181   8.592  0.1165 -0.8227  1.1063
  447MOL0     H60326   2.973   9.004   8.577  1.6644 -0.0269  1.2659
  447MOL0     H60327   3.928   9.016   9.265 -1.5065 -0.1573 -1.2490
  447MOL0     H60328   4.169   9.007   9.308  2.4756 -3.7750  0.4597
  447MOL0     H60329   4.593   8.636   9.123  2.5326 -1.2709 -0.3874
  447MOL0     H60330   4.825   8.621   9.181 -1.7326 -0.9587 -0.6898
  447MOL0     H60331   6.684   8.286   8.616 -0.4609  1.6235 -2.0621
  447MOL0     H60332   6.893   8.424   8.577  0.2805  1.6402 -0.4315
  447MOL0     H60333   7.167   8.738   8.614  0.5286 -0.1540 -2.0770
  447MOL0     H60334   7.354   8.884   8.531  0.1695  0.5394  0.4134
  447MOL0     H60335   7.264   9.290   8.490  0.8992  0.0926  1.0776
  447MOL0     H60336   7.430   9.260   8.492 -1.5569  1.0364  1.0635
  447MOL0     H60337   7.474   9.269   8.252  1.0028  0.4684  1.8302
  447MOL0     H60338   7.389   9.417   8.307  1.3743 -0.4351  0.7073
  447MOL0     H60339   7.188   9.329   8.220  1.1295  2.4216 -2.1963
  447MOL0     H60340   7.253   9.166   8.179 -0.0952 -0.0437 -1.1742
  447MOL0     H60341   7.385   9.263   8.003  2.3953  0.9374  0.9689
  447MOL0     H60342   7.374   9.429   8.058  0.8894 -0.0346  0.7768
  447MOL0     H60343   7.039   9.430   7.825 -0.3326  0.6668 -0.0809
  447MOL0     H60344   7.086   9.153   8.363  1.1158 -0.0569 -0.9647
  447MOL0     H60345   6.892   9.040   8.473 -0.4637 -0.7598  0.2833
  448MOL0     O60346   9.868   3.219   2.204  0.0381  0.0709 -0.2787
  448MOL0     C60347   9.888   3.344   2.205  0.3500 -0.0756  0.6686
  448MOL0     O60348  10.013   3.391   2.183 -0.3060 -1.2485  0.8435
  448MOL0     C60349  10.109   3.326   2.112  0.7498  0.8095  0.4676
  448MOL0     C60350  10.241   3.375   2.130 -0.0777 -0.0156  0.2253
  448MOL0     C60351  10.350   3.317   2.073 -0.1427 -1.1202 -0.3564
  448MOL0     C60352  10.332   3.213   1.980 -0.2878  0.4144 -0.8914
  448MOL0     O60353  10.453   3.157   1.938 -0.6226  0.4783 -0.0506
  448MOL0     C60354  10.438   3.046   1.849  0.5907 -0.2925 -0.8616
  448MOL0     C60355  10.565   3.011   1.787 -0.4741  0.3039 -0.3379
  448MOL0     C60356  10.543   2.895   1.693  0.3230  0.2384  0.3292
  448MOL0     C60357  10.674   2.869   1.613 -0.0164 -0.4773 -0.2373
  448MOL0     C60358  10.645   2.787   1.486  0.8037  0.5120  0.4125
  448MOL0     C60359  10.558   2.848   1.379  0.1988 -0.2584  0.9605
  448MOL0     C60360  10.547   2.761   1.248  0.5501  0.2598 -0.3829
  448MOL0     C60361  10.481   2.829   1.125 -1.2500 -0.2256 -0.1485
  448MOL0     N60362  10.350   2.884   1.145 -0.5676 -0.5488 -0.1049
  448MOL0     C60363  10.235   2.804   1.129  0.8696 -0.6669 -0.0955
  448MOL0     C60364  10.127   2.877   1.172 -0.1202 -0.0006 -0.4781
  448MOL0     C60365   9.988   2.817   1.172 -0.5451 -0.0198  0.0419
  448MOL0     C60366   9.875   2.927   1.175 -1.0432 -0.1424  0.6209
  448MOL0     C60367   9.741   2.856   1.186  0.5260 -0.4190  0.4579
  448MOL0     C60368   9.638   2.954   1.252 -0.0702  0.5692 -0.1780
  448MOL0     O60369   9.620   3.065   1.168  0.2498 -0.8155  0.4832
  448MOL0     C60370   9.503   3.133   1.177  0.8104 -0.4004  0.0528
  448MOL0     C60371   9.380   3.100   1.229  0.9493  1.2094 -0.2326
  448MOL0     C60372   9.271   3.189   1.224  0.8286  0.6144  0.2211
  448MOL0     C60373   9.149   3.137   1.307 -0.3155  1.1108  0.7076
  448MOL0     C60374   9.280   3.315   1.164  0.0361  0.4187 -0.2635
  448MOL0     C60375   9.177   3.416   1.152  0.4947  0.4998 -0.1259
  448MOL0     O60376   9.059   3.387   1.225  0.2664  0.0960 -0.1170
  448MOL0     C60377   8.953   3.473   1.222 -0.2357 -0.3955  0.1795
  448MOL0     C60378   8.825   3.416   1.210 -0.3101 -0.1460 -0.0322
  448MOL0     C60379   8.703   3.489   1.204  0.2662 -0.0221  0.3179
  448MOL0     C60380   8.718   3.627   1.213  0.4052 -0.3773 -0.5598
  448MOL0     O60381   8.613   3.710   1.188 -0.3755  0.0127 -0.0643
  448MOL0     C60382   8.508   3.671   1.110  0.7916  0.6445 -0.1393
  448MOL0     C60383   8.438   3.793   1.052 -0.5424  0.3940  0.0373
  448MOL0     C60384   8.348   3.853   1.164 -0.9986 -0.0876  0.3534
  448MOL0     C60385   8.256   3.972   1.105 -0.2694  0.2566 -0.8467
  448MOL0     C60386   8.152   4.008   1.208  0.4833 -0.2305 -0.6771
  448MOL0     C60387   8.055   4.121   1.162  0.0044  0.0037  0.2330
  448MOL0     C60388   7.939   4.128   1.254 -0.4127  0.1796 -0.4192
  448MOL0     C60389   7.826   4.210   1.197 -0.0391 -0.1260 -0.6744
  448MOL0    Cl60390   7.855   4.381   1.227 -0.0957  0.2763  0.2789
  448MOL0     C60391   8.838   3.685   1.235  0.2703  0.7311  0.1938
  448MOL0     C60392   8.960   3.615   1.243 -0.4906 -0.5015  0.6532
  448MOL0     O60393   9.195   3.510   1.078  0.0879  0.5863  0.3369
  448MOL0     C60394   9.398   3.346   1.103 -0.8730  0.3860 -0.6247
  448MOL0     C60395   9.503   3.252   1.104 -0.3250  0.0961 -0.8205
  448MOL0     N60396  10.178   3.003   1.197  0.2150  0.4153  0.3849
  448MOL0     N60397  10.317   3.005   1.185  1.1913  0.5693 -0.2827
  448MOL0     C60398  10.200   3.168   1.960 -0.2186 -0.0374  0.9533
  448MOL0     C60399  10.093   3.211   2.031 -0.0084  0.0417  0.7536
  448MOL0     C60400   9.782   3.448   2.218  0.1480  1.7502 -0.1133
  448MOL0     C60401   9.660   3.411   2.283  0.6738 -0.8080 -0.0524
  448MOL0     C60402   9.558   3.497   2.306 -0.6137  0.8339  0.0620
  448MOL0     C60403   9.565   3.626   2.249  0.4615  0.1900  0.1254
  448MOL0     O60404   9.445   3.702   2.261 -0.9424  0.2844 -0.3372
  448MOL0     C60405   9.448   3.838   2.219  0.0047  0.2942  0.1031
  448MOL0     C60406   9.305   3.881   2.184  0.5512 -0.0340 -0.2192
  448MOL0     C60407   9.221   3.904   2.314  0.1541 -0.0779  0.6162
  448MOL0     C60408   9.083   3.923   2.271  0.2704 -0.0965 -0.0677
  448MOL0     C60409   8.985   3.925   2.378  0.1661 -0.3978 -0.5918
  448MOL0     C60410   8.908   3.929   2.474 -0.4668 -0.9029 -0.1022
  448MOL0     C60411   9.689   3.663   2.195 -0.3201  0.3133  0.3991
  448MOL0     C60412   9.799   3.577   2.183  0.5063 -0.2106 -0.4135
  448MOL0     H60413  10.256   3.466   2.189 -0.4361  0.4586 -0.4033
  448MOL0     H60414  10.449   3.361   2.081 -1.6599  2.5511  0.1940
  448MOL0     H60415  10.404   2.959   1.906  2.2225  1.3896  3.1233
  448MOL0     H60416  10.370   3.078   1.770 -2.7385  2.6445  2.7828
  448MOL0     H60417  10.609   3.096   1.733  0.6893 -1.5285 -2.4655
  448MOL0     H60418  10.633   2.978   1.866  0.0730  0.3450 -0.7844
  448MOL0     H60419  10.519   2.809   1.755 -1.3299  1.9735  2.2538
  448MOL0     H60420  10.467   2.911   1.617  2.8285 -1.4650 -2.7770
  448MOL0     H60421  10.702   2.965   1.570  0.3200 -0.3011  0.3683
  448MOL0     H60422  10.755   2.821   1.669  0.5715 -0.5674 -1.1457
  448MOL0     H60423  10.738   2.768   1.432  0.1710 -3.3143  0.4087
  448MOL0     H60424  10.607   2.687   1.509  3.7873 -0.5945  1.0211
  448MOL0     H60425  10.457   2.873   1.415 -0.1148  1.5697 -0.9911
  448MOL0     H60426  10.613   2.938   1.353 -0.8771  1.7382  4.7995
  448MOL0     H60427  10.641   2.720   1.209 -0.5343 -0.3902 -2.4597
  448MOL0     H60428  10.481   2.682   1.283  1.5825  0.6594  2.7635
  448MOL0     H60429  10.471   2.758   1.043  1.3100 -1.8842  0.8214
  448MOL0     H60430  10.540   2.914   1.091 -4.3286  2.1255 -0.0057
  448MOL0     H60431  10.232   2.697   1.110  3.8143 -0.6851 -0.9671
  448MOL0     H60432   9.978   2.746   1.089  1.6806  0.0075 -0.3189
  448MOL0     H60433   9.978   2.762   1.266  0.7655  3.1451  2.2257
  448MOL0     H60434   9.873   2.996   1.089  1.1664  0.2944  0.8536
  448MOL0     H60435   9.887   2.982   1.269 -0.8865  0.8553  0.0369
  448MOL0     H60436   9.734   2.761   1.239  2.3302 -1.9990 -1.8993
  448MOL0     H60437   9.712   2.830   1.084  1.9604 -0.5601  0.0680
  448MOL0     H60438   9.682   2.987   1.346 -2.5095  1.6768  0.6509
  448MOL0     H60439   9.549   2.894   1.273  0.3145  0.2650  0.6104
  448MOL0     H60440   9.351   3.002   1.264 -0.1891  1.4157 -0.5568
  448MOL0     H60441   9.160   3.030   1.328  1.4467  0.8247 -1.3017
  448MOL0     H60442   9.135   3.198   1.397  0.0688  1.0853  0.7876
  448MOL0     H60443   9.059   3.155   1.248 -0.3468  3.0841  1.2916
  448MOL0     H60444   8.827   3.308   1.219 -0.0722 -0.1089  0.3594
  448MOL0     H60445   8.604   3.448   1.187  0.4395 -0.1374 -0.4236
  448MOL0     H60446   8.553   3.627   1.020  0.1746  1.1385 -0.7045
  448MOL0     H60447   8.429   3.604   1.146 -1.6481  1.4632 -3.4402
  448MOL0     H60448   8.505   3.876   1.030 -0.2094 -0.1384 -1.0068
  448MOL0     H60449   8.387   3.765   0.959 -0.0813  1.1603 -0.4519
  448MOL0     H60450   8.408   3.888   1.247  0.0835  1.0134 -0.8435
  448MOL0     H60451   8.274   3.779   1.197 -0.4742 -0.9763 -0.4079
  448MOL0     H60452   8.316   4.063   1.097 -1.6755  1.4289  1.0517
  448MOL0     H60453   8.222   3.949   1.004  1.9594 -2.2521 -1.1309
  448MOL0     H60454   8.208   4.033   1.298 -0.5745  0.5754 -0.2249
  448MOL0     H60455   8.103   3.916   1.241  2.1448 -0.6626  0.7247
  448MOL0     H60456   8.118   4.210   1.155  1.8867 -1.3614 -4.3623
  448MOL0     H60457   8.033   4.102   1.056  3.0385  1.0431 -0.6762
  448MOL0     H60458   7.968   4.166   1.353  0.1317  2.3383 -1.3487
  448MOL0     H60459   7.896   4.028   1.262  0.2188 -0.0895 -0.3541
  448MOL0     H60460   7.733   4.171   1.240  0.7450 -1.7174 -0.3522
  448MOL0     H60461   7.810   4.207   1.089 -1.0960  2.8652 -0.7088
  448MOL0     H60462   8.844   3.794   1.232  1.7619  0.6489 -1.2133
  448MOL0     H60463   9.047   3.673   1.270  0.1207 -0.5782 -1.0465
  448MOL0     H60464   9.415   3.441   1.055 -0.9392  1.2534  0.9947
  448MOL0     H60465   9.595   3.278   1.052  1.0019 -0.9840  0.8996
  448MOL0     H60466  10.198   3.078   1.900  0.9755  1.1650 -1.0373
  448MOL0     H60467  10.002   3.157   2.010 -1.6824  2.7125  0.6161
  448MOL0     H60468   9.644   3.307   2.311 -1.5958 -0.3522  0.5557
  448MOL0     H60469   9.472   3.455   2.358 -3.8532  0.6202 -4.7868
  448MOL0     H60470   9.485   3.906   2.296  0.3276  1.6482 -1.2174
  448MOL0     H60471   9.523   3.850   2.141  2.1132 -1.0818  1.7742
  448MOL0     H60472   9.260   3.808   2.116  0.2665  1.0264 -1.1892
  448MOL0     H60473   9.318   3.971   2.123 -0.7184 -1.4591 -2.7819
  448MOL0     H60474   9.260   3.992   2.366  1.1787  0.6547 -1.3311
  448MOL0     H60475   9.232   3.815   2.377 -3.6508 -2.3214 -1.4569
  448MOL0     H60476   9.047   3.835   2.216  1.5184 -0.7653  0.1581
  448MOL0     H60477   9.068   4.017   2.217 -0.6646 -0.0759  0.2084
  448MOL0     H60478   8.833   3.934   2.550  1.5245  1.1946  1.9256
  448MOL0     H60479   9.692   3.767   2.165 -1.0147  1.1811  3.0702
  448MOL0     H60480   9.892   3.615   2.140  1.4840  0.0640  1.7956
  449MOL0     O60481  10.036   9.950   1.229  0.8880 -0.3886 -0.3563
  449MOL0     C60482  10.051   9.883   1.324  0.9153  0.2596  0.5865
  449MOL0     O60483   9.976   9.888   1.438  0.4928 -0.0099  0.2535
  449MOL0     C60484   9.852   9.961   1.448  0.0534 -0.1401  0.1005
  449MOL0     C60485   9.769  10.018   1.353  0.4868  0.4613  0.5076
  449MOL0     C60486   9.656  10.095   1.381 -0.3108 -0.1785 -0.1213
  449MOL0     C60487   9.616  10.096   1.517 -0.0571  0.8568 -0.0110
  449MOL0     O60488   9.497  10.147   1.566 -0.4827  0.3912 -0.0551
  449MOL0     C60489   9.389  10.161   1.480  0.3285 -1.1968 -0.3134
  449MOL0     C60490   9.263  10.176   1.557 -0.1961  1.2081  0.0977
  449MOL0     C60491   9.140  10.178   1.466  0.8996  0.2309 -0.1444
  449MOL0     C60492   9.115  10.306   1.383  0.4956  0.0200 -0.2883
  449MOL0     C60493   8.989  10.302   1.304 -0.2534 -0.0226  0.3234
  449MOL0     C60494   8.935  10.443   1.275  0.7488 -0.2051  0.2649
  449MOL0     C60495   8.815  10.438   1.168  0.1527 -0.3803 -0.2118
  449MOL0     C60496   8.823  10.560   1.073  0.4243 -0.0052  0.4229
  449MOL0     N60497   8.958  10.576   1.006  0.3146  0.7252  0.3675
  449MOL0     C60498   9.008  10.499   0.905 -0.7037 -0.6744  0.2484
  449MOL0     C60499   9.137  10.542   0.880  0.0902 -0.9924 -0.0273
  449MOL0     C60500   9.228  10.492   0.772  0.3200 -0.1021 -0.7677
  449MOL0     C60501   9.282  10.597   0.681  0.3958  0.1635  0.1187
  449MOL0     C60502   9.347  10.535   0.559  0.3784 -0.0063  0.7711
  449MOL0     C60503   9.494  10.476   0.571  0.0245 -0.6912 -0.5483
  449MOL0     O60504   9.518  10.408   0.450 -0.7350  0.4439 -0.9738
  449MOL0     C60505   9.645  10.354   0.425  0.5469  0.0271 -0.3231
  449MOL0     C60506   9.661  10.310   0.294  0.0334  0.1034 -0.5771
  449MOL0     C60507   9.776  10.237   0.260  0.3115  0.2106  0.4412
  449MOL0     C60508   9.800  10.200   0.114  0.1311 -0.0020  0.3996
  449MOL0     C60509   9.872  10.204   0.359 -0.2396 -0.7768 -0.3953
  449MOL0     C60510   9.990  10.115   0.344  0.0199 -0.8216 -0.6913
  449MOL0     O60511  10.104  10.147   0.414  0.5623  0.5703  0.4397
  449MOL0     C60512  10.214  10.064   0.409  0.3972  0.4810 -0.3398
  449MOL0     C60513  10.283  10.045   0.533  1.0237  0.4246 -0.1613
  449MOL0     C60514  10.396   9.966   0.539 -0.1683  0.2477  1.5396
  449MOL0     C60515  10.436   9.890   0.425 -0.4285  0.3064  0.0727
  449MOL0     O60516  10.543   9.811   0.449 -0.0642 -0.3089 -0.4613
  449MOL0     C60517  10.598   9.733   0.345 -0.0823  0.2717  0.7066
  449MOL0     C60518  10.727   9.800   0.300 -0.7132 -0.4728  1.2081
  449MOL0     C60519  10.838   9.788   0.403 -0.7177  0.5163  0.2340
  449MOL0     C60520  10.978   9.825   0.360 -0.0001  0.4787 -0.8635
  449MOL0     C60521  11.092   9.820   0.457  0.5957 -1.9439 -0.2386
  449MOL0     C60522  11.223   9.879   0.383  0.3580 -0.3898  0.7714
  449MOL0     C60523  11.353   9.873   0.470 -0.4741  0.3040 -0.4073
  449MOL0     C60524  11.465   9.973   0.433  0.7809 -0.5876  0.2579
  449MOL0    Cl60525  11.604   9.923   0.544 -0.0359  0.0051 -0.0712
  449MOL0     C60526  10.373   9.913   0.305 -0.0781  0.0098  0.3608
  449MOL0     C60527  10.267  10.004   0.295  1.2260  0.2416 -0.1362
  449MOL0     O60528   9.978  10.023   0.271 -0.6526  0.3117  0.1481
  449MOL0     C60529   9.865  10.278   0.485 -1.0177 -0.3834 -0.8246
  449MOL0     C60530   9.752  10.355   0.513  0.4410 -0.0644 -0.2875
  449MOL0     N60531   9.159  10.652   0.961 -0.1179  0.3206  0.0411
  449MOL0     N60532   9.053  10.669   1.039 -0.6664  0.5388  1.1205
  449MOL0     C60533   9.688  10.025   1.615  0.0131 -0.0632 -0.6712
  449MOL0     C60534   9.808   9.960   1.580 -0.2548 -0.2732  0.3394
  449MOL0     C60535  10.153   9.784   1.331  0.5899  0.0983 -0.1673
  449MOL0     C60536  10.257   9.763   1.238 -0.6836 -0.1345  0.7106
  449MOL0     C60537  10.354   9.663   1.248  0.6866  0.7027 -0.1933
  449MOL0     C60538  10.352   9.576   1.356  0.9342  0.3046 -0.8090
  449MOL0     O60539  10.431   9.467   1.365 -0.2408 -0.3562 -0.2958
  449MOL0     C60540  10.472   9.401   1.251 -0.0938 -0.3940  0.8579
  449MOL0     C60541  10.561   9.282   1.299 -0.0718  0.3114  0.6269
  449MOL0     C60542  10.693   9.336   1.366  0.1118 -0.0709  0.5226
  449MOL0     C60543  10.774   9.213   1.407  0.3254  0.4967  0.2945
  449MOL0     C60544  10.904   9.246   1.467 -0.8472  0.4194  0.1228
  449MOL0     C60545  11.016   9.261   1.519  0.7044  0.0991  0.8693
  449MOL0     C60546  10.260   9.602   1.457  0.1695  0.7087 -0.0549
  449MOL0     C60547  10.159   9.697   1.438  0.0253  0.1546 -1.0311
  449MOL0     H60548   9.816  10.021   1.255 -1.0337  0.2664 -0.2628
  449MOL0     H60549   9.594  10.137   1.302 -0.7849 -0.8877 -0.1374
  449MOL0     H60550   9.413  10.243   1.412 -0.4406 -1.1121 -0.4848
  449MOL0     H60551   9.384  10.068   1.423 -0.1856 -2.7193  2.0711
  449MOL0     H60552   9.239  10.099   1.630 -0.9664  1.9597  0.6597
  449MOL0     H60553   9.262  10.276   1.600 -3.1032  1.0696  0.5816
  449MOL0     H60554   9.149  10.093   1.399 -0.2980 -1.5256  1.8018
  449MOL0     H60555   9.049  10.177   1.526  1.6004  1.4785  1.0042
  449MOL0     H60556   9.114  10.396   1.446  0.2795 -0.4590  0.4035
  449MOL0     H60557   9.194  10.322   1.309 -0.2136  2.7686 -0.5823
  449MOL0     H60558   9.006  10.263   1.203 -3.0442  2.7042 -1.3828
  449MOL0     H60559   8.918  10.227   1.341 -0.3031 -1.7020 -2.8608
  449MOL0     H60560   8.888  10.477   1.368 -2.4517 -2.0786 -0.5286
  449MOL0     H60561   9.017  10.506   1.238  0.3864  1.2922  1.8565
  449MOL0     H60562   8.815  10.344   1.111 -1.9913 -1.0565  0.7968
  449MOL0     H60563   8.719  10.429   1.218 -0.7202  1.1745 -1.5486
  449MOL0     H60564   8.794  10.658   1.110 -0.6646  1.2483 -3.2486
  449MOL0     H60565   8.744  10.565   0.998  1.4595 -0.1049 -0.7151
  449MOL0     H60566   8.955  10.423   0.848 -0.4593 -0.8492  0.2498
  449MOL0     H60567   9.306  10.427   0.811 -1.3127 -1.9423 -0.4483
  449MOL0     H60568   9.169  10.422   0.712  0.5336 -0.8937 -0.0695
  449MOL0     H60569   9.352  10.657   0.740  0.5957 -1.9986  2.2814
  449MOL0     H60570   9.204  10.667   0.649  2.6794  2.1063 -1.5080
  449MOL0     H60571   9.344  10.606   0.476 -0.7984  1.0877  1.7154
  449MOL0     H60572   9.281  10.459   0.516  0.0261  1.2393 -1.0024
  449MOL0     H60573   9.504  10.401   0.649 -2.1415 -1.4677 -0.9476
  449MOL0     H60574   9.567  10.557   0.572  1.2850 -1.7812  0.9423
  449MOL0     H60575   9.582  10.323   0.222 -1.2313 -2.3472  0.2535
  449MOL0     H60576   9.784  10.092   0.108 -1.5094  0.3046 -1.8122
  449MOL0     H60577   9.733  10.246   0.042 -1.9121  0.3061  2.3622
  449MOL0     H60578   9.903  10.222   0.085 -0.0899  0.9416  0.3128
  449MOL0     H60579  10.244  10.084   0.626 -0.1593 -1.6779  0.2847
  449MOL0     H60580  10.452   9.957   0.632 -1.0239  2.1876  2.2819
  449MOL0     H60581  10.629   9.629   0.363  1.7982  0.6820  0.0635
  449MOL0     H60582  10.515   9.716   0.276 -2.1713  0.3133  3.0671
  449MOL0     H60583  10.750   9.750   0.205 -0.7245  2.9255 -0.7461
  449MOL0     H60584  10.709   9.906   0.280  0.6757  0.5908  4.7745
  449MOL0     H60585  10.849   9.684   0.437  3.0486  0.9446  0.7188
  449MOL0     H60586  10.814   9.840   0.497 -0.7708  1.9050 -0.5207
  449MOL0     H60587  11.005   9.758   0.277 -0.8491 -1.2543  0.1916
  449MOL0     H60588  10.966   9.926   0.321 -0.5662  0.5571 -0.4937
  449MOL0     H60589  11.105   9.714   0.484  1.2861 -2.3582 -2.0389
  449MOL0     H60590  11.060   9.867   0.550  0.1588 -0.9141 -0.9024
  449MOL0     H60591  11.239   9.833   0.285  0.4159  2.5552 -0.6913
  449MOL0     H60592  11.200   9.982   0.354 -0.9093 -0.9752 -0.3829
  449MOL0     H60593  11.379   9.768   0.454 -0.1762  0.1335  1.0583
  449MOL0     H60594  11.329   9.895   0.574 -0.3250  0.2853 -0.3695
  449MOL0     H60595  11.428  10.075   0.449 -3.0568 -2.0142  1.5039
  449MOL0     H60596  11.497   9.970   0.329 -0.4336  2.7256 -0.3575
  449MOL0     H60597  10.395   9.856   0.215 -0.7344 -3.2255  2.0836
  449MOL0     H60598  10.225  10.021   0.196 -0.1937  0.1441  0.4223
  449MOL0     H60599   9.938  10.257   0.563 -0.1383 -0.5068 -1.6753
  449MOL0     H60600   9.744  10.412   0.605  1.1766  0.4709 -0.5505
  449MOL0     H60601   9.652  10.009   1.716 -0.1317  1.5736 -0.4483
  449MOL0     H60602   9.861   9.911   1.662 -1.3482 -3.6085 -0.7667
  449MOL0     H60603  10.251   9.831   1.153  2.8502 -0.5399 -0.0072
  449MOL0     H60604  10.429   9.650   1.171  1.7549  0.6278  0.8307
  449MOL0     H60605  10.379   9.363   1.208 -1.0065  0.9648  1.5773
  449MOL0     H60606  10.523   9.462   1.176  1.6715 -1.7975  0.8317
  449MOL0     H60607  10.574   9.211   1.217  0.6784  0.9808  0.1528
  449MOL0     H60608  10.513   9.219   1.375 -0.4413 -2.5269 -1.7590
  449MOL0     H60609  10.675   9.408   1.445  1.1685  1.4443 -0.5645
  449MOL0     H60610  10.754   9.385   1.290 -0.1745 -0.5832 -0.0524
  449MOL0     H60611  10.793   9.145   1.323  1.8788 -0.2697  1.2399
  449MOL0     H60612  10.716   9.151   1.476 -1.0261 -0.4488 -1.5722
  449MOL0     H60613  11.107   9.241   1.572  0.6914 -5.3921 -0.5905
  449MOL0     H60614  10.251   9.537   1.544 -0.1719 -0.0219 -0.6187
  449MOL0     H60615  10.086   9.691   1.518 -0.0490  0.2750 -1.0898
  450MOL0     O60616   6.699   7.570   4.391 -0.0926  0.3005  0.2606
  450MOL0     C60617   6.755   7.461   4.412 -0.2252  0.6291 -0.0918
  450MOL0     O60618   6.694   7.344   4.424  0.1601 -0.4764  0.0369
  450MOL0     C60619   6.562   7.345   4.446 -0.6124 -1.0160 -0.0918
  450MOL0     C60620   6.506   7.320   4.573  0.1441  0.2216  0.1498
  450MOL0     C60621   6.370   7.326   4.586 -0.3730 -1.1936 -0.5727
  450MOL0     C60622   6.284   7.354   4.491 -0.0543  0.2675 -0.1103
  450MOL0     O60623   6.151   7.366   4.516 -0.2291 -0.2305  0.2963
  450MOL0     C60624   6.068   7.377   4.401 -0.0599  0.4990 -0.1985
  450MOL0     C60625   5.923   7.367   4.454  0.2764  0.4774  0.3089
  450MOL0     C60626   5.876   7.475   4.550 -0.4436 -0.6724 -0.1766
  450MOL0     C60627   5.730   7.461   4.592 -0.8594 -0.7907  0.3856
  450MOL0     C60628   5.644   7.525   4.486  0.9175  0.3053  0.5711
  450MOL0     C60629   5.502   7.489   4.520  0.8015 -0.1363  0.5404
  450MOL0     C60630   5.399   7.558   4.431  0.0208 -0.0845  0.5890
  450MOL0     C60631   5.410   7.544   4.277 -0.2127 -0.3085 -0.8070
  450MOL0     N60632   5.400   7.407   4.229  0.0163  0.3264 -0.9379
  450MOL0     C60633   5.500   7.328   4.169 -0.5116 -0.6296 -0.3318
  450MOL0     C60634   5.444   7.215   4.131 -0.3548 -0.2457  0.5711
  450MOL0     C60635   5.498   7.105   4.044 -0.1351 -0.2567 -0.4916
  450MOL0     C60636   5.469   7.131   3.896 -1.1525 -0.1047 -0.1093
  450MOL0     C60637   5.541   7.260   3.846  0.1434 -0.1193  0.4114
  450MOL0     C60638   5.692   7.254   3.837 -0.8476 -0.0599 -0.5277
  450MOL0     O60639   5.742   7.161   3.741 -0.5374 -0.2485  0.4698
  450MOL0     C60640   5.882   7.148   3.721  0.7313 -0.1410 -0.2943
  450MOL0     C60641   5.970   7.219   3.804  0.1393  0.5383 -0.3345
  450MOL0     C60642   6.117   7.212   3.795  0.2155 -0.0996  0.5076
  450MOL0     C60643   6.197   7.274   3.903  0.0656 -0.2739  0.3628
  450MOL0     C60644   6.168   7.113   3.707 -0.7529 -0.5745 -0.0791
  450MOL0     C60645   6.317   7.090   3.692 -0.3074  0.4231 -0.3565
  450MOL0     O60646   6.358   6.960   3.679  0.3191 -0.3078  0.4010
  450MOL0     C60647   6.487   6.917   3.683 -0.9050 -0.1057  0.0291
  450MOL0     C60648   6.540   6.846   3.575 -0.3392  0.5647 -0.6828
  450MOL0     C60649   6.672   6.800   3.587  0.9785  0.1995 -0.2340
  450MOL0     C60650   6.746   6.808   3.702 -0.2869 -0.5467  0.1524
  450MOL0     O60651   6.877   6.762   3.699  0.8016  0.7154 -0.2164
  450MOL0     C60652   6.936   6.718   3.816  0.1430  0.1640  0.3112
  450MOL0     C60653   7.024   6.603   3.791 -0.0242  0.2270  0.5272
  450MOL0     C60654   7.168   6.637   3.733  0.0462  0.0667 -0.5278
  450MOL0     C60655   7.271   6.522   3.725 -1.1394  0.0168  0.4002
  450MOL0     C60656   7.413   6.561   3.687  0.8726 -0.2451  0.0380
  450MOL0     C60657   7.511   6.450   3.705 -0.6072 -0.6641 -0.4297
  450MOL0     C60658   7.659   6.495   3.698 -0.0504 -0.3037 -0.1331
  450MOL0     C60659   7.758   6.389   3.742  0.5899 -0.2339 -0.5477
  450MOL0    Cl60660   7.734   6.242   3.643  0.2116  0.0080 -0.2500
  450MOL0     C60661   6.690   6.870   3.814  0.3723  0.2220 -0.0693
  450MOL0     C60662   6.560   6.925   3.810 -0.3501  0.5722  0.5333
  450MOL0     O60663   6.392   7.188   3.700  0.0725  0.0727  0.5319
  450MOL0     C60664   6.078   7.041   3.620 -0.5833 -0.4678 -0.5476
  450MOL0     C60665   5.934   7.061   3.633 -1.2043  0.1943 -0.2786
  450MOL0     N60666   5.312   7.220   4.162 -0.3315 -0.1386  0.4890
  450MOL0     N60667   5.286   7.325   4.232 -0.2369  0.4846 -0.1451
  450MOL0     C60668   6.335   7.371   4.360 -0.4792  0.2353  0.1958
  450MOL0     C60669   6.470   7.368   4.340 -0.9364  0.4904  0.3467
  450MOL0     C60670   6.902   7.473   4.417 -0.3774  0.0259  0.3185
  450MOL0     C60671   6.973   7.569   4.341  0.1419 -0.2071 -0.1884
  450MOL0     C60672   7.118   7.571   4.338 -0.2883  0.0008 -0.0530
  450MOL0     C60673   7.189   7.485   4.424 -0.2364  0.6940  0.6545
  450MOL0     O60674   7.322   7.483   4.433 -0.2430 -0.2016  0.8220
  450MOL0     C60675   7.404   7.590   4.383  0.2838  0.0230 -0.2462
  450MOL0     C60676   7.549   7.567   4.415  0.0430 -0.1778  0.5982
  450MOL0     C60677   7.564   7.564   4.571  0.4291  0.1356 -0.0374
  450MOL0     C60678   7.714   7.554   4.608 -0.4184  0.3150  0.3606
  450MOL0     C60679   7.805   7.675   4.595  0.2589  0.9479 -0.0298
  450MOL0     C60680   7.868   7.775   4.610 -0.3266  0.3759  0.3499
  450MOL0     C60681   7.114   7.391   4.511 -0.3107  0.2683  0.2068
  450MOL0     C60682   6.975   7.381   4.494  0.2619  0.5571 -0.1759
  450MOL0     H60683   6.563   7.292   4.660 -1.1405  2.6778  1.9105
  450MOL0     H60684   6.325   7.300   4.681 -3.3745 -2.5013 -2.2025
  450MOL0     H60685   6.083   7.467   4.340  2.5548  2.1132  2.5417
  450MOL0     H60686   6.089   7.292   4.337 -1.8797  0.8691 -1.3463
  450MOL0     H60687   5.860   7.363   4.364 -0.2584  0.5706  0.6757
  450MOL0     H60688   5.916   7.267   4.497  2.6910  1.2611  2.8471
  450MOL0     H60689   5.948   7.460   4.630 -1.2854 -0.5799  0.6087
  450MOL0     H60690   5.885   7.576   4.508 -0.4356  0.4537  2.3961
  450MOL0     H60691   5.704   7.356   4.611 -2.9402 -0.2638  0.6762
  450MOL0     H60692   5.729   7.517   4.686 -0.4261 -1.4385  0.7877
  450MOL0     H60693   5.653   7.633   4.479  0.7416  0.2761 -0.1284
  450MOL0     H60694   5.674   7.481   4.390 -1.8108  0.0765 -0.2504
  450MOL0     H60695   5.484   7.382   4.502 -1.4747  0.4654 -1.1977
  450MOL0     H60696   5.475   7.513   4.623 -2.7918  1.0736 -0.5521
  450MOL0     H60697   5.301   7.518   4.458  0.3078 -0.7686  0.6395
  450MOL0     H60698   5.385   7.660   4.468 -1.1858 -0.3688  0.9668
  450MOL0     H60699   5.509   7.580   4.247  0.7498 -2.0137  0.1780
  450MOL0     H60700   5.330   7.609   4.242 -0.2360  2.8006  4.0932
  450MOL0     H60701   5.600   7.364   4.148  0.5597  0.2620  4.9511
  450MOL0     H60702   5.606   7.099   4.058  0.2122  2.6099 -1.2072
  450MOL0     H60703   5.454   7.011   4.078  2.8265 -1.3678  0.6298
  450MOL0     H60704   5.360   7.127   3.889 -1.3709 -0.1955  2.6400
  450MOL0     H60705   5.506   7.049   3.833 -1.7548  0.5364 -1.3350
  450MOL0     H60706   5.511   7.339   3.914 -2.1350 -1.2220  0.8000
  450MOL0     H60707   5.499   7.299   3.752 -0.1106  1.1452  1.0323
  450MOL0     H60708   5.731   7.228   3.936  0.0997  0.2288 -0.8073
  450MOL0     H60709   5.732   7.350   3.802 -0.1421 -0.1099  0.1076
  450MOL0     H60710   5.931   7.294   3.873  0.7811  2.3847 -1.8936
  450MOL0     H60711   6.128   7.318   3.976 -1.3792 -0.2549 -0.9720
  450MOL0     H60712   6.259   7.212   3.970 -0.7873 -0.3545  1.0989
  450MOL0     H60713   6.259   7.354   3.861  0.6118 -0.8626  0.0189
  450MOL0     H60714   6.489   6.842   3.479 -0.2583  2.1673 -0.8133
  450MOL0     H60715   6.716   6.742   3.506  0.4082  0.3499 -0.6554
  450MOL0     H60716   6.972   6.807   3.870 -0.9012  1.4606 -1.0606
  450MOL0     H60717   6.857   6.674   3.877 -0.6251 -0.5419 -1.1381
  450MOL0     H60718   7.028   6.544   3.883 -2.6124 -2.6921 -1.0438
  450MOL0     H60719   6.978   6.535   3.719 -0.6923 -2.4811  3.2714
  450MOL0     H60720   7.196   6.715   3.803  0.1741 -0.6402  0.2229
  450MOL0     H60721   7.155   6.678   3.632 -1.6640 -0.9834 -0.7755
  450MOL0     H60722   7.269   6.454   3.811  0.5153 -1.1644 -0.4318
  450MOL0     H60723   7.240   6.448   3.649  0.4540 -1.8369  1.4702
  450MOL0     H60724   7.444   6.640   3.756  2.0060  0.9777 -1.8077
  450MOL0     H60725   7.407   6.599   3.585 -0.0337 -1.7170 -0.4923
  450MOL0     H60726   7.505   6.396   3.800 -1.3496  0.4444  0.1847
  450MOL0     H60727   7.497   6.381   3.621  1.8854 -2.1431  0.2706
  450MOL0     H60728   7.674   6.574   3.772  2.1883 -0.4830 -0.3230
  450MOL0     H60729   7.682   6.538   3.600  0.5915  0.7706  0.4681
  450MOL0     H60730   7.743   6.380   3.850  1.3276  1.5610 -0.2468
  450MOL0     H60731   7.858   6.432   3.730  0.3189  0.0811 -1.7864
  450MOL0     H60732   6.736   6.876   3.913 -0.1421  1.1490  0.1222
  450MOL0     H60733   6.527   6.979   3.898 -2.4204  1.4658 -0.7253
  450MOL0     H60734   6.110   6.970   3.545 -0.7860  1.1831 -2.2774
  450MOL0     H60735   5.861   7.008   3.571 -0.5466 -0.2918 -0.6490
  450MOL0     H60736   6.277   7.392   4.271 -0.1822  2.4926  0.4744
  450MOL0     H60737   6.501   7.361   4.237 -0.0769  1.8700  0.4995
  450MOL0     H60738   6.908   7.644   4.297  0.1040 -0.2992 -0.2871
  450MOL0     H60739   7.175   7.639   4.277 -1.7670  0.0881 -1.4005
  450MOL0     H60740   7.398   7.596   4.274 -1.6444  0.2428 -0.1634
  450MOL0     H60741   7.385   7.691   4.420  3.0807  1.0683 -1.3754
  450MOL0     H60742   7.613   7.637   4.359 -0.2226 -0.3339  0.0886
  450MOL0     H60743   7.581   7.469   4.377 -1.5578 -0.7600  0.6784
  450MOL0     H60744   7.510   7.484   4.621 -2.6033  2.2586  0.3509
  450MOL0     H60745   7.526   7.657   4.615  1.0934  0.3414  0.1236
  450MOL0     H60746   7.760   7.472   4.552 -1.4768  1.0088 -1.6162
  450MOL0     H60747   7.720   7.533   4.715  0.6741  0.9154  0.4301
  450MOL0     H60748   7.921   7.866   4.631  1.4761 -0.0525 -1.9608
  450MOL0     H60749   7.166   7.322   4.576 -1.1594 -0.3036  0.2869
  450MOL0     H60750   6.925   7.308   4.557 -0.6051 -0.3695 -1.8905
  451MOL0     O60751   6.861  10.754   4.045 -0.4325  0.6591 -0.9107
  451MOL0     C60752   6.828  10.815   4.145 -0.0230  0.0820  0.1769
  451MOL0     O60753   6.910  10.841   4.252  0.6385 -0.4075 -0.2940
  451MOL0     C60754   7.034  10.781   4.231  0.1231  0.0292 -0.0146
  451MOL0     C60755   7.065  10.654   4.286  0.3027  0.0753  0.3330
  451MOL0     C60756   7.195  10.601   4.264  0.0735 -0.7774 -0.4521
  451MOL0     C60757   7.292  10.677   4.193  0.3251  0.1699 -0.1876
  451MOL0     O60758   7.427  10.648   4.176  0.1416 -0.1215  0.1116
  451MOL0     C60759   7.490  10.540   4.247  1.0266  0.2255  0.4120
  451MOL0     C60760   7.636  10.556   4.253 -0.0702  0.2007  0.2323
  451MOL0     C60761   7.717  10.585   4.115  0.1279 -0.1841  0.8967
  451MOL0     C60762   7.869  10.583   4.144 -0.1368  0.7160 -0.4536
  451MOL0     C60763   7.929  10.712   4.204 -0.1639  0.3362 -0.0197
  451MOL0     C60764   8.077  10.712   4.248 -0.6765 -0.4109 -0.5917
  451MOL0     C60765   8.116  10.584   4.321  0.6162  1.1013 -0.4767
  451MOL0     C60766   8.040  10.553   4.443  0.5149  0.1793  0.3634
  451MOL0     N60767   8.064  10.655   4.544 -0.1258  0.6170 -0.5876
  451MOL0     C60768   7.969  10.710   4.618 -0.1548 -0.7179  0.2329
  451MOL0     C60769   8.025  10.776   4.717 -0.2929 -0.4822 -0.5096
  451MOL0     C60770   7.963  10.857   4.831  0.9737 -0.5443  0.4791
  451MOL0     C60771   7.850  10.946   4.784  0.6212  0.0049  0.1614
  451MOL0     C60772   7.737  10.961   4.899 -0.1279 -0.2957  0.2029
  451MOL0     C60773   7.599  11.012   4.843 -0.1380 -0.3113 -0.0789
  451MOL0     O60774   7.604  11.156   4.828  0.2891 -0.0950  0.3555
  451MOL0     C60775   7.474  11.200   4.847  0.6427 -0.3669 -0.5998
  451MOL0     C60776   7.392  11.227   4.738  0.0269  0.3782 -0.5739
  451MOL0     C60777   7.258  11.255   4.753 -1.2582 -0.0838  0.5994
  451MOL0     C60778   7.187  11.259   4.618  0.6736 -0.3962 -0.3454
  451MOL0     C60779   7.200  11.278   4.877 -0.6450  0.9473  0.9299
  451MOL0     C60780   7.062  11.313   4.900  0.5243  0.0754  0.0559
  451MOL0     O60781   7.028  11.339   5.036  0.2726  0.4979  0.4111
  451MOL0     C60782   6.910  11.412   5.071 -0.1959  0.6689 -0.5244
  451MOL0     C60783   6.910  11.457   5.205 -0.2030  0.2374 -0.1633
  451MOL0     C60784   6.798  11.511   5.255  0.2518  0.9383  0.6506
  451MOL0     C60785   6.686  11.541   5.171  0.0044  0.6909  0.4163
  451MOL0     O60786   6.576  11.620   5.206  0.2063  0.3135 -0.7175
  451MOL0     C60787   6.544  11.613   5.347 -0.1729  0.0526  0.6154
  451MOL0     C60788   6.410  11.685   5.376 -0.0499 -0.4119 -0.5967
  451MOL0     C60789   6.410  11.714   5.526 -0.0257 -0.3214  0.2499
  451MOL0     C60790   6.268  11.760   5.575 -0.7695  0.6186  1.2323
  451MOL0     C60791   6.260  11.776   5.734  0.0285 -0.4344  0.3575
  451MOL0     C60792   6.154  11.878   5.778  0.3910  0.2516  0.0057
  451MOL0     C60793   6.008  11.848   5.718  0.1988  0.7195 -0.3196
  451MOL0     C60794   5.960  11.980   5.658  0.3316  0.8803 -0.3084
  451MOL0    Cl60795   6.061  12.026   5.514  0.1111  0.0022  0.2478
  451MOL0     C60796   6.695  11.510   5.036  0.0264 -0.4864  0.4864
  451MOL0     C60797   6.806  11.445   4.983 -0.0973  0.7076  0.3045
  451MOL0     O60798   6.997  11.340   4.801 -0.3878  0.2912 -0.0787
  451MOL0     C60799   7.288  11.261   4.988 -1.0234  0.8843  0.4325
  451MOL0     C60800   7.418  11.224   4.977 -1.0262 -1.0203 -0.2913
  451MOL0     N60801   8.161  10.750   4.709 -0.1203 -0.0739 -0.2787
  451MOL0     N60802   8.188  10.678   4.606 -0.3464  0.4928 -0.4082
  451MOL0     C60803   7.256  10.790   4.132 -0.7364 -0.1067  0.8844
  451MOL0     C60804   7.132  10.843   4.157 -1.2731 -0.0733  0.1675
  451MOL0     C60805   6.688  10.873   4.157 -0.0851 -0.0714  0.2201
  451MOL0     C60806   6.599  10.863   4.049  0.4227 -0.4871  0.3069
  451MOL0     C60807   6.470  10.915   4.065 -0.1332 -1.0243 -0.1291
  451MOL0     C60808   6.422  10.969   4.189 -0.5912  0.5655  0.6188
  451MOL0     O60809   6.298  11.014   4.196  0.1623  0.2522  0.2620
  451MOL0     C60810   6.234  11.068   4.318 -0.8010  0.4088 -0.0304
  451MOL0     C60811   6.102  11.123   4.280  0.9874 -0.4069 -0.2155
  451MOL0     C60812   6.033  11.203   4.393 -1.0588 -1.4569 -0.4663
  451MOL0     C60813   5.889  11.243   4.355  0.6150  0.4342  0.0731
  451MOL0     C60814   5.825  11.343   4.453  0.2402  0.3060 -0.2990
  451MOL0     C60815   5.773  11.428   4.527 -0.2562  0.4714 -0.1426
  451MOL0     C60816   6.517  10.981   4.293  0.6496  0.4218  0.6290
  451MOL0     C60817   6.646  10.934   4.274  0.3208  0.0295 -0.8790
  451MOL0     H60818   6.982  10.603   4.334  0.3210  0.5939  0.9323
  451MOL0     H60819   7.216  10.500   4.300 -0.4459 -0.1177  1.9201
  451MOL0     H60820   7.449  10.538   4.348  1.3063  0.6584  0.5404
  451MOL0     H60821   7.468  10.445   4.197 -1.9880  1.3165 -0.5153
  451MOL0     H60822   7.656  10.643   4.317 -1.5837  2.2502 -1.9084
  451MOL0     H60823   7.680  10.470   4.305 -0.9013 -0.5690 -0.3061
  451MOL0     H60824   7.686  10.503   4.050  0.6002  0.3189  0.0162
  451MOL0     H60825   7.687  10.683   4.077  2.6319  0.0163 -0.8129
  451MOL0     H60826   7.891  10.502   4.214 -0.7777  1.2679  0.4065
  451MOL0     H60827   7.932  10.566   4.056  0.4281 -2.7323  0.4753
  451MOL0     H60828   7.917  10.789   4.127 -0.0752 -1.1182 -1.5541
  451MOL0     H60829   7.865  10.745   4.286  0.5549 -0.0255  0.7062
  451MOL0     H60830   8.137  10.725   4.157  0.8388 -1.9264  0.1400
  451MOL0     H60831   8.109  10.794   4.314 -0.4599 -1.1802  0.2745
  451MOL0     H60832   8.096  10.500   4.254 -1.4793 -0.5694  2.0321
  451MOL0     H60833   8.222  10.586   4.346  1.0001  1.6360 -2.0396
  451MOL0     H60834   8.081  10.461   4.487 -0.5884  0.5068  2.2126
  451MOL0     H60835   7.936  10.526   4.424  1.3236 -2.3646 -0.8774
  451MOL0     H60836   7.866  10.696   4.587  0.2025 -3.5173  0.0519
  451MOL0     H60837   7.930  10.784   4.906 -0.1560 -0.4042  0.1406
  451MOL0     H60838   8.038  10.926   4.872 -1.5375  3.4353 -0.9866
  451MOL0     H60839   7.801  10.906   4.695  0.1770  0.3896  0.2256
  451MOL0     H60840   7.910  11.034   4.759  1.6314 -0.6583  0.1642
  451MOL0     H60841   7.779  11.014   4.984  1.0111 -1.7599  0.5967
  451MOL0     H60842   7.711  10.861   4.936  0.7499 -0.7984 -0.4639
  451MOL0     H60843   7.519  10.981   4.911  0.2757  2.2277  1.7330
  451MOL0     H60844   7.581  10.974   4.743 -0.1227 -0.9773  0.1697
  451MOL0     H60845   7.435  11.210   4.640 -1.0466 -0.1151 -0.9821
  451MOL0     H60846   7.159  11.362   4.595 -3.0941 -1.2923 -0.4444
  451MOL0     H60847   7.252  11.226   4.537  4.3790  0.0441  2.2165
  451MOL0     H60848   7.092  11.205   4.608  0.5918 -0.0051 -1.9028
  451MOL0     H60849   6.987  11.427   5.275  0.1727  3.7815  1.1587
  451MOL0     H60850   6.791  11.526   5.362  2.2119 -1.6720  1.2391
  451MOL0     H60851   6.530  11.508   5.374  0.9566  0.2787  2.2154
  451MOL0     H60852   6.626  11.666   5.396  2.0182 -0.9053 -1.7688
  451MOL0     H60853   6.421  11.777   5.317  0.9471  0.0083  0.2208
  451MOL0     H60854   6.316  11.645   5.337 -0.2344 -0.3571 -0.2155
  451MOL0     H60855   6.477  11.798   5.545 -0.1057  0.1735 -1.4679
  451MOL0     H60856   6.432  11.622   5.580  1.3890  1.1486  2.3039
  451MOL0     H60857   6.254  11.859   5.530  0.4539  0.8075  1.2108
  451MOL0     H60858   6.188  11.699   5.533 -1.2029  1.7228  0.3958
  451MOL0     H60859   6.356  11.812   5.772  0.8302 -0.5279 -1.4464
  451MOL0     H60860   6.241  11.681   5.784 -3.5989  0.6846  1.3975
  451MOL0     H60861   6.155  11.884   5.887  4.7801  0.6707  0.1120
  451MOL0     H60862   6.190  11.979   5.755  2.0835 -0.0549  1.1143
  451MOL0     H60863   5.944  11.820   5.802  1.0113 -0.5908 -0.1126
  451MOL0     H60864   6.003  11.766   5.646 -1.4541 -0.7931  1.4324
  451MOL0     H60865   5.953  12.058   5.735 -0.4350 -1.0344  1.6740
  451MOL0     H60866   5.859  11.956   5.624  0.4295 -0.0373  0.0089
  451MOL0     H60867   6.608  11.528   4.975 -0.8689  1.2340  2.1735
  451MOL0     H60868   6.806  11.427   4.876 -0.0435  2.3857 -0.0041
  451MOL0     H60869   7.250  11.280   5.087 -1.1422  1.0390  0.3576
  451MOL0     H60870   7.478  11.194   5.061 -2.4174  2.8963  2.3873
  451MOL0     H60871   7.333  10.843   4.076 -3.4311  2.8942 -0.3061
  451MOL0     H60872   7.102  10.926   4.095  1.9610 -2.0032 -4.5913
  451MOL0     H60873   6.631  10.810   3.960  1.0236 -1.1772  0.9212
  451MOL0     H60874   6.391  10.912   3.989  0.2972 -1.0354 -0.5803
  451MOL0     H60875   6.231  10.999   4.403 -0.2893  0.1933 -0.1837
  451MOL0     H60876   6.294  11.152   4.353 -1.7006  1.4788 -0.9821
  451MOL0     H60877   6.031  11.049   4.242  1.1539 -0.5249 -0.2982
  451MOL0     H60878   6.117  11.202   4.205  1.4286 -0.0977  0.1971
  451MOL0     H60879   6.086  11.299   4.400  0.3885 -2.2202 -0.7693
  451MOL0     H60880   6.039  11.153   4.490 -0.1657  0.4162  0.5051
  451MOL0     H60881   5.820  11.158   4.355  0.0176  0.7668  3.4758
  451MOL0     H60882   5.894  11.300   4.262  1.9287  0.0787 -0.0894
  451MOL0     H60883   5.737  11.507   4.589  0.8417  0.1752  0.8967
  451MOL0     H60884   6.500  11.026   4.390  0.2154  2.3387 -0.2880
  451MOL0     H60885   6.710  10.942   4.362 -0.2443  1.5201 -0.5703
  452MOL0     O60886   7.319   5.197   6.069  0.7352  0.0842  0.5055
  452MOL0     C60887   7.390   5.162   6.160 -0.6402  0.7255 -0.1672
  452MOL0     O60888   7.382   5.200   6.287 -0.1475 -0.2833 -0.1037
  452MOL0     C60889   7.268   5.262   6.323  0.5396 -0.3015 -0.0017
  452MOL0     C60890   7.261   5.398   6.350 -0.1880 -0.6190  0.5001
  452MOL0     C60891   7.145   5.463   6.389  0.4360 -0.2223 -0.4549
  452MOL0     C60892   7.031   5.388   6.402 -0.9399  0.3533  0.4962
  452MOL0     O60893   6.928   5.466   6.434  0.5315  0.1839 -0.9274
  452MOL0     C60894   6.802   5.419   6.399  0.0851  0.0714  0.2881
  452MOL0     C60895   6.798   5.440   6.245  0.3866 -0.3078 -0.4259
  452MOL0     C60896   6.649   5.431   6.191 -0.8268  0.5476 -0.3791
  452MOL0     C60897   6.621   5.526   6.073 -0.4384 -0.8183 -0.4429
  452MOL0     C60898   6.479   5.502   6.012 -0.3558  0.5361 -0.1223
  452MOL0     C60899   6.368   5.567   6.103 -0.6110  0.1565  0.4589
  452MOL0     C60900   6.236   5.498   6.068 -0.0957  0.2432 -0.0519
  452MOL0     C60901   6.132   5.517   6.178  1.0198 -0.1102 -0.7275
  452MOL0     N60902   6.005   5.489   6.113  0.4218  0.2869  0.0148
  452MOL0     C60903   5.939   5.369   6.098  0.3085  0.2114  0.7501
  452MOL0     C60904   5.821   5.403   6.057  0.5288  0.3280  0.0411
  452MOL0     C60905   5.703   5.314   6.009  0.3166  0.1216  0.1206
  452MOL0     C60906   5.689   5.313   5.858  0.4380 -0.4574 -0.1656
  452MOL0     C60907   5.579   5.211   5.811 -0.5266 -0.5196  0.7419
  452MOL0     C60908   5.439   5.263   5.820  0.2396 -0.9308 -0.1955
  452MOL0     O60909   5.366   5.144   5.775 -0.4491  0.4262 -0.4349
  452MOL0     C60910   5.301   5.130   5.655  0.9778 -0.1290  0.2565
  452MOL0     C60911   5.206   5.029   5.641  0.1003  0.8488  0.2999
  452MOL0     C60912   5.134   5.015   5.520  0.3485  0.8943  0.0583
  452MOL0     C60913   5.037   4.908   5.531 -0.9772  0.2314  0.2253
  452MOL0     C60914   5.165   5.093   5.407  0.9780  0.0588 -0.1031
  452MOL0     C60915   5.098   5.084   5.273  0.0441 -1.0743 -1.1328
  452MOL0     O60916   5.109   5.191   5.191 -0.1921  0.0438  0.1418
  452MOL0     C60917   5.055   5.198   5.065  0.7992  0.4597  0.3045
  452MOL0     C60918   5.122   5.253   4.952 -0.1932  0.2755  0.1250
  452MOL0     C60919   5.073   5.241   4.821  0.5563  0.3709 -1.1105
  452MOL0     C60920   4.951   5.176   4.797  0.7839 -0.1078 -0.5782
  452MOL0     O60921   4.884   5.152   4.679  0.0777  0.1886  0.7841
  452MOL0     C60922   4.936   5.232   4.577  0.4964  0.5434  1.0102
  452MOL0     C60923   4.852   5.218   4.445 -0.6409  0.0339 -0.3544
  452MOL0     C60924   4.700   5.228   4.466  0.2707  1.1999 -0.0864
  452MOL0     C60925   4.636   5.160   4.341 -0.2387 -0.3809  0.1669
  452MOL0     C60926   4.484   5.134   4.369 -0.5492  0.5528  0.3299
  452MOL0     C60927   4.389   5.222   4.287 -0.0224  0.0655  0.0366
  452MOL0     C60928   4.249   5.195   4.347  0.4625  0.7197  0.6178
  452MOL0     C60929   4.146   5.306   4.323 -0.0492  0.3918 -0.5886
  452MOL0    Cl60930   4.146   5.366   4.150  0.3346  0.4766  0.0704
  452MOL0     C60931   4.878   5.125   4.908  0.2472  0.3740  0.1713
  452MOL0     C60932   4.933   5.135   5.036 -0.5174 -0.6547  0.3188
  452MOL0     O60933   5.049   4.974   5.246 -0.1548 -0.0444  0.2467
  452MOL0     C60934   5.260   5.193   5.420 -1.5509  0.5586 -0.0764
  452MOL0     C60935   5.330   5.211   5.541 -0.2722  0.5350  0.3384
  452MOL0     N60936   5.808   5.539   6.053 -0.2511 -0.0700  0.5675
  452MOL0     N60937   5.918   5.594   6.093  0.7805 -0.2836 -0.5568
  452MOL0     C60938   7.039   5.242   6.403  0.1617 -0.2394 -0.1805
  452MOL0     C60939   7.154   5.184   6.357 -0.1243 -0.0826 -0.1404
  452MOL0     C60940   7.508   5.078   6.130  0.1887  0.1152  0.1356
  452MOL0     C60941   7.580   5.113   6.012 -0.6233 -0.3548 -0.3081
  452MOL0     C60942   7.680   5.021   5.972 -0.0483 -0.0117  0.1622
  452MOL0     C60943   7.703   4.896   6.042 -0.6029 -0.0467 -0.0971
  452MOL0     O60944   7.801   4.808   6.005 -0.2487  0.4129  0.2833
  452MOL0     C60945   7.805   4.767   5.866 -0.0687 -0.6390  0.5936
  452MOL0     C60946   7.856   4.622   5.865 -0.5241  0.5784  0.5979
  452MOL0     C60947   7.741   4.522   5.896  0.8041 -0.0632  0.2907
  452MOL0     C60948   7.780   4.387   5.963 -0.2514  0.0906  0.0542
  452MOL0     C60949   7.667   4.306   5.996 -0.0510  0.4436  0.3894
  452MOL0     C60950   7.562   4.233   6.008 -0.7981  0.9310 -0.0784
  452MOL0     C60951   7.622   4.871   6.150 -0.5259  0.1509 -0.3948
  452MOL0     C60952   7.527   4.961   6.199 -0.2800  0.1222 -0.0962
  452MOL0     H60953   7.357   5.450   6.343 -0.6650  0.1047 -1.0869
  452MOL0     H60954   7.150   5.570   6.404  0.9596 -0.0555 -1.7115
  452MOL0     H60955   6.793   5.315   6.433  2.0453 -0.9114 -1.9179
  452MOL0     H60956   6.732   5.491   6.443 -0.2636  1.5766 -2.5178
  452MOL0     H60957   6.824   5.545   6.230 -1.7852 -0.0755 -3.3076
  452MOL0     H60958   6.859   5.372   6.186  1.3334  0.2960 -0.1758
  452MOL0     H60959   6.636   5.325   6.169  1.5556 -0.9100  4.0974
  452MOL0     H60960   6.583   5.452   6.275  0.5367  0.3078  0.7819
  452MOL0     H60961   6.626   5.629   6.109  2.3406 -0.8510 -0.5197
  452MOL0     H60962   6.708   5.509   6.010  1.8203 -0.4198  2.3829
  452MOL0     H60963   6.485   5.537   5.908  3.9966  1.2707  0.1562
  452MOL0     H60964   6.466   5.394   6.008 -2.5732  0.8038 -2.8168
  452MOL0     H60965   6.381   5.542   6.208 -0.8869  0.1507  0.4919
  452MOL0     H60966   6.362   5.676   6.092 -4.2155  0.0158 -0.1546
  452MOL0     H60967   6.205   5.526   5.967  1.9544  1.5409 -0.3862
  452MOL0     H60968   6.249   5.389   6.061 -0.5003  0.2338 -0.7889
  452MOL0     H60969   6.134   5.622   6.209  1.1419 -0.2625 -0.2103
  452MOL0     H60970   6.158   5.454   6.263  3.3381  0.7423 -0.7238
  452MOL0     H60971   5.982   5.270   6.088  1.1864  0.5325  1.2692
  452MOL0     H60972   5.714   5.213   6.050 -1.6023 -0.3375 -0.3717
  452MOL0     H60973   5.613   5.360   6.052  1.1411  0.1255  1.9515
  452MOL0     H60974   5.786   5.285   5.816  1.7535  1.9862  1.0183
  452MOL0     H60975   5.663   5.413   5.823 -1.6233 -0.7082  0.4744
  452MOL0     H60976   5.589   5.127   5.881 -0.5563 -0.4855  0.7875
  452MOL0     H60977   5.599   5.177   5.709 -0.3582 -1.0423  0.9454
  452MOL0     H60978   5.423   5.346   5.750  0.5610  0.0175  0.8304
  452MOL0     H60979   5.415   5.292   5.922  0.2667 -0.5785 -0.2882
  452MOL0     H60980   5.194   4.973   5.733  2.0302  0.2298  0.2029
  452MOL0     H60981   5.073   4.823   5.473  1.3186  0.8935  0.5634
  452MOL0     H60982   5.034   4.871   5.634  2.4607 -1.0146  0.0158
  452MOL0     H60983   4.937   4.921   5.490 -1.4784 -3.1639  0.0527
  452MOL0     H60984   5.214   5.309   4.963 -0.2527  0.3253  0.3537
  452MOL0     H60985   5.145   5.273   4.747  4.0982 -2.5407  0.7474
  452MOL0     H60986   4.938   5.336   4.613  2.0493  0.0673  2.4644
  452MOL0     H60987   5.037   5.197   4.556 -1.1283 -2.6509 -2.4138
  452MOL0     H60988   4.890   5.300   4.383  1.8488 -1.3815 -0.8306
  452MOL0     H60989   4.872   5.118   4.403 -0.8671 -0.4055  0.5647
  452MOL0     H60990   4.672   5.334   4.470 -1.4723  0.7839 -0.2806
  452MOL0     H60991   4.670   5.175   4.557 -1.3413 -0.0092 -1.2533
  452MOL0     H60992   4.667   5.217   4.253  1.3563  0.9748  1.5160
  452MOL0     H60993   4.671   5.057   4.345 -1.8564 -1.0614 -1.7144
  452MOL0     H60994   4.463   5.136   4.477  0.2892  0.3630  0.5049
  452MOL0     H60995   4.464   5.031   4.340  0.7171  0.7456 -1.3986
  452MOL0     H60996   4.415   5.327   4.306 -0.9141  0.3255 -0.1574
  452MOL0     H60997   4.404   5.204   4.180  0.3783 -2.6198  0.4694
  452MOL0     H60998   4.262   5.177   4.454  1.1882 -1.4760  0.2134
  452MOL0     H60999   4.206   5.104   4.304 -0.9200  1.1145  1.0859
  452MOL0     H61000   4.169   5.388   4.392  3.6732 -1.8256  1.0808
  452MOL0     H61001   4.041   5.281   4.341  0.2040  0.0682  0.4948
  452MOL0     H61002   4.783   5.074   4.903  0.8072 -0.7013  0.1813
  452MOL0     H61003   4.879   5.086   5.117 -0.7480  0.7854  1.0680
  452MOL0     H61004   5.288   5.265   5.343  2.3214 -1.9129 -1.2734
  452MOL0     H61005   5.402   5.292   5.550  0.0327  0.3335 -0.2817
  452MOL0     H61006   6.953   5.183   6.432 -1.1648  1.8673  0.3232
  452MOL0     H61007   7.147   5.078   6.335  1.7173 -0.1680 -0.5168
  452MOL0     H61008   7.552   5.203   5.960  1.4507 -1.1370 -3.0231
  452MOL0     H61009   7.742   5.044   5.886  0.5440 -1.7997  0.0785
  452MOL0     H61010   7.712   4.783   5.809  0.2818  1.2180  0.4852
  452MOL0     H61011   7.885   4.815   5.808 -1.8060  0.3515 -1.1200
  452MOL0     H61012   7.927   4.614   5.948  0.6290  2.1326 -0.1796
  452MOL0     H61013   7.903   4.587   5.773 -0.5258 -3.3741  1.9110
  452MOL0     H61014   7.682   4.507   5.805 -0.8411 -0.3181  1.3494
  452MOL0     H61015   7.679   4.578   5.966  2.0583  2.4781 -0.5015
  452MOL0     H61016   7.852   4.401   6.044  1.0894 -0.2272 -1.0457
  452MOL0     H61017   7.838   4.327   5.893  1.4451  0.4756  1.0816
  452MOL0     H61018   7.483   4.166   6.033 -0.3493  0.6725  0.6803
  452MOL0     H61019   7.637   4.776   6.199  0.6418  0.0655 -0.8870
  452MOL0     H61020   7.482   4.952   6.298 -0.0021 -2.1827 -0.1267
  453MOL0     O61021   5.964   4.248   2.545 -0.0851  0.2166 -0.6022
  453MOL0     C61022   6.039   4.332   2.608  0.2498  0.3300 -0.2155
  453MOL0     O61023   5.985   4.447   2.671 -0.6996 -0.0767 -0.2210
  453MOL0     C61024   5.858   4.480   2.654  0.4683 -1.2073 -0.3617
  453MOL0     C61025   5.802   4.536   2.536  0.0114  0.2410  0.0656
  453MOL0     C61026   5.667   4.575   2.518 -0.4680  0.0818  0.2062
  453MOL0     C61027   5.574   4.582   2.628  0.4534  0.5122  0.7258
  453MOL0     O61028   5.449   4.634   2.607  1.0746 -1.0775 -0.3604
  453MOL0     C61029   5.356   4.633   2.721 -0.8442 -0.3086  0.3849
  453MOL0     C61030   5.228   4.677   2.676  0.0106  0.7829 -0.0265
  453MOL0     C61031   5.205   4.817   2.630 -0.5057  0.3643  0.1295
  453MOL0     C61032   5.073   4.880   2.683  0.0441  0.0835  0.1129
  453MOL0     C61033   5.061   5.008   2.599 -0.0616 -0.3382 -0.5027
  453MOL0     C61034   4.940   5.090   2.645  0.4377  0.1702 -0.1816
  453MOL0     C61035   4.952   5.233   2.597  0.0991  0.7675  0.0290
  453MOL0     C61036   4.876   5.340   2.676 -0.1756  0.4068  0.2827
  453MOL0     N61037   4.862   5.466   2.611 -0.4981  0.0288  0.4744
  453MOL0     C61038   4.755   5.511   2.544  0.1420  0.2384 -0.4105
  453MOL0     C61039   4.785   5.635   2.507  0.3039  0.3652  0.1949
  453MOL0     C61040   4.698   5.734   2.442  1.3584  0.6359 -0.0654
  453MOL0     C61041   4.744   5.750   2.292 -0.4262  0.8911  0.2750
  453MOL0     C61042   4.705   5.886   2.232  0.9921  0.4589 -0.6854
  453MOL0     C61043   4.548   5.914   2.224 -0.0389 -0.1572 -0.7526
  453MOL0     O61044   4.530   5.995   2.103  0.3304 -0.1666  0.4318
  453MOL0     C61045   4.396   6.018   2.064 -0.3971  0.2867  0.0962
  453MOL0     C61046   4.376   6.110   1.964 -0.1827  0.7771  0.2795
  453MOL0     C61047   4.248   6.142   1.920 -0.0483  0.6170 -0.4376
  453MOL0     C61048   4.230   6.235   1.805 -0.4741 -0.6171  0.0843
  453MOL0     C61049   4.139   6.092   1.998  0.2081 -0.3486 -0.0016
  453MOL0     C61050   4.005   6.137   1.973 -0.2049  0.3884  0.8361
  453MOL0     O61051   3.906   6.045   1.988  0.5650 -0.3568 -0.5977
  453MOL0     C61052   3.782   6.077   1.955  0.1221 -0.1940 -0.2127
  453MOL0     C61053   3.735   6.051   1.826  0.4633 -0.1799 -0.2872
  453MOL0     C61054   3.604   6.081   1.796 -0.1435 -0.5956  0.1881
  453MOL0     C61055   3.505   6.114   1.890 -0.0339  0.9907  0.2240
  453MOL0     O61056   3.383   6.155   1.852  0.4224  0.2417  0.4272
  453MOL0     C61057   3.275   6.108   1.934  0.3693  0.1547  1.0954
  453MOL0     C61058   3.145   6.108   1.843 -0.0627 -0.0474 -0.0164
  453MOL0     C61059   3.011   6.096   1.912  0.4392  0.1675  0.4950
  453MOL0     C61060   2.975   5.958   1.969  0.2562 -0.7452  0.0018
  453MOL0     C61061   2.828   5.941   1.996  0.4112 -0.8879  0.2926
  453MOL0     C61062   2.762   5.880   1.871  0.2810  1.1911 -0.1087
  453MOL0     C61063   2.615   5.854   1.878 -1.5544  0.7173 -0.5742
  453MOL0     C61064   2.535   5.990   1.902  0.5249 -0.5268 -1.0215
  453MOL0    Cl61065   2.364   5.962   1.875 -0.1530  0.5241 -0.0908
  453MOL0     C61066   3.555   6.139   2.020  0.5680  0.2646  0.1311
  453MOL0     C61067   3.692   6.114   2.051  0.8553 -0.0830 -0.1496
  453MOL0     O61068   3.991   6.260   1.952  0.2915 -0.0107 -0.1125
  453MOL0     C61069   4.157   6.006   2.105 -0.4297 -0.1818  0.1563
  453MOL0     C61070   4.287   5.966   2.136  0.1462  0.1683  0.0239
  453MOL0     N61071   4.914   5.650   2.551 -0.0284 -0.3396 -0.0767
  453MOL0     N61072   4.965   5.561   2.613 -0.6992 -0.8471  0.8156
  453MOL0     C61073   5.629   4.533   2.748  0.4933 -0.1521  0.1285
  453MOL0     C61074   5.765   4.478   2.762 -0.1762 -0.1293 -0.0442
  453MOL0     C61075   6.188   4.322   2.635 -0.3209  0.6165  0.6445
  453MOL0     C61076   6.260   4.419   2.700  0.2177 -0.1588  0.8887
  453MOL0     C61077   6.403   4.413   2.699 -0.0420  0.7799  0.5577
  453MOL0     C61078   6.474   4.302   2.647 -0.2663 -0.1034  0.0335
  453MOL0     O61079   6.606   4.292   2.651  0.5265  0.2238  0.1268
  453MOL0     C61080   6.680   4.336   2.764  0.5092 -0.5793  0.1033
  453MOL0     C61081   6.705   4.206   2.845  0.1406 -0.1551  0.1860
  453MOL0     C61082   6.578   4.172   2.926 -0.3064  0.2289  0.4029
  453MOL0     C61083   6.605   4.051   3.022  0.1083 -0.1168  0.3592
  453MOL0     C61084   6.712   4.088   3.114 -0.8294  0.2834  0.5026
  453MOL0     C61085   6.802   4.135   3.187  0.6447 -0.1694 -0.1630
  453MOL0     C61086   6.402   4.210   2.586 -0.4670  1.0904 -0.5796
  453MOL0     C61087   6.264   4.218   2.579  0.4884 -0.8085 -0.2573
  453MOL0     H61088   5.875   4.561   2.460 -1.2416 -2.3240 -2.1588
  453MOL0     H61089   5.653   4.613   2.417  2.1552  1.2467  0.1839
  453MOL0     H61090   5.347   4.532   2.763 -0.6753 -1.1450 -1.5170
  453MOL0     H61091   5.378   4.708   2.798 -2.0527  1.0770 -0.5716
  453MOL0     H61092   5.196   4.610   2.595  0.4556  0.3198  0.1742
  453MOL0     H61093   5.158   4.662   2.759 -2.8484  1.3632 -2.1760
  453MOL0     H61094   5.287   4.880   2.667 -2.1759  1.7689  1.6562
  453MOL0     H61095   5.215   4.815   2.521  1.0398 -1.1081  0.2546
  453MOL0     H61096   4.990   4.818   2.649  1.2802 -1.1046 -0.8602
  453MOL0     H61097   5.078   4.892   2.792  2.2298  0.1747  0.0542
  453MOL0     H61098   5.149   5.073   2.603 -0.6422  0.4251  0.3457
  453MOL0     H61099   5.047   4.979   2.494  0.7839  3.1263 -1.7005
  453MOL0     H61100   4.844   5.049   2.613  2.3265 -2.6379 -2.9660
  453MOL0     H61101   4.940   5.091   2.754  1.0552 -0.1315 -0.1718
  453MOL0     H61102   5.055   5.269   2.609  0.8033 -1.3378  0.6519
  453MOL0     H61103   4.918   5.236   2.493 -0.9363  0.5113  0.3498
  453MOL0     H61104   4.924   5.361   2.771  1.4143 -0.0031 -0.3907
  453MOL0     H61105   4.777   5.295   2.689 -0.2481  0.3400 -0.4524
  453MOL0     H61106   4.663   5.454   2.537  0.6709 -1.2278  2.7369
  453MOL0     H61107   4.594   5.712   2.465  1.9820  1.5263  4.6376
  453MOL0     H61108   4.716   5.831   2.489  1.8262  0.8086 -0.5838
  453MOL0     H61109   4.712   5.667   2.228 -0.6562 -0.4545  2.0241
  453MOL0     H61110   4.853   5.752   2.299 -0.5092  1.1348  1.9685
  453MOL0     H61111   4.754   5.900   2.135 -0.2029  3.2691 -0.9722
  453MOL0     H61112   4.747   5.954   2.306 -1.6349 -0.6167  1.9859
  453MOL0     H61113   4.523   5.984   2.304  1.8735  2.3890 -2.2093
  453MOL0     H61114   4.498   5.817   2.225  3.2069 -1.9866 -0.6852
  453MOL0     H61115   4.471   6.154   1.933  0.9725 -0.7954  1.4329
  453MOL0     H61116   4.322   6.245   1.746 -2.2209  0.4410 -2.6929
  453MOL0     H61117   4.151   6.204   1.735  0.4016  1.1352 -1.7910
  453MOL0     H61118   4.192   6.333   1.834 -0.2409  0.4487 -2.8531
  453MOL0     H61119   3.792   6.017   1.740 -2.1422 -0.3043 -2.0964
  453MOL0     H61120   3.582   6.098   1.691  0.5540  0.4049  0.1861
  453MOL0     H61121   3.299   6.008   1.971 -3.3241 -1.5350 -0.5750
  453MOL0     H61122   3.258   6.173   2.020 -0.8293  0.8081  0.3956
  453MOL0     H61123   3.138   6.206   1.795 -0.3868 -0.0878 -0.0490
  453MOL0     H61124   3.162   6.025   1.774  1.4809 -0.6824  1.0570
  453MOL0     H61125   2.940   6.121   1.833  0.9415 -2.4636 -0.9097
  453MOL0     H61126   2.988   6.177   1.982  0.9913 -0.0489  0.9338
  453MOL0     H61127   3.013   5.876   1.907  0.0279 -0.5485 -0.3999
  453MOL0     H61128   3.023   5.931   2.064  0.6552  0.2170  0.0863
  453MOL0     H61129   2.781   6.038   2.016  0.9867 -0.0837 -1.9848
  453MOL0     H61130   2.812   5.873   2.080 -0.1608  1.6260  2.3414
  453MOL0     H61131   2.783   5.951   1.789  1.4505  1.2158  0.1945
  453MOL0     H61132   2.803   5.784   1.840 -1.7580 -0.1835  1.2874
  453MOL0     H61133   2.593   5.786   1.960 -0.6676  0.2936 -0.6812
  453MOL0     H61134   2.574   5.795   1.795  0.5775 -1.3495 -0.2552
  453MOL0     H61135   2.574   6.073   1.842  0.7834  0.4118  0.3938
  453MOL0     H61136   2.550   6.018   2.007 -2.9703  1.4837 -0.8884
  453MOL0     H61137   3.485   6.167   2.098  0.0255 -2.4798  0.7293
  453MOL0     H61138   3.728   6.136   2.151  0.0680  2.6403 -0.3944
  453MOL0     H61139   4.064   5.975   2.152 -0.4848 -1.5707 -0.7892
  453MOL0     H61140   4.273   5.891   2.214  0.8506  0.1215  0.1134
  453MOL0     H61141   5.571   4.529   2.839 -1.7826  0.0701 -1.2425
  453MOL0     H61142   5.794   4.445   2.861 -0.0398  0.3997  0.0945
  453MOL0     H61143   6.213   4.510   2.733 -1.5518 -0.2246 -1.2024
  453MOL0     H61144   6.458   4.493   2.749  0.9805  0.0940  0.5696
  453MOL0     H61145   6.777   4.378   2.735 -0.8731  0.6365 -3.2574
  453MOL0     H61146   6.623   4.406   2.826  2.2155  0.2534  0.8022
  453MOL0     H61147   6.795   4.217   2.906  1.6006  0.9805 -2.0701
  453MOL0     H61148   6.719   4.120   2.780 -0.6311 -0.0986 -0.0710
  453MOL0     H61149   6.504   4.142   2.852  1.2092  0.7131 -1.3889
  453MOL0     H61150   6.530   4.253   2.982 -3.3394 -1.6215  0.6918
  453MOL0     H61151   6.640   3.963   2.966  2.2218  0.5068  0.6048
  453MOL0     H61152   6.520   4.025   3.085  1.2561 -1.1405  1.5653
  453MOL0     H61153   6.867   4.198   3.244  0.6668 -1.1064  0.8939
  453MOL0     H61154   6.442   4.117   2.548 -3.2264  0.1575 -1.4338
  453MOL0     H61155   6.201   4.153   2.518 -0.3126 -0.9707  0.7039
  454MOL0     O61156   9.926   7.062   5.258 -0.4818  0.4972  0.3706
  454MOL0     C61157  10.041   7.019   5.275 -0.6731  0.4247 -0.9953
  454MOL0     O61158  10.079   6.892   5.293 -0.0072 -0.4185 -0.4135
  454MOL0     C61159   9.978   6.797   5.282  0.4824  0.2225 -1.2045
  454MOL0     C61160   9.874   6.789   5.375 -0.1100  0.0806 -0.7221
  454MOL0     C61161   9.771   6.698   5.356  0.0161 -0.6789  0.4748
  454MOL0     C61162   9.781   6.598   5.249  0.3119  0.3295 -0.2325
  454MOL0     O61163   9.678   6.507   5.245  0.5315  0.0685  0.0897
  454MOL0     C61164   9.680   6.391   5.161 -0.1341 -0.6466  0.1506
  454MOL0     C61165   9.560   6.310   5.211 -0.5080  0.5494  0.2447
  454MOL0     C61166   9.429   6.389   5.203  0.2796  0.0059 -0.1864
  454MOL0     C61167   9.326   6.310   5.287 -0.0027  0.2559  0.1745
  454MOL0     C61168   9.198   6.382   5.330  0.5812 -0.7855  0.3470
  454MOL0     C61169   9.084   6.387   5.217  0.3756 -0.3079 -0.5273
  454MOL0     C61170   9.022   6.253   5.170 -0.6257 -0.0761  0.0304
  454MOL0     C61171   8.922   6.278   5.057 -0.0506  0.3936  0.5448
  454MOL0     N61172   8.798   6.325   5.124  0.7030 -0.4006  0.3531
  454MOL0     C61173   8.714   6.249   5.204  0.1709  0.2047 -0.1079
  454MOL0     C61174   8.624   6.346   5.247 -0.0105  0.1423  0.4951
  454MOL0     C61175   8.501   6.303   5.327 -0.5517 -0.4208  0.5126
  454MOL0     C61176   8.384   6.238   5.243 -0.3431 -0.6643 -1.1281
  454MOL0     C61177   8.311   6.339   5.143  0.3220  0.0910 -0.3043
  454MOL0     C61178   8.377   6.330   5.001  0.9146 -0.0807 -1.0299
  454MOL0     O61179   8.338   6.220   4.920  0.1272 -0.9612 -0.2400
  454MOL0     C61180   8.213   6.219   4.856 -0.4209  0.0122  0.1306
  454MOL0     C61181   8.159   6.319   4.778  0.0012  0.0633 -0.6213
  454MOL0     C61182   8.037   6.307   4.709 -0.1908 -0.6347 -0.0489
  454MOL0     C61183   8.007   6.412   4.611 -0.2871 -1.2930  0.3179
  454MOL0     C61184   7.962   6.190   4.722  0.1534  0.5196  0.7839
  454MOL0     C61185   7.840   6.155   4.645  1.2177 -0.0794 -0.1799
  454MOL0     O61186   7.773   6.041   4.694  0.7430 -0.0500  0.1991
  454MOL0     C61187   7.646   6.013   4.647  0.2931  0.3559  0.2590
  454MOL0     C61188   7.619   5.882   4.609  0.5561 -0.3092  0.6622
  454MOL0     C61189   7.483   5.846   4.581  0.1666  0.7057  0.2073
  454MOL0     C61190   7.373   5.931   4.591  0.1644 -0.0672  0.1304
  454MOL0     O61191   7.251   5.879   4.554 -0.2918 -0.2515  0.1423
  454MOL0     C61192   7.145   5.972   4.559 -0.3936 -0.6574 -0.6630
  454MOL0     C61193   7.030   5.895   4.500  0.5409  0.6781  0.2510
  454MOL0     C61194   6.917   5.996   4.449 -0.2902  0.4361 -0.6578
  454MOL0     C61195   6.783   5.930   4.421  0.1446  0.3314  0.4289
  454MOL0     C61196   6.697   6.027   4.342 -0.0375 -0.9112  0.0181
  454MOL0     C61197   6.556   5.987   4.347 -0.3505 -0.5696 -0.6751
  454MOL0     C61198   6.519   5.866   4.255  0.0146 -0.2289 -0.2834
  454MOL0     C61199   6.415   5.777   4.317  0.5377  0.6488 -0.0234
  454MOL0    Cl61200   6.260   5.871   4.296  0.3282  0.0850 -0.1246
  454MOL0     C61201   7.410   6.066   4.623  0.1190 -0.4297 -0.1058
  454MOL0     C61202   7.539   6.106   4.648 -0.8563 -0.0748 -0.3052
  454MOL0     O61203   7.792   6.224   4.557  0.3652  0.3741 -0.3761
  454MOL0     C61204   8.011   6.089   4.809 -0.7728 -0.5883 -0.6278
  454MOL0     C61205   8.131   6.110   4.874  0.0240  0.9839  0.9393
  454MOL0     N61206   8.662   6.471   5.195  0.1264 -0.1946 -0.0087
  454MOL0     N61207   8.767   6.455   5.126  0.2400 -0.3284 -1.6980
  454MOL0     C61208   9.892   6.605   5.158  0.5341  0.4450 -0.7493
  454MOL0     C61209   9.990   6.703   5.186  0.3200 -0.1528 -0.0421
  454MOL0     C61210  10.150   7.112   5.296 -0.6083 -0.4092  0.2176
  454MOL0     C61211  10.131   7.252   5.278  0.3020  0.5929 -0.2276
  454MOL0     C61212  10.232   7.336   5.311  0.2409  0.0784 -0.8509
  454MOL0     C61213  10.357   7.296   5.359 -0.9086  0.0814  0.2731
  454MOL0     O61214  10.436   7.403   5.404 -0.0063 -0.0926  0.0913
  454MOL0     C61215  10.568   7.373   5.453  0.8419 -1.2094  0.8408
  454MOL0     C61216  10.679   7.390   5.343 -0.7283 -0.4652  0.0080
  454MOL0     C61217  10.700   7.537   5.302 -0.4427  0.1644 -1.2305
  454MOL0     C61218  10.807   7.561   5.198 -0.4407  0.2910  0.0853
  454MOL0     C61219  10.946   7.512   5.231  0.8565  0.0439  0.7330
  454MOL0     C61220  11.059   7.479   5.265 -0.3016 -0.9982  0.2538
  454MOL0     C61221  10.387   7.161   5.358  0.2814 -0.5239 -0.8373
  454MOL0     C61222  10.285   7.077   5.324  0.1275  0.0338 -0.4933
  454MOL0     H61223   9.871   6.861   5.456  0.1015 -0.7778  0.0745
  454MOL0     H61224   9.696   6.709   5.433 -0.4214  0.9474 -0.1506
  454MOL0     H61225   9.668   6.414   5.055 -0.3702  1.3012  0.5690
  454MOL0     H61226   9.776   6.340   5.177  0.6401  0.4334 -0.9009
  454MOL0     H61227   9.544   6.218   5.155 -0.6827  1.9735 -2.1800
  454MOL0     H61228   9.583   6.288   5.316 -0.3239  0.0805  0.1105
  454MOL0     H61229   9.450   6.491   5.234  2.0027 -0.0488 -1.0395
  454MOL0     H61230   9.382   6.401   5.105 -3.4402  2.6723  1.6618
  454MOL0     H61231   9.295   6.219   5.233  0.1714  1.1745 -1.5423
  454MOL0     H61232   9.367   6.281   5.384 -1.9615  0.5481  1.1395
  454MOL0     H61233   9.143   6.334   5.411 -1.3204 -0.4784 -0.7130
  454MOL0     H61234   9.224   6.483   5.364  2.3067  0.2546 -3.4291
  454MOL0     H61235   8.999   6.448   5.249  0.3291 -0.5209 -0.2485
  454MOL0     H61236   9.126   6.429   5.125  1.1101 -2.0555 -1.0359
  454MOL0     H61237   9.096   6.178   5.141 -0.7095  0.5477 -1.9905
  454MOL0     H61238   8.971   6.207   5.254  0.6788 -1.8706 -0.1073
  454MOL0     H61239   8.909   6.187   4.998  0.0580  1.0935 -0.5700
  454MOL0     H61240   8.961   6.361   4.998  0.8588 -0.1485  0.3520
  454MOL0     H61241   8.721   6.143   5.226  0.2059 -0.1798 -1.7994
  454MOL0     H61242   8.537   6.231   5.401  1.9480 -0.3485 -0.5652
  454MOL0     H61243   8.463   6.397   5.368 -0.8835  0.7559 -2.2529
  454MOL0     H61244   8.310   6.205   5.316 -0.3913 -0.2377 -0.9782
  454MOL0     H61245   8.424   6.157   5.182  0.5188 -0.7670 -0.4529
  454MOL0     H61246   8.303   6.442   5.177 -1.6444  0.4453 -1.6481
  454MOL0     H61247   8.205   6.312   5.143  0.8190 -2.2313 -1.6846
  454MOL0     H61248   8.485   6.322   5.022  0.6305 -1.3814  0.0718
  454MOL0     H61249   8.360   6.426   4.951  3.2352 -0.6625 -3.1744
  454MOL0     H61250   8.227   6.402   4.761  1.2861 -0.5484  1.1864
  454MOL0     H61251   8.040   6.388   4.509 -0.0298 -0.8728  0.3008
  454MOL0     H61252   7.904   6.449   4.617  0.8300  2.2094 -0.0109
  454MOL0     H61253   8.063   6.502   4.638 -2.5029  0.6994 -1.2358
  454MOL0     H61254   7.691   5.803   4.627  0.2518 -0.5199  0.9830
  454MOL0     H61255   7.453   5.748   4.547 -0.3485  0.2070  1.9751
  454MOL0     H61256   7.127   5.987   4.666 -1.0211  0.4330 -0.8968
  454MOL0     H61257   7.162   6.070   4.512 -0.7463  0.1405  0.8136
  454MOL0     H61258   7.061   5.834   4.415 -3.3442  1.9893 -2.4142
  454MOL0     H61259   6.985   5.839   4.583  0.8802  1.6939  1.1473
  454MOL0     H61260   6.950   6.038   4.353  1.9756  1.6490  0.5890
  454MOL0     H61261   6.902   6.067   4.530 -1.1864 -1.8618  1.3213
  454MOL0     H61262   6.793   5.832   4.373  1.1076  1.6178 -2.1857
  454MOL0     H61263   6.726   5.907   4.512 -2.6687 -0.2619 -1.3928
  454MOL0     H61264   6.734   6.031   4.239 -0.6568 -1.4432 -0.2331
  454MOL0     H61265   6.703   6.129   4.380  4.5950 -0.5634 -1.0181
  454MOL0     H61266   6.525   5.962   4.449  0.9698 -3.4496 -0.8797
  454MOL0     H61267   6.492   6.069   4.313 -3.5820 -2.3314  0.6529
  454MOL0     H61268   6.605   5.809   4.217 -0.2270  0.8492 -2.6068
  454MOL0     H61269   6.485   5.911   4.161  1.4650  3.5631  0.8151
  454MOL0     H61270   6.428   5.755   4.424  0.2806 -0.4778 -0.2131
  454MOL0     H61271   6.396   5.684   4.263 -2.8626  0.4865  1.2151
  454MOL0     H61272   7.340   6.148   4.638 -0.4269 -1.1271  1.3091
  454MOL0     H61273   7.566   6.203   4.689  1.4933 -2.0194  3.2909
  454MOL0     H61274   7.963   5.995   4.832 -0.6874 -0.3366  0.6368
  454MOL0     H61275   8.173   6.030   4.934 -0.4004 -1.1303 -1.4037
  454MOL0     H61276   9.893   6.539   5.072 -0.5551 -0.4313 -0.1065
  454MOL0     H61277  10.083   6.713   5.131  0.6975 -0.5950  0.4969
  454MOL0     H61278  10.030   7.282   5.256 -0.6815  0.8528  3.7979
  454MOL0     H61279  10.224   7.445   5.309  0.7169  0.2969  2.7638
  454MOL0     H61280  10.584   7.431   5.544 -0.6367  1.9310 -0.7346
  454MOL0     H61281  10.574   7.266   5.476  2.4339 -0.9365  1.8141
  454MOL0     H61282  10.651   7.335   5.252  0.8918 -3.1174  0.9928
  454MOL0     H61283  10.774   7.354   5.382 -0.0615  1.9178  0.7189
  454MOL0     H61284  10.714   7.600   5.390  2.3530  0.0581 -1.5259
  454MOL0     H61285  10.610   7.568   5.248 -1.2800 -0.8873 -0.4909
  454MOL0     H61286  10.818   7.668   5.179  0.8147  0.1919  0.1453
  454MOL0     H61287  10.773   7.512   5.107 -0.5372  1.2493 -0.4068
  454MOL0     H61288  11.158   7.468   5.307 -0.0295 -1.8986 -0.6019
  454MOL0     H61289  10.485   7.117   5.378  0.3458 -0.3493 -0.7710
  454MOL0     H61290  10.301   6.971   5.307 -2.9495 -0.4469 -1.0331
  455MOL0     O61291   6.211   3.781   3.305  0.6628 -0.3172  0.5350
  455MOL0     C61292   6.287   3.749   3.212  0.5563  0.0631  0.0905
  455MOL0     O61293   6.245   3.713   3.091  0.1161  0.2094  0.0685
  455MOL0     C61294   6.121   3.660   3.072  0.1836 -0.6195 -0.1647
  455MOL0     C61295   6.048   3.586   3.158  0.4568  0.3251 -0.2880
  455MOL0     C61296   5.928   3.525   3.120  1.1764 -0.0479 -0.1393
  455MOL0     C61297   5.873   3.536   2.989 -0.7926 -0.0294 -0.0383
  455MOL0     O61298   5.755   3.487   2.955  0.4424  0.0805 -0.5431
  455MOL0     C61299   5.650   3.533   3.036  0.0237 -0.5391 -0.5383
  455MOL0     C61300   5.515   3.552   2.970 -0.7927  0.3956  0.4010
  455MOL0     C61301   5.518   3.657   2.852  0.0008  0.4074 -0.6281
  455MOL0     C61302   5.384   3.654   2.768  0.8814  1.0981  0.9144
  455MOL0     C61303   5.257   3.672   2.848 -0.2566 -0.3362 -1.0607
  455MOL0     C61304   5.262   3.814   2.926 -0.1737  0.9678  0.1575
  455MOL0     C61305   5.116   3.857   2.953 -0.7136 -0.1244  0.8924
  455MOL0     C61306   5.104   3.970   3.052  0.3944  0.2517 -0.3191
  455MOL0     N61307   4.958   4.007   3.069 -0.4909  0.3890  0.1457
  455MOL0     C61308   4.899   4.126   3.044 -0.2305 -0.0695  0.0666
  455MOL0     C61309   4.773   4.114   3.086  0.7462 -0.4242 -0.0201
  455MOL0     C61310   4.671   4.227   3.063 -0.6368  0.7220  0.5283
  455MOL0     C61311   4.726   4.378   3.068 -0.0100  0.3110  0.1352
  455MOL0     C61312   4.787   4.426   3.202 -0.0816  0.1759  0.6211
  455MOL0     C61313   4.693   4.414   3.329 -0.7232  0.4007  0.0520
  455MOL0     O61314   4.568   4.469   3.303 -0.3558 -0.4374 -0.2576
  455MOL0     C61315   4.547   4.609   3.329 -0.8328  0.4971 -0.2716
  455MOL0     C61316   4.641   4.702   3.360 -0.1299 -0.5881 -0.4259
  455MOL0     C61317   4.618   4.839   3.377  0.0306  1.1533 -0.2934
  455MOL0     C61318   4.738   4.937   3.407  0.1488 -0.7947  0.1968
  455MOL0     C61319   4.486   4.891   3.359 -0.3491 -0.0507  0.2878
  455MOL0     C61320   4.444   5.036   3.355 -0.2618 -0.0658  0.7945
  455MOL0     O61321   4.307   5.060   3.379  0.5788  0.2791 -0.3930
  455MOL0     C61322   4.259   5.183   3.328  0.7341  1.1312  0.4239
  455MOL0     C61323   4.286   5.223   3.200 -0.9778  0.3979 -0.5409
  455MOL0     C61324   4.210   5.327   3.147 -0.0449 -0.4774 -1.0686
  455MOL0     C61325   4.115   5.395   3.227 -0.4321 -1.0840  0.2172
  455MOL0     O61326   4.054   5.511   3.184 -0.4390  0.3055  0.3542
  455MOL0     C61327   4.127   5.610   3.108  0.0223  0.1794 -0.4453
  455MOL0     C61328   4.042   5.734   3.078 -1.2517  0.8393 -0.0183
  455MOL0     C61329   3.904   5.698   3.015  0.4452  0.5503  0.0918
  455MOL0     C61330   3.810   5.814   3.000 -0.1293 -0.5712 -0.5327
  455MOL0     C61331   3.844   5.928   2.889  0.4925  0.4859  0.9933
  455MOL0     C61332   3.754   6.051   2.898 -0.1931 -0.2504  0.4810
  455MOL0     C61333   3.792   6.162   2.802 -0.3659 -0.4235  0.7288
  455MOL0     C61334   3.671   6.253   2.806 -0.2062 -0.3783  0.0868
  455MOL0    Cl61335   3.532   6.212   2.689  0.1223  0.2620  0.1060
  455MOL0     C61336   4.076   5.342   3.347 -0.0018  0.1664 -0.3556
  455MOL0     C61337   4.151   5.242   3.401 -0.8304 -0.3997  0.7813
  455MOL0     O61338   4.526   5.122   3.329  0.5034  0.0173  0.3103
  455MOL0     C61339   4.385   4.793   3.314  0.1842  0.1262 -0.1212
  455MOL0     C61340   4.420   4.659   3.296 -0.1982 -0.0937 -0.3600
  455MOL0     N61341   4.751   3.994   3.130 -0.5820  1.2943 -0.2205
  455MOL0     N61342   4.861   3.924   3.118  0.1973 -0.0327 -0.6166
  455MOL0     C61343   5.942   3.606   2.898 -0.8602  0.5931  0.2059
  455MOL0     C61344   6.061   3.675   2.950 -0.5259  0.7607  0.6734
  455MOL0     C61345   6.435   3.752   3.227  0.1945  0.7516  0.7735
  455MOL0     C61346   6.491   3.757   3.355 -1.0908  0.2985 -0.7981
  455MOL0     C61347   6.628   3.755   3.368  0.4463 -0.3504  0.4939
  455MOL0     C61348   6.715   3.757   3.258  0.1079 -0.7523  0.6750
  455MOL0     O61349   6.850   3.734   3.283 -0.1075 -0.4834 -0.2362
  455MOL0     C61350   6.938   3.760   3.172  0.4065  0.5079  0.1747
  455MOL0     C61351   7.076   3.791   3.231  0.7247 -0.2859  0.8494
  455MOL0     C61352   7.071   3.914   3.311  0.3327 -0.9817  0.2313
  455MOL0     C61353   7.196   3.937   3.397  0.2555 -0.6233  0.4581
  455MOL0     C61354   7.159   4.034   3.501 -0.6849 -0.0396  0.1403
  455MOL0     C61355   7.138   4.122   3.579 -0.7429  0.1234  0.0034
  455MOL0     C61356   6.659   3.760   3.129 -0.3829 -0.0568 -0.1594
  455MOL0     C61357   6.521   3.752   3.109  0.7998 -0.1038  0.4401
  455MOL0     H61358   6.082   3.575   3.261  0.7679  0.4737 -0.3747
  455MOL0     H61359   5.886   3.453   3.190  0.0850 -1.0710 -1.7712
  455MOL0     H61360   5.637   3.461   3.117  0.7464  1.8204  1.8143
  455MOL0     H61361   5.668   3.631   3.082 -0.9937 -1.5619  2.2555
  455MOL0     H61362   5.485   3.454   2.932 -0.1167 -0.1058  1.1533
  455MOL0     H61363   5.437   3.584   3.040 -0.6626 -0.3321  0.8797
  455MOL0     H61364   5.539   3.758   2.888  1.0055  0.1375 -0.4286
  455MOL0     H61365   5.611   3.634   2.800  1.7457 -0.3373  2.5852
  455MOL0     H61366   5.376   3.721   2.682  0.1355 -0.5930 -0.3873
  455MOL0     H61367   5.382   3.555   2.721 -1.1703  2.3779 -1.9736
  455MOL0     H61368   5.168   3.659   2.785 -0.9256 -0.4783 -0.1179
  455MOL0     H61369   5.258   3.595   2.925  2.6781 -0.4849 -1.1429
  455MOL0     H61370   5.314   3.810   3.022 -1.8750 -0.1329  1.0918
  455MOL0     H61371   5.299   3.887   2.854 -0.9239  0.2851 -0.9419
  455MOL0     H61372   5.071   3.895   2.860 -0.4219  0.0539  0.8225
  455MOL0     H61373   5.054   3.771   2.977  1.9973 -2.6399 -0.4668
  455MOL0     H61374   5.169   4.057   3.038 -1.0278  1.3440 -0.3344
  455MOL0     H61375   5.133   3.940   3.153  0.6483  0.4784 -0.3215
  455MOL0     H61376   4.953   4.214   3.012 -0.6038  0.1580  0.0529
  455MOL0     H61377   4.622   4.224   2.966  3.1265  1.4218 -1.5921
  455MOL0     H61378   4.598   4.212   3.143 -0.3093  0.6728  0.8202
  455MOL0     H61379   4.642   4.446   3.049 -0.2153 -0.2989 -1.2943
  455MOL0     H61380   4.802   4.392   2.990  1.4123  0.5127  1.5148
  455MOL0     H61381   4.816   4.530   3.191  0.2199  0.4546  3.2839
  455MOL0     H61382   4.882   4.375   3.223 -0.7790 -0.8835  1.3257
  455MOL0     H61383   4.745   4.469   3.407  0.1762  1.4325 -1.2238
  455MOL0     H61384   4.692   4.309   3.361  1.7329  0.3671  0.2356
  455MOL0     H61385   4.742   4.667   3.376 -0.1976 -0.7985 -0.4636
  455MOL0     H61386   4.758   5.010   3.328 -3.1652 -0.5010 -0.5072
  455MOL0     H61387   4.702   4.997   3.490  3.1166  1.4392  0.0250
  455MOL0     H61388   4.831   4.881   3.420  1.0558  0.5287 -0.4104
  455MOL0     H61389   4.363   5.165   3.151  0.4428  1.6596  0.1041
  455MOL0     H61390   4.250   5.363   3.053 -0.1241  0.2195 -0.8412
  455MOL0     H61391   4.215   5.645   3.164 -0.6328 -0.3270  0.9450
  455MOL0     H61392   4.155   5.567   3.011 -0.5040  1.1437 -1.0484
  455MOL0     H61393   4.032   5.772   3.180  4.1437 -1.9575  1.9715
  455MOL0     H61394   4.086   5.818   3.023  0.6974 -3.0297 -5.1623
  455MOL0     H61395   3.858   5.631   3.089 -1.7822 -0.1919 -1.8531
  455MOL0     H61396   3.916   5.637   2.924  1.9460  1.4919 -0.3828
  455MOL0     H61397   3.714   5.767   2.975 -0.1441 -1.3610  0.9364
  455MOL0     H61398   3.814   5.867   3.095 -0.8760 -0.8585 -0.3322
  455MOL0     H61399   3.838   5.879   2.791  2.2782 -0.9816  1.5688
  455MOL0     H61400   3.945   5.967   2.906  1.1505 -0.3403 -0.7434
  455MOL0     H61401   3.655   6.016   2.870 -0.5567  1.4587 -0.5697
  455MOL0     H61402   3.757   6.090   3.000 -0.3010  1.1632 -0.0308
  455MOL0     H61403   3.798   6.124   2.699 -2.0745  2.2030 -0.4434
  455MOL0     H61404   3.881   6.220   2.830 -2.0042  2.3518  0.5965
  455MOL0     H61405   3.705   6.354   2.783  2.8102 -1.6182 -1.4931
  455MOL0     H61406   3.613   6.256   2.899 -3.2072 -2.5685 -1.5182
  455MOL0     H61407   3.990   5.387   3.397 -0.8548 -2.7795  1.1330
  455MOL0     H61408   4.129   5.201   3.499  1.4917 -2.0143  0.7174
  455MOL0     H61409   4.282   4.825   3.301  0.4441  0.4712 -1.4491
  455MOL0     H61410   4.337   4.596   3.264  0.0605 -0.2087 -0.8192
  455MOL0     H61411   5.904   3.605   2.796  0.2325  0.0558 -0.2133
  455MOL0     H61412   6.125   3.738   2.889  1.7509 -0.9392  1.1440
  455MOL0     H61413   6.444   3.756   3.453  1.0312  0.0937  0.2700
  455MOL0     H61414   6.679   3.741   3.463  0.3254 -1.1327  0.4514
  455MOL0     H61415   6.955   3.671   3.111  1.3215  1.8649 -1.6445
  455MOL0     H61416   6.896   3.843   3.114 -1.4406  0.2633  1.0894
  455MOL0     H61417   7.154   3.808   3.157  0.9700 -0.5151  1.0547
  455MOL0     H61418   7.108   3.706   3.291  2.6585 -0.8992 -0.9120
  455MOL0     H61419   6.989   3.923   3.382  0.3905  0.8097  0.1258
  455MOL0     H61420   7.057   4.003   3.249  0.8775 -2.4335 -2.0834
  455MOL0     H61421   7.269   3.986   3.331  0.3081 -1.0018  0.2362
  455MOL0     H61422   7.250   3.849   3.432  1.0063  0.2468  1.5464
  455MOL0     H61423   7.113   4.190   3.657  0.6524  0.3033  0.3297
  455MOL0     H61424   6.732   3.749   3.049  0.7936  0.2385  0.8368
  455MOL0     H61425   6.485   3.741   3.007 -2.8430 -1.0950  1.6708
  456MOL0     O61426   0.060   3.551   5.149 -0.0582 -0.7406  0.2830
  456MOL0     C61427   0.102   3.590   5.041 -0.2273  0.4405  0.5191
  456MOL0     O61428   0.026   3.621   4.936 -0.1763  0.0028 -0.5170
  456MOL0     C61429  -0.110   3.639   4.946  0.2337 -0.0507  0.2717
  456MOL0     C61430  -0.191   3.651   5.061  0.1699  0.6471  1.0020
  456MOL0     C61431  -0.329   3.661   5.050  0.6112  0.1949  0.0744
  456MOL0     C61432  -0.390   3.643   4.924  0.5216  0.6074  0.1184
  456MOL0     O61433  -0.529   3.642   4.910 -0.8120  0.4965 -0.0745
  456MOL0     C61434  -0.605   3.710   5.015 -0.1770  0.4853  0.1736
  456MOL0     C61435  -0.749   3.723   4.973 -0.1728  0.1911  0.4870
  456MOL0     C61436  -0.829   3.754   5.098  0.9379 -0.8024 -0.2575
  456MOL0     C61437  -0.968   3.774   5.041 -0.1807 -0.3812  0.3878
  456MOL0     C61438  -1.073   3.825   5.140  0.5203  0.4866 -0.5164
  456MOL0     C61439  -1.101   3.720   5.248  0.1489  0.6212 -0.3912
  456MOL0     C61440  -1.196   3.773   5.348 -0.5535 -1.0218 -0.5384
  456MOL0     C61441  -1.240   3.670   5.448  0.7023  0.5196 -0.2635
  456MOL0     N61442  -1.364   3.702   5.524  0.6842 -0.7454 -0.2616
  456MOL0     C61443  -1.485   3.764   5.481 -0.6553  0.6467 -0.0512
  456MOL0     C61444  -1.578   3.741   5.577 -0.0770 -0.0597  0.3557
  456MOL0     C61445  -1.724   3.782   5.564 -0.1101 -0.8008  0.3990
  456MOL0     C61446  -1.756   3.926   5.520  0.3072  0.4031 -0.1470
  456MOL0     C61447  -1.689   4.031   5.617  0.7164  0.0333 -0.8100
  456MOL0     C61448  -1.707   4.002   5.768 -0.0386  0.3066 -0.4431
  456MOL0     O61449  -1.846   3.988   5.806  0.1671  0.2329 -0.3416
  456MOL0     C61450  -1.914   4.099   5.833 -0.1391 -0.7674  0.3731
  456MOL0     C61451  -2.040   4.072   5.890  0.4423 -0.1860 -1.2512
  456MOL0     C61452  -2.121   4.171   5.931 -0.0532  1.1782  0.5582
  456MOL0     C61453  -2.250   4.121   5.986 -0.1931 -0.0254  0.3212
  456MOL0     C61454  -2.082   4.301   5.914  0.1456 -0.5267  0.0495
  456MOL0     C61455  -2.158   4.418   5.975 -0.1734  0.2397  0.9896
  456MOL0     O61456  -2.227   4.390   6.090 -0.3226  0.4098  0.3480
  456MOL0     C61457  -2.315   4.478   6.140  0.1627 -0.2890 -0.1616
  456MOL0     C61458  -2.451   4.449   6.118 -0.1431  0.1398  1.5228
  456MOL0     C61459  -2.549   4.527   6.178 -0.2650 -0.0886  0.7168
  456MOL0     C61460  -2.516   4.637   6.246 -0.3237 -0.4134 -0.5954
  456MOL0     O61461  -2.608   4.726   6.296 -0.2288  0.0085 -0.0080
  456MOL0     C61462  -2.720   4.751   6.215 -1.0792  0.2876  0.1440
  456MOL0     C61463  -2.684   4.815   6.083 -1.3482 -0.1451  0.5694
  456MOL0     C61464  -2.582   4.936   6.105 -0.1755 -0.3800  0.2943
  456MOL0     C61465  -2.562   5.016   5.972  0.2242  0.1541  0.8608
  456MOL0     C61466  -2.477   5.142   5.988 -0.8992 -0.0078  0.1816
  456MOL0     C61467  -2.557   5.261   6.018  0.0063 -0.5178 -0.7036
  456MOL0     C61468  -2.470   5.386   6.007  0.5096 -0.6699 -0.1257
  456MOL0     C61469  -2.520   5.504   6.092 -0.0995  0.4402 -0.3482
  456MOL0    Cl61470  -2.454   5.652   6.020 -0.2128  0.4070 -0.4593
  456MOL0     C61471  -2.378   4.660   6.281 -0.3578 -0.0792 -0.0753
  456MOL0     C61472  -2.274   4.582   6.221  0.1920 -0.4344 -0.4990
  456MOL0     O61473  -2.152   4.527   5.926 -0.1101  0.7735  0.2861
  456MOL0     C61474  -1.958   4.331   5.852 -0.2171  0.4235  0.2288
  456MOL0     C61475  -1.877   4.229   5.809 -0.2565 -0.7390  0.2248
  456MOL0     N61476  -1.516   3.683   5.685  0.0053 -0.2952 -0.0575
  456MOL0     N61477  -1.380   3.664   5.658  0.1017 -0.1012  0.6210
  456MOL0     C61478  -0.309   3.638   4.810 -0.0203  0.2594 -0.7112
  456MOL0     C61479  -0.170   3.647   4.821  0.4967  0.6937  0.3378
  456MOL0     C61480   0.245   3.582   5.027  0.6119 -0.0994 -0.4450
  456MOL0     C61481   0.294   3.627   4.904 -0.1912  0.2746 -0.2661
  456MOL0     C61482   0.435   3.636   4.886  0.0054 -0.3085  0.0118
  456MOL0     C61483   0.525   3.589   4.979 -0.5036 -0.1622 -0.5849
  456MOL0     O61484   0.659   3.588   4.954 -0.0313 -0.0293  0.3799
  456MOL0     C61485   0.703   3.465   4.887  0.0851 -0.3537 -0.5402
  456MOL0     C61486   0.716   3.473   4.730  0.0452 -0.1465  0.7091
  456MOL0     C61487   0.797   3.599   4.692 -0.0796 -0.4620  0.9799
  456MOL0     C61488   0.941   3.591   4.691  0.6509 -0.0277 -0.3362
  456MOL0     C61489   0.987   3.501   4.583  0.3966 -0.0029  0.8115
  456MOL0     C61490   1.008   3.425   4.490 -0.8094 -0.1620 -0.1849
  456MOL0     C61491   0.475   3.537   5.094  0.3143  0.0024 -0.1986
  456MOL0     C61492   0.334   3.543   5.128  0.3692 -0.2064 -0.3797
  456MOL0     H61493  -0.139   3.665   5.155 -1.3443  1.7138  1.7070
  456MOL0     H61494  -0.384   3.658   5.143 -1.2085  0.2042 -0.9507
  456MOL0     H61495  -0.596   3.651   5.106  2.9571  2.5352  1.3681
  456MOL0     H61496  -0.564   3.810   5.037  1.2150 -0.7395  3.8392
  456MOL0     H61497  -0.767   3.798   4.895 -1.0173  0.2298  0.7080
  456MOL0     H61498  -0.778   3.626   4.931 -0.9032  1.6508 -2.7061
  456MOL0     H61499  -0.825   3.670   5.169  0.4926 -1.3866 -0.9168
  456MOL0     H61500  -0.793   3.844   5.148 -1.8818  0.0614  0.3889
  456MOL0     H61501  -0.949   3.851   4.966  1.0667  0.5697  1.6072
  456MOL0     H61502  -0.996   3.687   4.981  0.0752 -0.3006  0.1507
  456MOL0     H61503  -1.042   3.915   5.193  1.7123 -0.5607  0.6548
  456MOL0     H61504  -1.159   3.846   5.076  1.3413  2.1024 -1.1428
  456MOL0     H61505  -1.149   3.633   5.202 -1.1010  1.0992 -0.0178
  456MOL0     H61506  -1.011   3.705   5.309 -0.2093  0.4813  0.1062
  456MOL0     H61507  -1.147   3.857   5.398  1.4988 -0.6916 -2.8665
  456MOL0     H61508  -1.277   3.808   5.284  0.3112  0.0137 -1.0961
  456MOL0     H61509  -1.163   3.647   5.522  0.4894  0.6417 -0.0056
  456MOL0     H61510  -1.260   3.577   5.393 -2.5010 -0.0447  1.6051
  456MOL0     H61511  -1.502   3.811   5.385  1.5513  0.7431 -0.4465
  456MOL0     H61512  -1.773   3.722   5.487 -0.3918 -0.1853  0.0897
  456MOL0     H61513  -1.773   3.769   5.661  0.6047 -2.5046  0.5760
  456MOL0     H61514  -1.864   3.940   5.517  0.1661 -0.7350 -0.6156
  456MOL0     H61515  -1.715   3.949   5.421  2.1119  1.4109  0.7702
  456MOL0     H61516  -1.726   4.124   5.572 -2.5747 -2.2827 -3.4414
  456MOL0     H61517  -1.581   4.018   5.601  0.9941  1.6872 -0.4900
  456MOL0     H61518  -1.661   4.083   5.825  0.7229 -1.4053  1.4930
  456MOL0     H61519  -1.657   3.908   5.794 -0.4004  0.6545  1.6518
  456MOL0     H61520  -2.058   3.966   5.904  0.6499  0.0618  1.3316
  456MOL0     H61521  -2.274   4.030   5.930  0.8180 -0.4674  0.5972
  456MOL0     H61522  -2.230   4.100   6.091  2.6768  2.4144  0.3976
  456MOL0     H61523  -2.334   4.192   5.976 -0.4310 -0.4357 -0.7205
  456MOL0     H61524  -2.487   4.367   6.057 -1.5189  1.2715  0.7641
  456MOL0     H61525  -2.652   4.513   6.148 -0.3839  1.2066  0.4840
  456MOL0     H61526  -2.783   4.662   6.204 -0.2327 -0.1758 -1.1828
  456MOL0     H61527  -2.783   4.823   6.268  0.7923  2.9207 -0.9561
  456MOL0     H61528  -2.632   4.738   6.024  0.0198  1.4691 -0.4357
  456MOL0     H61529  -2.774   4.855   6.037 -0.7791  1.6786  0.9707
  456MOL0     H61530  -2.482   4.906   6.138  0.7265  1.2698 -0.8277
  456MOL0     H61531  -2.632   5.011   6.166  0.2551  1.8421 -1.9383
  456MOL0     H61532  -2.520   4.949   5.896 -0.9895  1.6594 -1.2585
  456MOL0     H61533  -2.655   5.032   5.916  0.9484 -1.2322 -0.8426
  456MOL0     H61534  -2.417   5.157   5.898 -1.3561 -2.7828 -0.6845
  456MOL0     H61535  -2.399   5.125   6.062  1.4971  1.5757 -1.8197
  456MOL0     H61536  -2.639   5.268   5.946  0.3879  2.2473 -0.9709
  456MOL0     H61537  -2.599   5.250   6.119 -0.6495 -1.2913 -1.0519
  456MOL0     H61538  -2.472   5.425   5.905 -0.7599  0.7336  0.4040
  456MOL0     H61539  -2.372   5.364   6.049  1.9090  1.4716 -2.0627
  456MOL0     H61540  -2.497   5.492   6.198  1.6144  4.4475 -0.0849
  456MOL0     H61541  -2.629   5.506   6.086 -0.4912 -0.6244  3.4755
  456MOL0     H61542  -2.368   4.745   6.347  1.0174 -1.3487  1.4296
  456MOL0     H61543  -2.173   4.579   6.261 -0.0339 -0.2643  0.0954
  456MOL0     H61544  -1.931   4.436   5.844  2.2232 -0.2093 -0.6229
  456MOL0     H61545  -1.784   4.258   5.763  0.5036 -1.5161  1.2236
  456MOL0     H61546  -0.362   3.649   4.716 -0.6191  0.4522 -0.3512
  456MOL0     H61547  -0.107   3.652   4.733 -0.3565 -0.3432 -0.3535
  456MOL0     H61548   0.230   3.656   4.822 -1.4894  0.2619  0.7056
  456MOL0     H61549   0.466   3.687   4.796 -0.6716  0.1748  0.0444
  456MOL0     H61550   0.804   3.436   4.915 -0.2334 -0.1259  0.9263
  456MOL0     H61551   0.638   3.383   4.919 -1.2896 -0.2954 -2.9282
  456MOL0     H61552   0.611   3.492   4.706  0.9097  2.3879 -1.5774
  456MOL0     H61553   0.757   3.381   4.687  2.1583  1.0791 -0.0393
  456MOL0     H61554   0.769   3.680   4.760 -0.3172 -0.6072  1.0552
  456MOL0     H61555   0.758   3.633   4.596 -0.9879  2.2962  2.2148
  456MOL0     H61556   0.986   3.565   4.787 -1.0187 -0.0323  0.4786
  456MOL0     H61557   0.984   3.688   4.666 -0.0213  0.2348 -0.5117
  456MOL0     H61558   1.041   3.360   4.412 -0.8296 -2.7928  1.8473
  456MOL0     H61559   0.540   3.480   5.160 -0.0263 -0.9606 -0.6697
  456MOL0     H61560   0.298   3.502   5.222  3.1996 -0.0980  0.8701
  457MOL0     O61561   9.954   1.770   2.496  0.2811 -0.8474 -0.1214
  457MOL0     C61562   9.951   1.809   2.612  0.7698  0.6597 -0.4798
  457MOL0     O61563   9.832   1.820   2.689  0.2772  0.5351 -0.1994
  457MOL0     C61564   9.720   1.796   2.619 -0.1932  0.3006 -0.3338
  457MOL0     C61565   9.679   1.670   2.578  0.0830 -0.4965  0.5235
  457MOL0     C61566   9.542   1.652   2.532 -0.1342 -0.0903  0.2926
  457MOL0     C61567   9.456   1.765   2.523 -0.7869  0.1106  0.7432
  457MOL0     O61568   9.333   1.763   2.461  0.1291  0.2215 -0.2414
  457MOL0     C61569   9.292   1.655   2.392  0.2350 -0.5540  0.4928
  457MOL0     C61570   9.176   1.696   2.303  0.3305 -0.1609 -0.1211
  457MOL0     C61571   9.042   1.734   2.364  0.5117 -0.2898  1.2912
  457MOL0     C61572   8.940   1.780   2.259 -0.4999 -0.6895  1.1893
  457MOL0     C61573   8.806   1.842   2.310 -0.0044  0.8026  0.6482
  457MOL0     C61574   8.690   1.811   2.211 -0.7057  0.1623 -0.1325
  457MOL0     C61575   8.555   1.861   2.270  0.0665 -0.8402 -0.0097
  457MOL0     C61576   8.446   1.753   2.301  0.1311 -0.0793 -0.4714
  457MOL0     N61577   8.398   1.668   2.194  1.0439 -0.1766  0.0074
  457MOL0     C61578   8.330   1.711   2.082 -0.2712  1.2621  0.1149
  457MOL0     C61579   8.348   1.607   1.994 -0.1700 -0.6595  0.1423
  457MOL0     C61580   8.296   1.590   1.856 -0.4328 -0.6428  0.2122
  457MOL0     C61581   8.315   1.709   1.766  0.7248  0.4726 -0.1829
  457MOL0     C61582   8.467   1.722   1.735  0.4871  0.4204 -1.1207
  457MOL0     C61583   8.553   1.841   1.803 -0.5652 -0.5170 -0.1714
  457MOL0     O61584   8.684   1.820   1.758 -0.4671 -0.4481  1.2511
  457MOL0     C61585   8.762   1.724   1.812 -0.4822  0.9229  0.0858
  457MOL0     C61586   8.880   1.700   1.733 -0.1042  0.4465  0.0425
  457MOL0     C61587   8.986   1.608   1.761  1.0711 -0.0798 -0.3992
  457MOL0     C61588   9.107   1.602   1.672 -0.3054 -0.4581  0.4805
  457MOL0     C61589   8.968   1.521   1.877 -0.1116  0.3881  0.3798
  457MOL0     C61590   9.068   1.417   1.912 -0.9051  0.1446 -0.8682
  457MOL0     O61591   9.154   1.365   1.822 -0.0926 -0.1869 -0.1749
  457MOL0     C61592   9.261   1.288   1.868  0.0009  0.0228 -0.0742
  457MOL0     C61593   9.383   1.321   1.811 -0.7534  0.4681  0.6945
  457MOL0     C61594   9.492   1.241   1.843 -0.6810 -0.0490  0.2977
  457MOL0     C61595   9.487   1.139   1.933 -0.6953 -1.0746  0.0396
  457MOL0     O61596   9.613   1.092   1.968 -0.3693  0.1272  0.4733
  457MOL0     C61597   9.619   0.971   2.040  0.0514 -0.2573 -0.4728
  457MOL0     C61598   9.764   0.913   2.030 -0.0821  0.1016 -0.4049
  457MOL0     C61599   9.815   0.888   1.889  0.0893  0.4561 -0.9445
  457MOL0     C61600   9.957   0.835   1.899 -0.4262  0.5714 -0.2776
  457MOL0     C61601  10.006   0.783   1.767 -0.5971 -0.5175 -0.6689
  457MOL0     C61602  10.143   0.722   1.790 -0.1038  0.4268 -0.2594
  457MOL0     C61603  10.197   0.660   1.664 -0.0311 -0.3635 -0.0514
  457MOL0     C61604  10.348   0.617   1.683  0.4357 -0.8150 -0.0644
  457MOL0    Cl61605  10.368   0.474   1.794  0.0611  0.0181  0.2877
  457MOL0     C61606   9.364   1.107   1.986 -0.5741 -0.4568 -0.2479
  457MOL0     C61607   9.250   1.179   1.957  0.0844  0.2928 -0.2256
  457MOL0     O61608   9.072   1.398   2.037  0.3648  0.8801 -0.2306
  457MOL0     C61609   8.843   1.535   1.945  0.0465  0.5140  0.4436
  457MOL0     C61610   8.740   1.629   1.916  0.8808 -0.1566  0.0555
  457MOL0     N61611   8.429   1.510   2.047 -0.4638  0.1623  0.0712
  457MOL0     N61612   8.455   1.550   2.168  0.5160  0.1063  0.3048
  457MOL0     C61613   9.509   1.893   2.536  0.1242  0.2241 -0.0450
  457MOL0     C61614   9.637   1.903   2.593 -0.0735 -0.5046  0.2261
  457MOL0     C61615  10.075   1.819   2.681  0.0926  1.2380 -0.5861
  457MOL0     C61616  10.084   1.881   2.800 -0.9691  1.0698  0.7008
  457MOL0     C61617  10.207   1.881   2.863 -0.0245  0.6083 -0.3864
  457MOL0     C61618  10.325   1.816   2.815  0.6424  0.5817  0.5995
  457MOL0     O61619  10.431   1.807   2.898 -0.1783 -0.0518  0.0407
  457MOL0     C61620  10.553   1.765   2.837 -0.5971 -0.5959  0.5300
  457MOL0     C61621  10.671   1.822   2.920 -0.7792 -0.3306  0.2161
  457MOL0     C61622  10.653   1.795   3.069 -0.1295 -0.5288  0.2990
  457MOL0     C61623  10.768   1.829   3.157 -0.2533 -0.1918  0.6071
  457MOL0     C61624  10.739   1.859   3.292  0.4968 -0.5938 -1.1915
  457MOL0     C61625  10.714   1.890   3.411 -0.9316 -0.2547  0.1144
  457MOL0     C61626  10.312   1.750   2.685  0.1522  0.5491  0.1505
  457MOL0     C61627  10.188   1.759   2.620  0.3860  0.8413 -0.0350
  457MOL0     H61628   9.748   1.588   2.599  0.2525 -1.3739 -2.9630
  457MOL0     H61629   9.505   1.556   2.498  1.2972 -1.8873  3.3881
  457MOL0     H61630   9.370   1.612   2.328  0.7745  1.1090 -0.0294
  457MOL0     H61631   9.268   1.584   2.471  0.4303 -2.1333 -0.8118
  457MOL0     H61632   9.201   1.789   2.253  1.8813 -0.4211  0.0996
  457MOL0     H61633   9.167   1.618   2.227  1.5536 -0.7123  0.2663
  457MOL0     H61634   8.992   1.657   2.424  0.4129 -1.2060  0.0751
  457MOL0     H61635   9.068   1.823   2.422  0.5795 -0.1824  1.0986
  457MOL0     H61636   8.987   1.848   2.187 -1.1768  0.6493  1.9633
  457MOL0     H61637   8.921   1.688   2.203  1.3985  0.8534 -2.3004
  457MOL0     H61638   8.797   1.807   2.413 -0.2973  1.1642  0.7483
  457MOL0     H61639   8.811   1.952   2.310  2.6411  0.8299 -2.2297
  457MOL0     H61640   8.716   1.858   2.116  0.3912 -3.3170 -1.7189
  457MOL0     H61641   8.691   1.704   2.188  0.2603  0.1119  0.0884
  457MOL0     H61642   8.570   1.913   2.364 -0.4563  0.0874 -0.4178
  457MOL0     H61643   8.515   1.942   2.207  2.5396  2.7698  2.6569
  457MOL0     H61644   8.359   1.801   2.346 -1.9255 -3.0456 -0.9565
  457MOL0     H61645   8.482   1.685   2.378 -0.5532 -0.1011 -0.1684
  457MOL0     H61646   8.272   1.802   2.069 -0.1657  1.4865  1.1281
  457MOL0     H61647   8.348   1.502   1.818 -2.8386 -2.1016  0.0955
  457MOL0     H61648   8.189   1.568   1.854 -0.0631 -3.0110 -3.5517
  457MOL0     H61649   8.282   1.801   1.814  1.5319  2.0020 -2.4179
  457MOL0     H61650   8.248   1.692   1.682  1.2425 -1.5874 -0.2524
  457MOL0     H61651   8.475   1.736   1.626  2.3277 -0.8707 -1.2023
  457MOL0     H61652   8.520   1.627   1.748 -1.3138 -1.0393 -3.5526
  457MOL0     H61653   8.557   1.833   1.912 -1.2438 -3.1131 -0.2624
  457MOL0     H61654   8.523   1.940   1.769 -2.2280 -0.9444 -0.0260
  457MOL0     H61655   8.894   1.770   1.651  1.0794  1.3055  0.9383
  457MOL0     H61656   9.106   1.689   1.606  1.1260 -3.4073 -3.9205
  457MOL0     H61657   9.205   1.600   1.721 -0.6292 -0.7821  1.1279
  457MOL0     H61658   9.104   1.515   1.606 -0.5697  0.7815 -1.2002
  457MOL0     H61659   9.402   1.404   1.743  0.2493  0.9082  1.4829
  457MOL0     H61660   9.588   1.281   1.812  0.2659 -1.5796  1.1314
  457MOL0     H61661   9.595   0.992   2.145 -0.9266  1.6269 -1.0296
  457MOL0     H61662   9.544   0.899   2.006 -0.5427 -0.6757  1.5812
  457MOL0     H61663   9.831   0.984   2.079 -2.2390  1.9231  0.0215
  457MOL0     H61664   9.767   0.819   2.086  1.7321  0.3804  0.0311
  457MOL0     H61665   9.803   0.977   1.826 -1.0274 -0.8318 -2.6438
  457MOL0     H61666   9.753   0.811   1.842  1.0764 -0.9776  0.0117
  457MOL0     H61667  10.027   0.907   1.943  1.2317  0.5600 -2.7340
  457MOL0     H61668   9.968   0.760   1.979  2.5030  0.2065 -0.9021
  457MOL0     H61669  10.003   0.873   1.705  0.9380  0.6047  0.7967
  457MOL0     H61670   9.929   0.712   1.736 -1.4647 -1.3860  3.0297
  457MOL0     H61671  10.211   0.806   1.802  1.7728 -0.9410 -0.7895
  457MOL0     H61672  10.154   0.647   1.869  2.6645 -0.9653 -1.7850
  457MOL0     H61673  10.196   0.745   1.595  0.2601  0.4524  0.9238
  457MOL0     H61674  10.140   0.581   1.615  3.2013 -2.6483 -0.4561
  457MOL0     H61675  10.413   0.701   1.710 -0.5495  1.1817 -3.3321
  457MOL0     H61676  10.380   0.586   1.584  0.1430 -2.1127  0.2327
  457MOL0     H61677   9.360   1.023   2.055  2.9739  0.4493  1.2703
  457MOL0     H61678   9.153   1.158   2.002  0.6165 -1.3212  0.2245
  457MOL0     H61679   8.820   1.476   2.034 -0.1083 -0.7800 -0.4217
  457MOL0     H61680   8.646   1.635   1.969  0.2510 -1.7533 -0.7965
  457MOL0     H61681   9.454   1.981   2.505  1.1092  0.4780 -1.1299
  457MOL0     H61682   9.680   2.003   2.599 -2.2112  0.5732 -1.2833
  457MOL0     H61683  10.000   1.934   2.843 -2.6897 -2.6109  2.3547
  457MOL0     H61684  10.215   1.935   2.957  1.0125  0.9966 -0.6821
  457MOL0     H61685  10.544   1.656   2.835  0.3022 -0.6665 -0.3490
  457MOL0     H61686  10.558   1.811   2.738 -0.1702  0.6205  1.0908
  457MOL0     H61687  10.687   1.928   2.902 -2.0230 -0.5802 -2.9229
  457MOL0     H61688  10.756   1.765   2.881  0.2942 -0.5473  2.6744
  457MOL0     H61689  10.644   1.687   3.086  2.1812 -0.5708  1.7073
  457MOL0     H61690  10.563   1.846   3.104  1.6417  1.9940  1.5200
  457MOL0     H61691  10.818   1.919   3.120 -3.8781  1.7354 -0.1721
  457MOL0     H61692  10.842   1.751   3.140  1.8657  1.1154  3.1236
  457MOL0     H61693  10.694   1.914   3.513 -0.2852 -1.6251  0.5816
  457MOL0     H61694  10.397   1.702   2.638 -0.4632 -0.1953 -0.2225
  457MOL0     H61695  10.183   1.711   2.522 -1.9199  0.5831  0.1580
  458MOL0     O61696   4.266   2.760   9.107 -0.6242  0.2484 -0.3318
  458MOL0     C61697   4.316   2.701   9.200  0.3804 -1.1500 -0.7285
  458MOL0     O61698   4.441   2.638   9.202 -0.0131 -0.0342  0.0014
  458MOL0     C61699   4.531   2.657   9.105 -0.1885 -0.2447 -0.3482
  458MOL0     C61700   4.640   2.572   9.120  0.3446 -0.5666 -0.4466
  458MOL0     C61701   4.763   2.584   9.050  0.5268  0.3956  0.5356
  458MOL0     C61702   4.773   2.677   8.950 -0.1021  0.2827  0.1944
  458MOL0     O61703   4.892   2.670   8.878  0.5458 -0.5859 -0.1990
  458MOL0     C61704   4.887   2.741   8.747  0.7584 -0.2734 -0.0468
  458MOL0     C61705   5.021   2.725   8.672 -0.3096 -0.3998  0.2898
  458MOL0     C61706   5.058   2.581   8.629  0.0127  0.5071 -0.5559
  458MOL0     C61707   5.174   2.584   8.529  0.3057  0.4566 -0.1180
  458MOL0     C61708   5.180   2.449   8.467 -0.4618 -0.6602 -0.0562
  458MOL0     C61709   5.235   2.456   8.324 -0.4274 -0.4750 -0.4091
  458MOL0     C61710   5.246   2.313   8.270  0.3503 -0.2441 -0.7076
  458MOL0     C61711   5.320   2.320   8.136 -0.2576  0.0982 -0.4448
  458MOL0     N61712   5.343   2.187   8.089  0.3904  0.2439  0.2203
  458MOL0     C61713   5.376   2.172   7.958 -0.1622  0.4439  0.3000
  458MOL0     C61714   5.349   2.041   7.927 -0.2154  0.2678  0.2339
  458MOL0     C61715   5.377   1.995   7.788 -0.3001  0.3489 -0.0170
  458MOL0     C61716   5.245   1.974   7.701  0.2256 -0.1877  0.1009
  458MOL0     C61717   5.170   2.115   7.701 -0.0802  0.2279 -0.1950
  458MOL0     C61718   5.042   2.110   7.611 -0.3583  0.8034  0.2847
  458MOL0     O61719   4.953   2.010   7.647  0.9126  1.3277 -0.7060
  458MOL0     C61720   4.826   2.042   7.696  0.1712 -0.1464  0.3545
  458MOL0     C61721   4.746   2.156   7.653 -0.5205 -1.1827  0.3999
  458MOL0     C61722   4.619   2.181   7.704 -0.1278 -0.1128 -0.5269
  458MOL0     C61723   4.547   2.311   7.653 -0.3201  0.6935 -0.1274
  458MOL0     C61724   4.572   2.101   7.817 -0.7963 -0.1795  0.8765
  458MOL0     C61725   4.444   2.132   7.889 -0.4155 -0.6419  0.2958
  458MOL0     O61726   4.415   2.039   7.987 -0.1181  0.3815  0.1100
  458MOL0     C61727   4.320   2.073   8.082 -0.7056  0.0997 -0.1854
  458MOL0     C61728   4.358   2.162   8.187 -0.2713 -0.0981  0.2378
  458MOL0     C61729   4.272   2.187   8.294  0.2137  0.0633  0.1607
  458MOL0     C61730   4.149   2.121   8.304 -0.0496 -0.2036 -0.6601
  458MOL0     O61731   4.059   2.159   8.403  0.0469 -0.2281 -0.4640
  458MOL0     C61732   4.107   2.124   8.534  0.1572 -0.8177 -0.2012
  458MOL0     C61733   3.992   2.138   8.636 -0.3070 -0.0049  0.9085
  458MOL0     C61734   4.036   2.119   8.783  0.5537  0.1343  0.1807
  458MOL0     C61735   3.923   2.134   8.868 -0.5254 -0.1657  0.1381
  458MOL0     C61736   3.968   2.160   9.005 -0.4239  0.2207 -0.9346
  458MOL0     C61737   3.842   2.200   9.088 -0.3164  0.5173  0.6141
  458MOL0     C61738   3.843   2.219   9.233  0.5549  0.2369  0.0180
  458MOL0     C61739   3.886   2.362   9.279  0.2592 -0.0043  0.3236
  458MOL0    Cl61740   3.739   2.475   9.264 -0.2851  0.4684 -0.3126
  458MOL0     C61741   4.110   2.040   8.194 -0.1179 -0.3623  0.1323
  458MOL0     C61742   4.194   2.014   8.090  0.8403  0.4466  0.6472
  458MOL0     O61743   4.370   2.229   7.854  1.1073  0.3081 -1.0342
  458MOL0     C61744   4.655   1.995   7.866  0.5330  0.0879 -0.1244
  458MOL0     C61745   4.782   1.972   7.816 -0.0879 -0.1621 -0.3746
  458MOL0     N61746   5.315   1.976   8.041 -0.2405 -0.3887 -0.5993
  458MOL0     N61747   5.314   2.065   8.143 -0.6063 -0.4045  1.3984
  458MOL0     C61748   4.662   2.764   8.935 -0.0085  0.3123 -0.1600
  458MOL0     C61749   4.542   2.746   8.999  1.1532 -0.3154  0.0282
  458MOL0     C61750   4.230   2.677   9.320 -0.4748  0.8445  0.5570
  458MOL0     C61751   4.279   2.587   9.422  0.0862  0.1071  0.2014
  458MOL0     C61752   4.202   2.562   9.530 -0.2421 -0.3283  0.0513
  458MOL0     C61753   4.066   2.588   9.539 -0.7597 -1.1258  0.1387
  458MOL0     O61754   3.997   2.556   9.655  0.3118 -0.1064 -0.2849
  458MOL0     C61755   3.862   2.594   9.654  0.1239  1.2456 -0.6478
  458MOL0     C61756   3.840   2.726   9.713  0.2410  0.1749 -0.5343
  458MOL0     C61757   3.889   2.735   9.859 -0.5374  0.8998  0.5246
  458MOL0     C61758   3.810   2.664   9.954 -0.4996  0.4936 -0.8192
  458MOL0     C61759   3.691   2.746   9.992 -0.3775 -1.0145  0.4386
  458MOL0     C61760   3.595   2.813  10.013 -0.3339 -0.1056  0.1987
  458MOL0     C61761   4.026   2.670   9.434  0.0944 -0.6488  0.9625
  458MOL0     C61762   4.102   2.727   9.333 -0.6976  0.2712  0.6745
  458MOL0     H61763   4.631   2.487   9.188  0.5728  0.1052  0.4390
  458MOL0     H61764   4.839   2.508   9.063  0.4211  0.2688  0.4194
  458MOL0     H61765   4.809   2.689   8.690  0.6588 -0.6542  0.4281
  458MOL0     H61766   4.869   2.848   8.751  1.3995 -0.1150 -1.1881
  458MOL0     H61767   5.021   2.793   8.586  2.7234  0.8081  1.1259
  458MOL0     H61768   5.099   2.764   8.738 -2.2039  2.4014  1.0637
  458MOL0     H61769   5.072   2.513   8.713 -2.1338  1.4000  0.6014
  458MOL0     H61770   4.969   2.549   8.574  0.6195 -2.5561  0.0750
  458MOL0     H61771   5.158   2.669   8.462 -1.8495 -0.2369 -0.5579
  458MOL0     H61772   5.271   2.603   8.575  0.3764  2.7965 -1.0998
  458MOL0     H61773   5.240   2.377   8.524  0.7188 -2.1830 -3.0060
  458MOL0     H61774   5.078   2.409   8.469 -1.0455  0.7601 -0.5035
  458MOL0     H61775   5.168   2.520   8.266  1.0616 -1.6932 -3.7015
  458MOL0     H61776   5.331   2.508   8.333 -1.2324  0.7393  2.5308
  458MOL0     H61777   5.296   2.253   8.346 -0.4111  0.5680  0.4746
  458MOL0     H61778   5.148   2.265   8.260  0.8337 -1.2300 -0.8498
  458MOL0     H61779   5.413   2.379   8.139 -0.7378  1.1929 -3.5495
  458MOL0     H61780   5.251   2.368   8.066  1.2526  0.5367 -1.6813
  458MOL0     H61781   5.411   2.254   7.896  2.2677  0.6127  1.7314
  458MOL0     H61782   5.441   2.069   7.738 -0.5129  0.6097  0.0961
  458MOL0     H61783   5.438   1.905   7.805  0.4943  1.2273  2.3019
  458MOL0     H61784   5.183   1.902   7.755  0.3234  0.8999  1.7095
  458MOL0     H61785   5.281   1.952   7.600  3.2208 -0.4683  1.1133
  458MOL0     H61786   5.232   2.194   7.658 -0.3365  1.4220  1.5087
  458MOL0     H61787   5.142   2.145   7.803  1.4389  0.2014  0.2492
  458MOL0     H61788   5.075   2.096   7.508 -1.0118  1.3906 -0.0161
  458MOL0     H61789   4.998   2.210   7.620 -2.0501  0.6057 -3.6730
  458MOL0     H61790   4.782   2.223   7.576 -2.0458 -3.0003 -2.0217
  458MOL0     H61791   4.449   2.297   7.606  0.3393  0.6591 -1.5635
  458MOL0     H61792   4.534   2.368   7.745 -1.1450 -0.6699  0.6457
  458MOL0     H61793   4.608   2.370   7.584 -0.8867  0.2437 -1.0363
  458MOL0     H61794   4.454   2.212   8.183 -2.2189  4.0934  0.6400
  458MOL0     H61795   4.299   2.266   8.363  4.3989 -2.5979  1.9303
  458MOL0     H61796   4.156   2.026   8.543 -0.3832 -1.0932 -0.1848
  458MOL0     H61797   4.187   2.191   8.565 -0.0726 -1.3611  1.6333
  458MOL0     H61798   3.954   2.240   8.638  0.0789  0.1977  4.0585
  458MOL0     H61799   3.902   2.080   8.613 -0.9618  1.1751  0.4464
  458MOL0     H61800   4.112   2.194   8.806  0.5099  0.7085 -1.4502
  458MOL0     H61801   4.074   2.017   8.796  1.7489  0.7784  2.5200
  458MOL0     H61802   3.861   2.215   8.827  4.4814  3.7332 -0.7049
  458MOL0     H61803   3.869   2.039   8.875 -2.6302  1.0977  2.2544
  458MOL0     H61804   4.025   2.253   9.008  1.0263 -0.6511  1.4603
  458MOL0     H61805   4.022   2.079   9.055 -2.6492  0.0788  1.4440
  458MOL0     H61806   3.804   2.289   9.037  0.2581  1.4930  1.8350
  458MOL0     H61807   3.775   2.114   9.076  0.5262 -0.2349  1.1431
  458MOL0     H61808   3.911   2.144   9.275  1.0142  0.2637 -0.6594
  458MOL0     H61809   3.742   2.189   9.263  0.2903 -0.3290 -1.3842
  458MOL0     H61810   3.971   2.395   9.218 -0.5864  1.9626  0.1060
  458MOL0     H61811   3.928   2.353   9.379  3.6190  3.1817 -0.5660
  458MOL0     H61812   4.014   1.990   8.188  0.0242 -1.3019  3.7196
  458MOL0     H61813   4.160   1.947   8.012  0.6009  0.4415  0.7539
  458MOL0     H61814   4.615   1.935   7.948  0.3888 -0.8528 -0.8680
  458MOL0     H61815   4.843   1.897   7.864  1.6878  1.2837 -0.2870
  458MOL0     H61816   4.652   2.837   8.856 -1.8312  0.6050  0.2923
  458MOL0     H61817   4.459   2.813   8.976  1.3990  0.7079  1.8982
  458MOL0     H61818   4.386   2.571   9.425  0.3980  2.0220  3.0483
  458MOL0     H61819   4.251   2.511   9.612  1.4727  0.3282 -0.4989
  458MOL0     H61820   3.819   2.592   9.553  0.6241  1.0627 -0.8630
  458MOL0     H61821   3.807   2.510   9.698 -0.6663  1.5417 -1.0658
  458MOL0     H61822   3.734   2.751   9.697 -0.4179 -1.3311  1.0134
  458MOL0     H61823   3.904   2.801   9.667  1.8928 -1.1037 -0.4051
  458MOL0     H61824   3.893   2.840   9.891 -1.2375  0.7970  0.9645
  458MOL0     H61825   3.994   2.703   9.857 -1.1561 -1.5956 -3.3195
  458MOL0     H61826   3.876   2.661  10.042  0.8156  1.4669 -1.7271
  458MOL0     H61827   3.782   2.559   9.944  0.6745 -0.4219  3.4112
  458MOL0     H61828   3.507   2.872  10.029 -0.5513 -0.4146  0.1543
  458MOL0     H61829   3.929   2.720   9.444 -0.7664 -1.7420 -1.3566
  458MOL0     H61830   4.056   2.789   9.256  0.8709 -0.4591 -0.9233
  459MOL0     O61831   2.377   6.227   3.164  0.2581  0.3341  0.2942
  459MOL0     C61832   2.405   6.268   3.051 -0.0949 -0.1481  0.4812
  459MOL0     O61833   2.318   6.271   2.937  0.2304 -0.7452 -1.1055
  459MOL0     C61834   2.201   6.213   2.958  1.1138  0.2888 -0.5132
  459MOL0     C61835   2.185   6.079   3.003  0.4945 -0.1221  1.1098
  459MOL0     C61836   2.060   6.027   3.020 -1.0126 -0.3399  1.0270
  459MOL0     C61837   1.946   6.090   2.992 -0.3013 -0.1114  0.1113
  459MOL0     O61838   1.820   6.031   3.011 -1.0979  0.2493 -0.3934
  459MOL0     C61839   1.695   6.097   2.982 -0.2678 -0.1025 -0.4041
  459MOL0     C61840   1.572   6.013   3.034  0.1421  0.3629 -0.2120
  459MOL0     C61841   1.438   6.094   3.023  0.5121  0.2417 -0.3509
  459MOL0     C61842   1.323   6.004   3.079 -0.8865 -0.4974 -0.4185
  459MOL0     C61843   1.201   6.086   3.090 -0.2687 -0.6953 -0.3598
  459MOL0     C61844   1.086   6.030   3.186 -0.9671  0.4288  0.0945
  459MOL0     C61845   0.955   6.105   3.161  0.0075  0.2358 -0.0715
  459MOL0     C61846   0.909   6.074   3.015  0.0318  0.2234 -0.3017
  459MOL0     N61847   0.773   6.120   2.989  0.8852  0.5882 -0.0918
  459MOL0     C61848   0.734   6.252   2.985  0.4213  0.3162 -0.1482
  459MOL0     C61849   0.595   6.244   2.981 -0.0586  0.4111  0.6391
  459MOL0     C61850   0.487   6.356   2.981 -0.5624 -1.0958 -0.7279
  459MOL0     C61851   0.405   6.370   2.859  0.0979  0.0695  0.8267
  459MOL0     C61852   0.436   6.499   2.781 -0.0083  0.4212  0.0420
  459MOL0     C61853   0.355   6.499   2.641  0.1433 -0.0475 -0.0848
  459MOL0     O61854   0.217   6.487   2.653  0.2731  0.3471 -0.3133
  459MOL0     C61855   0.128   6.581   2.705 -0.4526  0.5659 -0.0647
  459MOL0     C61856   0.172   6.703   2.739 -0.1873 -0.6253 -0.9336
  459MOL0     C61857   0.086   6.795   2.797  0.3133  0.0103 -0.4579
  459MOL0     C61858   0.163   6.920   2.826 -0.3602  0.5543  0.2694
  459MOL0     C61859  -0.047   6.764   2.832 -0.1657 -0.1508  0.0746
  459MOL0     C61860  -0.146   6.858   2.890 -0.2945  0.7497 -0.4367
  459MOL0     O61861  -0.254   6.796   2.941 -0.2674 -0.1435  0.4046
  459MOL0     C61862  -0.350   6.859   3.021 -0.1648 -0.2327 -0.1427
  459MOL0     C61863  -0.321   6.960   3.119  0.0442  0.2224  0.5075
  459MOL0     C61864  -0.422   7.009   3.207 -0.6888 -0.3428  0.8178
  459MOL0     C61865  -0.553   6.965   3.192  0.3729 -0.4374 -0.2423
  459MOL0     O61866  -0.660   7.023   3.260 -0.3321 -0.2821  0.2382
  459MOL0     C61867  -0.642   7.147   3.332  0.1003  0.1139  0.2718
  459MOL0     C61868  -0.785   7.185   3.376 -0.1115  0.2277 -0.1455
  459MOL0     C61869  -0.772   7.304   3.466 -0.3410 -0.4356 -0.4599
  459MOL0     C61870  -0.906   7.346   3.524  0.0435  0.0233 -0.2667
  459MOL0     C61871  -0.950   7.237   3.636 -0.4746 -0.2511 -0.0282
  459MOL0     C61872  -1.077   7.292   3.702  0.2584 -0.0022 -1.0039
  459MOL0     C61873  -1.136   7.179   3.787 -0.6732  0.0284 -0.4938
  459MOL0     C61874  -1.268   7.209   3.861 -0.2279  0.7576  0.3771
  459MOL0    Cl61875  -1.403   7.258   3.761  0.0373 -0.1994  0.1649
  459MOL0     C61876  -0.583   6.863   3.094  0.1195 -0.4622 -0.7782
  459MOL0     C61877  -0.474   6.811   3.021 -0.1581 -0.2804  0.3313
  459MOL0     O61878  -0.125   6.977   2.893  0.3379 -0.2648 -0.0356
  459MOL0     C61879  -0.089   6.633   2.799 -0.3406  0.8922 -0.2530
  459MOL0     C61880  -0.010   6.549   2.723  0.0988  0.3157 -0.3049
  459MOL0     N61881   0.560   6.112   2.968 -0.1347  0.7776  0.3324
  459MOL0     N61882   0.664   6.041   2.973  0.1533  0.3150 -0.2078
  459MOL0     C61883   1.956   6.224   2.948 -0.1350  0.4661  0.3419
  459MOL0     C61884   2.079   6.289   2.929 -0.2764 -0.4835 -1.0045
  459MOL0     C61885   2.531   6.333   3.031 -0.0428  0.2734  0.0267
  459MOL0     C61886   2.568   6.387   2.906  0.7695 -0.5042 -0.8803
  459MOL0     C61887   2.690   6.457   2.903 -0.9225 -0.1743 -0.3154
  459MOL0     C61888   2.780   6.476   3.017  1.2568  1.1015  0.5238
  459MOL0     O61889   2.904   6.530   3.017 -0.4498  0.0688  0.2026
  459MOL0     C61890   2.959   6.584   2.896 -0.0920  0.1936  0.1649
  459MOL0     C61891   3.082   6.661   2.940  0.5768 -0.1010  0.4354
  459MOL0     C61892   3.202   6.589   2.997 -0.1243  0.2002  0.9681
  459MOL0     C61893   3.262   6.473   2.915 -0.2261 -0.1427 -0.3225
  459MOL0     C61894   3.260   6.494   2.774 -0.6320 -0.8977  0.6145
  459MOL0     C61895   3.253   6.504   2.653 -0.3481  0.0619 -0.0973
  459MOL0     C61896   2.736   6.422   3.136  0.1374  1.1567  0.5409
  459MOL0     C61897   2.617   6.352   3.145  1.0223  0.0162 -0.4239
  459MOL0     H61898   2.271   6.018   3.027 -0.9211 -2.7544 -0.0874
  459MOL0     H61899   2.057   5.927   3.063  2.8254 -1.2389 -0.3438
  459MOL0     H61900   1.692   6.185   3.047  0.2225 -0.4847  0.1441
  459MOL0     H61901   1.674   6.136   2.882  1.6554  2.5516  0.1245
  459MOL0     H61902   1.561   5.928   2.967 -0.0126  1.0095 -1.0272
  459MOL0     H61903   1.572   5.968   3.134 -4.0425  2.7185  1.1503
  459MOL0     H61904   1.440   6.182   3.089  1.0367 -1.2713  1.7477
  459MOL0     H61905   1.412   6.121   2.920  3.0434  1.3201 -0.7978
  459MOL0     H61906   1.311   5.922   3.008 -2.3270  0.8924 -1.8637
  459MOL0     H61907   1.344   5.978   3.183 -0.9965 -0.4479 -0.3836
  459MOL0     H61908   1.228   6.189   3.119  0.2576  0.0025 -3.0962
  459MOL0     H61909   1.174   6.092   2.985  2.6381 -2.0976 -1.2873
  459MOL0     H61910   1.076   5.922   3.170 -1.4263 -0.1145  3.4427
  459MOL0     H61911   1.127   6.054   3.284 -0.4659  2.0598 -0.4820
  459MOL0     H61912   0.881   6.062   3.229  0.7862 -1.8253 -0.4673
  459MOL0     H61913   0.963   6.213   3.180  1.9481 -0.1140  1.3207
  459MOL0     H61914   0.904   5.967   2.993  0.5358  0.5587 -2.1928
  459MOL0     H61915   0.965   6.106   2.927 -2.2000  2.1002 -1.1571
  459MOL0     H61916   0.806   6.334   2.990 -1.5128  2.2402 -1.7580
  459MOL0     H61917   0.414   6.330   3.058  2.6289 -2.1871  2.1827
  459MOL0     H61918   0.538   6.451   2.999  0.4871 -1.3365 -2.2218
  459MOL0     H61919   0.300   6.365   2.888 -0.3149  0.8142 -0.4492
  459MOL0     H61920   0.428   6.286   2.793 -0.1655 -1.7897  2.9637
  459MOL0     H61921   0.542   6.517   2.760 -0.9412  3.0827 -3.4334
  459MOL0     H61922   0.404   6.577   2.851  1.4988  0.7069  0.4418
  459MOL0     H61923   0.399   6.424   2.576  0.8542  2.3646 -2.5938
  459MOL0     H61924   0.372   6.587   2.578  0.3635  0.4986  0.7231
  459MOL0     H61925   0.271   6.736   2.708 -1.3629  2.2078 -1.9952
  459MOL0     H61926   0.127   7.005   2.766  1.1272 -1.1650 -3.3265
  459MOL0     H61927   0.146   6.944   2.931 -2.0909  0.3207  0.0872
  459MOL0     H61928   0.270   6.908   2.809 -0.1542  3.5430 -1.1135
  459MOL0     H61929  -0.216   6.986   3.130 -0.2137  0.2225  3.8958
  459MOL0     H61930  -0.396   7.090   3.274 -2.9638  1.6715 -0.5635
  459MOL0     H61931  -0.580   7.140   3.422 -0.9106  0.6475  1.0429
  459MOL0     H61932  -0.591   7.223   3.272  1.2796 -0.5504  0.3979
  459MOL0     H61933  -0.849   7.201   3.289  0.4520 -3.8730 -1.5361
  459MOL0     H61934  -0.820   7.099   3.433  0.3490 -0.2781 -0.6068
  459MOL0     H61935  -0.735   7.390   3.410  0.5433  1.0255  2.2061
  459MOL0     H61936  -0.706   7.292   3.552  0.6449  1.6378 -0.8791
  459MOL0     H61937  -0.909   7.447   3.566  1.3863  0.5663 -1.4116
  459MOL0     H61938  -0.979   7.352   3.442 -0.2609  0.0488  0.0040
  459MOL0     H61939  -0.873   7.217   3.710 -1.8717 -1.5535  1.1256
  459MOL0     H61940  -0.970   7.148   3.574 -1.1665  0.3888 -0.7574
  459MOL0     H61941  -1.047   7.370   3.771 -0.4670 -0.7007  0.1370
  459MOL0     H61942  -1.150   7.331   3.630  0.5059  1.5154 -0.4670
  459MOL0     H61943  -1.057   7.146   3.855 -0.3854  0.8773 -0.4069
  459MOL0     H61944  -1.155   7.098   3.715 -0.2398  1.5288 -2.3623
  459MOL0     H61945  -1.243   7.293   3.927 -0.1973 -1.7153  3.7352
  459MOL0     H61946  -1.305   7.120   3.913 -0.1143 -0.8100 -2.0791
  459MOL0     H61947  -0.689   6.853   3.074  0.0148  1.2266 -1.2162
  459MOL0     H61948  -0.502   6.735   2.948 -0.1391  1.6012 -1.7681
  459MOL0     H61949  -0.184   6.592   2.832  0.8959 -0.3662  2.0309
  459MOL0     H61950  -0.046   6.451   2.691  0.4990 -0.8019  2.3912
  459MOL0     H61951   1.857   6.263   2.928 -1.3831 -1.9475  1.3983
  459MOL0     H61952   2.082   6.392   2.895  0.8380 -0.4834 -0.9235
  459MOL0     H61953   2.514   6.375   2.813  1.0268 -1.4119 -0.9210
  459MOL0     H61954   2.718   6.507   2.811  0.1027 -0.0274  0.0655
  459MOL0     H61955   2.992   6.496   2.839 -0.2673 -0.1480  0.5876
  459MOL0     H61956   2.885   6.638   2.837  0.3732 -0.5595 -1.1650
  459MOL0     H61957   3.048   6.717   3.027  1.7480  0.1465  0.7537
  459MOL0     H61958   3.113   6.730   2.860  1.9430 -0.2873  0.7895
  459MOL0     H61959   3.169   6.542   3.091  0.5700 -4.8149 -0.9973
  459MOL0     H61960   3.275   6.670   3.005  2.0949 -1.2957 -2.3293
  459MOL0     H61961   3.207   6.380   2.931  0.1608 -0.5887 -1.4708
  459MOL0     H61962   3.364   6.458   2.950 -1.1117 -2.1184  1.6726
  459MOL0     H61963   3.245   6.516   2.547 -0.5707  4.6555  0.2587
  459MOL0     H61964   2.801   6.405   3.222 -2.3121 -2.7941  1.9128
  459MOL0     H61965   2.600   6.299   3.238 -3.4616  0.8776 -0.5175
  460MOL0     O61966   8.696   6.841   0.281 -0.0347  0.1127  0.6409
  460MOL0     C61967   8.754   6.909   0.195  0.4115 -0.0343 -0.2280
  460MOL0     O61968   8.691   6.984   0.105  0.4719  0.4931  0.0180
  460MOL0     C61969   8.553   6.988   0.099 -0.4563 -0.4332  0.3444
  460MOL0     C61970   8.484   7.059   0.196  0.0636  0.4614  0.1696
  460MOL0     C61971   8.344   7.074   0.184  0.0988  0.0416  0.2624
  460MOL0     C61972   8.277   7.043   0.061 -0.0412 -0.8231 -0.4752
  460MOL0     O61973   8.148   7.067   0.033  0.8804  0.1308  0.0280
  460MOL0     C61974   8.068   7.129   0.134  0.8452  0.1555 -1.1397
  460MOL0     C61975   7.931   7.178   0.075 -0.1269 -0.0559  0.0997
  460MOL0     C61976   7.828   7.061   0.071  0.2049 -0.3555  0.1356
  460MOL0     C61977   7.687   7.114   0.031 -0.7278 -0.0288 -0.0687
  460MOL0     C61978   7.584   7.008   0.042  0.1772  0.7300  0.2333
  460MOL0     C61979   7.447   7.063  -0.006  0.9398 -0.0111 -0.5737
  460MOL0     C61980   7.325   6.997   0.063 -0.4142  0.2505  0.0688
  460MOL0     C61981   7.207   7.084   0.027  0.0030 -0.2421  0.3374
  460MOL0     N61982   7.079   7.018   0.049 -0.2858  0.3148 -0.1976
  460MOL0     C61983   7.000   6.957  -0.042  0.3729  0.2453  0.1354
  460MOL0     C61984   6.892   6.914   0.029  0.6661  0.4970  0.1036
  460MOL0     C61985   6.771   6.848  -0.032  0.3149  0.6634  0.3809
  460MOL0     C61986   6.644   6.932  -0.018 -1.1511  0.0157  0.3487
  460MOL0     C61987   6.519   6.847  -0.031  0.1425  0.2235 -0.3177
  460MOL0     C61988   6.388   6.931  -0.003 -0.2985  0.2206 -0.5740
  460MOL0     O61989   6.377   7.039  -0.088 -0.3320  0.0794 -0.0204
  460MOL0     C61990   6.285   7.141  -0.064  0.7540 -0.4461  0.8261
  460MOL0     C61991   6.196   7.139   0.046 -0.1808 -0.0210 -0.2045
  460MOL0     C61992   6.097   7.233   0.071  0.7897 -0.7012  0.2150
  460MOL0     C61993   6.008   7.206   0.199 -0.4376  0.5772  0.4644
  460MOL0     C61994   6.078   7.337  -0.025 -0.0186  0.2664  0.2138
  460MOL0     C61995   5.976   7.444  -0.018  0.2044 -0.5902  0.3774
  460MOL0     O61996   5.999   7.555  -0.096  0.1895 -0.3307  0.1136
  460MOL0     C61997   5.933   7.676  -0.073 -0.3343 -0.1495 -0.5660
  460MOL0     C61998   5.886   7.724   0.048 -0.7769  0.5646 -0.3433
  460MOL0     C61999   5.841   7.856   0.062  0.6516 -0.6528 -1.4598
  460MOL0     C62000   5.821   7.933  -0.052  0.0806 -0.1337 -0.4849
  460MOL0     O62001   5.754   8.055  -0.052  0.5839 -0.1647 -0.0714
  460MOL0     C62002   5.664   8.077   0.061  0.3685 -0.2870  0.3583
  460MOL0     C62003   5.564   8.192   0.021  0.4287 -0.5367  0.5657
  460MOL0     C62004   5.459   8.206   0.120  0.7851  0.7450 -0.6089
  460MOL0     C62005   5.328   8.269   0.061  0.1167  0.7701  1.4963
  460MOL0     C62006   5.236   8.316   0.171 -0.1905  0.5032 -0.1361
  460MOL0     C62007   5.105   8.371   0.111  0.3740 -0.1781 -0.1229
  460MOL0     C62008   5.000   8.419   0.202  0.3628 -0.0535 -0.1687
  460MOL0     C62009   4.876   8.458   0.119 -0.5894  0.0402  0.1087
  460MOL0    Cl62010   4.901   8.601   0.019 -0.5509 -0.1784  0.0376
  460MOL0     C62011   5.876   7.887  -0.171 -0.3585 -0.6000  0.3720
  460MOL0     C62012   5.932   7.760  -0.182 -0.9353 -0.0270  0.5889
  460MOL0     O62013   5.886   7.424   0.058 -0.2322  0.2536 -0.1292
  460MOL0     C62014   6.181   7.349  -0.122 -0.0130 -0.9690 -0.3919
  460MOL0     C62015   6.274   7.245  -0.151  0.1552 -0.6428 -0.5711
  460MOL0     N62016   6.892   6.962   0.152  0.0833  0.4446  0.3584
  460MOL0     N62017   7.006   7.019   0.163  0.1387 -0.0379 -0.5907
  460MOL0     C62018   8.352   6.972  -0.032 -0.3768  0.5521  0.8132
  460MOL0     C62019   8.491   6.948  -0.023 -0.2510  0.5060 -0.4251
  460MOL0     C62020   8.894   6.892   0.162 -0.2911  0.1734 -0.0602
  460MOL0     C62021   8.985   6.989   0.140  0.1599 -0.1011  0.0695
  460MOL0     C62022   9.123   6.958   0.125 -0.4112  0.5140  0.6503
  460MOL0     C62023   9.162   6.826   0.112 -0.3001 -0.0811  0.4407
  460MOL0     O62024   9.298   6.803   0.096 -0.2172  0.1923 -0.0706
  460MOL0     C62025   9.346   6.693   0.020  0.5571 -0.0978 -0.0651
  460MOL0     C62026   9.489   6.662   0.074 -0.5049 -0.3895 -0.0794
  460MOL0     C62027   9.546   6.529   0.015  1.2989 -0.4225  0.5268
  460MOL0     C62028   9.493   6.409   0.088  0.0631  0.4312  0.5266
  460MOL0     C62029   9.541   6.293   0.019 -0.2152 -0.6981  0.1460
  460MOL0     C62030   9.608   6.205  -0.033 -0.7893  0.4896  0.8561
  460MOL0     C62031   9.065   6.730   0.130 -0.2554  0.2627 -0.1354
  460MOL0     C62032   8.935   6.760   0.155  0.5707  0.0948  0.4520
  460MOL0     H62033   8.540   7.095   0.281 -2.1392  3.6368  0.4821
  460MOL0     H62034   8.284   7.123   0.259 -1.2869  0.5109 -1.0960
  460MOL0     H62035   8.052   7.050   0.208 -0.1397 -0.9626 -2.4934
  460MOL0     H62036   8.122   7.217   0.172  2.6151 -0.3504 -2.3281
  460MOL0     H62037   7.899   7.266   0.132 -0.6201 -1.0134  1.3470
  460MOL0     H62038   7.950   7.223  -0.023  0.8639 -0.9337 -0.1292
  460MOL0     H62039   7.860   6.991  -0.007 -0.7509  0.3541 -0.9248
  460MOL0     H62040   7.814   7.005   0.164 -0.5769  0.3461  0.4519
  460MOL0     H62041   7.666   7.192   0.106 -0.7745  1.2190 -1.3376
  460MOL0     H62042   7.694   7.152  -0.071  2.0910 -2.2737 -0.8543
  460MOL0     H62043   7.617   6.917  -0.009 -0.3434 -0.9055  2.6249
  460MOL0     H62044   7.579   6.982   0.148  3.1989  3.5781  1.2647
  460MOL0     H62045   7.444   7.165   0.034 -0.1552 -0.5357  0.7821
  460MOL0     H62046   7.442   7.073  -0.115 -0.9051 -1.7547 -0.7085
  460MOL0     H62047   7.315   6.899   0.016  0.9579 -0.2124  0.6934
  460MOL0     H62048   7.350   6.980   0.168 -1.2904  0.0598  0.2486
  460MOL0     H62049   7.206   7.099  -0.082 -0.8661  0.0155  0.3751
  460MOL0     H62050   7.215   7.181   0.077 -2.2378  0.0310  0.2710
  460MOL0     H62051   7.022   6.944  -0.147  0.9893 -1.4033  0.4434
  460MOL0     H62052   6.786   6.817  -0.136 -1.0637 -0.7652  0.5662
  460MOL0     H62053   6.741   6.753   0.013 -2.3174  1.1795 -0.0619
  460MOL0     H62054   6.640   7.007  -0.097 -1.4351  1.5212  1.7350
  460MOL0     H62055   6.644   6.992   0.074 -1.3130  0.7749 -0.1438
  460MOL0     H62056   6.522   6.766   0.043 -0.7223  1.5958  1.2839
  460MOL0     H62057   6.514   6.793  -0.126 -0.0358  1.0846 -0.8034
  460MOL0     H62058   6.389   6.965   0.101 -0.7983 -3.3000  0.7277
  460MOL0     H62059   6.303   6.863  -0.009 -0.8196  0.8437 -0.3076
  460MOL0     H62060   6.200   7.056   0.116  1.7754 -0.5634 -0.9036
  460MOL0     H62061   6.022   7.288   0.270  1.7252  0.6067  0.0713
  460MOL0     H62062   5.907   7.190   0.159  0.0915  0.4389 -0.8624
  460MOL0     H62063   6.027   7.118   0.261  0.3416  0.0454 -0.5030
  460MOL0     H62064   5.880   7.657   0.133  1.0597 -1.7315 -1.9189
  460MOL0     H62065   5.814   7.893   0.161  3.5353  1.8743 -1.4925
  460MOL0     H62066   5.609   7.985   0.081  1.9336 -1.6615 -1.2567
  460MOL0     H62067   5.728   8.100   0.147 -0.4368  0.3109  0.8103
  460MOL0     H62068   5.614   8.289   0.004 -0.4994 -0.3862 -1.5724
  460MOL0     H62069   5.514   8.178  -0.075  3.2091  1.3593 -1.3256
  460MOL0     H62070   5.502   8.274   0.194 -2.2898  1.0595  1.0740
  460MOL0     H62071   5.429   8.114   0.171 -0.4361  0.8079 -1.1878
  460MOL0     H62072   5.341   8.338  -0.022 -1.2002  0.4989  1.0361
  460MOL0     H62073   5.273   8.180   0.028  0.8437 -0.4365  3.3710
  460MOL0     H62074   5.278   8.394   0.235 -1.8205 -1.2106  3.3306
  460MOL0     H62075   5.215   8.233   0.239 -0.7409 -0.6479 -1.6643
  460MOL0     H62076   5.112   8.457   0.044 -2.3251  1.4578  1.5099
  460MOL0     H62077   5.066   8.281   0.062  2.1929 -1.4729  0.6795
  460MOL0     H62078   5.031   8.506   0.261 -1.1856 -1.0067  2.2231
  460MOL0     H62079   4.975   8.337   0.270 -2.1890 -0.6454 -1.7114
  460MOL0     H62080   4.781   8.465   0.172 -0.8072 -2.4533  0.1462
  460MOL0     H62081   4.867   8.376   0.047  2.4719  0.2872 -0.6941
  460MOL0     H62082   5.874   7.955  -0.256 -1.4319  2.3227  2.5669
  460MOL0     H62083   5.981   7.719  -0.269 -0.7875 -0.6076  0.9386
  460MOL0     H62084   6.187   7.446  -0.171 -1.9424  0.4161  1.9245
  460MOL0     H62085   6.345   7.267  -0.229 -0.1561  1.7067 -0.2586
  460MOL0     H62086   8.302   6.947  -0.126  5.7883 -0.1681 -2.8320
  460MOL0     H62087   8.534   6.898  -0.110 -0.9482 -1.0664  0.0890
  460MOL0     H62088   8.955   7.089   0.169 -0.7583 -0.6639  1.1289
  460MOL0     H62089   9.199   7.034   0.110  2.2496 -1.3665  3.5596
  460MOL0     H62090   9.272   6.613   0.020  0.2225  0.1382 -2.6586
  460MOL0     H62091   9.356   6.734  -0.081  0.1207 -0.5791 -0.3073
  460MOL0     H62092   9.511   6.657   0.182  2.0667  1.9377 -0.3800
  460MOL0     H62093   9.541   6.756   0.052 -1.3521  0.6300  1.9088
  460MOL0     H62094   9.655   6.537   0.018  1.1950  2.5151 -0.2483
  460MOL0     H62095   9.515   6.524  -0.089 -0.8159  0.9616  1.0176
  460MOL0     H62096   9.384   6.410   0.098  0.1163 -1.1823  1.5278
  460MOL0     H62097   9.544   6.406   0.184  1.2197  0.8419 -0.0450
  460MOL0     H62098   9.657   6.124  -0.082  1.3611  0.7115  2.4742
  460MOL0     H62099   9.093   6.625   0.134  1.6527  0.6479 -1.9891
  460MOL0     H62100   8.864   6.678   0.164  0.0681  0.4159 -0.4474
  461MOL0     O62101   6.242   9.466   3.652  0.2354 -0.1839  0.3562
  461MOL0     C62102   6.267   9.569   3.714 -0.2309  0.0219  0.2477
  461MOL0     O62103   6.240   9.692   3.662  0.4587 -0.5206  0.2780
  461MOL0     C62104   6.156   9.703   3.561  0.2762  0.2997  1.1046
  461MOL0     C62105   6.189   9.651   3.432 -0.0282 -0.4052 -0.3092
  461MOL0     C62106   6.091   9.646   3.330  0.6552 -0.4747 -0.5127
  461MOL0     C62107   5.969   9.713   3.352 -0.4656 -0.2407 -1.1264
  461MOL0     O62108   5.877   9.711   3.252 -0.2405 -0.8089 -0.1606
  461MOL0     C62109   5.760   9.792   3.261  1.1404  0.5856 -0.1943
  461MOL0     C62110   5.653   9.741   3.168  0.1949 -0.7452  0.3822
  461MOL0     C62111   5.515   9.801   3.199  0.9493  1.1816 -0.0965
  461MOL0     C62112   5.418   9.760   3.087  0.3642  0.3296  0.1010
  461MOL0     C62113   5.274   9.734   3.146  0.6698  0.6002  0.0207
  461MOL0     C62114   5.208   9.864   3.193 -0.5318 -0.0884 -0.5360
  461MOL0     C62115   5.098   9.824   3.291  0.3234 -0.8944 -0.5293
  461MOL0     C62116   4.964   9.780   3.221  0.4430  0.5081 -0.1039
  461MOL0     N62117   4.844   9.757   3.315 -0.1017  0.7952  0.0378
  461MOL0     C62118   4.772   9.863   3.365  0.6616  0.4728  0.2133
  461MOL0     C62119   4.666   9.810   3.424  0.3044  0.5268  0.4787
  461MOL0     C62120   4.562   9.890   3.487 -0.3835  0.3875  0.4784
  461MOL0     C62121   4.417   9.855   3.456  0.0161 -0.1972  0.5674
  461MOL0     C62122   4.327   9.947   3.538 -0.5247 -0.2131  0.1621
  461MOL0     C62123   4.182   9.888   3.551 -0.3404 -0.0056  0.1099
  461MOL0     O62124   4.097   9.965   3.644  0.5716  0.2166 -0.6888
  461MOL0     C62125   3.968   9.928   3.675 -0.7277  0.5286  1.3522
  461MOL0     C62126   3.894   9.835   3.605  0.6804  0.1962  0.6400
  461MOL0     C62127   3.767   9.786   3.654 -0.1382  0.4185  0.5882
  461MOL0     C62128   3.717   9.664   3.583 -0.5031  0.6520  0.4146
  461MOL0     C62129   3.708   9.834   3.772 -1.4736 -1.0459 -0.1610
  461MOL0     C62130   3.576   9.794   3.825  0.5863 -0.2863 -0.8934
  461MOL0     O62131   3.528   9.865   3.921  0.1309 -0.7471 -0.3118
  461MOL0     C62132   3.400   9.831   3.968 -0.3113 -0.3796  0.8712
  461MOL0     C62133   3.295   9.916   3.939 -0.8944  0.3457  0.2773
  461MOL0     C62134   3.166   9.875   3.977  0.0068 -0.1719  0.0359
  461MOL0     C62135   3.138   9.760   4.051 -0.9616  0.3304 -0.4389
  461MOL0     O62136   3.020   9.713   4.102 -0.0609 -0.0435  0.0817
  461MOL0     C62137   2.908   9.783   4.061  0.0882 -0.4345 -1.1801
  461MOL0     C62138   2.780   9.712   4.120  0.4757 -0.4047 -0.0801
  461MOL0     C62139   2.646   9.775   4.059 -0.8434 -0.3071  0.2919
  461MOL0     C62140   2.520   9.751   4.142  0.0732 -0.0278 -0.3744
  461MOL0     C62141   2.389   9.799   4.071 -0.7377  0.3089  0.2008
  461MOL0     C62142   2.339   9.700   3.967  0.2389  0.0444 -0.6332
  461MOL0     C62143   2.199   9.726   3.907 -0.2430 -0.6388  0.1017
  461MOL0     C62144   2.150   9.610   3.830 -0.4066  0.8756  0.5061
  461MOL0    Cl62145   1.995   9.646   3.759 -0.2153 -0.0788 -0.0668
  461MOL0     C62146   3.251   9.679   4.084  0.2787 -0.4901  0.2581
  461MOL0     C62147   3.381   9.715   4.044  0.6433  0.1971 -0.5197
  461MOL0     O62148   3.521   9.705   3.771  0.5407 -0.3167  0.5295
  461MOL0     C62149   3.782   9.940   3.833 -1.1244 -0.9652 -0.2315
  461MOL0     C62150   3.910   9.983   3.781  1.1658  0.5206  0.4132
  461MOL0     N62151   4.674   9.673   3.413  0.3885 -0.1930 -0.2417
  461MOL0     N62152   4.783   9.640   3.356 -0.0684 -0.0996  0.0114
  461MOL0     C62153   5.954   9.786   3.470  0.9948  0.2062  0.1224
  461MOL0     C62154   6.045   9.785   3.576  0.0096  0.3891  0.2711
  461MOL0     C62155   6.308   9.567   3.856 -1.3600 -0.0900  1.0019
  461MOL0     C62156   6.348   9.444   3.913 -0.4910  0.1902 -0.1008
  461MOL0     C62157   6.383   9.431   4.049  0.2831  0.1129 -0.1908
  461MOL0     C62158   6.393   9.545   4.129 -0.4963  0.1866  0.0029
  461MOL0     O62159   6.445   9.520   4.250 -0.0984  0.2056 -0.3200
  461MOL0     C62160   6.443   9.629   4.343 -0.7471 -0.0405  0.0688
  461MOL0     C62161   6.506   9.567   4.459 -0.2561 -0.1869  0.0635
  461MOL0     C62162   6.501   9.669   4.571 -0.1727  0.2643 -0.3195
  461MOL0     C62163   6.548   9.600   4.702  0.5094 -0.4080  0.0355
  461MOL0     C62164   6.695   9.587   4.696  0.0884 -0.2396  0.5679
  461MOL0     C62165   6.817   9.575   4.693  0.0281 -0.7755 -0.3101
  461MOL0     C62166   6.363   9.671   4.072 -0.1563  0.1021  0.1140
  461MOL0     C62167   6.319   9.681   3.935  0.5860  0.3824 -0.3158
  461MOL0     H62168   6.284   9.600   3.423  1.7052  2.6599 -0.6350
  461MOL0     H62169   6.107   9.590   3.238  2.8612 -0.4138 -0.2395
  461MOL0     H62170   5.709   9.778   3.357  2.2960  0.9034  0.4747
  461MOL0     H62171   5.797   9.894   3.247  3.1392 -0.0645  0.0384
  461MOL0     H62172   5.680   9.764   3.064 -0.4754  0.0858  0.3814
  461MOL0     H62173   5.636   9.634   3.185 -2.4778 -0.2908  0.9502
  461MOL0     H62174   5.471   9.759   3.289  0.7128  0.4364 -0.5515
  461MOL0     H62175   5.508   9.910   3.212 -0.3172  0.9177  1.7151
  461MOL0     H62176   5.406   9.838   3.011  1.4970  0.0499 -0.3869
  461MOL0     H62177   5.450   9.669   3.035  0.8853 -0.5795  1.9282
  461MOL0     H62178   5.212   9.694   3.066 -0.1315 -2.0480  1.8561
  461MOL0     H62179   5.282   9.653   3.219  3.8272 -1.5703 -2.4413
  461MOL0     H62180   5.286   9.923   3.241 -0.6071 -1.8811  1.9747
  461MOL0     H62181   5.173   9.930   3.113 -1.2069  1.4442  0.9894
  461MOL0     H62182   5.125   9.742   3.357  1.4562  1.0437  1.5409
  461MOL0     H62183   5.071   9.903   3.362  2.6028 -0.5357 -0.0104
  461MOL0     H62184   4.987   9.684   3.176  0.1649  1.1787 -1.7253
  461MOL0     H62185   4.939   9.860   3.151  0.0909 -0.4985 -1.1616
  461MOL0     H62186   4.808   9.965   3.362  1.4421  0.1797 -0.8963
  461MOL0     H62187   4.585   9.872   3.592  2.4992 -2.6286 -0.5046
  461MOL0     H62188   4.572   9.998   3.472  0.3774  0.2641  0.0069
  461MOL0     H62189   4.393   9.752   3.482 -2.2282 -0.6532 -2.7013
  461MOL0     H62190   4.388   9.861   3.350 -1.8969 -0.7572  1.0266
  461MOL0     H62191   4.333  10.049   3.500 -0.7060 -1.0478 -2.3219
  461MOL0     H62192   4.366   9.931   3.639  1.6682 -0.1459 -0.6383
  461MOL0     H62193   4.191   9.784   3.583  0.8264  0.5598  1.7776
  461MOL0     H62194   4.129   9.891   3.455 -1.7293 -0.2316  0.8334
  461MOL0     H62195   3.935   9.798   3.511 -0.8587 -0.8343  0.3307
  461MOL0     H62196   3.686   9.580   3.646 -2.0430 -1.9757 -3.4860
  461MOL0     H62197   3.628   9.687   3.525  0.0896 -0.4340 -0.9834
  461MOL0     H62198   3.792   9.631   3.510 -2.2322  0.1103 -1.1731
  461MOL0     H62199   3.324  10.008   3.891  1.0611  0.6506  1.8776
  461MOL0     H62200   3.094   9.950   3.946  2.5602  1.3180 -2.8766
  461MOL0     H62201   2.928   9.889   4.082  1.8275 -0.9119 -0.2718
  461MOL0     H62202   2.899   9.787   3.952  1.3905 -2.0060 -1.3644
  461MOL0     H62203   2.770   9.610   4.082  1.9809  0.1145 -2.0727
  461MOL0     H62204   2.784   9.717   4.229  1.2947  0.4597 -0.1301
  461MOL0     H62205   2.639   9.730   3.959 -1.0614  2.7293 -1.1911
  461MOL0     H62206   2.654   9.883   4.046  0.0722 -0.4558 -0.4624
  461MOL0     H62207   2.514   9.645   4.169  2.2320  0.5804  3.1631
  461MOL0     H62208   2.521   9.809   4.234 -0.9352  1.4973 -1.2779
  461MOL0     H62209   2.420   9.883   4.008 -0.1983 -0.3816 -0.4862
  461MOL0     H62210   2.308   9.826   4.139 -0.8069  1.4224 -0.3120
  461MOL0     H62211   2.415   9.688   3.889 -1.3732  2.2101 -2.6977
  461MOL0     H62212   2.318   9.604   4.014 -0.1253  0.0166 -0.8450
  461MOL0     H62213   2.203   9.814   3.842  2.0840 -0.1906  0.7454
  461MOL0     H62214   2.120   9.746   3.981  0.2570 -2.8978  1.3354
  461MOL0     H62215   2.145   9.524   3.897 -2.2210  0.9613  0.5384
  461MOL0     H62216   2.219   9.592   3.748 -1.1909 -0.5933  0.1429
  461MOL0     H62217   3.241   9.589   4.144  1.9232 -0.9978 -0.1960
  461MOL0     H62218   3.465   9.657   4.080  0.8557  1.3132  0.8473
  461MOL0     H62219   3.731   9.994   3.912 -1.5601 -0.5012 -0.8227
  461MOL0     H62220   3.957  10.068   3.829 -1.0259  2.9610 -1.4764
  461MOL0     H62221   5.870   9.853   3.485  1.9255  1.2365  0.8822
  461MOL0     H62222   6.032   9.834   3.672 -0.2444 -0.4050  0.6472
  461MOL0     H62223   6.355   9.345   3.869 -0.1816  0.2762 -0.2463
  461MOL0     H62224   6.407   9.335   4.094 -0.6665 -0.1437 -0.2038
  461MOL0     H62225   6.513   9.704   4.306 -1.8060  0.6447 -0.6053
  461MOL0     H62226   6.343   9.672   4.355 -0.2491  1.9572 -2.0879
  461MOL0     H62227   6.612   9.552   4.436  0.6774  1.1862  3.0728
  461MOL0     H62228   6.456   9.473   4.486 -1.4509  0.9934  2.1730
  461MOL0     H62229   6.399   9.706   4.585  0.5989  2.4654 -0.1656
  461MOL0     H62230   6.563   9.756   4.547  0.9748 -0.2817  0.5589
  461MOL0     H62231   6.500   9.505   4.725 -1.6640  0.5614 -0.2165
  461MOL0     H62232   6.521   9.666   4.785 -0.2553  2.2542 -2.1648
  461MOL0     H62233   6.922   9.554   4.693  0.4749  1.1705  0.7619
  461MOL0     H62234   6.383   9.756   4.136  1.5754 -0.0338 -0.2019
  461MOL0     H62235   6.292   9.780   3.901 -1.5486  0.7725  2.1609
  462MOL0     O62236   6.039   9.459   8.910 -0.2716 -0.3715 -0.1542
  462MOL0     C62237   6.018   9.376   8.821  0.0044  0.1315  0.5301
  462MOL0     O62238   5.897   9.350   8.766 -0.1932 -0.0465 -0.4654
  462MOL0     C62239   5.785   9.420   8.807 -0.8138  0.3085 -0.1509
  462MOL0     C62240   5.761   9.558   8.765  0.1396  0.3068  0.1028
  462MOL0     C62241   5.656   9.632   8.823  0.1474 -0.2956 -0.5011
  462MOL0     C62242   5.567   9.567   8.910  0.4775  0.1735 -0.0110
  462MOL0     O62243   5.465   9.631   8.971 -0.1503 -0.3253  0.2169
  462MOL0     C62244   5.337   9.573   8.934  0.5880  0.5526  0.0532
  462MOL0     C62245   5.244   9.591   9.059 -0.5114 -0.1271 -0.4264
  462MOL0     C62246   5.202   9.739   9.066 -0.4825 -0.0594  0.1025
  462MOL0     C62247   5.110   9.768   9.188  0.3959 -0.2990 -0.3019
  462MOL0     C62248   5.061   9.909   9.188  0.0387  0.2846 -0.1802
  462MOL0     C62249   4.985   9.940   9.325  0.3392  0.1734 -0.8089
  462MOL0     C62250   4.850   9.853   9.345 -0.4409  0.1484 -0.1197
  462MOL0     C62251   4.742   9.882   9.228  0.8645 -0.2765  0.4171
  462MOL0     N62252   4.615   9.808   9.258  0.3094  0.4394 -0.0885
  462MOL0     C62253   4.609   9.670   9.239 -0.0170 -0.2203 -0.4693
  462MOL0     C62254   4.482   9.642   9.267  0.3858 -0.7342 -0.5948
  462MOL0     C62255   4.422   9.508   9.267 -0.3404 -0.9236  0.7155
  462MOL0     C62256   4.349   9.479   9.133 -0.5495 -0.2809  0.3661
  462MOL0     C62257   4.238   9.373   9.164 -0.1243 -0.6253  0.7738
  462MOL0     C62258   4.154   9.346   9.050  0.0926 -0.0236  0.0411
  462MOL0     O62259   4.107   9.467   8.988 -0.3814  0.4237 -0.5129
  462MOL0     C62260   4.026   9.459   8.878 -0.4202  0.2889 -0.4447
  462MOL0     C62261   3.972   9.581   8.834 -0.2545 -0.1089  0.3667
  462MOL0     C62262   3.875   9.589   8.729  0.4089  0.0018  0.0112
  462MOL0     C62263   3.836   9.730   8.690  0.4707  0.0252  0.0286
  462MOL0     C62264   3.828   9.475   8.666  0.2146  0.2548  0.3437
  462MOL0     C62265   3.724   9.475   8.560 -0.0280 -0.2064  0.0197
  462MOL0     O62266   3.643   9.578   8.549 -0.6819 -0.9669 -0.0972
  462MOL0     C62267   3.533   9.575   8.469 -0.4387  0.7886 -0.6228
  462MOL0     C62268   3.505   9.703   8.414 -0.8824  0.5487  0.1810
  462MOL0     C62269   3.392   9.718   8.335 -0.7483  0.3502 -0.4074
  462MOL0     C62270   3.292   9.625   8.324 -0.3823  0.7696 -0.3770
  462MOL0     O62271   3.179   9.637   8.257  0.2890  0.6027  0.0074
  462MOL0     C62272   3.145   9.772   8.213  0.0403  0.1478 -0.9309
  462MOL0     C62273   2.991   9.774   8.163  0.3312 -0.8113 -0.2398
  462MOL0     C62274   2.965   9.899   8.070 -0.3367 -0.3690 -1.2717
  462MOL0     C62275   2.813   9.926   8.037 -0.5523  0.4347 -0.8939
  462MOL0     C62276   2.793  10.042   7.938  0.7373  0.4441  0.6284
  462MOL0     C62277   2.639  10.087   7.947  0.5355  0.4997 -0.3759
  462MOL0     C62278   2.576  10.131   7.808  0.0153 -0.2617 -0.3969
  462MOL0     C62279   2.424  10.123   7.825  0.4916  0.1109 -0.3657
  462MOL0    Cl62280   2.376   9.952   7.800 -0.0120 -0.2587  0.0490
  462MOL0     C62281   3.313   9.502   8.387 -0.7918  0.9547 -0.9220
  462MOL0     C62282   3.434   9.480   8.460 -0.7112  0.1514  0.2117
  462MOL0     O62283   3.725   9.376   8.485 -0.0842  0.4347  0.6843
  462MOL0     C62284   3.891   9.355   8.705 -0.1533  0.0558 -0.7886
  462MOL0     C62285   3.982   9.344   8.816 -0.3280  0.6544  0.4506
  462MOL0     N62286   4.409   9.757   9.282 -0.1234 -0.1081 -0.1151
  462MOL0     N62287   4.490   9.854   9.276  0.0887 -0.4655  0.5748
  462MOL0     C62288   5.595   9.438   8.948 -0.2361  1.3812 -0.5715
  462MOL0     C62289   5.699   9.371   8.895  0.3666  0.5400 -1.3518
  462MOL0     C62290   6.133   9.304   8.754  0.1285  0.1213  1.0848
  462MOL0     C62291   6.123   9.234   8.639 -0.5551  1.0113 -0.5165
  462MOL0     C62292   6.239   9.161   8.588  0.6460 -0.3278 -0.7895
  462MOL0     C62293   6.364   9.171   8.650 -0.0004  0.0973 -0.0322
  462MOL0     O62294   6.473   9.102   8.597  0.0164  0.0901  0.0116
  462MOL0     C62295   6.607   9.145   8.635 -0.3140  0.2611  0.4727
  462MOL0     C62296   6.629   9.290   8.585 -0.2875  0.4853  0.2088
  462MOL0     C62297   6.778   9.333   8.595 -0.6420  0.0642 -0.4054
  462MOL0     C62298   6.824   9.463   8.527  0.0039 -0.7026  0.3853
  462MOL0     C62299   6.964   9.484   8.551 -0.6811 -0.2200 -0.4710
  462MOL0     C62300   7.084   9.497   8.567 -0.2223 -1.0248  0.2561
  462MOL0     C62301   6.371   9.248   8.766 -0.3424  0.1025 -0.6504
  462MOL0     C62302   6.261   9.310   8.817 -0.5503 -0.5535  0.4395
  462MOL0     H62303   5.820   9.612   8.691 -0.4995  0.2708 -0.4447
  462MOL0     H62304   5.633   9.734   8.796 -2.6395 -0.8789 -0.5893
  462MOL0     H62305   5.300   9.622   8.844  1.2769 -1.8986 -1.6792
  462MOL0     H62306   5.347   9.467   8.905  0.3552 -0.6152  3.7073
  462MOL0     H62307   5.151   9.536   9.043  1.4234 -3.2705 -1.8612
  462MOL0     H62308   5.289   9.570   9.156  1.6392 -0.4700 -1.4456
  462MOL0     H62309   5.289   9.804   9.070  1.6782 -2.7263 -0.9000
  462MOL0     H62310   5.148   9.755   8.972  0.2709  2.1214 -0.0225
  462MOL0     H62311   5.018   9.710   9.179 -1.0212  1.0497  3.5200
  462MOL0     H62312   5.154   9.736   9.283  2.0538 -1.0693 -1.2881
  462MOL0     H62313   5.141   9.983   9.182  2.4933 -2.2754 -1.2285
  462MOL0     H62314   4.991   9.933   9.107 -0.2264  0.4992  0.1119
  462MOL0     H62315   5.052   9.920   9.409  0.1059  1.9575 -0.1489
  462MOL0     H62316   4.969  10.048   9.329  1.1034  0.2899 -0.9006
  462MOL0     H62317   4.875   9.747   9.334 -0.7879  0.2697 -2.7155
  462MOL0     H62318   4.804   9.858   9.444  0.9882 -0.9792  0.6381
  462MOL0     H62319   4.786   9.846   9.135 -2.9638 -2.4870 -0.7683
  462MOL0     H62320   4.719   9.987   9.209 -0.8786 -0.3776  1.6975
  462MOL0     H62321   4.690   9.601   9.220  1.2698  1.6533 -2.2905
  462MOL0     H62322   4.514   9.450   9.280  2.2522  3.1115  2.4149
  462MOL0     H62323   4.359   9.510   9.356 -0.7126 -2.2433  0.5105
  462MOL0     H62324   4.415   9.439   9.055 -0.1335 -1.9222  1.4990
  462MOL0     H62325   4.307   9.571   9.090 -2.3983 -0.5164  1.5436
  462MOL0     H62326   4.175   9.415   9.243 -1.7375 -0.5290 -0.5217
  462MOL0     H62327   4.288   9.281   9.197 -1.0988  0.2865  5.6489
  462MOL0     H62328   4.067   9.286   9.081 -1.3953  1.6924 -0.6526
  462MOL0     H62329   4.210   9.279   8.984 -1.5601 -1.2745 -0.1759
  462MOL0     H62330   4.017   9.665   8.885  0.9459 -0.8710  0.6046
  462MOL0     H62331   3.833   9.744   8.582 -0.7180 -1.0604 -0.0995
  462MOL0     H62332   3.736   9.760   8.720  0.9828  0.9545  0.8841
  462MOL0     H62333   3.900   9.816   8.714 -2.2042  2.1735 -0.1418
  462MOL0     H62334   3.570   9.790   8.422 -1.0639  0.4834  4.2932
  462MOL0     H62335   3.386   9.810   8.279  1.9535  1.0155  0.2313
  462MOL0     H62336   3.155   9.848   8.291 -0.3605  0.6059 -1.3138
  462MOL0     H62337   3.217   9.791   8.133  1.9385 -1.0820  0.4015
  462MOL0     H62338   2.964   9.685   8.105 -0.9290 -0.6297  0.0459
  462MOL0     H62339   2.934   9.783   8.256 -0.5267 -1.0317 -0.7335
  462MOL0     H62340   3.027   9.899   7.980  0.6459 -0.4027 -0.6083
  462MOL0     H62341   2.990   9.983   8.135 -1.6644 -1.1664  0.3309
  462MOL0     H62342   2.763   9.838   7.995 -2.1627  1.0148 -0.2636
  462MOL0     H62343   2.765   9.949   8.133  2.0796  2.9009 -0.0318
  462MOL0     H62344   2.826  10.007   7.840  1.2160  4.5683 -0.8798
  462MOL0     H62345   2.860  10.125   7.964  1.4591 -0.1903  0.8437
  462MOL0     H62346   2.582  10.001   7.985 -3.1710  1.7841 -2.4848
  462MOL0     H62347   2.614  10.167   8.016 -0.8056 -0.0719 -0.1619
  462MOL0     H62348   2.604  10.068   7.724  1.1426  0.0873 -0.2990
  462MOL0     H62349   2.602  10.236   7.790 -2.2589  0.1529 -1.6386
  462MOL0     H62350   2.361  10.185   7.760 -3.3663 -0.0195  2.8454
  462MOL0     H62351   2.386  10.165   7.918  0.0556  2.8258 -1.6808
  462MOL0     H62352   3.240   9.424   8.400  1.0440 -0.4871  1.5522
  462MOL0     H62353   3.442   9.386   8.513 -3.9440 -0.4109 -0.1067
  462MOL0     H62354   3.847   9.264   8.668  0.2491 -1.1040  1.4047
  462MOL0     H62355   4.028   9.252   8.853  2.5297  0.6672 -2.6046
  462MOL0     H62356   5.534   9.397   9.028 -0.6313 -1.3391 -2.1464
  462MOL0     H62357   5.708   9.274   8.943 -3.5370  0.0175 -1.3817
  462MOL0     H62358   6.032   9.233   8.580 -1.7683 -3.0107  1.0973
  462MOL0     H62359   6.243   9.110   8.492  2.7876 -0.8468 -0.4665
  462MOL0     H62360   6.644   9.124   8.736  1.2263  1.0514  0.1096
  462MOL0     H62361   6.667   9.080   8.571 -3.1827 -1.2813 -0.7781
  462MOL0     H62362   6.578   9.362   8.649  2.0151  0.8396  1.7881
  462MOL0     H62363   6.591   9.304   8.483  2.1066 -2.3413 -1.2704
  462MOL0     H62364   6.838   9.257   8.544 -0.1952  1.0688 -1.4196
  462MOL0     H62365   6.801   9.342   8.702 -0.1404 -1.4303 -0.3758
  462MOL0     H62366   6.773   9.549   8.571  0.1700  0.3160 -1.3065
  462MOL0     H62367   6.818   9.464   8.418 -4.7222  0.3779  0.4490
  462MOL0     H62368   7.186   9.528   8.578  0.0384 -0.8032 -2.2936
  462MOL0     H62369   6.465   9.265   8.817 -1.3558 -3.0613  2.6410
  462MOL0     H62370   6.270   9.363   8.911 -0.4524 -1.6802  1.0741
  463MOL0     O62371   8.775   5.234   1.033 -0.0619  0.1086 -0.0515
  463MOL0     C62372   8.743   5.173   0.926 -0.4648 -0.0928 -0.6773
  463MOL0     O62373   8.665   5.227   0.829  0.0554 -0.3901  0.3917
  463MOL0     C62374   8.623   5.354   0.836  0.5413 -0.3490  0.1703
  463MOL0     C62375   8.519   5.386   0.924 -0.0128 -0.1575  0.2359
  463MOL0     C62376   8.466   5.514   0.938 -0.2664 -0.1724 -0.0226
  463MOL0     C62377   8.514   5.617   0.846  0.2344  0.5109 -0.1944
  463MOL0     O62378   8.465   5.743   0.873 -0.1204  0.5616  0.1658
  463MOL0     C62379   8.513   5.858   0.802  0.5985 -0.5414  0.3207
  463MOL0     C62380   8.503   5.979   0.893 -0.6746  0.1057 -0.1290
  463MOL0     C62381   8.361   6.017   0.948  0.6786 -0.1872  0.8428
  463MOL0     C62382   8.368   6.163   0.976 -0.1579 -0.2941  0.2060
  463MOL0     C62383   8.234   6.221   1.021 -0.3553  0.2569  0.6803
  463MOL0     C62384   8.126   6.243   0.905 -0.1232 -0.5957  0.0938
  463MOL0     C62385   8.148   6.382   0.828 -0.3249  0.2571  0.7166
  463MOL0     C62386   8.095   6.499   0.912  0.0200 -0.3180 -0.1057
  463MOL0     N62387   7.960   6.486   0.956  0.3488 -0.1687 -0.0397
  463MOL0     C62388   7.855   6.454   0.873 -0.4399 -0.2389 -0.0491
  463MOL0     C62389   7.743   6.465   0.958 -0.2082 -0.2739 -0.1937
  463MOL0     C62390   7.598   6.448   0.934 -0.4831 -0.2483 -0.0842
  463MOL0     C62391   7.533   6.580   0.897  0.0322  0.3499  0.2681
  463MOL0     C62392   7.554   6.604   0.747  0.0059 -0.4056  0.1713
  463MOL0     C62393   7.467   6.520   0.663  0.7953  0.4237 -0.4309
  463MOL0     O62394   7.438   6.582   0.538  0.2259  0.2128  0.1814
  463MOL0     C62395   7.321   6.536   0.483 -0.3091 -0.1493  0.0347
  463MOL0     C62396   7.219   6.616   0.421  0.1850  0.0478 -0.1160
  463MOL0     C62397   7.115   6.562   0.346  0.0559  0.6935 -1.3140
  463MOL0     C62398   7.024   6.662   0.283 -0.7043  0.2874 -0.1123
  463MOL0     C62399   7.093   6.420   0.342  0.1989 -0.8122 -0.4222
  463MOL0     C62400   6.982   6.351   0.265  0.5741  0.0854 -0.1170
  463MOL0     O62401   6.953   6.223   0.296 -0.1626 -0.5881  0.4576
  463MOL0     C62402   6.858   6.145   0.235  0.6279 -0.2376 -0.1532
  463MOL0     C62403   6.786   6.172   0.116 -0.1380 -0.3248  0.3212
  463MOL0     C62404   6.689   6.088   0.062  0.5735 -1.1715  0.6249
  463MOL0     C62405   6.652   5.964   0.120  0.3592  0.4072  0.3953
  463MOL0     O62406   6.542   5.897   0.067  0.2954  0.1697 -0.2675
  463MOL0     C62407   6.503   5.777   0.134 -0.1224  1.6018  0.8981
  463MOL0     C62408   6.391   5.689   0.065  0.3434  0.7407 -0.8370
  463MOL0     C62409   6.351   5.562   0.148 -0.0371 -0.6926 -0.0184
  463MOL0     C62410   6.221   5.495   0.092 -0.1047  0.1588  1.0684
  463MOL0     C62411   6.204   5.353   0.139 -0.1580  0.2218 -0.7396
  463MOL0     C62412   6.075   5.285   0.078 -0.3496  0.1998 -0.5850
  463MOL0     C62413   5.965   5.338   0.167  0.4685 -0.9181  0.4543
  463MOL0     C62414   5.854   5.238   0.163 -0.9921  0.7011  0.2754
  463MOL0    Cl62415   5.729   5.295   0.280  0.5531 -0.5516  0.0692
  463MOL0     C62416   6.737   5.928   0.233  0.7625 -0.9806 -0.1914
  463MOL0     C62417   6.824   6.022   0.291 -0.9368  0.7057  0.6147
  463MOL0     O62418   6.923   6.414   0.180 -0.0497 -0.4894 -0.1520
  463MOL0     C62419   7.179   6.349   0.423 -0.2518  0.1111  0.4907
  463MOL0     C62420   7.294   6.398   0.484  0.2090  0.7951 -0.5462
  463MOL0     N62421   7.787   6.486   1.089  0.5689 -0.1774 -0.1185
  463MOL0     N62422   7.919   6.492   1.088  0.0674 -0.6641  0.2030
  463MOL0     C62423   8.599   5.578   0.746 -0.6138  0.3109  0.7552
  463MOL0     C62424   8.657   5.452   0.741  0.3666 -0.0309 -0.1361
  463MOL0     C62425   8.779   5.036   0.915  0.7841  0.5497  0.6949
  463MOL0     C62426   8.888   4.979   0.979 -0.3006 -0.2550  0.0761
  463MOL0     C62427   8.915   4.843   0.962 -0.5518  0.4815  0.4038
  463MOL0     C62428   8.848   4.770   0.867 -0.3808  0.9390 -0.7865
  463MOL0     O62429   8.880   4.638   0.837 -0.1196 -0.0441  0.7860
  463MOL0     C62430   8.991   4.635   0.744  0.2179  0.4638  0.1235
  463MOL0     C62431   9.058   4.508   0.771  0.0159 -0.3381  0.4065
  463MOL0     C62432   9.192   4.497   0.691 -0.2247  0.7548  0.3973
  463MOL0     C62433   9.253   4.353   0.692  0.0389 -0.0959 -0.0209
  463MOL0     C62434   9.328   4.330   0.813 -0.1074 -0.3993  0.1116
  463MOL0     C62435   9.405   4.296   0.897 -0.1039  0.5958 -0.2139
  463MOL0     C62436   8.727   4.817   0.810  0.1335 -0.0974 -0.5477
  463MOL0     C62437   8.695   4.955   0.840  0.8616  0.6667  0.7568
  463MOL0     H62438   8.473   5.308   0.984 -1.3657  0.3678 -0.0660
  463MOL0     H62439   8.394   5.533   1.017  1.4869  0.5800  1.4706
  463MOL0     H62440   8.617   5.850   0.770 -0.1914 -0.2140 -2.5595
  463MOL0     H62441   8.454   5.878   0.713 -0.8209 -1.1636  1.0828
  463MOL0     H62442   8.573   5.966   0.976  3.3012 -1.2219 -3.3615
  463MOL0     H62443   8.531   6.060   0.825 -1.7661  1.3857  0.9030
  463MOL0     H62444   8.282   5.993   0.876  0.7870  1.3065  0.1818
  463MOL0     H62445   8.343   5.956   1.037  2.5866 -2.2025 -0.0662
  463MOL0     H62446   8.447   6.185   1.048 -1.1750 -2.0289  1.9532
  463MOL0     H62447   8.386   6.211   0.880 -0.7910 -0.2515  0.1030
  463MOL0     H62448   8.203   6.143   1.091 -0.9171  0.8455  1.0972
  463MOL0     H62449   8.254   6.313   1.076 -0.5512  1.3833 -1.0354
  463MOL0     H62450   8.133   6.156   0.838 -1.5321 -0.9299  0.3587
  463MOL0     H62451   8.027   6.240   0.951 -0.7358  4.2792 -0.3490
  463MOL0     H62452   8.252   6.400   0.802 -0.3934 -1.8870 -1.3523
  463MOL0     H62453   8.100   6.386   0.730  2.1940  0.5432 -0.5718
  463MOL0     H62454   8.105   6.591   0.853 -1.6423  0.8787  1.3574
  463MOL0     H62455   8.150   6.519   1.004  0.4654  0.0839 -0.4482
  463MOL0     H62456   7.853   6.443   0.765 -1.1883  2.1212 -0.3421
  463MOL0     H62457   7.591   6.379   0.850 -0.5113 -0.4568  0.0879
  463MOL0     H62458   7.543   6.418   1.024 -3.3158 -1.3709 -2.0353
  463MOL0     H62459   7.581   6.661   0.953  3.5561 -2.5466  1.8793
  463MOL0     H62460   7.426   6.584   0.920  0.1283  2.0720  0.6160
  463MOL0     H62461   7.660   6.594   0.721  0.0410 -0.2001  0.2364
  463MOL0     H62462   7.531   6.708   0.725 -3.0586 -0.9697  0.2767
  463MOL0     H62463   7.372   6.506   0.714  1.0836 -0.8063 -0.1970
  463MOL0     H62464   7.510   6.421   0.644 -2.8850 -2.2416  3.3500
  463MOL0     H62465   7.223   6.725   0.423 -0.6340  0.0910 -0.3946
  463MOL0     H62466   6.930   6.653   0.338 -1.2385 -0.1312 -1.0661
  463MOL0     H62467   7.063   6.764   0.287 -0.8361  0.5022 -2.5785
  463MOL0     H62468   7.010   6.649   0.175  0.3226 -0.2710 -0.1916
  463MOL0     H62469   6.801   6.272   0.075 -3.3973  0.2410  0.2629
  463MOL0     H62470   6.643   6.128  -0.029  0.5000  0.4364  1.3290
  463MOL0     H62471   6.593   5.718   0.152  0.3190  1.8891 -0.3121
  463MOL0     H62472   6.451   5.796   0.229 -2.4829 -1.3252  0.3320
  463MOL0     H62473   6.300   5.749   0.052 -0.6818 -0.9121 -1.4771
  463MOL0     H62474   6.421   5.654  -0.034 -0.8630  0.6032 -1.1725
  463MOL0     H62475   6.331   5.588   0.252  0.3148  0.1895 -0.1684
  463MOL0     H62476   6.429   5.485   0.145 -2.8323 -3.8018  0.6668
  463MOL0     H62477   6.141   5.555   0.137 -0.7495  0.3767 -0.3234
  463MOL0     H62478   6.212   5.501  -0.017 -0.9168  0.8606  1.1645
  463MOL0     H62479   6.220   5.337   0.246 -0.5661 -2.7847 -1.0514
  463MOL0     H62480   6.287   5.294   0.101 -0.5856 -2.0368  1.5553
  463MOL0     H62481   6.069   5.314  -0.027  0.0766  1.4669 -0.2836
  463MOL0     H62482   6.096   5.178   0.086  0.4489  0.4310  0.8990
  463MOL0     H62483   5.925   5.433   0.130  1.0786 -0.7932  0.1051
  463MOL0     H62484   5.988   5.345   0.274 -1.0973  0.6236  0.7481
  463MOL0     H62485   5.880   5.134   0.182 -2.8483  0.1857  0.2000
  463MOL0     H62486   5.808   5.233   0.064 -2.2388  0.6881  0.8446
  463MOL0     H62487   6.727   5.834   0.286  0.8620 -0.8499  0.0581
  463MOL0     H62488   6.887   5.998   0.376  3.7507  0.1964 -2.5597
  463MOL0     H62489   7.174   6.241   0.437  4.5545 -0.4862 -0.6012
  463MOL0     H62490   7.364   6.329   0.530 -1.2521 -0.7639 -0.5944
  463MOL0     H62491   8.635   5.649   0.672 -1.8809  0.5925  0.3688
  463MOL0     H62492   8.731   5.429   0.664  0.1012 -2.0280  0.1523
  463MOL0     H62493   8.950   5.047   1.036  0.6103 -1.2867  0.3480
  463MOL0     H62494   9.003   4.805   1.013  0.6270  2.6656  0.1283
  463MOL0     H62495   8.964   4.641   0.638 -0.1062 -2.7402 -0.0943
  463MOL0     H62496   9.059   4.716   0.769  0.4632 -0.2961  2.1257
  463MOL0     H62497   8.988   4.429   0.744  0.8065 -0.9925  0.2268
  463MOL0     H62498   9.083   4.488   0.876  2.0069  0.4212  0.1265
  463MOL0     H62499   9.265   4.571   0.725  0.2992 -0.5855  2.3472
  463MOL0     H62500   9.172   4.510   0.584 -0.9462 -4.6837 -0.4139
  463MOL0     H62501   9.309   4.337   0.600 -0.9164  0.1169 -0.6634
  463MOL0     H62502   9.172   4.279   0.702 -2.7802  2.6437 -0.8746
  463MOL0     H62503   9.479   4.271   0.971  0.6213  0.5741 -0.9388
  463MOL0     H62504   8.659   4.750   0.760 -2.9813 -1.3080  4.6212
  463MOL0     H62505   8.605   4.994   0.794  1.9732  0.3122 -1.9147
  464MOL0     O62506   9.705   5.133   2.891 -0.7864 -0.1426  0.8872
  464MOL0     C62507   9.754   5.084   2.791  0.3306  0.9044  0.1463
  464MOL0     O62508   9.688   5.050   2.677  0.1504  0.0999 -0.1271
  464MOL0     C62509   9.555   5.091   2.661  0.2261  0.4878  0.2900
  464MOL0     C62510   9.478   5.005   2.578  0.2471 -0.5068 -0.5444
  464MOL0     C62511   9.341   5.029   2.548 -0.2295  0.2168  0.9917
  464MOL0     C62512   9.278   5.137   2.602  0.7901 -0.4565 -0.3793
  464MOL0     O62513   9.148   5.154   2.562  0.7161 -0.2692 -0.8032
  464MOL0     C62514   9.047   5.220   2.638  0.7160 -0.3070  0.5756
  464MOL0     C62515   9.027   5.141   2.764  0.3201  0.0237 -0.0814
  464MOL0     C62516   8.891   5.171   2.840 -0.8906 -0.2524  0.6949
  464MOL0     C62517   8.774   5.096   2.786  0.2774 -0.4243  0.0095
  464MOL0     C62518   8.658   5.099   2.882 -0.1198 -0.7491  0.8075
  464MOL0     C62519   8.546   5.018   2.818 -1.1547 -0.7096  0.0800
  464MOL0     C62520   8.420   5.002   2.895  0.9428  0.1928  0.3859
  464MOL0     C62521   8.407   4.863   2.981 -0.2734 -0.3707  0.4539
  464MOL0     N62522   8.268   4.845   3.040  0.7471 -0.2504  0.3950
  464MOL0     C62523   8.222   4.935   3.132 -0.4234 -0.0899 -0.2397
  464MOL0     C62524   8.100   4.894   3.174  0.4534  0.6202  0.1399
  464MOL0     C62525   8.031   4.945   3.291 -0.3155 -0.8787  0.3082
  464MOL0     C62526   8.094   4.908   3.425  0.0299 -0.3591  0.4769
  464MOL0     C62527   8.001   4.968   3.537  0.1196 -0.0291  0.1730
  464MOL0     C62528   7.850   4.936   3.536 -0.5277  0.2123 -0.5084
  464MOL0     O62529   7.796   4.956   3.667  0.6393 -0.0610  0.3561
  464MOL0     C62530   7.663   4.935   3.691  0.2557  0.0225 -0.5821
  464MOL0     C62531   7.613   4.982   3.812  0.3363 -0.2554  0.2828
  464MOL0     C62532   7.476   4.988   3.835 -0.4789  0.2357 -0.5042
  464MOL0     C62533   7.435   5.047   3.969  0.5099 -0.0652  0.0295
  464MOL0     C62534   7.382   4.946   3.737 -0.0553 -0.0041 -0.3791
  464MOL0     C62535   7.231   4.964   3.737 -0.4735 -0.3446 -0.8165
  464MOL0     O62536   7.193   5.076   3.806 -0.5382  0.0355  0.1447
  464MOL0     C62537   7.058   5.097   3.814  0.2666  0.1108 -0.4628
  464MOL0     C62538   7.002   5.225   3.765 -0.3489  0.3971  0.4277
  464MOL0     C62539   6.861   5.240   3.763  0.3070  0.2710 -0.4883
  464MOL0     C62540   6.775   5.143   3.802 -0.4109  0.1086 -0.3711
  464MOL0     O62541   6.641   5.168   3.809  0.3981  0.0607 -1.0226
  464MOL0     C62542   6.550   5.066   3.766  0.5222  0.1047 -0.2924
  464MOL0     C62543   6.483   5.004   3.886  0.3351  0.5003 -0.1493
  464MOL0     C62544   6.366   4.909   3.845  0.1607 -0.6114 -0.2143
  464MOL0     C62545   6.240   4.984   3.801 -0.2718  0.3690 -0.4071
  464MOL0     C62546   6.127   4.880   3.772 -0.0440  0.3041  0.2482
  464MOL0     C62547   6.002   4.938   3.705 -0.5896  0.1021 -1.1295
  464MOL0     C62548   5.906   4.823   3.669 -0.1020  0.0511 -0.0858
  464MOL0     C62549   5.775   4.873   3.611 -0.8937  0.3727  0.2055
  464MOL0    Cl62550   5.683   4.737   3.557  0.3094  0.0997  0.4663
  464MOL0     C62551   6.823   5.012   3.845 -0.2722 -0.4580 -0.4054
  464MOL0     C62552   6.964   4.994   3.857 -0.2791 -0.1960  0.1991
  464MOL0     O62553   7.154   4.888   3.675 -1.0651  0.2940  0.1251
  464MOL0     C62554   7.437   4.872   3.632  0.3440  0.2152 -0.9257
  464MOL0     C62555   7.575   4.861   3.620 -0.5552  0.9656 -0.2205
  464MOL0     N62556   8.070   4.787   3.092  0.5952  0.0100  0.5654
  464MOL0     N62557   8.168   4.756   3.011 -0.1024 -0.1802 -0.0464
  464MOL0     C62558   9.351   5.226   2.678  0.4303 -1.8450  0.6418
  464MOL0     C62559   9.487   5.206   2.703 -0.1656  0.0769  0.8214
  464MOL0     C62560   9.894   5.050   2.792 -0.3236 -0.3851 -0.2537
  464MOL0     C62561   9.949   4.983   2.686  0.6709 -0.2108  0.2342
  464MOL0     C62562  10.090   4.958   2.675 -0.4990 -0.5240 -0.8223
  464MOL0     C62563  10.175   4.978   2.790  0.3339  0.4036 -0.4851
  464MOL0     O62564  10.311   4.948   2.800 -0.2326  0.4382 -0.5663
  464MOL0     C62565  10.379   4.936   2.678 -0.4496 -0.4882  0.5097
  464MOL0     C62566  10.513   4.887   2.709 -0.2956 -0.7173  0.0177
  464MOL0     C62567  10.609   4.911   2.595  0.7537 -0.4028  0.3158
  464MOL0     C62568  10.592   4.809   2.490 -0.3035 -0.2400  0.2891
  464MOL0     C62569  10.664   4.688   2.514 -0.0170 -0.8214 -0.1595
  464MOL0     C62570  10.715   4.584   2.552  0.8102 -0.1087  0.1485
  464MOL0     C62571  10.114   5.039   2.901 -0.1083 -0.4192  0.5035
  464MOL0     C62572   9.979   5.078   2.899  0.2448 -0.1928  1.0169
  464MOL0     H62573   9.519   4.921   2.522  0.3525  0.7624 -2.4742
  464MOL0     H62574   9.284   4.965   2.482 -0.9398  1.1278  0.7000
  464MOL0     H62575   9.068   5.326   2.655 -1.0939  0.2434 -0.2437
  464MOL0     H62576   8.960   5.217   2.571 -0.7072  2.1797  2.1521
  464MOL0     H62577   9.025   5.033   2.753  0.5326 -0.1304  1.1866
  464MOL0     H62578   9.119   5.161   2.820  2.1158 -0.4483 -2.7048
  464MOL0     H62579   8.912   5.138   2.942 -1.0431  0.2955  0.9066
  464MOL0     H62580   8.879   5.280   2.834 -0.8354 -0.2754  0.1270
  464MOL0     H62581   8.740   5.141   2.692  1.1896 -0.2443 -0.2386
  464MOL0     H62582   8.796   4.990   2.778 -2.4247 -1.0909  0.3635
  464MOL0     H62583   8.685   5.058   2.980  2.3041 -1.3922 -0.0593
  464MOL0     H62584   8.620   5.201   2.894  2.3622  0.2244  0.9158
  464MOL0     H62585   8.512   5.062   2.724 -0.8446  1.6896  1.0262
  464MOL0     H62586   8.585   4.918   2.797 -1.0430 -0.8838  1.0715
  464MOL0     H62587   8.401   5.094   2.951  0.1553 -0.0060  0.4650
  464MOL0     H62588   8.333   5.014   2.830  2.7386  1.2044 -1.9408
  464MOL0     H62589   8.478   4.869   3.064  1.3419 -1.5317 -0.7894
  464MOL0     H62590   8.434   4.787   2.907  1.6996  0.7356 -0.0406
  464MOL0     H62591   8.291   4.997   3.188 -2.2801  0.8232  1.1586
  464MOL0     H62592   8.031   5.054   3.282  2.1921 -0.8450 -0.0509
  464MOL0     H62593   7.926   4.916   3.294 -0.8059  0.7792  2.3182
  464MOL0     H62594   8.192   4.957   3.414  0.1274 -1.0901 -2.8305
  464MOL0     H62595   8.100   4.800   3.439  2.4703 -0.1279  1.8073
  464MOL0     H62596   8.019   5.075   3.531  1.1346 -0.2684 -1.4012
  464MOL0     H62597   8.041   4.944   3.637 -1.5911  0.4226  1.0040
  464MOL0     H62598   7.841   4.832   3.506  0.3174 -0.1945  0.5672
  464MOL0     H62599   7.800   4.997   3.460  0.0926  1.1101 -0.2159
  464MOL0     H62600   7.686   5.021   3.882  0.3544 -2.1449  1.3964
  464MOL0     H62601   7.524   5.073   4.026  0.8061 -2.0797  0.5686
  464MOL0     H62602   7.378   5.140   3.967 -0.9618 -0.7428  3.4058
  464MOL0     H62603   7.377   4.969   4.019  1.0834  1.1777  2.8315
  464MOL0     H62604   7.076   5.294   3.725  1.1694 -1.7007 -0.5182
  464MOL0     H62605   6.828   5.334   3.722  3.9260  2.3160  0.8044
  464MOL0     H62606   6.471   5.108   3.704  1.1690 -0.0763 -1.2559
  464MOL0     H62607   6.596   4.989   3.703 -0.8163  0.5118 -1.8250
  464MOL0     H62608   6.553   4.942   3.943 -2.4683 -2.8653 -0.0124
  464MOL0     H62609   6.437   5.080   3.950 -0.2816  1.3988 -1.5950
  464MOL0     H62610   6.341   4.836   3.923  0.2253 -3.4620 -2.6806
  464MOL0     H62611   6.410   4.844   3.769  1.8306 -1.2441  1.2460
  464MOL0     H62612   6.211   5.051   3.882  1.9573  1.1716 -0.2227
  464MOL0     H62613   6.269   5.028   3.705 -2.7666 -0.6130 -1.7153
  464MOL0     H62614   6.100   4.824   3.862  1.1247  0.5814  0.7809
  464MOL0     H62615   6.173   4.799   3.714  0.0980  0.3934  0.2359
  464MOL0     H62616   5.955   4.994   3.787 -0.7825 -4.4003  2.2059
  464MOL0     H62617   6.020   4.989   3.610  0.9726  0.1914 -0.8011
  464MOL0     H62618   5.892   4.756   3.754  4.4439 -1.2369 -0.0951
  464MOL0     H62619   5.946   4.769   3.583  0.5097  1.4179 -0.6964
  464MOL0     H62620   5.795   4.952   3.538  2.1835  2.6656  3.1760
  464MOL0     H62621   5.725   4.926   3.693 -0.0767  0.7133  0.4960
  464MOL0     H62622   6.760   4.941   3.898 -0.9056  2.7902  3.7501
  464MOL0     H62623   7.007   4.902   3.897  3.1265  2.2873  2.8802
  464MOL0     H62624   7.373   4.827   3.557  1.2171 -1.7306 -0.5599
  464MOL0     H62625   7.619   4.799   3.542  0.2019 -0.7141  1.4854
  464MOL0     H62626   9.305   5.318   2.712  1.4551 -0.2401 -2.0365
  464MOL0     H62627   9.556   5.269   2.758 -0.3926  0.3654  0.7822
  464MOL0     H62628   9.898   4.974   2.591  0.6895  1.8645 -0.0171
  464MOL0     H62629  10.133   4.930   2.579  0.2765  1.8602 -1.2419
  464MOL0     H62630  10.321   4.874   2.609 -1.6746 -1.2047  2.1104
  464MOL0     H62631  10.383   5.034   2.631  0.6763 -0.1493  1.2578
  464MOL0     H62632  10.515   4.782   2.737 -2.7834 -1.2098 -1.3360
  464MOL0     H62633  10.550   4.938   2.799 -0.2304  2.1693 -1.5120
  464MOL0     H62634  10.712   4.915   2.633  0.4700 -1.3367  1.2216
  464MOL0     H62635  10.590   5.011   2.553 -0.2643 -1.0199 -0.7591
  464MOL0     H62636  10.621   4.860   2.397 -1.3695  2.7525  1.4937
  464MOL0     H62637  10.486   4.792   2.472 -0.9736  2.6206  1.2032
  464MOL0     H62638  10.759   4.491   2.583  0.6788  0.6972  2.9301
  464MOL0     H62639  10.181   5.054   2.984  0.8651 -0.3005 -0.2850
  464MOL0     H62640   9.934   5.121   2.988  0.0832  2.8395 -0.4054
  465MOL0     O62641   3.999   3.256   6.951 -0.5514  0.8734  0.2519
  465MOL0     C62642   4.045   3.161   6.889  1.1565  1.1928  0.8253
  465MOL0     O62643   3.972   3.047   6.863  0.3455 -0.5780  0.3405
  465MOL0     C62644   3.839   3.051   6.893  0.9146 -0.2398  0.0439
  465MOL0     C62645   3.774   3.095   7.012 -0.4752  0.7331 -0.5162
  465MOL0     C62646   3.640   3.093   7.039  0.2915  0.5492  0.1611
  465MOL0     C62647   3.558   3.046   6.937 -0.2471 -0.1296  0.4179
  465MOL0     O62648   3.427   3.042   6.970 -0.5848 -0.6769  0.1498
  465MOL0     C62649   3.322   3.047   6.873  0.0678 -0.0127  0.5201
  465MOL0     C62650   3.192   3.070   6.943 -0.3271  0.1051 -0.2220
  465MOL0     C62651   3.066   3.072   6.853  0.1631  0.7488 -0.0129
  465MOL0     C62652   2.936   3.077   6.930  0.4559  0.3687  0.2263
  465MOL0     C62653   2.815   3.087   6.838  0.1126  0.1009 -0.2961
  465MOL0     C62654   2.702   3.022   6.917  0.2333  0.1565  0.0435
  465MOL0     C62655   2.568   3.042   6.848 -0.6343 -0.3971  0.0763
  465MOL0     C62656   2.555   2.962   6.715  0.5472  0.7052 -0.0831
  465MOL0     N62657   2.571   2.810   6.728 -0.1522  0.0358  0.7258
  465MOL0     C62658   2.469   2.719   6.739  0.5436  0.6910 -0.5554
  465MOL0     C62659   2.524   2.593   6.767  0.4767  0.6531 -0.6357
  465MOL0     C62660   2.470   2.456   6.769  0.0653  0.2968 -0.0148
  465MOL0     C62661   2.388   2.424   6.896  0.0238 -0.0872  0.5719
  465MOL0     C62662   2.284   2.310   6.879  0.1497 -0.5918  0.0778
  465MOL0     C62663   2.209   2.292   7.011 -0.3616  0.0413 -0.2355
  465MOL0     O62664   2.110   2.396   7.021 -0.3278  0.2109 -0.3870
  465MOL0     C62665   1.978   2.355   7.021 -0.1684  0.0805 -0.2066
  465MOL0     C62666   1.921   2.286   6.905 -0.3215  0.3328  0.5790
  465MOL0     C62667   1.786   2.231   6.908 -0.3098  0.3369 -0.0202
  465MOL0     C62668   1.742   2.154   6.786 -0.2535  0.3319 -0.3492
  465MOL0     C62669   1.707   2.259   7.027  0.3012  0.2256  0.3234
  465MOL0     C62670   1.564   2.217   7.050 -0.0517 -0.1059  0.3113
  465MOL0     O62671   1.515   2.121   6.967 -0.3089  0.1829  0.2872
  465MOL0     C62672   1.387   2.079   6.971  0.0174  0.0003 -0.5115
  465MOL0     C62673   1.332   2.042   7.094 -0.0799 -0.3072 -1.0069
  465MOL0     C62674   1.204   1.988   7.096  0.4646 -0.0434  0.4532
  465MOL0     C62675   1.129   1.972   6.971 -0.3819  0.0945 -0.3556
  465MOL0     O62676   1.004   1.908   6.967  0.9214 -0.6136 -0.2550
  465MOL0     C62677   0.927   1.932   6.851  0.1484 -0.8402  1.0161
  465MOL0     C62678   0.784   1.882   6.872 -0.4545  0.2720 -0.3911
  465MOL0     C62679   0.705   1.882   6.738  0.4012 -0.6488 -0.6353
  465MOL0     C62680   0.558   1.841   6.748  0.3457  0.2093 -0.2924
  465MOL0     C62681   0.479   1.883   6.625 -0.2619 -0.4962  1.1931
  465MOL0     C62682   0.328   1.857   6.641 -0.7488 -0.2542  0.1581
  465MOL0     C62683   0.292   1.717   6.693  0.7132  0.2796 -0.1823
  465MOL0     C62684   0.154   1.672   6.638  0.0539 -0.4738 -0.3738
  465MOL0    Cl62685   0.031   1.810   6.662 -0.0391  0.6281 -0.0072
  465MOL0     C62686   1.193   2.008   6.848 -0.4065  1.2465 -0.5536
  465MOL0     C62687   1.318   2.060   6.855  0.3117 -0.3772  0.1455
  465MOL0     O62688   1.501   2.276   7.139 -0.6496  0.0887 -0.2499
  465MOL0     C62689   1.761   2.335   7.132  0.7194  0.4884 -0.4869
  465MOL0     C62690   1.892   2.380   7.133  0.1867  0.5883 -0.2065
  465MOL0     N62691   2.661   2.615   6.771 -0.1583 -0.7444  0.7521
  465MOL0     N62692   2.689   2.741   6.753 -0.4540  0.4342 -0.1493
  465MOL0     C62693   3.616   3.000   6.816  0.0605 -0.3609 -0.3429
  465MOL0     C62694   3.753   2.997   6.797  0.1766  0.7707  0.2118
  465MOL0     C62695   4.191   3.155   6.856  0.6246 -0.8549  0.2465
  465MOL0     C62696   4.273   3.251   6.913 -0.1188  0.0064 -0.0158
  465MOL0     C62697   4.407   3.248   6.882  0.7792  0.5577  0.3525
  465MOL0     C62698   4.472   3.144   6.808  0.2737  0.6785  0.6568
  465MOL0     O62699   4.608   3.132   6.789 -0.0577  0.1907  0.1488
  465MOL0     C62700   4.702   3.195   6.874 -0.0685 -0.2782 -0.0093
  465MOL0     C62701   4.771   3.290   6.776  0.4050 -0.4478  0.3180
  465MOL0     C62702   4.910   3.338   6.819  0.0064 -0.0538  0.3533
  465MOL0     C62703   5.012   3.228   6.851  0.5078 -0.1562  0.1091
  465MOL0     C62704   5.057   3.167   6.728  0.2436  0.3306  0.8025
  465MOL0     C62705   5.092   3.112   6.631 -0.0514  0.9113  0.1221
  465MOL0     C62706   4.388   3.056   6.746  0.3091 -0.3944  0.1846
  465MOL0     C62707   4.248   3.060   6.768  0.1576  0.3391 -0.2649
  465MOL0     H62708   3.840   3.117   7.095  3.2069 -3.6523 -1.8396
  465MOL0     H62709   3.605   3.132   7.134  0.7672 -2.1865  1.5543
  465MOL0     H62710   3.343   3.141   6.821 -0.8087 -1.3589 -2.4645
  465MOL0     H62711   3.319   2.963   6.804  1.3155 -2.2175  2.9940
  465MOL0     H62712   3.185   2.996   7.024  1.2451  0.6541  0.4645
  465MOL0     H62713   3.191   3.161   7.004  0.9564  0.6330 -0.9729
  465MOL0     H62714   3.065   3.154   6.780  0.2297  2.1513  1.5108
  465MOL0     H62715   3.067   2.971   6.811 -1.0713  0.6392  0.2067
  465MOL0     H62716   2.925   2.981   6.982  1.1075 -0.0525 -0.3783
  465MOL0     H62717   2.922   3.148   7.011 -0.8848 -0.6411  0.9184
  465MOL0     H62718   2.790   3.191   6.815  2.2055  0.9529  0.9675
  465MOL0     H62719   2.834   3.025   6.750 -1.4774 -1.4618  0.4092
  465MOL0     H62720   2.725   2.916   6.923  4.2844  0.8429 -0.6497
  465MOL0     H62721   2.702   3.076   7.012  2.1857  0.8328 -0.2887
  465MOL0     H62722   2.489   3.013   6.918 -0.5965  1.2512  0.8429
  465MOL0     H62723   2.547   3.150   6.845 -1.0727  0.0268  6.1256
  465MOL0     H62724   2.639   2.999   6.656  2.0867  0.6968  1.9988
  465MOL0     H62725   2.464   2.973   6.654  1.2856  2.1976 -0.9774
  465MOL0     H62726   2.361   2.730   6.726 -0.1044 -2.5337  1.1210
  465MOL0     H62727   2.403   2.459   6.682 -0.4460  0.7026  0.3826
  465MOL0     H62728   2.550   2.382   6.763  0.0552  0.0675  1.9831
  465MOL0     H62729   2.335   2.518   6.916 -2.8814 -0.9524 -2.1649
  465MOL0     H62730   2.459   2.395   6.975  1.8773 -1.1534 -1.3887
  465MOL0     H62731   2.345   2.221   6.863  2.8703  1.0085  0.7638
  465MOL0     H62732   2.212   2.328   6.799 -1.3786  0.1456  1.5572
  465MOL0     H62733   2.279   2.295   7.095  0.0964 -0.4174 -0.5870
  465MOL0     H62734   2.160   2.196   7.027  0.4491 -0.0601  1.8894
  465MOL0     H62735   1.989   2.255   6.826 -0.4429 -0.7231  0.8665
  465MOL0     H62736   1.828   2.149   6.719  0.1475 -2.3387  0.2881
  465MOL0     H62737   1.705   2.057   6.820  1.9492 -0.5413 -0.2491
  465MOL0     H62738   1.659   2.206   6.737  0.2852  0.3981 -1.2100
  465MOL0     H62739   1.387   2.053   7.187 -0.4811  0.0074 -0.8028
  465MOL0     H62740   1.170   1.963   7.196  2.4693  0.7868  1.3938
  465MOL0     H62741   0.928   2.041   6.843  2.1996 -0.9430 -1.8879
  465MOL0     H62742   0.965   1.881   6.762 -0.2405 -2.6780  1.8625
  465MOL0     H62743   0.788   1.782   6.917  0.0329  0.1826 -0.6237
  465MOL0     H62744   0.735   1.953   6.940 -1.7058 -1.0327  0.1283
  465MOL0     H62745   0.753   1.821   6.662  0.3348  1.8778 -2.8632
  465MOL0     H62746   0.708   1.987   6.706  0.6400  0.3061  2.1991
  465MOL0     H62747   0.555   1.733   6.762 -0.5651  0.3099  0.3771
  465MOL0     H62748   0.518   1.892   6.836 -1.3562  0.0145 -0.9260
  465MOL0     H62749   0.519   1.831   6.537 -3.4319  1.1215 -1.4295
  465MOL0     H62750   0.480   1.988   6.597  0.4117 -0.9109 -0.4161
  465MOL0     H62751   0.283   1.921   6.718 -0.1332 -2.9575  2.9684
  465MOL0     H62752   0.279   1.888   6.548  0.3389  1.2283  0.0493
  465MOL0     H62753   0.300   1.722   6.802  3.1733 -1.9831 -0.1797
  465MOL0     H62754   0.363   1.643   6.658 -0.1535  0.2379 -1.9598
  465MOL0     H62755   0.119   1.584   6.693 -1.3978 -0.6894 -1.5765
  465MOL0     H62756   0.151   1.638   6.533 -2.1104 -0.8838 -0.2218
  465MOL0     H62757   1.160   1.986   6.748 -0.2719 -2.8968  0.1439
  465MOL0     H62758   1.362   2.094   6.762  0.6873  0.8347  0.7505
  465MOL0     H62759   1.695   2.367   7.212 -1.9500 -1.0567 -1.9480
  465MOL0     H62760   1.940   2.406   7.227  1.9395  1.5045 -1.2932
  465MOL0     H62761   3.556   2.952   6.740 -0.3956 -0.0310 -0.1981
  465MOL0     H62762   3.797   2.955   6.708  1.8979  0.8256  0.9976
  465MOL0     H62763   4.237   3.323   6.986 -1.4734 -1.3312  0.6995
  465MOL0     H62764   4.464   3.327   6.931  1.1013 -0.0638  0.9990
  465MOL0     H62765   4.661   3.243   6.963  0.2876 -1.1524  0.6463
  465MOL0     H62766   4.776   3.120   6.904  0.0793 -1.4427 -2.9546
  465MOL0     H62767   4.713   3.382   6.774  2.9878  1.2768 -0.3417
  465MOL0     H62768   4.783   3.238   6.680 -2.2403 -1.9789  0.7189
  465MOL0     H62769   4.888   3.398   6.908 -0.3067  0.0950  0.1789
  465MOL0     H62770   4.962   3.403   6.748  4.0887  0.8641  3.8004
  465MOL0     H62771   4.973   3.160   6.927  1.9153 -0.2655  0.7530
  465MOL0     H62772   5.101   3.265   6.901  0.4505 -2.8956  2.5227
  465MOL0     H62773   5.122   3.080   6.533  1.1173  2.4284 -0.0677
  465MOL0     H62774   4.427   2.966   6.699  0.3612 -0.9651  1.2863
  465MOL0     H62775   4.184   2.985   6.724  0.0701  0.7753 -0.9090
  466MOL0     O62776   1.548   2.602   8.255 -0.4379  0.0984  0.1797
  466MOL0     C62777   1.597   2.525   8.168 -0.7231  0.5162  0.2774
  466MOL0     O62778   1.542   2.408   8.125  0.4104 -0.3053  0.4142
  466MOL0     C62779   1.429   2.369   8.189  0.2337  0.3743 -0.6621
  466MOL0     C62780   1.312   2.344   8.109 -1.0236  0.4748 -0.1624
  466MOL0     C62781   1.189   2.315   8.166  0.5620  0.3215  0.0542
  466MOL0     C62782   1.175   2.275   8.296 -0.0833 -0.7766 -0.3784
  466MOL0     O62783   1.061   2.246   8.358  0.1222 -0.4445  0.6656
  466MOL0     C62784   1.058   2.233   8.494  0.0518 -0.3331 -0.7693
  466MOL0     C62785   0.916   2.205   8.530  0.0200  0.0935  0.9740
  466MOL0     C62786   0.888   2.182   8.673  0.8031 -0.0054 -0.3795
  466MOL0     C62787   0.743   2.189   8.705  0.3310  0.6911 -0.1648
  466MOL0     C62788   0.726   2.132   8.849 -0.0378 -0.3487 -0.5626
  466MOL0     C62789   0.576   2.138   8.911  0.1570 -0.7254  0.2471
  466MOL0     C62790   0.573   2.093   9.060  0.0141  0.5125 -0.2923
  466MOL0     C62791   0.436   2.086   9.119  0.0500 -0.3108 -0.2577
  466MOL0     N62792   0.418   2.055   9.257 -0.4776  0.1294 -0.2890
  466MOL0     C62793   0.505   1.987   9.337  0.4597  0.2642 -0.1299
  466MOL0     C62794   0.450   1.987   9.471  0.4014  1.0980 -0.2635
  466MOL0     C62795   0.511   1.901   9.583 -0.1780  0.5407 -0.5350
  466MOL0     C62796   0.550   1.967   9.721  0.7893 -0.2517  0.5111
  466MOL0     C62797   0.437   2.033   9.801  0.2102 -1.4756  0.5518
  466MOL0     C62798   0.335   1.931   9.855 -0.0941 -0.1288 -0.5989
  466MOL0     O62799   0.220   1.990   9.925 -0.8067  0.2244 -0.2514
  466MOL0     C62800   0.106   2.004   9.851 -0.3131 -0.0595  0.1168
  466MOL0     C62801   0.081   2.005   9.709  0.1607  0.0796 -0.0666
  466MOL0     C62802  -0.054   2.010   9.651  0.4717 -1.3082 -0.5668
  466MOL0     C62803  -0.066   1.995   9.502 -0.0609  0.2506 -0.5996
  466MOL0     C62804  -0.167   2.034   9.734 -0.1854  0.6655 -0.1164
  466MOL0     C62805  -0.313   2.042   9.695 -0.3345  0.8773 -0.5142
  466MOL0     O62806  -0.393   2.051   9.806  0.6449  0.1432  0.1021
  466MOL0     C62807  -0.527   2.076   9.793 -0.6548  0.3767  0.2217
  466MOL0     C62808  -0.589   2.184   9.722  0.2545  0.6605 -0.2500
  466MOL0     C62809  -0.726   2.197   9.720  0.3314 -0.2480 -0.0126
  466MOL0     C62810  -0.810   2.107   9.782  0.3937 -0.3281  0.1528
  466MOL0     O62811  -0.941   2.129   9.786 -0.2379  0.2434  0.7262
  466MOL0     C62812  -1.008   2.226   9.707  0.8535  0.0254 -0.6150
  466MOL0     C62813  -1.028   2.170   9.568  0.0289  0.1069 -0.1557
  466MOL0     C62814  -1.140   2.240   9.496  0.1121 -0.4712  0.3850
  466MOL0     C62815  -1.158   2.390   9.525 -0.2924  0.3676 -0.0744
  466MOL0     C62816  -1.248   2.460   9.415  0.4189 -0.0302 -0.2823
  466MOL0     C62817  -1.268   2.606   9.454 -0.1281  0.0672 -0.2846
  466MOL0     C62818  -1.353   2.678   9.360 -0.2026  0.5961  0.5390
  466MOL0     C62819  -1.336   2.828   9.348 -0.3096  0.0710  0.1382
  466MOL0    Cl62820  -1.484   2.904   9.298  0.4221 -0.0396 -0.2350
  466MOL0     C62821  -0.748   2.004   9.851  0.5200 -0.0174 -0.1413
  466MOL0     C62822  -0.608   1.992   9.865  0.4492 -0.8360  0.1299
  466MOL0     O62823  -0.349   2.021   9.585 -0.0010  0.0421  0.0736
  466MOL0     C62824  -0.136   2.054   9.878  0.1744  1.1540  0.2974
  466MOL0     C62825  -0.010   2.031   9.931 -0.0073  0.6982 -0.4590
  466MOL0     N62826   0.337   2.065   9.462 -0.7341 -0.3491  0.4698
  466MOL0     N62827   0.317   2.101   9.338  0.2050 -0.0698 -0.1302
  466MOL0     C62828   1.294   2.301   8.385 -0.0857  0.2312  0.7994
  466MOL0     C62829   1.416   2.353   8.330 -0.7528 -0.4313 -0.4126
  466MOL0     C62830   1.719   2.571   8.091 -0.2001  0.4827 -0.9719
  466MOL0     C62831   1.772   2.498   7.992 -0.5657  0.5115 -0.0618
  466MOL0     C62832   1.890   2.538   7.928 -0.8082  0.3508  0.0986
  466MOL0     C62833   1.969   2.644   7.977 -0.5774  0.2421 -0.2375
  466MOL0     O62834   2.096   2.680   7.939 -0.7945 -0.2366  0.1494
  466MOL0     C62835   2.187   2.604   7.873  0.0407  0.1876  0.3738
  466MOL0     C62836   2.312   2.656   7.919 -0.6862 -0.4378  0.9955
  466MOL0     C62837   2.447   2.609   7.859 -0.3294 -0.3266 -0.0648
  466MOL0     C62838   2.455   2.621   7.712 -0.4364 -0.8372 -0.2078
  466MOL0     C62839   2.598   2.626   7.676 -0.6186  0.3850  0.3003
  466MOL0     C62840   2.720   2.639   7.651  0.6019  0.2653 -0.1809
  466MOL0     C62841   1.906   2.728   8.065 -0.0781  1.2078  0.4800
  466MOL0     C62842   1.787   2.686   8.128  0.8106 -0.1268 -0.2526
  466MOL0     H62843   1.303   2.349   8.001 -0.1363  1.9244 -0.2048
  466MOL0     H62844   1.107   2.306   8.095  0.9160 -1.6927 -0.1442
  466MOL0     H62845   1.113   2.141   8.512 -1.7505 -1.5361 -1.1562
  466MOL0     H62846   1.093   2.323   8.546  1.9988 -1.1942 -0.5095
  466MOL0     H62847   0.856   2.292   8.503 -0.5041 -0.6346 -0.3403
  466MOL0     H62848   0.891   2.112   8.478  2.9741 -0.1330 -0.2854
  466MOL0     H62849   0.928   2.085   8.702  0.1793 -1.4487 -3.8849
  466MOL0     H62850   0.941   2.254   8.736 -0.9519  0.0810  1.1046
  466MOL0     H62851   0.711   2.293   8.693  2.8360  1.6086  0.5987
  466MOL0     H62852   0.685   2.130   8.633 -0.7690  0.4796  0.8477
  466MOL0     H62853   0.759   2.028   8.846  0.1983 -0.4956  3.1612
  466MOL0     H62854   0.793   2.184   8.918 -0.7249  2.2491 -1.7033
  466MOL0     H62855   0.538   2.239   8.896  1.2736 -0.4444 -0.7827
  466MOL0     H62856   0.511   2.067   8.859 -0.1104 -0.3403  0.0551
  466MOL0     H62857   0.611   1.991   9.059 -1.5491 -0.3389  3.9354
  466MOL0     H62858   0.634   2.159   9.123 -1.9233  1.7433  0.3815
  466MOL0     H62859   0.384   2.002   9.072  1.8741 -1.2704 -0.6372
  466MOL0     H62860   0.380   2.176   9.093 -0.1437  0.2355  1.8750
  466MOL0     H62861   0.593   1.930   9.306 -0.7743 -0.9830 -1.4898
  466MOL0     H62862   0.441   1.820   9.608  0.1056  0.5692  0.3705
  466MOL0     H62863   0.600   1.863   9.531  0.5509  1.9641 -0.3604
  466MOL0     H62864   0.619   2.048   9.692  1.3122  0.4001  3.2373
  466MOL0     H62865   0.610   1.899   9.782 -0.4515 -1.2800  0.6113
  466MOL0     H62866   0.379   2.102   9.739  2.4692  1.1100  1.1306
  466MOL0     H62867   0.487   2.091   9.878 -0.6437  1.4920 -0.9596
  466MOL0     H62868   0.387   1.864   9.925 -0.6327  1.6042  1.5671
  466MOL0     H62869   0.301   1.862   9.777  0.1065 -0.5158 -0.3473
  466MOL0     H62870   0.162   1.994   9.638  0.8470  0.3046  0.6776
  466MOL0     H62871  -0.131   2.071   9.458  0.7513  1.4498  0.2466
  466MOL0     H62872   0.030   2.002   9.450  0.6573 -1.2849  0.4445
  466MOL0     H62873  -0.116   1.899   9.482  1.4453 -1.3007  2.4635
  466MOL0     H62874  -0.528   2.261   9.676 -0.9669  1.0184 -1.3190
  466MOL0     H62875  -0.760   2.287   9.669 -1.8485 -0.1499  1.4975
  466MOL0     H62876  -1.109   2.237   9.746  1.1024  0.1857 -0.0074
  466MOL0     H62877  -0.959   2.323   9.697 -1.1315  0.9005 -2.9224
  466MOL0     H62878  -0.933   2.174   9.514  0.1510 -1.0093 -0.0368
  466MOL0     H62879  -1.056   2.065   9.576  0.2171  0.0810  0.1800
  466MOL0     H62880  -1.231   2.182   9.512 -0.0182 -0.4902 -0.3762
  466MOL0     H62881  -1.124   2.227   9.388 -1.3090  0.8382 -0.0218
  466MOL0     H62882  -1.203   2.409   9.623 -2.8868  0.8645 -1.2798
  466MOL0     H62883  -1.064   2.446   9.525 -1.9902  3.4880  0.5658
  466MOL0     H62884  -1.338   2.399   9.410  0.5651 -0.5560  2.2409
  466MOL0     H62885  -1.202   2.472   9.316 -1.1543 -1.5322 -1.2474
  466MOL0     H62886  -1.319   2.612   9.551  1.0893 -2.5764  0.6157
  466MOL0     H62887  -1.172   2.658   9.455  1.0339 -1.9004  2.3539
  466MOL0     H62888  -1.453   2.655   9.397  0.0736 -0.6927  0.5188
  466MOL0     H62889  -1.340   2.640   9.258 -1.3457  0.5116  0.4092
  466MOL0     H62890  -1.269   2.842   9.263 -2.5292 -3.1853 -2.3890
  466MOL0     H62891  -1.297   2.878   9.437 -1.1185  2.2650 -0.6915
  466MOL0     H62892  -0.823   1.941   9.899  0.0605  0.8943  0.3711
  466MOL0     H62893  -0.573   1.900   9.911  2.0554  0.0860  0.8176
  466MOL0     H62894  -0.209   2.082   9.954 -0.0770 -0.4852  0.6907
  466MOL0     H62895   0.011   2.021  10.037  1.9447  0.0808 -0.8527
  466MOL0     H62896   1.298   2.284   8.492 -1.3013 -4.2882  0.3383
  466MOL0     H62897   1.503   2.375   8.391  1.5768 -2.2792 -2.8689
  466MOL0     H62898   1.728   2.404   7.960  1.5415 -0.5242 -0.1469
  466MOL0     H62899   1.935   2.478   7.849 -0.1209  1.3949 -0.3249
  466MOL0     H62900   2.181   2.498   7.901 -1.1249 -0.5920 -2.4151
  466MOL0     H62901   2.179   2.616   7.764  0.7483  2.0650  0.4954
  466MOL0     H62902   2.315   2.640   8.027  0.6576 -0.1435  1.0190
  466MOL0     H62903   2.311   2.764   7.903  0.0343 -0.2460  2.1415
  466MOL0     H62904   2.485   2.510   7.886  1.0812  0.3262  0.3839
  466MOL0     H62905   2.513   2.678   7.913  0.0983 -1.4341  0.8738
  466MOL0     H62906   2.403   2.710   7.677 -0.7373 -1.5463 -1.6336
  466MOL0     H62907   2.397   2.541   7.664 -3.3393  2.0622 -1.9229
  466MOL0     H62908   2.824   2.651   7.627  0.8742  2.0267  1.6285
  466MOL0     H62909   1.964   2.817   8.089 -2.6963  2.5319  2.4337
  466MOL0     H62910   1.754   2.760   8.200 -4.3437 -0.5898 -1.7725
  467MOL0     O62911   5.548   6.999   5.363 -0.0360 -0.1426 -0.3121
  467MOL0     C62912   5.638   7.084   5.384  0.5649 -0.0557  0.3057
  467MOL0     O62913   5.621   7.208   5.421 -0.8741  0.4042  0.2480
  467MOL0     C62914   5.502   7.244   5.470  0.2733 -0.5108  0.6668
  467MOL0     C62915   5.433   7.352   5.404  0.2697  0.2453 -0.0364
  467MOL0     C62916   5.312   7.405   5.461  0.2281 -0.5174  0.3650
  467MOL0     C62917   5.267   7.359   5.579  0.0429 -0.1961 -0.2948
  467MOL0     O62918   5.150   7.397   5.643 -0.3137  0.0245 -0.3881
  467MOL0     C62919   5.075   7.505   5.588 -0.1429 -0.0492 -0.0379
  467MOL0     C62920   5.135   7.644   5.618  0.8972 -0.2183 -0.7774
  467MOL0     C62921   5.082   7.704   5.750 -0.6242  0.1389  0.2317
  467MOL0     C62922   4.932   7.752   5.727  0.0652 -0.7975  0.6107
  467MOL0     C62923   4.898   7.860   5.827  0.0286 -0.4849 -0.3999
  467MOL0     C62924   4.751   7.878   5.865 -0.2779  0.2923  0.8000
  467MOL0     C62925   4.668   7.948   5.755  0.4652  0.3466 -0.4517
  467MOL0     C62926   4.520   7.912   5.774 -0.4770  0.2930 -0.0612
  467MOL0     N62927   4.486   7.767   5.771  0.5006  0.4517  1.0141
  467MOL0     C62928   4.390   7.712   5.855  0.0412  0.2353  0.5031
  467MOL0     C62929   4.408   7.577   5.845  0.2013 -0.3963 -0.1491
  467MOL0     C62930   4.296   7.489   5.914 -0.2832 -0.2105 -0.0062
  467MOL0     C62931   4.176   7.489   5.826 -0.5477  0.0771  0.3412
  467MOL0     C62932   4.063   7.417   5.902 -0.3365 -0.0318 -0.3245
  467MOL0     C62933   3.934   7.414   5.819 -0.2764 -0.1094 -0.6605
  467MOL0     O62934   3.870   7.543   5.833  0.1890  0.3525 -0.7497
  467MOL0     C62935   3.748   7.558   5.767  0.3428 -0.7233 -0.6979
  467MOL0     C62936   3.696   7.471   5.674 -0.3865  0.4710  0.3503
  467MOL0     C62937   3.568   7.490   5.621 -0.6154 -0.4882  0.5705
  467MOL0     C62938   3.529   7.406   5.501 -0.0751 -0.1702  0.3054
  467MOL0     C62939   3.495   7.603   5.658  0.0173  0.1382  0.3883
  467MOL0     C62940   3.356   7.638   5.610 -0.6451  0.7577  0.3774
  467MOL0     O62941   3.301   7.753   5.659 -0.8775 -0.0295  0.4695
  467MOL0     C62942   3.174   7.789   5.631  0.2892  0.1833  0.2625
  467MOL0     C62943   3.150   7.924   5.667 -0.1779  0.4333  0.1109
  467MOL0     C62944   3.026   7.985   5.637  0.1877  0.8497  0.0415
  467MOL0     C62945   2.916   7.920   5.578 -0.0417  0.3154  0.0053
  467MOL0     O62946   2.805   7.990   5.538 -0.2991 -0.4651  0.1471
  467MOL0     C62947   2.678   7.929   5.556  0.1437  0.4119  0.0672
  467MOL0     C62948   2.640   7.866   5.420  0.1313 -0.1200  0.1003
  467MOL0     C62949   2.517   7.769   5.448  0.6847 -0.4743  0.2220
  467MOL0     C62950   2.442   7.748   5.319 -0.2305 -0.0812 -0.3045
  467MOL0     C62951   2.328   7.643   5.322 -1.8305 -0.2268 -0.4241
  467MOL0     C62952   2.251   7.629   5.188  0.1308  0.1370 -1.2897
  467MOL0     C62953   2.159   7.750   5.148  0.3972  0.1655  0.0152
  467MOL0     C62954   2.068   7.719   5.027  0.4983  0.5048 -0.3676
  467MOL0    Cl62955   1.955   7.582   5.071 -0.1571  0.0350 -0.4995
  467MOL0     C62956   2.932   7.779   5.563  0.0661 -0.2153 -0.4567
  467MOL0     C62957   3.065   7.719   5.580 -0.0922  0.4042  0.1614
  467MOL0     O62958   3.301   7.563   5.533 -0.0055 -0.5996  0.6029
  467MOL0     C62959   3.554   7.700   5.745  0.7309 -0.2103 -1.0397
  467MOL0     C62960   3.678   7.668   5.810  0.5920 -0.3525  0.3646
  467MOL0     N62961   4.502   7.555   5.754 -0.3652 -0.1911  1.4927
  467MOL0     N62962   4.543   7.671   5.699 -0.2061 -0.2116  0.0225
  467MOL0     C62963   5.341   7.261   5.648  0.1994  0.1851 -0.2081
  467MOL0     C62964   5.455   7.198   5.589 -0.8280  0.9769  0.4412
  467MOL0     C62965   5.779   7.039   5.340 -0.5329 -0.1381 -0.6405
  467MOL0     C62966   5.897   7.110   5.373  0.0826 -0.8767 -0.7165
  467MOL0     C62967   6.021   7.072   5.322  0.3453  0.5165  0.2974
  467MOL0     C62968   6.035   6.956   5.250  0.8585  0.0856  0.0899
  467MOL0     O62969   6.153   6.917   5.188  0.0076 -0.1105  0.2508
  467MOL0     C62970   6.284   6.964   5.228  0.9747  0.3326 -0.4943
  467MOL0     C62971   6.314   6.934   5.378  0.1660 -0.3022  0.1195
  467MOL0     C62972   6.348   6.786   5.403  0.5581 -0.1979 -0.5324
  467MOL0     C62973   6.286   6.742   5.535 -1.3543  0.2446 -0.3255
  467MOL0     C62974   6.344   6.798   5.657 -0.2157 -0.1748 -0.8303
  467MOL0     C62975   6.426   6.837   5.744  0.2267 -0.7001  0.0767
  467MOL0     C62976   5.921   6.885   5.213  0.1691  0.6281 -0.3260
  467MOL0     C62977   5.796   6.913   5.266  0.0694 -0.1910 -0.2736
  467MOL0     H62978   5.469   7.383   5.307 -2.4763 -1.1181 -1.6062
  467MOL0     H62979   5.250   7.483   5.417 -2.8274 -1.9979  1.7238
  467MOL0     H62980   5.058   7.487   5.482 -2.8688  3.9141 -0.4964
  467MOL0     H62981   4.978   7.519   5.637  0.4439  0.0476  1.1444
  467MOL0     H62982   5.244   7.645   5.621  1.0479  0.1179 -3.4197
  467MOL0     H62983   5.115   7.719   5.540  0.8435  3.5753  2.5717
  467MOL0     H62984   5.109   7.639   5.834  1.5808  1.4591  0.6327
  467MOL0     H62985   5.144   7.793   5.765  3.5890 -2.6601  1.1449
  467MOL0     H62986   4.919   7.810   5.636 -1.3317  0.3849  1.5245
  467MOL0     H62987   4.857   7.676   5.751 -2.5431  1.2922 -0.4811
  467MOL0     H62988   4.954   7.837   5.918 -0.9148 -0.7675  0.1267
  467MOL0     H62989   4.935   7.953   5.784 -0.2610  0.8311  2.0304
  467MOL0     H62990   4.711   7.779   5.885  0.0760 -0.1803 -0.6987
  467MOL0     H62991   4.741   7.939   5.956 -1.8968 -1.2350  1.6965
  467MOL0     H62992   4.678   8.055   5.779 -0.4399  0.3332  0.0425
  467MOL0     H62993   4.714   7.921   5.660  0.7830 -0.5499 -0.0582
  467MOL0     H62994   4.468   7.955   5.688 -0.3160 -0.0261 -0.3201
  467MOL0     H62995   4.488   7.961   5.866  1.7590 -2.2359  2.2786
  467MOL0     H62996   4.319   7.757   5.923  1.7620  1.4748  1.5554
  467MOL0     H62997   4.329   7.387   5.932  1.4024 -0.1430 -2.2873
  467MOL0     H62998   4.265   7.542   6.005  0.6607  2.3601 -1.0653
  467MOL0     H62999   4.201   7.436   5.733  0.5773 -1.4477  1.4558
  467MOL0     H63000   4.142   7.590   5.801  1.3436  0.3177 -1.5226
  467MOL0     H63001   4.039   7.470   5.994 -1.7698 -0.9996 -0.0889
  467MOL0     H63002   4.084   7.311   5.924 -0.9168 -0.3549 -1.2443
  467MOL0     H63003   3.866   7.335   5.853 -2.3244  1.6019 -0.5506
  467MOL0     H63004   3.971   7.392   5.718  3.2617  3.5683 -0.4193
  467MOL0     H63005   3.750   7.381   5.648  1.0346  1.0686  1.1238
  467MOL0     H63006   3.512   7.476   5.418 -1.7198  0.1535  0.8757
  467MOL0     H63007   3.607   7.335   5.472 -0.9541 -0.9854 -0.1065
  467MOL0     H63008   3.433   7.358   5.524 -1.4843  1.5635 -1.5130
  467MOL0     H63009   3.229   7.972   5.724  1.7918 -2.2135 -0.2180
  467MOL0     H63010   3.016   8.091   5.660  3.0094  1.4167 -0.9523
  467MOL0     H63011   2.677   7.847   5.629  2.0277 -0.1277 -0.4601
  467MOL0     H63012   2.603   8.005   5.582 -1.3708 -0.7940 -0.6096
  467MOL0     H63013   2.603   7.943   5.351  0.0437 -0.3188 -0.0737
  467MOL0     H63014   2.722   7.809   5.376 -1.8395 -2.0476 -1.2435
  467MOL0     H63015   2.450   7.814   5.522  2.0472 -0.3122  1.4031
  467MOL0     H63016   2.558   7.674   5.484  1.2477 -0.8248 -1.2720
  467MOL0     H63017   2.397   7.841   5.284  0.3230  0.3452  0.0987
  467MOL0     H63018   2.521   7.726   5.247  1.8666  2.6691  0.9748
  467MOL0     H63019   2.256   7.666   5.401 -0.9564 -1.7627  0.8942
  467MOL0     H63020   2.361   7.542   5.348 -0.1438  0.5076  0.4520
  467MOL0     H63021   2.308   7.590   5.103 -1.1599 -0.5434 -1.8762
  467MOL0     H63022   2.184   7.544   5.204  1.2146 -0.1211  3.3455
  467MOL0     H63023   2.217   7.837   5.114 -2.3432  2.7232  1.3846
  467MOL0     H63024   2.103   7.789   5.234  0.6337  0.0480  0.2234
  467MOL0     H63025   2.126   7.695   4.937 -0.1101  1.1298 -0.9437
  467MOL0     H63026   2.003   7.804   5.005  1.0058  1.3963  1.4188
  467MOL0     H63027   2.839   7.726   5.547 -1.0008  0.8833  1.7337
  467MOL0     H63028   3.077   7.611   5.575  2.6074  0.5534  1.4848
  467MOL0     H63029   3.503   7.791   5.772  0.3134 -0.3874 -1.2202
  467MOL0     H63030   3.717   7.739   5.883  0.5039  1.8379 -1.6166
  467MOL0     H63031   5.304   7.221   5.742 -0.6012 -1.5800 -1.2426
  467MOL0     H63032   5.520   7.121   5.630  0.9520  1.3367 -1.4982
  467MOL0     H63033   5.890   7.203   5.428 -1.2168 -2.0790  1.2980
  467MOL0     H63034   6.112   7.131   5.326  0.4007  0.3723  1.4784
  467MOL0     H63035   6.365   6.923   5.167  1.5398 -0.6569  0.8555
  467MOL0     H63036   6.287   7.072   5.213  1.9441  0.5155  0.8004
  467MOL0     H63037   6.229   6.968   5.438 -0.0739 -0.1978 -0.2713
  467MOL0     H63038   6.401   6.993   5.406  0.2311 -1.0654  1.6319
  467MOL0     H63039   6.456   6.777   5.398  0.7796  1.9682 -0.6676
  467MOL0     H63040   6.308   6.719   5.326 -1.2131 -1.1822  1.1450
  467MOL0     H63041   6.299   6.633   5.541 -0.7417  0.3907  3.8214
  467MOL0     H63042   6.178   6.754   5.537 -1.0289  4.5183  1.2987
  467MOL0     H63043   6.499   6.869   5.816 -1.6400  0.3150  1.6246
  467MOL0     H63044   5.935   6.791   5.160 -1.3664 -0.0987  0.5031
  467MOL0     H63045   5.710   6.850   5.244  0.8346 -1.9583  1.4446
  468MOL0     O63046   8.996   4.214  10.814 -0.2188  0.2069 -0.3984
  468MOL0     C63047   9.034   4.115  10.753 -0.0095 -0.6289 -0.0395
  468MOL0     O63048   8.959   4.006  10.721  0.1654 -0.3291 -1.4599
  468MOL0     C63049   8.825   4.018  10.720 -0.0254 -0.1718 -0.6627
  468MOL0     C63050   8.738   4.134  10.705  0.5385  0.6484 -0.2212
  468MOL0     C63051   8.600   4.117  10.702  0.1056  0.0212 -0.2315
  468MOL0     C63052   8.534   3.990  10.701  0.5503 -0.0730 -0.0428
  468MOL0     O63053   8.393   3.985  10.693  0.4532  0.3283 -0.0394
  468MOL0     C63054   8.340   3.853  10.678 -0.3028 -0.0823  0.4771
  468MOL0     C63055   8.205   3.854  10.613  1.0590 -0.4854 -1.3008
  468MOL0     C63056   8.118   3.735  10.631  0.2716  0.0094 -0.6302
  468MOL0     C63057   7.961   3.764  10.651 -0.4731  0.3514  0.1367
  468MOL0     C63058   7.878   3.637  10.668  0.0839  0.5272 -0.3797
  468MOL0     C63059   7.875   3.545  10.539  0.5584  0.5068 -0.9781
  468MOL0     C63060   7.748   3.453  10.542 -0.2108  0.1115 -0.6201
  468MOL0     C63061   7.748   3.338  10.437  0.1676  0.3312  0.0957
  468MOL0     N63062   7.611   3.278  10.416 -0.4068  0.2041 -0.0205
  468MOL0     C63063   7.555   3.168  10.472 -0.8067 -0.8283 -0.6023
  468MOL0     C63064   7.445   3.145  10.397 -1.1371  0.8246 -0.1294
  468MOL0     C63065   7.355   3.030  10.408 -0.0090 -0.4022  0.4163
  468MOL0     C63066   7.270   3.067  10.532 -0.4133  0.4030  0.0328
  468MOL0     C63067   7.149   2.972  10.545 -0.8493 -0.1215 -0.2222
  468MOL0     C63068   7.046   3.009  10.652  0.0833 -0.5397 -0.0260
  468MOL0     O63069   6.920   2.946  10.610 -0.6979  0.3469  0.2540
  468MOL0     C63070   6.798   2.992  10.648 -0.2274 -1.6041 -1.3642
  468MOL0     C63071   6.789   3.076  10.760  0.2370 -0.2793 -0.6068
  468MOL0     C63072   6.664   3.140  10.804 -0.0348 -0.3332  0.5694
  468MOL0     C63073   6.680   3.229  10.932 -0.1570  0.0419  1.0445
  468MOL0     C63074   6.548   3.101  10.735  0.5284 -0.2741 -0.2176
  468MOL0     C63075   6.410   3.145  10.780 -0.2762  0.2900  1.3233
  468MOL0     O63076   6.313   3.059  10.748 -0.4387 -0.6550 -0.1862
  468MOL0     C63077   6.196   3.049  10.814  0.4395 -0.2070  0.2566
  468MOL0     C63078   6.102   2.976  10.739 -0.2016 -0.2274  0.1388
  468MOL0     C63079   5.983   2.959  10.797  0.4922  0.2303 -0.0206
  468MOL0     C63080   5.952   3.004  10.930  0.6181 -0.2892 -0.4708
  468MOL0     O63081   5.840   2.979  11.003 -0.6716 -0.5439  0.1827
  468MOL0     C63082   5.726   2.925  10.930 -0.1259 -0.7707 -0.2310
  468MOL0     C63083   5.604   2.930  11.023  0.4348 -0.1158  0.0594
  468MOL0     C63084   5.598   3.055  11.119  0.2570  0.5423  0.0977
  468MOL0     C63085   5.501   3.051  11.242 -0.6253 -0.2943 -0.1109
  468MOL0     C63086   5.356   3.003  11.211 -0.5700 -0.2714  0.4153
  468MOL0     C63087   5.250   2.999  11.330  0.0312 -0.4243 -0.1367
  468MOL0     C63088   5.114   2.947  11.280 -0.4893  0.0043  0.0712
  468MOL0     C63089   5.028   2.962  11.404  0.6478  0.4543  0.2488
  468MOL0    Cl63090   4.857   2.895  11.377 -0.0357  0.4992 -0.0480
  468MOL0     C63091   6.057   3.064  11.004  0.9749  0.3507  0.0969
  468MOL0     C63092   6.178   3.089  10.945  0.4386 -0.3694  0.5013
  468MOL0     O63093   6.396   3.262  10.804  0.1334  0.2443  0.0475
  468MOL0     C63094   6.564   3.019  10.623  0.6978 -0.5141 -0.4841
  468MOL0     C63095   6.688   2.971  10.567 -0.9740 -0.9837  0.0342
  468MOL0     N63096   7.442   3.233  10.293  0.3414 -0.0538  0.5632
  468MOL0     N63097   7.541   3.311  10.305 -0.0366  0.2621 -0.2557
  468MOL0     C63098   8.621   3.883  10.691 -0.1365  0.4144 -0.5288
  468MOL0     C63099   8.761   3.893  10.710 -0.2877 -0.6102 -0.2397
  468MOL0     C63100   9.177   4.104  10.715  0.7901 -0.7048 -0.2570
  468MOL0     C63101   9.220   4.002  10.637  0.1753 -0.1507  0.6944
  468MOL0     C63102   9.356   3.979  10.607 -0.2441  0.0754 -1.2259
  468MOL0     C63103   9.446   4.056  10.672  0.0186 -0.5767 -0.1763
  468MOL0     O63104   9.573   4.012  10.651 -0.6302 -0.1590  0.1532
  468MOL0     C63105   9.686   4.086  10.699  0.4284 -0.0226  0.0196
  468MOL0     C63106   9.806   4.010  10.668  0.4278 -0.2314 -0.5482
  468MOL0     C63107   9.833   3.907  10.778  0.6971 -0.1475  0.1712
  468MOL0     C63108   9.974   3.857  10.773  0.3283 -0.5473  0.2648
  468MOL0     C63109  10.076   3.960  10.803  0.4039 -0.4178 -0.6114
  468MOL0     C63110  10.151   4.046  10.826 -0.0805 -0.3548 -0.1440
  468MOL0     C63111   9.404   4.171  10.748  0.6551 -0.4144  0.5573
  468MOL0     C63112   9.268   4.197  10.772 -0.5452 -0.2896  0.9570
  468MOL0     H63113   8.782   4.233  10.714  0.3768  0.9912 -2.5333
  468MOL0     H63114   8.535   4.204  10.703  0.8044  0.5535 -0.1281
  468MOL0     H63115   8.390   3.782  10.611 -1.6843  0.6447 -1.4341
  468MOL0     H63116   8.322   3.807  10.775 -1.1417 -0.7215  0.0299
  468MOL0     H63117   8.138   3.936  10.642  2.1026 -0.4449  1.1977
  468MOL0     H63118   8.220   3.857  10.505 -0.1088  1.1573 -1.4582
  468MOL0     H63119   8.139   3.658  10.556  1.7029  0.5350 -0.7914
  468MOL0     H63120   8.141   3.686  10.726 -2.6304  3.0557  1.9063
  468MOL0     H63121   7.937   3.833  10.732  0.3939  0.4646  0.3179
  468MOL0     H63122   7.933   3.811  10.557  2.3400 -1.0370 -1.5209
  468MOL0     H63123   7.926   3.578  10.747 -1.6310 -4.0313 -2.3949
  468MOL0     H63124   7.776   3.649  10.706  0.0498  1.8635 -0.8552
  468MOL0     H63125   7.883   3.608  10.449  0.2265 -1.4618 -2.4522
  468MOL0     H63126   7.966   3.485  10.537 -1.5147 -3.2067  1.8974
  468MOL0     H63127   7.729   3.410  10.641 -0.2543 -0.1495 -0.7405
  468MOL0     H63128   7.663   3.515  10.512  0.4480  1.0191 -0.6421
  468MOL0     H63129   7.819   3.264  10.477  1.5683  2.1362  1.0951
  468MOL0     H63130   7.780   3.394  10.349 -0.4994  1.7209  0.7046
  468MOL0     H63131   7.595   3.107  10.552 -3.2270 -0.9592  0.5909
  468MOL0     H63132   7.299   3.026  10.314 -0.2964  0.1756  0.5588
  468MOL0     H63133   7.398   2.931  10.425 -0.8941 -0.3063  4.0603
  468MOL0     H63134   7.235   3.170  10.527  0.9388  0.8189 -3.7558
  468MOL0     H63135   7.332   3.057  10.622  0.6036 -1.8217 -0.8485
  468MOL0     H63136   7.194   2.875  10.569 -0.9336  0.5537  3.1916
  468MOL0     H63137   7.092   2.974  10.452 -2.9056  1.2008  0.9820
  468MOL0     H63138   7.035   3.118  10.655  1.0430 -0.3241 -2.1421
  468MOL0     H63139   7.070   2.968  10.751 -1.1458  0.6186  0.7727
  468MOL0     H63140   6.882   3.087  10.816  0.0489  0.1509 -0.3738
  468MOL0     H63141   6.636   3.177  11.017 -0.6977 -1.3793 -0.0790
  468MOL0     H63142   6.788   3.244  10.941  0.5329 -3.6190  0.3326
  468MOL0     H63143   6.624   3.321  10.912 -0.4532 -0.3798 -0.1268
  468MOL0     H63144   6.123   2.934  10.642 -2.4562  2.3372 -1.6047
  468MOL0     H63145   5.908   2.898  10.750 -0.8408  0.3424  1.8433
  468MOL0     H63146   5.703   2.997  10.851 -1.4183 -1.7433 -0.7941
  468MOL0     H63147   5.753   2.823  10.901  2.1965 -0.0591 -0.7053
  468MOL0     H63148   5.518   2.924  10.956  1.2481  0.4774 -1.0721
  468MOL0     H63149   5.596   2.837  11.080 -3.3431  1.2090  2.0538
  468MOL0     H63150   5.574   3.145  11.062  0.1014  0.2810 -0.2521
  468MOL0     H63151   5.698   3.065  11.161 -1.1247  0.1964  3.8580
  468MOL0     H63152   5.546   2.979  11.312  0.7952 -1.6184 -2.2890
  468MOL0     H63153   5.508   3.143  11.300  1.3722  0.8238 -2.0297
  468MOL0     H63154   5.362   2.904  11.166 -3.0790  0.2206 -1.2358
  468MOL0     H63155   5.317   3.075  11.137 -0.9981  0.8891  1.7183
  468MOL0     H63156   5.292   2.937  11.410 -0.7492 -0.7999 -0.0106
  468MOL0     H63157   5.232   3.103  11.359 -0.0618 -0.3517 -0.4508
  468MOL0     H63158   5.126   2.845  11.243  2.3000  0.7215 -1.2489
  468MOL0     H63159   5.065   3.014  11.208  1.3006 -1.4538 -2.6449
  468MOL0     H63160   4.996   3.064  11.425 -3.1620 -0.9513  2.2479
  468MOL0     H63161   5.071   2.923  11.497 -1.4747 -0.8783  0.7690
  468MOL0     H63162   6.037   3.097  11.105 -1.3396 -0.6077  0.0303
  468MOL0     H63163   6.262   3.130  11.001 -0.5775 -0.1270  1.8989
  468MOL0     H63164   6.484   2.975  10.563  2.3382 -2.4224 -1.3897
  468MOL0     H63165   6.697   2.923  10.470 -0.5269 -0.9433  0.0539
  468MOL0     H63166   8.585   3.781  10.689 -1.3475  0.7371  1.7588
  468MOL0     H63167   8.824   3.805  10.711  0.6728  0.0443  2.0426
  468MOL0     H63168   9.153   3.935  10.584  1.5898 -0.6296 -0.5468
  468MOL0     H63169   9.398   3.902  10.543  1.5025 -1.8287  1.9745
  468MOL0     H63170   9.696   4.180  10.645  2.1944  0.5164  1.1789
  468MOL0     H63171   9.666   4.106  10.805  0.8331 -0.1232  0.1173
  468MOL0     H63172   9.887   4.083  10.668  0.3752 -0.1730 -0.4726
  468MOL0     H63173   9.804   3.965  10.568 -0.5970 -3.3872  0.7834
  468MOL0     H63174   9.763   3.823  10.787  0.4715  0.1988  2.2974
  468MOL0     H63175   9.818   3.959  10.873 -0.5012  1.3573 -0.8055
  468MOL0     H63176  10.004   3.824  10.673 -1.4888  1.6108 -1.0778
  468MOL0     H63177   9.997   3.785  10.852 -2.1295  1.1448  2.7299
  468MOL0     H63178  10.215   4.129  10.851 -1.1967  0.3108  0.5849
  468MOL0     H63179   9.478   4.239  10.789 -1.4691  1.5885  1.2773
  468MOL0     H63180   9.231   4.286  10.822  1.2158  0.7453  0.5130
  469MOL0     O63181   8.590   1.478   6.002  0.2017 -0.5560 -0.3194
  469MOL0     C63182   8.693   1.549   5.971 -0.2602  0.4918 -0.4613
  469MOL0     O63183   8.693   1.657   5.890 -0.1992 -0.2944  0.3223
  469MOL0     C63184   8.573   1.708   5.838  0.5944  0.5808 -0.1617
  469MOL0     C63185   8.482   1.624   5.774  0.0820  0.3214 -0.8360
  469MOL0     C63186   8.373   1.679   5.705  0.1169  0.1986 -0.3648
  469MOL0     C63187   8.347   1.820   5.703  0.0838  0.4609 -0.5292
  469MOL0     O63188   8.243   1.857   5.629 -0.6014  0.0363  0.5094
  469MOL0     C63189   8.173   1.977   5.650 -0.3397 -0.3923 -0.6445
  469MOL0     C63190   8.043   1.964   5.568  0.2843 -0.4660 -0.2677
  469MOL0     C63191   7.964   1.842   5.630  0.0389 -0.2676  0.0412
  469MOL0     C63192   7.825   1.836   5.569 -0.5001 -0.0791  0.2747
  469MOL0     C63193   7.758   1.728   5.644  0.0655  0.3473  0.1014
  469MOL0     C63194   7.610   1.732   5.627 -0.0679  0.4460  0.5629
  469MOL0     C63195   7.545   1.617   5.702 -0.4945  0.0660  0.2063
  469MOL0     C63196   7.496   1.664   5.836 -0.8429 -0.1530  0.3538
  469MOL0     N63197   7.360   1.715   5.830 -0.6323  0.5399  0.2361
  469MOL0     C63198   7.252   1.649   5.769  0.6927 -0.6264 -0.3308
  469MOL0     C63199   7.149   1.739   5.785  0.0105 -0.3891 -1.0304
  469MOL0     C63200   7.003   1.738   5.737  0.2064  0.4750 -0.4265
  469MOL0     C63201   6.906   1.640   5.796 -0.0611 -0.2546  0.0361
  469MOL0     C63202   6.842   1.704   5.925 -0.9162  0.2473 -0.3729
  469MOL0     C63203   6.733   1.616   5.988 -0.0001  0.5852 -0.4229
  469MOL0     O63204   6.605   1.649   5.937 -0.1030 -0.1961  0.1557
  469MOL0     C63205   6.500   1.592   5.995  0.4506  0.3733 -0.1499
  469MOL0     C63206   6.375   1.626   5.944 -0.9090 -0.3155  0.0127
  469MOL0     C63207   6.261   1.575   5.998  0.5971  0.4407 -0.5288
  469MOL0     C63208   6.138   1.648   5.951  0.1986  0.3936  0.1390
  469MOL0     C63209   6.265   1.487   6.109  0.1721 -0.6077  0.3309
  469MOL0     C63210   6.139   1.422   6.166 -0.0717 -0.7550 -0.3253
  469MOL0     O63211   6.142   1.382   6.298 -0.0406  0.1526 -0.3389
  469MOL0     C63212   6.033   1.357   6.370  0.9514  0.2261  0.2728
  469MOL0     C63213   5.903   1.376   6.332  0.1691  0.3580  0.3704
  469MOL0     C63214   5.793   1.345   6.419  0.9055 -0.3800  0.5870
  469MOL0     C63215   5.817   1.288   6.546  0.1048 -0.3533 -0.1285
  469MOL0     O63216   5.729   1.250   6.645  0.1170  0.5169  0.2568
  469MOL0     C63217   5.589   1.211   6.604 -0.4369 -0.1553  0.1821
  469MOL0     C63218   5.501   1.190   6.723 -0.4721  0.4541  0.8805
  469MOL0     C63219   5.534   1.078   6.813 -1.1480 -0.3117  0.9783
  469MOL0     C63220   5.465   1.078   6.952 -0.1317  0.5802 -0.0112
  469MOL0     C63221   5.515   0.960   7.034 -0.7253 -0.1771  1.0688
  469MOL0     C63222   5.447   0.959   7.171  0.2276 -0.0094 -0.5325
  469MOL0     C63223   5.482   0.831   7.249 -0.6041 -0.2592 -0.6530
  469MOL0     C63224   5.459   0.704   7.175  0.0099 -0.1567  0.2486
  469MOL0    Cl63225   5.455   0.555   7.282 -0.0198  0.1454  0.2811
  469MOL0     C63226   5.954   1.274   6.588  1.0108 -0.2240  0.8134
  469MOL0     C63227   6.056   1.306   6.493  0.4618  1.0155 -0.6240
  469MOL0     O63228   6.048   1.400   6.083  0.2685  0.2073  1.0327
  469MOL0     C63229   6.390   1.451   6.150 -0.4026 -0.8160 -0.3851
  469MOL0     C63230   6.508   1.509   6.103  0.0056  0.9611  0.1096
  469MOL0     N63231   7.193   1.850   5.854  0.6439 -0.2858 -1.0143
  469MOL0     N63232   7.314   1.832   5.885  0.2441 -0.1544  0.5259
  469MOL0     C63233   8.441   1.907   5.771  0.6049 -0.6141 -0.1591
  469MOL0     C63234   8.556   1.844   5.828 -0.1641  0.0705  0.7171
  469MOL0     C63235   8.829   1.517   6.010  0.5893 -0.4369  0.2987
  469MOL0     C63236   8.859   1.384   6.054  0.1388 -0.1685 -0.2980
  469MOL0     C63237   8.990   1.346   6.087  0.0785 -0.1370  0.8478
  469MOL0     C63238   9.089   1.441   6.085  0.0976  0.4940  0.5333
  469MOL0     O63239   9.213   1.398   6.134 -0.2734 -0.1559 -0.5521
  469MOL0     C63240   9.336   1.463   6.103 -0.1845 -0.2492 -0.1106
  469MOL0     C63241   9.427   1.473   6.226  0.0544 -0.5451  0.1681
  469MOL0     C63242   9.373   1.564   6.342 -0.3614 -0.1877  0.4790
  469MOL0     C63243   9.481   1.605   6.438  0.3064  0.5529 -0.0937
  469MOL0     C63244   9.543   1.484   6.500 -0.2268 -0.8186  0.3465
  469MOL0     C63245   9.585   1.376   6.544 -0.1939  0.4173 -0.2334
  469MOL0     C63246   9.064   1.569   6.032 -0.4547 -1.1163  0.4596
  469MOL0     C63247   8.931   1.611   6.000 -0.6801  0.4262 -0.8985
  469MOL0     H63248   8.506   1.520   5.755  3.6075  0.3078  2.4495
  469MOL0     H63249   8.304   1.617   5.649 -0.9283 -0.4455  1.5390
  469MOL0     H63250   8.155   1.998   5.756 -0.4054  0.6232 -0.8479
  469MOL0     H63251   8.237   2.053   5.605  1.2244 -1.1121  0.2824
  469MOL0     H63252   7.982   2.052   5.586 -1.1039 -1.5774  0.6755
  469MOL0     H63253   8.067   1.948   5.462  3.0647 -1.3010  0.3887
  469MOL0     H63254   8.012   1.744   5.631 -0.2827 -0.4228  0.6436
  469MOL0     H63255   7.952   1.863   5.737  1.4846  1.1961 -0.0407
  469MOL0     H63256   7.777   1.933   5.585 -1.6127 -0.8212  1.7202
  469MOL0     H63257   7.828   1.816   5.461  1.1104  0.8365  0.1209
  469MOL0     H63258   7.790   1.631   5.606 -1.4113 -0.2230  0.2572
  469MOL0     H63259   7.771   1.733   5.752  0.1846  2.3197  0.0268
  469MOL0     H63260   7.572   1.830   5.659 -2.7618 -0.0158 -0.9097
  469MOL0     H63261   7.591   1.734   5.519 -2.3016 -0.3109  0.8972
  469MOL0     H63262   7.459   1.583   5.644  0.9377 -0.7793 -1.5280
  469MOL0     H63263   7.617   1.535   5.717 -0.5016 -0.7148 -3.1440
  469MOL0     H63264   7.562   1.744   5.872 -0.7852  0.1950 -0.5149
  469MOL0     H63265   7.505   1.585   5.911  1.3805 -0.0327  0.2910
  469MOL0     H63266   7.249   1.551   5.723  1.0891 -0.8648  0.1456
  469MOL0     H63267   6.964   1.838   5.752  2.0802  1.0656  0.8246
  469MOL0     H63268   7.008   1.713   5.630  0.9322 -1.5096  0.0204
  469MOL0     H63269   6.962   1.549   5.821 -1.0542 -1.1766 -1.0031
  469MOL0     H63270   6.824   1.615   5.728  0.0325  0.8132 -0.5032
  469MOL0     H63271   6.788   1.798   5.913 -0.6757  0.3313 -0.7821
  469MOL0     H63272   6.923   1.711   5.998 -0.1107  0.3843 -1.2739
  469MOL0     H63273   6.723   1.642   6.094 -2.6524 -3.5214  0.6094
  469MOL0     H63274   6.752   1.508   5.979  3.1187  0.9718  0.4284
  469MOL0     H63275   6.371   1.697   5.863 -0.2400 -1.0714 -0.7053
  469MOL0     H63276   6.086   1.692   6.037 -0.8698 -2.4708  1.0469
  469MOL0     H63277   6.163   1.733   5.887  1.5000  0.3019  0.4952
  469MOL0     H63278   6.076   1.574   5.900 -0.2699  2.1107 -1.9379
  469MOL0     H63279   5.882   1.429   6.240  0.5369  0.9425  0.6178
  469MOL0     H63280   5.694   1.350   6.376  0.6052 -3.2203  0.7920
  469MOL0     H63281   5.531   1.292   6.558  1.7852  1.4571  0.0491
  469MOL0     H63282   5.593   1.121   6.543  0.5492 -1.8876  2.6466
  469MOL0     H63283   5.502   1.282   6.783 -0.1832  2.2339 -1.6870
  469MOL0     H63284   5.403   1.159   6.684  0.0046 -0.2580  0.2308
  469MOL0     H63285   5.640   1.072   6.838 -1.0535 -2.0706  0.2500
  469MOL0     H63286   5.508   0.982   6.769  2.7268 -1.5286  0.9969
  469MOL0     H63287   5.491   1.173   7.000 -3.4677  0.8748  1.4936
  469MOL0     H63288   5.358   1.077   6.930 -0.3297  1.0618  0.8899
  469MOL0     H63289   5.624   0.967   7.042 -0.5922 -0.1457 -0.4879
  469MOL0     H63290   5.491   0.873   6.972 -3.6498  0.6774  0.8602
  469MOL0     H63291   5.495   1.040   7.227 -2.3960  0.8878  0.5665
  469MOL0     H63292   5.340   0.977   7.172  0.1676 -0.3736  0.1773
  469MOL0     H63293   5.422   0.831   7.340  3.0717 -5.3832  2.2615
  469MOL0     H63294   5.583   0.842   7.288 -0.5617 -1.4345 -0.4046
  469MOL0     H63295   5.539   0.701   7.101 -1.4838 -0.2580 -1.4433
  469MOL0     H63296   5.363   0.715   7.124  0.0067  0.3532  0.3679
  469MOL0     H63297   5.988   1.242   6.686  1.3079 -0.0460  0.7702
  469MOL0     H63298   6.162   1.299   6.515  0.4611  0.8291 -0.6788
  469MOL0     H63299   6.389   1.382   6.234 -0.6381  1.9399  2.0477
  469MOL0     H63300   6.602   1.470   6.141 -1.0465  1.3202  3.4376
  469MOL0     H63301   8.417   2.013   5.769 -2.0473 -1.0980  1.6888
  469MOL0     H63302   8.628   1.906   5.881  1.3026 -2.0888  1.3609
  469MOL0     H63303   8.785   1.307   6.076 -3.4446  2.5447 -1.7268
  469MOL0     H63304   9.006   1.243   6.118 -0.5986 -1.8561 -3.7700
  469MOL0     H63305   9.382   1.423   6.012  1.2099 -0.7585  0.7921
  469MOL0     H63306   9.306   1.568   6.092 -3.1155 -1.0475 -0.4869
  469MOL0     H63307   9.523   1.513   6.191 -0.5878 -0.8883 -2.1433
  469MOL0     H63308   9.437   1.369   6.259 -0.5110 -1.1821 -1.5576
  469MOL0     H63309   9.293   1.508   6.391  1.0199 -1.3976  1.4557
  469MOL0     H63310   9.341   1.662   6.308  1.1404  0.3234  0.4851
  469MOL0     H63311   9.427   1.667   6.510 -0.6582 -0.4880  0.1003
  469MOL0     H63312   9.562   1.663   6.394  2.5755 -2.1590  0.1926
  469MOL0     H63313   9.623   1.279   6.568 -1.8113 -0.7925 -2.2241
  469MOL0     H63314   9.134   1.650   6.018  0.6270 -1.7707  1.7591
  469MOL0     H63315   8.901   1.712   5.975 -0.0947  0.9437  0.3948
  470MOL0     O63316   8.066   3.646   3.341  0.1456  0.7801 -0.5073
  470MOL0     C63317   8.008   3.724   3.417 -0.2464 -0.3178 -0.1156
  470MOL0     O63318   7.922   3.683   3.521  0.2121 -0.2048 -0.7374
  470MOL0     C63319   7.849   3.571   3.512 -0.4575  0.1822 -0.6565
  470MOL0     C63320   7.777   3.534   3.396  0.1756 -1.2092  0.1223
  470MOL0     C63321   7.683   3.433   3.396  0.2486  0.5503 -0.3093
  470MOL0     C63322   7.667   3.360   3.517 -0.7225  0.5763 -0.3474
  470MOL0     O63323   7.571   3.259   3.528 -0.3686 -0.3997  0.8913
  470MOL0     C63324   7.454   3.261   3.449 -0.3315 -0.9394 -0.1812
  470MOL0     C63325   7.314   3.227   3.513  0.0295 -0.5353  0.1805
  470MOL0     C63326   7.206   3.249   3.409 -0.0566 -0.1070 -0.8686
  470MOL0     C63327   7.084   3.175   3.462 -0.4095  0.0064  0.5931
  470MOL0     C63328   6.954   3.211   3.395 -0.9089 -0.1312  0.1745
  470MOL0     C63329   6.966   3.172   3.246  0.8757 -0.3028 -0.4328
  470MOL0     C63330   6.825   3.162   3.193  0.2706  0.2221 -0.6536
  470MOL0     C63331   6.769   3.303   3.182  0.9341 -0.0433  0.3857
  470MOL0     N63332   6.647   3.287   3.103  0.4685  0.6646  0.9673
  470MOL0     C63333   6.512   3.293   3.137  0.8411  0.2016 -0.0255
  470MOL0     C63334   6.442   3.316   3.027 -0.6646 -0.5253  0.2647
  470MOL0     C63335   6.302   3.360   3.029 -0.5293 -0.2875  0.3988
  470MOL0     C63336   6.203   3.254   2.993  0.2401  0.2819  1.2256
  470MOL0     C63337   6.197   3.208   2.845 -0.0638  0.5839 -0.2970
  470MOL0     C63338   6.106   3.080   2.825  0.4220  0.8024 -0.1286
  470MOL0     O63339   5.956   3.099   2.837  0.3081  0.2034  0.0369
  470MOL0     C63340   5.894   3.174   2.738  0.6204  0.3140 -0.7902
  470MOL0     C63341   5.941   3.214   2.613 -0.4888 -0.2155 -0.3420
  470MOL0     C63342   5.867   3.285   2.519  0.1572  0.5302  0.1303
  470MOL0     C63343   5.926   3.315   2.383  0.0182 -0.0392  0.6337
  470MOL0     C63344   5.728   3.315   2.548  0.0990 -0.2641 -0.5911
  470MOL0     C63345   5.623   3.384   2.465  0.0154 -0.3952  0.5215
  470MOL0     O63346   5.497   3.404   2.525  0.0777 -0.4828  0.3304
  470MOL0     C63347   5.381   3.430   2.462  0.8822  0.3677 -0.0833
  470MOL0     C63348   5.269   3.401   2.538 -0.6912 -0.7123 -0.4517
  470MOL0     C63349   5.139   3.426   2.486 -0.8338  0.3369  0.5914
  470MOL0     C63350   5.124   3.462   2.356  0.1984  0.0483 -0.2927
  470MOL0     O63351   5.003   3.489   2.306  0.2734 -0.1097  0.1379
  470MOL0     C63352   4.974   3.471   2.172  0.0627 -0.5793 -0.5252
  470MOL0     C63353   4.825   3.457   2.145 -0.6950  0.3710  0.4469
  470MOL0     C63354   4.752   3.552   2.237  0.4105  0.0503  0.0827
  470MOL0     C63355   4.610   3.572   2.178  0.2192  0.1707 -1.1312
  470MOL0     C63356   4.525   3.686   2.246 -0.1088  0.1802 -0.3599
  470MOL0     C63357   4.500   3.670   2.397  0.2612  0.3847 -0.4985
  470MOL0     C63358   4.425   3.539   2.438  0.1353 -0.0880  0.8141
  470MOL0     C63359   4.372   3.546   2.582  0.0812 -0.2278 -0.1736
  470MOL0    Cl63360   4.230   3.648   2.588 -0.1860 -0.1777 -0.3983
  470MOL0     C63361   5.236   3.478   2.276 -0.7982 -0.0712  0.4054
  470MOL0     C63362   5.364   3.468   2.329 -0.1873 -0.2106 -0.2550
  470MOL0     O63363   5.647   3.415   2.347  0.9017 -0.3621  0.1356
  470MOL0     C63364   5.685   3.274   2.675 -0.5217 -0.4467  0.3761
  470MOL0     C63365   5.770   3.210   2.769  0.0479  0.2176  0.5387
  470MOL0     N63366   6.522   3.295   2.915  0.7101  0.1093 -0.9651
  470MOL0     N63367   6.648   3.292   2.960  0.1184 -0.8974 -0.2594
  470MOL0     C63368   7.752   3.382   3.623 -0.4539  0.2972 -0.9483
  470MOL0     C63369   7.837   3.494   3.630 -0.5876  0.1823  0.6095
  470MOL0     C63370   8.031   3.864   3.379 -0.4145  0.0671 -0.1654
  470MOL0     C63371   8.117   3.891   3.273 -0.9415  0.2558  0.0555
  470MOL0     C63372   8.125   4.027   3.230 -0.5659  0.5834  0.2164
  470MOL0     C63373   8.043   4.127   3.284  0.3354 -0.0294 -0.1708
  470MOL0     O63374   8.030   4.244   3.222 -0.6824 -0.9342  0.3834
  470MOL0     C63375   8.144   4.322   3.237  0.1182 -0.8775  0.1567
  470MOL0     C63376   8.135   4.416   3.122  0.2179  0.3037  0.7136
  470MOL0     C63377   8.147   4.349   2.987 -0.9455 -0.0564 -0.4854
  470MOL0     C63378   8.014   4.353   2.906 -0.5754 -1.1679 -0.5859
  470MOL0     C63379   8.055   4.343   2.763 -0.7530  0.3956 -0.0477
  470MOL0     C63380   8.077   4.331   2.645 -0.5852 -0.0574  0.1584
  470MOL0     C63381   7.949   4.098   3.379  0.1186  0.2412  0.1406
  470MOL0     C63382   7.951   3.969   3.433 -1.1967  0.7512  0.0439
  470MOL0     H63383   7.784   3.596   3.307  0.0885 -2.3140 -0.6796
  470MOL0     H63384   7.637   3.401   3.303  2.3513  2.1126 -2.0039
  470MOL0     H63385   7.440   3.347   3.382 -0.2928 -1.6483 -1.1217
  470MOL0     H63386   7.475   3.185   3.374  1.4358 -1.0592  0.3750
  470MOL0     H63387   7.330   3.125   3.548 -0.3150 -0.9065 -0.7117
  470MOL0     H63388   7.287   3.301   3.589 -1.6282  0.5457 -1.3917
  470MOL0     H63389   7.182   3.355   3.399 -0.0889 -0.1273 -1.0078
  470MOL0     H63390   7.243   3.201   3.318  2.9600  2.8861 -1.4162
  470MOL0     H63391   7.099   3.067   3.455  0.9053  0.1409  0.9582
  470MOL0     H63392   7.070   3.203   3.567 -1.9687  0.5918  0.2613
  470MOL0     H63393   6.882   3.149   3.450  1.2739 -2.8206  0.1730
  470MOL0     H63394   6.924   3.315   3.409  0.9178  0.2014  1.9514
  470MOL0     H63395   7.026   3.246   3.193  1.0131  0.9825  1.4014
  470MOL0     H63396   7.015   3.074   3.245  1.2201 -0.2663  2.5667
  470MOL0     H63397   6.834   3.120   3.092 -0.7135 -0.8196 -0.3323
  470MOL0     H63398   6.762   3.095   3.252 -1.9276  0.4149 -2.6166
  470MOL0     H63399   6.840   3.359   3.121 -0.7548  4.5225  2.1282
  470MOL0     H63400   6.746   3.346   3.280  3.0373 -1.7515  1.7261
  470MOL0     H63401   6.479   3.303   3.240 -2.6217  0.5118 -1.0440
  470MOL0     H63402   6.284   3.405   3.127  0.7370 -1.3725  1.1685
  470MOL0     H63403   6.290   3.444   2.959  2.6424  1.3347  1.5700
  470MOL0     H63404   6.107   3.303   3.012  1.1369  2.2743  0.9292
  470MOL0     H63405   6.210   3.163   3.054 -1.5260 -1.3005 -0.7832
  470MOL0     H63406   6.301   3.187   2.819 -0.2743  0.6509 -1.2468
  470MOL0     H63407   6.158   3.292   2.786  1.3244  1.4175 -0.0624
  470MOL0     H63408   6.131   3.006   2.901  0.9529 -2.6774 -3.4147
  470MOL0     H63409   6.125   3.035   2.727 -0.6436  0.6929 -0.2933
  470MOL0     H63410   6.046   3.193   2.595 -1.3034 -2.9724 -2.7571
  470MOL0     H63411   5.971   3.414   2.382  0.6131 -0.2957  0.9586
  470MOL0     H63412   6.000   3.239   2.353  1.3865  1.5207 -0.0988
  470MOL0     H63413   5.846   3.300   2.310  0.8025 -0.4842 -0.1547
  470MOL0     H63414   5.288   3.362   2.637  0.4460  0.8804 -0.0037
  470MOL0     H63415   5.050   3.396   2.541 -1.0728 -1.6121 -0.7613
  470MOL0     H63416   5.021   3.552   2.115 -1.7658  0.0284 -1.2347
  470MOL0     H63417   5.028   3.383   2.137  0.8860 -0.2830 -0.0453
  470MOL0     H63418   4.807   3.479   2.040  0.7378  2.0740  0.5131
  470MOL0     H63419   4.796   3.353   2.162 -2.0153  0.1316 -2.6785
  470MOL0     H63420   4.802   3.649   2.244  0.2350  0.2180 -0.8642
  470MOL0     H63421   4.743   3.513   2.339 -1.9721 -0.9204 -0.4114
  470MOL0     H63422   4.617   3.592   2.070 -3.4837  2.0230 -1.1775
  470MOL0     H63423   4.547   3.483   2.182 -1.0282  1.0720  1.9377
  470MOL0     H63424   4.428   3.699   2.195  0.0914  2.8315 -0.1994
  470MOL0     H63425   4.579   3.780   2.228  1.4129 -1.1220 -3.2271
  470MOL0     H63426   4.592   3.672   2.456  0.4531 -2.9614 -0.5041
  470MOL0     H63427   4.434   3.750   2.433 -1.2916 -0.4118 -1.4810
  470MOL0     H63428   4.499   3.459   2.426  1.1638  0.8380  0.8482
  470MOL0     H63429   4.347   3.522   2.364 -0.4002  0.0277  1.3515
  470MOL0     H63430   4.456   3.573   2.646  1.4603 -4.2819  0.0715
  470MOL0     H63431   4.335   3.451   2.622  1.1776 -0.5766  0.0592
  470MOL0     H63432   5.233   3.499   2.169  2.5198 -2.2598 -0.2702
  470MOL0     H63433   5.444   3.491   2.260  2.1967 -4.0296  0.9343
  470MOL0     H63434   5.585   3.304   2.704 -1.2982  0.6912 -3.0160
  470MOL0     H63435   5.725   3.176   2.862 -2.3062 -0.0967 -0.6373
  470MOL0     H63436   7.745   3.325   3.715  1.5495  1.7471  0.1772
  470MOL0     H63437   7.892   3.519   3.720 -0.2439 -1.7651  0.9714
  470MOL0     H63438   8.174   3.812   3.226  0.4706 -0.6998  3.1709
  470MOL0     H63439   8.196   4.056   3.153 -1.6248 -2.7964 -2.2827
  470MOL0     H63440   8.140   4.372   3.334  1.2276  1.0129 -0.7336
  470MOL0     H63441   8.235   4.262   3.231  0.6575 -0.0316 -0.1501
  470MOL0     H63442   8.227   4.477   3.122  1.0140 -0.8468 -0.2486
  470MOL0     H63443   8.050   4.483   3.134 -0.5413 -0.3058 -1.0300
  470MOL0     H63444   8.185   4.247   2.998  2.0266  0.9613 -0.5118
  470MOL0     H63445   8.229   4.405   2.942 -1.3792  0.9623 -0.0367
  470MOL0     H63446   7.978   4.454   2.930 -0.5589 -1.6343  1.5474
  470MOL0     H63447   7.944   4.278   2.943 -2.1577 -0.6427 -2.3710
  470MOL0     H63448   8.094   4.330   2.539  0.2177 -1.0004  0.2825
  470MOL0     H63449   7.882   4.178   3.410  0.8273  1.3872 -1.1959
  470MOL0     H63450   7.879   3.954   3.513 -2.2286  1.1412 -0.7845
  471MOL0     O63451   5.725   5.391  10.689 -0.0059  0.1151  0.6678
  471MOL0     C63452   5.684   5.487  10.623 -0.5968 -0.3933  0.4424
  471MOL0     O63453   5.554   5.505  10.579 -0.5636 -0.2288 -0.3801
  471MOL0     C63454   5.463   5.420  10.623  0.8062 -0.0590  0.4110
  471MOL0     C63455   5.371   5.473  10.716 -0.0752  0.5819 -0.1766
  471MOL0     C63456   5.271   5.397  10.769  0.1757  0.6256 -0.3958
  471MOL0     C63457   5.258   5.263  10.728  1.5547  0.8243  0.2597
  471MOL0     O63458   5.161   5.183  10.786 -0.1510  1.1301 -1.3175
  471MOL0     C63459   5.113   5.214  10.917  0.4944  1.0053 -0.1335
  471MOL0     C63460   5.004   5.110  10.958  0.0229 -0.1771 -0.4980
  471MOL0     C63461   4.872   5.132  10.889  0.7640 -0.9514  0.1163
  471MOL0     C63462   4.760   5.056  10.948  0.5150  0.0708  0.0116
  471MOL0     C63463   4.638   5.093  10.868 -0.2507  0.2219 -0.0897
  471MOL0     C63464   4.507   5.021  10.917 -0.2492 -0.8233  0.0279
  471MOL0     C63465   4.391   5.043  10.819 -0.2971 -0.3957 -0.1816
  471MOL0     C63466   4.253   4.972  10.858  0.1356  0.3725 -0.5351
  471MOL0     N63467   4.182   5.018  10.974  0.1480 -0.1204 -0.4543
  471MOL0     C63468   4.104   4.940  11.052  0.2890 -0.0315  0.7492
  471MOL0     C63469   4.061   5.024  11.149  0.2095 -0.2412  0.2994
  471MOL0     C63470   3.967   4.981  11.264  0.2523 -0.4488  0.2938
  471MOL0     C63471   3.821   4.987  11.216 -0.2184 -0.6376 -0.4641
  471MOL0     C63472   3.703   5.011  11.320 -0.5683  0.6169  0.1992
  471MOL0     C63473   3.721   4.950  11.465 -0.3282 -0.4326  0.8468
  471MOL0     O63474   3.723   4.810  11.455 -0.1316  0.1026  0.3883
  471MOL0     C63475   3.729   4.737  11.575 -0.0035 -0.0518 -0.3148
  471MOL0     C63476   3.655   4.618  11.571  0.9068 -0.0611 -0.2799
  471MOL0     C63477   3.627   4.543  11.692  0.5747  0.7686 -0.0642
  471MOL0     C63478   3.564   4.407  11.665  0.2663  0.1086  0.1610
  471MOL0     C63479   3.679   4.584  11.819  1.0627  0.0848  0.4852
  471MOL0     C63480   3.655   4.506  11.943  0.7259 -0.4500 -0.2379
  471MOL0     O63481   3.557   4.413  11.947 -0.3506 -0.2029  0.7745
  471MOL0     C63482   3.508   4.348  12.059  0.8230  0.1798  0.2303
  471MOL0     C63483   3.413   4.252  12.026  0.7270  0.5635 -0.5779
  471MOL0     C63484   3.344   4.185  12.133 -0.2093 -0.3737 -0.1253
  471MOL0     C63485   3.362   4.216  12.270  0.3279 -0.0178 -0.2751
  471MOL0     O63486   3.283   4.149  12.360  0.1708  0.0677  0.3253
  471MOL0     C63487   3.251   4.217  12.486 -0.2183  0.0739  0.3167
  471MOL0     C63488   3.108   4.184  12.534  0.0999  0.3495  0.3410
  471MOL0     C63489   3.005   4.242  12.423 -0.1406  0.4106 -0.5215
  471MOL0     C63490   2.857   4.219  12.477 -0.7087  0.2872 -0.2941
  471MOL0     C63491   2.758   4.270  12.368  0.2139  0.1343  0.7316
  471MOL0     C63492   2.618   4.205  12.366  0.0980  0.2996  1.0048
  471MOL0     C63493   2.550   4.258  12.491  0.5149  0.1771 -0.5605
  471MOL0     C63494   2.410   4.202  12.515 -0.2791  0.6168 -0.6122
  471MOL0    Cl63495   2.427   4.033  12.581  0.2618 -0.3859  0.0376
  471MOL0     C63496   3.448   4.321  12.303 -0.2848 -0.0203  0.7524
  471MOL0     C63497   3.519   4.384  12.198 -0.4789  0.4503 -0.0248
  471MOL0     O63498   3.717   4.547  12.041  0.0946  0.5365 -0.5585
  471MOL0     C63499   3.759   4.703  11.822 -0.1628  0.6342 -0.0434
  471MOL0     C63500   3.773   4.784  11.705 -0.6989 -0.2530 -0.2969
  471MOL0     N63501   4.124   5.149  11.134  0.4096 -0.6103  0.7477
  471MOL0     N63502   4.194   5.142  11.026  0.1321 -0.0161 -0.0746
  471MOL0     C63503   5.344   5.208  10.633 -0.1922 -0.0523 -0.4319
  471MOL0     C63504   5.446   5.285  10.579  0.4765 -0.2726 -0.0460
  471MOL0     C63505   5.783   5.577  10.562  0.3333  0.5985 -0.5213
  471MOL0     C63506   5.737   5.699  10.503 -0.7650  0.3153  0.0130
  471MOL0     C63507   5.825   5.793  10.447 -0.7024 -0.2689  0.6112
  471MOL0     C63508   5.966   5.762  10.457  0.4140  0.0872  0.5372
  471MOL0     O63509   6.051   5.850  10.396 -0.1085 -0.4503  0.5179
  471MOL0     C63510   6.185   5.876  10.443  0.2265  0.5144 -0.1828
  471MOL0     C63511   6.250   5.999  10.368 -0.0093  0.7602  0.5420
  471MOL0     C63512   6.167   6.124  10.347 -1.3150  1.5568 -0.9891
  471MOL0     C63513   6.237   6.230  10.262 -0.2133  1.4989 -0.8459
  471MOL0     C63514   6.140   6.342  10.244  0.6474 -0.4330 -0.2553
  471MOL0     C63515   6.057   6.427  10.229  0.4151  0.6575 -0.6370
  471MOL0     C63516   6.005   5.645  10.516  0.3066 -0.9749 -0.8977
  471MOL0     C63517   5.916   5.553  10.567 -0.8728 -0.7238  0.6710
  471MOL0     H63518   5.387   5.577  10.742  1.3576  0.4759 -0.5657
  471MOL0     H63519   5.197   5.447  10.831 -1.6056 -1.2522 -0.8946
  471MOL0     H63520   5.198   5.214  10.985 -0.7588  2.1800  1.5049
  471MOL0     H63521   5.071   5.313  10.933 -3.6690 -0.8707  2.2709
  471MOL0     H63522   5.037   5.008  10.938 -0.3620 -0.6179  0.9677
  471MOL0     H63523   5.000   5.109  11.067 -0.9670 -1.4825 -0.5151
  471MOL0     H63524   4.859   5.240  10.891  2.5866 -0.6669 -1.1981
  471MOL0     H63525   4.881   5.115  10.781 -1.8362  0.7677 -0.4680
  471MOL0     H63526   4.763   4.947  10.939 -0.7538  0.1015 -0.8977
  471MOL0     H63527   4.747   5.081  11.054 -1.9072 -2.0731  0.3152
  471MOL0     H63528   4.617   5.200  10.865 -1.9226 -0.0558  0.6728
  471MOL0     H63529   4.668   5.060  10.768 -1.7970 -1.8127  0.0580
  471MOL0     H63530   4.523   4.915  10.937  0.7550 -0.6028  0.4253
  471MOL0     H63531   4.475   5.062  11.013  0.4719 -0.7786  0.2509
  471MOL0     H63532   4.382   5.151  10.803  3.5342  0.1992  0.6235
  471MOL0     H63533   4.424   4.999  10.725 -0.1497  0.2482 -0.4385
  471MOL0     H63534   4.277   4.867  10.870 -1.3784 -0.2282 -2.1987
  471MOL0     H63535   4.182   4.975  10.774 -2.7702  1.1578  1.7730
  471MOL0     H63536   4.061   4.841  11.037  0.3100 -0.2669  2.0841
  471MOL0     H63537   3.998   4.880  11.291 -1.3700 -1.6291 -1.9646
  471MOL0     H63538   3.975   5.042  11.354 -0.2077 -0.0010  0.0364
  471MOL0     H63539   3.802   4.892  11.166 -1.8106 -0.6631  0.1264
  471MOL0     H63540   3.813   5.072  11.148 -0.6777 -0.2304  0.0922
  471MOL0     H63541   3.611   4.982  11.269 -1.0155  0.8443  0.8600
  471MOL0     H63542   3.687   5.118  11.333 -2.8023  0.2802  0.7388
  471MOL0     H63543   3.632   4.978  11.522 -1.8063 -2.6779 -0.2143
  471MOL0     H63544   3.814   4.996  11.500  0.4080 -1.1999 -0.0623
  471MOL0     H63545   3.629   4.583  11.472  3.9355  0.3611 -1.3150
  471MOL0     H63546   3.457   4.413  11.689  0.0978 -0.8354 -0.3188
  471MOL0     H63547   3.570   4.389  11.558 -1.5853  0.3758 -0.0262
  471MOL0     H63548   3.625   4.332  11.717  2.3678  0.7609 -1.2517
  471MOL0     H63549   3.395   4.239  11.920  4.1086 -0.5987 -1.1360
  471MOL0     H63550   3.277   4.112  12.087  1.2941 -1.7036 -0.3066
  471MOL0     H63551   3.328   4.201  12.563 -0.6115 -0.0356  0.6926
  471MOL0     H63552   3.258   4.325  12.476  2.1965  0.4324  3.9122
  471MOL0     H63553   3.105   4.075  12.545  0.2261  0.4655  1.6499
  471MOL0     H63554   3.087   4.233  12.629 -1.1955 -0.6306  0.5888
  471MOL0     H63555   3.014   4.209  12.319 -0.2128  1.8136 -0.9956
  471MOL0     H63556   3.021   4.349  12.413  0.6905  0.0968 -3.1047
  471MOL0     H63557   2.835   4.113  12.486 -2.3398  0.7745  2.4280
  471MOL0     H63558   2.833   4.266  12.573  0.5914 -0.4995  0.4283
  471MOL0     H63559   2.807   4.245  12.273  1.3300 -0.5962  1.4735
  471MOL0     H63560   2.763   4.378  12.386  0.6260  0.0157  1.3744
  471MOL0     H63561   2.574   4.248  12.275 -0.9821 -1.8170  0.4493
  471MOL0     H63562   2.630   4.097  12.354  2.2345  0.5254  0.7503
  471MOL0     H63563   2.540   4.367  12.496  1.7381  0.2405  1.1921
  471MOL0     H63564   2.615   4.234  12.575  0.8867  1.2459 -0.5332
  471MOL0     H63565   2.353   4.196  12.422 -0.2397 -1.8164 -0.5525
  471MOL0     H63566   2.377   4.268  12.595  1.8297  2.2178 -0.9890
  471MOL0     H63567   3.456   4.343  12.409  1.8838 -0.8621  0.8216
  471MOL0     H63568   3.582   4.465  12.234 -4.2352  2.6387  2.2532
  471MOL0     H63569   3.785   4.733  11.923 -0.4052 -0.7113  0.4429
  471MOL0     H63570   3.836   4.872  11.711  0.3304 -0.9608 -0.4674
  471MOL0     H63571   5.337   5.107  10.594  1.7491 -0.6915  0.7005
  471MOL0     H63572   5.508   5.241  10.501  0.0862  3.4118 -2.7041
  471MOL0     H63573   5.633   5.730  10.506 -1.3608 -1.2079 -2.3477
  471MOL0     H63574   5.792   5.882  10.395  2.7992 -0.1476 -1.7225
  471MOL0     H63575   6.183   5.891  10.552  0.3235 -0.7859  0.0115
  471MOL0     H63576   6.251   5.790  10.430 -0.1352  0.1220  0.5392
  471MOL0     H63577   6.282   5.964  10.269  1.3246  2.6987  0.2164
  471MOL0     H63578   6.350   6.023  10.408 -0.2597 -0.0289  1.6775
  471MOL0     H63579   6.135   6.161  10.445  2.4887  2.6146  0.0410
  471MOL0     H63580   6.071   6.098  10.302 -2.7648  0.7261  2.3090
  471MOL0     H63581   6.277   6.185  10.171  0.2436  3.1861 -1.5298
  471MOL0     H63582   6.323   6.268  10.318  0.9352  1.4220 -2.4697
  471MOL0     H63583   5.974   6.492  10.213  2.1751  2.8397 -1.3856
  471MOL0     H63584   6.111   5.630  10.530  0.3170 -0.8549 -0.8470
  471MOL0     H63585   5.955   5.461  10.611  1.5069  0.0230  0.2895
  472MOL0     O63586   9.603   1.152   2.751 -0.7516 -1.1576  0.0645
  472MOL0     C63587   9.653   1.231   2.668 -0.9060 -0.3472 -0.4584
  472MOL0     O63588   9.592   1.309   2.574 -0.0283 -0.0163  0.4652
  472MOL0     C63589   9.460   1.283   2.541 -0.1497  0.4068  0.1474
  472MOL0     C63590   9.415   1.280   2.402 -0.2651 -0.1774 -0.5498
  472MOL0     C63591   9.284   1.261   2.365  0.1961  1.1913  1.0538
  472MOL0     C63592   9.186   1.251   2.454  0.0998  0.0456  0.7565
  472MOL0     O63593   9.051   1.238   2.429  0.3155 -0.4823 -0.2646
  472MOL0     C63594   9.009   1.274   2.302  0.5703 -1.0685  0.0018
  472MOL0     C63595   8.859   1.285   2.308 -0.0711  0.6952 -0.2326
  472MOL0     C63596   8.791   1.408   2.377 -0.3314  0.3152  0.4614
  472MOL0     C63597   8.842   1.431   2.524 -0.4246 -0.1127  0.5844
  472MOL0     C63598   8.787   1.552   2.601  0.1783  0.5276  0.1131
  472MOL0     C63599   8.631   1.565   2.621 -0.1886 -0.1103  0.0148
  472MOL0     C63600   8.580   1.467   2.724  0.2562  0.4622  0.3935
  472MOL0     C63601   8.432   1.485   2.761 -0.1975 -0.0683  0.7207
  472MOL0     N63602   8.410   1.617   2.836  0.5677 -0.7649  0.1083
  472MOL0     C63603   8.454   1.638   2.968 -0.0822 -0.2068  0.0478
  472MOL0     C63604   8.410   1.761   2.996 -0.4469 -0.3940  0.3637
  472MOL0     C63605   8.443   1.844   3.120  0.2777 -0.2358 -0.7239
  472MOL0     C63606   8.588   1.826   3.165  0.0626  0.3747  0.6147
  472MOL0     C63607   8.689   1.879   3.055 -1.0940 -0.9275  0.5658
  472MOL0     C63608   8.825   1.927   3.087  0.0398 -0.7886 -1.0641
  472MOL0     O63609   8.898   1.810   3.115  0.6313  0.0441 -0.4899
  472MOL0     C63610   9.020   1.817   3.175 -0.4418  0.1077 -0.0127
  472MOL0     C63611   9.082   1.939   3.215  0.3011  0.2981 -0.3077
  472MOL0     C63612   9.211   1.945   3.273 -0.1889  0.5407 -0.2442
  472MOL0     C63613   9.265   2.086   3.303 -0.4567 -0.4721 -0.0678
  472MOL0     C63614   9.272   1.820   3.315  0.7472  0.5014 -0.7633
  472MOL0     C63615   9.393   1.793   3.387 -0.1687 -0.3986  0.8405
  472MOL0     O63616   9.392   1.679   3.468 -0.1814 -0.1330 -0.7950
  472MOL0     C63617   9.512   1.634   3.516  0.5497  0.4383 -0.1845
  472MOL0     C63618   9.586   1.526   3.459  0.3453 -0.9540 -0.1643
  472MOL0     C63619   9.697   1.467   3.531  0.2078 -0.3803  0.6685
  472MOL0     C63620   9.740   1.532   3.648 -0.9466  0.3223  0.1690
  472MOL0     O63621   9.844   1.478   3.718  0.1649  0.3777 -0.0181
  472MOL0     C63622   9.948   1.427   3.640  1.1856 -0.3081  0.6115
  472MOL0     C63623  10.079   1.400   3.720 -0.7806 -0.4625 -0.0242
  472MOL0     C63624  10.122   1.506   3.824 -0.3341 -0.0765 -0.1605
  472MOL0     C63625  10.149   1.637   3.750 -0.6096  0.2504 -0.1522
  472MOL0     C63626  10.205   1.735   3.851  0.4949 -0.1299  0.0730
  472MOL0     C63627  10.311   1.827   3.796 -0.5255 -0.2777  1.0153
  472MOL0     C63628  10.264   1.918   3.689  0.7264  0.6668  0.6173
  472MOL0     C63629  10.330   2.050   3.699 -0.6252 -0.2855  0.1483
  472MOL0    Cl63630  10.506   2.031   3.680 -0.3941 -0.3215  0.6422
  472MOL0     C63631   9.672   1.643   3.695 -0.2473  0.8591 -0.2596
  472MOL0     C63632   9.551   1.688   3.636  0.5406 -0.5966 -0.0759
  472MOL0     O63633   9.491   1.860   3.370 -0.0726 -0.5022  0.3226
  472MOL0     C63634   9.203   1.703   3.281 -0.0948  0.0024  0.3440
  472MOL0     C63635   9.087   1.703   3.204  0.5379 -0.4496 -1.1953
  472MOL0     N63636   8.367   1.813   2.878  0.0894 -0.0909  0.0245
  472MOL0     N63637   8.352   1.726   2.788  0.7908 -0.1395 -0.4156
  472MOL0     C63638   9.221   1.271   2.594  0.5486  0.7216  1.0096
  472MOL0     C63639   9.356   1.282   2.637  0.8155  0.3402  0.9238
  472MOL0     C63640   9.799   1.259   2.684  0.0112 -0.0976  0.5193
  472MOL0     C63641   9.877   1.217   2.792 -0.1118 -0.0109  0.1792
  472MOL0     C63642  10.016   1.242   2.801  0.0849 -0.5807 -1.3118
  472MOL0     C63643  10.074   1.324   2.712  0.4840  0.0323  0.3190
  472MOL0     O63644  10.209   1.349   2.699  1.1671 -0.1471  0.5309
  472MOL0     C63645  10.298   1.307   2.801  0.8353  0.3325  0.7937
  472MOL0     C63646  10.421   1.396   2.795  0.5612 -0.0537 -0.4383
  472MOL0     C63647  10.510   1.343   2.687 -0.1286 -0.7813  0.3262
  472MOL0     C63648  10.636   1.433   2.666  0.2455 -0.5389 -0.7850
  472MOL0     C63649  10.729   1.440   2.778 -0.1623 -0.4877  0.4562
  472MOL0     C63650  10.798   1.446   2.877 -0.1502  0.0337  1.0257
  472MOL0     C63651   9.998   1.376   2.604  0.1629 -0.4838  0.4967
  472MOL0     C63652   9.862   1.345   2.586  0.6897 -0.5213  0.8518
  472MOL0     H63653   9.481   1.283   2.316  0.4210 -0.4625 -0.0424
  472MOL0     H63654   9.255   1.243   2.262  1.6826 -4.1078  1.2675
  472MOL0     H63655   9.043   1.371   2.267  0.9386  0.3005  3.7238
  472MOL0     H63656   9.039   1.204   2.224 -1.8597  1.2631 -3.3298
  472MOL0     H63657   8.823   1.282   2.205 -0.5142  1.0707 -0.0936
  472MOL0     H63658   8.824   1.190   2.349 -0.0541  0.7263 -0.1454
  472MOL0     H63659   8.820   1.497   2.320 -2.3102  1.3495  0.9860
  472MOL0     H63660   8.683   1.391   2.379 -0.2923 -1.0271 -2.6647
  472MOL0     H63661   8.827   1.335   2.574  0.1278 -1.8380 -2.3632
  472MOL0     H63662   8.951   1.445   2.518 -0.1098 -2.7417 -2.2170
  472MOL0     H63663   8.842   1.559   2.695 -1.0604 -2.0385  1.1244
  472MOL0     H63664   8.805   1.639   2.537 -2.8884  1.5023  0.4158
  472MOL0     H63665   8.616   1.670   2.647  0.7781  0.3343 -1.1662
  472MOL0     H63666   8.581   1.550   2.525  0.0939  0.2077 -0.1854
  472MOL0     H63667   8.600   1.366   2.689  1.3742  1.1166 -0.9620
  472MOL0     H63668   8.636   1.483   2.816 -0.2448 -1.1765  1.0205
  472MOL0     H63669   8.408   1.400   2.827  0.6423  1.5087  3.2161
  472MOL0     H63670   8.362   1.468   2.679  1.2502 -2.9154 -0.0465
  472MOL0     H63671   8.504   1.560   3.025 -0.1691  0.7973  1.5461
  472MOL0     H63672   8.429   1.950   3.095 -0.5284 -0.2285 -0.2931
  472MOL0     H63673   8.373   1.810   3.197 -2.2226 -1.9134 -3.4975
  472MOL0     H63674   8.602   1.718   3.171 -1.7658 -0.0410 -1.2352
  472MOL0     H63675   8.604   1.875   3.262  1.8833  1.4555 -0.1930
  472MOL0     H63676   8.647   1.970   3.011  2.4934  1.1974  1.1475
  472MOL0     H63677   8.697   1.811   2.970  1.1981 -2.1197  1.6345
  472MOL0     H63678   8.816   1.987   3.178  2.3460 -0.6434 -0.8716
  472MOL0     H63679   8.870   1.983   3.005 -0.1157  0.9139 -0.0166
  472MOL0     H63680   9.034   2.036   3.199 -0.6352  0.7762  4.1279
  472MOL0     H63681   9.239   2.140   3.212 -0.7730 -0.6386 -0.0770
  472MOL0     H63682   9.225   2.132   3.393  2.8120 -1.2298  1.9252
  472MOL0     H63683   9.373   2.104   3.299 -0.9632  2.9708 -2.9961
  472MOL0     H63684   9.575   1.483   3.359  2.9511 -1.3622 -0.3422
  472MOL0     H63685   9.751   1.383   3.489  3.3829  1.3229  0.9698
  472MOL0     H63686   9.916   1.332   3.595 -0.3685  0.1624  0.6763
  472MOL0     H63687   9.975   1.497   3.560 -2.7297 -0.6542 -1.2507
  472MOL0     H63688  10.086   1.303   3.769  0.5400 -0.3479  0.0643
  472MOL0     H63689  10.165   1.406   3.652 -0.3372 -0.7714  0.5005
  472MOL0     H63690  10.205   1.459   3.876 -2.0165 -0.7813  2.0383
  472MOL0     H63691  10.046   1.515   3.902  0.9341  2.1286  0.9243
  472MOL0     H63692  10.226   1.606   3.678 -0.0511 -0.5891  0.7672
  472MOL0     H63693  10.062   1.682   3.703 -0.9316  2.5272  2.3957
  472MOL0     H63694  10.242   1.683   3.940  0.0499  0.6298  0.7241
  472MOL0     H63695  10.121   1.794   3.890  1.9422  2.0589  0.0754
  472MOL0     H63696  10.348   1.888   3.878 -0.3294  1.0969 -0.0592
  472MOL0     H63697  10.398   1.772   3.760  0.4471  1.0975  1.1804
  472MOL0     H63698  10.155   1.926   3.692  0.6370  1.1954 -1.7174
  472MOL0     H63699  10.294   1.873   3.593 -0.1163  1.6760 -0.1452
  472MOL0     H63700  10.305   2.098   3.793  1.6244  0.2354  0.5492
  472MOL0     H63701  10.289   2.115   3.621  0.6803 -0.8363 -1.0420
  472MOL0     H63702   9.711   1.684   3.788  0.6494 -0.7348  0.1067
  472MOL0     H63703   9.489   1.761   3.687 -0.5406 -0.1495 -1.9179
  472MOL0     H63704   9.242   1.604   3.303 -0.9073 -0.2207  0.8375
  472MOL0     H63705   9.048   1.604   3.182  2.9295 -1.8977  0.5484
  472MOL0     H63706   9.137   1.275   2.662 -1.0561  0.2185 -0.8601
  472MOL0     H63707   9.387   1.290   2.741 -2.0779 -0.7473  1.9642
  472MOL0     H63708   9.826   1.162   2.871  0.0791  3.0534  2.6351
  472MOL0     H63709  10.065   1.197   2.887 -0.1232  2.4265  0.5029
  472MOL0     H63710  10.254   1.304   2.901  0.0402 -1.4162  0.4248
  472MOL0     H63711  10.325   1.206   2.770  2.0202  1.0881 -0.7483
  472MOL0     H63712  10.473   1.403   2.891  0.1879  0.7511 -0.2891
  472MOL0     H63713  10.395   1.501   2.779  1.5911  0.1401 -0.8820
  472MOL0     H63714  10.455   1.327   2.594  0.4191  0.0338 -0.1529
  472MOL0     H63715  10.547   1.245   2.719  2.4597 -0.1221 -0.3922
  472MOL0     H63716  10.606   1.536   2.646  1.8871 -0.2250 -1.7450
  472MOL0     H63717  10.695   1.392   2.583  0.1365 -0.6261 -0.8202
  472MOL0     H63718  10.856   1.449   2.967  0.5148 -5.1729  1.0823
  472MOL0     H63719  10.047   1.443   2.535  3.6915  0.2252  3.4036
  472MOL0     H63720   9.797   1.381   2.507  1.0752  1.8476  1.5185
  473MOL0     O63721   6.293   5.145   6.157 -0.3800  0.0146 -0.0148
  473MOL0     C63722   6.339   5.062   6.236  0.0971  0.1412  0.2505
  473MOL0     O63723   6.265   4.984   6.319 -0.3590  0.0704  0.3399
  473MOL0     C63724   6.129   4.993   6.330  0.6066  0.5192 -0.1311
  473MOL0     C63725   6.054   5.118   6.321  0.4127  0.1070  0.8476
  473MOL0     C63726   5.922   5.116   6.345  0.0899 -0.0823  0.6248
  473MOL0     C63727   5.860   4.995   6.377  0.2588  0.1256 -0.5904
  473MOL0     O63728   5.725   4.984   6.407 -0.4401  0.2620  0.7189
  473MOL0     C63729   5.651   5.038   6.299 -0.2239 -0.4743  0.0144
  473MOL0     C63730   5.508   4.995   6.307  0.9006 -0.5749 -0.0513
  473MOL0     C63731   5.421   5.062   6.199 -0.1072 -0.4779  0.5613
  473MOL0     C63732   5.288   4.999   6.213 -0.1861 -0.1260  0.3743
  473MOL0     C63733   5.188   5.022   6.094  0.2747  0.2774  0.6271
  473MOL0     C63734   5.049   4.968   6.118  0.4583  1.0480 -0.4759
  473MOL0     C63735   4.966   4.964   5.991  0.1003  0.1942  0.1479
  473MOL0     C63736   4.841   4.871   6.008 -0.0336 -0.2567 -0.4342
  473MOL0     N63737   4.752   4.876   5.891 -0.2952 -0.0805 -0.3045
  473MOL0     C63738   4.704   4.774   5.808  0.2796  0.6802 -0.5856
  473MOL0     C63739   4.637   4.834   5.699  0.1863 -0.0284  0.0123
  473MOL0     C63740   4.571   4.768   5.580 -0.2220 -0.5218 -0.7632
  473MOL0     C63741   4.420   4.775   5.585 -0.6251  0.8689 -0.6056
  473MOL0     C63742   4.365   4.678   5.478  0.2470 -0.6883  1.3242
  473MOL0     C63743   4.221   4.702   5.435  0.7347 -0.0618  0.2277
  473MOL0     O63744   4.209   4.828   5.364  1.0702 -0.1670 -0.9122
  473MOL0     C63745   4.082   4.850   5.326 -0.0953  0.2728  0.3588
  473MOL0     C63746   4.054   4.837   5.191 -1.0401 -0.1645  0.7084
  473MOL0     C63747   3.929   4.863   5.132  0.5287 -0.1700  0.4151
  473MOL0     C63748   3.918   4.846   4.980 -0.4539 -0.0370  0.5002
  473MOL0     C63749   3.819   4.902   5.218 -0.0605 -0.5060 -0.2652
  473MOL0     C63750   3.677   4.906   5.186 -0.7989 -0.0088 -0.0283
  473MOL0     O63751   3.587   4.938   5.284  0.0130  0.3044  0.3892
  473MOL0     C63752   3.461   4.966   5.241 -0.0089 -0.0671  0.7237
  473MOL0     C63753   3.438   5.082   5.161 -0.3431  0.2890 -0.0938
  473MOL0     C63754   3.301   5.098   5.098  0.6266 -0.2545 -0.1594
  473MOL0     C63755   3.197   5.022   5.143  0.1920 -0.3649  0.3158
  473MOL0     O63756   3.067   5.061   5.092  0.2350  0.7614 -0.2722
  473MOL0     C63757   3.005   4.961   5.008  0.8805  0.3571 -0.9440
  473MOL0     C63758   2.913   5.040   4.915  0.5133 -0.2723 -0.1583
  473MOL0     C63759   2.795   5.088   4.994 -0.5048 -0.6107  0.4342
  473MOL0     C63760   2.692   5.152   4.902 -0.2094  0.1286  0.5997
  473MOL0     C63761   2.581   5.209   4.982  0.7675  0.7637  0.1571
  473MOL0     C63762   2.465   5.256   4.887 -0.4102  0.0327 -0.3062
  473MOL0     C63763   2.338   5.297   4.957 -0.2006  0.2864 -0.6054
  473MOL0     C63764   2.234   5.346   4.853  0.5904 -0.5808 -0.8564
  473MOL0    Cl63765   2.169   5.226   4.736 -0.0968 -0.1072 -0.0550
  473MOL0     C63766   3.217   4.915   5.233  0.0318  0.1570 -0.4706
  473MOL0     C63767   3.349   4.893   5.282 -0.3517  0.1788  0.3369
  473MOL0     O63768   3.648   4.887   5.069 -0.5835 -0.5884 -1.0374
  473MOL0     C63769   3.849   4.907   5.360  0.2049  0.3942  0.1270
  473MOL0     C63770   3.981   4.882   5.408  0.1739  0.0150 -0.1845
  473MOL0     N63771   4.654   4.975   5.717  1.1810  0.0979 -0.4121
  473MOL0     N63772   4.716   4.992   5.827  0.3089 -0.1894 -0.3704
  473MOL0     C63773   5.934   4.880   6.403  0.5161  0.2051 -0.2007
  473MOL0     C63774   6.069   4.876   6.381  0.3477  0.2084 -0.1300
  473MOL0     C63775   6.479   5.036   6.212  0.0655  0.1754 -0.1337
  473MOL0     C63776   6.559   5.007   6.328 -0.2077 -0.0052  0.6986
  473MOL0     C63777   6.703   4.996   6.323 -0.3749  0.8170 -0.3584
  473MOL0     C63778   6.770   5.007   6.203  1.0092  0.1842 -0.1242
  473MOL0     O63779   6.900   4.976   6.205 -0.2843 -0.3127  0.0012
  473MOL0     C63780   6.959   4.978   6.082 -0.0272 -0.4334  0.0825
  473MOL0     C63781   7.097   4.916   6.101 -0.6591 -0.3216 -0.1305
  473MOL0     C63782   7.149   4.875   5.965 -0.9347  0.1586  0.3303
  473MOL0     C63783   7.271   4.785   5.972 -0.7633  0.3338 -0.7452
  473MOL0     C63784   7.339   4.762   5.841 -0.1127 -0.0078 -0.3112
  473MOL0     C63785   7.414   4.733   5.754  0.3442 -0.3860  0.1966
  473MOL0     C63786   6.690   5.033   6.085  0.3772  1.4154  0.2255
  473MOL0     C63787   6.549   5.051   6.093 -0.4275  0.6416  0.0527
  473MOL0     H63788   6.105   5.210   6.296 -1.0789  0.9844  0.9099
  473MOL0     H63789   5.867   5.210   6.350  2.4681  1.5275 -1.3024
  473MOL0     H63790   5.658   5.147   6.297 -1.0748 -0.4169 -0.1869
  473MOL0     H63791   5.693   4.999   6.206 -3.3806 -1.4085 -1.1125
  473MOL0     H63792   5.498   4.886   6.302 -1.0396 -0.4300 -0.3413
  473MOL0     H63793   5.473   5.018   6.408 -1.2849 -3.5496  0.0334
  473MOL0     H63794   5.430   5.169   6.219  1.7507 -0.7087  1.2546
  473MOL0     H63795   5.460   5.042   6.099  1.0647 -0.9272  1.0857
  473MOL0     H63796   5.308   4.892   6.221  5.3796  0.6894  1.5368
  473MOL0     H63797   5.236   5.033   6.303  3.4241  3.6761  1.3612
  473MOL0     H63798   5.176   5.129   6.076 -1.6185 -0.0932 -0.6689
  473MOL0     H63799   5.227   4.972   6.005 -3.8010  0.6967 -1.6415
  473MOL0     H63800   5.053   4.863   6.147 -1.2550  0.1357 -3.1076
  473MOL0     H63801   5.004   5.016   6.205  0.9281 -1.5585  1.3004
  473MOL0     H63802   4.942   5.071   5.983  2.2139  1.0885  3.8529
  473MOL0     H63803   5.024   4.933   5.904  0.7454  2.1199 -0.1633
  473MOL0     H63804   4.790   4.905   6.098  1.8028  0.6163  0.3134
  473MOL0     H63805   4.882   4.769   6.018  3.2394  1.1730  3.7190
  473MOL0     H63806   4.731   4.669   5.817 -0.6139  0.1803 -3.0045
  473MOL0     H63807   4.614   4.800   5.485  0.5801 -1.6415 -0.7925
  473MOL0     H63808   4.593   4.662   5.590 -0.5631 -0.5177  0.2217
  473MOL0     H63809   4.397   4.881   5.573  1.8768  1.6531  0.7608
  473MOL0     H63810   4.375   4.755   5.683 -3.3551  1.9849 -1.5366
  473MOL0     H63811   4.381   4.574   5.506 -0.0773 -1.0586  0.2125
  473MOL0     H63812   4.416   4.690   5.382 -0.1333 -0.7317  1.1144
  473MOL0     H63813   4.155   4.711   5.522 -2.1867 -0.0998 -1.8368
  473MOL0     H63814   4.179   4.619   5.377 -3.5607  0.7386  1.7710
  473MOL0     H63815   4.137   4.819   5.124 -0.7003 -0.3279  1.1697
  473MOL0     H63816   4.018   4.827   4.939 -0.4366 -1.0919  1.0190
  473MOL0     H63817   3.852   4.763   4.955  1.8760 -2.5170  2.0147
  473MOL0     H63818   3.884   4.939   4.933  1.5634 -0.0446 -1.1513
  473MOL0     H63819   3.520   5.147   5.131 -0.1034 -0.2900 -0.7191
  473MOL0     H63820   3.265   5.174   5.029  0.0147 -0.3483  0.0553
  473MOL0     H63821   3.078   4.921   4.936  0.2545 -1.3019 -0.6987
  473MOL0     H63822   2.957   4.883   5.067  2.9939  1.1183  2.0147
  473MOL0     H63823   2.957   5.117   4.852 -3.4949  2.4239  0.0025
  473MOL0     H63824   2.882   4.979   4.829  2.4305  0.6865 -1.6108
  473MOL0     H63825   2.823   5.154   5.076 -1.3523  1.4044 -0.8371
  473MOL0     H63826   2.748   5.003   5.044 -0.8690 -1.3527 -1.1002
  473MOL0     H63827   2.741   5.241   4.862  0.7628 -1.2220 -1.3997
  473MOL0     H63828   2.658   5.084   4.823 -0.9040 -0.8931  1.7451
  473MOL0     H63829   2.619   5.286   5.051 -2.7769 -0.2989  3.7027
  473MOL0     H63830   2.536   5.137   5.052  1.1208  2.3734  2.1628
  473MOL0     H63831   2.502   5.340   4.827 -0.7206 -0.3632 -1.0613
  473MOL0     H63832   2.444   5.180   4.811  2.5489  0.0758 -1.3203
  473MOL0     H63833   2.366   5.359   5.042 -0.2193 -2.4707  1.5077
  473MOL0     H63834   2.290   5.214   5.009 -2.5105  2.9432  1.8657
  473MOL0     H63835   2.274   5.427   4.791 -0.7518  2.7741  2.2395
  473MOL0     H63836   2.152   5.398   4.904 -1.3933 -0.6159 -3.7406
  473MOL0     H63837   3.144   4.842   5.268  1.1518 -0.1950  1.2606
  473MOL0     H63838   3.370   4.820   5.360 -0.6933  1.3180  1.5487
  473MOL0     H63839   3.770   4.913   5.433 -0.6744 -0.8054 -0.6987
  473MOL0     H63840   3.999   4.896   5.514  1.2336  1.6958 -0.5587
  473MOL0     H63841   5.888   4.789   6.439  0.7797 -0.5227 -1.6106
  473MOL0     H63842   6.125   4.786   6.403 -0.5492 -0.4072 -0.3176
  473MOL0     H63843   6.494   5.004   6.415 -0.9313  0.3127  0.1752
  473MOL0     H63844   6.764   4.974   6.409 -1.2306 -0.8177 -0.1385
  473MOL0     H63845   6.906   4.922   6.004  1.4241  0.6061 -1.7335
  473MOL0     H63846   6.984   5.075   6.038 -0.0922 -0.8675 -0.9402
  473MOL0     H63847   7.094   4.825   6.162  2.4203  0.1397  0.8851
  473MOL0     H63848   7.163   4.986   6.151 -1.4442 -0.5161  1.2147
  473MOL0     H63849   7.183   4.964   5.912 -2.0642 -1.0164 -2.5752
  473MOL0     H63850   7.073   4.824   5.906 -0.0672 -0.7430 -0.0301
  473MOL0     H63851   7.242   4.687   6.012  0.6964 -0.7591 -2.2251
  473MOL0     H63852   7.345   4.829   6.041 -0.9590 -1.2838  0.5558
  473MOL0     H63853   7.494   4.724   5.683  0.6505  1.1343  0.3256
  473MOL0     H63854   6.731   5.043   5.985  1.3044 -2.3117  0.0528
  473MOL0     H63855   6.493   5.074   6.003  0.0454 -0.3162 -0.4979
  474MOL0     O63856   7.413  10.103   8.962 -0.2828  0.2093 -0.0325
  474MOL0     C63857   7.458  10.215   8.942  0.3739 -0.3927 -0.6477
  474MOL0     O63858   7.385  10.323   8.909 -0.4406 -0.0967 -0.4735
  474MOL0     C63859   7.250  10.327   8.933  0.2129 -0.0966 -0.1882
  474MOL0     C63860   7.202  10.306   9.062 -0.3719  0.3611  0.5020
  474MOL0     C63861   7.068  10.322   9.087  0.0526 -0.0422 -1.0916
  474MOL0     C63862   6.977  10.332   8.980 -0.5695 -0.7400  0.2158
  474MOL0     O63863   6.836  10.342   8.992  0.8607 -0.1758 -0.2606
  474MOL0     C63864   6.779  10.326   9.120  0.7580  0.7722 -0.4991
  474MOL0     C63865   6.631  10.345   9.095  0.3364  0.2715 -0.5738
  474MOL0     C63866   6.598  10.488   9.076 -0.5842 -0.4893  0.1056
  474MOL0     C63867   6.461  10.531   9.089 -0.5423  0.3495 -0.3440
  474MOL0     C63868   6.439  10.682   9.055  0.4094 -0.3992 -0.5673
  474MOL0     C63869   6.301  10.738   9.101  0.1746  0.0797  0.4673
  474MOL0     C63870   6.298  10.892   9.051 -0.2886  0.0846 -0.8808
  474MOL0     C63871   6.168  10.959   9.092 -0.0096 -0.9321 -0.6285
  474MOL0     N63872   6.046  10.896   9.065  0.2695 -1.1108 -0.6058
  474MOL0     C63873   5.978  10.913   8.947 -0.0257 -0.2710 -0.4498
  474MOL0     C63874   5.880  10.817   8.957 -0.0925 -0.1883  0.5142
  474MOL0     C63875   5.783  10.801   8.844  0.7119  0.0735 -0.4049
  474MOL0     C63876   5.644  10.845   8.875 -0.0835 -0.2049 -0.1263
  474MOL0     C63877   5.568  10.744   8.963  0.2160  0.2198  0.1505
  474MOL0     C63878   5.417  10.775   8.968 -0.3428 -0.8088  0.2082
  474MOL0     O63879   5.353  10.755   8.838 -0.1481 -0.0755 -0.1203
  474MOL0     C63880   5.232  10.813   8.814  0.9042 -0.1061 -0.5476
  474MOL0     C63881   5.167  10.908   8.895 -0.3251 -0.0295 -0.4706
  474MOL0     C63882   5.042  10.965   8.862  0.0055  0.5617 -0.1591
  474MOL0     C63883   5.001  11.074   8.958  0.2898 -0.3169 -0.3851
  474MOL0     C63884   4.975  10.925   8.745 -0.1857  0.0394  0.3295
  474MOL0     C63885   4.848  10.979   8.698  0.0349  0.5450 -0.0640
  474MOL0     O63886   4.774  10.891   8.610 -0.1533 -0.5261  0.0671
  474MOL0     C63887   4.657  10.941   8.561  0.0211  0.0016  0.5328
  474MOL0     C63888   4.548  10.942   8.641  0.3926 -0.0318  0.9273
  474MOL0     C63889   4.431  10.996   8.585  0.1967 -0.0151  0.0734
  474MOL0     C63890   4.427  11.052   8.452  0.2595 -0.1391  0.3340
  474MOL0     O63891   4.303  11.096   8.420  0.2625  0.6889  0.3435
  474MOL0     C63892   4.286  11.170   8.294  0.8240  0.4545  1.0465
  474MOL0     C63893   4.175  11.266   8.295  1.1632  0.5918  0.2191
  474MOL0     C63894   4.115  11.299   8.157  0.1799  0.4274 -0.8046
  474MOL0     C63895   4.012  11.411   8.156 -0.1919  0.6948  0.3929
  474MOL0     C63896   3.939  11.404   8.021 -0.2749  0.6270 -0.1080
  474MOL0     C63897   3.868  11.535   7.990  0.1781  1.5446 -0.4324
  474MOL0     C63898   3.823  11.539   7.850  0.5892 -1.0693 -0.3557
  474MOL0     C63899   3.755  11.675   7.833  0.1555  0.3436 -0.4259
  474MOL0    Cl63900   3.687  11.698   7.664  0.6589  0.2027  0.0449
  474MOL0     C63901   4.542  11.035   8.376 -0.2222 -0.6875  0.5540
  474MOL0     C63902   4.652  10.978   8.430  0.4757  0.2291  0.3749
  474MOL0     O63903   4.816  11.097   8.721 -0.3280 -0.2049 -0.3608
  474MOL0     C63904   5.052  10.842   8.663  0.2053  0.6286  0.2198
  474MOL0     C63905   5.178  10.794   8.689  0.1967  0.4907 -0.2142
  474MOL0     N63906   5.885  10.762   9.084 -0.5259  0.4841  0.7051
  474MOL0     N63907   5.988  10.804   9.145  0.4075 -0.5364  0.6431
  474MOL0     C63908   7.020  10.339   8.850 -0.4593  1.3858  0.1767
  474MOL0     C63909   7.163  10.340   8.830 -0.0022  0.3275  0.6407
  474MOL0     C63910   7.605  10.227   8.945  0.2421  0.0983 -0.4742
  474MOL0     C63911   7.688  10.120   8.970  0.6728 -0.1501  0.8478
  474MOL0     C63912   7.826  10.127   8.964  1.2940 -0.4533 -0.7682
  474MOL0     C63913   7.888  10.245   8.946  0.4713 -0.9578 -0.6391
  474MOL0     O63914   8.026  10.242   8.940 -0.3728 -0.1626 -0.5955
  474MOL0     C63915   8.098  10.367   8.941 -0.4518  0.3735 -0.3018
  474MOL0     C63916   8.242  10.322   8.954  0.2114  0.3147 -0.8206
  474MOL0     C63917   8.326  10.458   8.978  0.0472  0.8039  0.0396
  474MOL0     C63918   8.472  10.422   9.009 -0.7081  0.0281  0.3030
  474MOL0     C63919   8.571  10.524   8.974 -1.2936 -0.7795  1.4490
  474MOL0     C63920   8.664  10.603   8.939  0.0926 -0.2737  0.0388
  474MOL0     C63921   7.807  10.358   8.922 -0.4840 -0.4988  0.3932
  474MOL0     C63922   7.672  10.350   8.931  0.0718  0.2289 -0.2139
  474MOL0     H63923   7.264  10.287   9.149 -2.1734 -0.6483  1.6401
  474MOL0     H63924   7.049  10.323   9.194 -0.9712  0.2237 -1.2575
  474MOL0     H63925   6.803  10.229   9.164  3.8237  0.6771 -2.0832
  474MOL0     H63926   6.818  10.402   9.188 -0.9679  1.6846 -0.4807
  474MOL0     H63927   6.595  10.280   9.016 -1.7117  0.1777  0.3855
  474MOL0     H63928   6.586  10.308   9.188 -0.4137  0.8638 -0.6977
  474MOL0     H63929   6.661  10.555   9.135 -2.2671  0.4665  0.8836
  474MOL0     H63930   6.617  10.503   8.970 -0.3960  1.3514  0.3585
  474MOL0     H63931   6.394  10.465   9.033 -1.2847  1.4606 -0.8028
  474MOL0     H63932   6.439  10.507   9.194  1.9115  2.4347  0.7672
  474MOL0     H63933   6.498  10.755   9.112 -1.2711  1.8316 -1.5329
  474MOL0     H63934   6.455  10.681   8.947  0.9654 -2.0674 -0.4949
  474MOL0     H63935   6.222  10.690   9.041  0.0239  1.9799 -0.9399
  474MOL0     H63936   6.288  10.735   9.209  0.6876 -0.0305  0.5286
  474MOL0     H63937   6.385  10.939   9.096 -0.2584  0.1138 -0.9718
  474MOL0     H63938   6.317  10.890   8.944 -0.6640 -0.9467 -0.9436
  474MOL0     H63939   6.166  11.056   9.043  0.1573 -0.6668 -0.1159
  474MOL0     H63940   6.186  10.976   9.199  2.6423  0.5620 -1.2252
  474MOL0     H63941   5.999  10.984   8.867  0.1041  0.4041  0.1771
  474MOL0     H63942   5.823  10.861   8.762  2.9976 -0.6482  0.1022
  474MOL0     H63943   5.793  10.702   8.797  0.2918 -0.1275 -0.0766
  474MOL0     H63944   5.590  10.859   8.781  1.4404  3.6134 -0.6214
  474MOL0     H63945   5.646  10.944   8.921  2.8662 -0.0771 -0.3156
  474MOL0     H63946   5.613  10.743   9.063 -2.5442  1.0933  1.5246
  474MOL0     H63947   5.589  10.645   8.921 -0.2192  0.2351 -0.1154
  474MOL0     H63948   5.423  10.879   8.999 -0.3373 -1.5686  3.0001
  474MOL0     H63949   5.363  10.717   9.043 -1.0928  1.4574  1.5063
  474MOL0     H63950   5.213  10.933   8.990 -1.5732  1.2945 -0.1943
  474MOL0     H63951   5.045  11.057   9.057 -1.7243 -1.9140  0.3091
  474MOL0     H63952   5.019  11.173   8.916  0.8357 -0.7000 -1.0805
  474MOL0     H63953   4.894  11.064   8.979  0.6666 -3.4911  0.6598
  474MOL0     H63954   4.551  10.900   8.741 -2.8286 -1.1840  0.6782
  474MOL0     H63955   4.339  11.014   8.640 -1.4420  2.6405 -3.2040
  474MOL0     H63956   4.380  11.221   8.270  1.4078 -1.7758 -2.0245
  474MOL0     H63957   4.270  11.098   8.213  0.5421  1.0945  0.5228
  474MOL0     H63958   4.093  11.219   8.350 -0.0178 -0.4973 -2.3005
  474MOL0     H63959   4.210  11.353   8.351  1.4513  0.0772  0.8524
  474MOL0     H63960   4.074  11.205   8.119  2.7208 -0.8333 -0.6988
  474MOL0     H63961   4.203  11.327   8.097  0.7638  0.8164  0.2099
  474MOL0     H63962   3.939  11.395   8.235 -0.2350 -0.2587  0.1727
  474MOL0     H63963   4.058  11.510   8.171  0.1355  0.9196 -1.7627
  474MOL0     H63964   3.870  11.319   8.018 -0.7099  0.8944  1.4824
  474MOL0     H63965   4.014  11.386   7.943  1.2871 -0.9811  1.6531
  474MOL0     H63966   3.782  11.555   8.053  1.5227 -0.2622  2.1393
  474MOL0     H63967   3.932  11.622   8.006 -0.0620  1.7089 -0.3611
  474MOL0     H63968   3.750  11.460   7.829  2.8055 -4.2668  2.7541
  474MOL0     H63969   3.908  11.535   7.782  0.1169  1.9104 -1.2934
  474MOL0     H63970   3.833  11.750   7.847 -0.7276  0.8192  2.8083
  474MOL0     H63971   3.669  11.699   7.896 -0.3048  0.2369 -0.9968
  474MOL0     H63972   4.531  11.051   8.269  0.0175 -1.5568  0.3950
  474MOL0     H63973   4.734  10.983   8.360  0.2144  0.4050  0.0794
  474MOL0     H63974   5.009  10.808   8.569 -0.3491  0.1441  0.6425
  474MOL0     H63975   5.238  10.732   8.623  1.0979  0.2222  0.8225
  474MOL0     H63976   6.951  10.353   8.768  0.6588 -0.2244 -1.0860
  474MOL0     H63977   7.198  10.353   8.728  0.3804 -2.4771  0.3309
  474MOL0     H63978   7.646  10.021   8.983  3.5335 -1.7197 -0.7571
  474MOL0     H63979   7.891  10.040   8.973  1.3940 -0.3115 -0.0721
  474MOL0     H63980   8.098  10.404   8.838  0.4293  0.2216 -0.3575
  474MOL0     H63981   8.052  10.434   9.015  0.2971  0.7219 -0.1505
  474MOL0     H63982   8.290  10.259   8.879 -1.7905 -1.8350 -0.4048
  474MOL0     H63983   8.237  10.260   9.044  1.5439 -0.5555 -1.3138
  474MOL0     H63984   8.275  10.500   9.066 -1.7406 -0.9956 -0.0491
  474MOL0     H63985   8.323  10.529   8.895 -0.6176  0.4709 -0.2319
  474MOL0     H63986   8.498  10.326   8.963 -1.3681  0.9329 -2.0602
  474MOL0     H63987   8.467  10.414   9.118 -3.9673  0.6446  0.2777
  474MOL0     H63988   8.733  10.672   8.896  1.5164 -1.8104 -0.2873
  474MOL0     H63989   7.846  10.457   8.899 -2.9855  0.7103  0.9321
  474MOL0     H63990   7.614  10.441   8.924 -1.1825 -0.2038  2.8909
  475MOL0     O63991   2.526   6.213   2.538 -0.7804 -0.5702 -0.0583
  475MOL0     C63992   2.572   6.112   2.588 -0.1256 -0.2191  0.3896
  475MOL0     O63993   2.503   5.989   2.607 -0.7416 -0.0618  0.0350
  475MOL0     C63994   2.376   6.006   2.572  0.6847  1.0181 -0.1159
  475MOL0     C63995   2.283   6.035   2.666  0.1358  0.7370 -0.0497
  475MOL0     C63996   2.155   6.054   2.631  0.3147  0.9261 -0.6740
  475MOL0     C63997   2.118   6.047   2.500  0.9394 -0.2213 -0.7166
  475MOL0     O63998   1.979   6.057   2.484  0.4057 -0.1112  0.8065
  475MOL0     C63999   1.914   6.028   2.352 -0.2416 -0.3906 -0.7803
  475MOL0     C64000   1.778   6.095   2.342  0.9472  0.0619 -1.1270
  475MOL0     C64001   1.680   6.059   2.455  0.7463  0.5905  0.3870
  475MOL0     C64002   1.613   5.923   2.440 -0.0235 -0.0149 -0.0771
  475MOL0     C64003   1.517   5.900   2.560 -0.8080 -0.4813 -0.3319
  475MOL0     C64004   1.446   5.758   2.542 -0.1424 -1.3574 -0.0435
  475MOL0     C64005   1.338   5.736   2.437 -0.6420 -0.0173  1.1732
  475MOL0     C64006   1.231   5.847   2.427  0.8214 -0.0250 -0.0543
  475MOL0     N64007   1.147   5.850   2.549  0.4730 -0.3024  0.0588
  475MOL0     C64008   1.030   5.779   2.567  0.1889 -1.0037 -0.4433
  475MOL0     C64009   0.978   5.832   2.677 -0.6100 -0.2249 -0.2392
  475MOL0     C64010   0.874   5.764   2.756  0.4677 -0.2688 -0.8658
  475MOL0     C64011   0.732   5.764   2.693 -0.4667  0.6188 -0.3116
  475MOL0     C64012   0.627   5.669   2.760  0.5264 -1.2889 -0.0632
  475MOL0     C64013   0.554   5.740   2.876  0.6179  0.9029  0.0607
  475MOL0     O64014   0.446   5.652   2.912 -0.0708  0.1752 -0.3263
  475MOL0     C64015   0.353   5.697   3.002  0.4987 -0.9221 -0.5550
  475MOL0     C64016   0.314   5.827   3.018  0.3779 -0.7019  0.2515
  475MOL0     C64017   0.204   5.873   3.089  0.8854  0.0925  0.4220
  475MOL0     C64018   0.186   6.025   3.118 -0.5129 -0.9826 -1.0833
  475MOL0     C64019   0.117   5.772   3.148 -0.0610 -0.0403 -0.4762
  475MOL0     C64020  -0.005   5.806   3.217  0.3598  0.4586 -0.2849
  475MOL0     O64021  -0.064   5.929   3.205 -0.4056 -0.4789  0.4142
  475MOL0     C64022  -0.167   5.960   3.297 -0.4354 -0.5031  0.7681
  475MOL0     C64023  -0.295   5.896   3.292 -0.4260  0.2930  0.5874
  475MOL0     C64024  -0.399   5.944   3.375 -0.1291  0.6495  0.5091
  475MOL0     C64025  -0.381   6.052   3.462 -0.7741  0.0377 -1.3458
  475MOL0     O64026  -0.485   6.099   3.540 -0.3912  0.7282  0.0732
  475MOL0     C64027  -0.617   6.075   3.493  0.4641 -0.0231 -0.8561
  475MOL0     C64028  -0.719   6.159   3.579  0.0127 -0.4626  0.0670
  475MOL0     C64029  -0.857   6.102   3.543  0.3495 -0.4277 -0.7809
  475MOL0     C64030  -0.961   6.182   3.633 -0.9081 -0.1120  0.2540
  475MOL0     C64031  -1.111   6.128   3.636  0.1493  0.4123  0.5680
  475MOL0     C64032  -1.191   6.141   3.510 -0.4730 -0.4953  0.9246
  475MOL0     C64033  -1.169   6.283   3.433 -0.0323  1.6332 -0.4023
  475MOL0     C64034  -1.230   6.400   3.508 -0.5377  1.0125  1.1538
  475MOL0    Cl64035  -1.409   6.356   3.529  0.0346  0.4609 -0.1092
  475MOL0     C64036  -0.261   6.121   3.462  0.0618  0.5665  0.4272
  475MOL0     C64037  -0.157   6.079   3.374 -0.1018 -0.2358 -0.7387
  475MOL0     O64038  -0.057   5.720   3.288  0.3112  0.1319  0.2582
  475MOL0     C64039   0.145   5.636   3.125 -0.4148  0.4051 -0.2843
  475MOL0     C64040   0.265   5.602   3.060 -0.1527 -0.4731  0.8255
  475MOL0     N64041   1.066   5.935   2.726  0.4973 -0.6628 -0.6750
  475MOL0     N64042   1.162   5.944   2.648 -0.2576 -0.1783  0.4901
  475MOL0     C64043   2.211   6.017   2.398 -1.0072 -0.4949  0.2190
  475MOL0     C64044   2.337   5.993   2.435 -0.0175  0.0985 -0.2367
  475MOL0     C64045   2.707   6.128   2.640 -0.2328  0.0752 -0.0129
  475MOL0     C64046   2.794   6.237   2.600 -0.9766 -0.4715 -0.4060
  475MOL0     C64047   2.921   6.254   2.664 -0.2829 -1.1572  1.0298
  475MOL0     C64048   2.968   6.162   2.762 -0.0761 -0.3473  0.0087
  475MOL0     O64049   3.093   6.186   2.805 -0.7863 -0.0768 -0.1976
  475MOL0     C64050   3.159   6.060   2.825 -0.1685  0.0033 -0.6683
  475MOL0     C64051   3.199   5.981   2.708 -1.1700 -0.3861  0.5826
  475MOL0     C64052   3.256   5.842   2.748 -0.3668 -0.2110  0.0462
  475MOL0     C64053   3.411   5.855   2.783 -0.0400  0.8493 -0.9297
  475MOL0     C64054   3.466   5.726   2.837  0.0591  0.1757 -0.1920
  475MOL0     C64055   3.515   5.617   2.863  0.3139  0.7221  0.2591
  475MOL0     C64056   2.878   6.061   2.812 -0.5544  0.2847  1.1672
  475MOL0     C64057   2.754   6.045   2.742  0.3702  0.2657  0.1472
  475MOL0     H64058   2.331   6.036   2.764  2.8620 -0.7414 -1.2520
  475MOL0     H64059   2.087   6.091   2.707 -2.3665 -0.5731 -2.1733
  475MOL0     H64060   1.977   6.063   2.270  1.7588  1.1837  1.2918
  475MOL0     H64061   1.895   5.920   2.348 -0.4566 -0.4415  0.8205
  475MOL0     H64062   1.795   6.202   2.355 -0.8090  0.0669  1.7299
  475MOL0     H64063   1.735   6.085   2.242 -0.5863  2.2130 -0.7570
  475MOL0     H64064   1.734   6.064   2.550 -0.7310 -0.4740  1.3318
  475MOL0     H64065   1.610   6.142   2.461  0.8537  0.7684 -0.6569
  475MOL0     H64066   1.546   5.911   2.355 -0.1887 -1.4303  0.2270
  475MOL0     H64067   1.690   5.846   2.439  3.3874  3.0181  2.4763
  475MOL0     H64068   1.568   5.894   2.657 -1.3597 -0.7536 -0.0536
  475MOL0     H64069   1.441   5.976   2.579 -1.0517 -1.3029  2.4736
  475MOL0     H64070   1.528   5.689   2.525  1.3435 -0.2428  2.1062
  475MOL0     H64071   1.396   5.744   2.639 -0.6572 -0.7049 -0.1991
  475MOL0     H64072   1.386   5.727   2.339  0.7738  0.9386  1.7379
  475MOL0     H64073   1.285   5.643   2.459 -1.7959 -1.1323 -4.6528
  475MOL0     H64074   1.162   5.831   2.343  0.6545  1.0742 -0.1397
  475MOL0     H64075   1.280   5.942   2.407  2.4512 -0.3978  1.8382
  475MOL0     H64076   0.989   5.702   2.503  1.3445 -1.8866 -0.1573
  475MOL0     H64077   0.903   5.661   2.780 -2.1342 -1.0995 -0.9269
  475MOL0     H64078   0.871   5.817   2.852 -0.2065  0.3282 -1.2033
  475MOL0     H64079   0.745   5.719   2.594 -1.4479 -1.1072  0.3137
  475MOL0     H64080   0.701   5.868   2.683 -0.1571  0.6911 -0.5689
  475MOL0     H64081   0.673   5.576   2.795  1.4484 -1.8327 -2.5552
  475MOL0     H64082   0.556   5.645   2.681 -0.4307 -1.0370  0.6915
  475MOL0     H64083   0.522   5.834   2.831 -0.9831  1.2135  1.7012
  475MOL0     H64084   0.627   5.760   2.956  0.7022  1.7746 -0.2272
  475MOL0     H64085   0.372   5.912   2.984  0.8935 -1.7136 -1.5088
  475MOL0     H64086   0.284   6.072   3.104 -0.5851 -1.0371 -1.7782
  475MOL0     H64087   0.106   6.065   3.054 -0.2812 -1.2453 -1.5381
  475MOL0     H64088   0.173   6.044   3.225  1.6724  1.4583 -1.1265
  475MOL0     H64089  -0.306   5.804   3.236  0.1161 -0.1512  1.1977
  475MOL0     H64090  -0.493   5.889   3.375 -0.8369  1.8466  0.3309
  475MOL0     H64091  -0.622   6.099   3.386  2.9124  0.9128 -0.8066
  475MOL0     H64092  -0.638   5.968   3.503  1.4775 -0.0216  1.8734
  475MOL0     H64093  -0.693   6.124   3.679  1.5357  0.6897  0.0976
  475MOL0     H64094  -0.712   6.268   3.574 -3.0536 -0.1890 -0.5210
  475MOL0     H64095  -0.863   5.995   3.566 -1.6389 -0.0330  0.9559
  475MOL0     H64096  -0.885   6.125   3.440  2.0426  3.3605 -0.5406
  475MOL0     H64097  -0.932   6.177   3.739  3.5869  1.6063 -0.6737
  475MOL0     H64098  -0.958   6.289   3.608 -0.4999 -0.3301 -0.6280
  475MOL0     H64099  -1.166   6.190   3.708  1.4936  3.1476 -0.6011
  475MOL0     H64100  -1.109   6.025   3.670 -2.2519  0.5361  1.2667
  475MOL0     H64101  -1.145   6.066   3.445  0.6967 -1.3261  2.6459
  475MOL0     H64102  -1.293   6.104   3.521 -0.5691 -0.1488  1.2101
  475MOL0     H64103  -1.215   6.275   3.335  1.9472 -0.5237 -1.2511
  475MOL0     H64104  -1.064   6.303   3.411  1.2496 -2.4224  0.9822
  475MOL0     H64105  -1.234   6.486   3.441 -0.9479 -1.2187 -1.8778
  475MOL0     H64106  -1.177   6.422   3.601  1.8972 -0.0045  0.0906
  475MOL0     H64107  -0.255   6.198   3.538  0.0927 -1.7744  2.9630
  475MOL0     H64108  -0.062   6.132   3.373  0.8707 -1.8508  0.6449
  475MOL0     H64109   0.093   5.558   3.179 -1.5944  2.4376  1.7096
  475MOL0     H64110   0.293   5.498   3.042  4.7676  0.4076  1.9253
  475MOL0     H64111   2.174   5.997   2.298  1.3843  0.9813 -1.0669
  475MOL0     H64112   2.412   5.961   2.363 -0.9949  1.9847 -2.2080
  475MOL0     H64113   2.754   6.307   2.528 -0.6439 -2.4226 -2.5780
  475MOL0     H64114   2.990   6.337   2.647  0.4954 -1.6379  1.7379
  475MOL0     H64115   3.253   6.095   2.871 -0.6288  2.3733 -1.3718
  475MOL0     H64116   3.106   5.990   2.891 -1.5398  0.4118 -1.2993
  475MOL0     H64117   3.262   6.036   2.638 -2.2562 -4.4573 -4.0826
  475MOL0     H64118   3.113   5.960   2.643  0.8196 -1.4452 -1.8654
  475MOL0     H64119   3.245   5.773   2.664  0.9458  0.4985 -0.7454
  475MOL0     H64120   3.203   5.794   2.831 -0.6961  1.7309  1.0225
  475MOL0     H64121   3.429   5.935   2.856 -1.2309 -2.2915  3.2651
  475MOL0     H64122   3.462   5.888   2.693 -1.3142  1.8347 -1.3149
  475MOL0     H64123   3.563   5.537   2.916  0.3773  1.4979  1.4116
  475MOL0     H64124   2.898   5.983   2.884 -0.0823 -1.9513 -1.2195
  475MOL0     H64125   2.681   5.973   2.779 -1.2962  0.6533 -2.1843
  476MOL0     O64126   9.972   5.199   8.321  0.3522 -0.1453  0.3939
  476MOL0     C64127  10.002   5.082   8.320 -0.1008  0.2911 -0.5812
  476MOL0     O64128   9.948   4.985   8.412  0.0089 -0.0691  0.0289
  476MOL0     C64129   9.837   5.013   8.493 -0.1920 -0.7987 -0.2554
  476MOL0     C64130   9.816   5.134   8.560 -0.2515 -0.9910  0.4934
  476MOL0     C64131   9.713   5.150   8.641 -0.2047  0.3525  0.2457
  476MOL0     C64132   9.602   5.062   8.636  0.0216  0.4864  0.4316
  476MOL0     O64133   9.490   5.074   8.716 -1.0163 -0.1468  0.0321
  476MOL0     C64134   9.419   5.200   8.712 -0.1450 -0.3530  0.0910
  476MOL0     C64135   9.279   5.173   8.761  0.5668 -0.2546 -0.1431
  476MOL0     C64136   9.197   5.081   8.656  0.1055 -0.3283  1.0902
  476MOL0     C64137   9.052   5.068   8.700 -0.3049  0.0157 -0.7031
  476MOL0     C64138   8.969   4.987   8.609  0.8414 -0.0803  0.6850
  476MOL0     C64139   8.842   4.959   8.684  0.4762  0.2653  0.4950
  476MOL0     C64140   8.846   4.833   8.780 -0.7574 -0.6907  0.2770
  476MOL0     C64141   8.705   4.773   8.813  0.3552  0.0762  0.4004
  476MOL0     N64142   8.613   4.764   8.707 -0.7788  0.3276  0.0264
  476MOL0     C64143   8.609   4.672   8.599  0.2634  0.0506 -0.0675
  476MOL0     C64144   8.492   4.695   8.535  0.2942  0.1359 -0.8910
  476MOL0     C64145   8.424   4.624   8.417 -0.6034  0.0428  0.1499
  476MOL0     C64146   8.304   4.692   8.345  0.5567 -0.2870 -0.1413
  476MOL0     C64147   8.199   4.599   8.299  0.0309  0.2929 -0.4684
  476MOL0     C64148   8.070   4.665   8.250 -0.8465 -0.4646 -0.0150
  476MOL0     O64149   8.017   4.589   8.144  0.1394 -0.5759  0.6487
  476MOL0     C64150   7.886   4.614   8.110 -0.9807 -0.7418  0.4445
  476MOL0     C64151   7.795   4.702   8.166  0.2860  1.4333 -0.2346
  476MOL0     C64152   7.668   4.707   8.112 -0.3601  0.0241  1.0435
  476MOL0     C64153   7.583   4.811   8.173  0.4820  0.0946  0.9385
  476MOL0     C64154   7.626   4.616   8.005  0.3153 -0.4327  0.5768
  476MOL0     C64155   7.489   4.604   7.942  0.6756  0.3372 -0.6362
  476MOL0     O64156   7.466   4.489   7.879  0.3427 -0.4343 -0.3027
  476MOL0     C64157   7.344   4.467   7.837  0.1995 -0.3546 -0.2360
  476MOL0     C64158   7.266   4.361   7.882  0.5359  0.2667 -0.2245
  476MOL0     C64159   7.137   4.347   7.836 -0.6448  1.0248  0.9713
  476MOL0     C64160   7.080   4.431   7.742 -0.4427 -0.0523  0.0191
  476MOL0     O64161   6.952   4.407   7.705  0.1206 -0.0466 -1.2030
  476MOL0     C64162   6.876   4.527   7.677 -0.8632 -0.0011  0.2843
  476MOL0     C64163   6.726   4.515   7.639 -0.5199  0.7200 -0.7822
  476MOL0     C64164   6.653   4.457   7.770 -0.1654 -0.4473 -0.5257
  476MOL0     C64165   6.512   4.432   7.733  0.4588 -0.1284 -0.4916
  476MOL0     C64166   6.428   4.557   7.772  1.4109  0.0490  0.0367
  476MOL0     C64167   6.282   4.524   7.727 -0.7094  0.0503  0.2289
  476MOL0     C64168   6.269   4.547   7.575  0.3270 -0.4909 -0.0148
  476MOL0     C64169   6.122   4.535   7.530  0.2404  0.0376  0.2096
  476MOL0    Cl64170   6.036   4.375   7.565 -0.1047 -0.0492  0.0413
  476MOL0     C64171   7.157   4.539   7.693  0.1518  0.7427 -0.4928
  476MOL0     C64172   7.282   4.560   7.748  0.2634  0.5189  0.0193
  476MOL0     O64173   7.407   4.690   7.974  0.3575 -0.6360  0.2388
  476MOL0     C64174   7.725   4.545   7.947 -0.2646 -0.8251  0.7663
  476MOL0     C64175   7.854   4.540   7.997  0.7975 -0.6725 -0.0460
  476MOL0     N64176   8.431   4.805   8.600 -0.8180  0.0730 -0.4177
  476MOL0     N64177   8.513   4.853   8.688  0.0669  0.2245  0.6306
  476MOL0     C64178   9.618   4.944   8.560  0.0337  1.0199  0.4254
  476MOL0     C64179   9.735   4.917   8.490 -0.6725 -0.5684 -0.4091
  476MOL0     C64180  10.098   5.035   8.223 -0.0305  0.0474  0.9344
  476MOL0     C64181  10.164   4.915   8.234  0.6861 -0.0956 -0.5613
  476MOL0     C64182  10.273   4.879   8.150  0.2111  0.6946  0.1252
  476MOL0     C64183  10.306   4.955   8.041  0.3724  0.3534  0.1412
  476MOL0     O64184  10.414   4.919   7.962 -0.0825 -0.2719 -0.8393
  476MOL0     C64185  10.435   4.981   7.835  0.2505  0.7755 -0.4248
  476MOL0     C64186  10.517   5.111   7.859  0.0316  0.1721  1.0939
  476MOL0     C64187  10.574   5.164   7.729  0.3773  0.3981 -0.6311
  476MOL0     C64188  10.617   5.307   7.738 -0.1096  0.4501  1.0965
  476MOL0     C64189  10.737   5.326   7.822  0.0710  0.2157  0.2520
  476MOL0     C64190  10.845   5.338   7.879 -0.2996 -0.6937  0.1347
  476MOL0     C64191  10.234   5.074   8.021 -0.2037 -0.7031  0.3045
  476MOL0     C64192  10.137   5.119   8.111  0.2259  0.0245  0.0614
  476MOL0     H64193   9.891   5.213   8.556 -0.7984 -0.5124 -2.0113
  476MOL0     H64194   9.706   5.223   8.721 -0.7432  0.0517  0.4791
  476MOL0     H64195   9.472   5.269   8.778  0.2503  0.8265 -1.4036
  476MOL0     H64196   9.421   5.245   8.612 -2.0323  0.7168  0.4888
  476MOL0     H64197   9.281   5.142   8.866  1.9058  2.4525  0.7286
  476MOL0     H64198   9.224   5.267   8.757  1.7827  0.6634  2.4369
  476MOL0     H64199   9.199   5.120   8.554 -0.6933 -0.4177  1.0341
  476MOL0     H64200   9.252   4.987   8.653  1.4586  0.3565  2.8286
  476MOL0     H64201   9.052   5.034   8.804 -0.7178  0.0435 -0.6914
  476MOL0     H64202   9.011   5.169   8.701 -0.4068 -0.0019  1.9153
  476MOL0     H64203   8.945   5.045   8.519 -0.4835 -1.0586  0.3807
  476MOL0     H64204   9.019   4.898   8.570  3.0367  0.4611  2.0500
  476MOL0     H64205   8.798   5.048   8.731 -2.8130 -0.3364 -1.1197
  476MOL0     H64206   8.776   4.929   8.602  0.6025 -1.0818  0.8565
  476MOL0     H64207   8.901   4.753   8.728 -0.2739  0.1646 -0.5531
  476MOL0     H64208   8.904   4.848   8.871  1.1472 -0.0979 -0.9537
  476MOL0     H64209   8.659   4.837   8.888 -1.9550 -0.7422 -0.2434
  476MOL0     H64210   8.726   4.675   8.859  1.1374 -0.9191 -1.9271
  476MOL0     H64211   8.668   4.585   8.573 -2.6471 -1.9444 -0.5282
  476MOL0     H64212   8.507   4.592   8.353  1.2194  2.2474  1.2654
  476MOL0     H64213   8.379   4.532   8.455  0.1648 -1.4217 -2.2281
  476MOL0     H64214   8.348   4.738   8.256 -0.6294 -0.0186 -0.6097
  476MOL0     H64215   8.267   4.777   8.403  2.3492  1.2029 -1.0721
  476MOL0     H64216   8.170   4.531   8.380  0.4135 -2.9366 -2.8366
  476MOL0     H64217   8.241   4.530   8.225 -0.8525 -0.5552 -0.1973
  476MOL0     H64218   8.092   4.768   8.220 -0.5088 -0.3953  0.4708
  476MOL0     H64219   8.010   4.663   8.341 -0.8920 -0.8313 -0.0545
  476MOL0     H64220   7.826   4.767   8.247 -0.5989  2.9887 -1.1001
  476MOL0     H64221   7.481   4.774   8.189 -1.0067  2.9364 -1.1532
  476MOL0     H64222   7.629   4.841   8.267  0.6618  1.4973  0.4183
  476MOL0     H64223   7.570   4.894   8.103 -1.6251 -1.4738 -0.6829
  476MOL0     H64224   7.316   4.290   7.946  1.3778  0.8992 -0.1633
  476MOL0     H64225   7.073   4.269   7.876 -1.4363  1.1204 -0.0575
  476MOL0     H64226   6.887   4.597   7.761  0.9562 -0.0302  0.0983
  476MOL0     H64227   6.917   4.589   7.597 -0.4245 -1.2629 -0.4942
  476MOL0     H64228   6.685   4.607   7.598 -1.6633 -1.5445 -5.3462
  476MOL0     H64229   6.722   4.441   7.559  0.7201  0.8058 -0.9504
  476MOL0     H64230   6.668   4.524   7.855  1.5257  1.0279 -1.8996
  476MOL0     H64231   6.708   4.366   7.798  3.6892  2.2722  1.7484
  476MOL0     H64232   6.497   4.409   7.627 -0.7491 -0.0538 -0.3405
  476MOL0     H64233   6.476   4.343   7.785 -0.7779 -0.5833 -2.0507
  476MOL0     H64234   6.459   4.649   7.722 -1.6015 -0.0237 -2.2225
  476MOL0     H64235   6.428   4.568   7.881  1.1709  2.2895 -0.1394
  476MOL0     H64236   6.266   4.416   7.738 -3.5262  0.3654 -0.0962
  476MOL0     H64237   6.206   4.575   7.786 -4.5720 -1.0429 -3.2744
  476MOL0     H64238   6.329   4.475   7.518 -0.7488  0.8609 -3.0871
  476MOL0     H64239   6.312   4.642   7.542  0.7058  0.0182  1.8405
  476MOL0     H64240   6.113   4.568   7.426  0.7720 -0.1912  0.0840
  476MOL0     H64241   6.067   4.612   7.585 -0.9401 -0.7399  0.1487
  476MOL0     H64242   7.110   4.606   7.622 -2.0203 -2.4361 -2.2847
  476MOL0     H64243   7.333   4.648   7.710 -1.5165  0.8139 -1.8047
  476MOL0     H64244   7.709   4.479   7.862  1.4110 -0.9760  0.5343
  476MOL0     H64245   7.931   4.471   7.966 -0.9889 -2.5494 -0.5320
  476MOL0     H64246   9.537   4.871   8.555  0.0613  0.8312  2.0680
  476MOL0     H64247   9.748   4.830   8.425 -1.7702  0.0830 -1.5590
  476MOL0     H64248  10.137   4.843   8.310 -0.0454  2.6782  1.9946
  476MOL0     H64249  10.314   4.780   8.165  0.8528  1.1028  1.1584
  476MOL0     H64250  10.500   4.911   7.782  0.3769 -1.1914  2.1089
  476MOL0     H64251  10.339   4.985   7.784 -0.3405  0.2295  0.6045
  476MOL0     H64252  10.603   5.086   7.923  0.6990 -1.7110 -0.4544
  476MOL0     H64253  10.450   5.186   7.902  0.5928  1.5314 -0.2910
  476MOL0     H64254  10.497   5.163   7.651 -1.1698  1.8629  0.7992
  476MOL0     H64255  10.663   5.102   7.712 -0.4894 -0.8040 -0.8838
  476MOL0     H64256  10.533   5.362   7.782 -0.4960 -0.1587  1.1271
  476MOL0     H64257  10.636   5.347   7.638 -0.9323  0.0493  0.7653
  476MOL0     H64258  10.941   5.363   7.919 -0.3756  2.8970 -1.5307
  476MOL0     H64259  10.254   5.128   7.929  0.9745  1.3136  1.6655
  476MOL0     H64260  10.093   5.216   8.093  0.1831 -0.1853 -1.1031
  477MOL0     O64261   5.897   8.256   7.452 -0.2011  0.0438  0.2839
  477MOL0     C64262   5.994   8.316   7.414 -0.8370 -0.2944  0.3636
  477MOL0     O64263   5.998   8.441   7.348  0.4414  0.4262  0.1927
  477MOL0     C64264   5.871   8.492   7.329 -0.1620 -0.4567  0.7738
  477MOL0     C64265   5.801   8.536   7.444  0.1003 -0.1707  0.1799
  477MOL0     C64266   5.677   8.599   7.437  0.6411 -0.4294  0.0445
  477MOL0     C64267   5.613   8.597   7.308 -0.5214  0.1216 -0.4140
  477MOL0     O64268   5.491   8.659   7.306  0.5744 -0.1849 -0.5605
  477MOL0     C64269   5.390   8.616   7.211  0.3037 -0.2511  0.6967
  477MOL0     C64270   5.258   8.701   7.228  0.4593 -0.1490  0.8755
  477MOL0     C64271   5.139   8.608   7.226  0.0140  0.1776  0.1661
  477MOL0     C64272   5.138   8.538   7.359 -0.2455 -0.3775 -0.9528
  477MOL0     C64273   5.015   8.445   7.371  0.4740 -0.3383 -0.2085
  477MOL0     C64274   4.884   8.528   7.399  0.1837  0.0296  0.2270
  477MOL0     C64275   4.761   8.439   7.411  0.1715  0.4540  0.4664
  477MOL0     C64276   4.639   8.512   7.461 -0.2845 -0.2822 -0.3550
  477MOL0     N64277   4.522   8.427   7.459 -0.1439 -0.2388  1.1671
  477MOL0     C64278   4.434   8.422   7.362  0.2459 -0.0382 -0.0527
  477MOL0     C64279   4.333   8.349   7.406 -0.6260  0.4012  0.0881
  477MOL0     C64280   4.224   8.304   7.309  0.2745 -0.0178  0.7027
  477MOL0     C64281   4.112   8.403   7.285  0.1514  0.5751 -0.2501
  477MOL0     C64282   4.009   8.345   7.190  0.4026 -0.9784 -0.6797
  477MOL0     C64283   3.920   8.235   7.252 -0.4946 -0.7385  0.7034
  477MOL0     O64284   3.832   8.177   7.157 -0.2217  0.1532 -0.7061
  477MOL0     C64285   3.726   8.112   7.216  0.2485 -0.7236  0.3305
  477MOL0     C64286   3.614   8.097   7.132 -0.3685 -1.3023  0.5282
  477MOL0     C64287   3.489   8.049   7.172  0.2157  0.6482  0.9910
  477MOL0     C64288   3.372   8.048   7.079 -0.4359 -0.3291 -0.4347
  477MOL0     C64289   3.474   8.010   7.312 -0.6010 -0.5376  0.3599
  477MOL0     C64290   3.353   7.936   7.368 -0.3560 -0.2131 -0.7431
  477MOL0     O64291   3.272   7.868   7.277 -0.0948  0.0848 -0.0399
  477MOL0     C64292   3.181   7.774   7.320  0.3004 -0.3682 -0.2095
  477MOL0     C64293   3.214   7.640   7.327  0.1140  0.0718  0.0040
  477MOL0     C64294   3.121   7.551   7.393 -0.6478 -0.1153 -0.1075
  477MOL0     C64295   3.002   7.593   7.435  0.1479  0.4492 -0.6186
  477MOL0     O64296   2.911   7.524   7.506  0.4021  0.0561  0.0268
  477MOL0     C64297   2.909   7.383   7.479 -0.0790 -0.0531 -0.1424
  477MOL0     C64298   2.790   7.316   7.556  0.9936  0.0397  0.2373
  477MOL0     C64299   2.656   7.368   7.519  1.2035  0.2570 -0.0918
  477MOL0     C64300   2.584   7.263   7.434  0.2312  0.0591  1.0787
  477MOL0     C64301   2.446   7.304   7.388  0.5115  0.0853  0.5532
  477MOL0     C64302   2.376   7.178   7.338  0.1370 -0.5502  0.0913
  477MOL0     C64303   2.231   7.214   7.287  0.0790  0.9266 -0.4812
  477MOL0     C64304   2.128   7.108   7.344 -0.0329  0.3611  1.2807
  477MOL0    Cl64305   2.095   7.153   7.515  0.4983  0.2133  0.0328
  477MOL0     C64306   2.964   7.726   7.418 -0.2563  0.4768  0.1513
  477MOL0     C64307   3.056   7.815   7.358 -0.1585 -0.8772 -0.6430
  477MOL0     O64308   3.333   7.952   7.490 -0.1896  0.5156 -0.1561
  477MOL0     C64309   3.590   8.025   7.396 -0.4342 -0.6412  0.1704
  477MOL0     C64310   3.713   8.073   7.352 -0.1200 -0.1035 -0.7284
  477MOL0     N64311   4.348   8.324   7.539 -0.4807  0.3830 -0.2779
  477MOL0     N64312   4.475   8.366   7.569  0.2387 -0.6579  0.2545
  477MOL0     C64313   5.672   8.546   7.200  0.1224 -0.6598  0.9539
  477MOL0     C64314   5.807   8.501   7.204 -0.0194  0.3341  0.0990
  477MOL0     C64315   6.125   8.253   7.435 -1.0331  0.5006  0.3709
  477MOL0     C64316   6.238   8.299   7.373  0.4282 -0.2799  0.4633
  477MOL0     C64317   6.359   8.234   7.384 -0.3956  0.5873  0.4123
  477MOL0     C64318   6.382   8.125   7.472  0.0958 -0.4780  0.1166
  477MOL0     O64319   6.500   8.046   7.484  0.3903 -0.5640 -0.2452
  477MOL0     C64320   6.587   8.044   7.372 -0.5929 -0.4505  0.2466
  477MOL0     C64321   6.693   7.930   7.403 -0.0402  0.0295 -0.7068
  477MOL0     C64322   6.802   7.908   7.300  0.2006  0.4759  0.7597
  477MOL0     C64323   6.900   7.796   7.337  0.5146  0.6152 -0.3327
  477MOL0     C64324   6.968   7.827   7.463  0.2569  0.0381 -0.0523
  477MOL0     C64325   7.011   7.851   7.574 -0.6764  0.0785 -0.1368
  477MOL0     C64326   6.273   8.079   7.542  0.2182  0.3995 -0.4617
  477MOL0     C64327   6.147   8.133   7.522  0.6264 -1.5793 -1.0169
  477MOL0     H64328   5.865   8.530   7.531  1.6493  2.1228 -0.7231
  477MOL0     H64329   5.636   8.658   7.518 -2.1510 -2.7140  0.4652
  477MOL0     H64330   5.440   8.623   7.114  1.0742  0.5190  1.1316
  477MOL0     H64331   5.372   8.510   7.227 -0.7995 -0.0129  1.1586
  477MOL0     H64332   5.264   8.758   7.321 -0.5515  1.5913 -0.0708
  477MOL0     H64333   5.240   8.761   7.139  3.2366 -2.4431 -1.4610
  477MOL0     H64334   5.044   8.659   7.210  0.4693  0.6014 -1.3223
  477MOL0     H64335   5.166   8.527   7.158  1.8159 -0.0682  1.0879
  477MOL0     H64336   5.232   8.483   7.366  1.6008  2.0774 -3.6729
  477MOL0     H64337   5.147   8.607   7.444  1.6569 -2.7452  0.8858
  477MOL0     H64338   5.006   8.392   7.276 -0.1505  0.6661 -0.7351
  477MOL0     H64339   5.027   8.370   7.449 -1.8615 -0.7486 -0.1736
  477MOL0     H64340   4.885   8.583   7.493 -2.6912  1.1554 -0.2876
  477MOL0     H64341   4.873   8.600   7.318  3.2908  2.7106  1.9813
  477MOL0     H64342   4.740   8.387   7.317  0.6611 -1.3673  1.3242
  477MOL0     H64343   4.758   8.350   7.474 -1.6700  0.0494 -0.1109
  477MOL0     H64344   4.628   8.603   7.401 -0.2279  0.3739  0.5959
  477MOL0     H64345   4.649   8.539   7.567 -3.3177  1.8041 -0.4766
  477MOL0     H64346   4.442   8.445   7.256  0.8278 -0.2266 -0.0560
  477MOL0     H64347   4.278   8.288   7.215 -2.0691 -1.3129 -0.5239
  477MOL0     H64348   4.192   8.203   7.337  0.5202 -0.7645 -1.5042
  477MOL0     H64349   4.153   8.503   7.265  1.1917  1.0171  3.4117
  477MOL0     H64350   4.060   8.413   7.380  0.1794  1.7124 -0.3422
  477MOL0     H64351   4.057   8.308   7.099  1.3177 -1.0451 -0.1847
  477MOL0     H64352   3.952   8.432   7.156  1.4635 -0.2297 -0.6092
  477MOL0     H64353   3.863   8.279   7.334  0.5215  2.3080 -0.1110
  477MOL0     H64354   3.989   8.159   7.291  0.8166  0.6912  1.2696
  477MOL0     H64355   3.618   8.152   7.038 -2.2501  2.6054  2.5039
  477MOL0     H64356   3.347   7.947   7.046 -3.2136  0.3755 -0.7092
  477MOL0     H64357   3.286   8.095   7.127 -1.0971 -0.6631 -1.2711
  477MOL0     H64358   3.396   8.110   6.992 -2.1627 -0.5067 -1.0604
  477MOL0     H64359   3.311   7.606   7.293  0.5551  0.7721  0.5299
  477MOL0     H64360   3.150   7.446   7.401 -1.4592 -0.2315  2.4578
  477MOL0     H64361   2.890   7.370   7.372 -1.4253  0.4823  0.0205
  477MOL0     H64362   3.003   7.338   7.514 -0.1123  0.1613  0.2272
  477MOL0     H64363   2.789   7.209   7.535  1.1720  0.6282 -3.2705
  477MOL0     H64364   2.786   7.334   7.664  0.8487  0.9823  0.0898
  477MOL0     H64365   2.655   7.462   7.462 -2.9018 -0.2605 -1.2321
  477MOL0     H64366   2.591   7.402   7.600  1.3739  0.3927 -0.0103
  477MOL0     H64367   2.649   7.229   7.352 -0.1313 -0.8970  1.1771
  477MOL0     H64368   2.572   7.172   7.493 -1.4577  1.0474  2.3165
  477MOL0     H64369   2.467   7.379   7.312 -0.7061  1.5775  1.6422
  477MOL0     H64370   2.390   7.349   7.470  3.7712 -0.7197  3.4818
  477MOL0     H64371   2.438   7.136   7.258  0.4770  0.8900 -0.4312
  477MOL0     H64372   2.362   7.104   7.417  2.4382  0.8359  1.9246
  477MOL0     H64373   2.236   7.212   7.177 -0.9834 -0.9008 -0.5350
  477MOL0     H64374   2.206   7.314   7.322  1.4343  1.8659 -2.0503
  477MOL0     H64375   2.165   7.006   7.355  0.4841  0.2607 -0.8990
  477MOL0     H64376   2.028   7.117   7.302 -0.2165  2.7186  2.0586
  477MOL0     H64377   2.872   7.761   7.466 -1.7500 -3.0784  0.1737
  477MOL0     H64378   3.037   7.922   7.358  1.6386 -0.2538  4.6792
  477MOL0     H64379   3.590   7.997   7.501 -0.9210  1.2856  0.7195
  477MOL0     H64380   3.796   8.080   7.422 -0.0837 -2.2719 -0.4995
  477MOL0     H64381   5.623   8.558   7.104  1.5305 -1.3995  0.1083
  477MOL0     H64382   5.861   8.475   7.113 -0.0960 -0.6827  0.3267
  477MOL0     H64383   6.227   8.379   7.300  0.2716 -2.0956 -1.6090
  477MOL0     H64384   6.441   8.275   7.326  2.5475 -0.7219  3.3253
  477MOL0     H64385   6.546   8.025   7.272  1.6625 -1.4701 -0.5475
  477MOL0     H64386   6.640   8.140   7.368 -0.4316 -0.5735 -0.6164
  477MOL0     H64387   6.632   7.848   7.441  0.4196  0.9096  2.1893
  477MOL0     H64388   6.746   7.970   7.491 -0.0970 -0.6576 -0.3580
  477MOL0     H64389   6.864   7.997   7.289  2.4454 -1.1754 -0.9295
  477MOL0     H64390   6.748   7.885   7.208  1.0567 -0.7772  0.5366
  477MOL0     H64391   6.975   7.778   7.260 -1.7333 -1.6043 -2.1799
  477MOL0     H64392   6.853   7.697   7.341  1.0881  0.3801  1.9079
  477MOL0     H64393   7.047   7.887   7.668 -0.6133 -2.3748  0.8427
  477MOL0     H64394   6.268   7.992   7.607 -1.6062  0.4808 -0.4443
  477MOL0     H64395   6.068   8.088   7.581  1.2778 -0.2429  0.9949
  478MOL0     O64396   4.339   7.155   7.056 -0.2342  0.4005 -0.1356
  478MOL0     C64397   4.390   7.054   7.014  0.5589  0.7202 -0.3600
  478MOL0     O64398   4.380   6.928   7.073 -0.0092 -0.2037 -0.0664
  478MOL0     C64399   4.295   6.911   7.180 -0.1386 -0.4796 -0.7331
  478MOL0     C64400   4.157   6.902   7.161 -0.2096  0.0769  0.2217
  478MOL0     C64401   4.073   6.867   7.266  0.3035  0.1478 -0.7067
  478MOL0     C64402   4.120   6.849   7.403 -0.7521  0.1549  1.3565
  478MOL0     O64403   4.050   6.815   7.516 -0.4316 -0.0808  0.8474
  478MOL0     C64404   3.905   6.796   7.509  0.0096 -0.2097 -0.5290
  478MOL0     C64405   3.856   6.653   7.470 -0.5262 -0.4806 -0.1318
  478MOL0     C64406   3.711   6.620   7.516  0.6669 -0.4253 -0.4510
  478MOL0     C64407   3.713   6.580   7.669  0.5061  0.4013 -0.6924
  478MOL0     C64408   3.570   6.571   7.720  0.4215 -0.3253  0.4711
  478MOL0     C64409   3.507   6.447   7.651 -0.1860  0.2181  0.2810
  478MOL0     C64410   3.371   6.402   7.697 -0.2104 -0.1073 -0.6793
  478MOL0     C64411   3.323   6.256   7.673 -0.0936  0.1342  0.4500
  478MOL0     N64412   3.260   6.232   7.541  0.3657  0.4383  0.4008
  478MOL0     C64413   3.328   6.239   7.422 -0.8316 -0.3383  0.6262
  478MOL0     C64414   3.231   6.209   7.328  0.2701  0.7539 -0.8176
  478MOL0     C64415   3.224   6.209   7.177  0.4045  0.2691 -0.0309
  478MOL0     C64416   3.243   6.064   7.136  0.3934  0.5639 -0.3250
  478MOL0     C64417   3.281   6.053   6.986 -0.3713 -0.5071 -0.3914
  478MOL0     C64418   3.263   5.903   6.938 -0.4818  0.1309  0.1945
  478MOL0     O64419   3.327   5.886   6.812  0.2815 -0.2972  0.2570
  478MOL0     C64420   3.465   5.896   6.803  0.3948 -0.1106 -0.9395
  478MOL0     C64421   3.511   5.898   6.669  0.6358  0.0315  0.1530
  478MOL0     C64422   3.647   5.886   6.636 -0.6056 -0.1114 -0.3537
  478MOL0     C64423   3.665   5.878   6.486 -0.3850 -0.3561  0.1794
  478MOL0     C64424   3.746   5.871   6.744  0.1680 -0.0072  0.5650
  478MOL0     C64425   3.890   5.844   6.725 -0.3683 -0.2006 -0.0279
  478MOL0     O64426   3.961   5.802   6.829  0.2470 -1.1278  0.0318
  478MOL0     C64427   4.096   5.782   6.801  0.5176 -1.3466 -0.0981
  478MOL0     C64428   4.179   5.895   6.774  0.2649 -0.2942  0.9705
  478MOL0     C64429   4.318   5.893   6.766 -0.5673  0.4405 -0.0810
  478MOL0     C64430   4.382   5.763   6.791  0.2083 -1.1951 -0.5898
  478MOL0     O64431   4.517   5.741   6.782  0.4429  0.8316  0.5321
  478MOL0     C64432   4.605   5.845   6.750  0.3221  0.1370 -0.0316
  478MOL0     C64433   4.744   5.808   6.801 -0.3555  0.2769  0.0743
  478MOL0     C64434   4.774   5.846   6.945 -0.1109 -1.4840  0.9339
  478MOL0     C64435   4.902   5.781   6.989 -0.3925  0.6185  0.4177
  478MOL0     C64436   4.921   5.813   7.140  0.6260  0.8205 -0.2799
  478MOL0     C64437   5.066   5.786   7.194  0.1802 -1.0664 -0.1408
  478MOL0     C64438   5.069   5.823   7.347 -0.8599 -0.6425  0.2521
  478MOL0     C64439   5.203   5.817   7.415 -0.1365  0.1461  0.2321
  478MOL0    Cl64440   5.275   5.658   7.404 -0.0884  0.1604  0.0318
  478MOL0     C64441   4.302   5.654   6.831  0.2902  0.6103  0.0129
  478MOL0     C64442   4.162   5.664   6.834  0.1003 -0.7156  0.1273
  478MOL0     O64443   3.930   5.858   6.614 -0.3414  1.1260  0.4503
  478MOL0     C64444   3.697   5.888   6.877 -0.2127  0.2204  0.2645
  478MOL0     C64445   3.559   5.898   6.904 -0.3341  0.0363 -0.4501
  478MOL0     N64446   3.113   6.186   7.394  0.2953  0.0038  0.0105
  478MOL0     N64447   3.127   6.190   7.520  0.0183 -0.8981 -0.0014
  478MOL0     C64448   4.260   6.864   7.415  0.2964 -0.2819  0.0871
  478MOL0     C64449   4.342   6.900   7.310 -0.6327 -1.0474  1.1935
  478MOL0     C64450   4.468   7.071   6.896 -0.1772  0.7149  0.4204
  478MOL0     C64451   4.430   7.151   6.784 -0.2628  0.3444 -0.1133
  478MOL0     C64452   4.524   7.162   6.682  0.4919 -0.5369 -1.0293
  478MOL0     C64453   4.647   7.090   6.691  0.2814  0.3240 -0.1787
  478MOL0     O64454   4.733   7.077   6.585 -0.3647 -0.2179  0.1611
  478MOL0     C64455   4.751   7.193   6.508  0.5890 -0.4172 -0.5943
  478MOL0     C64456   4.871   7.191   6.410  0.0153 -0.1333 -0.2647
  478MOL0     C64457   5.010   7.183   6.465 -0.3954  0.5213  0.3261
  478MOL0     C64458   5.115   7.215   6.355 -0.6779  0.4734  0.1081
  478MOL0     C64459   5.262   7.208   6.395  0.6439 -0.7102 -0.5901
  478MOL0     C64460   5.375   7.203   6.431 -0.8709  0.6788 -0.2491
  478MOL0     C64461   4.672   6.993   6.786  0.3154 -0.7193 -0.5186
  478MOL0     C64462   4.581   6.985   6.893  0.1116  0.0503 -0.0292
  478MOL0     H64463   4.107   6.911   7.065 -3.8719  3.0332  2.1628
  478MOL0     H64464   3.971   6.839   7.241  0.2341 -0.9230  0.6249
  478MOL0     H64465   3.862   6.811   7.609 -1.8469 -1.6774 -1.0419
  478MOL0     H64466   3.856   6.868   7.443  1.0358 -1.6482 -2.9964
  478MOL0     H64467   3.851   6.654   7.361  1.4384  1.3844 -0.2600
  478MOL0     H64468   3.921   6.570   7.499  0.6243  0.2887 -0.4411
  478MOL0     H64469   3.649   6.707   7.492  1.4087  0.5761  1.0786
  478MOL0     H64470   3.676   6.535   7.456 -0.1501 -1.3893  1.3117
  478MOL0     H64471   3.761   6.485   7.694 -0.1204 -0.1148 -1.3822
  478MOL0     H64472   3.756   6.663   7.726 -0.5530 -0.0803  0.8566
  478MOL0     H64473   3.553   6.550   7.826  2.4112 -2.5324  0.4488
  478MOL0     H64474   3.511   6.661   7.700  1.2332  0.2295  0.5027
  478MOL0     H64475   3.507   6.461   7.543  0.0723 -1.9981 -0.0451
  478MOL0     H64476   3.580   6.368   7.670 -0.7002  0.1452  2.1830
  478MOL0     H64477   3.362   6.409   7.806 -0.6529 -2.7005 -0.4809
  478MOL0     H64478   3.299   6.470   7.652  0.9004  1.4854 -0.1501
  478MOL0     H64479   3.241   6.238   7.743 -3.8327  0.7297 -3.3641
  478MOL0     H64480   3.404   6.184   7.690  3.2475  2.5854 -3.2908
  478MOL0     H64481   3.432   6.264   7.407 -1.0989  0.7510  0.4878
  478MOL0     H64482   3.129   6.249   7.140  1.6769  1.7316 -1.9066
  478MOL0     H64483   3.296   6.271   7.124  0.0340  1.5242  0.9028
  478MOL0     H64484   3.149   6.009   7.150  0.5190  0.2414 -0.7141
  478MOL0     H64485   3.322   6.018   7.196 -0.6784 -0.2878  0.4884
  478MOL0     H64486   3.383   6.092   6.983 -1.3928  2.6145  1.4618
  478MOL0     H64487   3.222   6.125   6.928  1.3273  0.4341 -1.0380
  478MOL0     H64488   3.157   5.877   6.933 -1.0637  2.3377  0.3083
  478MOL0     H64489   3.306   5.834   7.012 -1.1592 -0.7395 -0.2028
  478MOL0     H64490   3.428   5.907   6.599 -0.9897 -0.9301  1.8532
  478MOL0     H64491   3.569   5.882   6.434 -0.0748  1.3447 -0.3435
  478MOL0     H64492   3.733   5.960   6.459  1.8036 -2.1049  0.1292
  478MOL0     H64493   3.709   5.785   6.449  1.8016  0.1547  1.3227
  478MOL0     H64494   4.120   5.983   6.747  1.0142  0.2514  1.0896
  478MOL0     H64495   4.364   5.985   6.731 -1.1963  0.7683 -0.0574
  478MOL0     H64496   4.597   5.866   6.644 -0.5110 -1.4075 -0.3062
  478MOL0     H64497   4.582   5.944   6.789 -0.6608  0.5593 -1.6199
  478MOL0     H64498   4.751   5.700   6.790  0.4135  0.5181 -2.5425
  478MOL0     H64499   4.819   5.849   6.732 -2.9031  0.5783 -2.7134
  478MOL0     H64500   4.693   5.823   7.015  1.2335 -2.9938  2.0747
  478MOL0     H64501   4.799   5.952   6.939 -2.2376 -1.0010 -2.5623
  478MOL0     H64502   4.900   5.672   6.977 -1.0833  0.4947  1.5782
  478MOL0     H64503   4.989   5.818   6.934 -1.5786  0.3642 -1.7459
  478MOL0     H64504   4.848   5.754   7.197  1.4922 -1.6462 -1.5787
  478MOL0     H64505   4.889   5.915   7.163 -1.5412 -0.2427  2.0175
  478MOL0     H64506   5.084   5.679   7.188 -1.7834 -1.4619  0.3779
  478MOL0     H64507   5.138   5.845   7.134 -0.5010 -1.4215 -1.3452
  478MOL0     H64508   5.005   5.749   7.395 -1.9999 -0.7744 -1.3852
  478MOL0     H64509   5.029   5.923   7.364 -2.3011 -0.9441 -1.1931
  478MOL0     H64510   5.198   5.844   7.521  2.0092 -1.6982  0.8754
  478MOL0     H64511   5.275   5.891   7.378  0.3084  1.3213  3.1844
  478MOL0     H64512   4.354   5.560   6.850 -0.1250 -0.0438 -1.8422
  478MOL0     H64513   4.101   5.584   6.875 -1.0850 -1.9016 -3.5176
  478MOL0     H64514   3.767   5.879   6.959  0.0718  1.5500  0.1935
  478MOL0     H64515   3.535   5.895   7.009 -2.7571 -0.9277 -0.9667
  478MOL0     H64516   4.312   6.851   7.509 -0.5667  1.5248  0.8591
  478MOL0     H64517   4.449   6.910   7.319 -0.8542  2.2116  1.5279
  478MOL0     H64518   4.340   7.212   6.790  0.3518  1.1243  2.2349
  478MOL0     H64519   4.496   7.226   6.599 -0.7952  0.6370  0.2504
  478MOL0     H64520   4.665   7.209   6.442 -0.9815  1.1872  1.7235
  478MOL0     H64521   4.758   7.282   6.571 -0.2672 -0.9386  0.2684
  478MOL0     H64522   4.859   7.278   6.345  0.3248  2.1853  2.5790
  478MOL0     H64523   4.865   7.104   6.343 -0.9107  0.1238 -0.5422
  478MOL0     H64524   5.034   7.083   6.501  1.9595  1.3036  1.1120
  478MOL0     H64525   5.015   7.246   6.555 -2.2367 -1.2440  1.7407
  478MOL0     H64526   5.108   7.318   6.317  1.2834  2.0919  3.6235
  478MOL0     H64527   5.108   7.152   6.266 -0.8967  0.5784  0.0502
  478MOL0     H64528   5.481   7.214   6.435 -0.8494  1.6634 -2.1285
  478MOL0     H64529   4.763   6.937   6.770 -0.0771 -1.4102 -0.4009
  478MOL0     H64530   4.607   6.927   6.982  1.0192  3.0755  1.8156
  479MOL0     O64531   0.261   5.630   3.841 -0.2767  0.0187 -1.1042
  479MOL0     C64532   0.244   5.568   3.738  0.4749  1.1366 -0.7579
  479MOL0     O64533   0.113   5.535   3.683 -0.5297 -0.3302  0.0146
  479MOL0     C64534   0.009   5.602   3.733  0.2289 -0.3715 -0.5081
  479MOL0     C64535  -0.039   5.595   3.866  0.1211 -0.0182  0.6178
  479MOL0     C64536  -0.152   5.663   3.910  0.3004 -0.6202  1.1679
  479MOL0     C64537  -0.214   5.757   3.821 -0.3003  0.9497  0.4809
  479MOL0     O64538  -0.322   5.822   3.869 -0.0911  0.3297 -0.3827
  479MOL0     C64539  -0.434   5.754   3.840  0.3488 -1.5248  0.5296
  479MOL0     C64540  -0.559   5.830   3.902 -1.0877  0.6888 -0.5889
  479MOL0     C64541  -0.690   5.751   3.874  0.0908  0.3614 -1.1313
  479MOL0     C64542  -0.798   5.857   3.897  0.4491 -0.5249 -0.0636
  479MOL0     C64543  -0.934   5.791   3.924 -0.7944 -0.2999  0.6750
  479MOL0     C64544  -1.033   5.907   3.957  0.0136  0.1924 -0.7115
  479MOL0     C64545  -1.182   5.862   3.933 -0.0152  0.0296 -0.2641
  479MOL0     C64546  -1.234   5.756   4.027 -1.0341  0.2230  0.1616
  479MOL0     N64547  -1.369   5.721   3.985  0.0182 -0.1058 -0.0757
  479MOL0     C64548  -1.480   5.756   4.049 -0.0541  0.2963 -0.1681
  479MOL0     C64549  -1.585   5.740   3.965 -0.1474  0.0225 -0.2397
  479MOL0     C64550  -1.731   5.761   3.996  0.2141 -0.2734  0.2069
  479MOL0     C64551  -1.785   5.903   3.969  0.3683 -1.1795  0.1532
  479MOL0     C64552  -1.782   5.924   3.824  0.0636 -0.2856 -0.1224
  479MOL0     C64553  -1.864   6.053   3.795  0.0161 -0.1837 -1.0856
  479MOL0     O64554  -1.997   6.024   3.827  0.5969 -0.0575 -0.3426
  479MOL0     C64555  -2.083   5.970   3.733  0.1643 -0.0101  0.3987
  479MOL0     C64556  -2.057   5.927   3.606  0.2398 -0.9526  0.2560
  479MOL0     C64557  -2.160   5.873   3.523 -0.1244 -0.5072  1.1525
  479MOL0     C64558  -2.117   5.847   3.377 -0.3733 -0.7059  0.0571
  479MOL0     C64559  -2.285   5.851   3.578 -0.0995  0.8173  0.4998
  479MOL0     C64560  -2.395   5.794   3.491 -1.0369 -0.2893 -0.5556
  479MOL0     O64561  -2.469   5.688   3.544 -0.3294  0.9998  0.0496
  479MOL0     C64562  -2.578   5.658   3.476 -0.4129 -0.8802 -0.4963
  479MOL0     C64563  -2.586   5.569   3.367 -0.2760  0.4185 -0.3751
  479MOL0     C64564  -2.710   5.542   3.300  0.3012 -0.7408 -0.7392
  479MOL0     C64565  -2.825   5.579   3.367 -0.4420  0.1918  0.6092
  479MOL0     O64566  -2.946   5.541   3.314 -0.0357 -0.5146 -0.1700
  479MOL0     C64567  -3.052   5.500   3.406 -0.3920 -0.8384 -0.0167
  479MOL0     C64568  -3.152   5.417   3.319  0.3256 -0.2157 -0.1645
  479MOL0     C64569  -3.263   5.345   3.407  0.1711 -0.2637 -0.3796
  479MOL0     C64570  -3.361   5.444   3.470 -0.2522  0.6115  0.3955
  479MOL0     C64571  -3.477   5.377   3.541 -0.4882 -0.2091  1.0445
  479MOL0     C64572  -3.443   5.308   3.675  0.2897 -0.2001 -0.4757
  479MOL0     C64573  -3.401   5.401   3.787 -0.2955 -0.3745  0.4970
  479MOL0     C64574  -3.345   5.314   3.904  0.0438  0.2121 -0.4817
  479MOL0    Cl64575  -3.470   5.238   3.997  0.4773 -0.1223 -0.4233
  479MOL0     C64576  -2.814   5.669   3.477  0.4033 -0.8572 -0.5878
  479MOL0     C64577  -2.695   5.707   3.536  0.1948 -0.8418  0.0758
  479MOL0     O64578  -2.424   5.844   3.381 -0.1539 -0.0344  0.0363
  479MOL0     C64579  -2.311   5.875   3.708 -0.1301  0.7244 -0.6367
  479MOL0     C64580  -2.212   5.946   3.777  0.4537  0.4216 -0.2154
  479MOL0     N64581  -1.527   5.688   3.849 -0.2751 -0.3621 -0.4913
  479MOL0     N64582  -1.401   5.686   3.856 -0.4030  0.5948 -0.3898
  479MOL0     C64583  -0.153   5.770   3.696 -0.6544 -0.8686 -1.2022
  479MOL0     C64584  -0.052   5.685   3.650 -0.1401 -1.3027 -0.8062
  479MOL0     C64585   0.367   5.502   3.691 -0.1220  0.4371  0.6426
  479MOL0     C64586   0.367   5.442   3.565  0.0310 -0.4116 -0.0633
  479MOL0     C64587   0.485   5.387   3.507  0.4997  0.3075  0.6710
  479MOL0     C64588   0.605   5.386   3.573 -0.8658  0.5748  0.1555
  479MOL0     O64589   0.724   5.325   3.530 -0.0227  0.1890  0.2573
  479MOL0     C64590   0.732   5.253   3.407 -0.5258  0.6975 -0.1307
  479MOL0     C64591   0.878   5.230   3.393 -0.3858 -0.2186  0.1944
  479MOL0     C64592   0.926   5.163   3.255 -0.6297 -0.2748 -0.4996
  479MOL0     C64593   1.084   5.161   3.256  0.3209 -0.5422 -0.4357
  479MOL0     C64594   1.147   5.061   3.341 -0.3377  0.0918  0.4743
  479MOL0     C64595   1.185   4.970   3.409  0.2557  1.1744 -0.4672
  479MOL0     C64596   0.603   5.434   3.698  0.3838  0.0880 -1.1071
  479MOL0     C64597   0.490   5.496   3.759 -1.2977  0.0775  0.2230
  479MOL0     H64598   0.007   5.524   3.935  0.6345  0.7870  1.1152
  479MOL0     H64599  -0.196   5.642   4.007 -0.2322  1.0536  1.3345
  479MOL0     H64600  -0.441   5.756   3.731 -1.2394  0.5219  0.6062
  479MOL0     H64601  -0.431   5.652   3.880 -2.2528 -0.6523  3.3330
  479MOL0     H64602  -0.536   5.836   4.009 -1.1340 -0.2129 -0.5212
  479MOL0     H64603  -0.572   5.930   3.859  2.1119  2.0991  1.2864
  479MOL0     H64604  -0.691   5.713   3.771  2.1655  0.5743 -1.2834
  479MOL0     H64605  -0.688   5.668   3.945  1.6386  0.8903 -0.4977
  479MOL0     H64606  -0.767   5.913   3.986  0.4464 -1.2342  0.3933
  479MOL0     H64607  -0.803   5.922   3.809 -0.5870 -2.3724 -1.4382
  479MOL0     H64608  -0.969   5.731   3.840  0.0424  0.6943 -0.4192
  479MOL0     H64609  -0.928   5.725   4.010 -0.5309 -3.4117 -1.5670
  479MOL0     H64610  -1.012   5.934   4.061  1.2489  0.9710 -1.1392
  479MOL0     H64611  -1.010   5.998   3.902 -0.6159  0.2356 -0.9106
  479MOL0     H64612  -1.242   5.950   3.957  1.4803  1.3981 -1.3887
  479MOL0     H64613  -1.202   5.861   3.825  1.0411  1.6021 -0.5117
  479MOL0     H64614  -1.247   5.796   4.128  1.2961 -0.7138  0.9225
  479MOL0     H64615  -1.162   5.673   4.028 -0.3269  0.7264 -2.2180
  479MOL0     H64616  -1.487   5.796   4.150 -1.0260 -1.1707  0.3788
  479MOL0     H64617  -1.788   5.688   3.937 -0.1864 -0.2832  0.6029
  479MOL0     H64618  -1.750   5.737   4.101  3.2432  1.4974  1.2626
  479MOL0     H64619  -1.709   5.966   4.016  0.1196 -1.3335  0.7783
  479MOL0     H64620  -1.885   5.907   4.014  0.5714  0.2161  0.5423
  479MOL0     H64621  -1.836   5.841   3.778 -1.2931  0.1342  0.6642
  479MOL0     H64622  -1.681   5.931   3.783  1.4203 -2.0955  2.6567
  479MOL0     H64623  -1.853   6.074   3.688 -0.8935  1.1598 -0.9422
  479MOL0     H64624  -1.834   6.143   3.850  0.5804 -0.5355 -0.8153
  479MOL0     H64625  -1.957   5.941   3.566 -0.4427  1.4343 -0.8351
  479MOL0     H64626  -2.123   5.740   3.354 -2.0712 -0.8619  1.1181
  479MOL0     H64627  -2.189   5.893   3.308 -1.6284  0.9149  2.3316
  479MOL0     H64628  -2.017   5.885   3.351 -1.9391  1.5298 -3.3167
  479MOL0     H64629  -2.508   5.511   3.320  0.6414 -0.9973  2.6049
  479MOL0     H64630  -2.722   5.477   3.215 -0.8526  1.1079 -2.0586
  479MOL0     H64631  -3.008   5.441   3.486  2.3158 -0.0499 -0.7987
  479MOL0     H64632  -3.101   5.591   3.443  0.2440  1.0095 -3.2405
  479MOL0     H64633  -3.195   5.492   3.252  0.8991 -0.5624 -0.9386
  479MOL0     H64634  -3.113   5.332   3.262 -1.5938 -2.2819  1.3801
  479MOL0     H64635  -3.214   5.287   3.486  0.8735  1.9650  0.9176
  479MOL0     H64636  -3.312   5.266   3.350 -0.3112  0.2246 -0.6469
  479MOL0     H64637  -3.315   5.509   3.546  2.4877  0.6737 -1.1841
  479MOL0     H64638  -3.402   5.509   3.392 -2.3621 -0.9515  0.1077
  479MOL0     H64639  -3.545   5.317   3.480 -2.5355  4.2212 -1.4989
  479MOL0     H64640  -3.543   5.461   3.561 -1.3333 -0.3845 -0.7838
  479MOL0     H64641  -3.535   5.256   3.704 -1.2682  1.6202 -1.8893
  479MOL0     H64642  -3.360   5.241   3.651  1.4127  0.8413  0.3539
  479MOL0     H64643  -3.488   5.456   3.823 -1.9573 -1.9456 -0.9329
  479MOL0     H64644  -3.324   5.472   3.755 -0.4347 -0.2281  0.4832
  479MOL0     H64645  -3.269   5.366   3.964  0.4198  1.7866 -2.2248
  479MOL0     H64646  -3.293   5.237   3.846 -1.2670  0.4191 -1.9826
  479MOL0     H64647  -2.906   5.707   3.520  1.9245 -1.0454  3.2171
  479MOL0     H64648  -2.703   5.762   3.629 -0.7114  2.0209 -1.5632
  479MOL0     H64649  -2.410   5.853   3.748 -0.2252 -1.0919 -1.7340
  479MOL0     H64650  -2.242   5.980   3.876 -2.2370  2.0044 -1.4487
  479MOL0     H64651  -0.177   5.859   3.637  0.3440 -1.2275 -2.1727
  479MOL0     H64652  -0.021   5.699   3.547  0.1136  1.3782 -0.4258
  479MOL0     H64653   0.268   5.438   3.521 -0.9064 -1.0941  1.9920
  479MOL0     H64654   0.479   5.347   3.406 -0.0845 -2.2317  1.6307
  479MOL0     H64655   0.688   5.157   3.435  0.8717 -0.1124 -0.6111
  479MOL0     H64656   0.687   5.303   3.321 -2.9284 -1.5748 -0.3093
  479MOL0     H64657   0.905   5.162   3.475 -1.9293  0.2449  1.1372
  479MOL0     H64658   0.924   5.328   3.410 -3.2997  1.5064 -1.0767
  479MOL0     H64659   0.886   5.208   3.163 -0.7425 -0.3661 -0.4969
  479MOL0     H64660   0.884   5.062   3.262 -1.6212  0.2232  1.3674
  479MOL0     H64661   1.103   5.261   3.297  0.5277 -0.4956 -0.6436
  479MOL0     H64662   1.140   5.149   3.163  2.2754  2.1954  0.2594
  479MOL0     H64663   1.225   4.889   3.467 -0.7902  0.5218 -0.6336
  479MOL0     H64664   0.696   5.418   3.751 -0.0331  0.3443 -0.2799
  479MOL0     H64665   0.506   5.535   3.860  0.9866 -0.2895  0.0626
  480MOL0     O64666   6.277   3.754  10.073  0.1522 -0.3697 -0.3848
  480MOL0     C64667   6.297   3.846  10.147  0.8601 -0.2035 -0.6885
  480MOL0     O64668   6.202   3.940  10.189  0.1591  1.4126  0.2291
  480MOL0     C64669   6.072   3.915  10.149 -0.1574 -0.4255  1.1360
  480MOL0     C64670   5.996   3.812  10.212  0.6950 -0.0963 -0.8070
  480MOL0     C64671   5.864   3.786  10.185  0.7414 -0.2614  0.2183
  480MOL0     C64672   5.809   3.859  10.077  0.3962  0.5929 -0.4678
  480MOL0     O64673   5.684   3.833  10.035 -0.0034 -0.2609 -0.0242
  480MOL0     C64674   5.615   3.720  10.075  0.1992  0.4950  0.7108
  480MOL0     C64675   5.487   3.718   9.992 -0.9567 -1.1562  0.8597
  480MOL0     C64676   5.369   3.815  10.027 -0.0209 -0.4008  0.7696
  480MOL0     C64677   5.352   3.862  10.171 -0.8958  0.9714 -0.4924
  480MOL0     C64678   5.227   3.942  10.186 -0.3880 -0.1558  0.5656
  480MOL0     C64679   5.211   4.075  10.097 -0.1646  0.0386  0.5260
  480MOL0     C64680   5.102   4.159  10.153  0.0112  0.1399  0.5311
  480MOL0     C64681   5.080   4.279  10.053 -0.8620 -1.0514 -0.0189
  480MOL0     N64682   4.972   4.367  10.078 -0.2569  0.2321  0.7253
  480MOL0     C64683   4.845   4.349  10.032 -0.1679  0.0378  0.2965
  480MOL0     C64684   4.780   4.454  10.077  0.4028 -0.3358 -0.8345
  480MOL0     C64685   4.632   4.469  10.046 -0.4543  0.4698 -0.0263
  480MOL0     C64686   4.577   4.617  10.061  0.6109 -0.7886  0.3126
  480MOL0     C64687   4.497   4.640  10.189  0.5083 -0.8412 -0.3939
  480MOL0     C64688   4.343   4.646  10.160 -0.1209 -1.3982  0.0119
  480MOL0     O64689   4.286   4.527  10.112  0.2639  0.4328 -0.4616
  480MOL0     C64690   4.157   4.530  10.059 -0.3084 -0.9692 -0.4792
  480MOL0     C64691   4.097   4.411  10.014 -0.5095 -0.3470  0.5324
  480MOL0     C64692   3.956   4.405   9.989 -0.4964  0.0406 -0.4540
  480MOL0     C64693   3.915   4.270   9.925  0.3574 -0.0622  0.1859
  480MOL0     C64694   3.870   4.519  10.012  0.0378  0.2187  0.3238
  480MOL0     C64695   3.729   4.511   9.993  0.2405 -0.0051  0.2230
  480MOL0     O64696   3.671   4.385  10.033  0.2933  0.0656 -0.7552
  480MOL0     C64697   3.542   4.356  10.015 -0.3929 -0.3320  1.6068
  480MOL0     C64698   3.508   4.237   9.953  0.1131 -0.2027  0.9047
  480MOL0     C64699   3.372   4.197   9.951 -0.1406 -0.3185 -0.6340
  480MOL0     C64700   3.269   4.274   9.980  0.5101  0.4987 -0.1440
  480MOL0     O64701   3.136   4.231   9.974  0.0620 -0.2099  0.2519
  480MOL0     C64702   3.106   4.129  10.066  0.6259  0.2465  0.1244
  480MOL0     C64703   2.957   4.107  10.097 -0.5655  0.0254  0.1993
  480MOL0     C64704   2.904   4.216  10.188  0.1691  0.0796 -0.7599
  480MOL0     C64705   2.775   4.160  10.251 -0.4611 -0.6656 -0.4272
  480MOL0     C64706   2.686   4.243  10.342  0.0209  0.4308 -0.1154
  480MOL0     C64707   2.779   4.301  10.455 -0.2503  0.1524 -0.9261
  480MOL0     C64708   2.694   4.367  10.567  0.6315 -0.5360 -0.3274
  480MOL0     C64709   2.763   4.388  10.697 -0.5457 -1.3049 -0.5094
  480MOL0    Cl64710   2.865   4.538  10.703  0.1013 -0.1097 -0.3084
  480MOL0     C64711   3.291   4.400  10.039  0.1849 -0.3458  0.0938
  480MOL0     C64712   3.428   4.444  10.051 -0.3700 -0.4492  0.5068
  480MOL0     O64713   3.674   4.608   9.947  0.0319 -0.0661  0.2202
  480MOL0     C64714   3.941   4.640  10.035 -0.1246  0.0991  0.1340
  480MOL0     C64715   4.079   4.645  10.056  0.5176 -0.2218  0.5567
  480MOL0     N64716   4.862   4.542  10.146 -0.2995 -0.2973 -0.3186
  480MOL0     N64717   4.974   4.481  10.153  0.6366  0.7697 -0.9547
  480MOL0     C64718   5.882   3.950  10.003  0.2346 -0.1328  0.6864
  480MOL0     C64719   6.010   3.976  10.043  0.1647 -0.4807 -0.8351
  480MOL0     C64720   6.430   3.854  10.213 -0.7726 -0.5519  0.0208
  480MOL0     C64721   6.481   3.981  10.260 -0.7525  1.0190  0.6757
  480MOL0     C64722   6.599   3.992  10.326  0.2836 -0.0011 -0.5482
  480MOL0     C64723   6.677   3.882  10.345 -0.2503 -0.6824  0.6099
  480MOL0     O64724   6.798   3.907  10.403  0.4007 -0.3039  0.1235
  480MOL0     C64725   6.906   3.810  10.407 -0.6474 -0.4666  0.3981
  480MOL0     C64726   7.041   3.869  10.448 -0.3449 -0.3422  1.0748
  480MOL0     C64727   7.093   3.975  10.342  0.0278  0.2538  0.5027
  480MOL0     C64728   7.218   4.048  10.377  0.0504 -0.4882  1.0539
  480MOL0     C64729   7.201   4.120  10.502 -0.3108 -0.1262  0.4226
  480MOL0     C64730   7.201   4.176  10.608 -0.6405  0.1176  0.8737
  480MOL0     C64731   6.633   3.765  10.304  0.3151 -0.1032 -0.8511
  480MOL0     C64732   6.512   3.742  10.238  0.1974 -0.4205  0.6938
  480MOL0     H64733   6.044   3.749  10.286 -2.9230 -2.0403  0.1386
  480MOL0     H64734   5.820   3.715  10.254  0.9040 -0.7417 -0.1631
  480MOL0     H64735   5.674   3.630  10.057 -0.5003 -0.1563  1.5635
  480MOL0     H64736   5.580   3.722  10.179 -0.9734 -0.7474  0.3809
  480MOL0     H64737   5.520   3.742   9.890 -0.6470  0.4018  1.3046
  480MOL0     H64738   5.450   3.616  10.002 -0.3017 -1.3761  1.1246
  480MOL0     H64739   5.377   3.906   9.967  0.8950 -2.0531 -1.8056
  480MOL0     H64740   5.276   3.763  10.001  0.2223  0.0562 -1.1919
  480MOL0     H64741   5.335   3.773  10.232 -3.6808  2.1390  0.5785
  480MOL0     H64742   5.439   3.921  10.204 -1.1958  0.9389  0.3987
  480MOL0     H64743   5.140   3.882  10.156 -0.1850 -0.7071  1.0723
  480MOL0     H64744   5.223   3.965  10.292  2.3991  2.9531  0.1614
  480MOL0     H64745   5.303   4.134  10.097 -0.0358 -0.0889  2.5006
  480MOL0     H64746   5.191   4.046   9.993  2.3640  0.4416 -0.1246
  480MOL0     H64747   5.008   4.104  10.163 -0.8507  1.0418 -1.8446
  480MOL0     H64748   5.131   4.203  10.249  1.7755  2.0669 -0.7960
  480MOL0     H64749   5.058   4.237   9.955 -1.7554  5.4062 -3.1283
  480MOL0     H64750   5.168   4.344  10.050 -0.9303 -0.9887 -2.9893
  480MOL0     H64751   4.809   4.270   9.967  2.7288 -2.1124  1.0646
  480MOL0     H64752   4.604   4.436   9.946 -2.1018 -0.9050  0.8330
  480MOL0     H64753   4.582   4.396  10.110 -4.9293  0.6545 -2.8290
  480MOL0     H64754   4.520   4.644   9.972 -1.3390  0.3784  1.8463
  480MOL0     H64755   4.658   4.690  10.061  1.0383 -1.1858  2.5836
  480MOL0     H64756   4.534   4.735  10.228 -0.8083  0.3632 -1.9235
  480MOL0     H64757   4.522   4.563  10.263 -0.4520 -0.1820  0.6655
  480MOL0     H64758   4.327   4.723  10.084  2.3938 -0.6086  0.2005
  480MOL0     H64759   4.283   4.667  10.249  0.8743 -0.0596  0.4038
  480MOL0     H64760   4.152   4.320   9.992 -0.7708 -0.3448 -0.1628
  480MOL0     H64761   3.837   4.272   9.848 -0.7019 -2.7618  1.0783
  480MOL0     H64762   3.997   4.214   9.880 -1.6195 -2.5980 -0.5171
  480MOL0     H64763   3.858   4.211   9.997  0.5882  1.0569  1.3245
  480MOL0     H64764   3.585   4.173   9.913 -0.5885  0.1125 -1.0410
  480MOL0     H64765   3.349   4.095   9.920 -0.4107 -0.4581  0.0067
  480MOL0     H64766   3.132   4.039  10.010 -4.4239 -1.0098 -0.7310
  480MOL0     H64767   3.164   4.141  10.158 -0.8302 -0.5071  1.1923
  480MOL0     H64768   2.890   4.106  10.011  0.2353 -3.5793 -0.5337
  480MOL0     H64769   2.952   4.006  10.139  3.5824 -1.3998 -2.1829
  480MOL0     H64770   2.899   4.311  10.136  0.9035 -1.8058 -4.6228
  480MOL0     H64771   2.967   4.245  10.273  0.8556  1.7781 -1.8108
  480MOL0     H64772   2.712   4.134  10.166 -0.5734 -2.3766  0.1519
  480MOL0     H64773   2.789   4.072  10.314 -1.1835 -1.8860 -1.8994
  480MOL0     H64774   2.605   4.179  10.379 -0.4603 -0.1611 -2.0996
  480MOL0     H64775   2.649   4.332  10.289 -0.0527  0.9344  0.7518
  480MOL0     H64776   2.836   4.216  10.494 -1.9344  0.1481  1.7989
  480MOL0     H64777   2.851   4.373  10.416  2.1989  0.2571  3.1820
  480MOL0     H64778   2.611   4.300  10.590  3.0053 -3.7444 -0.4549
  480MOL0     H64779   2.651   4.460  10.528 -0.1474 -0.9671 -0.4986
  480MOL0     H64780   2.832   4.303  10.708  1.8102  0.3473 -1.5024
  480MOL0     H64781   2.689   4.388  10.777  0.0630  0.0894  0.0856
  480MOL0     H64782   3.207   4.460  10.073 -0.9755 -0.9280 -1.6534
  480MOL0     H64783   3.450   4.538  10.102  0.9794 -1.4907  1.9381
  480MOL0     H64784   3.898   4.740  10.033  0.6756  0.4404 -1.1910
  480MOL0     H64785   4.126   4.735  10.095  3.2550 -1.3815  0.1510
  480MOL0     H64786   5.834   4.001   9.921 -5.1767 -3.3258  1.3608
  480MOL0     H64787   6.052   4.058   9.987 -1.3959  1.4288  0.6191
  480MOL0     H64788   6.424   4.066  10.223  1.4840  1.3087 -2.4916
  480MOL0     H64789   6.636   4.093  10.335 -0.1428  0.5918 -4.1184
  480MOL0     H64790   6.879   3.733  10.479  2.5302  0.2384  2.5491
  480MOL0     H64791   6.910   3.757  10.311 -0.2801  0.7351 -0.2811
  480MOL0     H64792   7.114   3.789  10.465 -0.7734 -1.0719 -0.3952
  480MOL0     H64793   7.017   3.918  10.543  0.9538  0.5289  0.9720
  480MOL0     H64794   7.017   4.054  10.337 -0.9869 -0.6448  1.1421
  480MOL0     H64795   7.106   3.931  10.242 -1.3658 -1.2592  0.9289
  480MOL0     H64796   7.234   4.121  10.297 -3.6517 -1.3784 -0.6903
  480MOL0     H64797   7.310   3.989  10.371 -1.6411 -3.1665 -0.8580
  480MOL0     H64798   7.218   4.213  10.707  1.7584  0.3869  0.4165
  480MOL0     H64799   6.689   3.677  10.333 -1.9922 -1.0481  1.1282
  480MOL0     H64800   6.471   3.648  10.205 -0.8613  0.3847 -0.3439
  481MOL0     O64801   5.037   8.946   1.922  0.1352  0.4220  0.6286
  481MOL0     C64802   5.144   8.903   1.946  0.2261  0.7156  0.1022
  481MOL0     O64803   5.171   8.807   2.046 -0.0661  0.6774  0.7091
  481MOL0     C64804   5.078   8.770   2.140  0.2111 -0.3734  0.2417
  481MOL0     C64805   5.012   8.860   2.232 -0.6253  0.3402 -0.0188
  481MOL0     C64806   4.931   8.806   2.332  0.1289  0.5274 -0.1293
  481MOL0     C64807   4.900   8.675   2.330 -0.4247 -0.0285 -0.2057
  481MOL0     O64808   4.823   8.624   2.430  0.2994  0.2987 -0.2189
  481MOL0     C64809   4.695   8.679   2.452  0.0619 -0.1356 -0.2664
  481MOL0     C64810   4.611   8.591   2.545  0.6516 -0.1915  0.7020
  481MOL0     C64811   4.696   8.522   2.655  0.1359 -0.6036 -0.2244
  481MOL0     C64812   4.611   8.422   2.740  0.1710 -0.1791  0.5665
  481MOL0     C64813   4.682   8.317   2.824  0.0045  0.1195  1.3642
  481MOL0     C64814   4.603   8.265   2.940 -0.1359  0.3737  0.1729
  481MOL0     C64815   4.532   8.136   2.912  0.0287 -0.2474  0.5811
  481MOL0     C64816   4.431   8.136   2.803 -0.0403 -0.6794  0.5001
  481MOL0     N64817   4.324   8.238   2.832 -0.0076  0.1533 -0.0604
  481MOL0     C64818   4.213   8.192   2.895  0.9317 -0.4557 -0.4581
  481MOL0     C64819   4.138   8.298   2.908  0.0576  0.5215  0.1419
  481MOL0     C64820   4.027   8.306   3.010  0.0385  0.5802 -0.1396
  481MOL0     C64821   3.898   8.378   2.980  0.1436 -0.3626 -0.4387
  481MOL0     C64822   3.802   8.294   2.898 -0.1967  0.1556  0.0256
  481MOL0     C64823   3.648   8.317   2.927 -0.7562  0.0590 -0.2400
  481MOL0     O64824   3.605   8.421   2.847  0.7491  0.4967 -0.0752
  481MOL0     C64825   3.471   8.451   2.851  0.8188  0.6776  0.3823
  481MOL0     C64826   3.451   8.570   2.786 -0.5981 -0.0077 -0.0361
  481MOL0     C64827   3.318   8.627   2.777 -0.1632  0.3995 -0.0939
  481MOL0     C64828   3.306   8.762   2.701 -0.5478 -1.4377  0.4512
  481MOL0     C64829   3.205   8.554   2.829 -0.4967  1.1510 -0.3591
  481MOL0     C64830   3.066   8.586   2.824  0.2349 -0.4229  0.2752
  481MOL0     O64831   3.010   8.635   2.714 -0.4330 -0.3801  0.5090
  481MOL0     C64832   2.895   8.709   2.726  0.1458  0.1882 -0.1974
  481MOL0     C64833   2.885   8.849   2.712  0.0880  0.3575  0.4244
  481MOL0     C64834   2.769   8.916   2.742  0.9628 -0.3409 -1.0481
  481MOL0     C64835   2.656   8.845   2.797  0.0288 -0.5492  0.2656
  481MOL0     O64836   2.538   8.910   2.845 -1.1923  0.3532  0.3231
  481MOL0     C64837   2.532   9.051   2.826  0.2128 -0.0628  0.3958
  481MOL0     C64838   2.399   9.094   2.901  0.6873  0.5365 -0.4857
  481MOL0     C64839   2.370   9.249   2.902 -0.6648 -0.4991 -0.6205
  481MOL0     C64840   2.235   9.273   2.962 -0.2349 -0.0671 -0.0309
  481MOL0     C64841   2.201   9.425   2.953 -0.2566 -0.6765  0.2701
  481MOL0     C64842   2.069   9.457   3.033  0.5981  0.2669 -1.0495
  481MOL0     C64843   1.947   9.390   2.984  0.8538  0.8176  0.6625
  481MOL0     C64844   1.814   9.419   3.044 -0.3048  0.0253  0.3920
  481MOL0    Cl64845   1.776   9.584   3.092  0.3133  0.1486 -0.3127
  481MOL0     C64846   2.666   8.708   2.802 -0.4771 -0.5249  0.5276
  481MOL0     C64847   2.779   8.640   2.758  0.1573 -0.9354  0.2097
  481MOL0     O64848   2.999   8.576   2.927 -0.1262  0.3212 -0.2797
  481MOL0     C64849   3.243   8.431   2.900 -0.1354 -0.0726  0.8127
  481MOL0     C64850   3.368   8.376   2.905 -0.8252 -0.0419 -0.4937
  481MOL0     N64851   4.181   8.400   2.827 -0.6599  0.0981 -0.1373
  481MOL0     N64852   4.300   8.362   2.784  0.2474 -0.4530 -0.3173
  481MOL0     C64853   4.970   8.591   2.245  0.0686 -0.3205  0.5769
  481MOL0     C64854   5.059   8.637   2.149  0.0977 -0.1885 -1.2671
  481MOL0     C64855   5.257   8.951   1.866 -0.7793  0.1770 -0.9325
  481MOL0     C64856   5.389   8.921   1.907  0.1477  0.7416  0.5510
  481MOL0     C64857   5.492   8.946   1.813 -0.7802 -0.2490  0.3844
  481MOL0     C64858   5.482   9.014   1.690  0.4790 -0.1134  0.1553
  481MOL0     O64859   5.587   9.025   1.611 -0.0774  0.6689  0.5613
  481MOL0     C64860   5.582   9.091   1.488 -0.3020  0.0072 -0.1633
  481MOL0     C64861   5.723   9.133   1.441 -0.2618 -0.0280 -0.0984
  481MOL0     C64862   5.723   9.237   1.322 -0.1795 -0.0463  0.4127
  481MOL0     C64863   5.856   9.264   1.256  0.6764  0.2311 -0.4311
  481MOL0     C64864   5.929   9.362   1.334  0.8459 -0.0845 -0.4760
  481MOL0     C64865   5.996   9.421   1.408 -0.4032 -0.0076 -0.2469
  481MOL0     C64866   5.349   9.060   1.661  0.4897  0.3878 -0.1422
  481MOL0     C64867   5.242   9.027   1.749 -0.2577  0.2578 -0.0208
  481MOL0     H64868   5.041   8.964   2.238 -1.3858  0.5820 -0.3807
  481MOL0     H64869   4.884   8.885   2.390 -0.6750 -0.1993  0.2320
  481MOL0     H64870   4.698   8.779   2.497 -1.9585 -0.5164  0.8034
  481MOL0     H64871   4.642   8.691   2.357 -0.5101 -1.4397 -0.1284
  481MOL0     H64872   4.529   8.652   2.584 -0.4980 -1.3297  0.1493
  481MOL0     H64873   4.569   8.510   2.485  3.1877  0.4409 -2.1449
  481MOL0     H64874   4.778   8.457   2.621 -1.5752 -3.4280  0.7303
  481MOL0     H64875   4.750   8.595   2.716 -0.1653 -1.2888  0.8903
  481MOL0     H64876   4.550   8.490   2.800  0.8257  3.6000 -2.6354
  481MOL0     H64877   4.547   8.367   2.671 -1.5920  0.1967  1.8331
  481MOL0     H64878   4.734   8.240   2.766  1.6400  1.1259  1.4037
  481MOL0     H64879   4.774   8.363   2.862 -0.4110 -0.1967  2.8055
  481MOL0     H64880   4.682   8.245   3.014 -0.6046 -0.2193  0.5254
  481MOL0     H64881   4.540   8.341   2.987 -3.5347 -2.0357 -0.1394
  481MOL0     H64882   4.609   8.064   2.885 -1.7719 -1.9061 -0.4034
  481MOL0     H64883   4.488   8.102   3.007 -0.2936 -0.0481  0.5051
  481MOL0     H64884   4.395   8.033   2.798  0.2512 -0.7330 -1.1432
  481MOL0     H64885   4.475   8.154   2.704  1.6592 -2.0432  0.9627
  481MOL0     H64886   4.207   8.095   2.943  2.9314 -0.4907 -0.1815
  481MOL0     H64887   3.990   8.204   3.027 -2.3688  1.0668 -2.0290
  481MOL0     H64888   4.070   8.349   3.101 -0.1178  1.1945 -0.3513
  481MOL0     H64889   3.927   8.472   2.932  0.6393 -0.6486 -0.7150
  481MOL0     H64890   3.858   8.400   3.079 -0.9590  0.6306 -1.0754
  481MOL0     H64891   3.826   8.190   2.923  0.1047  0.1827 -0.1507
  481MOL0     H64892   3.825   8.308   2.792  0.9842  0.9998  0.3783
  481MOL0     H64893   3.628   8.329   3.033 -1.7247 -3.1725  0.0728
  481MOL0     H64894   3.592   8.228   2.894  0.8650 -1.0821 -0.0549
  481MOL0     H64895   3.531   8.617   2.731 -1.0011 -1.8307 -2.3458
  481MOL0     H64896   3.221   8.762   2.631  1.3502  1.6632 -2.1269
  481MOL0     H64897   3.269   8.842   2.766 -0.0521  1.6785 -2.7379
  481MOL0     H64898   3.396   8.796   2.649 -0.9425  1.0257  1.2354
  481MOL0     H64899   2.970   8.905   2.675  0.3868  0.1230  0.7391
  481MOL0     H64900   2.776   9.024   2.747 -1.2976 -0.2125  1.4366
  481MOL0     H64901   2.610   9.102   2.883  0.3995  2.1073 -1.6556
  481MOL0     H64902   2.517   9.082   2.722 -0.2580  0.9284  0.7555
  481MOL0     H64903   2.322   9.049   2.837 -1.8991  1.3104  1.8627
  481MOL0     H64904   2.391   9.053   3.003 -3.0209 -0.9964 -1.2268
  481MOL0     H64905   2.376   9.258   2.794  2.6819 -2.9191 -0.8084
  481MOL0     H64906   2.454   9.313   2.930 -0.1817  0.4111 -3.8395
  481MOL0     H64907   2.160   9.206   2.920 -0.3376 -0.9318  1.4751
  481MOL0     H64908   2.225   9.259   3.070 -0.5290  0.3576  0.0032
  481MOL0     H64909   2.196   9.461   2.850  2.0556 -0.5967  0.1312
  481MOL0     H64910   2.277   9.487   3.001 -0.5804  0.8397 -1.0916
  481MOL0     H64911   2.070   9.440   3.141 -0.4153  0.3134 -1.0195
  481MOL0     H64912   2.042   9.562   3.016 -0.9658  0.2525  0.9669
  481MOL0     H64913   1.964   9.283   2.995  2.8921  0.7184 -2.2254
  481MOL0     H64914   1.935   9.412   2.877 -1.2870  0.8854  0.8666
  481MOL0     H64915   1.807   9.358   3.134  1.6680  0.1212  0.6589
  481MOL0     H64916   1.746   9.384   2.966  2.1437  0.8424 -2.2913
  481MOL0     H64917   2.575   8.654   2.825 -1.8040  1.5388  0.3182
  481MOL0     H64918   2.769   8.533   2.748  1.7235 -0.9150 -2.9394
  481MOL0     H64919   3.172   8.367   2.951  1.0034  1.0284  4.0696
  481MOL0     H64920   3.388   8.278   2.949  2.6303  1.7767  2.5642
  481MOL0     H64921   4.951   8.484   2.255  0.7573 -0.2996  2.6540
  481MOL0     H64922   5.127   8.578   2.088  2.3661  1.0378 -0.0582
  481MOL0     H64923   5.413   8.867   1.998 -0.2920  0.3253  0.4272
  481MOL0     H64924   5.595   8.918   1.834 -0.6300  0.2801  0.3783
  481MOL0     H64925   5.523   9.036   1.414 -1.2758  2.2554 -1.1405
  481MOL0     H64926   5.539   9.188   1.513  3.3219  1.6364  0.2767
  481MOL0     H64927   5.787   9.050   1.407 -2.5475 -1.2099 -1.8148
  481MOL0     H64928   5.774   9.183   1.524  0.1343  1.1409 -1.0220
  481MOL0     H64929   5.674   9.332   1.348  1.0783  0.6427  0.3671
  481MOL0     H64930   5.664   9.185   1.247  0.7615 -0.6772  0.0977
  481MOL0     H64931   5.845   9.309   1.157  0.3403  0.9596 -0.0673
  481MOL0     H64932   5.910   9.169   1.246 -0.2378 -0.3420 -0.0910
  481MOL0     H64933   6.063   9.467   1.478  1.6570 -2.2582 -0.5925
  481MOL0     H64934   5.324   9.104   1.565  0.6807  1.6015  0.3419
  481MOL0     H64935   5.143   9.056   1.715 -0.6468 -0.6538  0.2889
  482MOL0     O64936   6.178   3.444   0.395  0.4571  0.3151  0.7293
  482MOL0     C64937   6.223   3.517   0.303 -1.3244 -1.1309 -0.2144
  482MOL0     O64938   6.181   3.525   0.176 -0.4386  0.5540 -0.1466
  482MOL0     C64939   6.095   3.419   0.150  0.7377 -1.2363 -0.3990
  482MOL0     C64940   5.960   3.458   0.146 -0.0130 -0.0480 -0.5885
  482MOL0     C64941   5.864   3.361   0.141 -0.1425 -0.3445  0.3099
  482MOL0     C64942   5.902   3.226   0.128  0.5938  0.7059 -0.7866
  482MOL0     O64943   5.825   3.115   0.145  0.3339  0.1167 -0.1771
  482MOL0     C64944   5.720   3.114   0.247  0.2093 -0.8811  0.0780
  482MOL0     C64945   5.738   3.000   0.355 -0.3385 -0.4057 -0.1640
  482MOL0     C64946   5.609   2.929   0.403  0.6231 -0.2208  0.2812
  482MOL0     C64947   5.502   3.020   0.468  0.1319 -0.2591  0.0501
  482MOL0     C64948   5.365   2.951   0.485  0.2906 -0.1077 -0.2230
  482MOL0     C64949   5.248   3.051   0.489 -1.3886  0.3154 -0.9471
  482MOL0     C64950   5.126   2.968   0.512 -0.2346  0.2674  0.4178
  482MOL0     C64951   4.998   3.044   0.522 -0.6423  0.1148 -0.2811
  482MOL0     N64952   4.883   2.951   0.543 -0.2446  0.3770 -0.4082
  482MOL0     C64953   4.883   2.821   0.582  0.3996 -0.5285  0.5083
  482MOL0     C64954   4.750   2.791   0.584 -0.6678  0.5816  1.0388
  482MOL0     C64955   4.698   2.652   0.620  0.9400  0.2848 -0.0396
  482MOL0     C64956   4.637   2.659   0.767 -0.5072 -0.1644  1.1771
  482MOL0     C64957   4.502   2.718   0.767 -0.4906 -0.0450 -0.6064
  482MOL0     C64958   4.390   2.651   0.685 -0.2901 -0.8116 -0.7619
  482MOL0     O64959   4.260   2.685   0.739 -0.8127 -0.1658  0.4443
  482MOL0     C64960   4.150   2.610   0.718 -0.8948 -0.0856 -0.1071
  482MOL0     C64961   4.146   2.489   0.651  0.7531  0.7466  0.6800
  482MOL0     C64962   4.028   2.417   0.641 -0.1167  0.7734  0.5916
  482MOL0     C64963   4.032   2.290   0.550 -0.0188 -0.1456  0.7362
  482MOL0     C64964   3.908   2.464   0.705  0.4933 -0.3736 -0.3042
  482MOL0     C64965   3.780   2.388   0.716  0.4471 -0.2419  0.0131
  482MOL0     O64966   3.689   2.436   0.805 -0.3891  0.1861  0.1853
  482MOL0     C64967   3.578   2.357   0.824 -0.0865  0.6503  0.5285
  482MOL0     C64968   3.583   2.232   0.892 -0.3575  0.0634  0.4309
  482MOL0     C64969   3.477   2.144   0.880 -0.0223 -0.2686 -0.3291
  482MOL0     C64970   3.356   2.179   0.822 -0.0310  0.0946  0.8512
  482MOL0     O64971   3.244   2.092   0.812 -0.0918 -0.2241  0.0570
  482MOL0     C64972   3.199   2.047   0.935 -0.2634 -0.1859  0.2422
  482MOL0     C64973   3.137   2.155   1.022 -0.0283  0.2302 -0.7206
  482MOL0     C64974   3.014   2.207   0.942 -0.0132  0.0498  0.4747
  482MOL0     C64975   2.883   2.121   0.967  0.2429 -0.3128 -0.3168
  482MOL0     C64976   2.763   2.210   0.925  0.4552  0.1638  0.2836
  482MOL0     C64977   2.632   2.148   0.934  0.6904 -0.2365 -0.6191
  482MOL0     C64978   2.606   2.115   1.081  0.5039 -0.1078 -0.3134
  482MOL0     C64979   2.455   2.115   1.124  0.6332  0.0922  0.7794
  482MOL0    Cl64980   2.362   1.999   1.020 -0.0639 -0.2761 -0.7076
  482MOL0     C64981   3.345   2.311   0.764 -0.2573 -0.6962 -0.3562
  482MOL0     C64982   3.458   2.393   0.765  0.9305  0.2737  0.3202
  482MOL0     O64983   3.760   2.289   0.647 -0.1413 -0.1735 -0.6131
  482MOL0     C64984   3.912   2.584   0.764  0.2280  0.5456 -0.3052
  482MOL0     C64985   4.030   2.658   0.776 -0.2856 -0.0287  0.3516
  482MOL0     N64986   4.673   2.891   0.541  0.1080 -0.2811 -0.4668
  482MOL0     N64987   4.757   2.989   0.528  0.2669  0.6368  0.4855
  482MOL0     C64988   6.033   3.190   0.113  0.0662  0.3462  0.1068
  482MOL0     C64989   6.131   3.284   0.128 -0.2723 -0.6707 -0.8979
  482MOL0     C64990   6.300   3.632   0.360  0.0010 -0.7132 -0.1184
  482MOL0     C64991   6.269   3.765   0.321 -0.5725  0.7288 -0.6388
  482MOL0     C64992   6.336   3.877   0.367  0.0001  0.2536  0.7202
  482MOL0     C64993   6.432   3.862   0.471  0.6909 -0.0427 -0.2457
  482MOL0     O64994   6.497   3.969   0.524 -0.3432  0.5845 -0.7410
  482MOL0     C64995   6.506   3.969   0.668 -1.1019 -0.2746  0.1254
  482MOL0     C64996   6.376   3.967   0.747 -0.8709 -0.2263  0.3612
  482MOL0     C64997   6.260   4.047   0.679 -0.2603  0.9260 -0.6644
  482MOL0     C64998   6.297   4.195   0.644  0.4139  0.2273  0.0038
  482MOL0     C64999   6.188   4.272   0.582 -1.3495 -0.1770 -0.1372
  482MOL0     C65000   6.112   4.341   0.526 -0.0581 -0.2888  0.7024
  482MOL0     C65001   6.462   3.727   0.521 -0.1790 -0.1735  0.8211
  482MOL0     C65002   6.398   3.618   0.462 -0.0061  0.0226 -0.4641
  482MOL0     H65003   5.929   3.562   0.147 -1.1540 -0.3532 -1.4684
  482MOL0     H65004   5.759   3.388   0.151 -0.0507  1.1666 -1.8755
  482MOL0     H65005   5.707   3.203   0.308 -1.0203  0.0209 -1.4092
  482MOL0     H65006   5.625   3.090   0.198 -0.3924 -0.0393  0.8096
  482MOL0     H65007   5.811   2.929   0.316 -2.0874 -1.4535 -1.6972
  482MOL0     H65008   5.794   3.036   0.442  2.9199  1.2297 -2.6909
  482MOL0     H65009   5.549   2.891   0.320 -0.9008  0.4844  1.0080
  482MOL0     H65010   5.641   2.854   0.476  1.8341  1.9543  2.1279
  482MOL0     H65011   5.533   3.059   0.566  1.2170  1.0858 -0.8016
  482MOL0     H65012   5.493   3.104   0.399  0.3865 -1.8623 -2.0377
  482MOL0     H65013   5.340   2.878   0.408 -0.0512 -3.2199  2.6067
  482MOL0     H65014   5.358   2.899   0.581  1.9449  1.3153  0.7249
  482MOL0     H65015   5.253   3.122   0.573  2.1364 -2.1284  1.1736
  482MOL0     H65016   5.250   3.110   0.397 -1.5612 -3.2393 -3.4310
  482MOL0     H65017   5.118   2.884   0.443 -1.7100 -0.3670  1.3067
  482MOL0     H65018   5.138   2.925   0.612 -1.1601  1.8205  1.2303
  482MOL0     H65019   4.978   3.104   0.432 -1.8728  2.8448  1.6954
  482MOL0     H65020   5.004   3.109   0.609 -2.7405 -1.9559  1.5563
  482MOL0     H65021   4.969   2.758   0.604 -1.8002 -3.2199  2.0766
  482MOL0     H65022   4.636   2.624   0.535  1.3549  1.5545 -0.7861
  482MOL0     H65023   4.779   2.580   0.622 -0.1073 -0.9282  1.3120
  482MOL0     H65024   4.703   2.714   0.835  0.8003 -1.6714  1.1969
  482MOL0     H65025   4.636   2.561   0.815  0.7919 -0.5053  0.5493
  482MOL0     H65026   4.502   2.820   0.728 -0.6860  0.4416  0.6065
  482MOL0     H65027   4.476   2.733   0.872 -1.9811 -1.4328 -0.7568
  482MOL0     H65028   4.410   2.545   0.700 -1.5910 -0.9861 -0.0960
  482MOL0     H65029   4.399   2.678   0.579  1.0316 -0.0227 -0.4775
  482MOL0     H65030   4.234   2.444   0.607  0.8749  0.6952  0.9785
  482MOL0     H65031   3.933   2.279   0.505 -0.1707  1.9352  0.4981
  482MOL0     H65032   4.099   2.303   0.465 -0.8365  0.8867  0.2385
  482MOL0     H65033   4.063   2.201   0.607  2.2864  1.5476  2.3151
  482MOL0     H65034   3.675   2.208   0.944 -1.0366 -0.8162  1.2687
  482MOL0     H65035   3.494   2.045   0.922 -0.5805  0.1006  0.8085
  482MOL0     H65036   3.109   1.989   0.911 -0.6305  0.6219 -0.3969
  482MOL0     H65037   3.272   1.983   0.985 -0.0643 -0.6288 -0.5834
  482MOL0     H65038   3.113   2.110   1.119  0.4331 -0.5548 -0.9605
  482MOL0     H65039   3.210   2.234   1.044  1.5715 -0.6862 -2.4391
  482MOL0     H65040   3.044   2.226   0.839  2.3041 -0.6448  0.9542
  482MOL0     H65041   3.014   2.303   0.994  0.3261  0.6700 -0.6579
  482MOL0     H65042   2.883   2.033   0.901 -3.0305 -1.2946  0.8033
  482MOL0     H65043   2.889   2.096   1.074  1.1978  2.5251  0.3844
  482MOL0     H65044   2.770   2.254   0.825  0.5506  2.8105  1.3622
  482MOL0     H65045   2.750   2.293   0.995 -2.4622 -0.2231  0.3401
  482MOL0     H65046   2.551   2.212   0.898  0.7359  1.9682  2.7580
  482MOL0     H65047   2.636   2.053   0.880 -1.5697 -0.9165  0.2936
  482MOL0     H65048   2.670   2.165   1.154  0.2028 -0.6911  0.3565
  482MOL0     H65049   2.639   2.011   1.085 -0.5661 -0.4074  1.5384
  482MOL0     H65050   2.408   2.214   1.119  1.9535  0.7420  0.9014
  482MOL0     H65051   2.448   2.087   1.229 -0.0599 -2.0102  0.2196
  482MOL0     H65052   3.259   2.349   0.711  0.4250  0.0821 -0.9207
  482MOL0     H65053   3.463   2.481   0.701 -1.0493 -0.3277 -0.7224
  482MOL0     H65054   3.820   2.633   0.793 -0.9535 -0.8482 -1.5525
  482MOL0     H65055   4.028   2.756   0.825 -2.3678 -0.6149  1.5917
  482MOL0     H65056   6.063   3.086   0.112 -0.6173  0.0230  3.0247
  482MOL0     H65057   6.235   3.257   0.113  0.1367  0.8336 -0.8664
  482MOL0     H65058   6.179   3.782   0.263 -0.5848 -1.5886 -1.3722
  482MOL0     H65059   6.304   3.975   0.331 -0.3282  0.0317  0.4063
  482MOL0     H65060   6.569   3.883   0.694  0.3533  0.2033 -1.5934
  482MOL0     H65061   6.552   4.059   0.710 -0.3832  0.0170 -1.2224
  482MOL0     H65062   6.399   4.000   0.849  2.0347 -2.9184  0.7172
  482MOL0     H65063   6.344   3.863   0.753  1.7660 -1.4398 -3.0209
  482MOL0     H65064   6.182   4.036   0.754 -0.5174 -0.0367 -1.0507
  482MOL0     H65065   6.230   3.986   0.593  2.4948 -1.0233 -0.3904
  482MOL0     H65066   6.388   4.203   0.584  0.2000 -0.8402 -0.5011
  482MOL0     H65067   6.315   4.248   0.737 -1.7777  0.1973  0.4905
  482MOL0     H65068   6.025   4.390   0.488 -0.3524 -2.9672 -2.5042
  482MOL0     H65069   6.532   3.703   0.601 -0.5007 -1.6669  0.6805
  482MOL0     H65070   6.424   3.519   0.499 -1.1834 -0.7322 -1.5529
  483MOL0     O65071   2.959   6.450   2.030 -0.3310 -0.0809 -0.4928
  483MOL0     C65072   2.976   6.399   2.144  0.1348 -0.9437  0.2882
  483MOL0     O65073   2.871   6.352   2.227 -1.0912 -0.3865  0.0042
  483MOL0     C65074   2.738   6.368   2.195  1.2705 -0.2360  0.3862
  483MOL0     C65075   2.649   6.287   2.257 -0.7943  0.1560 -0.1553
  483MOL0     C65076   2.517   6.292   2.231  1.0149 -0.6973  0.4541
  483MOL0     C65077   2.462   6.374   2.132  0.8495 -0.5522  0.0390
  483MOL0     O65078   2.327   6.363   2.102  0.2596  0.1478  0.0480
  483MOL0     C65079   2.268   6.438   1.995  0.3840  0.0716  0.5955
  483MOL0     C65080   2.118   6.417   2.012  0.1853 -0.0980  0.4024
  483MOL0     C65081   2.072   6.280   1.959 -0.2319  0.1397  0.1081
  483MOL0     C65082   1.924   6.276   1.928 -0.2714 -1.1419  1.0812
  483MOL0     C65083   1.890   6.128   1.932 -0.6671  0.3875 -0.2499
  483MOL0     C65084   1.744   6.114   1.906  0.0749  0.0011 -0.2133
  483MOL0     C65085   1.705   5.962   1.916  0.4765  0.1557 -0.5069
  483MOL0     C65086   1.561   5.929   1.875  0.3324 -0.0185 -0.5084
  483MOL0     N65087   1.458   5.977   1.973  0.1514 -0.8520 -0.0238
  483MOL0     C65088   1.418   6.102   1.974  0.1674  0.5824  0.2626
  483MOL0     C65089   1.334   6.108   2.081  0.5946 -0.2927 -0.2123
  483MOL0     C65090   1.259   6.236   2.128  0.0674  0.1543  0.7105
  483MOL0     C65091   1.327   6.314   2.244  0.1155  0.5866  0.5285
  483MOL0     C65092   1.475   6.352   2.214  0.7664 -0.5207  0.6523
  483MOL0     C65093   1.501   6.452   2.095 -0.1079 -0.7918  0.5663
  483MOL0     O65094   1.639   6.505   2.106  0.4193 -0.2781  0.3474
  483MOL0     C65095   1.685   6.595   2.015 -0.3180 -0.6684  0.2246
  483MOL0     C65096   1.629   6.619   1.889 -0.9113  0.5479 -0.7069
  483MOL0     C65097   1.685   6.697   1.792  1.0547  0.1908 -0.0490
  483MOL0     C65098   1.613   6.713   1.660 -0.3359  0.0687 -0.4642
  483MOL0     C65099   1.810   6.754   1.828 -0.3423 -0.2911 -0.4813
  483MOL0     C65100   1.889   6.845   1.736 -0.0427 -0.0219 -0.4560
  483MOL0     O65101   1.991   6.914   1.788  0.3777  0.2013  0.4358
  483MOL0     C65102   2.030   7.029   1.730 -0.5086 -0.2536  0.5359
  483MOL0     C65103   2.163   7.065   1.751 -0.2450 -0.5014  0.1544
  483MOL0     C65104   2.215   7.185   1.708  0.1105 -0.5797 -0.3532
  483MOL0     C65105   2.127   7.284   1.648  0.0433  0.7566  0.4210
  483MOL0     O65106   2.198   7.390   1.602  0.4463 -0.4161  0.0144
  483MOL0     C65107   2.164   7.432   1.470 -0.6516  0.7973  0.8661
  483MOL0     C65108   2.295   7.454   1.390  0.5905  0.2172  0.1329
  483MOL0     C65109   2.375   7.581   1.431 -0.0376 -0.7941 -0.5341
  483MOL0     C65110   2.427   7.671   1.320  0.9232 -0.3724  0.9198
  483MOL0     C65111   2.429   7.821   1.355 -0.1343 -0.5909 -0.0828
  483MOL0     C65112   2.498   7.907   1.247 -0.7612 -0.3970 -0.0893
  483MOL0     C65113   2.527   8.060   1.278  0.2255  0.1995 -1.0113
  483MOL0     C65114   2.402   8.137   1.332  0.1140  1.0071 -0.4685
  483MOL0    Cl65115   2.424   8.316   1.306 -0.0020  0.3408 -0.0286
  483MOL0     C65116   1.987   7.254   1.629  0.8610 -0.3497  0.4045
  483MOL0     C65117   1.942   7.127   1.673  0.0312 -1.0533  0.2213
  483MOL0     O65118   1.864   6.841   1.618 -0.0527  0.6095  0.4819
  483MOL0     C65119   1.873   6.735   1.951  0.1158 -0.6409  0.3305
  483MOL0     C65120   1.811   6.656   2.042 -0.0936  0.5155 -0.6374
  483MOL0     N65121   1.338   5.984   2.140 -1.1786 -0.5300  0.1050
  483MOL0     N65122   1.408   5.906   2.072  0.0526  0.3213  0.7122
  483MOL0     C65123   2.554   6.463   2.070  0.9522  0.6556  0.2002
  483MOL0     C65124   2.685   6.463   2.109 -0.7495  0.0979 -0.5150
  483MOL0     C65125   3.123   6.407   2.186 -0.1856  0.6927 -0.7581
  483MOL0     C65126   3.157   6.354   2.311 -0.1408  0.4224 -0.1082
  483MOL0     C65127   3.292   6.354   2.348  0.0958  0.3579 -0.1100
  483MOL0     C65128   3.388   6.398   2.262 -0.3477  0.4359 -0.7228
  483MOL0     O65129   3.522   6.370   2.305  1.2500 -0.1903  0.2952
  483MOL0     C65130   3.645   6.435   2.258  1.3605  0.3851  0.8362
  483MOL0     C65131   3.731   6.486   2.381  0.0595  0.6835 -0.5732
  483MOL0     C65132   3.806   6.374   2.457  0.0826 -0.7777  0.2873
  483MOL0     C65133   3.914   6.428   2.553  0.3199  0.1559  0.6160
  483MOL0     C65134   4.005   6.318   2.590  0.2005  0.2487  0.2499
  483MOL0     C65135   4.084   6.231   2.617 -0.0611 -0.7639  0.6654
  483MOL0     C65136   3.361   6.454   2.143 -0.0175 -0.4204 -0.4871
  483MOL0     C65137   3.223   6.464   2.110 -0.6528 -0.2167 -0.0640
  483MOL0     H65138   2.691   6.205   2.314 -2.0342 -1.6033 -1.6607
  483MOL0     H65139   2.452   6.214   2.269  0.0405 -1.1287 -1.9210
  483MOL0     H65140   2.281   6.546   2.003  0.5004  0.2031 -0.9444
  483MOL0     H65141   2.301   6.391   1.901  4.3294 -3.2483  3.2639
  483MOL0     H65142   2.085   6.418   2.116 -1.6915  1.6795 -0.1389
  483MOL0     H65143   2.064   6.494   1.957  3.9038  2.0701 -0.5201
  483MOL0     H65144   2.120   6.269   1.861  3.1786 -1.9118  1.8153
  483MOL0     H65145   2.099   6.206   2.034 -0.1195  0.2488  0.1762
  483MOL0     H65146   1.876   6.336   2.006  3.7072  2.8262  0.9337
  483MOL0     H65147   1.897   6.317   1.830 -0.5663  1.2669  2.0995
  483MOL0     H65148   1.949   6.079   1.854  1.0722  1.1169  0.5610
  483MOL0     H65149   1.918   6.096   2.033 -0.0470 -0.3552 -0.6489
  483MOL0     H65150   1.691   6.161   1.989 -1.8920  0.3434 -1.5832
  483MOL0     H65151   1.718   6.159   1.810 -1.4723  0.9784  0.6091
  483MOL0     H65152   1.772   5.905   1.851  1.2011 -0.0269  0.3668
  483MOL0     H65153   1.730   5.924   2.016 -0.0173 -1.7977 -1.0791
  483MOL0     H65154   1.554   5.820   1.867  2.5941 -0.2205 -0.4920
  483MOL0     H65155   1.549   5.964   1.772  3.1940  0.8733 -0.6319
  483MOL0     H65156   1.431   6.183   1.902 -1.7576  0.3938 -0.3620
  483MOL0     H65157   1.277   6.303   2.044  2.3189  0.1863  1.1400
  483MOL0     H65158   1.152   6.216   2.137  0.2566 -1.4334 -0.0524
  483MOL0     H65159   1.316   6.258   2.337 -3.6503  2.0689  1.1642
  483MOL0     H65160   1.267   6.404   2.263 -0.9881  0.1368 -0.6297
  483MOL0     H65161   1.538   6.265   2.195  0.3115 -0.4985 -1.1393
  483MOL0     H65162   1.518   6.403   2.301 -1.4184  0.1260  1.4151
  483MOL0     H65163   1.433   6.537   2.099  1.1381  0.2517  0.1965
  483MOL0     H65164   1.483   6.406   1.997  0.9686  1.0556 -0.5457
  483MOL0     H65165   1.533   6.573   1.866 -1.8816  2.1943 -0.1112
  483MOL0     H65166   1.505   6.696   1.672  0.1698 -2.4945  1.4249
  483MOL0     H65167   1.625   6.819   1.638 -1.7914  0.2113 -0.7192
  483MOL0     H65168   1.647   6.637   1.590  1.2761 -1.0019  1.3727
  483MOL0     H65169   2.229   6.999   1.808  1.5395  1.8573  0.9755
  483MOL0     H65170   2.320   7.207   1.697 -0.0194 -0.0626 -0.5996
  483MOL0     H65171   2.104   7.357   1.418  1.7309  0.1348 -1.1139
  483MOL0     H65172   2.112   7.529   1.473 -0.3368  0.9308  2.3118
  483MOL0     H65173   2.365   7.372   1.410  1.1567  0.2307 -1.5934
  483MOL0     H65174   2.262   7.469   1.287 -2.9987  1.4254  1.3229
  483MOL0     H65175   2.464   7.540   1.480 -0.1086 -1.2138 -0.7496
  483MOL0     H65176   2.318   7.644   1.498  0.8228  0.8469 -1.2899
  483MOL0     H65177   2.523   7.635   1.282  0.3268 -0.6650 -0.3818
  483MOL0     H65178   2.361   7.663   1.233  3.1860  1.9931 -1.2090
  483MOL0     H65179   2.478   7.842   1.450  0.8221  1.6440 -1.0042
  483MOL0     H65180   2.328   7.861   1.364  0.2230  0.7018 -1.4532
  483MOL0     H65181   2.591   7.851   1.234 -2.6878 -4.5303  1.9510
  483MOL0     H65182   2.450   7.927   1.150 -1.5046 -1.5000  0.0314
  483MOL0     H65183   2.565   8.107   1.186  2.4901  1.2604  0.3813
  483MOL0     H65184   2.607   8.075   1.351 -0.0818 -1.8562 -0.1838
  483MOL0     H65185   2.398   8.109   1.438  1.1575 -1.5194 -1.0309
  483MOL0     H65186   2.307   8.103   1.291 -0.1368  0.0573  0.8097
  483MOL0     H65187   1.905   7.321   1.606  3.0984  1.8923 -1.5481
  483MOL0     H65188   1.836   7.104   1.669 -0.6135  1.4026  1.1578
  483MOL0     H65189   1.979   6.751   1.963 -0.0441  0.5832  0.3008
  483MOL0     H65190   1.862   6.626   2.133  1.6444  1.2035 -1.3312
  483MOL0     H65191   2.514   6.519   1.987 -0.1192  1.1264  1.0147
  483MOL0     H65192   2.744   6.545   2.070 -0.7395  0.0499 -0.5999
  483MOL0     H65193   3.077   6.306   2.367 -0.9226  0.3993 -1.2153
  483MOL0     H65194   3.314   6.301   2.441  0.4144 -1.4456 -1.1640
  483MOL0     H65195   3.696   6.354   2.205 -3.4734 -2.4093 -0.1602
  483MOL0     H65196   3.607   6.512   2.190  1.3017  0.8473  1.3873
  483MOL0     H65197   3.672   6.544   2.453 -0.4312 -1.4874  0.8810
  483MOL0     H65198   3.799   6.547   2.321  0.0144 -0.5871 -1.9766
  483MOL0     H65199   3.859   6.315   2.381  1.6885 -0.3554  1.0361
  483MOL0     H65200   3.730   6.308   2.501 -1.1523 -0.5582 -1.4189
  483MOL0     H65201   3.859   6.468   2.639  0.2691  2.0627 -0.2656
  483MOL0     H65202   3.971   6.515   2.520 -0.3692  0.6266  0.6641
  483MOL0     H65203   4.162   6.159   2.632  1.3445  0.3968 -0.6404
  483MOL0     H65204   3.434   6.502   2.078  0.7630  0.4159  0.9389
  483MOL0     H65205   3.197   6.518   2.019 -0.8735 -0.8480 -0.3801
  484MOL0     O65206   1.997   0.571   1.965  0.5802  0.5562  0.4486
  484MOL0     C65207   2.033   0.673   1.911  0.3572  0.2713  0.7634
  484MOL0     O65208   1.954   0.784   1.896  0.2576  0.7309  0.2283
  484MOL0     C65209   1.821   0.797   1.931 -0.3042  0.0742 -0.4657
  484MOL0     C65210   1.765   0.922   1.894 -0.0046 -0.7950 -0.4452
  484MOL0     C65211   1.638   0.961   1.920  0.0234  0.6681  0.3494
  484MOL0     C65212   1.563   0.874   1.991  0.6067  0.1595 -0.8889
  484MOL0     O65213   1.430   0.906   2.029  0.4358  0.7849 -0.0574
  484MOL0     C65214   1.357   0.977   1.935  0.7530 -0.2514  0.8585
  484MOL0     C65215   1.207   0.940   1.943 -0.9830 -0.1271  0.5102
  484MOL0     C65216   1.137   0.983   2.074  0.1867  0.6222 -0.1204
  484MOL0     C65217   0.989   0.952   2.068  0.2934 -0.4920 -1.1887
  484MOL0     C65218   0.920   1.002   2.199 -0.4625 -0.2727  1.0069
  484MOL0     C65219   0.766   0.987   2.185  0.4945  0.2449 -0.7635
  484MOL0     C65220   0.691   1.020   2.320 -0.6597  0.0987  0.8042
  484MOL0     C65221   0.549   0.970   2.311 -0.7592 -0.2826  0.2137
  484MOL0     N65222   0.463   1.010   2.422 -0.9208  0.2966  0.4389
  484MOL0     C65223   0.440   0.922   2.523  0.2962  0.6960 -0.3731
  484MOL0     C65224   0.336   0.975   2.587 -0.4797 -0.4242  0.0384
  484MOL0     C65225   0.267   0.915   2.708 -0.1802 -0.5686 -0.2432
  484MOL0     C65226   0.119   0.904   2.701 -0.0440 -0.7980 -0.1348
  484MOL0     C65227   0.046   0.823   2.821 -0.6420  0.5416  0.2565
  484MOL0     C65228  -0.103   0.840   2.805 -0.6446 -0.1599 -0.7529
  484MOL0     O65229  -0.146   0.795   2.677 -0.5720 -0.6208  0.4192
  484MOL0     C65230  -0.280   0.811   2.667  0.3465  0.3603  0.9054
  484MOL0     C65231  -0.323   0.931   2.635  0.0469  0.4291 -0.7262
  484MOL0     C65232  -0.457   0.963   2.616 -0.1078 -1.0326  0.4138
  484MOL0     C65233  -0.497   1.106   2.595 -0.4227 -0.2754  0.5358
  484MOL0     C65234  -0.553   0.858   2.620  0.1458  0.2112 -0.6233
  484MOL0     C65235  -0.693   0.880   2.614 -0.2880  0.3752 -0.1943
  484MOL0     O65236  -0.768   0.788   2.549 -0.3151  0.0806 -0.3961
  484MOL0     C65237  -0.892   0.835   2.496 -0.2388  0.3013 -0.0811
  484MOL0     C65238  -1.000   0.743   2.514 -0.0674  0.1300  0.2951
  484MOL0     C65239  -1.124   0.781   2.462  0.4724 -0.7831  0.6534
  484MOL0     C65240  -1.140   0.905   2.392 -0.4196 -0.4927 -0.4062
  484MOL0     O65241  -1.264   0.924   2.332 -0.3263 -0.1413  0.4067
  484MOL0     C65242  -1.372   0.932   2.435  0.1950  0.9753 -0.5286
  484MOL0     C65243  -1.460   0.811   2.418 -0.0209 -0.1504 -0.2307
  484MOL0     C65244  -1.582   0.818   2.511 -0.4807  1.3578  0.8128
  484MOL0     C65245  -1.700   0.902   2.455  0.7254 -0.1012 -1.0207
  484MOL0     C65246  -1.831   0.865   2.509 -0.8204 -0.1281 -0.2055
  484MOL0     C65247  -1.953   0.904   2.429 -0.9533 -0.9436 -0.5473
  484MOL0     C65248  -1.993   0.807   2.326 -0.0663  0.3333  0.2887
  484MOL0     C65249  -2.127   0.846   2.254 -0.7690 -0.7757 -0.1272
  484MOL0    Cl65250  -2.136   0.792   2.083  0.0729  0.1524 -0.4747
  484MOL0     C65251  -1.042   1.001   2.380 -0.1846  0.1715  0.4632
  484MOL0     C65252  -0.920   0.966   2.440 -0.1237  0.3196  0.5489
  484MOL0     O65253  -0.740   0.968   2.686 -0.3501  0.4963 -0.3038
  484MOL0     C65254  -0.506   0.727   2.634  0.9970  0.3883 -0.2674
  484MOL0     C65255  -0.373   0.706   2.665 -0.2623 -1.0180 -0.2194
  484MOL0     N65256   0.289   1.088   2.514 -0.1320 -0.6959 -0.7350
  484MOL0     N65257   0.376   1.114   2.422 -0.0664 -1.1292  0.1218
  484MOL0     C65258   1.618   0.756   2.046  0.6547 -0.5047  0.0598
  484MOL0     C65259   1.742   0.706   1.998 -0.3177  0.1075 -0.4555
  484MOL0     C65260   2.169   0.672   1.852  0.4586  0.5174  0.7727
  484MOL0     C65261   2.208   0.788   1.784  0.0933  0.3887  1.0283
  484MOL0     C65262   2.334   0.799   1.733 -0.3968  0.1578  0.9238
  484MOL0     C65263   2.432   0.692   1.739 -0.2556 -0.0233  0.0092
  484MOL0     O65264   2.563   0.708   1.706 -0.8645 -0.1230  0.2030
  484MOL0     C65265   2.626   0.813   1.788  0.2938  0.2196  0.0224
  484MOL0     C65266   2.769   0.837   1.742 -0.8450  0.6972  0.0126
  484MOL0     C65267   2.877   0.809   1.844 -0.2781  0.0060  0.5923
  484MOL0     C65268   2.914   0.661   1.851  0.8022  0.8841 -0.1468
  484MOL0     C65269   2.995   0.616   1.738  0.2233  0.0457 -0.4848
  484MOL0     C65270   3.070   0.583   1.649 -0.2947 -0.3210  0.3764
  484MOL0     C65271   2.393   0.582   1.810  0.3968  1.3080 -0.3172
  484MOL0     C65272   2.268   0.572   1.870  0.3974 -0.1381  0.4340
  484MOL0     H65273   1.830   0.986   1.835 -1.1339 -0.8163 -1.7867
  484MOL0     H65274   1.591   1.057   1.901 -3.8323 -0.0707  4.3629
  484MOL0     H65275   1.355   1.084   1.960  1.0780 -0.7057  3.0332
  484MOL0     H65276   1.388   0.955   1.833  3.1539 -1.1547  1.6992
  484MOL0     H65277   1.154   0.978   1.855 -1.5955 -2.6698 -0.3290
  484MOL0     H65278   1.196   0.831   1.935  0.4572 -0.1529 -4.3512
  484MOL0     H65279   1.169   0.915   2.154 -2.7874 -2.2737 -1.1220
  484MOL0     H65280   1.156   1.086   2.103 -1.9531  0.9177  0.4305
  484MOL0     H65281   0.948   1.010   1.985 -2.9454 -1.1677 -0.2012
  484MOL0     H65282   0.966   0.846   2.054 -1.5896 -0.4162  0.8113
  484MOL0     H65283   0.957   0.958   2.292  0.5579  0.9578  1.2113
  484MOL0     H65284   0.944   1.108   2.209 -4.5290  0.9306  0.0691
  484MOL0     H65285   0.729   1.054   2.107  1.3163  0.0075 -1.3804
  484MOL0     H65286   0.751   0.883   2.154 -0.2162 -0.2232  1.0384
  484MOL0     H65287   0.746   0.966   2.399  1.7157  1.4816  0.2044
  484MOL0     H65288   0.697   1.129   2.322  4.6566  0.2059 -2.1979
  484MOL0     H65289   0.552   0.861   2.311 -0.9563 -0.3268  2.2182
  484MOL0     H65290   0.503   1.005   2.218  1.7064 -1.9443 -1.7876
  484MOL0     H65291   0.498   0.835   2.553 -1.9890 -0.6202  0.4849
  484MOL0     H65292   0.302   0.812   2.718  1.2389 -0.2191 -1.2010
  484MOL0     H65293   0.295   0.961   2.804  0.2528 -0.9094 -0.2050
  484MOL0     H65294   0.088   0.849   2.612 -3.1585 -0.8465  0.8751
  484MOL0     H65295   0.081   1.006   2.697  0.2539 -0.6417  0.7840
  484MOL0     H65296   0.081   0.848   2.921 -2.0230 -0.6432  1.0950
  484MOL0     H65297   0.070   0.719   2.798  0.9269  1.3346 -2.0028
  484MOL0     H65298  -0.119   0.947   2.822 -1.1978 -0.7644  4.1725
  484MOL0     H65299  -0.153   0.782   2.883  2.3338 -1.1903  0.5522
  484MOL0     H65300  -0.247   1.009   2.636 -0.1660  0.7528  2.9490
  484MOL0     H65301  -0.536   1.155   2.684  2.4848  1.6822  0.8516
  484MOL0     H65302  -0.411   1.168   2.569 -1.5967  1.0112 -0.4645
  484MOL0     H65303  -0.564   1.125   2.510 -0.3499 -0.8923  0.3308
  484MOL0     H65304  -0.976   0.650   2.564  1.5308  0.1288 -0.4003
  484MOL0     H65305  -1.196   0.700   2.471 -0.1585 -0.6049 -1.9635
  484MOL0     H65306  -1.340   0.931   2.540  0.1986  1.1277 -0.5285
  484MOL0     H65307  -1.427   1.025   2.417 -0.9708  0.8294  1.8054
  484MOL0     H65308  -1.488   0.785   2.315 -2.3310  0.6720  0.1361
  484MOL0     H65309  -1.402   0.725   2.452  0.3385  0.1642 -0.0481
  484MOL0     H65310  -1.548   0.856   2.608  0.4620  2.1567  0.1809
  484MOL0     H65311  -1.603   0.711   2.524  2.2026  0.6460 -0.1257
  484MOL0     H65312  -1.682   1.010   2.464  2.0958 -0.4213  0.5107
  484MOL0     H65313  -1.709   0.876   2.349 -0.8260  1.5180 -1.3482
  484MOL0     H65314  -1.832   0.895   2.614  0.3828  0.8331 -0.4421
  484MOL0     H65315  -1.832   0.756   2.504  0.3245 -0.1976  0.7148
  484MOL0     H65316  -2.033   0.939   2.494  0.0359  2.2385 -0.8339
  484MOL0     H65317  -1.924   0.999   2.383  0.3359 -0.2738  1.5357
  484MOL0     H65318  -2.009   0.705   2.364 -2.1504 -0.0889 -1.5289
  484MOL0     H65319  -1.915   0.791   2.251  0.6000  1.9806  0.5874
  484MOL0     H65320  -2.146   0.954   2.250  1.3961 -0.2188  1.9709
  484MOL0     H65321  -2.211   0.799   2.306 -0.3958  0.0073  1.2498
  484MOL0     H65322  -1.068   1.100   2.344 -0.5770 -0.7386 -1.9779
  484MOL0     H65323  -0.840   1.039   2.444 -0.2712  0.6701 -1.7834
  484MOL0     H65324  -0.565   0.636   2.622  0.1411  0.8457  0.3137
  484MOL0     H65325  -0.353   0.600   2.661  0.2986 -0.8809 -1.6252
  484MOL0     H65326   1.549   0.691   2.100 -1.2132 -1.4073 -3.1190
  484MOL0     H65327   1.767   0.609   2.041 -1.6122 -0.9135 -1.8969
  484MOL0     H65328   2.141   0.871   1.764 -1.7319 -1.4803 -1.0837
  484MOL0     H65329   2.352   0.894   1.683 -0.5263 -0.9318 -1.3088
  484MOL0     H65330   2.569   0.905   1.773 -2.6014 -1.6371 -1.3134
  484MOL0     H65331   2.624   0.775   1.891 -2.6054 -1.2562 -0.4805
  484MOL0     H65332   2.786   0.944   1.724 -2.2911  0.9163 -0.1906
  484MOL0     H65333   2.785   0.776   1.652 -2.4452 -0.9971  0.8198
  484MOL0     H65334   2.830   0.840   1.938 -1.9818 -1.0650  0.1457
  484MOL0     H65335   2.967   0.868   1.827 -0.8965  1.1950  1.3307
  484MOL0     H65336   2.825   0.599   1.861  0.6849  0.8645 -1.2279
  484MOL0     H65337   2.972   0.640   1.942 -0.9310  0.5302  0.9137
  484MOL0     H65338   3.136   0.545   1.573  0.1077 -2.1189  1.5549
  484MOL0     H65339   2.461   0.498   1.818 -1.5143 -0.1254  2.3716
  484MOL0     H65340   2.239   0.492   1.937 -0.8234 -0.3273 -0.2845
  485MOL0     O65341   3.595   6.759   0.839  0.3928 -0.2881 -0.4971
  485MOL0     C65342   3.634   6.723   0.723 -0.5307  0.3574  0.5798
  485MOL0     O65343   3.547   6.717   0.610  0.0076 -0.1304  0.3473
  485MOL0     C65344   3.419   6.666   0.632  0.0843  1.1937 -0.7478
  485MOL0     C65345   3.400   6.526   0.662  0.0662 -0.3466  0.9850
  485MOL0     C65346   3.271   6.484   0.699  0.2794  0.8418  0.7249
  485MOL0     C65347   3.166   6.567   0.693  0.3752 -0.0825 -0.1993
  485MOL0     O65348   3.038   6.517   0.725  0.1665 -1.1523  0.0697
  485MOL0     C65349   2.946   6.608   0.794  0.7690 -0.3817 -0.5957
  485MOL0     C65350   2.826   6.546   0.843 -0.4303  0.2622  0.8074
  485MOL0     C65351   2.739   6.512   0.725  0.9403  0.7248  0.2442
  485MOL0     C65352   2.592   6.487   0.769 -0.4446  1.0271 -0.9228
  485MOL0     C65353   2.497   6.457   0.653 -0.0587  0.3029  0.2491
  485MOL0     C65354   2.342   6.475   0.685 -0.3143  0.3945  0.2149
  485MOL0     C65355   2.304   6.361   0.789 -0.8452  0.0302  0.3127
  485MOL0     C65356   2.160   6.363   0.813  0.6609  0.4077 -0.6132
  485MOL0     N65357   2.104   6.496   0.845 -0.8116  0.1812  0.5138
  485MOL0     C65358   2.094   6.548   0.973  0.5005 -0.0131 -0.2509
  485MOL0     C65359   2.002   6.650   0.960  0.3237  0.4854  0.6340
  485MOL0     C65360   1.959   6.741   1.071  0.2127 -0.3687 -0.7439
  485MOL0     C65361   1.913   6.659   1.190 -0.3201  0.6463 -0.4147
  485MOL0     C65362   1.867   6.739   1.315 -0.1964 -0.3825 -0.6584
  485MOL0     C65363   1.725   6.800   1.276  0.1811 -0.8143  0.4093
  485MOL0     O65364   1.611   6.711   1.302 -0.1140 -0.1295  0.1178
  485MOL0     C65365   1.482   6.766   1.304 -0.2307  1.2997 -0.5168
  485MOL0     C65366   1.388   6.699   1.382  0.3367  0.3721 -0.4274
  485MOL0     C65367   1.256   6.739   1.387 -0.4503 -0.6897  0.3814
  485MOL0     C65368   1.164   6.648   1.466 -0.1731  0.1860  0.0946
  485MOL0     C65369   1.230   6.871   1.338  0.2062  0.3629 -1.1192
  485MOL0     C65370   1.104   6.949   1.365  0.4533  0.0061 -0.0340
  485MOL0     O65371   1.051   7.037   1.271  0.0755  0.0990 -0.2994
  485MOL0     C65372   0.941   7.113   1.291 -0.5325 -0.5130 -0.0504
  485MOL0     C65373   0.939   7.233   1.225  0.3466 -0.1833  0.1392
  485MOL0     C65374   0.824   7.321   1.232 -0.6136 -0.1472 -0.3758
  485MOL0     C65375   0.711   7.284   1.301  0.7552 -1.3089  0.6724
  485MOL0     O65376   0.605   7.379   1.298 -0.1935  0.3684 -0.1074
  485MOL0     C65377   0.477   7.320   1.336 -0.5360 -0.8970  0.6461
  485MOL0     C65378   0.374   7.433   1.354  0.0223  0.1962  0.0815
  485MOL0     C65379   0.365   7.532   1.225 -1.4435 -0.6906  0.7575
  485MOL0     C65380   0.222   7.583   1.194  0.2246  0.2456  1.2570
  485MOL0     C65381   0.210   7.687   1.082  0.1407 -0.2061  0.3649
  485MOL0     C65382   0.072   7.761   1.084 -0.7534 -0.2123  0.2148
  485MOL0     C65383  -0.048   7.673   1.046 -0.3460  0.0217  0.5979
  485MOL0     C65384  -0.020   7.592   0.916 -0.3099  0.3039 -0.1119
  485MOL0    Cl65385  -0.177   7.536   0.857  0.0232 -0.3148 -0.2216
  485MOL0     C65386   0.714   7.159   1.361  0.0837  0.0408 -0.5787
  485MOL0     C65387   0.826   7.074   1.362  0.5111 -0.2915 -0.4717
  485MOL0     O65388   1.049   6.919   1.472  0.0742 -0.1005 -0.2862
  485MOL0     C65389   1.321   6.940   1.256  0.2445 -0.0335  0.8260
  485MOL0     C65390   1.448   6.888   1.239 -0.2907  0.5251 -0.3806
  485MOL0     N65391   1.969   6.664   0.828 -0.7255  0.0615 -0.2497
  485MOL0     N65392   2.029   6.580   0.761 -0.8423  0.6888 -0.0948
  485MOL0     C65393   3.183   6.699   0.661  0.2506  0.4177  0.2246
  485MOL0     C65394   3.305   6.751   0.628 -0.0050  0.2859  0.3413
  485MOL0     C65395   3.781   6.689   0.699  0.5211  0.4607  0.1293
  485MOL0     C65396   3.865   6.686   0.818 -0.1285  0.7272  0.1242
  485MOL0     C65397   4.007   6.663   0.799  0.0388 -0.0725 -0.2390
  485MOL0     C65398   4.056   6.644   0.666 -0.6721  0.4840 -0.1341
  485MOL0     O65399   4.184   6.616   0.646  0.0547  0.5258  0.5230
  485MOL0     C65400   4.284   6.598   0.749 -0.5019  0.3456 -0.1121
  485MOL0     C65401   4.423   6.581   0.699  0.3487  0.4612 -0.5285
  485MOL0     C65402   4.468   6.707   0.629 -0.8970 -0.2135  0.1948
  485MOL0     C65403   4.489   6.837   0.705 -0.2087  0.4740  0.4152
  485MOL0     C65404   4.609   6.832   0.793  0.3612  0.6122 -0.7422
  485MOL0     C65405   4.702   6.801   0.872  0.4841 -0.2493  0.1659
  485MOL0     C65406   3.972   6.659   0.556 -0.1885 -0.2475  0.5177
  485MOL0     C65407   3.840   6.677   0.569  0.1072 -0.5872 -0.0564
  485MOL0     H65408   3.482   6.456   0.662 -0.9695 -1.6073  1.8649
  485MOL0     H65409   3.243   6.383   0.726 -1.4061  0.1676 -2.9755
  485MOL0     H65410   3.007   6.647   0.877  1.9257  0.9117 -1.9903
  485MOL0     H65411   2.921   6.699   0.739 -1.0150  0.8922  2.0751
  485MOL0     H65412   2.844   6.463   0.913 -1.1425  0.1503  0.8647
  485MOL0     H65413   2.775   6.622   0.903 -0.2168  1.6899 -0.7714
  485MOL0     H65414   2.740   6.597   0.656 -0.7624 -1.2473 -2.4164
  485MOL0     H65415   2.767   6.416   0.680 -0.6780 -0.0239  0.7472
  485MOL0     H65416   2.590   6.405   0.841  0.1049  1.8635  0.0649
  485MOL0     H65417   2.548   6.568   0.828 -1.0917  0.6047 -0.8060
  485MOL0     H65418   2.527   6.518   0.567  2.2128  0.1654  0.8667
  485MOL0     H65419   2.516   6.353   0.624  2.3583  0.7643 -0.1061
  485MOL0     H65420   2.323   6.576   0.721  0.2697  0.9241 -0.9020
  485MOL0     H65421   2.275   6.460   0.599 -0.5598 -0.5915  0.5603
  485MOL0     H65422   2.340   6.263   0.756  2.0837  0.5711  1.5445
  485MOL0     H65423   2.348   6.390   0.886 -1.4804 -1.0841  0.9591
  485MOL0     H65424   2.132   6.307   0.903 -0.0945  0.4844 -0.7883
  485MOL0     H65425   2.101   6.317   0.733  0.6826 -0.1436 -0.3167
  485MOL0     H65426   2.139   6.510   1.064  2.6793  1.7423 -0.5170
  485MOL0     H65427   2.042   6.807   1.099 -1.3649  2.6611 -2.6778
  485MOL0     H65428   1.885   6.815   1.040  2.3843  1.5270 -1.7333
  485MOL0     H65429   1.991   6.593   1.229 -1.7332 -0.1595  1.1465
  485MOL0     H65430   1.826   6.600   1.163 -1.6077  1.9502  0.7280
  485MOL0     H65431   1.937   6.822   1.335  0.7564 -0.2928 -3.7098
  485MOL0     H65432   1.861   6.680   1.406  0.8941  1.3772  0.6096
  485MOL0     H65433   1.715   6.845   1.177 -1.0591 -0.5345  0.6410
  485MOL0     H65434   1.725   6.880   1.351  2.9872  0.2912 -0.6460
  485MOL0     H65435   1.421   6.611   1.437  1.5462  0.8409 -0.3834
  485MOL0     H65436   1.174   6.542   1.445 -1.7136  0.3015 -1.4341
  485MOL0     H65437   1.162   6.678   1.572 -2.6581  0.5690  0.0059
  485MOL0     H65438   1.063   6.666   1.428 -1.1189 -1.2982  1.7397
  485MOL0     H65439   1.012   7.279   1.160  0.0509  0.8117  0.4884
  485MOL0     H65440   0.821   7.417   1.183 -0.2986 -0.3540 -0.8015
  485MOL0     H65441   0.446   7.248   1.260  2.7946 -2.1008  0.2383
  485MOL0     H65442   0.481   7.258   1.426 -1.5501  0.0084  1.3322
  485MOL0     H65443   0.278   7.395   1.389  0.5029 -1.5923 -0.4103
  485MOL0     H65444   0.419   7.492   1.434 -0.1617  0.9579 -0.3710
  485MOL0     H65445   0.407   7.485   1.136 -1.8336  0.9908 -0.3604
  485MOL0     H65446   0.430   7.619   1.238 -0.6161 -1.1579 -0.0955
  485MOL0     H65447   0.153   7.503   1.166 -2.4758  2.3000  1.6436
  485MOL0     H65448   0.176   7.623   1.284 -0.6592  5.0218 -0.9885
  485MOL0     H65449   0.229   7.638   0.986  1.1073  1.1909 -0.1820
  485MOL0     H65450   0.272   7.774   1.103 -1.4626  0.7944  1.1267
  485MOL0     H65451   0.058   7.821   1.175  0.2159  0.9131 -0.3472
  485MOL0     H65452   0.082   7.844   1.014 -2.1680  1.9910  2.4499
  485MOL0     H65453  -0.135   7.739   1.038 -0.0559  0.4338  0.7733
  485MOL0     H65454  -0.072   7.590   1.114 -5.3919 -0.3433 -1.1901
  485MOL0     H65455   0.051   7.514   0.944  1.9610  3.2790  3.3676
  485MOL0     H65456   0.032   7.658   0.845  3.0088 -0.3708  1.5069
  485MOL0     H65457   0.637   7.113   1.422  0.9372 -1.1181 -0.3355
  485MOL0     H65458   0.807   6.977   1.407 -1.1603 -0.1266 -0.7390
  485MOL0     H65459   1.290   7.030   1.203 -0.8564 -0.3222  0.9574
  485MOL0     H65460   1.523   6.932   1.174 -0.4581 -0.4313 -1.2341
  485MOL0     H65461   3.099   6.767   0.649  0.8775  1.6500  2.3297
  485MOL0     H65462   3.298   6.857   0.603 -0.9326 -0.3871 -2.6266
  485MOL0     H65463   3.831   6.707   0.919  3.1115 -0.3085  1.5688
  485MOL0     H65464   4.072   6.667   0.885 -3.2642 -0.0977  2.4858
  485MOL0     H65465   4.288   6.686   0.814  3.3853 -1.6733  2.8390
  485MOL0     H65466   4.255   6.508   0.805 -1.2261 -0.3771 -1.5889
  485MOL0     H65467   4.423   6.498   0.628 -0.3738 -0.0967  0.1080
  485MOL0     H65468   4.485   6.554   0.785 -1.5769  0.0300  0.7768
  485MOL0     H65469   4.392   6.732   0.554 -0.8896 -1.3632 -0.2303
  485MOL0     H65470   4.562   6.687   0.576 -0.8474  3.3183 -1.3427
  485MOL0     H65471   4.406   6.849   0.774  1.4249  1.1268  2.3595
  485MOL0     H65472   4.481   6.929   0.646 -1.5238  0.4878  0.5940
  485MOL0     H65473   4.774   6.767   0.944  3.9613  0.9978 -2.4136
  485MOL0     H65474   4.019   6.658   0.458 -0.6549 -1.6229  0.2790
  485MOL0     H65475   3.778   6.679   0.480  3.4270  0.7710 -2.5341
  486MOL0     O65476   5.281   3.949   5.123 -0.4413 -0.4378  0.0765
  486MOL0     C65477   5.387   3.941   5.055 -0.4021  0.6530  0.3064
  486MOL0     O65478   5.406   3.886   4.932 -0.6000  0.5771  0.1944
  486MOL0     C65479   5.302   3.840   4.852 -0.0425  0.5756  0.0142
  486MOL0     C65480   5.162   3.873   4.858 -0.8201 -0.1588 -0.1224
  486MOL0     C65481   5.066   3.813   4.773  0.4306 -0.0765  0.4796
  486MOL0     C65482   5.105   3.712   4.680  0.4610  0.9835 -0.2008
  486MOL0     O65483   5.019   3.629   4.611  0.2923 -0.4975 -0.1879
  486MOL0     C65484   4.876   3.645   4.629 -0.4613  0.4446  0.2040
  486MOL0     C65485   4.808   3.597   4.499 -0.7737 -0.1071 -0.6666
  486MOL0     C65486   4.655   3.626   4.493  0.3668 -0.6004  0.5499
  486MOL0     C65487   4.589   3.594   4.629  0.3576 -0.4306 -0.3339
  486MOL0     C65488   4.438   3.605   4.629  0.3841  0.4728  0.7341
  486MOL0     C65489   4.374   3.521   4.741 -0.2889 -0.0678  0.5565
  486MOL0     C65490   4.223   3.560   4.764 -0.4362 -0.1915  0.0837
  486MOL0     C65491   4.177   3.535   4.906 -0.1441 -0.1731 -0.4450
  486MOL0     N65492   4.175   3.394   4.937 -0.2827 -0.1963 -0.1725
  486MOL0     C65493   4.065   3.313   4.919 -0.9949 -0.4700  0.5003
  486MOL0     C65494   4.106   3.182   4.950 -0.2998  0.4908 -0.4162
  486MOL0     C65495   4.036   3.051   4.937  0.1300 -0.7511  0.2633
  486MOL0     C65496   3.901   3.045   5.020 -0.8167  0.4994 -0.1738
  486MOL0     C65497   3.847   2.903   5.014  0.1205 -0.4932  0.0893
  486MOL0     C65498   3.712   2.908   5.083 -0.3111 -0.0509  0.0563
  486MOL0     O65499   3.633   3.018   5.030 -0.4029  0.1741  0.3963
  486MOL0     C65500   3.522   3.043   5.104  0.3971  0.3295  0.4180
  486MOL0     C65501   3.514   3.052   5.240 -0.5688 -0.5789 -0.4123
  486MOL0     C65502   3.394   3.079   5.310 -0.0017  0.2488  0.1359
  486MOL0     C65503   3.416   3.122   5.455 -0.3967 -0.5670  0.5153
  486MOL0     C65504   3.272   3.066   5.244  0.7855  0.2222  0.0167
  486MOL0     C65505   3.140   3.082   5.305  0.4854  0.5348  0.0410
  486MOL0     O65506   3.035   3.042   5.229  0.1310  0.7048 -0.0179
  486MOL0     C65507   2.901   3.049   5.256 -0.1588 -0.2770  0.3903
  486MOL0     C65508   2.811   3.060   5.149 -0.5109  0.4156  0.3450
  486MOL0     C65509   2.677   3.093   5.176  0.4061  0.1150  0.4112
  486MOL0     C65510   2.620   3.098   5.303  0.1760  0.6682  0.5420
  486MOL0     O65511   2.484   3.130   5.316  0.1804  0.9545  0.0351
  486MOL0     C65512   2.393   3.095   5.425  0.0425  0.1318 -0.6585
  486MOL0     C65513   2.251   3.133   5.389  0.1166  0.0484  0.0597
  486MOL0     C65514   2.177   3.191   5.510 -0.4353  0.2058 -0.3462
  486MOL0     C65515   2.089   3.305   5.459  0.3870 -0.3061 -0.0462
  486MOL0     C65516   1.978   3.337   5.563  0.1149 -0.3182  0.3308
  486MOL0     C65517   2.039   3.407   5.684  0.2115 -0.3758 -0.1619
  486MOL0     C65518   1.933   3.456   5.782  0.1985 -0.3507  0.0795
  486MOL0     C65519   2.012   3.536   5.887 -0.5910  0.2775  0.0126
  486MOL0    Cl65520   1.904   3.626   6.010  0.0377 -0.1185 -0.1804
  486MOL0     C65521   2.712   3.085   5.407 -0.8201  0.5609 -0.6812
  486MOL0     C65522   2.848   3.058   5.384  0.0412  0.3703  1.2198
  486MOL0     O65523   3.129   3.132   5.419 -0.1601 -0.1500  0.2533
  486MOL0     C65524   3.274   3.046   5.111 -0.1417  0.0492 -0.0206
  486MOL0     C65525   3.402   3.038   5.046 -0.2955  0.2701 -0.5491
  486MOL0     N65526   4.236   3.188   5.000 -0.4746 -0.3960 -0.6022
  486MOL0     N65527   4.270   3.316   4.990  0.4855  0.8580  0.5330
  486MOL0     C65528   5.241   3.672   4.679 -0.1960 -0.4003  0.1759
  486MOL0     C65529   5.334   3.740   4.763  0.5898 -0.5209  0.2974
  486MOL0     C65530   5.514   4.003   5.113  0.6578 -0.0067 -0.7325
  486MOL0     C65531   5.635   3.961   5.063 -0.0032  0.2379  0.5897
  486MOL0     C65532   5.750   4.016   5.118  0.4647 -0.0119 -0.4164
  486MOL0     C65533   5.738   4.118   5.221  0.4955 -0.5344 -0.4278
  486MOL0     O65534   5.861   4.156   5.276  0.5444 -0.0827 -0.5470
  486MOL0     C65535   5.868   4.223   5.404  0.3715  0.1433  0.2316
  486MOL0     C65536   6.010   4.258   5.450  0.8091 -0.1840 -0.4730
  486MOL0     C65537   6.086   4.130   5.493 -0.3299 -0.0632  1.0099
  486MOL0     C65538   6.207   4.165   5.576 -0.1681 -0.1279  0.3868
  486MOL0     C65539   6.285   4.271   5.512  0.7059 -0.1969  0.5753
  486MOL0     C65540   6.357   4.347   5.454 -0.4236 -0.0945  0.6066
  486MOL0     C65541   5.615   4.160   5.272  0.0117  0.4007  0.4693
  486MOL0     C65542   5.506   4.105   5.214 -0.3701 -0.8435  0.1720
  486MOL0     H65543   5.129   3.950   4.927  0.2687  0.8728 -0.7288
  486MOL0     H65544   4.967   3.857   4.780  0.2025 -0.5484  0.2029
  486MOL0     H65545   4.849   3.588   4.718  1.4717 -0.2161  0.4176
  486MOL0     H65546   4.851   3.751   4.647 -1.3073  0.4820 -1.0741
  486MOL0     H65547   4.853   3.636   4.407  0.5260  0.3917  0.1450
  486MOL0     H65548   4.816   3.488   4.492 -2.4329 -0.3869  0.9782
  486MOL0     H65549   4.634   3.733   4.482 -0.8209 -0.7241  1.4098
  486MOL0     H65550   4.608   3.577   4.408 -0.9562 -2.5426  2.3145
  486MOL0     H65551   4.619   3.495   4.663  2.3323 -0.0249 -0.7836
  486MOL0     H65552   4.620   3.676   4.694 -1.5646 -0.7659  1.1002
  486MOL0     H65553   4.392   3.704   4.638 -2.8250 -0.8248 -0.0638
  486MOL0     H65554   4.401   3.563   4.535 -0.1340  0.6151  0.8706
  486MOL0     H65555   4.381   3.416   4.712  1.4290  0.4568 -1.0976
  486MOL0     H65556   4.432   3.529   4.833  0.9628 -2.5673  0.0704
  486MOL0     H65557   4.217   3.670   4.760  1.6703  0.0426  1.2997
  486MOL0     H65558   4.159   3.521   4.685 -0.1347 -2.2879  0.8171
  486MOL0     H65559   4.081   3.580   4.933 -0.3039 -0.8108  0.0720
  486MOL0     H65560   4.255   3.570   4.975  0.9920 -3.8444  0.3154
  486MOL0     H65561   3.970   3.349   4.882 -1.5770  2.2772  4.1013
  486MOL0     H65562   4.022   3.044   4.829 -2.2047  1.0158  0.3906
  486MOL0     H65563   4.107   2.973   4.967 -0.3576 -1.4774 -0.4389
  486MOL0     H65564   3.835   3.121   4.976  0.3537  2.3766  1.1700
  486MOL0     H65565   3.923   3.074   5.123  1.6127 -0.8561 -0.2369
  486MOL0     H65566   3.909   2.838   5.077 -0.6665  0.6831  2.1832
  486MOL0     H65567   3.836   2.874   4.909  1.0740  0.2653 -0.2329
  486MOL0     H65568   3.716   2.912   5.193  0.8478 -0.5576  0.0520
  486MOL0     H65569   3.665   2.811   5.069 -0.3468 -0.1271  0.6544
  486MOL0     H65570   3.610   3.075   5.287 -0.3708  2.4660 -2.0299
  486MOL0     H65571   3.511   3.079   5.487 -1.4672 -2.4077  1.3527
  486MOL0     H65572   3.427   3.231   5.459 -1.6959 -0.4497  1.2735
  486MOL0     H65573   3.340   3.083   5.523 -1.5741  0.5842 -0.0925
  486MOL0     H65574   2.859   3.051   5.051  0.9133  3.2676  0.6705
  486MOL0     H65575   2.608   3.096   5.092  0.4367 -4.7705 -0.0600
  486MOL0     H65576   2.395   2.993   5.464 -0.7806 -0.2995 -1.6799
  486MOL0     H65577   2.431   3.152   5.510 -0.9301 -1.0525  0.5997
  486MOL0     H65578   2.260   3.208   5.309  1.0955  0.6011  0.6628
  486MOL0     H65579   2.200   3.047   5.344 -0.0276  1.5938 -3.0172
  486MOL0     H65580   2.233   3.239   5.590 -0.3771 -2.3219  1.2501
  486MOL0     H65581   2.121   3.111   5.559  0.8137 -0.6657 -0.3052
  486MOL0     H65582   2.151   3.393   5.440 -0.1791  0.9306  3.1556
  486MOL0     H65583   2.041   3.274   5.366  2.1989 -4.0661  0.0968
  486MOL0     H65584   1.934   3.238   5.579 -0.4689 -0.5638 -2.3608
  486MOL0     H65585   1.902   3.403   5.521 -0.4760 -0.7735  0.6682
  486MOL0     H65586   2.114   3.345   5.734  0.9829  0.5832 -0.0915
  486MOL0     H65587   2.097   3.495   5.656 -1.2178  1.1981  1.5211
  486MOL0     H65588   1.882   3.372   5.829  1.5166  1.1430  4.7576
  486MOL0     H65589   1.856   3.516   5.732  0.9004  0.0021 -0.5931
  486MOL0     H65590   2.072   3.614   5.837  0.3697 -1.3766 -1.5198
  486MOL0     H65591   2.079   3.474   5.947 -1.7479 -2.4485 -1.3843
  486MOL0     H65592   2.680   3.086   5.511  1.7035  0.7300  0.1660
  486MOL0     H65593   2.917   3.053   5.467  2.6630  2.3033 -0.6720
  486MOL0     H65594   3.184   3.040   5.050  0.1261  0.0287 -0.4220
  486MOL0     H65595   3.403   3.021   4.939 -0.7754 -1.8813 -0.2532
  486MOL0     H65596   5.276   3.602   4.604  0.2786  0.3615 -0.3323
  486MOL0     H65597   5.438   3.712   4.751  1.5749  2.7976 -0.0802
  486MOL0     H65598   5.659   3.891   4.983  1.2675 -1.1103  2.0820
  486MOL0     H65599   5.847   3.986   5.080  0.6330 -1.6525  1.1881
  486MOL0     H65600   5.817   4.319   5.398 -0.5796 -0.3945 -0.4398
  486MOL0     H65601   5.827   4.150   5.474 -1.8454 -0.9097 -1.9880
  486MOL0     H65602   5.997   4.327   5.534  2.3168  0.0527 -0.4159
  486MOL0     H65603   6.062   4.317   5.375  0.3758  1.5557  0.5314
  486MOL0     H65604   6.123   4.077   5.405 -2.0199  1.7060 -0.8575
  486MOL0     H65605   6.021   4.063   5.550 -2.1312 -0.3676 -1.2886
  486MOL0     H65606   6.270   4.079   5.597 -0.3859 -0.4132 -0.1080
  486MOL0     H65607   6.177   4.193   5.677 -3.6788  0.0811 -0.5794
  486MOL0     H65608   6.405   4.419   5.391 -2.1804  1.7515  1.2877
  486MOL0     H65609   5.591   4.224   5.356 -1.6193  1.8361 -1.0223
  486MOL0     H65610   5.413   4.151   5.247  1.1829  0.9675  2.3117
  487MOL0     O65611   4.315  10.782   3.169  0.2149  0.1280  0.6432
  487MOL0     C65612   4.328  10.861   3.260  0.6968  0.5944  0.6193
  487MOL0     O65613   4.218  10.912   3.326  0.1145 -0.0072  0.3317
  487MOL0     C65614   4.091  10.861   3.301 -0.8262  0.0750 -0.8124
  487MOL0     C65615   4.066  10.719   3.279  0.6222  0.4729 -1.0225
  487MOL0     C65616   3.937  10.674   3.259  0.2962  0.1019 -0.6794
  487MOL0     C65617   3.831  10.760   3.239  0.1098 -0.1378  0.1771
  487MOL0     O65618   3.704  10.710   3.213  0.2108  0.1889  0.0033
  487MOL0     C65619   3.603  10.798   3.169  0.6941  0.2484  0.2647
  487MOL0     C65620   3.471  10.723   3.154 -0.2711 -0.8299 -0.4349
  487MOL0     C65621   3.397  10.708   3.295 -0.7093 -0.5571 -0.1757
  487MOL0     C65622   3.475  10.621   3.397  1.2187 -0.6806 -0.4091
  487MOL0     C65623   3.418  10.647   3.536 -0.5965  0.1197 -0.0718
  487MOL0     C65624   3.274  10.616   3.559  0.7887 -0.5685 -0.4402
  487MOL0     C65625   3.225  10.631   3.707 -0.4536  1.0184 -0.0713
  487MOL0     C65626   3.073  10.596   3.706  0.9476 -0.2954  0.3598
  487MOL0     N65627   3.017  10.608   3.841  0.6641 -0.2934 -0.0351
  487MOL0     C65628   2.879  10.596   3.847  0.0486 -0.2796  0.1058
  487MOL0     C65629   2.850  10.608   3.979  0.5509 -0.8131 -0.1841
  487MOL0     C65630   2.711  10.613   4.035 -0.3095 -0.3625  0.9916
  487MOL0     C65631   2.711  10.740   4.121 -0.1868  1.0195  0.4024
  487MOL0     C65632   2.570  10.782   4.169 -0.8188 -0.6724  0.7568
  487MOL0     C65633   2.573  10.924   4.238 -0.2287 -0.1980  0.5379
  487MOL0     O65634   2.465  10.935   4.327 -0.5147 -0.5247  0.0693
  487MOL0     C65635   2.414  11.065   4.358 -0.2807  0.1476  0.0055
  487MOL0     C65636   2.282  11.076   4.394  0.0388 -0.1867  0.9912
  487MOL0     C65637   2.215  11.200   4.418 -0.2185  0.2255 -0.6117
  487MOL0     C65638   2.076  11.191   4.482  0.2176 -0.5088 -0.3159
  487MOL0     C65639   2.286  11.316   4.397 -0.5700 -0.3193  0.0068
  487MOL0     C65640   2.231  11.450   4.429 -0.6993  0.2619  0.7053
  487MOL0     O65641   2.094  11.463   4.414  0.0755  0.2551 -0.1272
  487MOL0     C65642   2.032  11.579   4.391  0.2328  0.0483 -0.1239
  487MOL0     C65643   2.091  11.687   4.318  0.4283 -0.3773 -0.0412
  487MOL0     C65644   2.013  11.797   4.275  0.6434  0.3066 -0.0900
  487MOL0     C65645   1.876  11.806   4.310  0.1692  0.3204  0.6267
  487MOL0     O65646   1.805  11.913   4.264  0.4339  0.1925  0.4739
  487MOL0     C65647   1.689  11.881   4.193  0.1998 -0.6609  0.0675
  487MOL0     C65648   1.686  11.977   4.081 -0.4398  0.3752  0.0420
  487MOL0     C65649   1.558  11.957   4.003 -0.5569  0.2574  0.2506
  487MOL0     C65650   1.571  12.020   3.863 -0.3185 -0.5100  0.4672
  487MOL0     C65651   1.456  11.969   3.776 -0.0375 -0.1271  0.2670
  487MOL0     C65652   1.445  12.023   3.629  0.0836 -0.4317 -0.3760
  487MOL0     C65653   1.433  12.179   3.623  0.1397 -0.2689 -0.7265
  487MOL0     C65654   1.421  12.240   3.481 -0.2173 -0.1391  0.0301
  487MOL0    Cl65655   1.581  12.220   3.403  0.1862  0.4144  0.0764
  487MOL0     C65656   1.814  11.693   4.377  0.1598  0.3708 -0.3946
  487MOL0     C65657   1.896  11.588   4.419  0.0169  1.0448  0.8426
  487MOL0     O65658   2.310  11.538   4.464 -0.4706  0.4626 -0.2552
  487MOL0     C65659   2.416  11.310   4.350 -0.3298 -0.6176 -0.5477
  487MOL0     C65660   2.478  11.188   4.336 -0.2286 -0.7066  0.7344
  487MOL0     N65661   2.970  10.602   4.042  0.0069  0.5807 -0.2398
  487MOL0     N65662   3.071  10.608   3.957  0.0757 -0.0191 -0.7293
  487MOL0     C65663   3.856  10.902   3.259 -0.6783 -0.1655 -0.8782
  487MOL0     C65664   3.985  10.943   3.294 -0.3989  0.2693 -0.7240
  487MOL0     C65665   4.458  10.904   3.302  0.2249 -0.3861 -0.6875
  487MOL0     C65666   4.472  10.971   3.424 -0.4808  0.9614  0.1702
  487MOL0     C65667   4.599  11.021   3.459 -0.1845 -0.0717  0.4035
  487MOL0     C65668   4.712  10.998   3.385 -0.2900  0.0032 -0.0915
  487MOL0     O65669   4.834  11.046   3.436 -0.7958 -0.9011 -1.2306
  487MOL0     C65670   4.962  11.025   3.371 -0.7652 -0.9106  0.6243
  487MOL0     C65671   5.082  11.101   3.430  0.0209 -1.0083  0.5379
  487MOL0     C65672   5.129  11.025   3.563  0.5031 -0.5434 -0.4162
  487MOL0     C65673   5.244  11.101   3.632 -0.6049  0.0355 -0.0868
  487MOL0     C65674   5.331  11.006   3.710  0.6001  0.3294 -0.3378
  487MOL0     C65675   5.413  10.935   3.766 -0.8101  0.1498  0.2468
  487MOL0     C65676   4.702  10.932   3.262 -0.8319  0.7893  0.1276
  487MOL0     C65677   4.573  10.894   3.220  0.6162 -0.7603  0.1633
  487MOL0     H65678   4.139  10.640   3.283 -1.4266 -1.5012 -0.2518
  487MOL0     H65679   3.924  10.566   3.263 -0.8275  0.2568  0.7754
  487MOL0     H65680   3.596  10.877   3.245 -0.6563 -1.1707  1.7072
  487MOL0     H65681   3.626  10.840   3.070 -1.1944 -0.8551 -0.6939
  487MOL0     H65682   3.409  10.795   3.101 -0.2970  1.5875  2.5903
  487MOL0     H65683   3.480  10.628   3.101 -0.6664 -1.0657 -0.0939
  487MOL0     H65684   3.371  10.802   3.345 -0.8330 -1.5351  1.6802
  487MOL0     H65685   3.300  10.664   3.271  1.1411 -2.8959 -4.3742
  487MOL0     H65686   3.475  10.514   3.375  0.9394 -0.6115 -0.7399
  487MOL0     H65687   3.579  10.651   3.412  0.3303  2.5586  0.1116
  487MOL0     H65688   3.473  10.581   3.603 -1.2176 -2.2622 -1.7754
  487MOL0     H65689   3.448  10.749   3.564  0.3136 -0.0740 -0.2786
  487MOL0     H65690   3.208  10.675   3.495 -1.2816 -0.9031  1.2954
  487MOL0     H65691   3.241  10.516   3.529  3.8554 -2.4876  2.0055
  487MOL0     H65692   3.276  10.558   3.770  1.0367 -0.9685 -3.3203
  487MOL0     H65693   3.249  10.733   3.737  1.6172  1.0698 -1.6692
  487MOL0     H65694   3.061  10.490   3.683  0.5051 -0.0426 -0.5807
  487MOL0     H65695   3.026  10.665   3.636  2.3141  0.4238  0.1157
  487MOL0     H65696   2.812  10.598   3.762  2.2202  1.3212 -1.6641
  487MOL0     H65697   2.630  10.619   3.962 -1.1327  0.0825  1.9205
  487MOL0     H65698   2.698  10.523   4.096 -0.3299 -0.5568  0.7040
  487MOL0     H65699   2.750  10.826   4.065 -1.7596  2.1486  0.9446
  487MOL0     H65700   2.781  10.737   4.205  2.6335  2.2610 -1.7259
  487MOL0     H65701   2.531  10.708   4.240 -0.2299 -1.6013  0.1213
  487MOL0     H65702   2.509  10.797   4.079  1.9508  0.7904 -1.0051
  487MOL0     H65703   2.586  11.007   4.167  0.6231 -0.3342  0.5323
  487MOL0     H65704   2.664  10.929   4.298  0.4791 -1.6513 -0.3628
  487MOL0     H65705   2.233  10.981   4.414  1.6465 -1.1781  0.4330
  487MOL0     H65706   2.047  11.093   4.519 -0.4511  0.4729  1.9265
  487MOL0     H65707   2.079  11.260   4.568 -2.0010  1.5221 -1.7301
  487MOL0     H65708   2.009  11.233   4.407  0.5997  1.3302  0.3049
  487MOL0     H65709   2.198  11.687   4.301  0.6578  0.1044  1.2545
  487MOL0     H65710   2.061  11.887   4.238 -0.5730  1.1552  0.2936
  487MOL0     H65711   1.667  11.784   4.148 -1.6689  0.2006 -0.9837
  487MOL0     H65712   1.608  11.905   4.263 -0.3763 -1.4081 -0.3371
  487MOL0     H65713   1.689  12.084   4.102 -0.3875  0.5538 -0.8429
  487MOL0     H65714   1.769  11.951   4.015 -1.9588  0.6933 -2.1018
  487MOL0     H65715   1.475  11.998   4.061  1.4027  1.8576  2.1206
  487MOL0     H65716   1.544  11.849   3.995  1.3708  0.0800 -1.6761
  487MOL0     H65717   1.564  12.128   3.877 -1.7490 -0.5428  0.1543
  487MOL0     H65718   1.667  11.995   3.816  0.3809  0.4379  1.3239
  487MOL0     H65719   1.362  11.998   3.825 -0.4482  2.6208 -1.8638
  487MOL0     H65720   1.460  11.861   3.765 -0.2491 -0.1218  0.1290
  487MOL0     H65721   1.539  11.997   3.580  0.7495 -2.1979  1.6825
  487MOL0     H65722   1.364  11.971   3.579 -0.2443  0.5972 -0.9461
  487MOL0     H65723   1.523  12.216   3.674  0.0856  0.4310 -1.1232
  487MOL0     H65724   1.338  12.198   3.673  1.7882  0.3422  2.4521
  487MOL0     H65725   1.409  12.349   3.491 -0.4968 -0.3265  2.5812
  487MOL0     H65726   1.339  12.202   3.421 -0.3132  0.4686 -0.2356
  487MOL0     H65727   1.706  11.697   4.390  0.4670  2.2841  2.4090
  487MOL0     H65728   1.854  11.502   4.470  2.4892 -1.5055 -1.0595
  487MOL0     H65729   2.468  11.402   4.326 -1.6259  0.5196  0.7832
  487MOL0     H65730   2.582  11.187   4.306 -0.3137  0.1658  0.3677
  487MOL0     H65731   3.768  10.965   3.250 -0.8908 -0.4271 -0.6887
  487MOL0     H65732   4.006  11.046   3.318 -1.0426  0.5113 -1.1755
  487MOL0     H65733   4.391  10.985   3.495 -1.5129  0.8164 -0.9629
  487MOL0     H65734   4.604  11.081   3.550 -0.8399 -1.0015  1.0786
  487MOL0     H65735   4.987  10.919   3.361  1.8870 -0.4947  1.8929
  487MOL0     H65736   4.947  11.065   3.270 -2.0631 -0.8143  0.8393
  487MOL0     H65737   5.045  11.200   3.457 -1.4735 -1.0636 -1.1407
  487MOL0     H65738   5.168  11.110   3.363  0.5703  1.2977  1.4738
  487MOL0     H65739   5.143  10.916   3.555 -0.0016 -0.5071 -2.2402
  487MOL0     H65740   5.035  11.033   3.617  0.6124 -0.6286 -0.2132
  487MOL0     H65741   5.211  11.185   3.694  0.0640 -0.5974  1.1496
  487MOL0     H65742   5.296  11.155   3.552 -3.1052 -0.5831 -2.2981
  487MOL0     H65743   5.481  10.895   3.839 -0.3591  2.2842  1.0802
  487MOL0     H65744   4.788  10.900   3.204 -1.6548 -0.1824 -0.5871
  487MOL0     H65745   4.560  10.852   3.121  2.8534  0.1335 -0.5494
  488MOL0     O65746   8.103   3.442   1.200 -0.1099 -0.0569  0.1889
  488MOL0     C65747   8.141   3.457   1.086 -0.5561  0.0006  0.5128
  488MOL0     O65748   8.094   3.549   0.993  0.6324 -1.1160  0.2007
  488MOL0     C65749   7.982   3.625   1.017 -0.7694 -0.0560 -0.7466
  488MOL0     C65750   7.889   3.609   1.124 -0.3233  0.4989  0.2963
  488MOL0     C65751   7.771   3.679   1.134  0.2254  0.0468 -0.1361
  488MOL0     C65752   7.755   3.787   1.043 -1.0326 -0.2291 -0.2645
  488MOL0     O65753   7.649   3.877   1.037  0.2746 -0.5029 -0.5668
  488MOL0     C65754   7.560   3.876   1.150 -0.7292 -0.4962  0.3578
  488MOL0     C65755   7.431   3.968   1.112  0.1482 -0.7229 -0.4010
  488MOL0     C65756   7.347   3.901   1.000 -0.2840  0.1059  0.4937
  488MOL0     C65757   7.347   3.973   0.860 -0.2929  0.1749 -0.4565
  488MOL0     C65758   7.324   4.118   0.857 -0.8808  0.1719  0.3786
  488MOL0     C65759   7.300   4.172   0.716  0.4794  0.6568  0.9867
  488MOL0     C65760   7.255   4.319   0.728  0.0604  0.0433 -0.1290
  488MOL0     C65761   7.219   4.379   0.598 -0.1863  0.1279  0.1889
  488MOL0     N65762   7.183   4.518   0.625 -0.1058  0.0588  0.3920
  488MOL0     C65763   7.080   4.561   0.704  0.1645  0.4190  0.1275
  488MOL0     C65764   7.063   4.696   0.678 -0.1296  0.0887  0.1532
  488MOL0     C65765   6.970   4.788   0.753  0.2858  0.4295 -0.7892
  488MOL0     C65766   6.872   4.836   0.642  0.2230  0.2835 -0.5814
  488MOL0     C65767   6.774   4.939   0.702  0.2889 -1.1038  0.4427
  488MOL0     C65768   6.646   4.950   0.603 -0.7035 -0.0640 -0.7513
  488MOL0     O65769   6.555   4.849   0.629  0.4316 -0.5681 -0.0702
  488MOL0     C65770   6.426   4.846   0.572 -0.3265  0.4997 -0.3372
  488MOL0     C65771   6.356   4.947   0.509  0.1944 -0.1777  0.0437
  488MOL0     C65772   6.233   4.927   0.450  0.2051  0.5543 -0.1507
  488MOL0     C65773   6.172   5.046   0.378 -0.5438 -0.6581 -0.6204
  488MOL0     C65774   6.170   4.807   0.454  0.2314 -0.4696 -0.9776
  488MOL0     C65775   6.021   4.787   0.421 -0.2654  0.1087 -1.1450
  488MOL0     O65776   5.985   4.662   0.453 -0.9129 -0.5676 -0.3000
  488MOL0     C65777   5.846   4.643   0.470 -0.7519 -0.4158  0.8641
  488MOL0     C65778   5.789   4.539   0.396 -0.0578 -0.5018  0.2477
  488MOL0     C65779   5.653   4.514   0.399  0.4214 -0.7542 -0.4630
  488MOL0     C65780   5.579   4.571   0.506 -0.8869 -0.9288  0.1516
  488MOL0     O65781   5.446   4.530   0.524 -0.2110 -0.6474  0.1452
  488MOL0     C65782   5.375   4.605   0.628 -0.3546 -0.5939  0.2222
  488MOL0     C65783   5.232   4.551   0.643  0.3765 -0.2561 -0.2874
  488MOL0     C65784   5.221   4.398   0.676 -0.5669  0.2665  0.6083
  488MOL0     C65785   5.070   4.361   0.651 -0.4433 -0.0719 -0.2969
  488MOL0     C65786   4.972   4.377   0.773  0.2584 -0.0867 -0.0760
  488MOL0     C65787   5.001   4.262   0.873 -0.2074  0.3251 -0.6800
  488MOL0     C65788   4.900   4.140   0.859  0.1257 -0.3176  0.0469
  488MOL0     C65789   4.914   4.052   0.979  0.2853 -0.0934 -0.4531
  488MOL0    Cl65790   5.090   3.982   0.984  0.6510  0.1491 -0.3854
  488MOL0     C65791   5.638   4.671   0.589 -0.5189  0.3806  0.5817
  488MOL0     C65792   5.774   4.708   0.567  0.6265  0.1485 -0.1657
  488MOL0     O65793   5.939   4.875   0.381  0.0084 -0.7974 -0.3291
  488MOL0     C65794   6.242   4.695   0.504  0.4349 -0.1882 -0.2199
  488MOL0     C65795   6.368   4.717   0.560  0.2809  0.2091  0.5772
  488MOL0     N65796   7.166   4.736   0.599  0.2422  0.2932  0.3576
  488MOL0     N65797   7.231   4.635   0.567  0.0610 -0.1393  0.3108
  488MOL0     C65798   7.851   3.821   0.948 -0.3541  0.0789 -0.2876
  488MOL0     C65799   7.964   3.736   0.934 -0.1227 -0.6180 -0.3331
  488MOL0     C65800   8.264   3.390   1.044  0.1067  0.2632  0.0185
  488MOL0     C65801   8.334   3.306   1.137  0.6712  0.7211 -0.4102
  488MOL0     C65802   8.457   3.246   1.108 -0.3042 -0.7163  0.0597
  488MOL0     C65803   8.502   3.246   0.970  0.1798  0.3010  0.2593
  488MOL0     O65804   8.617   3.174   0.953 -0.4841 -1.1840  0.3872
  488MOL0     C65805   8.664   3.133   0.822  0.1879  0.4484 -0.7404
  488MOL0     C65806   8.799   3.194   0.800 -0.0374  0.4358 -0.4937
  488MOL0     C65807   8.899   3.105   0.871 -0.0457  0.2952  0.2392
  488MOL0     C65808   9.045   3.155   0.863 -0.2561 -0.4732 -0.2689
  488MOL0     C65809   9.102   3.150   0.730 -0.4702 -0.6544  0.3743
  488MOL0     C65810   9.147   3.126   0.620  0.0984 -0.3209 -0.2364
  488MOL0     C65811   8.435   3.331   0.883  0.8930 -0.0679  0.0612
  488MOL0     C65812   8.322   3.406   0.920 -1.2937 -0.2120  0.2133
  488MOL0     H65813   7.891   3.523   1.190  2.8225  0.1371 -0.1513
  488MOL0     H65814   7.703   3.648   1.213 -0.5370 -2.4691 -1.6830
  488MOL0     H65815   7.518   3.780   1.180  1.1555 -0.8961  1.8593
  488MOL0     H65816   7.610   3.920   1.237 -0.7091 -0.1146  0.1559
  488MOL0     H65817   7.367   3.965   1.201  0.2368  2.2420 -0.1406
  488MOL0     H65818   7.442   4.076   1.101 -0.1020 -0.9206 -3.8156
  488MOL0     H65819   7.387   3.801   0.980  0.3446 -0.2460  3.1523
  488MOL0     H65820   7.243   3.889   1.032 -0.1930 -2.0574  0.1301
  488MOL0     H65821   7.441   3.945   0.810  0.0127 -0.1216  0.2805
  488MOL0     H65822   7.263   3.930   0.804 -0.2334  0.0793 -0.4720
  488MOL0     H65823   7.230   4.137   0.911 -2.0684 -2.7267 -0.5058
  488MOL0     H65824   7.407   4.173   0.902 -0.1690 -0.5366 -0.0523
  488MOL0     H65825   7.391   4.166   0.656  1.0962  1.7156  1.7727
  488MOL0     H65826   7.212   4.124   0.674  0.2298  1.3502  0.7009
  488MOL0     H65827   7.165   4.336   0.788 -2.1471 -0.0850 -3.1823
  488MOL0     H65828   7.333   4.382   0.773 -0.5788  1.8427 -1.4119
  488MOL0     H65829   7.135   4.324   0.557  1.5091 -3.5800  1.2961
  488MOL0     H65830   7.304   4.375   0.529  2.9085 -2.0484  3.7394
  488MOL0     H65831   7.020   4.504   0.774 -1.5901  0.8257 -0.9993
  488MOL0     H65832   6.914   4.730   0.827  2.3867 -0.0315  0.5287
  488MOL0     H65833   7.026   4.864   0.809  0.1416 -0.0323 -0.0134
  488MOL0     H65834   6.816   4.743   0.631 -0.5205  0.5295  0.8358
  488MOL0     H65835   6.918   4.857   0.545  0.1318  1.4060 -0.3941
  488MOL0     H65836   6.828   5.035   0.699 -0.3020 -0.7647  0.5286
  488MOL0     H65837   6.737   4.923   0.803  1.0813  2.2661  1.4200
  488MOL0     H65838   6.686   4.944   0.501 -2.4095  1.9164 -1.6053
  488MOL0     H65839   6.599   5.048   0.619  0.8443  0.8680 -1.6399
  488MOL0     H65840   6.389   5.050   0.500 -2.0729  0.8613  2.3502
  488MOL0     H65841   6.244   5.128   0.375  1.0398 -1.9257  0.8350
  488MOL0     H65842   6.148   5.018   0.274  0.3604  2.1531 -1.6586
  488MOL0     H65843   6.080   5.074   0.430 -1.1404  0.3098 -2.1410
  488MOL0     H65844   5.845   4.485   0.320  1.7139  2.1200 -0.4330
  488MOL0     H65845   5.609   4.444   0.329  0.4864 -0.4013 -0.8618
  488MOL0     H65846   5.431   4.575   0.718  1.2011  0.0789 -0.4903
  488MOL0     H65847   5.374   4.713   0.615  0.2617 -0.4785  1.0323
  488MOL0     H65848   5.176   4.601   0.723 -1.4516 -2.2486 -0.2265
  488MOL0     H65849   5.194   4.566   0.542  0.6579 -0.9768 -0.5057
  488MOL0     H65850   5.257   4.366   0.774 -3.6942 -1.9916  1.1547
  488MOL0     H65851   5.270   4.341   0.596 -0.4884  0.4420  0.5294
  488MOL0     H65852   5.027   4.414   0.565  1.6655 -0.1129 -1.4219
  488MOL0     H65853   5.065   4.254   0.628 -2.1156 -0.2968  0.8707
  488MOL0     H65854   4.869   4.356   0.744 -0.3225  1.8522  0.4312
  488MOL0     H65855   4.980   4.476   0.819  1.3770  1.0138 -2.4525
  488MOL0     H65856   5.107   4.234   0.871 -0.9206 -2.5586 -1.5942
  488MOL0     H65857   4.983   4.311   0.970  1.6740  0.4719 -0.3558
  488MOL0     H65858   4.921   4.088   0.766 -2.2160  1.0955 -1.3728
  488MOL0     H65859   4.794   4.164   0.852  0.0502  0.3013  2.2580
  488MOL0     H65860   4.856   3.959   0.971  0.2745  0.0211 -2.0520
  488MOL0     H65861   4.884   4.109   1.067 -2.8053 -0.3829 -1.1796
  488MOL0     H65862   5.589   4.727   0.667  0.2449  1.9128 -0.0081
  488MOL0     H65863   5.832   4.773   0.632  2.3075 -1.6968  0.2950
  488MOL0     H65864   6.215   4.590   0.511  2.6123 -0.6647  3.6350
  488MOL0     H65865   6.416   4.635   0.614  1.1402  1.4238  1.7445
  488MOL0     H65866   7.840   3.905   0.880  0.5445  1.8399  1.6533
  488MOL0     H65867   8.030   3.773   0.856 -1.6312  2.8396 -0.1574
  488MOL0     H65868   8.294   3.291   1.236  2.1243  0.1325  0.1169
  488MOL0     H65869   8.512   3.193   1.185 -0.2615  0.4587  0.8610
  488MOL0     H65870   8.656   3.024   0.810 -1.1273  0.5096 -0.5946
  488MOL0     H65871   8.592   3.168   0.747 -1.8713  1.4980  1.5812
  488MOL0     H65872   8.805   3.297   0.834 -1.6137  0.4505 -0.1899
  488MOL0     H65873   8.829   3.178   0.696  3.1446  2.8279 -0.0919
  488MOL0     H65874   8.892   2.997   0.855  0.2012 -0.2953  3.5501
  488MOL0     H65875   8.883   3.107   0.979  0.1609 -3.1202  0.4408
  488MOL0     H65876   9.099   3.086   0.928 -1.2099 -0.9924 -0.0073
  488MOL0     H65877   9.066   3.258   0.894  0.6756 -0.6670 -0.2251
  488MOL0     H65878   9.187   3.089   0.528 -1.2100  0.5765 -1.2116
  488MOL0     H65879   8.475   3.350   0.784  4.0322  1.3397  1.4794
  488MOL0     H65880   8.275   3.467   0.843 -2.4885 -0.6168  0.5873
  489MOL0     O65881   0.102   9.534  10.116  0.4386  0.0235 -0.1304
  489MOL0     C65882   0.176   9.518  10.018 -0.2175 -0.7954  0.4754
  489MOL0     O65883   0.132   9.528   9.896 -0.5794  0.1506  0.9942
  489MOL0     C65884   0.004   9.573   9.875 -0.2149 -0.2290 -0.7144
  489MOL0     C65885  -0.050   9.698   9.916  0.0992 -0.3678  0.1696
  489MOL0     C65886  -0.181   9.728   9.890  0.1460 -0.1319  0.6823
  489MOL0     C65887  -0.264   9.639   9.823 -0.0083  0.0165 -0.2491
  489MOL0     O65888  -0.390   9.672   9.805 -0.0481 -0.0126  0.8591
  489MOL0     C65889  -0.492   9.575   9.833  0.4916 -0.1295 -0.9140
  489MOL0     C65890  -0.553   9.596   9.974  0.2234  0.1305 -0.2044
  489MOL0     C65891  -0.638   9.729   9.978 -0.2689 -0.5767  0.1217
  489MOL0     C65892  -0.768   9.724   9.898 -0.7918 -0.2474  0.1544
  489MOL0     C65893  -0.867   9.840   9.915  1.3724 -0.1715  0.8422
  489MOL0     C65894  -0.939   9.830  10.048 -0.0243  0.3987 -0.6796
  489MOL0     C65895  -1.067   9.911  10.071  0.2724  0.2265 -0.1977
  489MOL0     C65896  -1.051  10.053  10.127 -0.0535  0.0490  0.2421
  489MOL0     N65897  -1.183  10.115  10.135  0.7641  0.2230  0.4712
  489MOL0     C65898  -1.221  10.233  10.068 -0.1168 -0.3304 -0.2633
  489MOL0     C65899  -1.343  10.266  10.115 -0.0878 -0.1879  0.4347
  489MOL0     C65900  -1.432  10.394  10.096  0.2635  0.4036 -0.0894
  489MOL0     C65901  -1.550  10.348  10.007 -1.1795 -0.0717  0.0410
  489MOL0     C65902  -1.643  10.461   9.974 -0.2645 -0.7356 -0.4119
  489MOL0     C65903  -1.747  10.402   9.880 -0.4904 -0.4399  0.1519
  489MOL0     O65904  -1.844  10.322   9.958  0.0504  0.6777  0.6586
  489MOL0     C65905  -1.981  10.323   9.922 -0.5617  0.4253  0.6735
  489MOL0     C65906  -2.080  10.329  10.015  0.8096 -0.2558  0.0955
  489MOL0     C65907  -2.221  10.335   9.978  1.2418 -0.4389 -0.4882
  489MOL0     C65908  -2.320  10.340  10.088 -0.0800  0.3498 -0.1842
  489MOL0     C65909  -2.257  10.334   9.842  0.0173  0.5902  0.0190
  489MOL0     C65910  -2.397  10.337   9.786 -0.7100  0.2733 -0.2251
  489MOL0     O65911  -2.404  10.343   9.656  0.3531 -0.1012 -0.0722
  489MOL0     C65912  -2.524  10.371   9.593 -0.4885  0.2863 -1.8893
  489MOL0     C65913  -2.581  10.499   9.617  0.2675  0.0269 -0.1669
  489MOL0     C65914  -2.699  10.531   9.557 -0.0148  0.1589 -0.2993
  489MOL0     C65915  -2.761  10.440   9.476 -0.5908 -0.6700  0.1384
  489MOL0     O65916  -2.872  10.476   9.403 -0.2706  0.4584 -0.5831
  489MOL0     C65917  -2.983  10.462   9.489 -0.6528  0.4167  0.6198
  489MOL0     C65918  -3.099  10.509   9.397 -0.5831 -0.5737  0.2012
  489MOL0     C65919  -3.227  10.490   9.457 -1.4085  0.2353 -0.4085
  489MOL0     C65920  -3.337  10.511   9.352  0.6068  0.2160 -0.1389
  489MOL0     C65921  -3.473  10.507   9.412  0.4506  0.0874 -0.3034
  489MOL0     C65922  -3.583  10.480   9.313  0.3423  0.7218  0.0073
  489MOL0     C65923  -3.708  10.490   9.398 -0.1704  0.0594  0.2091
  489MOL0     C65924  -3.830  10.431   9.339  0.3647 -0.4362  0.7937
  489MOL0    Cl65925  -3.981  10.485   9.424 -0.2574  0.1490  0.5539
  489MOL0     C65926  -2.707  10.317   9.452  0.5065 -0.1065  0.2606
  489MOL0     C65927  -2.594  10.278   9.524  0.6207 -0.4735 -0.0747
  489MOL0     O65928  -2.491  10.318   9.861 -0.0917 -0.1568  0.5074
  489MOL0     C65929  -2.156  10.320   9.751  0.1292  0.8833  0.9719
  489MOL0     C65930  -2.020  10.320   9.789 -0.0056  0.3455  0.0006
  489MOL0     N65931  -1.387  10.166  10.210 -0.1683  0.6699  0.3054
  489MOL0     N65932  -1.285  10.079  10.216 -0.0275  0.3684  0.3045
  489MOL0     C65933  -0.210   9.515   9.790 -0.0924  0.7141  0.4507
  489MOL0     C65934  -0.080   9.485   9.813 -0.8663  0.0800 -0.3317
  489MOL0     C65935   0.321   9.493  10.027 -0.0416 -0.0456  0.0044
  489MOL0     C65936   0.399   9.537  10.130 -0.0657 -0.3392 -0.6407
  489MOL0     C65937   0.540   9.518  10.139  0.2122 -0.2049 -0.0348
  489MOL0     C65938   0.606   9.455  10.031 -0.7542 -0.2649  1.1339
  489MOL0     O65939   0.742   9.436  10.017  1.2506  0.0477  0.9310
  489MOL0     C65940   0.823   9.513  10.109 -0.0140  0.8043  0.1802
  489MOL0     C65941   0.961   9.507  10.041 -0.2093 -0.4767 -0.5689
  489MOL0     C65942   1.068   9.540  10.150 -0.2799 -0.3282  0.0901
  489MOL0     C65943   1.206   9.545  10.092  0.0614 -0.3853  0.6650
  489MOL0     C65944   1.230   9.441   9.994  0.1496 -0.6891  0.0454
  489MOL0     C65945   1.254   9.348   9.924  0.6410 -0.6234 -1.0372
  489MOL0     C65946   0.527   9.405   9.916  0.2306  0.1358  0.6549
  489MOL0     C65947   0.391   9.424   9.918  0.3854 -0.2164 -0.0880
  489MOL0     H65948   0.014   9.765   9.973  0.3459 -1.9083  1.7652
  489MOL0     H65949  -0.219   9.826   9.915  1.7631  0.7311 -0.0721
  489MOL0     H65950  -0.572   9.584   9.759 -0.3252 -1.1844 -0.1835
  489MOL0     H65951  -0.454   9.473   9.840 -1.3559 -0.7472  1.6191
  489MOL0     H65952  -0.631   9.520   9.984  1.3770 -1.5864 -3.0654
  489MOL0     H65953  -0.475   9.580  10.048 -0.4442  1.5893  0.8578
  489MOL0     H65954  -0.663   9.746  10.083 -2.2404 -0.0501 -0.3897
  489MOL0     H65955  -0.578   9.810   9.937  0.2537 -1.9940 -2.1383
  489MOL0     H65956  -0.732   9.709   9.796 -1.9944 -2.6089  0.0046
  489MOL0     H65957  -0.807   9.626   9.928  3.1582 -1.8945  0.6196
  489MOL0     H65958  -0.826   9.941   9.914 -1.4852  1.1002  1.7519
  489MOL0     H65959  -0.933   9.826   9.829 -0.0306  1.8744  1.5126
  489MOL0     H65960  -0.975   9.728  10.057 -0.5203  0.2983 -3.0982
  489MOL0     H65961  -0.871   9.845  10.132 -1.0036  2.0907 -0.1406
  489MOL0     H65962  -1.121   9.923   9.977 -0.6899  0.5019  0.3740
  489MOL0     H65963  -1.128   9.851  10.139  1.2469  0.7475  1.2110
  489MOL0     H65964  -0.975  10.109  10.071 -0.4032  1.4190  1.0988
  489MOL0     H65965  -1.013  10.065  10.229  2.3929  1.3748 -0.7269
  489MOL0     H65966  -1.159  10.288   9.999  0.9408 -1.0796  0.0660
  489MOL0     H65967  -1.467  10.420  10.196 -1.3149 -0.4167 -0.4062
  489MOL0     H65968  -1.366  10.470  10.052  1.8787 -0.3390  0.9286
  489MOL0     H65969  -1.598  10.280  10.078 -0.4606 -0.1072  0.4985
  489MOL0     H65970  -1.511  10.293   9.921  2.0518 -0.4293  1.6025
  489MOL0     H65971  -1.597  10.549   9.928  0.9879 -1.1855 -0.0463
  489MOL0     H65972  -1.705  10.486  10.061 -4.3188 -0.5799 -3.1062
  489MOL0     H65973  -1.698  10.337   9.807 -0.1483 -1.8798  1.6105
  489MOL0     H65974  -1.796  10.483   9.826 -0.2442 -1.3267 -1.4880
  489MOL0     H65975  -2.060  10.321  10.121 -0.3175 -0.5101  0.3037
  489MOL0     H65976  -2.362  10.243  10.114  2.3425 -1.1758 -1.6088
  489MOL0     H65977  -2.271  10.376  10.179 -2.4206  1.9471  0.5662
  489MOL0     H65978  -2.405  10.405  10.063  0.6723  0.9731 -1.2016
  489MOL0     H65979  -2.535  10.577   9.676 -1.0283  0.6479  0.0646
  489MOL0     H65980  -2.736  10.632   9.566 -0.7585 -0.1228 -0.1353
  489MOL0     H65981  -2.997  10.366   9.539  0.7065  1.1162  2.4835
  489MOL0     H65982  -2.969  10.530   9.574  0.6995 -0.1903  0.9095
  489MOL0     H65983  -3.092  10.614   9.369 -1.0268 -0.4605  0.4982
  489MOL0     H65984  -3.095  10.463   9.298  2.2308 -2.1246  0.9364
  489MOL0     H65985  -3.237  10.549   9.548  2.6139 -2.0426  1.8179
  489MOL0     H65986  -3.233  10.387   9.494  1.7294 -0.0798 -0.4452
  489MOL0     H65987  -3.325  10.609   9.304 -0.9368  0.8013  0.6118
  489MOL0     H65988  -3.351  10.435   9.274 -0.2094  0.5297 -0.3115
  489MOL0     H65989  -3.497  10.604   9.456 -1.2683 -0.0078 -0.9847
  489MOL0     H65990  -3.471  10.433   9.493 -0.7416 -0.8119 -1.0755
  489MOL0     H65991  -3.590  10.556   9.234 -0.1737 -2.4405 -3.2314
  489MOL0     H65992  -3.579  10.379   9.272 -0.7763  0.4317  0.5791
  489MOL0     H65993  -3.731  10.597   9.406  0.8892  0.3665 -0.7624
  489MOL0     H65994  -3.701  10.443   9.497 -1.3445  0.2497  0.4011
  489MOL0     H65995  -3.829  10.322   9.328 -1.3481 -0.1996 -3.0704
  489MOL0     H65996  -3.831  10.469   9.237 -0.5316  1.8842  1.5973
  489MOL0     H65997  -2.769  10.247   9.396  1.6349 -0.5087 -0.5144
  489MOL0     H65998  -2.552  10.179   9.519 -0.1463 -0.8998  1.3631
  489MOL0     H65999  -2.177  10.308   9.646 -0.8848  2.2436  1.0009
  489MOL0     H66000  -1.940  10.299   9.719 -1.7433 -0.4221 -1.8329
  489MOL0     H66001  -0.262   9.436   9.738  1.3268 -0.7059  1.1126
  489MOL0     H66002  -0.032   9.394   9.777 -1.9857 -0.8613  0.4507
  489MOL0     H66003   0.359   9.590  10.216  1.4399 -1.0833  0.5682
  489MOL0     H66004   0.591   9.544  10.231 -1.6310 -1.0234  1.2736
  489MOL0     H66005   0.794   9.618  10.111  1.9072  1.3451  1.0673
  489MOL0     H66006   0.815   9.460  10.204 -0.6190  0.0614 -0.2625
  489MOL0     H66007   0.970   9.580   9.961  1.7057  0.8833  0.7817
  489MOL0     H66008   0.973   9.406  10.000 -3.2287 -0.7213 -1.1096
  489MOL0     H66009   1.059   9.461  10.225 -0.9215  0.4720  0.8820
  489MOL0     H66010   1.051   9.636  10.199  2.0533 -0.4596  1.2485
  489MOL0     H66011   1.274   9.547  10.178  1.8317 -1.2970 -0.6372
  489MOL0     H66012   1.216   9.638  10.035  1.2364  0.6829  2.5184
  489MOL0     H66013   1.259   9.252   9.877 -0.4026 -0.7552 -0.9038
  489MOL0     H66014   0.565   9.346   9.833  1.5649 -1.3309  2.2262
  489MOL0     H66015   0.336   9.387   9.833 -0.1294  0.0683  0.1188
  490MOL0     O66016   3.514   3.810   9.806 -0.0713 -0.3430  0.2809
  490MOL0     C66017   3.585   3.822   9.902  0.0947  0.2874  0.2932
  490MOL0     O66018   3.549   3.807  10.033  0.3534 -0.0230 -0.1331
  490MOL0     C66019   3.417   3.777  10.066 -0.2281 -0.1425 -0.1247
  490MOL0     C66020   3.335   3.675  10.004 -0.7247 -0.9952  0.0888
  490MOL0     C66021   3.200   3.672  10.033  0.0979 -0.2694 -0.6346
  490MOL0     C66022   3.144   3.742  10.143  0.0039  0.2566  0.3587
  490MOL0     O66023   3.010   3.755  10.179 -0.6175 -0.3528 -0.0578
  490MOL0     C66024   2.917   3.654  10.110  0.2255 -0.1231 -0.2090
  490MOL0     C66025   2.780   3.718  10.077  0.1091 -0.1104 -0.0715
  490MOL0     C66026   2.704   3.751  10.207  0.4279 -0.0099  0.0242
  490MOL0     C66027   2.571   3.827  10.183 -0.8852  0.3755  0.2770
  490MOL0     C66028   2.509   3.871  10.312  0.8069 -0.6606  0.3404
  490MOL0     C66029   2.361   3.920  10.295  0.0664  0.0969  0.4972
  490MOL0     C66030   2.295   3.935  10.428 -0.0469 -1.0313  0.2680
  490MOL0     C66031   2.171   4.016  10.434 -0.0862  0.2752  0.0792
  490MOL0     N66032   2.055   3.949  10.371  0.0978  0.2562  0.8512
  490MOL0     C66033   1.953   3.879  10.436 -0.2312 -0.4324 -0.9019
  490MOL0     C66034   1.849   3.868  10.351 -0.5473  0.4381  0.0605
  490MOL0     C66035   1.711   3.780  10.359 -0.4808  0.8847  0.1499
  490MOL0     C66036   1.604   3.834  10.452 -0.7024  1.1249 -0.0431
  490MOL0     C66037   1.535   3.955  10.391  0.9237 -0.2152  0.1287
  490MOL0     C66038   1.395   3.991  10.459 -0.6459 -0.5366 -0.2822
  490MOL0     O66039   1.308   3.877  10.468 -0.1339 -0.0295  0.6887
  490MOL0     C66040   1.200   3.875  10.559 -0.5243  0.2715  0.2943
  490MOL0     C66041   1.229   3.884  10.698  0.3676 -1.0890 -0.6939
  490MOL0     C66042   1.123   3.867  10.785 -0.5095 -0.8921  0.3486
  490MOL0     C66043   1.170   3.868  10.932 -0.2773  0.3862 -0.2376
  490MOL0     C66044   0.988   3.852  10.740  0.6354 -0.3416  0.5153
  490MOL0     C66045   0.865   3.820  10.817 -0.1560 -0.2341  0.0435
  490MOL0     O66046   0.746   3.817  10.761  0.3523 -0.3714  0.0896
  490MOL0     C66047   0.641   3.754  10.822 -0.3934  0.0262  0.0519
  490MOL0     C66048   0.643   3.660  10.929 -0.6613  0.2421  0.5381
  490MOL0     C66049   0.515   3.605  10.978  0.0862 -0.4507  0.2818
  490MOL0     C66050   0.391   3.636  10.929 -0.5992  0.5080 -0.3771
  490MOL0     O66051   0.282   3.569  10.976  0.4483  0.3217 -0.5376
  490MOL0     C66052   0.153   3.639  10.966 -0.5442 -1.5901  0.4257
  490MOL0     C66053   0.057   3.583  11.078  0.0277 -0.7018  0.0158
  490MOL0     C66054  -0.075   3.665  11.079  0.1796  0.4706  0.2626
  490MOL0     C66055  -0.169   3.620  11.195 -0.9122 -0.2951  0.9717
  490MOL0     C66056  -0.313   3.684  11.174 -0.4277 -0.0763 -0.7176
  490MOL0     C66057  -0.405   3.635  11.289  1.2432 -0.0590  1.2359
  490MOL0     C66058  -0.427   3.480  11.292 -0.5939 -0.1523 -0.4189
  490MOL0     C66059  -0.468   3.422  11.151 -0.2639  0.3277 -0.4014
  490MOL0    Cl66060  -0.599   3.537  11.095 -0.4008  0.1997  0.3324
  490MOL0     C66061   0.387   3.728  10.819 -0.1649 -0.3050  0.4177
  490MOL0     C66062   0.509   3.782  10.778 -1.1422 -0.0481  0.2467
  490MOL0     O66063   0.888   3.802  10.935  0.3441  0.4120  0.0372
  490MOL0     C66064   0.966   3.870  10.602  0.1378  0.5214  0.1881
  490MOL0     C66065   1.072   3.874  10.515  0.7445 -0.5884 -0.4854
  490MOL0     N66066   1.893   3.924  10.231  0.2442 -0.3747 -0.1073
  490MOL0     N66067   2.015   3.973  10.243  0.3380 -1.1272 -0.7391
  490MOL0     C66068   3.234   3.824  10.213 -0.0790  0.0507  0.2473
  490MOL0     C66069   3.362   3.842  10.178 -0.2822  0.1682  0.3227
  490MOL0     C66070   3.719   3.866   9.869  0.1460 -0.8415  0.2015
  490MOL0     C66071   3.773   3.873   9.735  0.4289 -0.4199  0.1250
  490MOL0     C66072   3.904   3.920   9.707  0.5350  0.4555 -0.1697
  490MOL0     C66073   3.988   3.947   9.814 -0.4061  0.7333  0.6062
  490MOL0     O66074   4.118   3.988   9.787  1.0442 -0.8195 -0.0087
  490MOL0     C66075   4.221   4.010   9.882 -0.2087 -0.0101 -0.5728
  490MOL0     C66076   4.356   4.058   9.829  1.0605  0.1161 -0.7218
  490MOL0     C66077   4.454   4.071   9.948 -0.0296  0.0899 -0.0807
  490MOL0     C66078   4.601   4.070   9.893 -0.1450  1.0278 -0.3273
  490MOL0     C66079   4.690   4.034   9.999  0.6584 -0.0040 -0.1195
  490MOL0     C66080   4.770   3.990  10.083 -0.5820  0.0500  1.2178
  490MOL0     C66081   3.942   3.924   9.948 -0.0765  0.2345  0.1802
  490MOL0     C66082   3.813   3.899   9.969  0.1903  0.5825 -0.4168
  490MOL0     H66083   3.362   3.612   9.920  0.1437  0.6505 -0.9226
  490MOL0     H66084   3.134   3.616   9.968 -1.2698 -0.5339  0.8950
  490MOL0     H66085   2.955   3.625  10.012 -1.0152  1.8360 -1.3215
  490MOL0     H66086   2.909   3.565  10.173  0.4890 -0.5287 -0.7397
  490MOL0     H66087   2.800   3.806  10.016  2.0580 -0.9434 -0.7019
  490MOL0     H66088   2.736   3.632  10.026 -0.0545  0.4745 -0.9324
  490MOL0     H66089   2.679   3.658  10.259 -0.2968 -0.9012 -1.8469
  490MOL0     H66090   2.762   3.813  10.276  2.2326 -2.4983  0.9056
  490MOL0     H66091   2.586   3.922  10.132 -0.1758  1.1867  1.9127
  490MOL0     H66092   2.506   3.756  10.131  1.0127 -0.5457 -0.9134
  490MOL0     H66093   2.507   3.798  10.393 -0.9314 -0.8223  0.2036
  490MOL0     H66094   2.564   3.959  10.345 -1.7236  1.6302 -1.1028
  490MOL0     H66095   2.358   4.015  10.241  1.6117  0.8745  1.7093
  490MOL0     H66096   2.303   3.849  10.236  0.8591 -1.5535  1.6427
  490MOL0     H66097   2.261   3.836  10.460 -0.7065 -0.7888  0.3339
  490MOL0     H66098   2.368   3.970  10.502  0.3470  0.8464 -0.9597
  490MOL0     H66099   2.192   4.111  10.383  0.8542 -0.1360 -0.3206
  490MOL0     H66100   2.148   4.042  10.538  0.5630 -2.5056  1.0047
  490MOL0     H66101   1.959   3.825  10.530 -1.4008  1.5447  0.3789
  490MOL0     H66102   1.674   3.778  10.256 -0.5391  2.0568  0.1353
  490MOL0     H66103   1.734   3.679  10.394 -1.7507 -0.2839 -2.1496
  490MOL0     H66104   1.651   3.859  10.547 -0.2719 -1.6511  0.5638
  490MOL0     H66105   1.532   3.754  10.469  1.2956 -0.9195 -0.7030
  490MOL0     H66106   1.517   3.945  10.284 -0.6449  1.1383  0.2259
  490MOL0     H66107   1.609   4.035  10.394  0.4888  0.1754  1.6653
  490MOL0     H66108   1.353   4.080  10.410  1.4691  2.8649  3.4087
  490MOL0     H66109   1.418   4.038  10.556 -0.7295 -1.2152  0.0729
  490MOL0     H66110   1.333   3.887  10.730  0.3646  1.7459 -0.7028
  490MOL0     H66111   1.137   3.779  10.987  1.5876 -0.6185 -0.6418
  490MOL0     H66112   1.279   3.858  10.937 -0.4210 -3.0492 -1.3879
  490MOL0     H66113   1.130   3.952  10.989 -1.6419 -1.4084  1.5734
  490MOL0     H66114   0.735   3.613  10.961 -1.7192 -2.3894  0.0240
  490MOL0     H66115   0.516   3.529  11.055  0.0532 -0.8304 -0.0854
  490MOL0     H66116   0.172   3.743  10.994  1.3891 -1.4167 -1.3389
  490MOL0     H66117   0.108   3.637  10.867  2.7977  2.3098 -1.4552
  490MOL0     H66118   0.044   3.475  11.070 -2.6577 -0.3952 -0.8102
  490MOL0     H66119   0.106   3.592  11.176  0.5335  2.0192 -0.3886
  490MOL0     H66120  -0.129   3.641  10.987 -1.1987 -0.6740  1.3257
  490MOL0     H66121  -0.063   3.774  11.080  1.1357  0.4233 -1.7425
  490MOL0     H66122  -0.161   3.512  11.213  2.2837 -0.3284  0.0095
  490MOL0     H66123  -0.128   3.652  11.292 -1.4005 -1.8422  1.7246
  490MOL0     H66124  -0.345   3.661  11.072  0.8934  1.3156 -1.4754
  490MOL0     H66125  -0.307   3.793  11.177  0.3935 -0.1362  1.0114
  490MOL0     H66126  -0.369   3.668  11.387 -0.5199  2.9360  0.9858
  490MOL0     H66127  -0.499   3.690  11.281  2.7562  2.4332 -0.3652
  490MOL0     H66128  -0.500   3.464  11.372 -1.4366 -0.7016 -1.2781
  490MOL0     H66129  -0.330   3.440  11.323 -0.4082 -0.1642 -1.0028
  490MOL0     H66130  -0.507   3.321  11.164 -0.3852  0.5620  1.2660
  490MOL0     H66131  -0.389   3.417  11.076 -1.1444 -1.1565 -1.2817
  490MOL0     H66132   0.293   3.760  10.776 -0.9446 -2.2204  0.5711
  490MOL0     H66133   0.507   3.859  10.701 -1.7693 -1.5581 -1.3119
  490MOL0     H66134   0.867   3.855  10.560 -0.2940 -1.7185  1.8657
  490MOL0     H66135   1.062   3.871  10.407 -0.9647 -1.0799 -0.3385
  490MOL0     H66136   3.195   3.883  10.295  3.3534 -0.0159  2.1241
  490MOL0     H66137   3.413   3.926  10.224  0.1199  1.2861 -1.9793
  490MOL0     H66138   3.710   3.852   9.649  0.4473 -1.4437  0.3562
  490MOL0     H66139   3.939   3.928   9.605 -0.8684  1.4537 -0.6068
  490MOL0     H66140   4.192   4.094   9.945  0.4294  1.1524 -1.7889
  490MOL0     H66141   4.247   3.917   9.935 -1.2040 -0.8625 -1.5370
  490MOL0     H66142   4.353   4.158   9.784  0.6461 -0.5382 -2.1858
  490MOL0     H66143   4.392   3.996   9.746 -2.3614  0.1420 -2.3821
  490MOL0     H66144   4.432   3.995  10.023 -2.0696  0.1263 -0.5810
  490MOL0     H66145   4.450   4.169   9.997  0.5848 -0.5525  1.3144
  490MOL0     H66146   4.623   4.174   9.865 -1.2017  1.4557  0.3766
  490MOL0     H66147   4.606   4.015   9.798 -0.0510 -0.4838  0.5273
  490MOL0     H66148   4.846   3.954  10.149 -0.0917  1.8611  1.7112
  490MOL0     H66149   4.001   3.944  10.037  0.9054 -1.4562 -0.0357
  490MOL0     H66150   3.801   3.899  10.077  0.3382 -1.6370 -0.3629
  491MOL0     O66151   4.927  10.447   9.035  0.6048 -0.1143 -0.3081
  491MOL0     C66152   5.026  10.421   8.963 -0.2481  0.3007  0.3287
  491MOL0     O66153   5.021  10.397   8.830 -0.7183 -0.8394  0.3384
  491MOL0     C66154   4.910  10.433   8.766  0.3473  0.6788  0.2839
  491MOL0     C66155   4.854  10.340   8.674 -0.9299 -0.1524 -0.7832
  491MOL0     C66156   4.733  10.360   8.612 -0.0073  0.4033 -0.5334
  491MOL0     C66157   4.658  10.476   8.641 -0.2916  1.0482  0.0580
  491MOL0     O66158   4.539  10.473   8.579  0.1001  0.3238  0.4031
  491MOL0     C66159   4.499  10.595   8.519  0.3539 -0.4626  0.3255
  491MOL0     C66160   4.384  10.574   8.429  0.1106  0.7116 -0.1576
  491MOL0     C66161   4.333  10.713   8.378 -0.4188  0.1230  0.0125
  491MOL0     C66162   4.228  10.694   8.269  0.1228  0.1686 -0.2051
  491MOL0     C66163   4.144  10.819   8.254  0.3849 -1.0495  0.1725
  491MOL0     C66164   4.012  10.795   8.174  0.0115 -0.9210 -0.4645
  491MOL0     C66165   3.919  10.921   8.169  0.0080 -0.6937  0.3226
  491MOL0     C66166   3.851  10.945   8.309 -0.3438  0.7899  0.7253
  491MOL0     N66167   3.773  11.068   8.309 -0.2726 -0.4055 -0.8617
  491MOL0     C66168   3.643  11.079   8.299  0.6707  0.7978 -0.7618
  491MOL0     C66169   3.617  11.214   8.312 -0.1661  0.1326 -0.1931
  491MOL0     C66170   3.486  11.287   8.269 -0.4800 -0.3561 -1.4180
  491MOL0     C66171   3.439  11.270   8.126 -0.4360 -0.1079  0.0533
  491MOL0     C66172   3.527  11.353   8.031  0.5890  0.3290  0.4894
  491MOL0     C66173   3.458  11.431   7.921  0.1257 -0.2586 -0.2074
  491MOL0     O66174   3.400  11.540   7.987  0.4468 -0.3346 -0.0263
  491MOL0     C66175   3.326  11.627   7.910  0.1391  0.0733  0.6284
  491MOL0     C66176   3.353  11.690   7.794 -0.1088 -0.4123  0.1765
  491MOL0     C66177   3.263  11.776   7.731 -0.0990  0.0412 -0.0861
  491MOL0     C66178   3.316  11.850   7.612  0.2755 -0.3399  0.3748
  491MOL0     C66179   3.143  11.798   7.794 -0.2429 -0.3753 -0.0602
  491MOL0     C66180   3.041  11.889   7.739  0.0554 -0.0341 -0.9733
  491MOL0     O66181   2.976  11.971   7.828  0.6250 -0.4911 -0.4938
  491MOL0     C66182   2.855  12.039   7.801 -0.7584  0.2196 -0.5601
  491MOL0     C66183   2.738  12.008   7.875  0.4429  0.1483 -0.4725
  491MOL0     C66184   2.624  12.091   7.866 -1.3438  0.2696  0.0626
  491MOL0     C66185   2.619  12.189   7.774 -0.1224 -0.7290  0.6871
  491MOL0     O66186   2.508  12.268   7.770 -0.7672 -0.8519 -0.1908
  491MOL0     C66187   2.502  12.380   7.684  0.0528 -0.5958 -0.6831
  491MOL0     C66188   2.345  12.415   7.674  0.6510  0.6223  1.0348
  491MOL0     C66189   2.282  12.366   7.541 -0.1420  0.0301  0.5234
  491MOL0     C66190   2.131  12.376   7.559  0.3679 -0.2094  0.0423
  491MOL0     C66191   2.051  12.338   7.436 -0.7374  0.7780  0.1180
  491MOL0     C66192   1.904  12.326   7.478  0.2676  0.0839  0.5865
  491MOL0     C66193   1.824  12.453   7.518 -0.3013 -0.5370 -0.6807
  491MOL0     C66194   1.675  12.416   7.529 -0.4379 -0.1968 -0.6008
  491MOL0    Cl66195   1.656  12.261   7.616 -0.0571 -0.4656  0.2470
  491MOL0     C66196   2.731  12.214   7.694  0.4862  0.3541 -1.5290
  491MOL0     C66197   2.846  12.137   7.703 -0.2722  0.2046  0.4153
  491MOL0     O66198   3.008  11.874   7.625 -0.3064 -0.5909 -0.1097
  491MOL0     C66199   3.118  11.745   7.921 -0.1453  0.3988 -0.1136
  491MOL0     C66200   3.209  11.652   7.977 -0.2638  0.7771  0.1322
  491MOL0     N66201   3.733  11.278   8.347 -0.3328  0.9073  0.9625
  491MOL0     N66202   3.830  11.190   8.336 -0.1774 -0.2352 -0.2634
  491MOL0     C66203   4.711  10.579   8.710 -0.2557  0.0001  0.1859
  491MOL0     C66204   4.836  10.558   8.777 -0.7467  0.1769 -0.9051
  491MOL0     C66205   5.159  10.400   9.033 -1.0771 -0.2150 -1.3397
  491MOL0     C66206   5.166  10.368   9.175  0.3485  0.0590  0.6018
  491MOL0     C66207   5.282  10.368   9.244  0.9806  0.0769 -0.1121
  491MOL0     C66208   5.398  10.408   9.189 -0.5535  0.4775 -0.4529
  491MOL0     O66209   5.506  10.409   9.270 -0.1310 -0.0049  0.1425
  491MOL0     C66210   5.641  10.410   9.215  0.0287 -0.4141 -0.0773
  491MOL0     C66211   5.737  10.377   9.330 -0.7772  0.0861  0.1049
  491MOL0     C66212   5.880  10.420   9.291 -0.3747  0.4871 -0.4471
  491MOL0     C66213   5.981  10.383   9.392  0.3735  0.0347 -0.1258
  491MOL0     C66214   5.981  10.467   9.511 -0.3257 -0.2995  0.2666
  491MOL0     C66215   5.977  10.515   9.621 -0.5600  0.1555  0.2267
  491MOL0     C66216   5.401  10.437   9.047  0.3563 -0.4621 -1.0015
  491MOL0     C66217   5.283  10.429   8.971  0.5185 -0.4208  0.5125
  491MOL0     H66218   4.908  10.246   8.664  0.5797  0.6137 -0.0958
  491MOL0     H66219   4.692  10.281   8.550  1.3307  0.9890 -2.2605
  491MOL0     H66220   4.473  10.662   8.602  0.2851 -3.4051  2.8871
  491MOL0     H66221   4.579  10.642   8.462 -0.4864  0.1309 -0.3722
  491MOL0     H66222   4.399  10.515   8.338 -4.2209  1.1401 -1.4026
  491MOL0     H66223   4.302  10.524   8.483 -1.6556  2.4979 -1.0479
  491MOL0     H66224   4.304  10.775   8.464  0.6640 -0.9166  1.1709
  491MOL0     H66225   4.416  10.772   8.338  1.4152 -0.3851  2.7844
  491MOL0     H66226   4.292  10.665   8.185  1.0484  3.5681 -0.7928
  491MOL0     H66227   4.161  10.610   8.293 -0.2619  0.1521 -1.2719
  491MOL0     H66228   4.120  10.860   8.353 -2.1340 -1.3564 -0.2270
  491MOL0     H66229   4.199  10.900   8.205  1.4266 -0.0652  2.8193
  491MOL0     H66230   4.044  10.781   8.070 -0.3618  0.7746 -0.8326
  491MOL0     H66231   3.954  10.707   8.203  0.3542 -0.8299  0.5269
  491MOL0     H66232   3.968  11.011   8.130  0.3414 -1.4996 -1.1933
  491MOL0     H66233   3.834  10.901   8.103  0.7759 -1.2524 -0.5228
  491MOL0     H66234   3.933  10.950   8.382 -0.1493  0.6913  0.5171
  491MOL0     H66235   3.798  10.854   8.340  2.8463 -0.7646  2.2503
  491MOL0     H66236   3.580  10.995   8.275  2.9363 -0.9874 -0.7592
  491MOL0     H66237   3.401  11.258   8.332 -0.4609  3.2605  0.5564
  491MOL0     H66238   3.496  11.396   8.273  0.7317 -0.4873  0.1472
  491MOL0     H66239   3.334  11.302   8.123 -1.2391 -1.6995  4.0044
  491MOL0     H66240   3.446  11.164   8.101  0.5124 -0.2844  0.9951
  491MOL0     H66241   3.589  11.285   7.971 -2.7073 -2.8992  0.4194
  491MOL0     H66242   3.589  11.431   8.076  0.7078  1.2911 -1.2755
  491MOL0     H66243   3.392  11.362   7.868 -0.3564  1.2522 -1.6666
  491MOL0     H66244   3.521  11.461   7.837 -1.0821  0.5116 -0.8632
  491MOL0     H66245   3.445  11.669   7.739 -1.7683 -2.4947 -2.0047
  491MOL0     H66246   3.425  11.838   7.604  0.9780  1.3559  4.7777
  491MOL0     H66247   3.260  11.824   7.522  1.0782 -0.2221 -0.1718
  491MOL0     H66248   3.297  11.957   7.624  2.9163  0.0724  1.5333
  491MOL0     H66249   2.745  11.924   7.943 -2.7024 -1.2298 -1.6457
  491MOL0     H66250   2.537  12.068   7.928  0.0469 -1.8254  1.3764
  491MOL0     H66251   2.550  12.472   7.719 -0.7389 -0.8964  1.2781
  491MOL0     H66252   2.532  12.360   7.580  1.7321 -0.8243 -0.1811
  491MOL0     H66253   2.287  12.375   7.758  0.7814 -0.4180  0.6465
  491MOL0     H66254   2.339  12.524   7.664  1.0932  0.5166 -0.5868
  491MOL0     H66255   2.291  12.260   7.515 -3.0934  0.2661 -2.1443
  491MOL0     H66256   2.320  12.426   7.457 -1.3217 -2.1429 -1.6957
  491MOL0     H66257   2.104  12.308   7.639 -1.2119 -0.7213 -0.8895
  491MOL0     H66258   2.097  12.479   7.576 -0.0552 -0.0650 -1.4910
  491MOL0     H66259   2.090  12.240   7.407  0.6245  1.0951  0.7713
  491MOL0     H66260   2.068  12.409   7.355 -1.3243  1.4317  0.5538
  491MOL0     H66261   1.851  12.276   7.397  2.5635 -0.2245 -0.8122
  491MOL0     H66262   1.907  12.254   7.561  0.6240 -0.0756  0.4420
  491MOL0     H66263   1.837  12.520   7.433 -2.5155 -0.8694 -1.3440
  491MOL0     H66264   1.857  12.511   7.605 -3.7504 -0.3043  0.6428
  491MOL0     H66265   1.620  12.414   7.434  0.8323  1.8185 -1.4238
  491MOL0     H66266   1.635  12.499   7.588 -3.1773 -1.0615 -1.0708
  491MOL0     H66267   2.741  12.297   7.624 -1.1559  1.9640  0.0236
  491MOL0     H66268   2.930  12.159   7.638 -0.6471  2.4977  0.5934
  491MOL0     H66269   3.039  11.774   7.990  0.6694  2.8259 -0.1060
  491MOL0     H66270   3.174  11.594   8.062  0.7547 -2.6073 -1.5713
  491MOL0     H66271   4.669  10.679   8.718 -1.4488 -0.3628 -1.0946
  491MOL0     H66272   4.885  10.632   8.840 -0.1812 -1.2479  0.3830
  491MOL0     H66273   5.078  10.327   9.224  0.9204 -0.1330  1.4838
  491MOL0     H66274   5.295  10.345   9.349 -0.1820 -0.5700 -0.0874
  491MOL0     H66275   5.644  10.327   9.144 -2.3139 -1.3204  0.7765
  491MOL0     H66276   5.666  10.500   9.159  0.9513 -1.4430 -1.3965
  491MOL0     H66277   5.740  10.270   9.352 -1.8748  0.0796  0.3004
  491MOL0     H66278   5.703  10.427   9.421 -1.6349 -0.3624  0.0431
  491MOL0     H66279   5.880  10.527   9.266 -3.4935  0.4176 -1.2286
  491MOL0     H66280   5.896  10.362   9.200  0.3654  1.2154 -0.7955
  491MOL0     H66281   6.073  10.393   9.333 -1.0671 -0.1892 -2.5601
  491MOL0     H66282   5.955  10.280   9.418 -0.0045 -0.3108 -1.7713
  491MOL0     H66283   5.958  10.545   9.722 -0.0856 -0.7140  0.5904
  491MOL0     H66284   5.491  10.467   8.995 -0.0165  2.7007 -0.0270
  491MOL0     H66285   5.283  10.437   8.863 -0.0220  3.6835  0.6596
  492MOL0     O66286   9.961  10.657   2.104 -0.1785 -0.1176 -0.1507
  492MOL0     C66287   9.985  10.624   2.216 -0.6923  0.7057 -0.3032
  492MOL0     O66288   9.893  10.622   2.326 -0.4138  0.0943 -0.2671
  492MOL0     C66289   9.774  10.670   2.301  0.3986 -0.4544  0.4826
  492MOL0     C66290   9.682  10.593   2.245  0.0463  0.4206 -0.3923
  492MOL0     C66291   9.547  10.627   2.230 -0.3004 -0.2625 -0.4979
  492MOL0     C66292   9.511  10.754   2.286  0.3731  0.2862  0.1563
  492MOL0     O66293   9.384  10.810   2.276 -0.3238 -0.1312 -0.0393
  492MOL0     C66294   9.295  10.779   2.165 -0.1059  0.2597 -0.4920
  492MOL0     C66295   9.175  10.876   2.175 -0.5658 -0.2974 -0.3692
  492MOL0     C66296   9.064  10.836   2.083 -0.1216 -0.1452  0.1796
  492MOL0     C66297   8.940  10.921   2.090 -0.2792 -0.1823  0.4846
  492MOL0     C66298   8.835  10.853   2.001  0.8365 -0.1933  0.8447
  492MOL0     C66299   8.702  10.920   2.031  0.6850  0.5476  0.4981
  492MOL0     C66300   8.580  10.855   1.964  0.2502  0.3474 -0.4552
  492MOL0     C66301   8.455  10.927   2.010  0.2255  0.5590 -0.0792
  492MOL0     N66302   8.326  10.859   1.978  0.0706  0.5039  0.0734
  492MOL0     C66303   8.314  10.736   1.931 -0.3228  0.4947 -0.2720
  492MOL0     C66304   8.177  10.709   1.943  0.0730 -0.1885  0.3105
  492MOL0     C66305   8.115  10.589   1.884  0.1644  0.0784 -0.1893
  492MOL0     C66306   7.962  10.607   1.872 -0.2628  0.4570  0.0531
  492MOL0     C66307   7.901  10.479   1.821  0.5868 -0.0835  0.1373
  492MOL0     C66308   7.751  10.475   1.833  0.4760 -0.5087 -0.0660
  492MOL0     O66309   7.684  10.583   1.767  0.1026 -0.0290 -0.0184
  492MOL0     C66310   7.547  10.599   1.779 -0.5348  0.2007  0.3196
  492MOL0     C66311   7.466  10.488   1.758 -0.4305  0.2638  0.4159
  492MOL0     C66312   7.328  10.487   1.782  0.1111  0.0772  0.5653
  492MOL0     C66313   7.245  10.379   1.738 -0.6873  0.6389 -0.5168
  492MOL0     C66314   7.271  10.608   1.833  0.0479 -0.1734  0.1538
  492MOL0     C66315   7.132  10.627   1.878 -0.3191  0.1027  0.3410
  492MOL0     O66316   7.068  10.744   1.840  0.4917 -0.6115  0.0747
  492MOL0     C66317   6.931  10.733   1.821 -0.4985 -0.4297  0.7486
  492MOL0     C66318   6.879  10.756   1.694 -0.5574  0.8945  0.6872
  492MOL0     C66319   6.740  10.760   1.668 -0.4122 -0.6566 -0.1827
  492MOL0     C66320   6.651  10.739   1.777  0.1901 -0.1116  0.8531
  492MOL0     O66321   6.517  10.742   1.737  0.4633 -0.1854 -0.6044
  492MOL0     C66322   6.407  10.767   1.835  0.5911 -0.4630  0.4845
  492MOL0     C66323   6.274  10.806   1.765  0.4634  0.5528  0.1630
  492MOL0     C66324   6.233  10.698   1.660 -0.7749 -0.1259  0.1439
  492MOL0     C66325   6.100  10.715   1.594  0.9129 -0.7078  0.0595
  492MOL0     C66326   6.082  10.864   1.553  0.6021 -1.2251 -0.0688
  492MOL0     C66327   5.964  10.899   1.462 -0.2117  0.0313  0.9274
  492MOL0     C66328   5.845  10.929   1.563 -0.0082  0.0253  1.0039
  492MOL0     C66329   5.723  10.955   1.463 -0.2533 -0.6568 -0.7221
  492MOL0    Cl66330   5.573  11.026   1.533  0.5150 -0.3957 -0.0920
  492MOL0     C66331   6.698  10.730   1.906 -0.1459 -0.7028 -0.9319
  492MOL0     C66332   6.838  10.729   1.926  0.7332  0.2458  0.5784
  492MOL0     O66333   7.082  10.526   1.933  0.1854 -0.3258  0.0099
  492MOL0     C66334   7.354  10.718   1.860 -0.3211 -0.6887 -0.1119
  492MOL0     C66335   7.490  10.710   1.840  0.8172 -0.4093  0.3844
  492MOL0     N66336   8.109  10.817   1.996  0.1520 -0.5970 -0.1429
  492MOL0     N66337   8.199  10.911   2.018  0.5547 -0.0359  0.2289
  492MOL0     C66338   9.608  10.839   2.340 -0.3721 -0.5313  0.6936
  492MOL0     C66339   9.738  10.796   2.355  1.2505  0.5819  0.5419
  492MOL0     C66340  10.125  10.563   2.247  0.7376 -0.9311 -0.0120
  492MOL0     C66341  10.160  10.552   2.379 -0.1361  0.7824 -0.2265
  492MOL0     C66342  10.293  10.501   2.412 -0.6047  1.2075 -0.0999
  492MOL0     C66343  10.382  10.455   2.310 -0.0789  0.0042  0.8211
  492MOL0     O66344  10.502  10.403   2.343  0.0801 -0.5994 -0.7284
  492MOL0     C66345  10.582  10.349   2.240  1.8275  0.2596 -0.4686
  492MOL0     C66346  10.720  10.318   2.296  1.1686  0.8945  0.3705
  492MOL0     C66347  10.802  10.230   2.205 -0.2859  0.0181 -0.6877
  492MOL0     C66348  10.944  10.234   2.237 -0.4114 -0.1417 -0.1889
  492MOL0     C66349  11.010  10.174   2.120  0.0196 -0.4714 -0.0460
  492MOL0     C66350  11.065  10.118   2.031 -0.3187  0.3001  0.0027
  492MOL0     C66351  10.334  10.458   2.175  0.4468  0.0381 -0.4888
  492MOL0     C66352  10.206  10.510   2.144 -0.3123  0.0908 -0.2555
  492MOL0     H66353   9.718  10.496   2.211 -1.0411 -0.0463 -0.2562
  492MOL0     H66354   9.477  10.562   2.178  1.1614 -0.9090 -1.7488
  492MOL0     H66355   9.346  10.785   2.068  4.9537 -0.7142  1.8257
  492MOL0     H66356   9.262  10.677   2.186 -0.2235  0.8715  2.7129
  492MOL0     H66357   9.145  10.873   2.281  2.2234 -2.1641  0.4792
  492MOL0     H66358   9.208  10.979   2.158 -0.4497 -0.3283 -0.3315
  492MOL0     H66359   9.110  10.815   1.986  3.3916 -1.5308  1.9751
  492MOL0     H66360   9.044  10.736   2.123  0.0668  0.0486  0.7759
  492MOL0     H66361   8.903  10.931   2.193 -0.2175  0.8363  0.4165
  492MOL0     H66362   8.938  11.028   2.065 -2.6710 -0.2913  0.0132
  492MOL0     H66363   8.863  10.868   1.897  0.9175 -2.5432  0.4896
  492MOL0     H66364   8.835  10.744   2.007  0.1494 -0.2208  0.4825
  492MOL0     H66365   8.692  10.917   2.140  0.8071 -0.5463  0.4933
  492MOL0     H66366   8.714  11.026   2.006  0.0022  0.5590  0.1983
  492MOL0     H66367   8.590  10.868   1.856 -0.7198  4.2611 -0.2292
  492MOL0     H66368   8.579  10.752   2.001  1.3622  1.7096  4.0073
  492MOL0     H66369   8.449  11.023   1.957 -2.0928  0.3117 -0.3911
  492MOL0     H66370   8.450  10.960   2.114  1.9864  0.0032  0.2141
  492MOL0     H66371   8.394  10.667   1.906 -0.0868  0.7780 -0.3018
  492MOL0     H66372   8.168  10.575   1.790  1.8134  1.0286  0.5653
  492MOL0     H66373   8.139  10.505   1.950  0.0462  0.6003  0.5382
  492MOL0     H66374   7.934  10.691   1.808  1.9051  2.8739  2.0487
  492MOL0     H66375   7.921  10.628   1.971 -0.3970  1.1247 -0.1375
  492MOL0     H66376   7.946  10.389   1.865  2.4563 -0.3635 -2.1297
  492MOL0     H66377   7.921  10.470   1.714 -1.2685 -3.0558 -0.0663
  492MOL0     H66378   7.714  10.462   1.935 -0.6746 -0.0221 -0.4166
  492MOL0     H66379   7.725  10.384   1.779  0.0412  0.9663 -2.4627
  492MOL0     H66380   7.493  10.393   1.713 -2.7907 -1.1620  1.7917
  492MOL0     H66381   7.183  10.410   1.653 -0.6885 -1.9608 -1.5539
  492MOL0     H66382   7.309  10.295   1.711  2.2015  3.1139 -1.7828
  492MOL0     H66383   7.189  10.342   1.825  0.6526 -0.7219 -0.1891
  492MOL0     H66384   6.939  10.772   1.606 -1.8356  0.0797 -0.3770
  492MOL0     H66385   6.686  10.779   1.576 -4.0742 -2.0107  1.5035
  492MOL0     H66386   6.382  10.680   1.896  2.2490 -2.1602 -1.1652
  492MOL0     H66387   6.436  10.847   1.904 -1.3125  1.0411 -0.3500
  492MOL0     H66388   6.197  10.809   1.843  2.1951 -1.4591  2.0993
  492MOL0     H66389   6.273  10.903   1.714 -0.2037  0.1920 -0.5236
  492MOL0     H66390   6.225  10.602   1.711  0.3396 -0.3526 -0.0949
  492MOL0     H66391   6.312  10.694   1.584  1.6732  0.1000  2.5255
  492MOL0     H66392   6.094  10.637   1.518  2.2104 -1.8328  1.0527
  492MOL0     H66393   6.023  10.697   1.670 -0.6149  0.2809 -1.2149
  492MOL0     H66394   6.175  10.913   1.523 -2.3796  3.9977 -1.9724
  492MOL0     H66395   6.053  10.920   1.642  0.0375 -0.2925 -0.8169
  492MOL0     H66396   5.987  10.987   1.400 -0.2676 -0.4252  0.2479
  492MOL0     H66397   5.937  10.812   1.401  2.4582 -0.9677  1.0200
  492MOL0     H66398   5.877  11.018   1.620  1.4063  1.9806 -2.5192
  492MOL0     H66399   5.814  10.846   1.627 -3.4414  1.5132  1.4491
  492MOL0     H66400   5.688  10.863   1.415 -1.0410 -0.9106  0.2937
  492MOL0     H66401   5.759  11.019   1.382 -0.6858 -0.6468 -0.9107
  492MOL0     H66402   6.638  10.717   1.996  0.7662 -0.8385 -0.3337
  492MOL0     H66403   6.892  10.700   2.015  3.8047  0.0886 -1.2125
  492MOL0     H66404   7.306  10.812   1.882 -1.8355 -0.9022 -2.2249
  492MOL0     H66405   7.547  10.798   1.869  0.3310  0.0354  0.0015
  492MOL0     H66406   9.587  10.939   2.376 -1.8538 -1.7454  3.4960
  492MOL0     H66407   9.806  10.860   2.410  0.5071  0.4488  1.6537
  492MOL0     H66408  10.092  10.592   2.453  0.6229  0.6969  0.5428
  492MOL0     H66409  10.333  10.473   2.508  0.7337 -1.2188 -1.2806
  492MOL0     H66410  10.534  10.257   2.205  0.0621 -0.6143  3.6725
  492MOL0     H66411  10.593  10.419   2.157 -0.3303  1.3582  0.0999
  492MOL0     H66412  10.705  10.264   2.390 -1.2522 -1.1031 -1.0475
  492MOL0     H66413  10.764  10.417   2.310 -3.8854  3.4378  0.5808
  492MOL0     H66414  10.793  10.269   2.103  3.2336  0.7952 -0.8437
  492MOL0     H66415  10.773  10.125   2.209  1.5469 -0.5665 -1.3294
  492MOL0     H66416  10.963  10.173   2.326 -0.2379  0.9396  0.5311
  492MOL0     H66417  10.979  10.335   2.260 -0.3199  0.5325 -2.9179
  492MOL0     H66418  11.094  10.060   1.946 -0.8528 -1.4482  0.9698
  492MOL0     H66419  10.386  10.402   2.098 -1.8351 -1.3451 -1.1321
  492MOL0     H66420  10.172  10.522   2.042 -1.0558 -0.2051 -0.0531
  493MOL0     O66421  11.001   7.510  11.006  1.1609  0.2194 -0.7853
  493MOL0     C66422  11.103   7.523  10.940  0.4387 -0.7154  0.0330
  493MOL0     O66423  11.100   7.551  10.804  0.2104 -0.3524  0.3361
  493MOL0     C66424  10.978   7.576  10.753 -0.2045  0.1481  0.2942
  493MOL0     C66425  10.947   7.707  10.725 -0.5636 -1.0149  0.0239
  493MOL0     C66426  10.823   7.739  10.670 -0.5710  0.3732 -0.2857
  493MOL0     C66427  10.724   7.643  10.635  0.2558 -0.1310  0.0733
  493MOL0     O66428  10.601   7.686  10.589 -0.4611  0.3236 -0.6727
  493MOL0     C66429  10.608   7.742  10.454  0.1142  0.8111 -0.7611
  493MOL0     C66430  10.478   7.788  10.391 -1.2434  0.0527  0.4978
  493MOL0     C66431  10.390   7.881  10.466 -0.2943  0.0952 -0.1834
  493MOL0     C66432  10.474   8.007  10.508 -0.1466  0.4991  0.1294
  493MOL0     C66433  10.388   8.090  10.600 -0.0417 -0.2374  1.0614
  493MOL0     C66434  10.263   8.160  10.543  1.0755  0.0067 -0.4095
  493MOL0     C66435  10.242   8.313  10.568  0.0674 -0.1402  0.1916
  493MOL0     C66436  10.125   8.376  10.492 -0.7897  0.9639 -0.6832
  493MOL0     N66437   9.997   8.310  10.534  0.7413 -0.0386  0.6272
  493MOL0     C66438   9.917   8.217  10.469  0.3503  0.3327  1.3156
  493MOL0     C66439   9.794   8.224  10.521 -0.4241  0.1130 -0.3803
  493MOL0     C66440   9.672   8.139  10.484 -0.2863  0.0368 -0.3423
  493MOL0     C66441   9.631   8.154  10.338 -0.0129 -0.4749  0.3313
  493MOL0     C66442   9.482   8.135  10.322  0.1495 -0.2395  0.6733
  493MOL0     C66443   9.437   8.184  10.180 -0.9914 -0.1094  0.4584
  493MOL0     O66444   9.491   8.088  10.086  0.1139  0.7712 -0.6311
  493MOL0     C66445   9.405   8.064   9.979  0.4629  0.0022 -0.4179
  493MOL0     C66446   9.376   8.168   9.889  0.0291 -0.3831  0.3593
  493MOL0     C66447   9.291   8.153   9.780  0.3954 -0.6305  0.3083
  493MOL0     C66448   9.268   8.275   9.694  0.0386  0.0549 -0.2316
  493MOL0     C66449   9.245   8.020   9.751  0.1534 -0.8174 -0.4727
  493MOL0     C66450   9.142   7.983   9.647  0.3209  0.1288 -0.6750
  493MOL0     O66451   9.072   7.863   9.669  0.0287 -0.2786  0.2249
  493MOL0     C66452   8.972   7.828   9.583 -0.7812  0.1519  0.6375
  493MOL0     C66453   8.959   7.687   9.568 -0.4930  0.2295  0.4119
  493MOL0     C66454   8.847   7.635   9.503  0.7191  0.5138  0.0626
  493MOL0     C66455   8.757   7.724   9.436 -0.4697  0.0380 -0.0915
  493MOL0     O66456   8.645   7.684   9.381  0.2816  0.6087  0.7203
  493MOL0     C66457   8.577   7.555   9.406 -0.2662  0.2280  0.0342
  493MOL0     C66458   8.654   7.459   9.311 -0.5824 -0.2678  0.0612
  493MOL0     C66459   8.547   7.347   9.283  0.0719  0.8798 -0.8651
  493MOL0     C66460   8.557   7.325   9.134  0.5129 -0.3028  0.0073
  493MOL0     C66461   8.493   7.189   9.091  0.3221  0.3227  0.4197
  493MOL0     C66462   8.489   7.174   8.930  0.6494  0.5917  0.3001
  493MOL0     C66463   8.488   7.023   8.890 -0.2042 -0.4089  0.3913
  493MOL0     C66464   8.466   7.010   8.745  0.3523  0.2668 -0.1318
  493MOL0    Cl66465   8.297   7.064   8.699 -0.0872  0.0423 -0.1417
  493MOL0     C66466   8.779   7.858   9.445 -0.1065  0.1652 -0.1920
  493MOL0     C66467   8.878   7.915   9.523  1.1524 -0.0392 -0.4755
  493MOL0     O66468   9.124   8.056   9.553 -0.3622  0.2639  0.1967
  493MOL0     C66469   9.279   7.918   9.844 -0.7571  0.4039 -0.6484
  493MOL0     C66470   9.360   7.940   9.959  0.1341  0.1827  1.0628
  493MOL0     N66471   9.792   8.325  10.619  0.1334 -0.6126  0.7891
  493MOL0     N66472   9.916   8.374  10.623 -0.2143 -0.9807 -0.2750
  493MOL0     C66473  10.749   7.514  10.681  0.4566  0.1184  0.0410
  493MOL0     C66474  10.875   7.475  10.726 -0.0602 -0.3340  0.6772
  493MOL0     C66475  11.237   7.501  11.008 -0.1582  0.5022 -1.5264
  493MOL0     C66476  11.350   7.477  10.933 -0.1554 -0.2648 -0.1854
  493MOL0     C66477  11.478   7.461  11.002  0.2692  0.3840  0.0971
  493MOL0     C66478  11.487   7.474  11.137 -0.1882 -0.5531  0.3680
  493MOL0     O66479  11.610   7.455  11.185  0.4283  0.2403  0.1682
  493MOL0     C66480  11.626   7.439  11.327 -0.2209 -0.0212  0.2054
  493MOL0     C66481  11.764   7.396  11.358 -0.7995 -0.6342  0.2475
  493MOL0     C66482  11.872   7.490  11.321 -0.2849 -0.1150 -0.0049
  493MOL0     C66483  11.881   7.616  11.402 -0.0122  0.6506  0.3828
  493MOL0     C66484  12.003   7.688  11.367  0.1967  0.1728  0.5559
  493MOL0     C66485  12.103   7.746  11.340  0.4972 -0.4210 -0.8160
  493MOL0     C66486  11.366   7.487  11.215 -0.0819  0.2895 -0.5341
  493MOL0     C66487  11.242   7.494  11.151 -0.0939 -0.1932 -0.1770
  493MOL0     H66488  11.017   7.789  10.736  0.4315 -1.4394 -2.4511
  493MOL0     H66489  10.801   7.843  10.646 -0.2559  0.0592 -2.1523
  493MOL0     H66490  10.683   7.822  10.458 -0.9104  1.7527  0.4484
  493MOL0     H66491  10.648   7.666  10.387 -0.0437  1.2089 -1.3102
  493MOL0     H66492  10.510   7.839  10.300 -0.3396  1.0559  1.3496
  493MOL0     H66493  10.428   7.694  10.366  0.7271 -0.9207  0.0073
  493MOL0     H66494  10.302   7.896  10.403 -0.3998 -1.5361 -0.4518
  493MOL0     H66495  10.360   7.830  10.558  0.7227 -0.9674 -0.4250
  493MOL0     H66496  10.553   7.987  10.581 -0.9551  0.2336  0.9552
  493MOL0     H66497  10.507   8.069  10.424 -1.7303 -1.7935 -2.3724
  493MOL0     H66498  10.358   8.026  10.684 -2.0368 -2.8533 -1.4454
  493MOL0     H66499  10.453   8.165  10.646  1.5806 -2.0811  1.8675
  493MOL0     H66500  10.265   8.147  10.434 -0.4102  1.3588 -0.6403
  493MOL0     H66501  10.175   8.119  10.592 -1.3967  3.6070 -1.3870
  493MOL0     H66502  10.225   8.332  10.674 -2.1209  2.4658 -0.5382
  493MOL0     H66503  10.333   8.366  10.537  0.7889 -1.6059 -0.2896
  493MOL0     H66504  10.134   8.350  10.386 -0.5873 -0.5295 -0.3315
  493MOL0     H66505  10.122   8.481  10.521 -1.4606  0.0508  3.0974
  493MOL0     H66506   9.943   8.144  10.392 -1.3072 -1.7310  2.6007
  493MOL0     H66507   9.691   8.034  10.508  1.5537  0.7813  1.8691
  493MOL0     H66508   9.593   8.180  10.548  0.0925  0.9186 -0.4342
  493MOL0     H66509   9.692   8.097  10.267 -0.3222  0.9258 -1.1230
  493MOL0     H66510   9.657   8.257  10.310 -0.4545 -0.6327 -0.7103
  493MOL0     H66511   9.418   8.192  10.390  0.3091  4.6256 -2.7409
  493MOL0     H66512   9.459   8.029  10.335  0.4352 -0.2280  1.2916
  493MOL0     H66513   9.465   8.288  10.160 -2.4919 -0.0196 -1.4617
  493MOL0     H66514   9.328   8.176  10.179 -0.8660 -3.1347 -2.3210
  493MOL0     H66515   9.432   8.260   9.903 -0.1537 -0.3566  0.9489
  493MOL0     H66516   9.273   8.244   9.589  1.2140 -1.2186  0.1706
  493MOL0     H66517   9.167   8.316   9.701 -0.7421  0.1941 -6.4176
  493MOL0     H66518   9.340   8.357   9.708  0.0521  0.4245 -2.2142
  493MOL0     H66519   9.033   7.621   9.611  0.4578  2.3807  2.2837
  493MOL0     H66520   8.846   7.527   9.513  1.3706  0.5097  0.1127
  493MOL0     H66521   8.572   7.531   9.512 -2.5236  0.3848  0.0122
  493MOL0     H66522   8.473   7.561   9.370 -0.3170 -1.2463 -0.0923
  493MOL0     H66523   8.678   7.507   9.216 -1.2155  0.0858  0.0736
  493MOL0     H66524   8.736   7.410   9.364  1.1750 -0.4311 -2.6551
  493MOL0     H66525   8.445   7.365   9.316 -0.1716 -4.9060  2.9873
  493MOL0     H66526   8.569   7.258   9.343 -0.1900  0.9452 -0.6732
  493MOL0     H66527   8.506   7.409   9.086  0.5461 -0.3953 -0.1918
  493MOL0     H66528   8.660   7.321   9.100  0.4375 -2.1986 -0.1524
  493MOL0     H66529   8.387   7.183   9.116  0.3881 -2.0355  0.3372
  493MOL0     H66530   8.549   7.106   9.135  0.7971 -0.0084 -0.7722
  493MOL0     H66531   8.411   7.236   8.885  2.2575  2.0187 -0.6402
  493MOL0     H66532   8.582   7.205   8.881 -0.3910 -0.0852 -2.2603
  493MOL0     H66533   8.426   6.954   8.948  3.1064 -3.9497  0.0543
  493MOL0     H66534   8.588   6.980   8.903  1.2707  2.6660  0.3532
  493MOL0     H66535   8.482   6.903   8.730  0.6279  0.2207  0.4765
  493MOL0     H66536   8.528   7.074   8.682 -0.4091  2.6821  1.4453
  493MOL0     H66537   8.701   7.921   9.403  0.1083 -0.3670 -1.4352
  493MOL0     H66538   8.864   8.021   9.542 -3.4998 -0.6356  0.7076
  493MOL0     H66539   9.237   7.818   9.830  0.2461 -0.0367 -0.6148
  493MOL0     H66540   9.396   7.872  10.036  0.9658  0.2437  0.7353
  493MOL0     H66541  10.663   7.451  10.663 -1.0263  1.8673  0.7487
  493MOL0     H66542  10.891   7.370  10.747 -2.0728 -1.0855 -1.1846
  493MOL0     H66543  11.343   7.460  10.826  1.0964  0.7709 -0.4645
  493MOL0     H66544  11.553   7.447  10.925 -3.1531 -1.2077 -3.2382
  493MOL0     H66545  11.607   7.538  11.369  1.9905  1.2452 -1.5402
  493MOL0     H66546  11.558   7.370  11.378  2.1330  0.0347  3.7758
  493MOL0     H66547  11.781   7.303  11.303  1.3249  1.4298 -3.0041
  493MOL0     H66548  11.778   7.386  11.466 -1.0264  1.5837  0.5250
  493MOL0     H66549  11.869   7.518  11.215  1.6410  3.4084  0.7134
  493MOL0     H66550  11.959   7.427  11.342 -0.1658 -0.0096 -0.1848
  493MOL0     H66551  11.886   7.597  11.510 -0.1156 -0.9265  0.1271
  493MOL0     H66552  11.796   7.682  11.387 -0.4495  0.6011  2.3236
  493MOL0     H66553  12.193   7.799  11.317 -0.3489  1.8074  0.6766
  493MOL0     H66554  11.354   7.486  11.322 -2.0663  1.5427 -0.7023
  493MOL0     H66555  11.154   7.506  11.214 -2.0744 -1.5336 -2.5148
  494MOL0     O66556   3.882   2.645   6.362 -0.4086  0.2618  0.0645
  494MOL0     C66557   3.933   2.681   6.464  0.3366 -0.4037  0.7465
  494MOL0     O66558   3.859   2.746   6.559 -0.3095  0.4065  0.7360
  494MOL0     C66559   3.736   2.792   6.521  0.5412 -0.8735 -0.6692
  494MOL0     C66560   3.617   2.720   6.565 -0.3121  0.3716 -0.1023
  494MOL0     C66561   3.496   2.779   6.534  0.1211 -0.7909  0.7481
  494MOL0     C66562   3.487   2.898   6.452  0.9454 -0.9942  0.8433
  494MOL0     O66563   3.375   2.958   6.401  0.2104 -0.7190 -0.8694
  494MOL0     C66564   3.242   2.902   6.426 -0.6602 -0.1338 -0.0325
  494MOL0     C66565   3.149   3.023   6.434 -0.1258 -0.0544  1.0015
  494MOL0     C66566   3.012   2.981   6.482 -0.7750 -0.5196  0.0987
  494MOL0     C66567   2.940   2.900   6.375  0.1748  0.0894 -0.3106
  494MOL0     C66568   2.793   2.872   6.417  0.5154 -0.1786  0.2532
  494MOL0     C66569   2.745   2.758   6.324  1.3570 -0.0989 -0.0340
  494MOL0     C66570   2.610   2.703   6.379  0.1623  0.3259  0.0860
  494MOL0     C66571   2.499   2.813   6.364  0.3819  0.5496  0.8998
  494MOL0     N66572   2.363   2.770   6.397  0.9080  0.2704  0.7156
  494MOL0     C66573   2.290   2.666   6.339  0.2989 -0.0297  0.5423
  494MOL0     C66574   2.167   2.669   6.401 -0.7581  0.4996 -0.4713
  494MOL0     C66575   2.041   2.592   6.375 -0.9006  0.4247  0.2952
  494MOL0     C66576   2.039   2.465   6.461  0.4513 -0.8515  0.8639
  494MOL0     C66577   1.900   2.393   6.438  0.2104 -0.1005 -0.3998
  494MOL0     C66578   1.788   2.465   6.484  0.4167  0.0495  0.6917
  494MOL0     O66579   1.673   2.383   6.485 -0.1008 -0.6338 -0.2105
  494MOL0     C66580   1.564   2.410   6.569 -0.2463 -0.7453 -1.0648
  494MOL0     C66581   1.566   2.459   6.699  1.0202 -0.1865 -0.4517
  494MOL0     C66582   1.447   2.489   6.772 -0.4182 -0.7530  0.5342
  494MOL0     C66583   1.461   2.532   6.911 -0.2928  0.7028  0.2431
  494MOL0     C66584   1.326   2.446   6.717 -0.3225 -0.5984 -0.0593
  494MOL0     C66585   1.195   2.439   6.784 -0.5525 -0.9773 -0.1327
  494MOL0     O66586   1.116   2.334   6.744  0.4915 -0.4832  0.4213
  494MOL0     C66587   0.985   2.343   6.780 -0.1205 -0.2609  0.3794
  494MOL0     C66588   0.899   2.328   6.674  0.5960  0.5041  0.3450
  494MOL0     C66589   0.762   2.306   6.702 -0.0595  0.5360 -0.6327
  494MOL0     C66590   0.710   2.317   6.828  0.4186 -0.2223  0.5766
  494MOL0     O66591   0.582   2.307   6.874  0.0598 -0.0694  0.0477
  494MOL0     C66592   0.474   2.301   6.776 -0.4337 -0.3319 -0.4792
  494MOL0     C66593   0.349   2.291   6.871 -0.0462 -0.1458 -0.0953
  494MOL0     C66594   0.212   2.336   6.817  0.2995 -0.1503  0.8593
  494MOL0     C66595   0.096   2.299   6.907 -0.7515 -0.7053  0.0285
  494MOL0     C66596  -0.046   2.313   6.843  0.0555  0.6380  0.7721
  494MOL0     C66597  -0.066   2.198   6.741  0.8586 -0.2195 -0.4079
  494MOL0     C66598  -0.215   2.176   6.709  0.0368 -0.0050 -0.3287
  494MOL0     C66599  -0.252   2.028   6.685  0.1925  0.2714  0.1576
  494MOL0    Cl66600  -0.428   2.013   6.695  0.2108 -0.4945  0.1800
  494MOL0     C66601   0.804   2.338   6.932 -0.3495  0.3500  0.0590
  494MOL0     C66602   0.946   2.345   6.905  0.0715  0.2050 -1.0169
  494MOL0     O66603   1.164   2.539   6.851 -0.2949  0.0411 -0.0257
  494MOL0     C66604   1.326   2.391   6.590  0.2984  0.5364 -0.4143
  494MOL0     C66605   1.442   2.373   6.518 -0.0958 -0.4582  0.3957
  494MOL0     N66606   2.178   2.752   6.508 -0.3368 -0.5450 -0.3534
  494MOL0     N66607   2.291   2.819   6.501 -0.0284  0.0948  0.1902
  494MOL0     C66608   3.606   2.951   6.404  0.0139  0.5456  0.0888
  494MOL0     C66609   3.732   2.903   6.442 -0.0294  0.1795 -0.0863
  494MOL0     C66610   4.084   2.671   6.481  0.8352  0.1917  0.8484
  494MOL0     C66611   4.143   2.673   6.597 -0.4769  0.6100 -0.3542
  494MOL0     C66612   4.281   2.661   6.610  0.2541  0.1422  0.5679
  494MOL0     C66613   4.359   2.621   6.502  0.2706  0.7744  0.0270
  494MOL0     O66614   4.492   2.605   6.508 -0.1792  0.0194 -0.5484
  494MOL0     C66615   4.569   2.702   6.441  0.7583 -0.4786  0.2074
  494MOL0     C66616   4.569   2.836   6.517  0.1652 -0.1767 -0.2558
  494MOL0     C66617   4.665   2.955   6.477  0.5817  0.2095  0.2003
  494MOL0     C66618   4.812   2.919   6.514 -0.9015  0.0180  0.0465
  494MOL0     C66619   4.918   2.927   6.406 -0.3156  0.8236 -0.3113
  494MOL0     C66620   4.997   2.924   6.318 -0.5576 -0.3902 -1.4594
  494MOL0     C66621   4.298   2.617   6.373 -0.2120  0.7975  0.3109
  494MOL0     C66622   4.159   2.641   6.369  0.0498 -0.2118 -0.0427
  494MOL0     H66623   3.618   2.632   6.629  2.4990 -1.3254 -2.2745
  494MOL0     H66624   3.412   2.732   6.583 -0.0330  0.8253  2.1222
  494MOL0     H66625   3.204   2.832   6.352  0.0310 -1.6398  0.9777
  494MOL0     H66626   3.234   2.855   6.524 -0.6912 -0.4640 -0.1927
  494MOL0     H66627   3.187   3.108   6.491 -0.1424  0.8148 -0.2466
  494MOL0     H66628   3.135   3.063   6.333  2.1926 -1.1938  0.1670
  494MOL0     H66629   3.013   2.927   6.577  0.4702  0.4717  0.6661
  494MOL0     H66630   2.952   3.070   6.501  1.7051  1.4583 -0.8379
  494MOL0     H66631   2.929   2.959   6.284 -0.3870  1.4645  0.6011
  494MOL0     H66632   2.988   2.803   6.365 -1.4958 -0.8480  0.3665
  494MOL0     H66633   2.804   2.844   6.522  2.0625  1.8121  0.6705
  494MOL0     H66634   2.735   2.965   6.414  2.0961  0.8606  0.7195
  494MOL0     H66635   2.733   2.793   6.221 -2.9349 -0.5695  0.1308
  494MOL0     H66636   2.820   2.679   6.331 -0.9250 -2.4570 -0.5908
  494MOL0     H66637   2.588   2.611   6.324 -0.3461  0.1401  0.5812
  494MOL0     H66638   2.614   2.676   6.485 -0.5232  2.0748  0.5943
  494MOL0     H66639   2.512   2.848   6.261  1.9870  2.1405  1.5803
  494MOL0     H66640   2.518   2.900   6.428  1.4959  0.7111  0.3707
  494MOL0     H66641   2.325   2.599   6.261  0.6030  1.8819 -1.0451
  494MOL0     H66642   1.949   2.646   6.401  0.2208  2.3726  0.4668
  494MOL0     H66643   2.024   2.566   6.270 -1.6844 -1.4693  0.8499
  494MOL0     H66644   2.048   2.492   6.567 -2.0368 -3.3978  1.8718
  494MOL0     H66645   2.118   2.397   6.431  1.1131  0.2848 -0.0525
  494MOL0     H66646   1.889   2.300   6.494  2.3743  0.3112  0.8070
  494MOL0     H66647   1.891   2.372   6.331  0.0526 -2.0278 -0.0470
  494MOL0     H66648   1.767   2.549   6.417  1.6821  0.0058  0.2318
  494MOL0     H66649   1.814   2.511   6.580  1.7296  2.2798 -0.6501
  494MOL0     H66650   1.653   2.487   6.759 -1.1951  0.9140  2.4786
  494MOL0     H66651   1.394   2.480   6.979 -1.2621  0.8622 -0.5680
  494MOL0     H66652   1.566   2.516   6.939  0.4710  2.7267 -1.1637
  494MOL0     H66653   1.434   2.637   6.926 -2.2798  0.4868 -1.4357
  494MOL0     H66654   0.926   2.316   6.570 -2.7117  0.9620 -0.6755
  494MOL0     H66655   0.683   2.280   6.632 -1.4415  2.1844  0.2238
  494MOL0     H66656   0.479   2.389   6.712  2.6938  0.9430  1.3217
  494MOL0     H66657   0.483   2.211   6.714  0.5350 -1.0922  0.7238
  494MOL0     H66658   0.345   2.184   6.893  0.3490 -0.2763 -0.6347
  494MOL0     H66659   0.368   2.338   6.968  0.3424  0.3724 -0.4206
  494MOL0     H66660   0.199   2.293   6.717  2.0075  0.0235  0.5280
  494MOL0     H66661   0.209   2.445   6.807  0.2240  0.0066  2.4273
  494MOL0     H66662   0.112   2.192   6.921  2.3835 -0.8034 -2.9563
  494MOL0     H66663   0.098   2.361   6.997  0.6260 -1.3621  0.4899
  494MOL0     H66664  -0.069   2.406   6.791 -0.7686 -1.2538 -2.5072
  494MOL0     H66665  -0.115   2.294   6.926 -1.9272 -0.1542 -0.9651
  494MOL0     H66666  -0.007   2.216   6.651  0.1386  1.3190 -0.5906
  494MOL0     H66667  -0.035   2.107   6.794  2.1607  0.7148  0.4772
  494MOL0     H66668  -0.250   2.234   6.623  0.3561 -1.5553 -1.5442
  494MOL0     H66669  -0.277   2.211   6.793  0.0773 -1.1455  0.2025
  494MOL0     H66670  -0.207   1.960   6.757  0.9541  0.0216 -0.5385
  494MOL0     H66671  -0.242   2.004   6.579 -0.3817 -0.5683  0.2835
  494MOL0     H66672   0.759   2.321   7.030 -2.0109 -2.7514 -1.1114
  494MOL0     H66673   1.016   2.349   6.988 -0.6231 -0.2791 -0.3973
  494MOL0     H66674   1.239   2.357   6.534  0.7763  0.4881 -1.1294
  494MOL0     H66675   1.447   2.335   6.417 -1.8502 -0.2862  0.2044
  494MOL0     H66676   3.588   3.035   6.336 -2.9284 -0.5231 -0.6015
  494MOL0     H66677   3.820   2.950   6.400  0.6252 -0.9484 -0.0089
  494MOL0     H66678   4.095   2.705   6.690 -0.2046 -0.0372  0.0129
  494MOL0     H66679   4.324   2.691   6.705 -1.9298  1.9620  1.0774
  494MOL0     H66680   4.671   2.665   6.427  0.1966 -2.6552  1.3774
  494MOL0     H66681   4.527   2.717   6.341  1.1060 -2.4950 -0.2761
  494MOL0     H66682   4.578   2.816   6.624  0.5814  3.0181  0.4032
  494MOL0     H66683   4.471   2.878   6.496  0.1265  0.2256  0.6796
  494MOL0     H66684   4.641   3.045   6.535 -0.4686  2.5110 -3.4899
  494MOL0     H66685   4.636   2.981   6.375  1.3052  0.0392 -0.0480
  494MOL0     H66686   4.816   2.812   6.539 -1.5802 -0.8233 -3.0269
  494MOL0     H66687   4.842   2.984   6.596  1.8844 -1.4972  0.3475
  494MOL0     H66688   5.077   2.904   6.250  0.3537 -0.8259 -0.2896
  494MOL0     H66689   4.358   2.585   6.288 -2.4787 -0.0608 -1.0494
  494MOL0     H66690   4.121   2.619   6.269  1.4076 -4.4058  0.1806
  495MOL0     O66691   9.354   3.608   2.917  0.5495 -0.3813  0.4994
  495MOL0     C66692   9.398   3.692   2.996  0.3715  0.5680  0.0573
  495MOL0     O66693   9.330   3.795   3.056 -0.8923 -0.2356 -0.8427
  495MOL0     C66694   9.192   3.796   3.045  0.4667 -0.4038 -0.0122
  495MOL0     C66695   9.129   3.909   2.996 -0.6491  0.1224 -0.3896
  495MOL0     C66696   8.987   3.910   2.988  0.0273 -0.3241 -0.3361
  495MOL0     C66697   8.909   3.801   3.037  0.3496  1.1379  0.1167
  495MOL0     O66698   8.769   3.820   3.041  0.2976 -0.0816  0.2259
  495MOL0     C66699   8.685   3.700   3.057  0.0193 -0.4583 -0.5543
  495MOL0     C66700   8.540   3.758   3.041 -0.0194  0.2761  0.2959
  495MOL0     C66701   8.443   3.645   3.056  0.1503  0.2876  0.5313
  495MOL0     C66702   8.313   3.679   2.995 -0.2120 -0.3837 -0.5890
  495MOL0     C66703   8.206   3.573   2.987  0.0248 -0.7491 -0.4548
  495MOL0     C66704   8.083   3.636   2.922 -0.2716 -0.1328  0.9934
  495MOL0     C66705   7.961   3.551   2.955  0.0031 -0.4727  0.3141
  495MOL0     C66706   7.959   3.416   2.900 -0.5307 -0.1119 -0.0221
  495MOL0     N66707   7.830   3.346   2.916  0.8340 -0.0568 -0.5584
  495MOL0     C66708   7.795   3.245   3.010 -1.1635  0.1361  0.2228
  495MOL0     C66709   7.663   3.223   2.986  0.2118 -0.2228 -0.1999
  495MOL0     C66710   7.566   3.142   3.074  0.2903 -0.1146 -0.1176
  495MOL0     C66711   7.597   2.996   3.048  0.8716  0.4967 -0.0056
  495MOL0     C66712   7.510   2.902   3.140 -0.3613 -0.1124  0.1892
  495MOL0     C66713   7.506   2.755   3.093 -0.8880  0.8316  0.2399
  495MOL0     O66714   7.407   2.735   2.991  0.4083 -0.3737 -0.4465
  495MOL0     C66715   7.270   2.748   3.023 -0.0686  0.2882  0.2161
  495MOL0     C66716   7.218   2.756   3.151 -0.2724  0.0713 -0.1259
  495MOL0     C66717   7.084   2.759   3.176  0.5203  0.3127 -0.4375
  495MOL0     C66718   7.063   2.752   3.332 -0.0654 -0.2479  0.9567
  495MOL0     C66719   6.979   2.763   3.081  0.5879 -0.0298 -0.4726
  495MOL0     C66720   6.839   2.781   3.114  0.7376  0.2326 -0.0937
  495MOL0     O66721   6.751   2.749   3.012 -0.2894 -0.1549 -0.1004
  495MOL0     C66722   6.619   2.776   3.044 -0.2027  0.6475  0.6857
  495MOL0     C66723   6.560   2.899   3.009  0.7785 -0.4994 -0.1309
  495MOL0     C66724   6.424   2.916   3.036  0.0988 -0.2586  0.8283
  495MOL0     C66725   6.343   2.822   3.095 -0.0595 -0.6265  0.6800
  495MOL0     O66726   6.211   2.863   3.107 -0.7476  0.0818  0.1022
  495MOL0     C66727   6.112   2.766   3.136 -0.8032 -0.1230  0.7364
  495MOL0     C66728   6.052   2.701   3.006 -0.0137 -0.3594  0.3813
  495MOL0     C66729   5.921   2.771   2.957 -0.7458  0.4533 -0.0767
  495MOL0     C66730   5.892   2.738   2.806  0.1108  0.0530  0.2391
  495MOL0     C66731   5.785   2.824   2.753 -0.4877  0.1114  0.2273
  495MOL0     C66732   5.645   2.787   2.766  0.3958 -0.5847 -0.2397
  495MOL0     C66733   5.554   2.906   2.711 -0.6672 -0.5509  0.4156
  495MOL0     C66734   5.402   2.896   2.748 -0.1356 -0.5302  0.8661
  495MOL0    Cl66735   5.327   3.059   2.718  0.6214 -0.2693 -0.5086
  495MOL0     C66736   6.403   2.700   3.131  0.5986 -0.0061  0.2346
  495MOL0     C66737   6.537   2.679   3.104 -0.3323 -0.6209  0.1358
  495MOL0     O66738   6.810   2.826   3.223 -0.5260  0.1074 -0.0744
  495MOL0     C66739   7.031   2.759   2.951 -0.8361 -0.1884  1.0615
  495MOL0     C66740   7.170   2.749   2.920  0.2646 -0.4602 -0.0398
  495MOL0     N66741   7.624   3.294   2.876  0.2409  0.5269  0.2466
  495MOL0     N66742   7.723   3.362   2.830  0.0407 -0.3353 -0.1456
  495MOL0     C66743   8.977   3.687   3.089  0.0832 -0.0414 -0.3731
  495MOL0     C66744   9.118   3.691   3.088  0.5322 -0.4624  1.6152
  495MOL0     C66745   9.544   3.684   3.025  0.5639 -0.6946  0.2028
  495MOL0     C66746   9.611   3.800   3.074  0.5387  0.1379  0.3785
  495MOL0     C66747   9.746   3.789   3.104  0.1926 -0.1047  0.3537
  495MOL0     C66748   9.827   3.678   3.079  1.4090  0.7198  0.0375
  495MOL0     O66749   9.959   3.679   3.122 -0.1851 -0.1536  0.2800
  495MOL0     C66750  10.060   3.594   3.060  0.0796  0.4117 -0.0951
  495MOL0     C66751  10.113   3.644   2.927  0.4431  0.2938  0.6499
  495MOL0     C66752  10.251   3.615   2.884 -0.3121 -0.0193 -0.7558
  495MOL0     C66753  10.286   3.467   2.914 -0.3783 -0.1861  0.7542
  495MOL0     C66754  10.432   3.446   2.878  0.2486 -0.1181 -0.3700
  495MOL0     C66755  10.548   3.416   2.854 -0.3509 -0.2690  0.2496
  495MOL0     C66756   9.763   3.569   3.022  0.2351 -0.3772  0.2568
  495MOL0     C66757   9.619   3.571   3.011 -0.7415  0.4070 -0.7253
  495MOL0     H66758   9.177   4.005   2.983 -0.3536  0.4180  2.4337
  495MOL0     H66759   8.931   3.989   2.939 -0.7071  0.2391  1.3395
  495MOL0     H66760   8.701   3.626   2.978 -1.3155 -2.4066  0.9135
  495MOL0     H66761   8.709   3.659   3.155  2.0474 -0.2676 -0.9240
  495MOL0     H66762   8.513   3.849   3.096  0.8053 -0.5485  2.1468
  495MOL0     H66763   8.546   3.801   2.941 -2.8076  2.6781  0.9973
  495MOL0     H66764   8.482   3.554   3.009  1.3379  1.0389  0.0292
  495MOL0     H66765   8.429   3.624   3.163  2.2199 -3.0327  0.3163
  495MOL0     H66766   8.275   3.761   3.056  2.1980 -1.9487  3.3775
  495MOL0     H66767   8.328   3.713   2.892 -1.8223 -2.4142 -1.5908
  495MOL0     H66768   8.237   3.490   2.921  0.6875  1.0298 -2.5011
  495MOL0     H66769   8.184   3.544   3.090  0.4421 -0.9075 -0.4091
  495MOL0     H66770   8.068   3.740   2.951  2.7045  1.5759 -2.7697
  495MOL0     H66771   8.088   3.646   2.814 -0.4947  1.6563  1.1161
  495MOL0     H66772   7.946   3.541   3.063  0.3190 -1.0199  0.3088
  495MOL0     H66773   7.875   3.608   2.917 -0.0031 -1.6539 -1.6441
  495MOL0     H66774   8.030   3.350   2.952 -0.8930 -1.3272 -1.0277
  495MOL0     H66775   7.995   3.425   2.797 -1.1467  0.4729 -0.1887
  495MOL0     H66776   7.860   3.212   3.090 -0.9134  1.5833  0.6505
  495MOL0     H66777   7.590   3.161   3.179  3.1537 -2.3280 -0.2625
  495MOL0     H66778   7.463   3.169   3.048  0.9678  1.4750 -1.3792
  495MOL0     H66779   7.702   2.971   3.064  0.8626  0.3532 -0.1638
  495MOL0     H66780   7.570   2.975   2.944 -2.8384  0.5400  0.7979
  495MOL0     H66781   7.406   2.934   3.143  0.0777  1.2836  1.5820
  495MOL0     H66782   7.552   2.908   3.242  1.7775 -1.0661 -0.5718
  495MOL0     H66783   7.490   2.689   3.178 -1.6973  1.0845  0.2884
  495MOL0     H66784   7.608   2.736   3.057 -1.2636  0.4406 -0.6543
  495MOL0     H66785   7.286   2.758   3.236 -0.5962  0.3410  0.1302
  495MOL0     H66786   7.138   2.683   3.373  0.3345  0.1443  0.8894
  495MOL0     H66787   7.081   2.847   3.383  0.6764 -0.3443  0.8866
  495MOL0     H66788   6.966   2.706   3.353 -0.5305  0.0853 -0.3537
  495MOL0     H66789   6.615   2.987   2.977  2.5677 -1.0372  1.3079
  495MOL0     H66790   6.383   3.012   3.006 -0.5913 -1.5936 -2.9948
  495MOL0     H66791   6.156   2.694   3.207 -2.0589 -1.7503 -0.0614
  495MOL0     H66792   6.024   2.811   3.183 -1.7331 -0.8335 -0.2678
  495MOL0     H66793   6.132   2.709   2.932  2.2343 -1.0873  2.6054
  495MOL0     H66794   6.039   2.593   3.007 -0.5740 -0.3121 -0.5883
  495MOL0     H66795   5.928   2.880   2.966  1.7956  0.4352 -1.0096
  495MOL0     H66796   5.840   2.748   3.026  0.1598  3.8172  2.3665
  495MOL0     H66797   5.988   2.746   2.753  1.5060  0.0823  2.6458
  495MOL0     H66798   5.857   2.634   2.800  1.8565 -0.5045 -1.3173
  495MOL0     H66799   5.802   2.827   2.645  0.4911 -2.2883  0.2539
  495MOL0     H66800   5.801   2.929   2.781  1.3600 -0.3829  1.2374
  495MOL0     H66801   5.622   2.692   2.718 -1.3160  0.0577 -0.7671
  495MOL0     H66802   5.623   2.765   2.871  0.0219 -2.1009 -0.6142
  495MOL0     H66803   5.560   2.893   2.603 -3.7671  3.7251 -0.5559
  495MOL0     H66804   5.592   3.006   2.735  2.1059 -1.5908  0.6612
  495MOL0     H66805   5.392   2.857   2.850  0.3613 -6.0077 -0.8386
  495MOL0     H66806   5.349   2.820   2.690  1.7536  1.4663 -3.9503
  495MOL0     H66807   6.346   2.612   3.159 -2.9116  2.6159  2.1281
  495MOL0     H66808   6.581   2.580   3.115  0.1467 -0.3842  0.3551
  495MOL0     H66809   6.970   2.769   2.862 -0.3014 -0.7031  0.6298
  495MOL0     H66810   7.190   2.745   2.813 -0.6936  2.9851 -0.4585
  495MOL0     H66811   8.916   3.609   3.132 -2.2596  2.6036  1.4606
  495MOL0     H66812   9.161   3.609   3.143 -1.3517 -1.2359  2.0184
  495MOL0     H66813   9.559   3.893   3.094  0.0118  0.3790 -1.8285
  495MOL0     H66814   9.778   3.872   3.166 -1.0308  1.6190 -1.2144
  495MOL0     H66815  10.131   3.586   3.144 -2.4961 -1.9278  2.0832
  495MOL0     H66816  10.023   3.493   3.041  0.2363  0.6727 -1.9246
  495MOL0     H66817  10.112   3.753   2.925 -0.9646  0.3148 -1.4561
  495MOL0     H66818  10.041   3.607   2.852  0.6348 -0.1388  0.6760
  495MOL0     H66819  10.324   3.673   2.942 -0.1955 -0.4558 -0.4525
  495MOL0     H66820  10.266   3.642   2.779 -1.7140 -2.2341 -1.5867
  495MOL0     H66821  10.224   3.413   2.843  0.5103 -0.5692  0.2484
  495MOL0     H66822  10.262   3.436   3.016  0.9321  1.4726  1.6430
  495MOL0     H66823  10.647   3.379   2.840 -0.6049 -0.5243 -1.0028
  495MOL0     H66824   9.828   3.486   2.996  0.3623 -0.0224 -0.5972
  495MOL0     H66825   9.571   3.479   2.977  0.6052 -0.2457 -0.9213
  496MOL0     O66826   3.044   4.144  10.868  0.0461 -0.7651  1.0176
  496MOL0     C66827   3.045   4.253  10.928 -0.0112  0.5519  0.2947
  496MOL0     O66828   2.950   4.290  11.011  0.1792  0.0178 -0.7754
  496MOL0     C66829   2.849   4.201  11.039 -0.3039 -0.1347 -0.0414
  496MOL0     C66830   2.873   4.072  11.088 -0.6810  0.7549  0.1928
  496MOL0     C66831   2.769   3.991  11.131 -0.3605 -0.3391 -0.4174
  496MOL0     C66832   2.638   4.027  11.120  0.0542  0.1545  0.0273
  496MOL0     O66833   2.538   3.937  11.139 -0.7195  0.4008  0.6521
  496MOL0     C66834   2.418   3.995  11.186 -0.9471  0.5470 -0.0791
  496MOL0     C66835   2.337   3.886  11.258 -0.1969 -0.5737  0.4505
  496MOL0     C66836   2.194   3.948  11.275 -0.8229 -0.1204  0.0786
  496MOL0     C66837   2.104   3.868  11.363 -0.4084  0.8547 -0.7505
  496MOL0     C66838   1.958   3.902  11.342  0.6010 -0.3959  0.8260
  496MOL0     C66839   1.918   4.026  11.424  0.1525 -0.2410 -1.6356
  496MOL0     C66840   1.768   4.037  11.441 -0.6634  0.1135  0.4510
  496MOL0     C66841   1.726   4.175  11.507  0.6033  0.8062 -0.2846
  496MOL0     N66842   1.584   4.158  11.546  0.6194  0.2804  0.0142
  496MOL0     C66843   1.547   4.089  11.658 -0.7950  0.9916  0.6684
  496MOL0     C66844   1.411   4.105  11.651 -0.3023 -0.0930  0.2994
  496MOL0     C66845   1.309   4.035  11.733  0.0639 -0.0999  0.6702
  496MOL0     C66846   1.220   3.932  11.669 -0.2803  0.2634  0.1345
  496MOL0     C66847   1.123   3.869  11.769  0.7845  1.0645  0.0832
  496MOL0     C66848   0.976   3.923  11.759 -0.2870 -0.3155  0.5542
  496MOL0     O66849   0.915   3.887  11.633  0.8622 -0.5545 -0.6549
  496MOL0     C66850   0.776   3.901  11.616 -0.4106 -0.0943 -0.7708
  496MOL0     C66851   0.732   3.838  11.504  1.2235 -0.7259 -0.8061
  496MOL0     C66852   0.590   3.831  11.482 -0.2701  0.4355 -0.0193
  496MOL0     C66853   0.548   3.746  11.359 -0.8097 -0.1203  0.0003
  496MOL0     C66854   0.508   3.895  11.572  1.1786 -0.6601  0.0197
  496MOL0     C66855   0.357   3.896  11.549 -0.3409 -0.3795 -0.6482
  496MOL0     O66856   0.295   3.822  11.454  1.1797  0.4233  0.5855
  496MOL0     C66857   0.168   3.853  11.424 -0.6185 -0.6663 -0.5477
  496MOL0     C66858   0.134   3.917  11.307  0.0259  0.5570  0.0230
  496MOL0     C66859  -0.003   3.945  11.282  0.5411 -0.0079 -0.3847
  496MOL0     C66860  -0.109   3.920  11.375 -0.5906 -0.2086 -0.4969
  496MOL0     O66861  -0.238   3.951  11.350  0.1703 -0.2341  0.1469
  496MOL0     C66862  -0.324   3.999  11.455  0.0505  0.3068 -1.0164
  496MOL0     C66863  -0.474   3.997  11.406 -0.3879 -0.0292  0.1667
  496MOL0     C66864  -0.561   4.070  11.506 -0.8089 -0.1328  0.0146
  496MOL0     C66865  -0.707   4.078  11.457  0.4830  0.2835 -0.6576
  496MOL0     C66866  -0.796   3.964  11.513 -0.2064 -0.1081 -0.3151
  496MOL0     C66867  -0.780   3.836  11.434 -0.5272  0.5401 -0.1094
  496MOL0     C66868  -0.898   3.736  11.475 -0.1478 -0.0618 -0.2188
  496MOL0     C66869  -0.883   3.601  11.414  0.7642  0.0678  0.7674
  496MOL0    Cl66870  -0.730   3.536  11.473  0.0187 -0.0790 -0.0690
  496MOL0     C66871  -0.067   3.841  11.486  0.2354  0.1823 -0.1046
  496MOL0     C66872   0.069   3.816  11.512 -0.6733 -0.0893 -1.0662
  496MOL0     O66873   0.302   3.970  11.633  0.7780  0.4096 -0.0771
  496MOL0     C66874   0.562   3.969  11.682  1.1121 -0.7406  0.1192
  496MOL0     C66875   0.693   3.972  11.710  0.7415  0.3545  0.6496
  496MOL0     N66876   1.376   4.180  11.541  0.3966 -0.9720 -0.8151
  496MOL0     N66877   1.480   4.213  11.485  0.7916 -0.3434  0.1650
  496MOL0     C66878   2.608   4.154  11.064 -0.0332 -0.2025 -0.8840
  496MOL0     C66879   2.718   4.231  11.021 -0.4974 -1.8124 -0.6219
  496MOL0     C66880   3.164   4.342  10.900 -0.3065  0.6563 -0.6250
  496MOL0     C66881   3.178   4.454  10.992  0.0337 -0.5099 -0.8234
  496MOL0     C66882   3.291   4.538  10.974 -0.0421 -0.6809  0.3821
  496MOL0     C66883   3.390   4.515  10.882 -0.6913 -0.0135  0.5724
  496MOL0     O66884   3.499   4.596  10.882  0.2587 -0.6086  0.4841
  496MOL0     C66885   3.618   4.536  10.851  0.0584 -0.2088  0.1628
  496MOL0     C66886   3.752   4.590  10.921 -0.3056 -0.0801 -0.0617
  496MOL0     C66887   3.820   4.709  10.854  0.3171 -0.9516  0.0944
  496MOL0     C66888   3.743   4.835  10.869 -0.4901 -0.5855  0.4965
  496MOL0     C66889   3.821   4.954  10.827  0.5725 -0.4019 -0.1384
  496MOL0     C66890   3.877   5.062  10.809 -0.6341 -1.1408  1.0431
  496MOL0     C66891   3.372   4.406  10.796  0.4129  0.0489  0.2393
  496MOL0     C66892   3.258   4.322  10.801 -0.1763  0.5107 -0.2016
  496MOL0     H66893   2.975   4.042  11.108 -1.1061 -0.5255  0.5170
  496MOL0     H66894   2.789   3.891  11.168  2.1613  0.3224  0.2154
  496MOL0     H66895   2.438   4.083  11.248 -1.4119  1.2913 -0.9467
  496MOL0     H66896   2.358   4.032  11.102 -1.6373 -1.4868 -0.5414
  496MOL0     H66897   2.341   3.795  11.197 -1.2619  0.4578 -1.2380
  496MOL0     H66898   2.394   3.868  11.350  3.6442  1.6173 -1.2609
  496MOL0     H66899   2.200   4.052  11.310 -0.3300 -0.1078 -0.0398
  496MOL0     H66900   2.152   3.954  11.174 -0.9248  0.9728  0.1728
  496MOL0     H66901   2.120   3.762  11.340 -1.5858  0.4510  0.2205
  496MOL0     H66902   2.126   3.883  11.469 -1.9853  0.5679 -0.3649
  496MOL0     H66903   1.941   3.905  11.234  2.1794 -2.6734  0.4414
  496MOL0     H66904   1.902   3.817  11.382  0.9165  0.1519  2.5379
  496MOL0     H66905   1.955   4.032  11.526  0.2207  3.2420 -1.7299
  496MOL0     H66906   1.963   4.113  11.375  3.5692 -0.2370  1.1582
  496MOL0     H66907   1.721   4.010  11.346  0.0124 -0.2408  0.2122
  496MOL0     H66908   1.746   3.946  11.498  1.1300 -0.2375  0.6294
  496MOL0     H66909   1.734   4.248  11.426 -0.1826  2.7310  1.2898
  496MOL0     H66910   1.783   4.208  11.595 -0.6666  0.1742  0.8057
  496MOL0     H66911   1.605   4.024  11.723 -2.0826 -2.3077 -1.2134
  496MOL0     H66912   1.359   3.983  11.815  2.2150 -1.4283 -1.3671
  496MOL0     H66913   1.251   4.114  11.782 -1.6518 -0.6522 -0.3818
  496MOL0     H66914   1.282   3.854  11.624 -2.2808  0.1571 -2.7627
  496MOL0     H66915   1.162   3.978  11.588 -0.8999  0.1897  0.5275
  496MOL0     H66916   1.154   3.875  11.873 -2.7113 -1.0363  1.4115
  496MOL0     H66917   1.128   3.762  11.747  1.9724  0.9928  0.6418
  496MOL0     H66918   0.982   4.032  11.763 -0.9478 -0.2810  0.6759
  496MOL0     H66919   0.914   3.896  11.844 -0.8105  0.8465  0.5624
  496MOL0     H66920   0.800   3.791  11.435  0.8526  2.4617 -3.6322
  496MOL0     H66921   0.487   3.807  11.292 -2.2089 -0.3210  1.0398
  496MOL0     H66922   0.631   3.706  11.300  0.2399 -1.2511  2.1477
  496MOL0     H66923   0.497   3.650  11.374  1.4953 -1.3968  0.1388
  496MOL0     H66924   0.209   3.936  11.231 -0.4877  0.6189 -0.4766
  496MOL0     H66925  -0.029   3.989  11.186  0.8334 -0.6950 -0.7822
  496MOL0     H66926  -0.320   3.933  11.543 -2.0523  0.7461 -0.5271
  496MOL0     H66927  -0.295   4.099  11.489  2.1799 -1.2919  2.5054
  496MOL0     H66928  -0.494   4.037  11.306  0.1309  1.6702  0.7223
  496MOL0     H66929  -0.497   3.890  11.399 -0.6605  0.0258  0.2121
  496MOL0     H66930  -0.540   4.177  11.514 -0.9425 -0.1559  0.8516
  496MOL0     H66931  -0.547   4.024  11.605  1.9271 -1.5514 -0.9377
  496MOL0     H66932  -0.749   4.165  11.508  1.5792  1.9602 -2.4705
  496MOL0     H66933  -0.723   4.088  11.350 -1.1511  1.5712 -0.3321
  496MOL0     H66934  -0.902   3.988  11.521 -0.1356  1.0639 -2.3239
  496MOL0     H66935  -0.761   3.933  11.612  0.5507  0.8920 -0.2556
  496MOL0     H66936  -0.793   3.859  11.328  0.9090 -2.2994 -0.9947
  496MOL0     H66937  -0.682   3.789  11.443 -0.3978  1.0432  1.3492
  496MOL0     H66938  -0.993   3.778  11.442  0.2029  0.7844 -0.1711
  496MOL0     H66939  -0.907   3.734  11.584  1.4377 -0.4715 -0.0644
  496MOL0     H66940  -0.868   3.606  11.306  1.0406 -0.2460  0.7884
  496MOL0     H66941  -0.965   3.530  11.426 -1.1934  2.2158  0.8729
  496MOL0     H66942  -0.141   3.789  11.545 -0.6422  1.0283 -0.4253
  496MOL0     H66943   0.102   3.744  11.586  0.4552  0.7022 -0.7667
  496MOL0     H66944   0.506   4.025  11.756  2.5326  2.4308 -1.0037
  496MOL0     H66945   0.737   4.021  11.796  2.4207 -0.5577  0.3604
  496MOL0     H66946   2.502   4.175  11.050 -0.4693 -2.1731 -0.7885
  496MOL0     H66947   2.684   4.327  10.985 -0.2504 -0.7925  1.6928
  496MOL0     H66948   3.101   4.464  11.068 -1.8553  1.0179 -2.8289
  496MOL0     H66949   3.298   4.621  11.045 -0.6214 -0.0733 -0.2560
  496MOL0     H66950   3.617   4.429  10.873 -0.5350 -0.3699 -0.6088
  496MOL0     H66951   3.639   4.550  10.745  1.0307  0.4330  0.4313
  496MOL0     H66952   3.828   4.512  10.909 -0.3937 -0.2419  0.4349
  496MOL0     H66953   3.729   4.597  11.028  1.9832 -0.2420  0.4957
  496MOL0     H66954   3.838   4.700  10.747 -0.2049  0.6212 -0.1457
  496MOL0     H66955   3.919   4.727  10.895  0.5884  2.1225 -1.6382
  496MOL0     H66956   3.701   4.840  10.970  0.8455 -1.3174  1.1142
  496MOL0     H66957   3.670   4.838  10.788  0.8595 -0.0561 -0.7316
  496MOL0     H66958   3.922   5.159  10.802 -3.8535  0.5584  1.8826
  496MOL0     H66959   3.442   4.384  10.716 -1.0291  1.6726 -1.5968
  496MOL0     H66960   3.249   4.245  10.725  1.9349  0.2939 -0.3152
  497MOL0     O66961   3.435   8.125   4.237 -0.5572 -0.5598 -0.2861
  497MOL0     C66962   3.481   8.009   4.255  0.2770 -0.1588 -0.1050
  497MOL0     O66963   3.408   7.896   4.289  0.2834 -0.3442  0.3750
  497MOL0     C66964   3.269   7.896   4.278 -0.5832 -0.2044 -0.2347
  497MOL0     C66965   3.193   7.816   4.356  0.4348  0.7312  0.2752
  497MOL0     C66966   3.055   7.799   4.336  0.9320 -0.4795  0.1454
  497MOL0     C66967   2.995   7.854   4.222 -0.3966 -0.5925 -0.0316
  497MOL0     O66968   2.864   7.823   4.209 -0.2846  0.4702 -1.0597
  497MOL0     C66969   2.787   7.873   4.106  0.1547 -0.5368  0.3604
  497MOL0     C66970   2.660   7.792   4.099  0.0920  0.0497 -0.1469
  497MOL0     C66971   2.567   7.844   3.987  0.3664  0.0926 -0.1109
  497MOL0     C66972   2.461   7.744   3.953 -0.5460 -0.5034 -0.5940
  497MOL0     C66973   2.392   7.789   3.828  0.4336 -0.5924  0.0769
  497MOL0     C66974   2.275   7.693   3.785 -0.1384  0.3205  0.1534
  497MOL0     C66975   2.189   7.752   3.673 -0.1875 -0.8209  1.3236
  497MOL0     C66976   2.047   7.686   3.665 -0.1975 -0.7313  0.5385
  497MOL0     N66977   1.942   7.769   3.599 -0.2750  0.0329 -0.3400
  497MOL0     C66978   1.850   7.721   3.502  0.0038 -0.1378  0.0348
  497MOL0     C66979   1.753   7.815   3.496 -0.9013 -0.2416 -0.1677
  497MOL0     C66980   1.623   7.816   3.418 -0.4004  0.1644  0.0556
  497MOL0     C66981   1.553   7.681   3.433  0.7965  0.3236  0.7863
  497MOL0     C66982   1.402   7.692   3.411  0.1211  0.7120 -0.4038
  497MOL0     C66983   1.349   7.741   3.541  0.3556  0.8677  0.2064
  497MOL0     O66984   1.207   7.711   3.551  1.0654 -0.2115  1.0935
  497MOL0     C66985   1.127   7.745   3.654  0.0057  0.3032  0.6661
  497MOL0     C66986   0.995   7.731   3.634  0.5205 -0.2691  0.7738
  497MOL0     C66987   0.901   7.764   3.731  0.8950 -0.6382 -0.6155
  497MOL0     C66988   0.759   7.724   3.705 -0.2425  0.2891 -0.1417
  497MOL0     C66989   0.941   7.820   3.861  0.5390  0.2423 -0.4117
  497MOL0     C66990   0.858   7.862   3.975  0.5554  0.1957 -0.2721
  497MOL0     O66991   0.727   7.823   3.980  0.2484  0.3792  0.4119
  497MOL0     C66992   0.672   7.820   4.105 -0.1879  0.4845 -0.0357
  497MOL0     C66993   0.725   7.763   4.213  0.2032  0.5153  0.1353
  497MOL0     C66994   0.663   7.766   4.337 -0.3558 -0.0761  0.2147
  497MOL0     C66995   0.538   7.825   4.355 -0.4993  0.0540 -0.1038
  497MOL0     O66996   0.476   7.834   4.478 -0.3419 -0.3942  0.9222
  497MOL0     C66997   0.513   7.746   4.584 -0.3150  0.4062 -0.6279
  497MOL0     C66998   0.391   7.697   4.659  0.5943  1.2579 -0.6518
  497MOL0     C66999   0.293   7.812   4.701 -0.0016  0.2310  0.1662
  497MOL0     C67000   0.179   7.753   4.778  0.4093 -0.4151  0.5894
  497MOL0     C67001   0.073   7.850   4.828  0.2341 -0.5664  1.0418
  497MOL0     C67002  -0.037   7.773   4.898  0.0739 -0.0928  0.0673
  497MOL0     C67003  -0.146   7.875   4.911  0.8235 -0.8517  0.6368
  497MOL0     C67004  -0.239   7.836   5.021  0.7423  0.4889  0.1764
  497MOL0    Cl67005  -0.406   7.900   4.985  0.4772  0.4689 -0.1210
  497MOL0     C67006   0.479   7.886   4.244  0.5606 -0.0973 -0.6093
  497MOL0     C67007   0.549   7.889   4.124 -0.8721  0.3187 -0.1564
  497MOL0     O67008   0.912   7.945   4.061 -0.5103 -0.0914  0.5897
  497MOL0     C67009   1.081   7.845   3.872  0.4400 -0.1454  0.5045
  497MOL0     C67010   1.174   7.805   3.773 -0.8445  0.2558  0.8595
  497MOL0     N67011   1.800   7.926   3.563 -0.6840 -0.3492 -0.4757
  497MOL0     N67012   1.904   7.894   3.635 -0.0889 -0.5268  0.7385
  497MOL0     C67013   3.073   7.930   4.137  0.1568  0.0408 -0.7139
  497MOL0     C67014   3.206   7.952   4.169  0.6040 -0.1985 -0.2070
  497MOL0     C67015   3.625   8.013   4.295  0.2248 -0.2713  0.4792
  497MOL0     C67016   3.702   8.124   4.259 -0.0322  0.1494  0.1130
  497MOL0     C67017   3.831   8.131   4.297  0.1426 -0.4413 -0.5253
  497MOL0     C67018   3.897   8.033   4.369  0.0994 -0.3436 -0.4691
  497MOL0     O67019   4.033   8.060   4.400  0.6528 -0.2498 -0.2123
  497MOL0     C67020   4.112   7.945   4.427  0.1800  0.2207 -0.7226
  497MOL0     C67021   4.259   7.975   4.406  0.6457  0.0777 -0.4792
  497MOL0     C67022   4.305   8.062   4.527 -0.6805 -0.3653 -0.4952
  497MOL0     C67023   4.441   8.111   4.509 -0.5778  0.6074 -0.3273
  497MOL0     C67024   4.535   7.994   4.508  0.1483  0.1279  0.3717
  497MOL0     C67025   4.590   7.885   4.521 -0.0465 -0.1255  0.3991
  497MOL0     C67026   3.822   7.924   4.410  0.6448  0.0471 -0.7030
  497MOL0     C67027   3.686   7.908   4.372  0.1299  0.9842  0.3314
  497MOL0     H67028   3.241   7.780   4.447  3.4664 -0.0846 -1.5279
  497MOL0     H67029   3.001   7.728   4.398  1.9004 -1.6021 -0.2417
  497MOL0     H67030   2.770   7.979   4.126  1.1552 -0.8363  3.2937
  497MOL0     H67031   2.842   7.874   4.011  0.6712  0.7826  0.6641
  497MOL0     H67032   2.679   7.687   4.076 -1.5588 -0.0554 -1.2568
  497MOL0     H67033   2.620   7.785   4.200 -0.2805 -0.8519 -0.3419
  497MOL0     H67034   2.533   7.940   4.027 -2.2736 -0.7660 -0.0567
  497MOL0     H67035   2.628   7.861   3.898  0.6521  0.0089  0.0706
  497MOL0     H67036   2.510   7.648   3.935 -2.8145 -1.5690 -1.5160
  497MOL0     H67037   2.394   7.733   4.039  0.0288  1.5062  0.1613
  497MOL0     H67038   2.339   7.884   3.836  1.6688  0.4064 -2.5495
  497MOL0     H67039   2.462   7.804   3.746  1.6814  0.0759  1.2165
  497MOL0     H67040   2.323   7.597   3.765 -1.3210 -0.3088  0.2241
  497MOL0     H67041   2.206   7.681   3.869  0.3279 -2.9205  0.1832
  497MOL0     H67042   2.176   7.861   3.677 -1.2627 -0.9695  3.9244
  497MOL0     H67043   2.246   7.742   3.581 -0.1520  0.4248  1.1838
  497MOL0     H67044   2.024   7.637   3.760  2.1841  0.0155  1.5870
  497MOL0     H67045   2.059   7.606   3.591 -0.3117 -0.7145  0.5025
  497MOL0     H67046   1.839   7.625   3.454 -2.7460 -0.0719  0.3734
  497MOL0     H67047   1.560   7.894   3.461  0.1501  0.4540  0.3518
  497MOL0     H67048   1.641   7.842   3.313  0.4832  0.3663  0.2440
  497MOL0     H67049   1.575   7.649   3.535 -0.6922  2.8137  1.9878
  497MOL0     H67050   1.598   7.611   3.362 -0.5810 -0.1324  0.3487
  497MOL0     H67051   1.356   7.596   3.385  4.8162 -1.4308 -1.8322
  497MOL0     H67052   1.382   7.772   3.339  1.1418  1.2992 -0.0543
  497MOL0     H67053   1.362   7.850   3.543  0.4969  0.8654 -0.5495
  497MOL0     H67054   1.406   7.690   3.619  0.1908  0.0771 -0.1834
  497MOL0     H67055   0.961   7.697   3.537  0.6444  0.0997  0.6006
  497MOL0     H67056   0.693   7.810   3.718 -0.8123 -0.0671 -0.6432
  497MOL0     H67057   0.740   7.676   3.608 -2.3557 -1.6773  1.1319
  497MOL0     H67058   0.727   7.652   3.780 -2.3484  1.9923  0.7082
  497MOL0     H67059   0.827   7.727   4.208 -0.2049 -0.6873  0.0408
  497MOL0     H67060   0.717   7.719   4.419 -1.0280  1.7334  1.7739
  497MOL0     H67061   0.574   7.661   4.552  0.7748  0.8059  0.3606
  497MOL0     H67062   0.572   7.802   4.657 -0.6427  0.4558 -0.3988
  497MOL0     H67063   0.332   7.622   4.606 -1.8598  1.8925  1.0273
  497MOL0     H67064   0.439   7.649   4.745  1.2301 -0.5250 -1.9364
  497MOL0     H67065   0.265   7.874   4.615  0.3144 -1.2948 -1.0858
  497MOL0     H67066   0.344   7.884   4.764 -0.3575  0.7131 -0.0885
  497MOL0     H67067   0.133   7.677   4.714  0.6466 -1.4852  1.6487
  497MOL0     H67068   0.202   7.694   4.867  0.4045  0.4905  1.2067
  497MOL0     H67069   0.017   7.891   4.743 -1.2180 -0.6795  1.9004
  497MOL0     H67070   0.121   7.928   4.887  3.1281 -0.2793 -1.4433
  497MOL0     H67071  -0.063   7.685   4.838 -2.6621  0.5522  0.2157
  497MOL0     H67072   0.010   7.754   4.995  2.0006  2.3329 -0.3012
  497MOL0     H67073  -0.202   7.889   4.818  0.7901 -1.3108  0.5887
  497MOL0     H67074  -0.107   7.974   4.938  1.7210 -1.0090 -0.0456
  497MOL0     H67075  -0.186   7.875   5.108  3.4179  1.4750 -1.7896
  497MOL0     H67076  -0.239   7.726   5.025 -0.0565  0.4229 -1.1851
  497MOL0     H67077   0.384   7.937   4.256 -0.3676 -2.1562  1.8038
  497MOL0     H67078   0.497   7.934   4.040 -0.7836  1.7850  0.5347
  497MOL0     H67079   1.121   7.891   3.962 -0.5471  0.8459  0.4620
  497MOL0     H67080   1.280   7.827   3.778 -0.5416 -1.2377  1.6019
  497MOL0     H67081   3.041   7.995   4.057  0.4964  2.0296  0.6974
  497MOL0     H67082   3.264   7.994   4.087 -0.7583  0.0771 -1.0561
  497MOL0     H67083   3.672   8.208   4.197  2.9358  0.2703 -1.3287
  497MOL0     H67084   3.873   8.230   4.279 -2.4392  0.9822  0.6526
  497MOL0     H67085   4.093   7.900   4.525 -0.2129  2.3055  0.2268
  497MOL0     H67086   4.084   7.866   4.357 -3.5592  1.2069 -0.5443
  497MOL0     H67087   4.259   8.033   4.313 -2.8914  0.2174 -0.5248
  497MOL0     H67088   4.316   7.882   4.396  2.3136  0.9165  0.6719
  497MOL0     H67089   4.291   8.006   4.620 -0.4787 -1.1110 -0.9064
  497MOL0     H67090   4.245   8.153   4.527 -0.3766 -0.1635 -0.8590
  497MOL0     H67091   4.452   8.182   4.592  0.2216  0.7832 -0.5778
  497MOL0     H67092   4.454   8.162   4.413  0.9962  3.0722  1.0888
  497MOL0     H67093   4.654   7.799   4.528  0.2302  0.1560  1.4779
  497MOL0     H67094   3.860   7.845   4.473  0.1878  1.0642  0.8934
  497MOL0     H67095   3.622   7.823   4.395  0.3571  0.9719  0.9392
  498MOL0     O67096   2.805   0.800  10.116  0.4387 -0.6053  0.3608
  498MOL0     C67097   2.867   0.905  10.137  0.5309 -0.3953 -0.1795
  498MOL0     O67098   2.814   1.028  10.127 -0.1785  0.0003  0.1214
  498MOL0     C67099   2.677   1.058  10.104  0.0080  0.7423 -1.2058
  498MOL0     C67100   2.571   0.995  10.166  0.4516 -0.9555 -0.2785
  498MOL0     C67101   2.441   1.038  10.145 -0.4011 -0.4399 -0.6499
  498MOL0     C67102   2.413   1.153  10.071  0.2779  0.5397 -1.5013
  498MOL0     O67103   2.289   1.213  10.055  0.3170  0.1069  0.1626
  498MOL0     C67104   2.169   1.141  10.058  0.4423  0.4341 -0.9099
  498MOL0     C67105   2.057   1.240  10.037 -0.1151  0.3451 -0.2827
  498MOL0     C67106   2.089   1.337   9.920  0.6995  0.3492  0.0066
  498MOL0     C67107   2.088   1.275   9.781 -0.4184 -0.8201  1.0226
  498MOL0     C67108   2.147   1.373   9.676  0.0224  0.3992  0.1563
  498MOL0     C67109   2.287   1.322   9.630 -0.1161 -0.6629 -0.4573
  498MOL0     C67110   2.350   1.421   9.525  0.5534 -0.5457 -0.6572
  498MOL0     C67111   2.466   1.358   9.447 -0.2775  0.1888 -0.8700
  498MOL0     N67112   2.594   1.348   9.517  0.1918  0.3255 -0.3195
  498MOL0     C67113   2.632   1.407   9.636 -0.2859 -0.3022 -0.7324
  498MOL0     C67114   2.767   1.373   9.650  0.4841  0.9247  0.2270
  498MOL0     C67115   2.856   1.405   9.762  0.3261  0.2478  0.0346
  498MOL0     C67116   3.005   1.367   9.749  0.0124  0.3561 -0.3790
  498MOL0     C67117   3.051   1.218   9.778  0.5259 -0.7776 -0.0129
  498MOL0     C67118   3.201   1.210   9.796  0.0994  0.4378  0.1030
  498MOL0     O67119   3.234   1.066   9.817  0.4143 -0.3753  0.8722
  498MOL0     C67120   3.365   1.045   9.858 -0.0486  0.4932  0.1910
  498MOL0     C67121   3.398   0.914   9.911 -0.3369 -0.7203 -0.2343
  498MOL0     C67122   3.528   0.872   9.947  0.1947 -0.4639  0.9016
  498MOL0     C67123   3.559   0.728   9.996  0.2529 -0.2121  0.0631
  498MOL0     C67124   3.635   0.975   9.944  0.3601 -0.0683  0.4777
  498MOL0     C67125   3.768   0.956   9.999  0.4897  0.3623  0.0446
  498MOL0     O67126   3.842   1.068  10.035  0.5009 -0.5374 -0.0687
  498MOL0     C67127   3.969   1.055  10.091 -0.0866 -0.3167 -0.3614
  498MOL0     C67128   4.003   0.957  10.188 -0.9945 -0.7824  0.2060
  498MOL0     C67129   4.128   0.955  10.249  0.3807 -0.6378 -0.5438
  498MOL0     C67130   4.229   1.049  10.212 -0.3638 -0.2229 -0.1251
  498MOL0     O67131   4.350   1.033  10.276 -0.1032  0.4552  0.4669
  498MOL0     C67132   4.459   1.094  10.212  0.0365 -0.4233  0.2350
  498MOL0     C67133   4.594   1.085  10.294  0.8081  0.1114  0.3076
  498MOL0     C67134   4.703   1.165  10.220  0.2195 -0.4803  0.0243
  498MOL0     C67135   4.829   1.125  10.286 -1.5627 -0.1745 -0.2758
  498MOL0     C67136   4.946   1.169  10.195 -1.5096 -0.7089 -0.7353
  498MOL0     C67137   4.959   1.328  10.178 -0.2300 -0.0524 -0.1416
  498MOL0     C67138   5.058   1.379  10.076 -0.3027  0.1844  0.4617
  498MOL0     C67139   5.188   1.380  10.154 -0.3657 -0.1068  0.1800
  498MOL0    Cl67140   5.270   1.226  10.144 -0.2655  0.0070  0.0347
  498MOL0     C67141   4.190   1.149  10.127 -0.6373 -0.1922 -0.0640
  498MOL0     C67142   4.063   1.149  10.065 -0.3683  0.8444  0.9753
  498MOL0     O67143   3.825   0.846   9.985 -0.1405  0.3191 -0.1940
  498MOL0     C67144   3.598   1.104   9.890 -0.8740  0.6845 -1.0848
  498MOL0     C67145   3.468   1.138   9.852  0.6003 -0.3579 -0.1422
  498MOL0     N67146   2.800   1.294   9.543  0.0314 -0.0306 -0.4730
  498MOL0     N67147   2.700   1.278   9.465 -0.0804  0.6530  0.1987
  498MOL0     C67148   2.519   1.219  10.014  0.4175  0.3732  0.2204
  498MOL0     C67149   2.648   1.171  10.026 -0.2209  0.3281  0.7192
  498MOL0     C67150   3.008   0.894  10.171 -0.3706  0.2904  0.3806
  498MOL0     C67151   3.081   1.010  10.216 -0.5308  0.3243 -0.5871
  498MOL0     C67152   3.216   0.999  10.243 -0.4960  0.5696  0.4369
  498MOL0     C67153   3.288   0.880  10.227  0.8724  0.2984 -0.0154
  498MOL0     O67154   3.417   0.869  10.278 -0.3141 -0.2253 -0.0893
  498MOL0     C67155   3.493   0.989  10.298 -0.2609 -0.0090  0.5063
  498MOL0     C67156   3.627   0.966  10.338  0.4515  0.3788 -0.2620
  498MOL0     C67157   3.629   0.937  10.490 -0.1022  0.8246  0.8889
  498MOL0     C67158   3.771   0.926  10.530 -0.9349  0.0054 -0.8377
  498MOL0     C67159   3.785   0.879  10.670  0.1127  0.3593 -0.6333
  498MOL0     C67160   3.793   0.843  10.782  0.5304  0.2067 -0.3778
  498MOL0     C67161   3.211   0.763  10.187  0.1688  1.3242 -0.2532
  498MOL0     C67162   3.079   0.770  10.146  0.3481 -0.6098 -0.3442
  498MOL0     H67163   2.583   0.909  10.232 -2.5449  0.0629  1.7953
  498MOL0     H67164   2.354   0.993  10.191 -1.4048 -1.8192 -3.5927
  498MOL0     H67165   2.170   1.068   9.976 -1.0072 -0.1555 -0.4332
  498MOL0     H67166   2.143   1.093  10.152 -2.5098  1.4413 -1.0803
  498MOL0     H67167   1.962   1.191  10.014 -0.7419  1.2237  0.4120
  498MOL0     H67168   2.044   1.292  10.132 -1.5797 -0.4227 -0.0296
  498MOL0     H67169   2.014   1.416   9.909  2.2824  1.7450 -1.0929
  498MOL0     H67170   2.187   1.383   9.930  1.8979 -1.6168 -1.8603
  498MOL0     H67171   2.136   1.177   9.774 -2.7958 -1.9464 -1.1411
  498MOL0     H67172   1.984   1.264   9.750  0.0495 -0.9169 -0.6325
  498MOL0     H67173   2.083   1.369   9.587  1.6442  1.3784 -1.1216
  498MOL0     H67174   2.146   1.475   9.717  1.7305 -0.4304  2.4712
  498MOL0     H67175   2.354   1.315   9.717 -0.6045  2.0270  0.2156
  498MOL0     H67176   2.271   1.225   9.582 -0.1211 -0.5232 -0.7342
  498MOL0     H67177   2.274   1.440   9.449  0.1234  1.1292  0.1335
  498MOL0     H67178   2.374   1.521   9.562 -0.9106 -0.5009  0.2283
  498MOL0     H67179   2.473   1.412   9.352 -1.6051  1.8189 -0.0928
  498MOL0     H67180   2.441   1.253   9.426  1.2003  0.0274 -2.0384
  498MOL0     H67181   2.576   1.458   9.713  3.3698 -1.9954  3.4747
  498MOL0     H67182   2.854   1.514   9.748 -1.5259  0.2670  0.1382
  498MOL0     H67183   2.820   1.390   9.864  0.0655 -0.6116 -0.1769
  498MOL0     H67184   3.062   1.424   9.823 -1.4702  2.3914 -0.7077
  498MOL0     H67185   3.017   1.387   9.643 -1.3715  2.3151 -0.2133
  498MOL0     H67186   3.005   1.156   9.700 -0.4763  2.8007 -2.5840
  498MOL0     H67187   2.999   1.184   9.868  2.2518  0.0013  1.3346
  498MOL0     H67188   3.235   1.271   9.880  1.5436  1.3581 -1.0860
  498MOL0     H67189   3.255   1.227   9.702  1.7049 -0.2127  0.8706
  498MOL0     H67190   3.310   0.850   9.918 -1.7716  1.3494  3.0224
  498MOL0     H67191   3.649   0.683   9.953  0.9783  1.8436 -0.6882
  498MOL0     H67192   3.561   0.729  10.106 -2.4020  1.0318  0.1965
  498MOL0     H67193   3.476   0.666   9.961 -1.7715  1.4062  1.6833
  498MOL0     H67194   3.925   0.885  10.209  0.8738 -3.5357 -1.6011
  498MOL0     H67195   4.137   0.877  10.324  0.1565  2.0134  2.4717
  498MOL0     H67196   4.483   1.036  10.122  4.6581 -0.9026  1.5113
  498MOL0     H67197   4.433   1.197  10.186 -1.5434 -0.5972  1.0357
  498MOL0     H67198   4.575   1.115  10.397  1.7203 -0.6721  0.7236
  498MOL0     H67199   4.620   0.978  10.292  1.1287  0.2017 -0.8970
  498MOL0     H67200   4.689   1.273  10.223  1.1537 -0.3269 -0.6833
  498MOL0     H67201   4.695   1.131  10.116 -1.8595 -2.2622  0.6790
  498MOL0     H67202   4.835   1.164  10.388 -0.2665 -1.4326  0.1528
  498MOL0     H67203   4.831   1.016  10.291  1.0691 -0.1724  0.0957
  498MOL0     H67204   4.938   1.126  10.095  1.1783  0.5236 -1.5908
  498MOL0     H67205   5.036   1.135  10.247 -2.2908 -2.6014 -0.5457
  498MOL0     H67206   4.864   1.366  10.140 -0.0773  0.1512 -0.3223
  498MOL0     H67207   4.968   1.379  10.274 -0.9246  2.4464 -1.3122
  498MOL0     H67208   5.033   1.478  10.037  0.2399  0.1819  0.0943
  498MOL0     H67209   5.067   1.320   9.985 -0.2475 -0.8453  1.1225
  498MOL0     H67210   5.182   1.410  10.260  0.4471  1.9223 -0.2911
  498MOL0     H67211   5.259   1.453  10.113  1.2599 -1.5714  0.2719
  498MOL0     H67212   4.253   1.232  10.095 -1.9503  0.9555  0.2599
  498MOL0     H67213   4.033   1.220   9.988  0.6162 -1.2689 -1.4888
  498MOL0     H67214   3.684   1.171   9.889 -0.9488  0.9717  2.3607
  498MOL0     H67215   3.458   1.245   9.840  0.4630 -0.2229  1.0657
  498MOL0     H67216   2.501   1.318   9.972  0.2938 -1.2918 -4.0276
  498MOL0     H67217   2.738   1.218   9.987  0.1309 -0.1613  0.9414
  498MOL0     H67218   3.034   1.106  10.229  0.0329  0.3015  2.2561
  498MOL0     H67219   3.277   1.085  10.269 -0.4166 -0.2052  3.1940
  498MOL0     H67220   3.489   1.042  10.202 -1.7812  0.0105  0.5484
  498MOL0     H67221   3.447   1.058  10.369 -1.5937  0.3363 -0.6338
  498MOL0     H67222   3.683   1.057  10.315  0.4955  0.0151 -1.7426
  498MOL0     H67223   3.664   0.878  10.284  2.3191 -0.0426  1.5894
  498MOL0     H67224   3.565   0.851  10.512 -1.4426  1.4143 -0.5084
  498MOL0     H67225   3.576   1.024  10.530 -3.1180 -0.0599 -0.8411
  498MOL0     H67226   3.819   1.025  10.538 -0.4886 -0.2566 -0.1759
  498MOL0     H67227   3.834   0.864  10.466 -0.1167  0.3568 -0.3868
  498MOL0     H67228   3.810   0.808  10.882 -0.2202  2.4386  0.5904
  498MOL0     H67229   3.257   0.665  10.174 -2.5340  0.1434 -1.5516
  498MOL0     H67230   3.015   0.691  10.107  0.5264 -1.4056  0.9367
  499MOL0     O67231   4.367   2.846   1.499  0.9482 -0.2897  0.6881
  499MOL0     C67232   4.420   2.951   1.544 -0.0601 -0.3073  0.0881
  499MOL0     O67233   4.362   3.040   1.627 -0.1512 -0.2746  0.1618
  499MOL0     C67234   4.252   2.996   1.689 -0.5565  0.5810 -0.3775
  499MOL0     C67235   4.137   3.079   1.685  0.1173  0.3915  0.5679
  499MOL0     C67236   4.015   3.037   1.743  0.2017  0.5057  0.3437
  499MOL0     C67237   4.018   2.923   1.820  0.4554  0.4697 -0.1414
  499MOL0     O67238   3.913   2.851   1.884 -0.5432 -0.0894  0.4536
  499MOL0     C67239   3.777   2.895   1.870 -0.2176 -0.6413 -0.3615
  499MOL0     C67240   3.699   2.775   1.822 -0.7186  0.0958  0.4297
  499MOL0     C67241   3.556   2.811   1.808  0.1419  0.1879 -0.0337
  499MOL0     C67242   3.474   2.684   1.812  0.2597  0.2654  1.2218
  499MOL0     C67243   3.332   2.704   1.794  0.5549 -0.2635 -1.1027
  499MOL0     C67244   3.286   2.768   1.667  1.1434  0.2185  0.4132
  499MOL0     C67245   3.134   2.757   1.654  0.1672 -0.0330  0.7002
  499MOL0     C67246   3.070   2.850   1.552  0.1486 -0.5166 -0.2999
  499MOL0     N67247   2.928   2.825   1.548  1.0393 -0.1579  0.2017
  499MOL0     C67248   2.837   2.861   1.643  0.2840 -0.3293  0.1705
  499MOL0     C67249   2.713   2.836   1.596 -0.2771 -0.2654 -1.1229
  499MOL0     C67250   2.580   2.842   1.672  0.9425  0.0902  0.3147
  499MOL0     C67251   2.453   2.850   1.579 -0.0344 -0.6686 -0.9742
  499MOL0     C67252   2.422   2.710   1.527 -0.0835  0.5726  0.5629
  499MOL0     C67253   2.306   2.703   1.428 -0.3607 -0.6056 -0.0553
  499MOL0     O67254   2.193   2.785   1.453  0.4208 -0.4368  0.0784
  499MOL0     C67255   2.088   2.728   1.525 -0.3083 -0.6955 -0.2845
  499MOL0     C67256   1.964   2.792   1.524  0.8982  0.0982 -0.2269
  499MOL0     C67257   1.858   2.755   1.608  0.4848 -0.3966  0.5737
  499MOL0     C67258   1.737   2.840   1.600 -0.4104 -0.2173  0.8657
  499MOL0     C67259   1.871   2.644   1.689 -0.4989  0.3660  0.9688
  499MOL0     C67260   1.754   2.601   1.769 -0.3904 -0.1928  0.4086
  499MOL0     O67261   1.679   2.703   1.812 -0.2223  0.4187 -0.1184
  499MOL0     C67262   1.555   2.681   1.881  0.5171  0.4779  1.1705
  499MOL0     C67263   1.516   2.795   1.956 -0.3800  0.2984  0.0716
  499MOL0     C67264   1.389   2.804   2.017 -0.1151  0.1437 -0.6703
  499MOL0     C67265   1.313   2.689   2.024 -0.0687 -0.1083 -0.4773
  499MOL0     O67266   1.188   2.692   2.084 -0.1802  0.8358 -0.0559
  499MOL0     C67267   1.167   2.745   2.222  0.0477  1.0333  0.1784
  499MOL0     C67268   1.029   2.718   2.283  0.7697  0.0871  0.1910
  499MOL0     C67269   0.914   2.808   2.224  0.1546  0.1129  0.1095
  499MOL0     C67270   0.787   2.777   2.299  0.2616  0.5323 -0.6194
  499MOL0     C67271   0.672   2.879   2.284  0.4210 -0.3592 -0.3395
  499MOL0     C67272   0.701   3.019   2.352  0.8493  0.0345 -0.3809
  499MOL0     C67273   0.581   3.109   2.348  0.8513 -0.8051  0.1073
  499MOL0     C67274   0.587   3.210   2.458 -0.1844  0.3501  0.4651
  499MOL0    Cl67275   0.458   3.333   2.434 -0.0558  0.2047 -0.0676
  499MOL0     C67276   1.363   2.576   1.959  0.1394 -0.4942  0.9646
  499MOL0     C67277   1.477   2.569   1.881 -0.5579  0.5441 -0.0506
  499MOL0     O67278   1.745   2.477   1.784  0.3211 -0.0315  0.1929
  499MOL0     C67279   1.997   2.580   1.696 -0.6820  0.8309  0.0288
  499MOL0     C67280   2.100   2.620   1.614 -0.8436 -0.3572 -0.2859
  499MOL0     N67281   2.727   2.784   1.467 -0.2788  0.4224  0.3283
  499MOL0     N67282   2.857   2.763   1.449 -1.0763  0.6322  0.5004
  499MOL0     C67283   4.141   2.857   1.835  0.4015 -1.1629  0.3285
  499MOL0     C67284   4.257   2.893   1.771  0.4805 -0.4156 -0.2181
  499MOL0     C67285   4.560   2.968   1.513 -0.5892 -0.8115 -0.3474
  499MOL0     C67286   4.612   3.094   1.490  0.3424  0.1666  0.1387
  499MOL0     C67287   4.746   3.110   1.454 -0.2955  0.0475  0.1722
  499MOL0     C67288   4.841   3.003   1.437  0.5661 -0.4164 -0.2212
  499MOL0     O67289   4.969   3.023   1.384 -0.1167 -0.6826 -0.1318
  499MOL0     C67290   5.079   3.000   1.479  0.0093  0.0512  0.3082
  499MOL0     C67291   5.195   3.077   1.427 -0.3644 -0.2678  0.0696
  499MOL0     C67292   5.309   3.055   1.530  0.7627 -0.4866 -0.1226
  499MOL0     C67293   5.396   2.934   1.490  0.6239  0.8872  0.0428
  499MOL0     C67294   5.442   2.936   1.353  0.0321 -0.5779  0.9597
  499MOL0     C67295   5.493   2.939   1.245  0.0019 -0.4486 -0.1866
  499MOL0     C67296   4.792   2.879   1.468  0.0317 -0.2027  0.9612
  499MOL0     C67297   4.654   2.861   1.505 -0.2850 -0.2514 -0.0381
  499MOL0     H67298   4.142   3.171   1.628 -1.2873  0.6905  0.8800
  499MOL0     H67299   3.932   3.105   1.728  0.3616  0.4088 -1.2112
  499MOL0     H67300   3.732   2.929   1.964 -2.1242 -2.2985 -0.5987
  499MOL0     H67301   3.768   2.984   1.806  0.3600 -0.3786 -0.0861
  499MOL0     H67302   3.732   2.743   1.723 -2.7221 -1.5240  0.2291
  499MOL0     H67303   3.714   2.691   1.891  0.2360 -0.0361  0.0790
  499MOL0     H67304   3.523   2.881   1.886 -1.9032  0.8194 -1.4075
  499MOL0     H67305   3.553   2.860   1.711  0.6233 -1.7657 -1.0799
  499MOL0     H67306   3.519   2.622   1.734  3.8424  1.2643  2.3146
  499MOL0     H67307   3.493   2.637   1.908 -0.1082  1.0646  1.6948
  499MOL0     H67308   3.288   2.604   1.808  1.9323 -0.5397  2.2564
  499MOL0     H67309   3.289   2.760   1.878  1.8764  2.2732 -2.0213
  499MOL0     H67310   3.316   2.874   1.669 -1.0706  0.8945  0.3925
  499MOL0     H67311   3.315   2.712   1.578 -2.8193 -0.8573 -0.3899
  499MOL0     H67312   3.104   2.657   1.621 -0.3325 -0.0398  1.1566
  499MOL0     H67313   3.106   2.783   1.757  1.6510 -0.7255  1.2945
  499MOL0     H67314   3.100   2.828   1.449  2.3357 -0.2146  0.2176
  499MOL0     H67315   3.076   2.954   1.587  0.9515 -0.4050 -0.7493
  499MOL0     H67316   2.854   2.897   1.744 -0.3454 -0.8851  0.4863
  499MOL0     H67317   2.561   2.754   1.734 -0.8188  0.4555  0.3374
  499MOL0     H67318   2.584   2.930   1.737 -2.6196  3.3326 -3.2710
  499MOL0     H67319   2.477   2.917   1.496  2.2425  0.6666  0.6563
  499MOL0     H67320   2.369   2.897   1.630 -2.0762 -2.8512 -2.0985
  499MOL0     H67321   2.396   2.650   1.614 -0.8220  1.0008  0.6478
  499MOL0     H67322   2.507   2.660   1.480 -0.3171 -0.4078  1.1725
  499MOL0     H67323   2.266   2.603   1.406 -4.8758  1.1187 -0.6073
  499MOL0     H67324   2.347   2.739   1.333 -0.9385  1.9174  0.5716
  499MOL0     H67325   1.951   2.873   1.454  0.1031  1.2142  1.1705
  499MOL0     H67326   1.743   2.910   1.516  2.6902  1.4189  2.2715
  499MOL0     H67327   1.649   2.776   1.595  0.1723 -1.0900  1.5029
  499MOL0     H67328   1.732   2.905   1.689  0.3819 -0.8599  1.3904
  499MOL0     H67329   1.569   2.885   1.925 -0.7680 -0.0186 -1.6193
  499MOL0     H67330   1.354   2.894   2.065  0.7995 -0.1557  0.5881
  499MOL0     H67331   1.248   2.716   2.290 -0.3619 -1.4685 -0.2872
  499MOL0     H67332   1.172   2.854   2.209  1.2649  0.9473 -0.2928
  499MOL0     H67333   1.002   2.613   2.264 -4.5508  1.4657 -1.5345
  499MOL0     H67334   1.024   2.724   2.392 -0.0218  1.4942  0.0946
  499MOL0     H67335   0.895   2.782   2.119  0.1825  1.0764 -0.1395
  499MOL0     H67336   0.932   2.915   2.232  1.2862  0.2395 -2.8176
  499MOL0     H67337   0.757   2.678   2.265  2.0874 -0.3011  0.0752
  499MOL0     H67338   0.807   2.761   2.405 -0.2757 -0.3306 -0.6484
  499MOL0     H67339   0.586   2.823   2.320 -0.9318  0.6930 -1.7944
  499MOL0     H67340   0.656   2.908   2.179 -0.6299  0.2509 -0.0281
  499MOL0     H67341   0.735   3.003   2.454  3.1044  0.9695 -0.9160
  499MOL0     H67342   0.778   3.075   2.297  1.5083  1.1677  1.6100
  499MOL0     H67343   0.498   3.044   2.375  1.0375 -0.7185  0.9171
  499MOL0     H67344   0.564   3.151   2.248  0.4483  1.4342  1.0605
  499MOL0     H67345   0.686   3.257   2.457 -0.5624  1.3920 -2.7669
  499MOL0     H67346   0.564   3.154   2.549 -2.7837 -0.0930 -0.3721
  499MOL0     H67347   1.297   2.492   1.978 -1.8680  0.7146 -0.2725
  499MOL0     H67348   1.505   2.477   1.829  0.3416  0.1807  1.0377
  499MOL0     H67349   2.017   2.487   1.747  0.7963  1.6643  1.0408
  499MOL0     H67350   2.196   2.568   1.619  1.9100  4.2077 -0.2391
  499MOL0     H67351   4.147   2.762   1.889 -1.1298 -0.9067  0.9848
  499MOL0     H67352   4.343   2.829   1.789  1.2009  0.6491  0.2041
  499MOL0     H67353   4.548   3.181   1.495  0.6333  0.3087  3.0932
  499MOL0     H67354   4.795   3.203   1.430 -2.0802  0.7515 -0.9096
  499MOL0     H67355   5.046   3.039   1.576 -0.4642 -0.2282  0.2609
  499MOL0     H67356   5.109   2.895   1.495 -1.9359 -0.6041 -0.0910
  499MOL0     H67357   5.151   3.177   1.423 -0.2322 -0.2356 -3.0312
  499MOL0     H67358   5.231   3.064   1.324 -1.4135  0.7620 -0.4615
  499MOL0     H67359   5.276   3.046   1.634 -3.3866 -1.6817 -1.3643
  499MOL0     H67360   5.376   3.141   1.528 -0.4058  0.4380 -1.2528
  499MOL0     H67361   5.343   2.840   1.509  1.4122  0.3071 -0.5480
  499MOL0     H67362   5.483   2.938   1.557  0.7983  0.2418 -0.1359
  499MOL0     H67363   5.552   2.941   1.156  2.0165 -2.5934  1.0109
  499MOL0     H67364   4.860   2.794   1.465 -0.8085 -0.8747 -2.1336
  499MOL0     H67365   4.615   2.762   1.524 -0.9300  0.1144  0.5907
  500MOL0     O67366   5.017   7.706   6.993  0.5668  0.5212  0.0713
  500MOL0     C67367   5.087   7.686   7.091 -0.0892  0.2716  0.4237
  500MOL0     O67368   5.037   7.639   7.218 -0.4995 -0.2355  0.2325
  500MOL0     C67369   4.905   7.618   7.231  0.4270  0.4649 -0.3431
  500MOL0     C67370   4.807   7.706   7.185  0.2885 -0.4538  1.4706
  500MOL0     C67371   4.667   7.689   7.208  0.7872 -0.1151 -0.6024
  500MOL0     C67372   4.615   7.575   7.276 -0.4297 -0.3861  0.2058
  500MOL0     O67373   4.480   7.562   7.283 -0.3145 -0.2213  0.2421
  500MOL0     C67374   4.439   7.430   7.315  0.4272  0.0322  0.1667
  500MOL0     C67375   4.289   7.420   7.275  0.1814 -0.1753  0.8135
  500MOL0     C67376   4.222   7.297   7.340 -0.2258  0.2115  0.3337
  500MOL0     C67377   4.214   7.316   7.488  0.9555 -0.4067 -0.2301
  500MOL0     C67378   4.114   7.220   7.550 -0.3352  0.4346 -0.8390
  500MOL0     C67379   3.962   7.227   7.515 -0.0477  0.4464  0.2159
  500MOL0     C67380   3.884   7.147   7.621 -0.5546 -0.1789 -0.5289
  500MOL0     C67381   3.748   7.118   7.576 -0.8568  0.1094 -0.0425
  500MOL0     N67382   3.663   7.044   7.663  0.4904 -0.0030 -0.2513
  500MOL0     C67383   3.536   7.071   7.704 -0.8094  0.1704 -1.2811
  500MOL0     C67384   3.521   6.980   7.803  0.0575 -0.0083 -0.4658
  500MOL0     C67385   3.391   6.964   7.868 -1.3901 -0.2808  0.3823
  500MOL0     C67386   3.331   6.822   7.847 -0.2256 -0.8452  0.1918
  500MOL0     C67387   3.182   6.819   7.898  0.3025 -0.1177  0.4878
  500MOL0     C67388   3.146   6.680   7.947  0.3625 -0.2517 -0.2089
  500MOL0     O67389   3.021   6.693   8.024  0.0613 -0.2395  0.3087
  500MOL0     C67390   2.913   6.617   7.972  1.2721 -0.2231  0.4959
  500MOL0     C67391   2.905   6.478   7.963 -0.3875 -1.0581 -0.6746
  500MOL0     C67392   2.796   6.407   7.911 -1.0679 -0.0697  0.3575
  500MOL0     C67393   2.803   6.262   7.920 -0.3802  0.0784 -0.1880
  500MOL0     C67394   2.687   6.481   7.855  1.2837 -0.0579  0.0122
  500MOL0     C67395   2.565   6.425   7.797 -0.3527 -0.2394 -0.0485
  500MOL0     O67396   2.466   6.505   7.776 -0.0338  0.1259  0.7913
  500MOL0     C67397   2.344   6.443   7.745  0.2666 -0.7701 -0.1434
  500MOL0     C67398   2.258   6.426   7.848  0.5871  0.5003 -0.7058
  500MOL0     C67399   2.124   6.383   7.830  0.1158  0.1886 -0.7225
  500MOL0     C67400   2.083   6.343   7.698 -0.6674  0.1444  0.0530
  500MOL0     O67401   1.962   6.280   7.678  0.6485 -0.3467  0.4898
  500MOL0     C67402   1.915   6.270   7.545  0.3926  0.2326 -0.4896
  500MOL0     C67403   1.764   6.267   7.551 -0.7349  0.4949 -0.4289
  500MOL0     C67404   1.707   6.250   7.409  0.8930 -0.2986 -0.6625
  500MOL0     C67405   1.550   6.268   7.402  0.5357 -0.1117 -0.1698
  500MOL0     C67406   1.484   6.181   7.288 -0.8820 -0.4022 -0.2936
  500MOL0     C67407   1.330   6.179   7.315  0.2839 -0.0444  0.2684
  500MOL0     C67408   1.258   6.078   7.216 -0.2415  0.7210 -0.7325
  500MOL0     C67409   1.141   6.012   7.285 -0.1595 -0.7642  0.2689
  500MOL0    Cl67410   1.026   6.145   7.308  0.1641  0.1518  0.0757
  500MOL0     C67411   2.176   6.362   7.594  0.0125 -0.5936  0.5069
  500MOL0     C67412   2.301   6.412   7.612  0.0007 -0.2923  0.9462
  500MOL0     O67413   2.566   6.304   7.756 -0.1083  0.4569  0.4591
  500MOL0     C67414   2.698   6.622   7.865 -1.1259 -0.2255  0.9425
  500MOL0     C67415   2.800   6.683   7.920  0.1336 -0.4388 -0.1698
  500MOL0     N67416   3.632   6.898   7.828 -0.2616 -0.4942  0.3698
  500MOL0     N67417   3.713   6.939   7.739  0.0193  0.3885 -0.4858
  500MOL0     C67418   4.716   7.480   7.320  1.0435 -0.5464 -0.5731
  500MOL0     C67419   4.858   7.501   7.299  0.2363  0.0709  0.3144
  500MOL0     C67420   5.233   7.723   7.088  0.0228 -0.5621 -0.6877
  500MOL0     C67421   5.298   7.741   6.965 -0.0585 -0.2050 -0.0605
  500MOL0     C67422   5.430   7.775   6.958 -0.6699 -0.1582  0.0770
  500MOL0     C67423   5.502   7.801   7.074  0.3217 -0.2283 -0.6517
  500MOL0     O67424   5.632   7.821   7.072  0.3020 -0.3423 -0.6268
  500MOL0     C67425   5.668   7.960   7.095 -0.1275 -0.1323  0.0110
  500MOL0     C67426   5.698   8.005   7.240  0.2604  0.5052 -0.8728
  500MOL0     C67427   5.825   7.932   7.283 -1.1521  0.4702 -0.9298
  500MOL0     C67428   5.815   7.780   7.314  0.9635  0.5755 -1.0525
  500MOL0     C67429   5.937   7.728   7.381  0.6065  0.4214 -0.1368
  500MOL0     C67430   6.023   7.666   7.441  0.0503  0.0061 -0.1569
  500MOL0     C67431   5.435   7.796   7.195 -0.5502  0.1444 -0.5161
  500MOL0     C67432   5.307   7.750   7.203 -0.6177 -0.1667  0.3162
  500MOL0     H67433   4.831   7.794   7.126 -2.7380 -0.2922  0.2963
  500MOL0     H67434   4.589   7.761   7.185 -1.1305 -2.1754 -0.9528
  500MOL0     H67435   4.489   7.354   7.253 -2.8996 -0.4809 -2.1645
  500MOL0     H67436   4.465   7.423   7.421  2.3084  2.3386 -0.0694
  500MOL0     H67437   4.239   7.512   7.309  1.7687  1.4163 -0.9404
  500MOL0     H67438   4.278   7.405   7.167 -0.7005  2.1659  0.5178
  500MOL0     H67439   4.124   7.280   7.295 -0.7308 -2.4612  2.2015
  500MOL0     H67440   4.269   7.199   7.325  1.0719  0.6779  1.1709
  500MOL0     H67441   4.316   7.297   7.521  0.7643 -1.3373 -0.1404
  500MOL0     H67442   4.180   7.417   7.512 -0.0250 -0.7313 -0.1758
  500MOL0     H67443   4.163   7.127   7.523  0.3270  0.0998  1.2946
  500MOL0     H67444   4.118   7.219   7.660 -0.8305 -0.8300 -0.8161
  500MOL0     H67445   3.940   7.334   7.514  1.4135  0.8049  1.5286
  500MOL0     H67446   3.941   7.180   7.418  2.4166  2.8694 -1.6376
  500MOL0     H67447   3.925   7.048   7.642 -0.5936 -0.2961 -0.9792
  500MOL0     H67448   3.878   7.206   7.712  0.2312  1.4795 -1.4979
  500MOL0     H67449   3.754   7.075   7.476 -1.7128  1.5795 -0.7571
  500MOL0     H67450   3.710   7.221   7.577 -1.2641 -0.0249  1.4592
  500MOL0     H67451   3.459   7.135   7.662 -0.8247 -0.2860 -1.9532
  500MOL0     H67452   3.403   6.959   7.977 -1.6849 -1.6037  0.3592
  500MOL0     H67453   3.324   7.045   7.838  1.7218  1.3308 -2.9220
  500MOL0     H67454   3.401   6.753   7.897  1.8462  0.6318 -0.5454
  500MOL0     H67455   3.339   6.794   7.742  2.1706  0.8221 -0.1398
  500MOL0     H67456   3.111   6.843   7.819 -0.1254 -0.4252  0.7743
  500MOL0     H67457   3.158   6.891   7.978  0.9303  0.5823  0.0585
  500MOL0     H67458   3.220   6.654   8.024  0.8035 -0.8878 -0.8276
  500MOL0     H67459   3.149   6.612   7.861 -1.9734 -0.9715  0.2118
  500MOL0     H67460   2.998   6.426   7.983 -0.9812 -1.6826  0.6145
  500MOL0     H67461   2.712   6.208   7.946  1.0077 -2.6149 -0.5176
  500MOL0     H67462   2.840   6.221   7.825  1.8010 -0.4777  0.8247
  500MOL0     H67463   2.876   6.226   7.994 -2.9376 -2.0473  1.4657
  500MOL0     H67464   2.290   6.458   7.947  0.5868  2.6753 -1.3680
  500MOL0     H67465   2.045   6.379   7.904 -0.3922 -0.2356 -1.2749
  500MOL0     H67466   1.941   6.357   7.484 -0.1619  1.1697  0.5890
  500MOL0     H67467   1.956   6.187   7.486 -0.3813 -0.2163 -0.4040
  500MOL0     H67468   1.737   6.182   7.615  0.0244  0.8075  0.3295
  500MOL0     H67469   1.735   6.362   7.597 -1.2155 -0.1336  0.6017
  500MOL0     H67470   1.740   6.155   7.366 -1.6057 -0.9007 -1.4419
  500MOL0     H67471   1.746   6.327   7.342 -0.7877  0.4015 -0.8780
  500MOL0     H67472   1.504   6.243   7.498 -0.2860  1.1244 -0.2258
  500MOL0     H67473   1.513   6.370   7.389  0.4013 -0.1326  0.0415
  500MOL0     H67474   1.524   6.079   7.290 -2.3108 -0.9711  0.5048
  500MOL0     H67475   1.510   6.230   7.194  1.1770 -0.5465  0.1414
  500MOL0     H67476   1.292   6.152   7.414  1.1533 -3.0441 -0.1198
  500MOL0     H67477   1.293   6.279   7.287  1.0728  0.2815  0.3699
  500MOL0     H67478   1.327   6.001   7.181  0.9596  1.8451 -0.9266
  500MOL0     H67479   1.233   6.132   7.124 -3.2353 -0.5998 -0.7967
  500MOL0     H67480   1.173   5.968   7.380  0.6676  0.0050  0.3620
  500MOL0     H67481   1.091   5.934   7.228 -1.2087  0.7072 -0.8956
  500MOL0     H67482   2.155   6.327   7.493 -2.6144  0.0442  0.7645
  500MOL0     H67483   2.370   6.425   7.529 -0.0397 -0.9326  0.8075
  500MOL0     H67484   2.620   6.693   7.841 -0.0771  1.4897  2.3733
  500MOL0     H67485   2.802   6.790   7.938  3.3173 -0.0803 -1.9111
  500MOL0     H67486   4.684   7.390   7.371  1.3562  0.1764  0.9370
  500MOL0     H67487   4.926   7.443   7.361  0.5535  0.8213  0.6791
  500MOL0     H67488   5.247   7.720   6.872  0.1991 -0.5253 -0.1253
  500MOL0     H67489   5.472   7.783   6.858 -1.6442  0.3891 -0.3005
  500MOL0     H67490   5.766   7.968   7.046 -1.6386 -0.6054 -3.3912
  500MOL0     H67491   5.598   8.030   7.050 -1.5720 -1.1728  0.5744
  500MOL0     H67492   5.622   7.971   7.310  0.9281 -3.3138 -1.7294
  500MOL0     H67493   5.716   8.113   7.240  0.6010  0.4835  1.2445
  500MOL0     H67494   5.857   7.979   7.377 -1.3909 -0.2649 -0.4740
  500MOL0     H67495   5.894   7.945   7.199 -0.0311 -1.2166 -0.3250
  500MOL0     H67496   5.812   7.726   7.219  1.5628  0.5135 -1.0363
  500MOL0     H67497   5.728   7.761   7.379 -0.0957  2.1482 -1.9416
  500MOL0     H67498   6.092   7.598   7.487  0.3186  0.0054 -0.5538
  500MOL0     H67499   5.487   7.812   7.289 -1.9519  0.9584  0.1579
  500MOL0     H67500   5.252   7.719   7.292 -1.1126 -2.0486 -0.6039
  501MOL0     O67501   7.602   7.426   3.804 -0.4988 -0.5764 -0.1877
  501MOL0     C67502   7.684   7.357   3.871 -0.1878 -0.0926 -0.0156
  501MOL0     O67503   7.653   7.280   3.975  0.5240  0.2493 -0.5422
  501MOL0     C67504   7.523   7.254   3.990  1.2128  0.6447 -0.0003
  501MOL0     C67505   7.465   7.179   3.894 -0.4851  0.0096  0.0100
  501MOL0     C67506   7.325   7.163   3.906  0.6950 -0.8443 -0.0224
  501MOL0     C67507   7.251   7.224   4.011 -0.1122  0.8381 -0.0292
  501MOL0     O67508   7.115   7.237   3.995  0.2277 -0.5977  0.5647
  501MOL0     C67509   7.034   7.150   4.078 -0.1965 -0.1647  0.1299
  501MOL0     C67510   6.923   7.102   3.989 -0.2834  0.3792 -0.5465
  501MOL0     C67511   6.829   7.202   3.925 -0.0501 -1.2039 -0.0054
  501MOL0     C67512   6.772   7.297   4.036  0.4277  0.0297 -0.3090
  501MOL0     C67513   6.683   7.397   3.954  0.0868 -0.6279 -0.6763
  501MOL0     C67514   6.664   7.527   4.027  0.8967  1.2049  0.1897
  501MOL0     C67515   6.572   7.628   3.967  0.6254 -0.2995 -0.3258
  501MOL0     C67516   6.539   7.753   4.052 -0.1485  0.1984 -1.3257
  501MOL0     N67517   6.427   7.735   4.148  0.3671  1.1735 -0.0931
  501MOL0     C67518   6.440   7.735   4.285 -0.4984  0.0716 -0.7986
  501MOL0     C67519   6.315   7.716   4.332  0.0945  0.2911 -0.8920
  501MOL0     C67520   6.294   7.713   4.481 -0.8215 -0.0909 -0.0640
  501MOL0     C67521   6.263   7.847   4.549 -0.1038  0.3203 -1.0047
  501MOL0     C67522   6.122   7.884   4.512  0.1016  0.1559 -0.0916
  501MOL0     C67523   6.056   7.989   4.591 -0.2392 -0.1381 -0.0659
  501MOL0     O67524   6.005   8.088   4.501  0.2647  0.6900 -0.0748
  501MOL0     C67525   5.936   8.192   4.563  0.5011 -0.3078  0.4633
  501MOL0     C67526   5.867   8.276   4.479 -0.6006 -0.6685  0.8734
  501MOL0     C67527   5.795   8.389   4.529 -0.8629  0.6473 -0.5301
  501MOL0     C67528   5.716   8.472   4.429 -0.0054 -0.9018 -0.3902
  501MOL0     C67529   5.793   8.411   4.672  0.5556  0.4838  0.2401
  501MOL0     C67530   5.699   8.506   4.744 -0.3841  0.0146 -0.8750
  501MOL0     O67531   5.666   8.483   4.879  0.2769 -0.2596  0.6293
  501MOL0     C67532   5.564   8.565   4.918 -0.0238  0.1810 -0.1573
  501MOL0     C67533   5.586   8.703   4.935 -0.2646  0.0309 -0.4225
  501MOL0     C67534   5.484   8.787   4.980 -0.1331 -0.3998 -0.8706
  501MOL0     C67535   5.354   8.736   5.001 -0.6309  0.5796 -0.0698
  501MOL0     O67536   5.249   8.811   5.048 -0.9478  0.3625  0.3867
  501MOL0     C67537   5.283   8.945   5.104  0.6185  0.6596  0.0321
  501MOL0     C67538   5.174   8.976   5.203 -0.9043  0.2133 -0.7356
  501MOL0     C67539   5.223   9.092   5.295 -1.4349  0.3197 -1.7080
  501MOL0     C67540   5.107   9.158   5.368  0.1350  0.1588  0.1392
  501MOL0     C67541   5.162   9.247   5.479  0.1597 -0.7750 -0.3529
  501MOL0     C67542   5.070   9.356   5.536 -0.6921 -0.3889 -0.1109
  501MOL0     C67543   5.139   9.422   5.650 -0.5796  0.2671 -0.2159
  501MOL0     C67544   5.094   9.565   5.679  0.5248 -0.7140  0.1553
  501MOL0    Cl67545   5.128   9.684   5.550 -0.2331 -0.2644  0.0650
  501MOL0     C67546   5.336   8.597   4.980  0.1781 -0.1495  0.3544
  501MOL0     C67547   5.440   8.513   4.937  0.2118  0.1742 -0.2048
  501MOL0     O67548   5.664   8.605   4.676  0.3727 -0.6302 -0.0146
  501MOL0     C67549   5.866   8.323   4.754 -0.4535 -0.3279 -0.8905
  501MOL0     C67550   5.939   8.214   4.699  0.1653 -1.1821  0.0251
  501MOL0     N67551   6.229   7.701   4.221 -0.4894  0.1997 -0.2839
  501MOL0     N67552   6.297   7.713   4.112 -0.0869  0.4002 -0.6327
  501MOL0     C67553   7.324   7.291   4.116 -0.4863 -0.0188  0.3232
  501MOL0     C67554   7.459   7.309   4.098 -0.2598  0.2568 -1.3411
  501MOL0     C67555   7.827   7.403   3.850  0.6824 -0.6364  0.0968
  501MOL0     C67556   7.860   7.520   3.793  0.1166 -0.0078 -0.0003
  501MOL0     C67557   7.996   7.553   3.789  0.1228  0.5495 -0.2416
  501MOL0     C67558   8.093   7.483   3.858  0.1642  0.2468  0.6435
  501MOL0     O67559   8.224   7.516   3.860  0.2798 -0.3963 -0.2329
  501MOL0     C67560   8.274   7.641   3.821 -0.2077  0.1847  0.1434
  501MOL0     C67561   8.419   7.656   3.875  1.0884 -0.1087 -0.2490
  501MOL0     C67562   8.505   7.547   3.814 -0.1713 -0.1769 -0.0235
  501MOL0     C67563   8.650   7.555   3.863 -0.4142 -0.3752 -0.3037
  501MOL0     C67564   8.661   7.494   4.001  0.2458  0.3008 -0.0071
  501MOL0     C67565   8.656   7.455   4.115  0.6507 -0.0315 -0.1828
  501MOL0     C67566   8.056   7.360   3.911  0.1782 -0.5899 -0.1131
  501MOL0     C67567   7.924   7.321   3.908 -0.1923 -0.5560  0.2642
  501MOL0     H67568   7.531   7.128   3.825 -1.8349  0.3363 -1.5795
  501MOL0     H67569   7.268   7.104   3.834  0.3084  0.2429 -0.6278
  501MOL0     H67570   7.104   7.073   4.112 -1.1114 -0.6168  1.0241
  501MOL0     H67571   6.986   7.198   4.164 -0.2802 -1.3254  0.7593
  501MOL0     H67572   6.975   7.048   3.909  0.8055 -1.3383  1.1906
  501MOL0     H67573   6.860   7.032   4.046 -0.6154  3.0556  2.6628
  501MOL0     H67574   6.879   7.258   3.845 -1.9039  1.8034  0.8087
  501MOL0     H67575   6.744   7.156   3.875 -1.2327  1.1028 -0.2229
  501MOL0     H67576   6.712   7.245   4.111 -0.9388  0.3609 -1.1440
  501MOL0     H67577   6.850   7.348   4.094 -0.2098  1.1680 -0.4251
  501MOL0     H67578   6.716   7.422   3.853  1.3363  1.6949  0.2194
  501MOL0     H67579   6.589   7.345   3.939  0.5374 -2.0639  1.0990
  501MOL0     H67580   6.615   7.501   4.122 -0.6609  1.1867 -0.5819
  501MOL0     H67581   6.759   7.576   4.048  1.6968 -0.8727  1.7154
  501MOL0     H67582   6.605   7.671   3.872 -1.8249  2.7121  0.0112
  501MOL0     H67583   6.478   7.578   3.941  0.9549 -0.6697 -0.8109
  501MOL0     H67584   6.503   7.821   3.974 -3.1631  2.0815  1.4148
  501MOL0     H67585   6.621   7.796   4.111 -0.4602 -0.0671 -0.6797
  501MOL0     H67586   6.524   7.749   4.353  0.3256 -1.1474 -1.5371
  501MOL0     H67587   6.215   7.638   4.496  1.1836 -3.0462 -2.8922
  501MOL0     H67588   6.382   7.673   4.533 -0.4793 -0.1633 -0.6906
  501MOL0     H67589   6.325   7.927   4.508  1.7344  0.5788  1.9534
  501MOL0     H67590   6.295   7.836   4.654 -0.5909  0.2914 -0.8604
  501MOL0     H67591   6.059   7.794   4.511  0.7937 -0.3365 -0.3471
  501MOL0     H67592   6.117   7.922   4.409 -3.3588 -0.4536 -0.2576
  501MOL0     H67593   6.131   8.036   4.655  1.8053 -0.8501 -1.8281
  501MOL0     H67594   5.971   7.964   4.656  0.1517 -0.4996  0.3093
  501MOL0     H67595   5.877   8.261   4.372 -1.4109  3.5772  0.0247
  501MOL0     H67596   5.703   8.416   4.336 -1.8082  1.0575 -1.4152
  501MOL0     H67597   5.613   8.485   4.464 -0.0031 -0.7271 -0.4449
  501MOL0     H67598   5.760   8.572   4.420 -0.3464 -0.4442  2.1328
  501MOL0     H67599   5.685   8.746   4.924  0.1788 -0.6165  0.7773
  501MOL0     H67600   5.505   8.893   4.991 -1.0385 -0.4834  2.5289
  501MOL0     H67601   5.380   8.951   5.156  0.0324  0.3390  1.2089
  501MOL0     H67602   5.283   9.022   5.027 -1.2898 -0.9954 -1.7154
  501MOL0     H67603   5.081   9.001   5.152 -0.1880  0.8929 -1.7467
  501MOL0     H67604   5.159   8.885   5.262 -2.1729 -0.0695 -1.4639
  501MOL0     H67605   5.273   9.168   5.234 -2.1655  1.3345 -1.0774
  501MOL0     H67606   5.292   9.055   5.371 -0.6901  2.6006 -1.1742
  501MOL0     H67607   5.060   9.220   5.292  2.8283 -1.1292 -2.8022
  501MOL0     H67608   5.044   9.073   5.399 -1.2956  0.4981 -1.6862
  501MOL0     H67609   5.250   9.297   5.437  0.5433 -0.8115  0.3918
  501MOL0     H67610   5.193   9.185   5.564 -0.7285 -2.8353 -1.4616
  501MOL0     H67611   5.045   9.432   5.462 -2.7350  1.2390  2.0631
  501MOL0     H67612   4.971   9.324   5.569 -0.6951 -0.2795 -0.0107
  501MOL0     H67613   5.246   9.430   5.626 -0.3978  1.2601  0.8334
  501MOL0     H67614   5.123   9.356   5.736 -1.0868  1.8795  0.9804
  501MOL0     H67615   5.134   9.596   5.776 -0.3963  1.5770 -0.1261
  501MOL0     H67616   4.986   9.571   5.694  0.3314 -0.3515 -1.2870
  501MOL0     H67617   5.236   8.557   4.981 -0.2344  0.7509 -1.1015
  501MOL0     H67618   5.425   8.409   4.909  2.9089 -0.1909 -0.5901
  501MOL0     H67619   5.865   8.324   4.862 -1.0326  1.0996 -0.8851
  501MOL0     H67620   6.000   8.152   4.764 -1.4421 -1.6362  1.1589
  501MOL0     H67621   7.277   7.353   4.191  1.0247  1.8975 -0.2512
  501MOL0     H67622   7.523   7.369   4.162  0.2770 -3.2591  1.8016
  501MOL0     H67623   7.789   7.586   3.746 -1.4123 -1.5173  0.0663
  501MOL0     H67624   8.022   7.650   3.746  0.1434  0.6048 -0.1077
  501MOL0     H67625   8.275   7.647   3.712  1.4842  0.0682  0.1317
  501MOL0     H67626   8.204   7.720   3.851 -2.2291 -0.6097 -2.1639
  501MOL0     H67627   8.420   7.641   3.983 -1.5471 -1.2533 -0.3134
  501MOL0     H67628   8.461   7.753   3.846  0.3448  0.0601 -0.7982
  501MOL0     H67629   8.499   7.542   3.705 -3.4940  0.9850 -0.0078
  501MOL0     H67630   8.462   7.453   3.849 -2.5323  1.5742  2.1467
  501MOL0     H67631   8.684   7.658   3.865  2.1555 -1.1327 -1.1023
  501MOL0     H67632   8.716   7.498   3.796  1.0391  1.2582 -0.3266
  501MOL0     H67633   8.640   7.422   4.216  4.1219  0.0759  0.5367
  501MOL0     H67634   8.133   7.300   3.958 -0.7341  0.1007  2.4759
  501MOL0     H67635   7.897   7.230   3.960 -0.3354 -1.0838 -0.7009
  502MOL0     O67636   2.637   1.882   8.849  0.0123 -0.2401 -0.3088
  502MOL0     C67637   2.689   1.890   8.736  0.0655 -0.2227  0.0764
  502MOL0     O67638   2.625   1.907   8.622 -0.2254 -0.4775 -0.0218
  502MOL0     C67639   2.488   1.931   8.605  0.1592  0.1448 -0.6817
  502MOL0     C67640   2.439   1.954   8.475  0.1705 -0.6220 -0.8086
  502MOL0     C67641   2.303   1.963   8.447  0.6373  0.1951  0.0606
  502MOL0     C67642   2.204   1.970   8.541 -0.4458 -0.6907  0.5725
  502MOL0     O67643   2.075   1.991   8.513 -0.2075 -0.7926  0.8567
  502MOL0     C67644   1.982   2.045   8.607 -0.2629  0.1974 -0.1950
  502MOL0     C67645   1.844   2.070   8.545 -0.7477 -0.5519  0.2138
  502MOL0     C67646   1.753   2.128   8.651 -0.4759  0.2843 -0.0736
  502MOL0     C67647   1.642   2.205   8.592  0.7462 -0.9254  0.5928
  502MOL0     C67648   1.546   2.262   8.695 -0.4517  0.6187 -0.0463
  502MOL0     C67649   1.444   2.162   8.756 -0.1621 -0.4871 -0.1796
  502MOL0     C67650   1.363   2.214   8.877  0.0156  0.2260 -0.2183
  502MOL0     C67651   1.282   2.339   8.852 -0.7564  0.9339  0.0763
  502MOL0     N67652   1.204   2.351   8.973  0.4357  0.6525 -0.1482
  502MOL0     C67653   1.078   2.317   8.994  0.0326 -0.0892  0.1330
  502MOL0     C67654   1.062   2.336   9.124 -0.5507  0.4190  0.1260
  502MOL0     C67655   0.934   2.322   9.205  0.3105  1.2361 -0.0078
  502MOL0     C67656   0.841   2.436   9.190  0.0892 -0.2260  0.7944
  502MOL0     C67657   0.878   2.572   9.245 -0.0808 -0.3945 -0.3462
  502MOL0     C67658   0.916   2.565   9.396 -0.5864  0.7865  1.0375
  502MOL0     O67659   0.919   2.694   9.461 -0.2714  0.3729  0.5341
  502MOL0     C67660   0.801   2.732   9.525 -0.4522 -0.1626  0.5202
  502MOL0     C67661   0.816   2.843   9.603 -0.8257 -0.1983 -0.4294
  502MOL0     C67662   0.709   2.906   9.655  0.6323 -0.6405 -0.6514
  502MOL0     C67663   0.725   3.035   9.733  0.1691  0.3529  0.3602
  502MOL0     C67664   0.576   2.847   9.649  1.0617 -0.4145 -0.9607
  502MOL0     C67665   0.455   2.906   9.718 -0.3523 -1.1823 -0.7594
  502MOL0     O67666   0.337   2.830   9.685  0.2909  0.0477  0.1314
  502MOL0     C67667   0.222   2.825   9.761  0.9068 -0.0875 -0.9648
  502MOL0     C67668   0.099   2.789   9.696 -0.4010  0.0859  0.2355
  502MOL0     C67669  -0.018   2.768   9.769  0.2033  0.6754 -0.1873
  502MOL0     C67670  -0.026   2.786   9.911 -0.4128  0.1666 -0.1178
  502MOL0     O67671  -0.146   2.767   9.974  0.0431 -0.2494 -0.4257
  502MOL0     C67672  -0.251   2.860   9.954 -0.3218 -0.5705 -0.2837
  502MOL0     C67673  -0.367   2.827  10.042  1.0923 -0.1060 -0.7423
  502MOL0     C67674  -0.422   2.685  10.002 -0.2371 -0.1932 -0.8107
  502MOL0     C67675  -0.498   2.627  10.119  0.1974 -0.7148  0.0834
  502MOL0     C67676  -0.563   2.492  10.097  0.3677  0.8238  0.2659
  502MOL0     C67677  -0.473   2.393  10.023  0.1308  0.1989 -0.3390
  502MOL0     C67678  -0.340   2.360  10.100 -0.2817 -0.2958  0.8130
  502MOL0     C67679  -0.358   2.257  10.205  0.5232 -0.6044  0.6563
  502MOL0    Cl67680  -0.208   2.230  10.296 -0.3703 -0.1338  0.2349
  502MOL0     C67681   0.090   2.818   9.972 -0.3510  1.1977  0.6601
  502MOL0     C67682   0.211   2.846   9.903 -0.5906 -0.2394  0.1914
  502MOL0     O67683   0.462   2.994   9.806 -0.1824  0.3203  0.3184
  502MOL0     C67684   0.566   2.728   9.575 -0.0965  0.1605 -0.2861
  502MOL0     C67685   0.675   2.678   9.505  0.3745  0.6204 -0.2926
  502MOL0     N67686   1.176   2.389   9.181  0.4905  0.3972 -0.6117
  502MOL0     N67687   1.264   2.389   9.092  0.2913  0.0081 -0.2191
  502MOL0     C67688   2.244   1.947   8.673 -0.9566  0.1077  0.2634
  502MOL0     C67689   2.386   1.918   8.706 -0.1940  0.7279 -0.4193
  502MOL0     C67690   2.836   1.895   8.733  0.5631  0.1961 -0.4075
  502MOL0     C67691   2.912   1.833   8.833 -0.1022  0.1412  0.6531
  502MOL0     C67692   3.052   1.837   8.819  0.7777  0.3041 -0.1345
  502MOL0     C67693   3.115   1.896   8.703  0.6656  0.0041 -0.1442
  502MOL0     O67694   3.246   1.886   8.677 -0.0253 -0.5511 -0.0701
  502MOL0     C67695   3.312   1.969   8.576  0.3548 -0.8550  0.0881
  502MOL0     C67696   3.460   1.964   8.616  0.3760 -0.6817  0.2800
  502MOL0     C67697   3.545   2.067   8.526 -0.9804  0.0720 -0.6012
  502MOL0     C67698   3.554   2.037   8.382 -0.4199  0.2762 -0.0056
  502MOL0     C67699   3.666   2.103   8.321 -0.4157  0.3973 -0.8013
  502MOL0     C67700   3.774   2.149   8.279  0.4566 -1.2276  0.3252
  502MOL0     C67701   3.026   1.954   8.605  0.2609 -0.8377  0.5856
  502MOL0     C67702   2.892   1.952   8.622  0.3290 -0.3930 -0.1735
  502MOL0     H67703   2.517   1.964   8.400  0.3201  0.2501 -0.5471
  502MOL0     H67704   2.279   1.976   8.342  1.9188  0.2865 -0.2416
  502MOL0     H67705   1.945   1.977   8.684 -2.0969  1.3035 -0.0257
  502MOL0     H67706   2.000   2.142   8.655 -2.0825 -0.7731  2.7037
  502MOL0     H67707   1.874   2.142   8.468 -1.0736  0.2513  0.8326
  502MOL0     H67708   1.810   1.974   8.503  2.0300 -0.6605 -2.1555
  502MOL0     H67709   1.722   2.041   8.711 -1.1919 -1.1358 -2.3958
  502MOL0     H67710   1.809   2.194   8.718 -1.0010  0.6660 -0.0050
  502MOL0     H67711   1.692   2.294   8.552  0.9894 -0.4591  1.8681
  502MOL0     H67712   1.580   2.156   8.517  1.7334 -1.9084  0.4001
  502MOL0     H67713   1.600   2.304   8.781 -1.2197 -0.1970  0.8533
  502MOL0     H67714   1.493   2.348   8.653 -2.9576 -1.0449 -0.4317
  502MOL0     H67715   1.379   2.140   8.671  0.9010  1.4558 -1.5751
  502MOL0     H67716   1.506   2.079   8.788 -0.1138  0.6662  3.1792
  502MOL0     H67717   1.291   2.135   8.900 -1.5388  1.4372 -0.7819
  502MOL0     H67718   1.422   2.237   8.966  0.2786 -1.6681  0.1368
  502MOL0     H67719   1.228   2.330   8.757  1.1407 -1.1685 -0.9128
  502MOL0     H67720   1.348   2.425   8.852  0.6347 -0.0988  0.4136
  502MOL0     H67721   1.006   2.282   8.921 -0.4037 -2.3064  1.5652
  502MOL0     H67722   0.875   2.233   9.178 -1.7141  1.9782  1.6397
  502MOL0     H67723   0.946   2.309   9.313  0.2224  1.8022  0.0742
  502MOL0     H67724   0.737   2.416   9.214 -0.4821  1.2483 -0.2771
  502MOL0     H67725   0.849   2.451   9.082  1.4864  0.6073  0.9899
  502MOL0     H67726   0.795   2.643   9.243  1.6549  1.7305 -1.1169
  502MOL0     H67727   0.959   2.614   9.186  1.5723  0.4469  2.3560
  502MOL0     H67728   1.019   2.529   9.407 -0.2635  1.2799 -0.2371
  502MOL0     H67729   0.851   2.496   9.451 -0.3560  1.5418  2.2807
  502MOL0     H67730   0.915   2.885   9.622 -2.1233  1.5076  3.8187
  502MOL0     H67731   0.709   3.010   9.838  0.0852 -0.6344  0.1241
  502MOL0     H67732   0.830   3.065   9.726  0.7408 -1.0862  2.0303
  502MOL0     H67733   0.652   3.108   9.696  0.5926 -0.4840 -2.3724
  502MOL0     H67734   0.084   2.779   9.589  1.1826 -1.7451  0.1280
  502MOL0     H67735  -0.105   2.724   9.721  1.5531 -3.2681  0.6073
  502MOL0     H67736  -0.211   2.959   9.979  0.7076 -1.4925  1.9620
  502MOL0     H67737  -0.294   2.851   9.854  1.1031  1.0905 -1.1028
  502MOL0     H67738  -0.331   2.834  10.145  1.5030 -1.8068 -0.7285
  502MOL0     H67739  -0.440   2.905  10.022  0.7039 -0.8671 -2.4924
  502MOL0     H67740  -0.335   2.623   9.979 -0.1371 -0.6453  0.6941
  502MOL0     H67741  -0.489   2.692   9.916 -1.1564  1.3246 -0.0168
  502MOL0     H67742  -0.432   2.623  10.206  1.5552  1.0441 -0.8084
  502MOL0     H67743  -0.581   2.696  10.137  0.2630 -1.0592  1.9402
  502MOL0     H67744  -0.662   2.504  10.053  1.2491  0.4161 -1.9551
  502MOL0     H67745  -0.581   2.451  10.197  1.3252  1.6292  0.7924
  502MOL0     H67746  -0.517   2.293  10.017  2.5556 -1.1032  1.3813
  502MOL0     H67747  -0.454   2.440   9.926  0.1464 -1.1370 -1.0078
  502MOL0     H67748  -0.301   2.446  10.156  1.9789 -0.4038 -0.4607
  502MOL0     H67749  -0.264   2.329  10.027 -0.9513 -0.0377 -0.0149
  502MOL0     H67750  -0.386   2.160  10.162 -0.6508  0.4552 -1.1132
  502MOL0     H67751  -0.423   2.290  10.286 -0.3347  0.5243 -0.4517
  502MOL0     H67752   0.079   2.836  10.079  0.6849  1.4405  0.7428
  502MOL0     H67753   0.294   2.887   9.960 -1.0180  2.4252 -0.9629
  502MOL0     H67754   0.475   2.669   9.566 -0.4647  0.1742  2.4789
  502MOL0     H67755   0.658   2.588   9.446  3.0545 -1.6334  2.0567
  502MOL0     H67756   2.169   1.936   8.751 -0.6720 -3.5998  0.2302
  502MOL0     H67757   2.419   1.881   8.803 -2.6132 -2.5408 -0.6644
  502MOL0     H67758   2.860   1.780   8.912  0.3511  1.4041  1.8192
  502MOL0     H67759   3.104   1.800   8.906 -0.8109 -3.5017 -0.5654
  502MOL0     H67760   3.299   1.922   8.478 -1.4874 -2.2363  0.9245
  502MOL0     H67761   3.278   2.073   8.578  1.1200 -0.5887  2.8706
  502MOL0     H67762   3.500   1.864   8.597 -0.7518 -0.8079 -1.6961
  502MOL0     H67763   3.468   1.992   8.721 -0.1886  1.1288 -0.1192
  502MOL0     H67764   3.645   2.074   8.569 -0.2995 -1.7607 -1.7396
  502MOL0     H67765   3.509   2.170   8.537  1.7956  1.0211  0.1648
  502MOL0     H67766   3.464   2.070   8.329  0.2048 -0.9731 -1.9551
  502MOL0     H67767   3.562   1.929   8.366  4.1546  0.3189  0.7059
  502MOL0     H67768   3.857   2.184   8.221 -2.5473  1.0698 -3.0618
  502MOL0     H67769   3.062   1.998   8.513 -1.1526 -1.9252 -0.5392
  502MOL0     H67770   2.834   2.006   8.548  0.5340 -1.0727 -0.8543
  503MOL0     O67771   0.696   4.439   3.521 -0.1729 -0.3963  0.5912
  503MOL0     C67772   0.750   4.351   3.454 -0.1780 -0.6697 -0.2969
  503MOL0     O67773   0.704   4.221   3.439  0.1429  0.0878 -0.6589
  503MOL0     C67774   0.574   4.200   3.476  0.5204 -0.1810 -0.1956
  503MOL0     C67775   0.468   4.214   3.388 -0.4120 -0.4767 -0.3576
  503MOL0     C67776   0.344   4.203   3.434 -0.9080  0.0286 -0.6105
  503MOL0     C67777   0.311   4.148   3.554 -0.0139 -0.0938  0.2744
  503MOL0     O67778   0.179   4.107   3.586  0.1277 -0.4562 -0.1415
  503MOL0     C67779   0.076   4.134   3.484 -0.2939  0.2704  0.7776
  503MOL0     C67780  -0.066   4.120   3.516 -0.0925  1.3617 -0.3843
  503MOL0     C67781  -0.162   4.161   3.404 -0.2051 -0.2784 -0.1756
  503MOL0     C67782  -0.130   4.097   3.268 -0.9322 -0.1847 -2.0040
  503MOL0     C67783  -0.253   4.104   3.171  0.0477 -0.0144  0.4311
  503MOL0     C67784  -0.223   4.058   3.031 -0.0859 -0.0499  0.9720
  503MOL0     C67785  -0.350   4.048   2.942 -0.1655 -0.2272  0.6906
  503MOL0     C67786  -0.434   4.176   2.943  0.3830 -0.2505  0.0445
  503MOL0     N67787  -0.352   4.285   2.886  0.3037 -0.3647  0.0796
  503MOL0     C67788  -0.332   4.395   2.956  0.8580  0.8476  0.0743
  503MOL0     C67789  -0.286   4.481   2.862  0.2033  0.5469  0.2204
  503MOL0     C67790  -0.230   4.622   2.889 -0.6995 -0.2455  0.8697
  503MOL0     C67791  -0.089   4.644   2.824  0.2616 -0.7515  0.7205
  503MOL0     C67792  -0.025   4.783   2.859 -0.2490  0.4029  0.0235
  503MOL0     C67793  -0.094   4.905   2.817  0.2671 -0.4536  0.5128
  503MOL0     O67794  -0.176   4.957   2.921  0.5861  0.2453  0.6182
  503MOL0     C67795  -0.280   5.044   2.886  0.4250  0.1995  0.6362
  503MOL0     C67796  -0.392   5.034   2.970  0.6039 -1.2200  0.2532
  503MOL0     C67797  -0.513   5.113   2.945 -0.2157  0.3742 -1.3156
  503MOL0     C67798  -0.613   5.086   3.054 -0.1927 -0.1456 -0.3522
  503MOL0     C67799  -0.518   5.203   2.840 -0.7916  0.2562  0.1140
  503MOL0     C67800  -0.631   5.281   2.796 -0.3728 -0.0351 -0.7659
  503MOL0     O67801  -0.741   5.282   2.878  0.0166 -0.1325  0.6324
  503MOL0     C67802  -0.831   5.383   2.881 -0.2394 -0.1449  0.8416
  503MOL0     C67803  -0.818   5.511   2.817  0.1757  0.9666  0.3156
  503MOL0     C67804  -0.901   5.619   2.840  0.8434  0.1141  0.1831
  503MOL0     C67805  -1.013   5.601   2.924 -0.1958 -0.2697 -0.0902
  503MOL0     O67806  -1.091   5.712   2.949  0.4285 -0.0677 -0.0491
  503MOL0     C67807  -1.131   5.721   3.089  0.2061  0.1079  0.6065
  503MOL0     C67808  -1.214   5.848   3.120 -0.4026 -0.3929 -0.3591
  503MOL0     C67809  -1.348   5.847   3.048 -0.0991  0.1951  0.1798
  503MOL0     C67810  -1.441   5.963   3.088  0.6921  0.5395  0.7283
  503MOL0     C67811  -1.567   5.960   2.999  0.5014 -0.5349 -0.0944
  503MOL0     C67812  -1.668   6.061   3.050 -0.4048 -0.1962  0.1686
  503MOL0     C67813  -1.784   6.081   2.950  0.0437 -0.6613  0.6223
  503MOL0     C67814  -1.858   5.958   2.898  0.5689 -0.4943  0.4689
  503MOL0    Cl67815  -1.906   5.845   3.033  0.5803  0.2173 -0.3415
  503MOL0     C67816  -1.042   5.470   2.978 -0.3873 -0.3769  0.0486
  503MOL0     C67817  -0.945   5.370   2.966 -0.3587  0.3533  0.3995
  503MOL0     O67818  -0.628   5.331   2.682 -0.2671 -0.0743 -0.1968
  503MOL0     C67819  -0.404   5.208   2.760  0.5021  0.4173  0.6170
  503MOL0     C67820  -0.290   5.130   2.772  0.2364  0.4290 -0.2862
  503MOL0     N67821  -0.285   4.417   2.736  0.7028 -0.0059  0.6002
  503MOL0     N67822  -0.322   4.295   2.754 -0.0552  0.2186  0.7751
  503MOL0     C67823   0.418   4.129   3.640 -0.9039  1.4366  0.2478
  503MOL0     C67824   0.549   4.162   3.608  1.1131  1.2054 -0.1033
  503MOL0     C67825   0.882   4.377   3.390 -0.3541  0.0360  0.1601
  503MOL0     C67826   0.922   4.510   3.361  1.1290 -0.5384  0.0659
  503MOL0     C67827   1.049   4.527   3.312 -0.6302 -0.0464  0.2657
  503MOL0     C67828   1.134   4.418   3.279  0.0976 -0.4420  0.7178
  503MOL0     O67829   1.259   4.442   3.228 -0.5282  0.1847  0.0920
  503MOL0     C67830   1.375   4.374   3.291  0.4531  0.0027 -0.0335
  503MOL0     C67831   1.496   4.459   3.256 -0.2055 -0.3860  0.3738
  503MOL0     C67832   1.622   4.422   3.330 -0.5858  0.6136  0.1945
  503MOL0     C67833   1.736   4.511   3.305  0.8454  0.0999 -0.7077
  503MOL0     C67834   1.856   4.451   3.366  0.3090 -0.2894  1.0587
  503MOL0     C67835   1.955   4.408   3.430  0.0707  0.4849 -0.6282
  503MOL0     C67836   1.085   4.286   3.306  0.1289 -0.5547  0.1576
  503MOL0     C67837   0.967   4.266   3.375  0.0308  0.4246 -0.5385
  503MOL0     H67838   0.493   4.249   3.288 -0.0120 -1.0767 -0.4751
  503MOL0     H67839   0.275   4.223   3.352 -1.6927  0.7176  0.1934
  503MOL0     H67840   0.085   4.240   3.458 -0.3207 -0.1849 -1.3236
  503MOL0     H67841   0.111   4.065   3.407  0.5217 -1.7831  2.8740
  503MOL0     H67842  -0.081   4.013   3.530  1.7551  0.9484 -1.2850
  503MOL0     H67843  -0.089   4.185   3.600 -0.9706  1.1821 -0.4809
  503MOL0     H67844  -0.260   4.117   3.426 -0.3475  0.4947  0.8217
  503MOL0     H67845  -0.185   4.268   3.402 -2.9837 -0.8187 -0.4606
  503MOL0     H67846  -0.042   4.151   3.231 -0.8250  1.5077  0.4969
  503MOL0     H67847  -0.108   3.992   3.289  1.2543  0.5034 -0.4780
  503MOL0     H67848  -0.323   4.028   3.207  0.4000 -0.3624  0.3708
  503MOL0     H67849  -0.299   4.204   3.172 -0.8125 -0.3902 -0.0287
  503MOL0     H67850  -0.145   4.119   2.983  0.9502 -2.3548 -0.4307
  503MOL0     H67851  -0.171   3.962   3.034  0.4933  0.0715 -1.8226
  503MOL0     H67852  -0.316   4.041   2.839  0.0252 -5.2545  0.8224
  503MOL0     H67853  -0.414   3.964   2.970 -1.6544  1.4574  2.6890
  503MOL0     H67854  -0.458   4.207   3.046 -0.8684  1.6968 -0.7764
  503MOL0     H67855  -0.528   4.153   2.891 -0.7545 -1.0164  2.2625
  503MOL0     H67856  -0.361   4.416   3.059  0.1410 -1.4817  0.4001
  503MOL0     H67857  -0.292   4.692   2.831  1.0111  0.2388 -0.4586
  503MOL0     H67858  -0.214   4.652   2.993  0.8249 -0.9579  0.8660
  503MOL0     H67859  -0.102   4.634   2.716  0.9023 -0.0496  0.5662
  503MOL0     H67860  -0.015   4.570   2.854  0.0288 -1.8174 -1.1548
  503MOL0     H67861   0.074   4.785   2.814  0.7085  0.3274  1.9981
  503MOL0     H67862  -0.015   4.793   2.968 -0.8532  0.7082  0.0570
  503MOL0     H67863  -0.140   4.890   2.719  0.1769  2.0451  0.1081
  503MOL0     H67864  -0.019   4.981   2.791 -1.5386  1.0666 -0.5030
  503MOL0     H67865  -0.394   4.968   3.056  1.2948 -0.2333  1.0479
  503MOL0     H67866  -0.575   5.046   3.148  0.4332  1.1112 -0.0498
  503MOL0     H67867  -0.653   5.178   3.095 -1.4510 -0.3174 -1.1245
  503MOL0     H67868  -0.699   5.029   3.018 -1.7825  1.6415  0.4500
  503MOL0     H67869  -0.728   5.539   2.763  0.5761 -0.9524 -0.0783
  503MOL0     H67870  -0.865   5.712   2.796 -0.5243  1.0374  0.9638
  503MOL0     H67871  -1.205   5.644   3.112  0.5178 -1.5082 -3.1165
  503MOL0     H67872  -1.048   5.706   3.158 -1.5919 -0.7455  2.7217
  503MOL0     H67873  -1.232   5.867   3.226 -0.7666 -2.6787  0.0478
  503MOL0     H67874  -1.165   5.932   3.069 -1.5713  0.4382 -0.1598
  503MOL0     H67875  -1.396   5.750   3.068 -1.3944  1.1296  1.8490
  503MOL0     H67876  -1.335   5.844   2.940 -0.1236  2.6568  0.0600
  503MOL0     H67877  -1.468   5.940   3.191 -0.6561 -1.4154 -0.0009
  503MOL0     H67878  -1.383   6.056   3.085 -1.1373  1.8323 -4.2724
  503MOL0     H67879  -1.615   5.862   3.001 -1.2083  0.2770  1.4566
  503MOL0     H67880  -1.541   5.976   2.894 -0.6644  3.9889  0.0575
  503MOL0     H67881  -1.702   6.028   3.149 -2.9682  2.5099  0.3029
  503MOL0     H67882  -1.619   6.158   3.060  0.7585 -0.6968 -0.3966
  503MOL0     H67883  -1.761   6.154   2.872  0.4150  2.2004  3.1891
  503MOL0     H67884  -1.852   6.139   3.013 -1.8560  0.1441 -1.9800
  503MOL0     H67885  -1.785   5.906   2.835  0.8326 -0.7687  0.9877
  503MOL0     H67886  -1.949   5.987   2.845  1.6112  2.4044  0.1010
  503MOL0     H67887  -1.131   5.450   3.035 -0.0772  0.6724  0.9271
  503MOL0     H67888  -0.960   5.275   3.017 -2.2034 -0.0588 -0.8014
  503MOL0     H67889  -0.420   5.264   2.668 -1.6212  0.3908  0.9148
  503MOL0     H67890  -0.213   5.136   2.696 -1.7787  1.5073 -2.3681
  503MOL0     H67891   0.391   4.079   3.733 -1.4152 -0.2464 -0.7732
  503MOL0     H67892   0.636   4.139   3.669  0.5437 -1.3250 -0.1316
  503MOL0     H67893   0.847   4.583   3.391  3.2652  1.3733  1.0294
  503MOL0     H67894   1.079   4.631   3.313  0.2594 -0.3025  1.1711
  503MOL0     H67895   1.358   4.343   3.395 -0.4682 -1.6962 -0.6612
  503MOL0     H67896   1.389   4.280   3.238 -0.5571 -0.3571  0.3357
  503MOL0     H67897   1.474   4.564   3.280 -0.2665 -0.0786 -0.9410
  503MOL0     H67898   1.520   4.440   3.151  1.7493 -0.4718  0.7913
  503MOL0     H67899   1.653   4.318   3.314  1.6073  0.7729  2.7042
  503MOL0     H67900   1.591   4.428   3.435 -4.7868  0.3442 -0.8567
  503MOL0     H67901   1.720   4.612   3.345  3.0943  2.0610 -4.2233
  503MOL0     H67902   1.748   4.513   3.196  1.6419  1.1972 -0.6153
  503MOL0     H67903   2.038   4.383   3.493 -0.7989  0.9604  0.7767
  503MOL0     H67904   1.169   4.221   3.279  2.2161  1.8186  0.5660
  503MOL0     H67905   0.933   4.165   3.396 -0.0286  1.0953  3.1248
  504MOL0     O67906   1.315  10.133   8.385 -0.4018  0.5680 -0.2689
  504MOL0     C67907   1.442  10.137   8.362  0.1880  0.0562  0.5167
  504MOL0     O67908   1.511  10.050   8.275 -0.3871  0.0635  0.0181
  504MOL0     C67909   1.438   9.953   8.206  0.3368  0.0060 -0.0267
  504MOL0     C67910   1.316   9.984   8.143  0.1845 -0.0883  0.4626
  504MOL0     C67911   1.254   9.894   8.054  0.1527 -0.2312  1.0612
  504MOL0     C67912   1.306   9.765   8.030  0.3333  0.2631  0.7588
  504MOL0     O67913   1.243   9.681   7.949  0.3103  0.4710  0.1398
  504MOL0     C67914   1.300   9.560   7.906  0.1924  0.2616 -0.1012
  504MOL0     C67915   1.210   9.491   7.804 -0.3607 -0.1960 -0.1390
  504MOL0     C67916   1.067   9.475   7.860  0.1697  0.6658  0.0481
  504MOL0     C67917   0.965   9.381   7.779 -0.5217  0.2921  0.1375
  504MOL0     C67918   0.838   9.366   7.858  0.2097 -0.8034 -0.1291
  504MOL0     C67919   0.735   9.281   7.792  0.2467  0.0810 -0.0317
  504MOL0     C67920   0.604   9.309   7.871  0.5882  0.3900  0.4237
  504MOL0     C67921   0.484   9.225   7.822  0.0994 -0.1645 -0.3811
  504MOL0     N67922   0.357   9.279   7.882  0.2736  0.7080 -0.3505
  504MOL0     C67923   0.318   9.305   8.014  0.9871 -1.0585 -1.3424
  504MOL0     C67924   0.189   9.358   7.998 -0.3320  0.3118 -1.0735
  504MOL0     C67925   0.092   9.389   8.116 -0.3243 -0.2874 -0.4930
  504MOL0     C67926   0.016   9.514   8.074  0.7446 -0.6684  0.4273
  504MOL0     C67927  -0.082   9.564   8.188 -0.3847  0.2561  0.1191
  504MOL0     C67928  -0.192   9.460   8.230 -0.1282 -0.1436  0.1031
  504MOL0     O67929  -0.273   9.441   8.117  0.4290 -0.6272  1.3320
  504MOL0     C67930  -0.395   9.504   8.126 -0.3141 -0.6450 -0.0668
  504MOL0     C67931  -0.426   9.626   8.055 -0.8668  0.3723 -0.3422
  504MOL0     C67932  -0.552   9.689   8.066 -0.2812  0.4098 -0.5059
  504MOL0     C67933  -0.570   9.821   7.993  0.4023 -0.0370 -0.5871
  504MOL0     C67934  -0.646   9.636   8.153  0.8331 -0.4340 -0.3780
  504MOL0     C67935  -0.770   9.705   8.184 -0.3026 -0.9027  0.4583
  504MOL0     O67936  -0.872   9.624   8.200 -0.6496 -0.0716  0.4802
  504MOL0     C67937  -0.997   9.655   8.241  0.8710  0.4561  0.4691
  504MOL0     C67938  -1.096   9.560   8.205 -0.2323  0.1169  0.5646
  504MOL0     C67939  -1.230   9.593   8.222  0.0256 -0.4896 -0.2972
  504MOL0     C67940  -1.282   9.709   8.281  0.6514 -0.0230 -0.2021
  504MOL0     O67941  -1.411   9.736   8.314 -0.5767  0.0698 -0.4638
  504MOL0     C67942  -1.508   9.638   8.318 -0.1204 -0.1598 -0.1273
  504MOL0     C67943  -1.620   9.681   8.414 -0.4155  0.5282 -0.1018
  504MOL0     C67944  -1.743   9.601   8.409 -0.1443 -0.3140 -0.0392
  504MOL0     C67945  -1.828   9.597   8.532 -0.2797  0.7743 -0.7216
  504MOL0     C67946  -1.949   9.502   8.502 -0.3422 -0.6083 -0.1081
  504MOL0     C67947  -2.043   9.500   8.622  0.1916  0.7301  0.2394
  504MOL0     C67948  -2.163   9.401   8.597  1.0781  0.1693  0.0457
  504MOL0     C67949  -2.260   9.461   8.492 -0.4136 -0.2407  0.0333
  504MOL0    Cl67950  -2.329   9.617   8.560 -0.4165  0.2232 -0.4378
  504MOL0     C67951  -1.182   9.796   8.330  0.1294 -0.2741  0.5503
  504MOL0     C67952  -1.043   9.773   8.307  0.4880  0.7436 -0.2739
  504MOL0     O67953  -0.769   9.823   8.210  1.1247 -0.0489  1.0924
  504MOL0     C67954  -0.622   9.518   8.219  0.0671 -0.3094  1.0892
  504MOL0     C67955  -0.504   9.446   8.200 -0.2231 -0.3627 -0.8945
  504MOL0     N67956   0.158   9.357   7.871 -0.2519 -0.1737  0.5965
  504MOL0     N67957   0.251   9.304   7.791  0.2706 -0.4450 -0.1641
  504MOL0     C67958   1.420   9.738   8.106 -0.7095 -0.2865  0.1318
  504MOL0     C67959   1.485   9.823   8.192 -0.1959 -0.1626  0.3064
  504MOL0     C67960   1.522  10.243   8.434  0.1142 -0.0312  1.0298
  504MOL0     C67961   1.455  10.316   8.532 -0.5561  0.0422 -0.7444
  504MOL0     C67962   1.530  10.420   8.586  0.4012  0.1233 -0.1324
  504MOL0     C67963   1.658  10.448   8.546 -0.6483  0.4191 -0.1881
  504MOL0     O67964   1.731  10.545   8.601 -0.0033 -1.0850 -0.3706
  504MOL0     C67965   1.739  10.548   8.744  0.4716  0.6098  0.1565
  504MOL0     C67966   1.886  10.580   8.783  0.0539 -0.5368 -1.0292
  504MOL0     C67967   1.895  10.640   8.926  0.6203  0.3832 -0.3554
  504MOL0     C67968   2.031  10.611   8.982 -0.2231 -0.3619 -0.7989
  504MOL0     C67969   2.048  10.627   9.125 -0.4510  0.1884  0.3413
  504MOL0     C67970   2.062  10.633   9.244 -0.0351 -0.8514 -0.2370
  504MOL0     C67971   1.726  10.368   8.451  0.0704  0.2033 -0.3131
  504MOL0     C67972   1.657  10.264   8.392 -1.1986  0.2280  0.4715
  504MOL0     H67973   1.267  10.081   8.145  2.0327  1.0075 -2.0487
  504MOL0     H67974   1.163   9.928   8.005  0.0305 -0.2982  1.2386
  504MOL0     H67975   1.394   9.583   7.854 -0.2395 -1.7117 -1.8950
  504MOL0     H67976   1.325   9.489   7.985 -0.5307  0.8540  0.6765
  504MOL0     H67977   1.208   9.541   7.707 -0.3512  2.5365  1.1845
  504MOL0     H67978   1.254   9.393   7.780 -2.2980 -0.8768 -1.1008
  504MOL0     H67979   1.075   9.430   7.960 -0.3118 -1.9990 -1.0197
  504MOL0     H67980   1.027   9.574   7.883 -0.9328  0.5976 -1.4376
  504MOL0     H67981   0.942   9.433   7.686 -1.1669 -0.5715 -0.1986
  504MOL0     H67982   1.004   9.283   7.753  0.3959  0.9472 -1.0418
  504MOL0     H67983   0.852   9.311   7.952  1.7328 -2.6285 -1.3469
  504MOL0     H67984   0.797   9.463   7.884 -1.2646 -1.8369  1.6215
  504MOL0     H67985   0.719   9.309   7.687  0.8915  0.9675  0.0953
  504MOL0     H67986   0.753   9.173   7.790 -0.2642 -0.0197  0.6359
  504MOL0     H67987   0.615   9.283   7.976 -0.1949 -1.5121  0.0747
  504MOL0     H67988   0.584   9.416   7.858 -0.8102  0.0792 -0.2277
  504MOL0     H67989   0.505   9.126   7.863  0.9772 -0.5837 -1.7464
  504MOL0     H67990   0.473   9.227   7.713 -1.1126 -1.9223 -0.3155
  504MOL0     H67991   0.374   9.297   8.106 -1.1393  2.9436  0.5411
  504MOL0     H67992   0.023   9.305   8.121 -1.1865  0.4598  1.0070
  504MOL0     H67993   0.137   9.398   8.216  1.6395 -0.6287 -1.2953
  504MOL0     H67994  -0.048   9.487   7.990 -0.6778 -1.4706  1.7085
  504MOL0     H67995   0.079   9.599   8.048 -0.7810  0.4019  0.0561
  504MOL0     H67996  -0.141   9.648   8.150  2.1961  2.2168  0.1561
  504MOL0     H67997  -0.022   9.588   8.276  2.3343  0.7460 -1.7540
  504MOL0     H67998  -0.246   9.508   8.312 -1.4199 -1.9677  0.3668
  504MOL0     H67999  -0.132   9.374   8.259  0.0362  0.0636  0.3873
  504MOL0     H68000  -0.343   9.667   7.998  1.2331 -0.6132  1.8387
  504MOL0     H68001  -0.487   9.832   7.923  2.1254 -0.1800  1.3401
  504MOL0     H68002  -0.668   9.829   7.944 -0.5793 -1.3233  1.0452
  504MOL0     H68003  -0.575   9.902   8.066  0.7530 -0.8822  0.3918
  504MOL0     H68004  -1.053   9.468   8.166  2.1520 -0.0644  3.3079
  504MOL0     H68005  -1.302   9.519   8.189  0.2969 -0.2718 -1.3930
  504MOL0     H68006  -1.538   9.619   8.215  3.3853  0.9047 -1.4907
  504MOL0     H68007  -1.461   9.545   8.351  1.3902  0.4348 -0.5353
  504MOL0     H68008  -1.573   9.682   8.513 -0.7695  0.6196  0.0676
  504MOL0     H68009  -1.637   9.786   8.392  1.4030  0.7134 -0.7616
  504MOL0     H68010  -1.716   9.497   8.390 -1.1062 -1.2730  3.1904
  504MOL0     H68011  -1.800   9.639   8.324  5.5320  3.5708 -2.7616
  504MOL0     H68012  -1.774   9.560   8.619 -2.6414  0.4580  0.6909
  504MOL0     H68013  -1.862   9.698   8.558  0.1636  0.7291  0.0524
  504MOL0     H68014  -1.921   9.398   8.486 -2.6845 -1.4259  0.5951
  504MOL0     H68015  -1.994   9.539   8.410  1.5310  0.5398 -0.6104
  504MOL0     H68016  -2.000   9.474   8.719  1.2836  1.7817  0.0641
  504MOL0     H68017  -2.094   9.596   8.633  1.2751  1.3974 -0.3517
  504MOL0     H68018  -2.222   9.386   8.687 -0.9176 -0.8814 -1.3663
  504MOL0     H68019  -2.127   9.300   8.574 -2.9094 -2.0051  2.2909
  504MOL0     H68020  -2.341   9.395   8.459 -1.5604  1.1589 -0.0321
  504MOL0     H68021  -2.206   9.478   8.399 -2.4252  0.0888 -1.1215
  504MOL0     H68022  -1.211   9.879   8.393 -1.3784 -2.1940  2.5445
  504MOL0     H68023  -0.965   9.839   8.344 -0.4256  0.5804  2.1140
  504MOL0     H68024  -0.705   9.468   8.269 -1.5056  2.2135  1.1670
  504MOL0     H68025  -0.490   9.352   8.252 -0.0286  0.5585  0.7905
  504MOL0     H68026   1.481   9.648   8.095  1.3808  1.0680  0.1640
  504MOL0     H68027   1.583   9.805   8.236  0.3693 -0.6587 -1.1092
  504MOL0     H68028   1.362  10.279   8.573 -0.4487 -0.3085 -0.8152
  504MOL0     H68029   1.488  10.481   8.665 -0.9189 -2.3616  1.2067
  504MOL0     H68030   1.673  10.622   8.789  2.4471  2.1341  0.7191
  504MOL0     H68031   1.718  10.447   8.779 -0.9468  0.6722 -0.4789
  504MOL0     H68032   1.932  10.655   8.718  2.3929  0.3986  1.5236
  504MOL0     H68033   1.952  10.495   8.766  0.8296 -0.0440 -0.5567
  504MOL0     H68034   1.822  10.584   8.984  1.4019 -2.4378 -1.8993
  504MOL0     H68035   1.882  10.748   8.937 -3.0481  0.1114 -0.9521
  504MOL0     H68036   2.100  10.664   8.916 -2.1783  0.1502 -2.5614
  504MOL0     H68037   2.050  10.505   8.961 -0.0334 -0.0791 -2.1863
  504MOL0     H68038   2.067  10.639   9.351 -3.7213 -0.3382  0.0504
  504MOL0     H68039   1.828  10.397   8.426 -0.4272 -0.1217 -3.0037
  504MOL0     H68040   1.709  10.192   8.329 -0.1309  1.5020 -0.1381
  505MOL0     O68041   6.539   4.086   6.500 -0.4078  0.5866 -0.2556
  505MOL0     C68042   6.513   4.020   6.399  1.3377  0.8395  0.0908
  505MOL0     O68043   6.400   4.027   6.318  0.5333 -0.2670  0.2835
  505MOL0     C68044   6.309   4.128   6.325  0.0723 -0.0446  0.1201
  505MOL0     C68045   6.342   4.259   6.371 -0.6535 -0.7542  0.6819
  505MOL0     C68046   6.253   4.366   6.369  1.0032 -0.3172  0.8070
  505MOL0     C68047   6.121   4.334   6.327 -0.2847  0.3506 -0.0141
  505MOL0     O68048   6.026   4.438   6.336 -0.5135 -0.1879 -0.3680
  505MOL0     C68049   5.935   4.443   6.226  0.2525 -0.1079  0.2380
  505MOL0     C68050   5.859   4.573   6.242 -0.5037 -0.5193  0.1160
  505MOL0     C68051   5.750   4.590   6.132 -1.0180 -0.1844 -0.1468
  505MOL0     C68052   5.680   4.722   6.124  0.1128 -0.2302 -0.9490
  505MOL0     C68053   5.533   4.721   6.071 -0.0886 -0.0480  0.7482
  505MOL0     C68054   5.513   4.633   5.944 -0.3465 -0.0211 -1.3469
  505MOL0     C68055   5.391   4.668   5.870 -0.4228 -0.6003  0.2961
  505MOL0     C68056   5.268   4.631   5.960 -0.0424  0.3043 -0.0971
  505MOL0     N68057   5.155   4.582   5.882  0.7108 -0.1578 -0.6130
  505MOL0     C68058   5.108   4.611   5.756  0.3321 -0.1264  0.3351
  505MOL0     C68059   4.995   4.535   5.729 -0.9487 -0.3247 -0.2318
  505MOL0     C68060   4.913   4.542   5.607 -0.9701  0.3839  0.8293
  505MOL0     C68061   4.797   4.442   5.588 -0.2083 -0.0877 -0.2640
  505MOL0     C68062   4.736   4.438   5.446  0.7317  0.2876  0.7430
  505MOL0     C68063   4.610   4.361   5.450 -0.4756  0.3498 -0.0371
  505MOL0     O68064   4.579   4.335   5.312  0.8610 -0.2760 -0.1415
  505MOL0     C68065   4.496   4.235   5.269  0.5729  0.6639  0.8993
  505MOL0     C68066   4.491   4.206   5.132 -0.3053  0.0936 -0.0794
  505MOL0     C68067   4.411   4.105   5.079 -0.3479 -0.2124 -0.1859
  505MOL0     C68068   4.405   4.094   4.926 -0.0206 -0.3794  0.1770
  505MOL0     C68069   4.336   4.024   5.162  0.3889  0.5252  0.4585
  505MOL0     C68070   4.253   3.910   5.121  0.0429  0.9768 -0.3545
  505MOL0     O68071   4.161   3.870   5.219 -0.1799  0.4885 -0.3160
  505MOL0     C68072   4.065   3.779   5.176 -0.6712 -0.2029  0.1609
  505MOL0     C68073   4.059   3.655   5.238  0.0337 -0.4204  0.2663
  505MOL0     C68074   3.960   3.561   5.197 -0.3515  0.5704 -0.2150
  505MOL0     C68075   3.873   3.592   5.094 -0.0129  0.4408  0.5135
  505MOL0     O68076   3.789   3.506   5.035 -0.0843 -1.0145  0.1075
  505MOL0     C68077   3.691   3.443   5.119  0.7838 -0.4933 -0.9630
  505MOL0     C68078   3.585   3.535   5.166  0.6092 -0.2221 -0.2628
  505MOL0     C68079   3.470   3.452   5.221 -0.2452 -0.0044 -0.4989
  505MOL0     C68080   3.342   3.544   5.239 -0.1614 -0.0163 -0.2362
  505MOL0     C68081   3.227   3.455   5.274  0.9228 -0.4345  0.8145
  505MOL0     C68082   3.105   3.522   5.335 -0.3814  0.6440 -1.1147
  505MOL0     C68083   2.997   3.417   5.373 -0.3749  0.3231  0.1538
  505MOL0     C68084   2.867   3.484   5.377 -0.6966  0.4319 -0.5544
  505MOL0    Cl68085   2.862   3.620   5.493  0.3904  0.2316 -0.4487
  505MOL0     C68086   3.871   3.720   5.048 -0.0934 -0.1899 -0.0843
  505MOL0     C68087   3.965   3.815   5.085 -0.9042  0.2016 -0.3271
  505MOL0     O68088   4.266   3.852   5.018 -0.6761 -0.4323  0.5943
  505MOL0     C68089   4.328   4.066   5.294  0.2165  0.5643  0.3623
  505MOL0     C68090   4.403   4.171   5.354 -0.0772 -0.2382  1.3499
  505MOL0     N68091   4.981   4.464   5.842  0.0357 -0.0548 -0.1514
  505MOL0     N68092   5.074   4.488   5.934  0.4482  0.7177 -0.2029
  505MOL0     C68093   6.078   4.200   6.296 -0.0394  0.0702 -0.1050
  505MOL0     C68094   6.178   4.100   6.278 -0.1266  0.4302  0.5048
  505MOL0     C68095   6.628   3.940   6.348  0.0480 -0.2941  0.2856
  505MOL0     C68096   6.757   3.940   6.399  0.4491 -0.0536 -0.3809
  505MOL0     C68097   6.849   3.849   6.348 -0.9964 -0.7936  0.2488
  505MOL0     C68098   6.824   3.765   6.242 -0.5043 -0.7414 -0.4192
  505MOL0     O68099   6.910   3.674   6.190 -0.8050 -0.7126  0.1638
  505MOL0     C68100   7.021   3.631   6.270 -0.5805  2.0586  0.8262
  505MOL0     C68101   7.048   3.480   6.223 -0.7303 -0.0935 -0.1589
  505MOL0     C68102   7.172   3.428   6.301  0.1473 -0.0276 -0.1790
  505MOL0     C68103   7.198   3.285   6.254 -0.2079  0.3308  0.1222
  505MOL0     C68104   7.324   3.238   6.317 -0.2476  1.3075 -0.1210
  505MOL0     C68105   7.427   3.210   6.374 -0.0780 -0.1430 -0.2297
  505MOL0     C68106   6.699   3.769   6.182 -0.3639  0.7257 -1.7102
  505MOL0     C68107   6.611   3.863   6.231  0.4812 -0.0355 -0.6345
  505MOL0     H68108   6.439   4.260   6.421  0.5550 -3.5293 -1.3031
  505MOL0     H68109   6.288   4.462   6.406  2.6884 -0.2090 -0.8897
  505MOL0     H68110   5.984   4.460   6.129  0.9272 -0.9689  0.4107
  505MOL0     H68111   5.869   4.357   6.212  0.6247 -0.4152  0.3446
  505MOL0     H68112   5.830   4.588   6.346 -1.4016 -0.3269 -0.1609
  505MOL0     H68113   5.936   4.649   6.224  0.0870 -0.3831  2.7953
  505MOL0     H68114   5.799   4.567   6.037  0.2746 -0.5278  0.5820
  505MOL0     H68115   5.682   4.505   6.143  0.3978 -1.4598 -0.9661
  505MOL0     H68116   5.672   4.762   6.226 -1.9990 -0.5273 -0.9419
  505MOL0     H68117   5.741   4.788   6.062  2.5997  0.4670  2.0227
  505MOL0     H68118   5.460   4.684   6.144 -3.0497 -0.5703 -2.2249
  505MOL0     H68119   5.513   4.825   6.044 -1.0427 -0.8707 -2.0591
  505MOL0     H68120   5.601   4.645   5.880  1.3297 -2.5464  0.3087
  505MOL0     H68121   5.512   4.528   5.974  1.1645  0.0569 -0.9008
  505MOL0     H68122   5.385   4.775   5.848 -0.4705 -0.4974  0.7910
  505MOL0     H68123   5.398   4.604   5.782 -1.9804 -2.2771  1.3171
  505MOL0     H68124   5.230   4.722   6.007 -0.8031 -1.1541  2.3346
  505MOL0     H68125   5.295   4.564   6.042 -0.2370 -0.0627 -0.3295
  505MOL0     H68126   5.145   4.687   5.688  0.1172 -0.7999 -0.5460
  505MOL0     H68127   4.859   4.636   5.615 -1.0155  0.4301 -0.0217
  505MOL0     H68128   4.979   4.534   5.520 -0.0352 -1.9245  1.6698
  505MOL0     H68129   4.720   4.473   5.659  0.2329  0.8440 -0.1744
  505MOL0     H68130   4.838   4.346   5.618 -0.1643  0.1432  0.4308
  505MOL0     H68131   4.816   4.384   5.394  1.2127  0.0342  1.7247
  505MOL0     H68132   4.717   4.531   5.392  1.2630 -0.2524 -0.4132
  505MOL0     H68133   4.541   4.426   5.504  0.4787  0.5580  0.9688
  505MOL0     H68134   4.638   4.270   5.504  3.3333  0.3888 -1.6422
  505MOL0     H68135   4.550   4.262   5.059  1.7347 -2.0593 -0.1864
  505MOL0     H68136   4.484   4.023   4.899 -0.7778 -1.0799 -0.2614
  505MOL0     H68137   4.309   4.054   4.893  0.1737 -0.6869 -0.0206
  505MOL0     H68138   4.417   4.190   4.876 -1.0022 -0.5595 -0.4356
  505MOL0     H68139   4.134   3.636   5.313  1.6866 -2.2020 -1.6920
  505MOL0     H68140   3.979   3.461   5.235  1.2331  1.5095  1.6673
  505MOL0     H68141   3.650   3.368   5.051  0.3920 -0.4001 -0.8288
  505MOL0     H68142   3.740   3.389   5.201  0.0850 -1.2589 -1.0365
  505MOL0     H68143   3.632   3.597   5.243 -0.7834 -0.4079  0.7861
  505MOL0     H68144   3.562   3.607   5.088  0.8770  1.7331  1.3784
  505MOL0     H68145   3.504   3.419   5.320 -0.5984  0.4708 -0.2108
  505MOL0     H68146   3.447   3.365   5.159 -0.5451  0.1872 -0.6594
  505MOL0     H68147   3.367   3.620   5.314  2.0983 -0.8992 -0.0032
  505MOL0     H68148   3.323   3.598   5.146  1.0887 -0.1816 -0.6058
  505MOL0     H68149   3.263   3.390   5.355 -2.5221 -2.0639  1.2108
  505MOL0     H68150   3.191   3.396   5.189 -0.6753  3.2985 -1.3537
  505MOL0     H68151   3.133   3.583   5.421  2.2233  0.1447 -1.5264
  505MOL0     H68152   3.082   3.603   5.266  0.9558  1.9831 -0.0461
  505MOL0     H68153   3.018   3.366   5.468  1.2821 -0.8646 -0.8065
  505MOL0     H68154   2.992   3.358   5.281  1.3634  2.8386 -1.6723
  505MOL0     H68155   2.792   3.409   5.406 -0.9404  0.1333 -1.8808
  505MOL0     H68156   2.842   3.516   5.276 -0.8042  0.7717 -0.4212
  505MOL0     H68157   3.803   3.751   4.969  1.3291  2.0999 -0.5167
  505MOL0     H68158   3.968   3.915   5.042 -1.3588 -0.0606 -0.9770
  505MOL0     H68159   4.271   4.008   5.365  1.1854  1.1920  1.7082
  505MOL0     H68160   4.392   4.190   5.460 -2.6625  2.5037  0.7039
  505MOL0     H68161   5.973   4.178   6.280  0.2792 -0.2135 -2.1862
  505MOL0     H68162   6.161   3.996   6.252  0.8480 -0.3736  2.8254
  505MOL0     H68163   6.782   4.003   6.484 -1.7258 -0.0566  0.3320
  505MOL0     H68164   6.942   3.848   6.404 -1.0701 -1.3197  0.3719
  505MOL0     H68165   7.107   3.695   6.246  1.4351  0.3293  2.9460
  505MOL0     H68166   6.995   3.627   6.376 -1.9342 -1.0770  0.4904
  505MOL0     H68167   7.077   3.480   6.117  2.7522  2.8121  0.5666
  505MOL0     H68168   6.957   3.421   6.235 -1.1510  0.5774  0.0217
  505MOL0     H68169   7.151   3.433   6.408  0.9384 -1.0030  0.0399
  505MOL0     H68170   7.265   3.486   6.296  0.7973 -0.3644  4.0481
  505MOL0     H68171   7.209   3.284   6.145 -2.2630 -1.2346 -0.1158
  505MOL0     H68172   7.116   3.219   6.283  1.3773 -2.8346 -2.0248
  505MOL0     H68173   7.524   3.191   6.414  1.1537  1.2315 -2.3698
  505MOL0     H68174   6.678   3.694   6.107  1.6960 -1.5814 -0.1551
  505MOL0     H68175   6.515   3.858   6.181  1.6427  2.8335 -3.4474
  506MOL0     O68176   2.737   9.502   8.323  0.3213 -0.3361 -0.5808
  506MOL0     C68177   2.726   9.437   8.426 -0.7096  0.0783 -0.2092
  506MOL0     O68178   2.624   9.343   8.450  0.1746  0.3408  0.1116
  506MOL0     C68179   2.542   9.328   8.347 -0.1891  0.5992 -1.2650
  506MOL0     C68180   2.576   9.266   8.226  0.7724  0.5317  0.4197
  506MOL0     C68181   2.472   9.212   8.156  0.3877  0.0138  0.2155
  506MOL0     C68182   2.337   9.235   8.169 -0.2426 -0.0842 -0.9086
  506MOL0     O68183   2.241   9.185   8.085 -0.6214 -0.2666 -0.4372
  506MOL0     C68184   2.104   9.166   8.126  0.2294  0.3650 -0.6021
  506MOL0     C68185   2.014   9.173   7.999  0.6942 -0.2737 -0.3304
  506MOL0     C68186   1.878   9.100   8.029  0.8126 -0.2445  0.3582
  506MOL0     C68187   1.832   9.000   7.927 -0.1987 -0.8045 -0.0362
  506MOL0     C68188   1.926   8.876   7.954  0.8444 -0.1986 -0.0746
  506MOL0     C68189   1.892   8.762   7.856  0.1985 -0.8877 -0.1935
  506MOL0     C68190   1.979   8.638   7.876  0.2986  0.3956  0.4418
  506MOL0     C68191   1.953   8.554   8.004 -0.5163 -0.5038 -0.2226
  506MOL0     N68192   1.818   8.512   8.016  0.4407 -0.5357  0.2738
  506MOL0     C68193   1.733   8.475   7.916  0.4630 -0.0285  0.2011
  506MOL0     C68194   1.608   8.479   7.966  0.2052  0.5807 -0.3343
  506MOL0     C68195   1.495   8.429   7.890  1.0769 -0.4386  0.4325
  506MOL0     C68196   1.407   8.334   7.964  0.6489 -0.1978  0.5273
  506MOL0     C68197   1.272   8.304   7.895  0.2620  0.5002 -0.0908
  506MOL0     C68198   1.169   8.214   7.972  0.3921 -0.7198 -0.4900
  506MOL0     O68199   1.041   8.220   7.897 -0.3637  0.6208 -0.2664
  506MOL0     C68200   0.925   8.159   7.952 -0.6683 -0.8737 -0.8710
  506MOL0     C68201   0.829   8.106   7.869 -0.3120 -0.6951  0.6300
  506MOL0     C68202   0.706   8.060   7.914  0.5260 -0.2252  0.5144
  506MOL0     C68203   0.600   8.007   7.819 -0.2036  0.0569 -0.1135
  506MOL0     C68204   0.676   8.055   8.055  0.6379 -0.1037 -0.3420
  506MOL0     C68205   0.548   8.000   8.118 -0.2545  0.3991 -0.5968
  506MOL0     O68206   0.438   7.949   8.046 -0.0446 -0.2471 -0.5421
  506MOL0     C68207   0.331   7.893   8.096  0.5327  0.6149 -0.2771
  506MOL0     C68208   0.270   7.923   8.226 -0.7461  0.2357  0.3408
  506MOL0     C68209   0.151   7.862   8.272  0.6660  0.5799  1.3940
  506MOL0     C68210   0.085   7.767   8.179  0.3899 -1.0489 -0.2224
  506MOL0     O68211  -0.041   7.707   8.202 -0.4042  0.6242  0.6736
  506MOL0     C68212  -0.063   7.668   8.340  0.2213 -0.1149  0.3039
  506MOL0     C68213  -0.187   7.582   8.335  0.0962  0.3349 -0.4342
  506MOL0     C68214  -0.231   7.526   8.472 -0.2203  0.3530 -0.5389
  506MOL0     C68215  -0.241   7.616   8.605 -0.3922  0.2898  0.0861
  506MOL0     C68216  -0.331   7.737   8.587  0.1100 -0.1159 -0.2162
  506MOL0     C68217  -0.473   7.711   8.533 -0.2764 -0.2079 -0.5986
  506MOL0     C68218  -0.561   7.627   8.623  0.3937 -0.0692  0.3655
  506MOL0     C68219  -0.709   7.652   8.616  0.1587  0.3648  0.1237
  506MOL0    Cl68220  -0.795   7.542   8.731 -0.2074 -0.4061  0.1717
  506MOL0     C68221   0.144   7.740   8.057 -0.1996 -0.6694 -0.3740
  506MOL0     C68222   0.272   7.799   8.018 -0.3939 -0.1863 -1.1111
  506MOL0     O68223   0.557   8.002   8.244  0.1128 -0.2789  0.3495
  506MOL0     C68224   0.782   8.103   8.142  0.0792 -1.0320 -0.2381
  506MOL0     C68225   0.899   8.155   8.087 -0.3750  0.5065 -1.0385
  506MOL0     N68226   1.617   8.517   8.102  0.2428  0.6600  0.6270
  506MOL0     N68227   1.742   8.531   8.125  0.1748  0.4776  0.2293
  506MOL0     C68228   2.307   9.304   8.285 -0.8061 -0.1460 -0.0590
  506MOL0     C68229   2.404   9.355   8.372  0.3078  0.5974  0.6598
  506MOL0     C68230   2.821   9.466   8.527 -0.1735 -0.4134  0.4463
  506MOL0     C68231   2.798   9.419   8.660 -0.4724  0.0294  0.4915
  506MOL0     C68232   2.897   9.427   8.763 -0.1004  0.3644  0.4922
  506MOL0     C68233   3.017   9.485   8.738 -0.4832 -0.0397  0.4510
  506MOL0     O68234   3.098   9.489   8.852  0.8371 -0.4351 -0.0916
  506MOL0     C68235   3.208   9.573   8.854 -0.4730  0.3710  0.6128
  506MOL0     C68236   3.339   9.504   8.795  0.0931 -0.1346 -0.5665
  506MOL0     C68237   3.427   9.481   8.916  0.2776  0.8117  0.5331
  506MOL0     C68238   3.574   9.453   8.895 -0.0305 -0.0655 -0.5421
  506MOL0     C68239   3.635   9.402   9.011 -0.6594 -0.1102  0.5888
  506MOL0     C68240   3.689   9.334   9.099  0.3365  0.2647  0.0142
  506MOL0     C68241   3.028   9.552   8.611 -0.8163  0.0290 -0.5684
  506MOL0     C68242   2.934   9.541   8.510 -0.1490 -0.8362 -0.0838
  506MOL0     H68243   2.673   9.224   8.201  0.1353 -0.3539 -0.6562
  506MOL0     H68244   2.502   9.137   8.083 -0.2921 -0.2714  0.2221
  506MOL0     H68245   2.102   9.068   8.176  0.4524  1.4392  1.6237
  506MOL0     H68246   2.063   9.220   8.211  0.5084 -0.9331  0.3943
  506MOL0     H68247   1.990   9.276   7.974 -2.0498 -1.1240 -1.5762
  506MOL0     H68248   2.071   9.144   7.910  0.6332  2.2352 -1.2559
  506MOL0     H68249   1.879   9.057   8.129  1.9589 -0.7620  0.1376
  506MOL0     H68250   1.799   9.175   8.017  2.0911  1.1513  0.3150
  506MOL0     H68251   1.731   8.969   7.956  0.2543  0.3554  3.1597
  506MOL0     H68252   1.837   9.044   7.827 -1.5181  2.5537  1.2472
  506MOL0     H68253   2.031   8.906   7.955  1.1012 -0.9125  2.9949
  506MOL0     H68254   1.907   8.840   8.056 -1.0283  2.8304  0.7952
  506MOL0     H68255   1.784   8.749   7.860 -0.2379  1.6656 -1.4334
  506MOL0     H68256   1.921   8.804   7.759 -1.3560 -0.8894 -0.6877
  506MOL0     H68257   1.964   8.572   7.789  2.0796 -0.9447  1.1107
  506MOL0     H68258   2.085   8.658   7.865  0.3009  0.3566  0.3905
  506MOL0     H68259   1.968   8.626   8.084 -1.8047  0.8648 -1.1592
  506MOL0     H68260   2.030   8.477   8.012  0.9915  1.0918  1.6281
  506MOL0     H68261   1.751   8.433   7.817 -0.6373 -0.7913  0.3159
  506MOL0     H68262   1.430   8.516   7.874  1.0927 -0.2832  1.1771
  506MOL0     H68263   1.525   8.373   7.801 -0.7130 -0.6686 -0.0764
  506MOL0     H68264   1.393   8.364   8.068  3.5842  0.0846  0.9354
  506MOL0     H68265   1.461   8.241   7.981  0.0833 -0.3560  1.5188
  506MOL0     H68266   1.299   8.238   7.812 -0.3253 -2.0945  1.6689
  506MOL0     H68267   1.226   8.387   7.842  0.6026  2.0182  1.8798
  506MOL0     H68268   1.172   8.252   8.075  0.4350 -0.8043 -0.4601
  506MOL0     H68269   1.208   8.112   7.974  0.1084 -0.8320  1.0814
  506MOL0     H68270   0.871   8.106   7.769  0.8278  1.8403  1.0163
  506MOL0     H68271   0.638   8.021   7.717 -0.1148  1.3590  0.0721
  506MOL0     H68272   0.576   7.904   7.844 -1.3453  0.2151 -0.4983
  506MOL0     H68273   0.514   8.067   7.849  1.0665  0.8589  2.2034
  506MOL0     H68274   0.310   8.003   8.289 -1.7235 -0.5219  1.9992
  506MOL0     H68275   0.106   7.898   8.364  0.9140  0.0176  1.7405
  506MOL0     H68276   0.025   7.618   8.381 -0.4350 -1.2932  0.3168
  506MOL0     H68277  -0.091   7.763   8.388  1.6911  0.6843 -0.3567
  506MOL0     H68278  -0.276   7.641   8.315  0.9552  1.2915 -1.5822
  506MOL0     H68279  -0.163   7.493   8.275  0.2392 -0.8215  1.2573
  506MOL0     H68280  -0.155   7.450   8.498  1.5938  2.3707  0.3853
  506MOL0     H68281  -0.325   7.472   8.458  0.4095 -0.6072 -1.1983
  506MOL0     H68282  -0.272   7.558   8.693  1.0599 -4.0611 -1.9676
  506MOL0     H68283  -0.139   7.649   8.626  0.1248  0.0853 -1.9401
  506MOL0     H68284  -0.275   7.792   8.510 -0.1764  1.7437  0.8341
  506MOL0     H68285  -0.339   7.797   8.678 -2.6342  0.8133 -0.9905
  506MOL0     H68286  -0.521   7.808   8.525 -0.9851 -0.5756 -0.8698
  506MOL0     H68287  -0.465   7.678   8.429  1.9213  1.9364 -1.2062
  506MOL0     H68288  -0.535   7.652   8.726 -1.0059 -1.4662  1.0967
  506MOL0     H68289  -0.537   7.522   8.602  1.1137  0.7518 -3.9753
  506MOL0     H68290  -0.736   7.611   8.518  0.0002 -2.0682  1.0992
  506MOL0     H68291  -0.728   7.759   8.616 -0.7937  0.2069  0.8652
  506MOL0     H68292   0.098   7.669   7.989  0.1136 -0.3836 -0.8958
  506MOL0     H68293   0.317   7.782   7.921 -0.8355  3.1809 -2.0230
  506MOL0     H68294   0.766   8.126   8.247 -1.0671  1.8055 -0.9549
  506MOL0     H68295   0.977   8.188   8.155 -1.7581  1.1645  0.2812
  506MOL0     H68296   2.207   9.323   8.323 -0.4466  1.0733  0.3072
  506MOL0     H68297   2.386   9.409   8.465 -1.3084  1.1689  0.0382
  506MOL0     H68298   2.705   9.368   8.683 -1.2010  2.0910  2.4196
  506MOL0     H68299   2.876   9.389   8.862 -1.3343 -1.6349 -0.4479
  506MOL0     H68300   3.188   9.662   8.794 -0.0959  0.3143  0.3953
  506MOL0     H68301   3.217   9.610   8.956  0.9150 -0.2460  0.7370
  506MOL0     H68302   3.401   9.572   8.736  0.6145  0.3128  0.4655
  506MOL0     H68303   3.322   9.411   8.742  2.5464 -1.8263  1.3948
  506MOL0     H68304   3.392   9.391   8.968  1.8875  1.4581  2.9001
  506MOL0     H68305   3.411   9.565   8.985 -1.3433  1.0651 -0.0982
  506MOL0     H68306   3.626   9.548   8.875  1.1239 -0.3369  1.0217
  506MOL0     H68307   3.583   9.386   8.809 -2.4827  1.1767 -1.8686
  506MOL0     H68308   3.747   9.282   9.173  1.3527  1.1335 -0.1469
  506MOL0     H68309   3.114   9.617   8.592 -0.9587  0.7461  0.9976
  506MOL0     H68310   2.941   9.597   8.417 -2.6708  0.0010  0.1504
  507MOL0     O68311   2.140  10.855   5.743 -0.2203  0.2036 -0.1104
  507MOL0     C68312   2.131  10.972   5.719  0.2180 -0.8117  0.7147
  507MOL0     O68313   2.016  11.040   5.708 -0.2021 -0.8469  0.0597
  507MOL0     C68314   1.892  10.981   5.715  0.8028  0.8747 -0.5237
  507MOL0     C68315   1.853  10.889   5.816 -0.4333 -0.7241  0.3749
  507MOL0     C68316   1.723  10.826   5.807 -0.8345  0.2689 -0.1812
  507MOL0     C68317   1.622  10.863   5.719 -1.3523 -1.0185  0.5298
  507MOL0     O68318   1.501  10.797   5.736 -0.0234  0.7509 -0.2462
  507MOL0     C68319   1.392  10.842   5.655  0.5350  0.7438  0.3744
  507MOL0     C68320   1.272  10.774   5.720 -0.9162  0.8169  0.1141
  507MOL0     C68321   1.140  10.798   5.645 -0.3428 -0.3161 -0.6778
  507MOL0     C68322   1.018  10.732   5.717  0.2810 -0.4343  0.1039
  507MOL0     C68323   0.882  10.759   5.650  0.5128 -0.7696  0.2561
  507MOL0     C68324   0.843  10.899   5.687 -0.0981  0.0039  0.1581
  507MOL0     C68325   0.697  10.924   5.619  0.5671  0.1013 -0.6235
  507MOL0     C68326   0.649  11.073   5.631 -0.0614  0.2737 -0.3908
  507MOL0     N68327   0.525  11.086   5.566  1.0219 -0.6288  0.0110
  507MOL0     C68328   0.400  11.087   5.626 -0.1881 -0.1437  0.5188
  507MOL0     C68329   0.306  11.109   5.536 -0.5222 -0.0797 -0.5688
  507MOL0     C68330   0.160  11.096   5.551 -0.8922  0.0326 -0.4064
  507MOL0     C68331   0.117  10.941   5.567  0.2060  0.5247 -0.7014
  507MOL0     C68332   0.116  10.860   5.436  0.4752  0.0604  0.6269
  507MOL0     C68333  -0.015  10.893   5.365 -0.5730  0.1384  0.2606
  507MOL0     O68334  -0.038  10.809   5.246  1.2179  0.3808 -0.1857
  507MOL0     C68335  -0.166  10.787   5.210 -0.2421  0.6638 -0.2430
  507MOL0     C68336  -0.202  10.677   5.135  0.7367 -0.1684  0.0286
  507MOL0     C68337  -0.327  10.660   5.082  0.0829 -0.8349  0.2600
  507MOL0     C68338  -0.356  10.546   4.987 -0.3359  0.6457 -0.1651
  507MOL0     C68339  -0.430  10.744   5.124 -0.0660  0.0648 -0.5577
  507MOL0     C68340  -0.569  10.724   5.083 -0.3408  0.0716  0.2302
  507MOL0     O68341  -0.655  10.764   5.175 -0.1836  0.5476 -0.6267
  507MOL0     C68342  -0.784  10.763   5.144  0.2408  0.5286 -0.3794
  507MOL0     C68343  -0.876  10.671   5.194 -0.5750  0.3974 -0.4360
  507MOL0     C68344  -1.009  10.669   5.157  0.4742  1.1786  0.0800
  507MOL0     C68345  -1.047  10.753   5.059 -1.2789  0.1251  0.8663
  507MOL0     O68346  -1.169  10.745   5.000 -0.1478  0.0328  0.3770
  507MOL0     C68347  -1.258  10.635   5.026  0.5938 -0.1848  0.4482
  507MOL0     C68348  -1.366  10.643   4.919  0.1455 -0.5579  0.1353
  507MOL0     C68349  -1.444  10.775   4.919  0.0394 -0.6290 -0.6178
  507MOL0     C68350  -1.576  10.780   4.851  0.9580  0.2108  0.0623
  507MOL0     C68351  -1.683  10.704   4.934 -0.5879 -0.3930 -0.7096
  507MOL0     C68352  -1.795  10.666   4.830  0.0314  0.0943 -1.1879
  507MOL0     C68353  -1.925  10.640   4.902 -0.3942 -0.5767 -0.1725
  507MOL0     C68354  -2.017  10.759   4.922 -0.0947 -0.1081 -0.0760
  507MOL0    Cl68355  -2.152  10.718   5.036 -0.5630 -0.2568 -0.5903
  507MOL0     C68356  -0.963  10.845   5.005  0.2639 -0.0729 -0.4856
  507MOL0     C68357  -0.834  10.849   5.052 -0.0471 -0.2980  0.3503
  507MOL0     O68358  -0.596  10.693   4.968  0.4102  0.5068  0.0552
  507MOL0     C68359  -0.400  10.848   5.219 -0.4193  0.5110 -0.4127
  507MOL0     C68360  -0.269  10.871   5.255 -0.2140  0.0100  0.0206
  507MOL0     N68361   0.380  11.128   5.419 -0.3304  0.8033  0.7158
  507MOL0     N68362   0.505  11.117   5.440 -0.2742  0.2448 -0.0125
  507MOL0     C68363   1.665  10.957   5.622 -0.2053  0.0546  0.0876
  507MOL0     C68364   1.790  11.024   5.627 -1.1742  0.2461 -0.6535
  507MOL0     C68365   2.255  11.045   5.700  0.0015  1.1456  0.4168
  507MOL0     C68366   2.261  11.190   5.666 -0.3651  0.4211  0.4043
  507MOL0     C68367   2.390  11.253   5.663 -0.2675 -0.5760 -0.1531
  507MOL0     C68368   2.511  11.178   5.677 -0.4541 -0.8286 -0.2948
  507MOL0     O68369   2.627  11.248   5.685  0.1189 -0.0910 -0.6227
  507MOL0     C68370   2.699  11.227   5.806  0.5477 -0.7166  0.3480
  507MOL0     C68371   2.820  11.317   5.806 -0.7394 -0.2518  0.2204
  507MOL0     C68372   2.908  11.301   5.926  0.4963  0.5637 -0.6564
  507MOL0     C68373   3.049  11.358   5.923  0.4703  0.0924  0.4208
  507MOL0     C68374   3.136  11.303   5.819  0.5336  0.0559 -0.2734
  507MOL0     C68375   3.220  11.258   5.739  0.1399 -0.3434 -1.0920
  507MOL0     C68376   2.497  11.042   5.677 -0.9357 -0.1490 -0.3405
  507MOL0     C68377   2.377  10.969   5.703  0.1557  0.6540  0.1933
  507MOL0     H68378   1.911  10.861   5.903 -0.7678  0.3600  0.9518
  507MOL0     H68379   1.695  10.756   5.886 -1.3327 -1.0409 -1.4627
  507MOL0     H68380   1.378  10.951   5.655 -0.8474  0.6803 -2.8657
  507MOL0     H68381   1.404  10.805   5.553 -0.4259 -0.1070  0.5544
  507MOL0     H68382   1.293  10.667   5.727  0.7793  1.0649 -0.5254
  507MOL0     H68383   1.263  10.816   5.821 -1.2085  0.0676  0.3984
  507MOL0     H68384   1.133  10.907   5.639  1.3262  0.0249  1.9067
  507MOL0     H68385   1.149  10.756   5.544  2.3059  0.1305 -0.7089
  507MOL0     H68386   1.033  10.624   5.705 -0.7118 -0.5254 -0.4053
  507MOL0     H68387   1.013  10.748   5.825  0.9254 -3.0922  0.5977
  507MOL0     H68388   0.872  10.757   5.541 -2.8583  2.3223  0.3214
  507MOL0     H68389   0.804  10.698   5.697 -0.9428 -1.2932 -2.5921
  507MOL0     H68390   0.841  10.920   5.795 -0.3908 -0.4074  0.2352
  507MOL0     H68391   0.918  10.964   5.641  0.5887  0.6534  2.0916
  507MOL0     H68392   0.701  10.897   5.513 -0.7169 -3.7442  0.1201
  507MOL0     H68393   0.626  10.851   5.661  2.3329 -1.3439 -0.0369
  507MOL0     H68394   0.720  11.140   5.580 -0.8009  0.7172 -0.8607
  507MOL0     H68395   0.648  11.098   5.738  0.2287 -0.8918 -0.1101
  507MOL0     H68396   0.373  11.065   5.729 -2.7616 -5.1835 -0.9560
  507MOL0     H68397   0.134  11.143   5.647 -0.2481 -0.7237  0.1519
  507MOL0     H68398   0.106  11.148   5.471  0.0257 -1.4710 -2.0655
  507MOL0     H68399   0.025  10.918   5.621  0.0355  2.7239  0.0551
  507MOL0     H68400   0.192  10.883   5.622 -0.8024 -2.8904 -2.6480
  507MOL0     H68401   0.106  10.753   5.454 -1.5047 -0.2158 -1.5593
  507MOL0     H68402   0.207  10.874   5.377  0.2855  0.3300  0.3955
  507MOL0     H68403  -0.015  10.999   5.335  0.7199 -0.2507 -1.2637
  507MOL0     H68404  -0.088  10.884   5.445  0.0580  1.7142  1.0762
  507MOL0     H68405  -0.129  10.613   5.087  0.3550 -0.2794 -0.4082
  507MOL0     H68406  -0.385  10.581   4.888 -1.8964  4.3046  1.4085
  507MOL0     H68407  -0.269  10.481   4.972  0.3996  1.7097 -0.6258
  507MOL0     H68408  -0.435  10.486   5.032  1.4530  0.1784  2.5817
  507MOL0     H68409  -0.848  10.597   5.268  0.2890  1.8763  0.7596
  507MOL0     H68410  -1.074  10.597   5.205  0.0552  0.2654 -1.7584
  507MOL0     H68411  -1.212  10.535   5.028 -2.0231 -1.5393  3.6974
  507MOL0     H68412  -1.299  10.644   5.127  1.7066  0.1458  0.8872
  507MOL0     H68413  -1.314  10.638   4.823 -3.4458 -1.8995 -1.9369
  507MOL0     H68414  -1.428  10.553   4.913  1.0031 -1.0972 -1.0986
  507MOL0     H68415  -1.381  10.855   4.879 -1.6867  0.9846 -0.2603
  507MOL0     H68416  -1.464  10.798   5.024 -0.1245  1.4983 -1.0652
  507MOL0     H68417  -1.602  10.887   4.852  1.5585  0.3705 -0.7635
  507MOL0     H68418  -1.571  10.753   4.745 -0.1602 -1.0696  0.3121
  507MOL0     H68419  -1.716  10.776   5.009 -2.5920 -0.3977 -1.5159
  507MOL0     H68420  -1.648  10.609   4.974 -1.9503 -1.4597 -1.8973
  507MOL0     H68421  -1.811  10.746   4.758 -2.2749 -0.4561 -1.3673
  507MOL0     H68422  -1.761  10.569   4.793 -1.7268 -1.1498  0.2401
  507MOL0     H68423  -1.902  10.600   5.001  0.7925  1.8512  0.6064
  507MOL0     H68424  -1.983  10.558   4.859 -1.2835  0.3004 -0.7121
  507MOL0     H68425  -2.072  10.770   4.828 -0.9379  1.1599  0.5409
  507MOL0     H68426  -1.970  10.850   4.961 -0.3779  0.5693 -1.2391
  507MOL0     H68427  -0.991  10.916   4.928  0.6008  1.8454  1.0784
  507MOL0     H68428  -0.761  10.902   4.991 -0.6211  0.8381  0.6299
  507MOL0     H68429  -0.475  10.909   5.268  0.2781  0.1596  1.1477
  507MOL0     H68430  -0.251  10.960   5.314 -0.0618  1.4602 -2.0673
  507MOL0     H68431   1.588  11.001   5.559 -2.3598  0.5911  2.8629
  507MOL0     H68432   1.821  11.097   5.552  2.0987 -0.7550 -0.4293
  507MOL0     H68433   2.171  11.248   5.646 -0.3025  0.1632 -0.6740
  507MOL0     H68434   2.396  11.360   5.649 -1.2043 -0.5633 -0.5798
  507MOL0     H68435   2.638  11.244   5.895 -0.1244 -1.1345 -0.0168
  507MOL0     H68436   2.737  11.124   5.812 -1.7438 -1.6317  0.2586
  507MOL0     H68437   2.791  11.422   5.814  1.8104  0.4560  0.9276
  507MOL0     H68438   2.870  11.302   5.710  0.1356  1.3647  0.3945
  507MOL0     H68439   2.909  11.192   5.939 -2.6108  0.5125 -0.1577
  507MOL0     H68440   2.853  11.337   6.013 -0.8478  1.2061 -1.7364
  507MOL0     H68441   3.107  11.349   6.016  1.3537  2.9538  0.2234
  507MOL0     H68442   3.031  11.465   5.910 -2.4322 -0.5699 -2.1265
  507MOL0     H68443   3.283  11.239   5.654  0.2273  0.7747 -1.3056
  507MOL0     H68444   2.591  10.989   5.671 -0.3350  0.7654  0.4944
  507MOL0     H68445   2.378  10.861   5.716  4.2907  0.2205 -1.7344
  508MOL0     O68446   1.193  11.090   5.891 -0.2840  0.1720 -0.7008
  508MOL0     C68447   1.190  11.121   6.012 -0.6366  0.0880 -0.0203
  508MOL0     O68448   1.088  11.192   6.073  0.0206 -0.2279 -0.8001
  508MOL0     C68449   0.984  11.240   5.993 -0.6914 -0.3263  0.2160
  508MOL0     C68450   0.993  11.295   5.865 -0.2043 -0.2270  1.0310
  508MOL0     C68451   0.876  11.341   5.798  0.4442  0.3631 -1.1592
  508MOL0     C68452   0.755  11.360   5.869 -1.4242 -1.0022 -1.0835
  508MOL0     O68453   0.650  11.409   5.792 -0.4809 -0.4288  0.0856
  508MOL0     C68454   0.519  11.403   5.845  0.6690  0.3532 -0.0921
  508MOL0     C68455   0.429  11.491   5.767  0.1411 -0.1224  0.2823
  508MOL0     C68456   0.289  11.508   5.828  0.0875  0.3034  0.7894
  508MOL0     C68457   0.191  11.573   5.724  0.0138 -1.2633 -0.2016
  508MOL0     C68458   0.042  11.538   5.751  0.1328 -0.3203 -0.1691
  508MOL0     C68459  -0.057  11.607   5.661 -0.3604  0.5189  0.8226
  508MOL0     C68460  -0.075  11.754   5.686  0.1239 -0.4416  0.3337
  508MOL0     C68461  -0.188  11.828   5.607  0.5762  0.3135  0.3542
  508MOL0     N68462  -0.155  11.830   5.475  0.4593  0.7827 -0.1108
  508MOL0     C68463  -0.221  11.779   5.354  0.6565 -0.3948 -0.2320
  508MOL0     C68464  -0.163  11.858   5.262  0.0194  1.0473  0.6072
  508MOL0     C68465  -0.220  11.873   5.121  0.4266  0.0049  0.0281
  508MOL0     C68466  -0.148  11.773   5.031  0.9458 -0.5485  0.1182
  508MOL0     C68467  -0.231  11.646   5.011 -0.4791  0.0378  0.4353
  508MOL0     C68468  -0.157  11.554   4.909  0.4417 -0.2970 -0.2735
  508MOL0     O68469  -0.242  11.529   4.793  0.6834  0.2650  0.7401
  508MOL0     C68470  -0.358  11.462   4.810  1.0020 -0.3533 -0.7632
  508MOL0     C68471  -0.388  11.377   4.912 -0.8703  0.7306  0.2788
  508MOL0     C68472  -0.507  11.302   4.917  0.1511 -0.3663 -0.2090
  508MOL0     C68473  -0.516  11.204   5.029  0.8661 -0.6762 -0.2449
  508MOL0     C68474  -0.617  11.340   4.836 -0.6711  0.6193  0.5372
  508MOL0     C68475  -0.763  11.289   4.862 -0.3086  0.4610  0.2317
  508MOL0     O68476  -0.867  11.361   4.803  0.1053  0.2455 -0.6266
  508MOL0     C68477  -0.997  11.340   4.838 -0.3839  0.2058 -0.0686
  508MOL0     C68478  -1.055  11.220   4.801 -0.6607  0.4112  0.0943
  508MOL0     C68479  -1.190  11.192   4.823 -0.5592  0.6103  0.0987
  508MOL0     C68480  -1.269  11.300   4.872  0.6754  0.5414  0.0942
  508MOL0     O68481  -1.406  11.286   4.863  0.6269  0.5969 -0.2985
  508MOL0     C68482  -1.490  11.349   4.959 -0.2527 -0.0777 -0.0870
  508MOL0     C68483  -1.617  11.265   4.970 -0.6906  0.8730  0.2968
  508MOL0     C68484  -1.710  11.323   5.078  0.2467 -0.4526  0.6987
  508MOL0     C68485  -1.854  11.262   5.077 -0.3832  0.4052 -0.4250
  508MOL0     C68486  -1.935  11.321   5.196 -0.1709  0.2951  0.0965
  508MOL0     C68487  -2.075  11.277   5.181  0.6138  0.3060 -0.0937
  508MOL0     C68488  -2.166  11.371   5.260 -0.8626 -0.6761 -0.3524
  508MOL0     C68489  -2.312  11.331   5.275  0.3990 -0.2775  0.1778
  508MOL0    Cl68490  -2.409  11.442   5.365  0.1468  0.1805 -0.0505
  508MOL0     C68491  -1.213  11.419   4.905  0.0788  0.2590  0.4551
  508MOL0     C68492  -1.079  11.437   4.886  0.1128 -0.8344  0.3261
  508MOL0     O68493  -0.779  11.190   4.929  0.2699 -0.0077 -0.8013
  508MOL0     C68494  -0.594  11.433   4.732 -0.7309  0.7971  1.0857
  508MOL0     C68495  -0.462  11.484   4.719 -0.6440 -0.5166  0.3689
  508MOL0     N68496  -0.050  11.925   5.311  0.3639 -0.2263 -0.6883
  508MOL0     N68497  -0.048  11.911   5.439  0.1267 -0.2462 -0.2488
  508MOL0     C68498   0.743  11.308   5.999  1.0628 -0.2454  0.0669
  508MOL0     C68499   0.854  11.248   6.060 -0.1162 -0.5915  0.0477
  508MOL0     C68500   1.308  11.079   6.092  0.0569 -0.2549 -0.0946
  508MOL0     C68501   1.330  11.123   6.223 -1.1293 -0.0519 -0.6254
  508MOL0     C68502   1.451  11.094   6.285  0.5257 -0.0648  0.1029
  508MOL0     C68503   1.549  11.013   6.215 -0.5539 -0.7233  0.2851
  508MOL0     O68504   1.667  10.980   6.269 -0.5734 -0.8831  0.1720
  508MOL0     C68505   1.773  11.057   6.207 -0.3861 -0.8641 -1.3165
  508MOL0     C68506   1.899  11.015   6.271 -0.1803 -0.5107  0.0915
  508MOL0     C68507   2.019  11.029   6.177 -0.5944  0.0164  0.9317
  508MOL0     C68508   2.150  10.979   6.232 -0.5621 -0.3978 -0.1580
  508MOL0     C68509   2.259  11.024   6.145  0.0272  0.8362 -0.0681
  508MOL0     C68510   2.349  11.023   6.063 -0.6389 -0.2188 -0.4689
  508MOL0     C68511   1.528  10.979   6.084  0.1933  0.0492  0.2948
  508MOL0     C68512   1.412  11.007   6.027  0.1106 -0.0620  0.1137
  508MOL0     H68513   1.091  11.296   5.819 -0.8269 -0.9120 -0.3486
  508MOL0     H68514   0.877  11.375   5.695  0.2677 -0.7455 -1.5361
  508MOL0     H68515   0.493  11.298   5.828  1.4376  0.0913  0.3095
  508MOL0     H68516   0.511  11.426   5.952 -0.6959 -0.0891 -0.0833
  508MOL0     H68517   0.464  11.594   5.757  0.3639 -0.3268 -1.2842
  508MOL0     H68518   0.413  11.452   5.666 -0.6573 -1.0326  0.7373
  508MOL0     H68519   0.260  11.410   5.866  1.3216  0.1496  1.3847
  508MOL0     H68520   0.304  11.572   5.915  1.4102 -0.6771  1.3234
  508MOL0     H68521   0.214  11.679   5.742  1.4817 -1.2775 -1.6524
  508MOL0     H68522   0.210  11.569   5.616 -2.1910  1.6810 -0.8424
  508MOL0     H68523   0.026  11.430   5.739  5.0340 -1.2942 -0.0444
  508MOL0     H68524   0.009  11.547   5.855  2.0148  2.3711  0.2843
  508MOL0     H68525  -0.021  11.593   5.559 -2.0290  2.1764 -0.0670
  508MOL0     H68526  -0.153  11.557   5.680  0.2016 -0.6191  0.7269
  508MOL0     H68527  -0.105  11.750   5.791  2.0035 -0.4759  0.9116
  508MOL0     H68528   0.019  11.809   5.695 -0.6235  0.5498  3.1374
  508MOL0     H68529  -0.210  11.922   5.658 -0.6114  1.3720 -1.9199
  508MOL0     H68530  -0.278  11.767   5.622 -0.6554  2.4203  2.0517
  508MOL0     H68531  -0.310  11.720   5.337  0.2943  0.0125  0.2301
  508MOL0     H68532  -0.328  11.861   5.117  0.6027 -1.4478 -2.2945
  508MOL0     H68533  -0.196  11.975   5.090 -1.4325  1.2195  2.3021
  508MOL0     H68534  -0.056  11.738   5.079 -0.5117 -0.8903  2.8110
  508MOL0     H68535  -0.127  11.827   4.938  1.0984 -1.8042 -0.5960
  508MOL0     H68536  -0.329  11.680   4.975  0.5358  1.5947 -0.9375
  508MOL0     H68537  -0.240  11.594   5.108 -0.4832 -0.0321  0.3973
  508MOL0     H68538  -0.123  11.460   4.954 -0.9822 -1.2179 -1.0469
  508MOL0     H68539  -0.065  11.600   4.869  1.9241 -0.5070  2.6601
  508MOL0     H68540  -0.318  11.345   4.989  0.0538 -2.8216 -1.7891
  508MOL0     H68541  -0.598  11.228   5.097  1.7062  1.2314  0.1530
  508MOL0     H68542  -0.527  11.104   4.985 -1.1650 -0.3556 -0.5650
  508MOL0     H68543  -0.428  11.197   5.094  1.5824 -0.9552 -1.2296
  508MOL0     H68544  -0.986  11.146   4.762  2.4291  3.8316 -1.5277
  508MOL0     H68545  -1.228  11.097   4.786 -0.8832  0.1862  1.4567
  508MOL0     H68546  -1.437  11.357   5.054 -0.2943  6.3943 -0.1550
  508MOL0     H68547  -1.529  11.442   4.917  1.0360  1.1139  1.2315
  508MOL0     H68548  -1.651  11.276   4.866  0.7708  0.3081 -0.2672
  508MOL0     H68549  -1.598  11.158   4.979 -1.1893  0.7903  0.4222
  508MOL0     H68550  -1.731  11.426   5.048 -1.8725 -1.3480 -1.1685
  508MOL0     H68551  -1.665  11.311   5.177  0.0316 -0.5518  0.7852
  508MOL0     H68552  -1.898  11.280   4.978  0.8829 -0.3443 -1.1551
  508MOL0     H68553  -1.857  11.154   5.093  2.9004  0.4973  1.7286
  508MOL0     H68554  -1.934  11.430   5.192  1.6354  0.2870 -0.4162
  508MOL0     H68555  -1.895  11.275   5.286  1.8380  0.9240 -0.4331
  508MOL0     H68556  -2.089  11.305   5.076  0.6350  0.7321  0.0147
  508MOL0     H68557  -2.084  11.170   5.204  1.8787  0.4222  1.0059
  508MOL0     H68558  -2.147  11.477   5.240  4.4263 -1.2511  0.1487
  508MOL0     H68559  -2.125  11.365   5.361  1.7457 -0.0302 -1.2975
  508MOL0     H68560  -2.333  11.236   5.326 -1.5773  0.5235  0.9255
  508MOL0     H68561  -2.363  11.324   5.179  0.0455  2.6260  0.0693
  508MOL0     H68562  -1.286  11.494   4.933  0.5421  0.2281  1.8451
  508MOL0     H68563  -1.035  11.534   4.909  0.9087 -1.1619  0.1969
  508MOL0     H68564  -0.675  11.461   4.667 -1.5662  0.3535  1.9111
  508MOL0     H68565  -0.427  11.540   4.632 -1.2539  0.0097  0.4582
  508MOL0     H68566   0.648  11.310   6.052  0.9317 -1.8006 -0.0393
  508MOL0     H68567   0.847  11.207   6.161  0.4293 -0.4384  0.1503
  508MOL0     H68568   1.255  11.181   6.275 -0.9746 -1.7331  1.6377
  508MOL0     H68569   1.463  11.122   6.390  1.2191  0.5756 -0.1428
  508MOL0     H68570   1.777  11.041   6.099  0.1843 -0.0321 -1.4271
  508MOL0     H68571   1.755  11.165   6.215  0.3960 -0.8425  0.7478
  508MOL0     H68572   1.887  10.918   6.319  2.6563 -0.8091  0.4064
  508MOL0     H68573   1.916  11.076   6.361 -0.1323  0.3185 -0.4675
  508MOL0     H68574   2.040  11.135   6.161  0.2646 -0.3787 -0.7657
  508MOL0     H68575   2.006  10.984   6.079  0.4642 -0.1538  0.8560
  508MOL0     H68576   2.160  10.870   6.235  2.3500 -0.2820 -1.8566
  508MOL0     H68577   2.162  11.023   6.331  0.2759  1.3242 -0.9798
  508MOL0     H68578   2.426  11.021   5.989 -0.4344 -2.1538 -0.2413
  508MOL0     H68579   1.607  10.932   6.026  0.7994 -1.5053  2.3040
  508MOL0     H68580   1.400  10.980   5.922  1.6978 -0.8407  0.0985
  509MOL0     O68581   1.049   4.170   0.766  0.9136  0.1952  0.0514
  509MOL0     C68582   1.027   4.061   0.823  0.0340 -0.2770 -0.0558
  509MOL0     O68583   0.903   4.006   0.845  0.5397 -0.3195 -0.5876
  509MOL0     C68584   0.784   4.076   0.831  0.4168  0.6476  0.2210
  509MOL0     C68585   0.677   3.988   0.809  0.1778  1.0499 -0.1618
  509MOL0     C68586   0.555   4.032   0.754 -0.0666  0.6922  0.1259
  509MOL0     C68587   0.532   4.167   0.736  0.3936 -0.6975  0.2035
  509MOL0     O68588   0.416   4.212   0.690  0.4199  0.0191  0.1249
  509MOL0     C68589   0.331   4.290   0.779  0.0119  0.3542  0.9604
  509MOL0     C68590   0.222   4.193   0.830 -0.1165 -0.2810  0.3573
  509MOL0     C68591   0.095   4.269   0.892 -0.2252  0.5786 -0.1815
  509MOL0     C68592   0.104   4.329   1.031 -0.7919  0.1424  0.1595
  509MOL0     C68593  -0.013   4.418   1.071  0.2900 -0.2976  0.6082
  509MOL0     C68594  -0.019   4.453   1.223  0.5431  0.4297  0.3420
  509MOL0     C68595  -0.101   4.576   1.252 -0.0228 -0.2724 -0.5034
  509MOL0     C68596  -0.251   4.567   1.213  0.7430 -0.1683 -0.0062
  509MOL0     N68597  -0.329   4.671   1.276  0.7680  0.4515 -0.1252
  509MOL0     C68598  -0.383   4.668   1.399  0.0972  0.2036  0.6752
  509MOL0     C68599  -0.446   4.786   1.415 -0.9800  0.4908  0.2755
  509MOL0     C68600  -0.522   4.839   1.533 -0.3516 -0.1304  0.0222
  509MOL0     C68601  -0.667   4.880   1.514  0.9330  0.2510 -0.2144
  509MOL0     C68602  -0.707   4.975   1.624  0.4106  0.6286  0.5786
  509MOL0     C68603  -0.848   5.022   1.643  0.3854  0.4620 -0.1819
  509MOL0     O68604  -0.859   5.098   1.761 -0.4446 -0.1799 -0.0949
  509MOL0     C68605  -0.986   5.141   1.803  1.1418  0.1623  0.7365
  509MOL0     C68606  -0.994   5.195   1.933  0.2189  0.6980 -0.6200
  509MOL0     C68607  -1.114   5.254   1.973  0.5249 -0.0271 -0.4866
  509MOL0     C68608  -1.108   5.318   2.111  0.3979  0.4291  0.1317
  509MOL0     C68609  -1.222   5.276   1.881 -0.5659  0.2711  0.8246
  509MOL0     C68610  -1.339   5.371   1.893 -0.7138  0.3376 -0.0615
  509MOL0     O68611  -1.346   5.435   2.018  0.1278  0.4113 -0.6808
  509MOL0     C68612  -1.464   5.497   2.055  0.2299 -0.1080 -0.0991
  509MOL0     C68613  -1.460   5.618   2.112 -0.8781  0.2521 -0.5652
  509MOL0     C68614  -1.576   5.687   2.141  0.0705 -0.0863  0.4622
  509MOL0     C68615  -1.702   5.629   2.103 -0.4465  0.2534  0.2239
  509MOL0     O68616  -1.806   5.708   2.133 -0.6230  0.1898  0.2812
  509MOL0     C68617  -1.940   5.683   2.074  0.2173 -0.1101 -0.5305
  509MOL0     C68618  -2.034   5.803   2.089 -0.7087  0.0584 -0.0274
  509MOL0     C68619  -2.175   5.749   2.047 -0.0063 -0.3353 -0.3512
  509MOL0     C68620  -2.266   5.864   2.050  0.4204  0.2693 -0.0030
  509MOL0     C68621  -2.401   5.814   2.007  0.6735 -0.3047 -0.4627
  509MOL0     C68622  -2.523   5.902   2.057 -0.7629  0.2435  0.2256
  509MOL0     C68623  -2.664   5.864   2.006 -0.7732 -2.3284 -0.3463
  509MOL0     C68624  -2.764   5.983   2.012  0.1296  0.7027  0.2600
  509MOL0    Cl68625  -2.794   6.012   2.189 -0.3185 -0.1103  0.5391
  509MOL0     C68626  -1.711   5.504   2.055  0.3949 -0.4392  0.4569
  509MOL0     C68627  -1.592   5.434   2.024 -0.3023 -0.0822  0.2659
  509MOL0     O68628  -1.418   5.380   1.801  0.4870 -0.2819 -0.3568
  509MOL0     C68629  -1.206   5.217   1.754 -0.4485 -0.6055  0.3821
  509MOL0     C68630  -1.095   5.152   1.715  0.3496 -0.3961 -0.1666
  509MOL0     N68631  -0.416   4.864   1.301  0.5609 -0.1012 -0.5635
  509MOL0     N68632  -0.347   4.786   1.219 -0.0950 -0.1521  0.1553
  509MOL0     C68633   0.628   4.261   0.776 -0.0946  0.6539  0.5570
  509MOL0     C68634   0.752   4.215   0.818 -0.2043 -0.4392  0.1574
  509MOL0     C68635   1.146   3.965   0.830  0.0370 -0.3130 -0.5287
  509MOL0     C68636   1.278   4.003   0.800  0.6979 -0.4826 -0.5045
  509MOL0     C68637   1.382   3.914   0.800 -0.8649  0.7489 -0.3204
  509MOL0     C68638   1.362   3.774   0.820 -0.0991 -0.2744 -0.2930
  509MOL0     O68639   1.465   3.681   0.819  0.3507  0.2045 -0.3511
  509MOL0     C68640   1.467   3.589   0.705 -0.1418  0.6373  0.6981
  509MOL0     C68641   1.494   3.638   0.557  0.0579 -0.5235 -0.0252
  509MOL0     C68642   1.636   3.698   0.546 -0.1113  0.1210 -0.5304
  509MOL0     C68643   1.676   3.733   0.400  0.6857  1.2874  0.3252
  509MOL0     C68644   1.817   3.763   0.390 -0.4570  0.6114  0.9993
  509MOL0     C68645   1.938   3.782   0.387  0.5865 -0.1348  0.5551
  509MOL0     C68646   1.230   3.736   0.845 -0.3384  0.8480 -0.6821
  509MOL0     C68647   1.127   3.819   0.852  0.0015 -1.1328  0.9138
  509MOL0     H68648   0.696   3.881   0.809 -1.2642  0.6972 -3.0356
  509MOL0     H68649   0.484   3.960   0.716  1.7145  1.6448 -6.0507
  509MOL0     H68650   0.379   4.345   0.860 -1.7959 -0.9420  3.0168
  509MOL0     H68651   0.271   4.364   0.724 -2.0691 -1.5797  0.4457
  509MOL0     H68652   0.180   4.141   0.744 -0.0921  2.4114 -1.4295
  509MOL0     H68653   0.254   4.124   0.909  0.0649  0.5131  0.9977
  509MOL0     H68654   0.052   4.345   0.826  2.0739  0.2338 -2.2237
  509MOL0     H68655   0.015   4.195   0.906 -1.0785  1.8898  2.7069
  509MOL0     H68656   0.114   4.259   1.114 -3.6049 -0.0954  0.3985
  509MOL0     H68657   0.202   4.378   1.029 -0.6558 -0.1336 -1.6381
  509MOL0     H68658  -0.026   4.512   1.018  0.0034  0.5932  2.1830
  509MOL0     H68659  -0.098   4.357   1.041  1.3014 -1.4485 -0.0048
  509MOL0     H68660  -0.049   4.367   1.284 -1.2134  0.1896 -0.7896
  509MOL0     H68661   0.083   4.489   1.240  1.3428 -0.1638 -2.5978
  509MOL0     H68662  -0.101   4.587   1.361  0.0782  1.6425 -0.6548
  509MOL0     H68663  -0.055   4.663   1.204 -0.2004  1.0846  1.6366
  509MOL0     H68664  -0.290   4.470   1.245 -0.8879  1.1178  2.1596
  509MOL0     H68665  -0.268   4.569   1.105 -0.5055 -0.7973  0.1607
  509MOL0     H68666  -0.376   4.588   1.472  0.7717 -1.8415 -1.4954
  509MOL0     H68667  -0.510   4.758   1.606  1.4151 -0.5886 -0.7193
  509MOL0     H68668  -0.477   4.930   1.573  0.6539 -0.6366  0.1003
  509MOL0     H68669  -0.729   4.790   1.509 -1.4215  1.8054 -1.0050
  509MOL0     H68670  -0.679   4.936   1.421 -1.7009 -2.0116 -1.3685
  509MOL0     H68671  -0.635   5.057   1.619  2.5139 -1.1717 -0.4147
  509MOL0     H68672  -0.685   4.932   1.722 -0.8335 -0.7725  0.2769
  509MOL0     H68673  -0.910   4.932   1.650 -0.7581  1.1459 -1.1766
  509MOL0     H68674  -0.888   5.077   1.558  1.0801 -0.7378 -1.3204
  509MOL0     H68675  -0.906   5.189   1.997 -0.9899 -0.4859  1.0224
  509MOL0     H68676  -1.095   5.426   2.120 -0.8233  0.4252  3.8198
  509MOL0     H68677  -1.195   5.292   2.174 -0.2916  1.7292 -0.2547
  509MOL0     H68678  -1.017   5.282   2.159  0.9586  0.2169 -1.0583
  509MOL0     H68679  -1.364   5.661   2.141 -2.0906  3.2193 -0.5822
  509MOL0     H68680  -1.564   5.789   2.178  2.3967  0.4702 -1.6049
  509MOL0     H68681  -1.931   5.664   1.966  0.4731 -2.5965 -0.1333
  509MOL0     H68682  -1.977   5.592   2.122 -0.2266 -0.0116 -0.6793
  509MOL0     H68683  -2.042   5.851   2.186 -0.3040  1.1993 -0.5416
  509MOL0     H68684  -2.004   5.884   2.022  2.6858 -1.0988 -0.1532
  509MOL0     H68685  -2.206   5.680   2.127 -0.6750  1.1677  0.7251
  509MOL0     H68686  -2.179   5.696   1.951 -1.9975 -0.7103 -0.1116
  509MOL0     H68687  -2.274   5.901   2.152 -1.1978  0.2886 -0.1123
  509MOL0     H68688  -2.250   5.952   1.988 -2.4721  1.0681  0.2141
  509MOL0     H68689  -2.414   5.715   2.053  3.0751 -0.2097  0.5367
  509MOL0     H68690  -2.412   5.812   1.899 -2.0071  1.5114 -0.3339
  509MOL0     H68691  -2.515   5.909   2.166 -0.6626 -1.7914  0.3791
  509MOL0     H68692  -2.496   5.999   2.013  0.2942  0.4102  1.1933
  509MOL0     H68693  -2.698   5.772   2.055 -0.9029 -3.0949 -1.8374
  509MOL0     H68694  -2.657   5.830   1.903  1.9390 -2.0980 -0.3113
  509MOL0     H68695  -2.855   5.947   1.963  0.3583  2.1247 -1.3263
  509MOL0     H68696  -2.738   6.074   1.956 -4.2270  2.0982  0.1118
  509MOL0     H68697  -1.804   5.452   2.035  0.4063 -0.0549 -0.6425
  509MOL0     H68698  -1.602   5.332   1.986  1.0827  0.4892 -1.7947
  509MOL0     H68699  -1.283   5.229   1.679 -2.1955  1.3328  2.3343
  509MOL0     H68700  -1.095   5.116   1.613 -2.5931  2.2818 -1.2725
  509MOL0     H68701   0.610   4.368   0.775  1.1797  0.8716 -0.9061
  509MOL0     H68702   0.821   4.295   0.843  0.9030 -1.2047 -0.3674
  509MOL0     H68703   1.302   4.107   0.777 -0.0419 -0.5002 -1.4370
  509MOL0     H68704   1.481   3.948   0.772 -1.5530  1.1063 -2.4332
  509MOL0     H68705   1.550   3.525   0.737  1.1012  1.6530 -0.3891
  509MOL0     H68706   1.375   3.529   0.705 -0.6985  1.4706  0.9784
  509MOL0     H68707   1.419   3.715   0.537  0.7092 -0.3210 -1.8947
  509MOL0     H68708   1.480   3.554   0.489  2.4811  0.0732 -1.3756
  509MOL0     H68709   1.706   3.622   0.583 -0.3739 -0.1174 -0.5259
  509MOL0     H68710   1.647   3.784   0.613 -0.8722 -1.8034  2.2229
  509MOL0     H68711   1.611   3.809   0.356 -3.3344 -1.0795  1.6187
  509MOL0     H68712   1.632   3.655   0.337  1.2672  3.1967 -2.6392
  509MOL0     H68713   2.035   3.826   0.379 -0.1116  1.4870  0.5826
  509MOL0     H68714   1.212   3.632   0.868  0.0036  0.7479 -0.8626
  509MOL0     H68715   1.025   3.787   0.870 -0.7412  0.8228  0.4974
  510MOL0     O68716   1.126   2.768   6.505 -0.3404  0.3315  0.5595
  510MOL0     C68717   1.169   2.813   6.607 -0.4408  0.2243 -0.3950
  510MOL0     O68718   1.101   2.856   6.711 -0.2731  0.2427  0.0968
  510MOL0     C68719   0.961   2.841   6.709 -0.8900 -1.0021  0.5567
  510MOL0     C68720   0.900   2.714   6.678 -0.2603 -0.2959  0.1476
  510MOL0     C68721   0.760   2.701   6.703 -0.0838  0.2836  0.1358
  510MOL0     C68722   0.682   2.810   6.750  0.2532 -0.0916  0.4341
  510MOL0     O68723   0.561   2.772   6.793  0.6017 -0.3880  0.0047
  510MOL0     C68724   0.501   2.852   6.896  0.5927  1.0174  0.0132
  510MOL0     C68725   0.372   2.784   6.944  0.8424  0.1006 -0.2839
  510MOL0     C68726   0.250   2.826   6.860 -1.1338  0.6365 -0.9663
  510MOL0     C68727   0.114   2.768   6.910 -0.0289  0.5074 -0.0005
  510MOL0     C68728   0.008   2.797   6.806 -0.1785  0.1969  0.5485
  510MOL0     C68729  -0.117   2.710   6.839 -0.4759 -1.0321  0.9350
  510MOL0     C68730  -0.235   2.744   6.744 -0.6281  0.3648 -0.0247
  510MOL0     C68731  -0.329   2.627   6.709  0.2765 -0.4111  0.1479
  510MOL0     N68732  -0.396   2.579   6.831  0.6457 -0.5486 -1.1310
  510MOL0     C68733  -0.504   2.648   6.896 -1.1214  0.3908 -0.2737
  510MOL0     C68734  -0.505   2.589   7.023  0.4255 -0.4250 -1.1968
  510MOL0     C68735  -0.596   2.630   7.132  0.0729 -0.2174 -0.4406
  510MOL0     C68736  -0.746   2.620   7.113 -0.2363  0.4090  0.1116
  510MOL0     C68737  -0.836   2.619   7.243  0.2851 -1.1250  0.0693
  510MOL0     C68738  -0.975   2.602   7.197 -0.5590  0.1570  0.8224
  510MOL0     O68739  -1.045   2.587   7.322 -0.8846 -0.0010  0.8155
  510MOL0     C68740  -1.180   2.594   7.319  0.2575 -0.7555 -0.2339
  510MOL0     C68741  -1.245   2.608   7.442 -0.2168  0.8962 -0.9851
  510MOL0     C68742  -1.386   2.608   7.451  0.4591 -0.1660  0.0868
  510MOL0     C68743  -1.433   2.591   7.593  0.2325 -0.0885  0.2093
  510MOL0     C68744  -1.456   2.631   7.335  0.9249 -0.2759  0.1975
  510MOL0     C68745  -1.607   2.648   7.333 -0.0236 -0.0590 -0.4244
  510MOL0     O68746  -1.673   2.628   7.216  0.0884  0.1222 -0.2136
  510MOL0     C68747  -1.811   2.657   7.220  0.2889 -0.3597  0.5306
  510MOL0     C68748  -1.897   2.545   7.224  0.3084 -0.0785 -0.2823
  510MOL0     C68749  -2.037   2.565   7.213 -0.3250  0.3544  1.0499
  510MOL0     C68750  -2.085   2.694   7.202  0.2986 -0.3487 -0.0462
  510MOL0     O68751  -2.223   2.709   7.185  0.2162  0.6692 -0.8729
  510MOL0     C68752  -2.264   2.779   7.068  0.1992 -0.9903 -1.0109
  510MOL0     C68753  -2.251   2.692   6.945 -0.6237  0.1938 -1.3398
  510MOL0     C68754  -2.295   2.754   6.810 -0.1403 -0.1660  0.4836
  510MOL0     C68755  -2.435   2.823   6.806  0.5405 -0.2621 -0.2376
  510MOL0     C68756  -2.552   2.724   6.837 -0.1713 -0.0027 -0.2071
  510MOL0     C68757  -2.591   2.620   6.729  0.3795  0.4568 -0.0129
  510MOL0     C68758  -2.655   2.685   6.608  0.1153 -1.3057  1.0792
  510MOL0     C68759  -2.675   2.587   6.491  0.0274  0.2531  0.0759
  510MOL0    Cl68760  -2.513   2.540   6.429  0.2869  0.3208  0.5127
  510MOL0     C68761  -1.999   2.807   7.213  0.1036 -0.3592  0.8253
  510MOL0     C68762  -1.867   2.787   7.219 -0.3148 -0.1198  0.0291
  510MOL0     O68763  -1.656   2.684   7.441 -0.4511  0.3484 -0.3294
  510MOL0     C68764  -1.390   2.631   7.210  0.0087 -0.2307 -0.1438
  510MOL0     C68765  -1.255   2.606   7.198 -0.1719 -0.2532  0.5099
  510MOL0     N68766  -0.410   2.489   7.026  0.7567 -0.4063  0.0991
  510MOL0     N68767  -0.347   2.487   6.913 -0.3892  0.1866  0.4569
  510MOL0     C68768   0.742   2.933   6.769  0.0437 -0.9161  0.2846
  510MOL0     C68769   0.883   2.951   6.745 -0.2019  0.9766  0.7946
  510MOL0     C68770   1.313   2.824   6.617 -0.2632 -0.4254  0.1061
  510MOL0     C68771   1.374   2.840   6.736 -0.3086 -0.0938  0.9804
  510MOL0     C68772   1.517   2.839   6.755 -0.1678 -0.0257 -0.7100
  510MOL0     C68773   1.597   2.842   6.638 -0.0979 -0.1296  0.2815
  510MOL0     O68774   1.737   2.837   6.638 -0.5953 -0.8497  0.0881
  510MOL0     C68775   1.811   2.821   6.764  0.4873 -0.0448 -0.5177
  510MOL0     C68776   1.967   2.798   6.724  0.4232  0.4015  1.1482
  510MOL0     C68777   2.052   2.697   6.803  0.4578  0.0959 -0.5067
  510MOL0     C68778   2.042   2.733   6.950 -0.5033 -0.6496 -0.4470
  510MOL0     C68779   2.125   2.844   6.988 -0.1450  0.6657 -0.2145
  510MOL0     C68780   2.194   2.936   7.024  0.3145  0.1399  0.7708
  510MOL0     C68781   1.534   2.840   6.510 -0.4207  0.0812 -0.6443
  510MOL0     C68782   1.396   2.823   6.501 -0.5243 -0.5932  0.2054
  510MOL0     H68783   0.964   2.627   6.665  0.1055 -0.1690  0.9924
  510MOL0     H68784   0.715   2.603   6.691  2.0967 -0.4977 -2.9692
  510MOL0     H68785   0.559   2.850   6.989 -0.3488  5.4093  0.9384
  510MOL0     H68786   0.486   2.953   6.856  0.1337 -0.3465 -3.6063
  510MOL0     H68787   0.381   2.675   6.938 -1.3971 -0.1573  0.2085
  510MOL0     H68788   0.359   2.813   7.049 -4.0330  1.7887 -1.1032
  510MOL0     H68789   0.237   2.935   6.865  2.6030  1.2031 -1.1058
  510MOL0     H68790   0.277   2.795   6.758  2.1014 -0.7132  0.1849
  510MOL0     H68791   0.126   2.663   6.938 -1.5193  0.5471  0.8817
  510MOL0     H68792   0.093   2.822   7.003  1.7493  1.5250 -0.1383
  510MOL0     H68793  -0.011   2.905   6.806 -1.6546  0.0099 -1.9469
  510MOL0     H68794   0.034   2.762   6.706  1.8514  1.2980  0.6403
  510MOL0     H68795  -0.088   2.606   6.824 -1.6444 -0.9265 -3.2355
  510MOL0     H68796  -0.142   2.725   6.945  0.5477  3.0710  0.7760
  510MOL0     H68797  -0.281   2.834   6.787 -1.0936  1.5036 -2.7343
  510MOL0     H68798  -0.197   2.778   6.648 -1.2983 -0.1430 -0.4745
  510MOL0     H68799  -0.274   2.549   6.656 -1.6685 -0.2853 -2.2250
  510MOL0     H68800  -0.406   2.668   6.643  2.6494  1.4513 -1.6851
  510MOL0     H68801  -0.555   2.736   6.858 -0.9282  1.4583  1.7799
  510MOL0     H68802  -0.576   2.569   7.220  0.7077  0.4048 -0.1469
  510MOL0     H68803  -0.571   2.734   7.156 -1.1713 -0.0568  0.2378
  510MOL0     H68804  -0.758   2.522   7.065  3.3774 -0.7410  1.2509
  510MOL0     H68805  -0.778   2.691   7.037 -0.8459 -1.7599 -1.7818
  510MOL0     H68806  -0.827   2.710   7.303  0.3111 -0.5082 -0.8614
  510MOL0     H68807  -0.812   2.538   7.313  1.7822 -1.1744 -0.4723
  510MOL0     H68808  -0.993   2.525   7.122 -0.7096  0.6265  0.3720
  510MOL0     H68809  -0.997   2.695   7.145  0.8656 -0.0036 -0.0986
  510MOL0     H68810  -1.189   2.609   7.534 -0.0414  1.8126 -1.0906
  510MOL0     H68811  -1.424   2.689   7.640 -0.3004 -0.9338  2.1532
  510MOL0     H68812  -1.533   2.548   7.607 -0.1421  1.0369  1.1729
  510MOL0     H68813  -1.363   2.527   7.647  2.9224  1.9858 -0.6214
  510MOL0     H68814  -1.853   2.445   7.222  2.5908  0.8991 -1.3980
  510MOL0     H68815  -2.096   2.476   7.194  3.7852 -2.7721  1.4735
  510MOL0     H68816  -2.366   2.806   7.098  0.9477 -0.6440  1.4723
  510MOL0     H68817  -2.211   2.873   7.053  1.8219 -1.8438 -0.8604
  510MOL0     H68818  -2.149   2.653   6.935 -1.1317 -1.7233  0.2497
  510MOL0     H68819  -2.318   2.609   6.971 -0.4712 -0.3227 -2.5357
  510MOL0     H68820  -2.288   2.673   6.736  0.9559  0.1958  0.1740
  510MOL0     H68821  -2.225   2.833   6.782  0.1818 -0.8221 -0.6459
  510MOL0     H68822  -2.429   2.907   6.876  0.1479  0.4953 -1.1009
  510MOL0     H68823  -2.457   2.862   6.706 -1.1268 -3.0565 -1.0694
  510MOL0     H68824  -2.638   2.781   6.873  0.4584  1.6738 -1.2266
  510MOL0     H68825  -2.524   2.675   6.930 -1.9080 -0.2831  0.2099
  510MOL0     H68826  -2.500   2.568   6.699  0.3505  0.6298 -0.4132
  510MOL0     H68827  -2.664   2.554   6.776 -1.1602  2.3690  0.3999
  510MOL0     H68828  -2.592   2.768   6.575 -0.3811 -0.5363  2.0001
  510MOL0     H68829  -2.753   2.727   6.635 -0.2270 -1.7770  0.5972
  510MOL0     H68830  -2.732   2.639   6.413  0.3319  0.6715  0.1293
  510MOL0     H68831  -2.727   2.502   6.537  0.7845  0.8794  2.2121
  510MOL0     H68832  -2.046   2.904   7.229 -1.2272 -0.2338 -2.9065
  510MOL0     H68833  -1.811   2.879   7.223 -2.6052  1.3204  2.5453
  510MOL0     H68834  -1.450   2.634   7.119 -0.8084  1.0348  0.4018
  510MOL0     H68835  -1.212   2.621   7.099 -0.3567  0.4643  0.5331
  510MOL0     H68836   0.697   3.027   6.797  0.6730 -0.4371 -0.2821
  510MOL0     H68837   0.924   3.050   6.761 -2.8007  2.1333  0.7665
  510MOL0     H68838   1.312   2.838   6.826 -1.1403 -0.7989  0.4124
  510MOL0     H68839   1.550   2.833   6.858 -2.6668 -0.3815  0.1268
  510MOL0     H68840   1.803   2.911   6.825  2.0324  0.6682 -1.3165
  510MOL0     H68841   1.773   2.730   6.811  3.1984 -0.6029  0.8343
  510MOL0     H68842   2.018   2.895   6.722  2.1891 -0.4643  2.0714
  510MOL0     H68843   1.948   2.757   6.624 -1.4543 -1.2778  2.1168
  510MOL0     H68844   2.158   2.697   6.773  0.8507 -0.7323  0.7795
  510MOL0     H68845   2.018   2.594   6.787  1.2078 -0.1443 -0.6446
  510MOL0     H68846   2.071   2.645   7.009 -0.2168 -0.2015  0.0835
  510MOL0     H68847   1.940   2.744   6.987 -0.3175 -1.4716  0.3584
  510MOL0     H68848   2.263   3.013   7.055  1.4511 -0.9592  1.0737
  510MOL0     H68849   1.598   2.820   6.424  2.5738  0.4064  1.3719
  510MOL0     H68850   1.362   2.815   6.398  1.7131  0.9621 -0.7509
  511MOL0     O68851  10.932   0.010   3.744 -0.0489 -0.3922  0.5326
  511MOL0     C68852  10.931   0.016   3.869 -0.1066  1.5796 -0.1307
  511MOL0     O68853  10.827   0.037   3.948  0.6024 -0.4123  0.0508
  511MOL0     C68854  10.706   0.051   3.882  0.1156 -0.0456  0.4078
  511MOL0     C68855  10.652   0.182   3.869 -0.5692  0.1871 -0.4549
  511MOL0     C68856  10.527   0.183   3.812 -0.3372  0.6022  0.4303
  511MOL0     C68857  10.458   0.067   3.765 -0.4547  0.9375 -0.1281
  511MOL0     O68858  10.333   0.082   3.715  0.1657 -0.6366 -0.2563
  511MOL0     C68859  10.254  -0.035   3.738 -0.2602 -0.0172  0.1090
  511MOL0     C68860  10.239  -0.122   3.607 -0.0155 -0.1433  0.4442
  511MOL0     C68861  10.149  -0.052   3.503  0.0627  0.5048  0.3913
  511MOL0     C68862   9.997  -0.065   3.535 -0.2012  0.6074  0.1433
  511MOL0     C68863   9.915  -0.018   3.414  1.2271  0.3904 -0.8543
  511MOL0     C68864   9.772   0.005   3.461  0.1065 -0.2874  0.3013
  511MOL0     C68865   9.699   0.045   3.341  0.4744 -0.8768  1.2200
  511MOL0     C68866   9.546   0.029   3.339  0.5954  0.5826 -0.2323
  511MOL0     N68867   9.489   0.095   3.457 -0.0311  0.8232 -0.0018
  511MOL0     C68868   9.456   0.227   3.472  0.3705 -0.6538  0.1462
  511MOL0     C68869   9.392   0.237   3.593  0.2203 -0.0970 -0.0555
  511MOL0     C68870   9.335   0.357   3.657  0.1144 -0.9710  0.0335
  511MOL0     C68871   9.194   0.381   3.608 -0.0786 -0.1786  0.3392
  511MOL0     C68872   9.094   0.264   3.627 -0.3828 -0.3086 -0.2755
  511MOL0     C68873   8.946   0.296   3.619  0.4075 -0.7788  0.3780
  511MOL0     O68874   8.869   0.185   3.647  0.2972  0.4251 -0.2112
  511MOL0     C68875   8.735   0.184   3.631  0.5822 -0.7525 -0.2328
  511MOL0     C68876   8.668   0.064   3.609  0.1538 -0.0533 -0.1305
  511MOL0     C68877   8.528   0.057   3.594  0.3193 -1.1206 -0.5121
  511MOL0     C68878   8.474  -0.078   3.565  1.1211  0.8620  1.1409
  511MOL0     C68879   8.445   0.172   3.585 -1.1590  0.2674 -0.2502
  511MOL0     C68880   8.293   0.179   3.552 -0.3411  0.0679  0.5946
  511MOL0     O68881   8.222   0.064   3.569 -0.1550  0.0930 -1.1226
  511MOL0     C68882   8.087   0.063   3.544  0.1303 -0.1907  0.0758
  511MOL0     C68883   8.030   0.104   3.422 -0.4234 -0.4823  0.4102
  511MOL0     C68884   7.896   0.107   3.391  0.8878  0.5377 -0.1664
  511MOL0     C68885   7.810   0.067   3.488 -0.1574 -0.3290 -0.0366
  511MOL0     O68886   7.678   0.065   3.441 -0.0290  0.1490 -0.3738
  511MOL0     C68887   7.567  -0.005   3.511  0.3345 -0.8800  0.0012
  511MOL0     C68888   7.488  -0.094   3.410 -0.5091  0.1390  0.2217
  511MOL0     C68889   7.365  -0.153   3.479  0.2400 -0.2494 -1.0302
  511MOL0     C68890   7.305  -0.251   3.377  0.3393  1.2126 -0.0260
  511MOL0     C68891   7.181  -0.327   3.432  0.1710  0.1686 -0.0234
  511MOL0     C68892   7.119  -0.401   3.316  0.0021 -0.0967 -0.5770
  511MOL0     C68893   7.218  -0.498   3.242 -0.5576 -1.2181  0.0049
  511MOL0     C68894   7.141  -0.573   3.133  0.5685 -0.0748  0.5725
  511MOL0    Cl68895   7.017  -0.670   3.209 -0.1150  0.2046  0.4238
  511MOL0     C68896   7.850   0.025   3.608 -0.8871  0.1488  0.5840
  511MOL0     C68897   7.992   0.020   3.635  0.8995 -0.3820 -0.1945
  511MOL0     O68898   8.248   0.287   3.518  0.3453 -0.0541 -0.5963
  511MOL0     C68899   8.517   0.291   3.601  0.4842 -0.1346  0.0770
  511MOL0     C68900   8.657   0.298   3.624  0.5118 -0.2866 -0.1662
  511MOL0     N68901   9.387   0.110   3.644  0.5898  0.2232  0.0125
  511MOL0     N68902   9.451   0.026   3.568 -0.5805 -0.6887 -0.5313
  511MOL0     C68903  10.524  -0.057   3.769  0.5631 -0.2445 -0.2428
  511MOL0     C68904  10.650  -0.063   3.828 -0.3335 -0.6445 -0.5941
  511MOL0     C68905  11.060  -0.036   3.932 -0.6550 -0.0696  0.6346
  511MOL0     C68906  11.178  -0.045   3.849  0.0589 -1.0794 -0.7065
  511MOL0     C68907  11.296  -0.088   3.908  0.5935 -0.0763 -0.7372
  511MOL0     C68908  11.296  -0.138   4.041  0.3017  0.0840  0.7990
  511MOL0     O68909  11.397  -0.213   4.098  0.6826  0.0894  0.3734
  511MOL0     C68910  11.511  -0.262   4.030  0.5247 -0.5650 -1.0007
  511MOL0     C68911  11.456  -0.379   3.953  0.1128  0.1210 -0.2268
  511MOL0     C68912  11.569  -0.406   3.846 -0.0590 -0.3300 -0.8219
  511MOL0     C68913  11.663  -0.517   3.898  0.6041  0.6692 -0.5139
  511MOL0     C68914  11.756  -0.555   3.794 -0.9900  0.2902  0.1123
  511MOL0     C68915  11.832  -0.584   3.702 -0.7339  0.0457  0.1554
  511MOL0     C68916  11.175  -0.129   4.116  0.3087  0.2646  0.1261
  511MOL0     C68917  11.059  -0.081   4.063 -0.1627 -0.4303  0.1547
  511MOL0     H68918  10.701   0.265   3.919 -2.2023  0.7632  0.2611
  511MOL0     H68919  10.481   0.280   3.797  0.4727  0.8909 -0.2117
  511MOL0     H68920  10.292  -0.086   3.827 -2.0282  1.0381  1.5399
  511MOL0     H68921  10.156   0.004   3.768 -0.7822 -0.0008 -1.5131
  511MOL0     H68922  10.337  -0.152   3.568  1.1248  1.6578  1.7785
  511MOL0     H68923  10.191  -0.216   3.636 -0.2179  0.0875  0.8551
  511MOL0     H68924  10.156   0.055   3.482 -0.8356  0.3645 -0.6708
  511MOL0     H68925  10.164  -0.106   3.409  0.0540 -0.5109  0.9624
  511MOL0     H68926   9.955  -0.157   3.576  1.0583  1.0334  2.5911
  511MOL0     H68927   9.988   0.014   3.610  2.5801  0.8370  0.3538
  511MOL0     H68928   9.948   0.078   3.373  0.8414  0.2675 -1.4623
  511MOL0     H68929   9.914  -0.097   3.339 -1.5864  1.1574 -1.7438
  511MOL0     H68930   9.731  -0.088   3.503 -1.1307  1.1199  2.3945
  511MOL0     H68931   9.778   0.076   3.544 -1.8894 -1.3937  1.4792
  511MOL0     H68932   9.726   0.150   3.323  0.8396 -0.6557  2.8940
  511MOL0     H68933   9.733  -0.014   3.256  1.0804 -0.1487  0.9432
  511MOL0     H68934   9.522  -0.077   3.355 -0.8720  0.9037 -0.1596
  511MOL0     H68935   9.505   0.063   3.244  2.0459  0.4582 -0.9289
  511MOL0     H68936   9.474   0.310   3.404 -0.4258 -1.3638 -0.9638
  511MOL0     H68937   9.345   0.350   3.766 -1.3844  0.8625  0.3369
  511MOL0     H68938   9.398   0.443   3.633  0.4717 -0.4970  2.4044
  511MOL0     H68939   9.203   0.405   3.502  1.2899 -1.5956  0.1003
  511MOL0     H68940   9.161   0.472   3.659 -0.3455  0.0379 -0.2112
  511MOL0     H68941   9.115   0.214   3.722  0.5946 -1.0174 -0.8525
  511MOL0     H68942   9.122   0.201   3.542 -0.4261  0.9804 -1.2750
  511MOL0     H68943   8.923   0.328   3.517  0.5355 -0.8779  0.3190
  511MOL0     H68944   8.934   0.377   3.691  1.5182 -0.4314  0.1939
  511MOL0     H68945   8.728  -0.027   3.600 -0.6341 -0.6696  0.6913
  511MOL0     H68946   8.559  -0.143   3.543 -0.7035 -0.5183 -2.9810
  511MOL0     H68947   8.421  -0.124   3.648  0.7154 -0.3420  0.2500
  511MOL0     H68948   8.413  -0.077   3.473  1.2189  3.3074  1.0155
  511MOL0     H68949   8.102   0.110   3.341 -0.8273  1.6782  0.1366
  511MOL0     H68950   7.856   0.132   3.293 -1.2359 -0.1453  0.4813
  511MOL0     H68951   7.595  -0.071   3.593 -2.7120  1.0498  2.8425
  511MOL0     H68952   7.495   0.066   3.552  1.0948 -0.3378  0.4327
  511MOL0     H68953   7.459  -0.035   3.322 -1.1702  0.2734  0.5229
  511MOL0     H68954   7.559  -0.170   3.375 -2.5245 -2.6304  1.7662
  511MOL0     H68955   7.293  -0.078   3.514  2.5446  0.7566  1.9519
  511MOL0     H68956   7.404  -0.202   3.568  1.5737  0.6186 -1.1091
  511MOL0     H68957   7.285  -0.223   3.273  4.9874 -1.6675 -2.0307
  511MOL0     H68958   7.386  -0.324   3.370 -0.2612  0.3392  1.5031
  511MOL0     H68959   7.108  -0.255   3.472  1.5011  0.3468  2.2199
  511MOL0     H68960   7.202  -0.405   3.506  0.7647 -2.4557 -2.7858
  511MOL0     H68961   7.031  -0.440   3.367  1.8397 -0.0828  2.8809
  511MOL0     H68962   7.087  -0.325   3.245  0.0286 -0.0797 -0.5703
  511MOL0     H68963   7.235  -0.565   3.327 -2.3346  2.8328  3.9496
  511MOL0     H68964   7.307  -0.449   3.204 -1.7559  1.2264  0.1708
  511MOL0     H68965   7.216  -0.642   3.095 -0.7240 -2.4513  2.0599
  511MOL0     H68966   7.104  -0.500   3.061  0.3141 -0.0206  0.7531
  511MOL0     H68967   7.777  -0.008   3.681 -0.5594  0.4510  1.0563
  511MOL0     H68968   8.033  -0.016   3.729 -0.5625 -1.7834 -0.0357
  511MOL0     H68969   8.469   0.388   3.590 -0.0149 -0.5057 -1.2240
  511MOL0     H68970   8.706   0.390   3.656  0.5235 -0.6189  0.8087
  511MOL0     H68971  10.480  -0.139   3.712  0.2347  0.8257 -1.5916
  511MOL0     H68972  10.707  -0.154   3.841  0.3067 -0.3481 -1.2803
  511MOL0     H68973  11.181  -0.017   3.745  1.4688  0.8966 -0.1775
  511MOL0     H68974  11.386  -0.102   3.848  0.9223 -3.1143  0.3152
  511MOL0     H68975  11.546  -0.178   3.969  1.3773  0.0902  0.3462
  511MOL0     H68976  11.585  -0.300   4.100 -0.0068 -2.4720 -1.4226
  511MOL0     H68977  11.365  -0.356   3.897  0.0626  1.3128  0.3090
  511MOL0     H68978  11.438  -0.463   4.020  4.4245 -0.9584 -0.0834
  511MOL0     H68979  11.625  -0.316   3.818 -0.5645 -0.1421 -1.2489
  511MOL0     H68980  11.526  -0.446   3.753 -0.4285 -2.7529  0.3187
  511MOL0     H68981  11.594  -0.599   3.918 -3.0149  3.1763 -1.5986
  511MOL0     H68982  11.710  -0.481   3.990  1.3313  2.5919 -1.5747
  511MOL0     H68983  11.898  -0.602   3.619  1.1444  1.2448  1.3177
  511MOL0     H68984  11.148  -0.164   4.215  0.6220  2.4622  1.0430
  511MOL0     H68985  10.976  -0.070   4.131  0.3530  0.8324  0.6111
  512MOL0     O68986   0.864   4.212   3.721  0.1333 -0.6238  0.1504
  512MOL0     C68987   0.932   4.277   3.810 -0.0478  0.2062  0.1749
  512MOL0     O68988   0.869   4.327   3.926 -0.3522 -0.0662  0.7480
  512MOL0     C68989   0.734   4.303   3.947  0.1562 -0.7933  0.8337
  512MOL0     C68990   0.697   4.244   4.070 -0.5217  1.2060  1.2387
  512MOL0     C68991   0.566   4.219   4.104 -0.3614 -0.5022 -0.7320
  512MOL0     C68992   0.457   4.255   4.018 -0.4015  0.1101 -0.6748
  512MOL0     O68993   0.331   4.224   4.050 -0.3283 -0.1096  0.0823
  512MOL0     C68994   0.214   4.271   3.975 -0.4536 -0.5891  0.9716
  512MOL0     C68995   0.094   4.290   4.072 -0.0458  0.2245 -0.4518
  512MOL0     C68996  -0.034   4.322   3.995  0.1592  0.0608 -0.2265
  512MOL0     C68997  -0.138   4.378   4.097  0.3729 -0.0431 -0.6031
  512MOL0     C68998  -0.266   4.425   4.039  0.2329 -0.1165 -0.0469
  512MOL0     C68999  -0.357   4.466   4.145  0.3565 -0.7086 -0.0796
  512MOL0     C69000  -0.487   4.497   4.072  0.1445 -0.3876 -0.4966
  512MOL0     C69001  -0.588   4.574   4.161 -0.5073  0.2156  0.3324
  512MOL0     N69002  -0.708   4.598   4.091 -0.3041 -0.5628 -0.2722
  512MOL0     C69003  -0.735   4.710   4.013  0.4021  0.9720 -0.6516
  512MOL0     C69004  -0.860   4.682   3.963  0.7518 -0.3381 -0.1836
  512MOL0     C69005  -0.946   4.764   3.864  0.2452  0.2502 -0.1653
  512MOL0     C69006  -1.086   4.778   3.912  0.3019 -0.0285  0.5517
  512MOL0     C69007  -1.118   4.807   4.065  0.8950 -0.3479 -0.2642
  512MOL0     C69008  -1.261   4.840   4.103 -1.0348  1.4490 -0.4667
  512MOL0     O69009  -1.340   4.724   4.083 -0.3226 -0.4331  0.4818
  512MOL0     C69010  -1.482   4.730   4.098 -0.8916 -0.1603 -0.1096
  512MOL0     C69011  -1.553   4.848   4.114  0.7164  0.1593 -0.5813
  512MOL0     C69012  -1.699   4.843   4.126  0.4477 -0.2570  1.5131
  512MOL0     C69013  -1.763   4.977   4.158 -0.1794 -0.0508  0.6623
  512MOL0     C69014  -1.769   4.718   4.124  0.0891 -0.1530  0.0976
  512MOL0     C69015  -1.918   4.689   4.148  0.1805  0.4530 -0.1018
  512MOL0     O69016  -1.970   4.566   4.108 -0.6856  0.2125 -0.4743
  512MOL0     C69017  -2.100   4.542   4.142 -0.1025  1.0199  0.9935
  512MOL0     C69018  -2.146   4.478   4.254 -1.0452  0.2308 -0.2243
  512MOL0     C69019  -2.283   4.450   4.270  0.1438  0.0583  0.0814
  512MOL0     C69020  -2.371   4.472   4.163  0.8289 -0.5081 -0.0947
  512MOL0     O69021  -2.509   4.443   4.174  0.0312 -0.1470  0.3158
  512MOL0     C69022  -2.570   4.395   4.049 -0.5637  0.3911 -0.9448
  512MOL0     C69023  -2.704   4.327   4.089  0.4537  0.4092 -0.2256
  512MOL0     C69024  -2.764   4.234   3.984  0.6067  0.7849  0.4169
  512MOL0     C69025  -2.894   4.176   4.031 -0.1575  0.4870 -0.4683
  512MOL0     C69026  -3.004   4.274   4.020 -0.3883 -0.8806 -0.3054
  512MOL0     C69027  -3.130   4.235   4.092  0.1983  0.6289 -0.1378
  512MOL0     C69028  -3.237   4.347   4.078 -0.3715 -1.0409 -0.5982
  512MOL0     C69029  -3.388   4.309   4.098  1.2515 -0.3512  0.3729
  512MOL0    Cl69030  -3.427   4.215   3.962  0.1555  0.0990  0.0522
  512MOL0     C69031  -2.328   4.550   4.060  0.7219  0.2316 -0.2801
  512MOL0     C69032  -2.192   4.573   4.041  0.1162 -0.4893 -0.3188
  512MOL0     O69033  -1.980   4.771   4.211 -0.6736  0.4241 -0.1298
  512MOL0     C69034  -1.685   4.602   4.096 -0.1861 -0.5934 -0.3948
  512MOL0     C69035  -1.548   4.606   4.082  0.5878 -0.7760 -0.8236
  512MOL0     N69036  -0.902   4.553   4.012 -0.0342 -0.7398  0.0575
  512MOL0     N69037  -0.810   4.510   4.098  0.4294 -0.2997  0.2537
  512MOL0     C69038   0.496   4.323   3.901  0.3348 -0.4579 -0.1736
  512MOL0     C69039   0.626   4.353   3.873 -0.4088  0.3647  0.7774
  512MOL0     C69040   1.077   4.294   3.793 -0.2239 -0.2348  0.5527
  512MOL0     C69041   1.139   4.236   3.683  0.5407  0.5426 -0.4576
  512MOL0     C69042   1.273   4.225   3.671 -0.2812  0.0772  0.5568
  512MOL0     C69043   1.357   4.288   3.767 -0.4580  0.6228 -0.0424
  512MOL0     O69044   1.492   4.288   3.770  0.0854  0.1077  0.5828
  512MOL0     C69045   1.565   4.222   3.667 -0.9414 -0.3813 -0.0029
  512MOL0     C69046   1.713   4.240   3.708 -0.8217 -0.0076 -0.6531
  512MOL0     C69047   1.773   4.140   3.816  0.3974 -0.7475  0.1302
  512MOL0     C69048   1.783   4.001   3.750  0.1901  0.4394  0.8836
  512MOL0     C69049   1.887   3.919   3.803 -0.1913  0.9214 -0.6615
  512MOL0     C69050   1.981   3.846   3.836  0.0743  0.3870 -0.4644
  512MOL0     C69051   1.296   4.359   3.863 -0.1959  0.0655  0.0390
  512MOL0     C69052   1.158   4.348   3.890 -0.0320 -0.8128 -0.0529
  512MOL0     H69053   0.783   4.214   4.128  0.6782  0.7437 -0.6812
  512MOL0     H69054   0.545   4.181   4.203 -0.1723 -1.5286 -1.0694
  512MOL0     H69055   0.221   4.368   3.925  0.3373 -0.3375  1.5722
  512MOL0     H69056   0.188   4.204   3.892  0.3660 -1.6564  1.5687
  512MOL0     H69057   0.072   4.198   4.128 -1.0084 -1.4412 -3.3208
  512MOL0     H69058   0.115   4.370   4.143  2.4971  0.0501 -0.9350
  512MOL0     H69059  -0.009   4.397   3.920 -3.1760  1.5296 -0.0572
  512MOL0     H69060  -0.073   4.235   3.942 -1.0521 -0.0694  0.8087
  512MOL0     H69061  -0.158   4.315   4.184  0.5884  1.9229  0.9603
  512MOL0     H69062  -0.089   4.459   4.153 -1.7515  0.1374  1.1483
  512MOL0     H69063  -0.244   4.514   3.981  0.0984 -0.8238 -1.2096
  512MOL0     H69064  -0.319   4.358   3.970  0.1830 -0.4493  0.3037
  512MOL0     H69065  -0.369   4.383   4.214 -0.0685 -0.1158  0.5755
  512MOL0     H69066  -0.323   4.555   4.199 -1.7688  0.0444  0.1127
  512MOL0     H69067  -0.467   4.565   3.990  0.3992  2.6240  1.8808
  512MOL0     H69068  -0.545   4.410   4.040 -0.5831 -0.4348  0.8758
  512MOL0     H69069  -0.538   4.670   4.183  0.2380  0.3778 -1.7972
  512MOL0     H69070  -0.601   4.532   4.261  2.0188 -0.8645  0.2892
  512MOL0     H69071  -0.679   4.801   3.997 -1.3724  2.4066  0.8539
  512MOL0     H69072  -0.901   4.862   3.846  2.6708 -0.5377  1.1706
  512MOL0     H69073  -0.941   4.708   3.770  2.8029  0.6473 -0.3323
  512MOL0     H69074  -1.136   4.688   3.875  1.3266 -1.5352  2.5944
  512MOL0     H69075  -1.141   4.854   3.856  0.5090 -0.8678 -0.8389
  512MOL0     H69076  -1.052   4.889   4.098  0.3359  0.5094 -1.2083
  512MOL0     H69077  -1.101   4.715   4.122 -1.3550  0.4470  1.8768
  512MOL0     H69078  -1.292   4.927   4.043 -1.6834 -0.2272 -2.6879
  512MOL0     H69079  -1.266   4.859   4.211 -0.3262 -0.3610 -0.0868
  512MOL0     H69080  -1.515   4.948   4.136 -2.1982  1.5166 -1.1792
  512MOL0     H69081  -1.714   5.045   4.086 -1.3267  0.2149  0.1061
  512MOL0     H69082  -1.871   4.985   4.142  0.0956  1.1776 -0.8881
  512MOL0     H69083  -1.730   5.001   4.259 -1.8074 -0.9056  1.4384
  512MOL0     H69084  -2.071   4.469   4.332 -0.1252 -0.7788 -1.2012
  512MOL0     H69085  -2.303   4.406   4.367  1.0075  3.1444  1.7900
  512MOL0     H69086  -2.584   4.472   3.973 -2.0501 -1.5728 -2.7851
  512MOL0     H69087  -2.504   4.321   4.003  1.5311  0.7477  1.2722
  512MOL0     H69088  -2.688   4.270   4.181  1.4091  0.3972 -0.3923
  512MOL0     H69089  -2.767   4.406   4.132  1.7193  0.3613  1.8571
  512MOL0     H69090  -2.697   4.150   3.961 -2.0784 -0.7735 -2.6160
  512MOL0     H69091  -2.777   4.292   3.892 -0.4917  0.4093  0.3257
  512MOL0     H69092  -2.914   4.092   3.964  0.9441  0.5942 -0.9555
  512MOL0     H69093  -2.868   4.136   4.129  0.2380 -0.6913 -1.0360
  512MOL0     H69094  -3.023   4.301   3.915  2.5247  2.3235 -0.1798
  512MOL0     H69095  -2.968   4.361   4.074 -1.3306  1.0144 -2.5424
  512MOL0     H69096  -3.168   4.137   4.062 -0.4185  0.8688 -0.1693
  512MOL0     H69097  -3.115   4.215   4.198  3.1230 -1.3682 -0.8341
  512MOL0     H69098  -3.226   4.393   3.979  4.3428 -0.0642  0.1464
  512MOL0     H69099  -3.210   4.424   4.150 -2.4043 -0.9235  0.1170
  512MOL0     H69100  -3.447   4.401   4.097  2.1111  0.2072 -0.6469
  512MOL0     H69101  -3.416   4.244   4.182  0.7850 -0.4761  0.1245
  512MOL0     H69102  -2.377   4.600   3.977  2.6273 -0.5998 -1.9962
  512MOL0     H69103  -2.156   4.630   3.955 -3.7780  1.9430 -0.5763
  512MOL0     H69104  -1.737   4.507   4.103  0.9539 -1.1838  0.3269
  512MOL0     H69105  -1.503   4.511   4.056  0.4588 -1.3279  0.8426
  512MOL0     H69106   0.414   4.349   3.834  0.8409  0.1883 -0.5587
  512MOL0     H69107   0.643   4.412   3.784  1.7897  0.1302  1.0014
  512MOL0     H69108   1.076   4.181   3.614  2.6054 -3.4081  0.5286
  512MOL0     H69109   1.312   4.176   3.583  1.9836  2.5905  0.0440
  512MOL0     H69110   1.537   4.117   3.664 -0.4082 -0.5098 -1.2121
  512MOL0     H69111   1.545   4.266   3.568  0.7664 -0.8803 -0.6131
  512MOL0     H69112   1.713   4.342   3.746  2.5100  0.4789 -1.6355
  512MOL0     H69113   1.772   4.227   3.617  1.8516 -3.5037  1.2873
  512MOL0     H69114   1.715   4.143   3.909  0.4095 -1.7729  0.1807
  512MOL0     H69115   1.872   4.180   3.841  0.1040 -0.3174  0.6293
  512MOL0     H69116   1.807   4.019   3.645 -0.9703  1.7371  0.8101
  512MOL0     H69117   1.684   3.955   3.749 -1.1921  3.2221  0.9907
  512MOL0     H69118   2.064   3.786   3.866  1.0045  2.4716  1.4008
  512MOL0     H69119   1.364   4.408   3.933  0.1880 -0.8044  0.2819
  512MOL0     H69120   1.121   4.395   3.980 -2.0175 -2.0114 -0.1694
  513MOL0     O69121  11.070   5.834   2.274 -0.2923  0.3718 -0.0889
  513MOL0     C69122  11.110   5.881   2.168 -0.2502 -0.1173 -0.2637
  513MOL0     O69123  11.033   5.957   2.087  0.3297 -0.0055  0.9251
  513MOL0     C69124  10.903   5.975   2.124 -1.1124 -0.1040 -0.1494
  513MOL0     C69125  10.804   5.874   2.110  0.2241 -0.2262 -0.1552
  513MOL0     C69126  10.670   5.897   2.124  0.5505  0.2162 -0.0647
  513MOL0     C69127  10.629   6.028   2.131  0.5782  0.3330  0.4570
  513MOL0     O69128  10.499   6.044   2.155  0.5187 -0.5154  0.4351
  513MOL0     C69129  10.417   5.996   2.043  0.0937  0.5143 -0.8046
  513MOL0     C69130  10.277   6.052   2.050 -0.2736 -0.4382  0.8332
  513MOL0     C69131  10.241   6.191   1.994 -0.3583  0.5159  0.5713
  513MOL0     C69132  10.321   6.308   2.050  0.0900 -0.3713 -0.0187
  513MOL0     C69133  10.273   6.441   1.990 -0.5825  0.2910  0.5646
  513MOL0     C69134  10.331   6.443   1.841  0.3526 -0.2587 -0.3280
  513MOL0     C69135  10.364   6.590   1.810  0.1586 -0.4663 -0.0119
  513MOL0     C69136  10.487   6.642   1.894 -0.1718  0.8041  0.3918
  513MOL0     N69137  10.530   6.774   1.841  0.2091  0.4619  0.3049
  513MOL0     C69138  10.662   6.829   1.850  0.6193  0.4552 -0.3019
  513MOL0     C69139  10.645   6.958   1.815 -0.1201 -0.1134 -0.2475
  513MOL0     C69140  10.746   7.070   1.800  0.6617 -0.8780  0.0597
  513MOL0     C69141  10.878   7.023   1.750 -0.2718  0.1612 -1.4200
  513MOL0     C69142  10.876   6.979   1.611  0.1849 -0.3724 -0.4825
  513MOL0     C69143  11.018   6.930   1.573  0.1646  0.2138 -0.1834
  513MOL0     O69144  11.013   6.920   1.430 -0.6984  0.3337 -0.3031
  513MOL0     C69145  11.116   6.853   1.370  0.0879  0.6670 -0.4240
  513MOL0     C69146  11.098   6.819   1.235  0.2646 -0.0299  0.3286
  513MOL0     C69147  11.188   6.750   1.157 -0.2788  0.3447 -0.1079
  513MOL0     C69148  11.153   6.720   1.015 -0.2752 -0.3606 -0.9126
  513MOL0     C69149  11.317   6.722   1.217  0.3795 -0.5890  0.1159
  513MOL0     C69150  11.442   6.686   1.150  0.7344 -0.8264  0.4946
  513MOL0     O69151  11.536   6.614   1.225 -0.0578 -0.3831  0.9148
  513MOL0     C69152  11.668   6.584   1.183  0.2396 -0.5030  0.2072
  513MOL0     C69153  11.727   6.655   1.076  0.0620  0.2258  0.1204
  513MOL0     C69154  11.849   6.619   1.032 -0.1941 -0.1094  0.4024
  513MOL0     C69155  11.937   6.546   1.115  0.1544 -0.4926 -0.0418
  513MOL0     O69156  12.067   6.535   1.076 -0.8463 -0.2321 -0.2252
  513MOL0     C69157  12.158   6.604   1.149  0.1184  0.3226 -1.0640
  513MOL0     C69158  12.293   6.611   1.076 -0.6846  0.5445 -0.0275
  513MOL0     C69159  12.365   6.477   1.071  0.4603  0.4061  0.4709
  513MOL0     C69160  12.518   6.488   1.064  0.2586  0.2512 -0.4759
  513MOL0     C69161  12.584   6.576   0.949  0.4908 -0.4409 -0.0463
  513MOL0     C69162  12.732   6.557   0.949 -0.6244  0.0090 -0.2278
  513MOL0     C69163  12.805   6.611   0.825 -0.2347 -0.8881  0.4952
  513MOL0     C69164  12.919   6.714   0.857  0.5634 -0.0319  0.5257
  513MOL0    Cl69165  12.831   6.869   0.902 -0.3476 -0.0621 -0.2471
  513MOL0     C69166  11.886   6.481   1.230 -0.3134 -0.0278  0.9164
  513MOL0     C69167  11.752   6.493   1.257 -0.0049  0.5399  0.3773
  513MOL0     O69168  11.448   6.707   1.030 -0.2089 -0.6438  0.2358
  513MOL0     C69169  11.332   6.748   1.356 -0.2198 -0.0746 -0.8226
  513MOL0     C69170  11.234   6.813   1.432 -0.7543  0.6822 -0.0003
  513MOL0     N69171  10.509   6.987   1.794  0.3071  0.6476 -0.6258
  513MOL0     N69172  10.441   6.870   1.795 -0.5817  0.1855  0.2002
  513MOL0     C69173  10.719   6.140   2.144 -0.0544 -0.0389 -0.4312
  513MOL0     C69174  10.862   6.110   2.135 -0.3115  0.0842 -0.4959
  513MOL0     C69175  11.250   5.868   2.144 -0.7246  0.5454  0.4593
  513MOL0     C69176  11.297   5.918   2.022  0.0816  0.0072  0.0523
  513MOL0     C69177  11.430   5.908   1.992 -0.4798 -0.9063 -0.3051
  513MOL0     C69178  11.529   5.858   2.084 -0.5563 -0.0131 -0.1087
  513MOL0     O69179  11.664   5.848   2.057 -0.1838  0.6340  0.2234
  513MOL0     C69180  11.717   5.880   1.921  0.1574  0.3783  0.8788
  513MOL0     C69181  11.855   5.833   1.911 -0.1490 -0.2413 -0.1075
  513MOL0     C69182  11.886   5.694   1.963 -0.3990 -0.0732  0.8129
  513MOL0     C69183  11.828   5.589   1.872 -0.0929  0.6723  0.8069
  513MOL0     C69184  11.681   5.564   1.893 -0.0580  0.2280  0.6108
  513MOL0     C69185  11.562   5.555   1.921 -0.3441 -0.5730 -0.1364
  513MOL0     C69186  11.482   5.810   2.207  0.2670 -0.1092 -0.6157
  513MOL0     C69187  11.344   5.816   2.242 -0.6641 -0.0540 -0.1879
  513MOL0     H69188  10.834   5.771   2.091 -0.9576 -0.9197  1.5474
  513MOL0     H69189  10.601   5.815   2.141  1.9297 -0.5668  2.1439
  513MOL0     H69190  10.454   6.036   1.948  1.7811  1.0550  0.0383
  513MOL0     H69191  10.426   5.887   2.036  1.2890  0.4628  0.8826
  513MOL0     H69192  10.211   5.987   1.991 -0.1631 -1.8144  2.1443
  513MOL0     H69193  10.241   6.036   2.152 -0.8794  1.2916  0.9093
  513MOL0     H69194  10.261   6.194   1.886  2.9694  0.0447  1.0589
  513MOL0     H69195  10.136   6.215   2.013 -0.2627 -1.3513  4.2734
  513MOL0     H69196  10.289   6.305   2.155  3.6984 -1.3731  1.1883
  513MOL0     H69197  10.427   6.290   2.031 -0.2246  0.5217 -3.1860
  513MOL0     H69198  10.164   6.439   1.982 -0.6047 -1.8908  0.7838
  513MOL0     H69199  10.310   6.522   2.054 -3.0988  1.4338  0.6842
  513MOL0     H69200  10.416   6.380   1.816  1.1669  1.1706 -1.2927
  513MOL0     H69201  10.253   6.409   1.772 -0.3291 -0.9599  0.7464
  513MOL0     H69202  10.398   6.578   1.706 -1.1231 -0.9629 -0.3946
  513MOL0     H69203  10.273   6.649   1.801 -0.0206 -0.8469 -0.7571
  513MOL0     H69204  10.565   6.566   1.884 -3.8457 -3.0797 -1.7043
  513MOL0     H69205  10.464   6.667   1.998  0.0492  0.4278  0.5299
  513MOL0     H69206  10.757   6.782   1.873  0.6965  0.9454  0.3964
  513MOL0     H69207  10.702   7.143   1.732 -0.6746 -0.2714  1.5129
  513MOL0     H69208  10.762   7.116   1.898  2.6286 -0.6320 -0.3324
  513MOL0     H69209  10.912   6.945   1.819 -0.9838  1.5198  0.5333
  513MOL0     H69210  10.952   7.102   1.762  0.5736 -0.5527 -1.7842
  513MOL0     H69211  10.859   7.066   1.547 -0.5411  1.1735  1.6626
  513MOL0     H69212  10.803   6.898   1.598 -0.0939 -0.3483  0.7519
  513MOL0     H69213  11.026   6.834   1.625  0.4422 -0.8135 -2.0142
  513MOL0     H69214  11.099   6.993   1.611 -0.2984  1.4021 -1.1134
  513MOL0     H69215  11.006   6.858   1.192  0.4225 -1.9004 -1.9053
  513MOL0     H69216  11.057   6.672   0.994  0.3645 -1.0144 -2.5311
  513MOL0     H69217  11.163   6.814   0.959 -1.9352  1.3823  1.5245
  513MOL0     H69218  11.222   6.644   0.977  0.7529 -1.0444  2.0456
  513MOL0     H69219  11.683   6.731   1.013  0.2508  0.8585  0.7423
  513MOL0     H69220  11.880   6.668   0.940 -2.4349 -0.3170 -0.5286
  513MOL0     H69221  12.125   6.702   1.182  0.2972 -0.3888  1.3861
  513MOL0     H69222  12.188   6.543   1.235  0.7772 -2.7094 -3.2425
  513MOL0     H69223  12.276   6.642   0.972 -1.6937  0.3374  0.0648
  513MOL0     H69224  12.362   6.680   1.123  1.6519  2.0278 -4.9936
  513MOL0     H69225  12.323   6.413   0.993  0.1173 -1.5013  2.1495
  513MOL0     H69226  12.346   6.420   1.162  3.0485 -2.0809 -0.4225
  513MOL0     H69227  12.551   6.532   1.159 -2.9148  2.3292 -0.1980
  513MOL0     H69228  12.550   6.384   1.057 -2.5339 -1.0140  3.0811
  513MOL0     H69229  12.566   6.684   0.960  0.0069 -0.0570 -3.4259
  513MOL0     H69230  12.547   6.552   0.849  2.8063 -1.1363 -0.8165
  513MOL0     H69231  12.762   6.607   1.041  1.2745  0.6323 -1.1167
  513MOL0     H69232  12.750   6.450   0.959 -1.5947 -0.0335  1.3856
  513MOL0     H69233  12.728   6.646   0.755  0.9350 -2.3672 -1.6635
  513MOL0     H69234  12.845   6.522   0.775  0.2545  0.0744 -0.8769
  513MOL0     H69235  12.986   6.728   0.772  0.8233  3.1176  1.1143
  513MOL0     H69236  12.975   6.673   0.942 -1.6780 -4.1746  0.2811
  513MOL0     H69237  11.957   6.422   1.288  3.6348  1.6522 -1.7674
  513MOL0     H69238  11.718   6.439   1.344  0.2436  0.6800  0.5601
  513MOL0     H69239  11.425   6.723   1.405 -1.1918 -3.1709 -0.3375
  513MOL0     H69240  11.250   6.818   1.539 -1.5271  2.0967  0.0818
  513MOL0     H69241  10.666   6.230   2.174 -2.2047 -1.5698  0.6783
  513MOL0     H69242  10.929   6.194   2.152 -2.7661  2.4548 -1.6717
  513MOL0     H69243  11.225   5.953   1.949 -2.1565 -2.1528  1.0692
  513MOL0     H69244  11.454   5.938   1.891  2.5641 -0.6335  0.3814
  513MOL0     H69245  11.652   5.837   1.845  2.9672 -0.2813 -1.3090
  513MOL0     H69246  11.700   5.988   1.920  2.8708  0.8753  1.1857
  513MOL0     H69247  11.905   5.899   1.984 -0.5453  0.3426 -0.3542
  513MOL0     H69248  11.901   5.858   1.815  1.4142  0.9246  0.8915
  513MOL0     H69249  11.847   5.681   2.065  2.0908  2.0801  2.1494
  513MOL0     H69250  11.993   5.673   1.971 -0.9667 -2.9105  2.4010
  513MOL0     H69251  11.878   5.498   1.906  0.4291  1.3247  1.8196
  513MOL0     H69252  11.860   5.621   1.773  3.3987  1.4627  2.0687
  513MOL0     H69253  11.462   5.579   1.953  0.2852  3.5677 -0.8296
  513MOL0     H69254  11.545   5.755   2.276 -1.0468 -1.0940 -0.1453
  513MOL0     H69255  11.312   5.786   2.342 -1.1276  0.7956 -0.0764
  514MOL0     O69256   5.387   2.441   7.700 -0.1448 -0.2675  0.8271
  514MOL0     C69257   5.304   2.495   7.771 -0.9286 -0.1208 -0.6014
  514MOL0     O69258   5.172   2.508   7.742 -0.1624  0.4404  0.6844
  514MOL0     C69259   5.117   2.532   7.616 -0.0135 -0.2963 -0.1439
  514MOL0     C69260   5.187   2.591   7.518  0.2587 -0.1639  1.0187
  514MOL0     C69261   5.131   2.634   7.398 -0.0480 -0.1204  0.6143
  514MOL0     C69262   4.989   2.620   7.375  0.1394 -0.1933  1.0221
  514MOL0     O69263   4.912   2.650   7.259  0.5606 -0.5593 -0.1465
  514MOL0     C69264   4.970   2.751   7.176 -0.0332  0.1536 -0.7970
  514MOL0     C69265   4.873   2.779   7.069  0.8818  0.1569  0.4908
  514MOL0     C69266   4.742   2.854   7.122  0.1805 -0.3492  0.2354
  514MOL0     C69267   4.636   2.827   7.027  0.3713  0.6411  0.0963
  514MOL0     C69268   4.508   2.911   7.059 -0.0576 -1.2951  0.4153
  514MOL0     C69269   4.441   2.877   7.188 -0.0323  0.2072 -1.1863
  514MOL0     C69270   4.304   2.959   7.202 -1.0801 -0.3840  0.5080
  514MOL0     C69271   4.237   2.949   7.345 -0.6106  1.1437  0.1891
  514MOL0     N69272   4.106   3.017   7.339  0.1603  0.1945 -0.0715
  514MOL0     C69273   4.097   3.155   7.318 -0.5975  0.1943 -1.3449
  514MOL0     C69274   3.977   3.196   7.353  0.2665  0.2641  0.2222
  514MOL0     C69275   3.908   3.331   7.370  0.4298 -0.1766 -0.4074
  514MOL0     C69276   3.944   3.384   7.509 -0.2379 -0.6017 -0.1406
  514MOL0     C69277   3.911   3.300   7.637  0.1033 -0.4844  0.7076
  514MOL0     C69278   3.764   3.290   7.670 -0.2519 -0.4553 -0.2483
  514MOL0     O69279   3.713   3.419   7.662  0.6815 -0.0462  0.2015
  514MOL0     C69280   3.578   3.441   7.679 -0.3265 -0.9831 -0.2244
  514MOL0     C69281   3.547   3.575   7.658 -0.1829  0.0750 -0.2552
  514MOL0     C69282   3.417   3.615   7.656  1.1224  0.7019  0.6534
  514MOL0     C69283   3.396   3.756   7.617 -0.1314  0.7214 -0.2969
  514MOL0     C69284   3.309   3.528   7.674  0.3554  0.7419 -1.3934
  514MOL0     C69285   3.165   3.571   7.685 -0.3369 -1.0819  0.4708
  514MOL0     O69286   3.071   3.473   7.667  0.0176  0.9557 -0.6362
  514MOL0     C69287   2.933   3.499   7.688  0.0515  0.3100 -0.0916
  514MOL0     C69288   2.869   3.392   7.739 -0.3562  0.4956 -0.2692
  514MOL0     C69289   2.731   3.385   7.753 -0.3801  0.7388 -0.5224
  514MOL0     C69290   2.650   3.495   7.719 -0.0703  0.5591 -0.0776
  514MOL0     O69291   2.514   3.469   7.724 -1.3448  0.1034 -0.0977
  514MOL0     C69292   2.424   3.577   7.708 -0.0477  0.3647 -0.3264
  514MOL0     C69293   2.282   3.534   7.688  1.0230  0.5556  0.2318
  514MOL0     C69294   2.185   3.655   7.684  0.2313  0.4411 -0.0096
  514MOL0     C69295   2.185   3.719   7.539  0.8504 -0.1773  0.0706
  514MOL0     C69296   2.102   3.844   7.542  0.1523 -0.3242  0.4513
  514MOL0     C69297   1.983   3.840   7.454 -0.2382 -0.5191  0.5873
  514MOL0     C69298   1.914   3.976   7.457  0.3870 -0.3719 -0.5304
  514MOL0     C69299   1.811   4.007   7.355 -0.1544  1.0091  0.6476
  514MOL0    Cl69300   1.691   3.865   7.343  0.0584 -0.7008  0.1549
  514MOL0     C69301   2.713   3.597   7.658  0.1856 -0.3918 -0.3492
  514MOL0     C69302   2.854   3.608   7.651  0.9268 -0.6266 -0.3723
  514MOL0     O69303   3.139   3.686   7.720  0.9358 -0.5188 -0.4613
  514MOL0     C69304   3.344   3.396   7.690 -0.0634  0.0178  0.1345
  514MOL0     C69305   3.479   3.349   7.698  0.2585  0.0479  0.6538
  514MOL0     N69306   3.901   3.074   7.366 -0.4174 -0.1410  0.1490
  514MOL0     N69307   3.981   2.969   7.364 -0.0537 -0.3352  0.0290
  514MOL0     C69308   4.915   2.563   7.481 -0.4818  0.0323  0.6318
  514MOL0     C69309   4.981   2.516   7.597 -0.1616  0.1386  0.1006
  514MOL0     C69310   5.365   2.550   7.895 -0.3779  0.5737  0.1250
  514MOL0     C69311   5.507   2.548   7.909  0.8253 -0.2436 -0.0186
  514MOL0     C69312   5.567   2.585   8.033  1.2320 -0.5327 -0.2419
  514MOL0     C69313   5.499   2.660   8.132 -0.2474  0.2550 -0.1147
  514MOL0     O69314   5.566   2.707   8.243 -0.1151  0.5077 -0.0590
  514MOL0     C69315   5.519   2.814   8.320 -0.3108  0.4393  0.4220
  514MOL0     C69316   5.604   2.837   8.446 -0.1949 -0.4465  0.2642
  514MOL0     C69317   5.548   2.754   8.566 -0.4770  0.6254 -0.4557
  514MOL0     C69318   5.631   2.752   8.694  0.1740  0.2723  0.3776
  514MOL0     C69319   5.628   2.889   8.747  1.0660  0.5116  0.0518
  514MOL0     C69320   5.603   2.995   8.797  0.6866  0.0767  0.1438
  514MOL0     C69321   5.361   2.667   8.114  0.2863 -0.7924  0.2400
  514MOL0     C69322   5.289   2.614   8.002 -0.2039 -0.3955  0.0119
  514MOL0     H69323   5.293   2.612   7.529  0.5653 -1.8287  1.5261
  514MOL0     H69324   5.200   2.672   7.324 -0.7124 -1.7328 -0.8880
  514MOL0     H69325   4.992   2.841   7.233  0.8001 -0.5479  0.0178
  514MOL0     H69326   5.059   2.707   7.130 -0.5079  0.1443 -1.7209
  514MOL0     H69327   4.918   2.842   6.993 -1.3147  0.6427 -0.5062
  514MOL0     H69328   4.840   2.686   7.021 -1.0307  1.2104 -0.3508
  514MOL0     H69329   4.708   2.820   7.220 -0.6731  0.1702  0.1279
  514MOL0     H69330   4.771   2.960   7.128  1.5951 -0.7063  0.2323
  514MOL0     H69331   4.671   2.852   6.926 -2.2096  2.9421 -0.3507
  514MOL0     H69332   4.613   2.721   7.033 -1.9680  1.1355  1.0008
  514MOL0     H69333   4.530   3.018   7.064 -1.8059 -0.8570 -0.2928
  514MOL0     H69334   4.439   2.896   6.976  0.2146  1.4123 -0.4069
  514MOL0     H69335   4.431   2.768   7.189 -2.1457  0.3106  1.7644
  514MOL0     H69336   4.505   2.903   7.272 -0.4570  1.1692 -1.1449
  514MOL0     H69337   4.343   3.060   7.189  1.4394 -1.2973  0.2910
  514MOL0     H69338   4.238   2.945   7.117  0.5653 -1.0579 -0.7251
  514MOL0     H69339   4.305   2.975   7.427  0.3919 -0.4494 -0.0751
  514MOL0     H69340   4.221   2.841   7.361  0.1525  0.6998 -1.8328
  514MOL0     H69341   4.180   3.216   7.284 -1.7777  2.0736 -0.9872
  514MOL0     H69342   3.926   3.393   7.281 -0.5108  0.8474  0.0812
  514MOL0     H69343   3.799   3.327   7.380  0.5092  0.9847  1.5326
  514MOL0     H69344   3.896   3.482   7.518  1.6250  0.2947  0.4878
  514MOL0     H69345   4.051   3.401   7.504 -0.5541  1.4448 -0.9590
  514MOL0     H69346   3.970   3.354   7.711 -1.6846  3.1598 -0.2952
  514MOL0     H69347   3.953   3.200   7.625  2.4289  0.5969 -1.1510
  514MOL0     H69348   3.746   3.252   7.771  4.6472 -1.5405  0.4413
  514MOL0     H69349   3.715   3.225   7.597 -2.4578 -2.0659  2.4346
  514MOL0     H69350   3.622   3.637   7.609 -0.5023  0.5950 -0.0852
  514MOL0     H69351   3.484   3.790   7.563  0.7700 -2.5946 -1.1565
  514MOL0     H69352   3.305   3.771   7.558 -1.0165  0.7726  1.0275
  514MOL0     H69353   3.389   3.810   7.712 -3.5492  1.4273 -0.8060
  514MOL0     H69354   2.926   3.308   7.777 -0.6315  0.0645 -0.7897
  514MOL0     H69355   2.684   3.302   7.805 -0.6356  2.2811  1.9090
  514MOL0     H69356   2.430   3.637   7.799 -0.8430  0.0933 -0.0845
  514MOL0     H69357   2.445   3.630   7.615 -1.1270 -0.4100 -1.0396
  514MOL0     H69358   2.274   3.479   7.593  1.1325  1.4249 -0.2946
  514MOL0     H69359   2.257   3.464   7.767  0.6052  0.2089 -0.1985
  514MOL0     H69360   2.219   3.729   7.757  2.0732  0.6271 -0.9933
  514MOL0     H69361   2.082   3.630   7.712  0.2814  0.3654  0.1081
  514MOL0     H69362   2.285   3.748   7.509  1.0820 -0.3430  0.6630
  514MOL0     H69363   2.140   3.646   7.471 -1.5301  0.1675  1.1525
  514MOL0     H69364   2.163   3.931   7.516  0.4145 -0.5620  0.2517
  514MOL0     H69365   2.063   3.874   7.639  1.2802  3.0458 -0.0229
  514MOL0     H69366   2.022   3.816   7.355 -2.0059 -0.5894 -0.1396
  514MOL0     H69367   1.929   3.752   7.493 -0.6414 -1.3378 -1.6467
  514MOL0     H69368   1.984   4.060   7.459 -1.8599  1.6235  1.5472
  514MOL0     H69369   1.861   3.986   7.553  1.2667 -0.7953  0.0085
  514MOL0     H69370   1.879   4.027   7.272 -0.2755 -0.5381  0.1447
  514MOL0     H69371   1.747   4.094   7.374 -1.2469  0.7465 -1.5887
  514MOL0     H69372   2.652   3.677   7.618  1.7262  0.7324 -0.5384
  514MOL0     H69373   2.906   3.693   7.609 -0.8781  1.7031  1.8609
  514MOL0     H69374   3.264   3.333   7.726  2.6382 -2.8206  1.7182
  514MOL0     H69375   3.491   3.243   7.716 -0.8496 -0.4086 -1.0666
  514MOL0     H69376   4.812   2.541   7.454 -0.1833  1.9455 -2.6988
  514MOL0     H69377   4.926   2.466   7.677  1.1321  1.0685  1.6460
  514MOL0     H69378   5.571   2.503   7.833  1.1719 -0.6469  0.5111
  514MOL0     H69379   5.669   2.562   8.059  1.0866  0.0254  0.8633
  514MOL0     H69380   5.527   2.910   8.267  1.8191 -0.3312 -0.7936
  514MOL0     H69381   5.413   2.807   8.348 -0.2286  1.6468  1.1020
  514MOL0     H69382   5.594   2.941   8.478  2.1851 -0.3419  0.8173
  514MOL0     H69383   5.708   2.820   8.416 -0.2002 -0.8455  0.4695
  514MOL0     H69384   5.521   2.651   8.541 -1.3277  0.9289 -0.8428
  514MOL0     H69385   5.455   2.807   8.590  0.8074  2.8182 -0.0960
  514MOL0     H69386   5.734   2.722   8.676 -0.5856 -1.5968 -1.2300
  514MOL0     H69387   5.577   2.684   8.760 -1.8867  0.4440 -1.0245
  514MOL0     H69388   5.584   3.090   8.843  0.2570  0.1895 -0.2487
  514MOL0     H69389   5.300   2.717   8.189 -1.7794 -1.5911 -0.8323
  514MOL0     H69390   5.181   2.617   7.996 -0.8029 -1.1713  5.3071
  515MOL0     O69391   0.657   3.372   7.509 -0.5670 -0.3705 -0.1108
  515MOL0     C69392   0.708   3.439   7.421 -0.1872 -0.0588 -0.7157
  515MOL0     O69393   0.648   3.527   7.334 -0.4529  0.4963  0.8206
  515MOL0     C69394   0.509   3.526   7.307  0.4167  0.8418 -0.1867
  515MOL0     C69395   0.404   3.468   7.387 -0.7494  0.1430  0.2470
  515MOL0     C69396   0.271   3.500   7.382  0.2223 -0.4742  0.1670
  515MOL0     C69397   0.234   3.597   7.293  0.2839 -0.3465  0.6703
  515MOL0     O69398   0.098   3.624   7.296  0.2662  0.0486  0.0820
  515MOL0     C69399   0.049   3.722   7.204  0.4538 -0.7404  0.5464
  515MOL0     C69400  -0.095   3.757   7.226 -0.2611  0.3356  0.5075
  515MOL0     C69401  -0.126   3.804   7.371  0.2998 -0.0275 -0.0729
  515MOL0     C69402  -0.270   3.805   7.395 -0.0218 -0.6459 -0.6172
  515MOL0     C69403  -0.313   3.900   7.512 -1.0540 -0.2834 -0.4018
  515MOL0     C69404  -0.464   3.923   7.508 -0.3015  0.9881  0.4713
  515MOL0     C69405  -0.517   4.011   7.619  0.2791 -0.3107  0.1466
  515MOL0     C69406  -0.672   4.039   7.614 -0.1359  0.1251  0.8439
  515MOL0     N69407  -0.693   4.155   7.697 -0.4370  0.0719 -0.3041
  515MOL0     C69408  -0.694   4.283   7.650  0.1836 -0.3432 -0.0243
  515MOL0     C69409  -0.713   4.351   7.763  0.6640  0.5162  0.4128
  515MOL0     C69410  -0.717   4.500   7.785  0.2148 -0.1167  0.0738
  515MOL0     C69411  -0.854   4.564   7.803 -0.1617  0.7957 -1.5520
  515MOL0     C69412  -0.924   4.538   7.936  0.1437 -0.6990 -0.4022
  515MOL0     C69413  -1.071   4.583   7.929  0.4176  0.9968  0.8687
  515MOL0     O69414  -1.113   4.609   8.062  0.3110 -0.9424 -0.3481
  515MOL0     C69415  -1.246   4.651   8.073 -0.0123 -0.4761 -0.6481
  515MOL0     C69416  -1.291   4.765   8.007  0.5213  0.0697  0.1759
  515MOL0     C69417  -1.420   4.815   8.007  0.1519  0.1663  0.6917
  515MOL0     C69418  -1.435   4.949   7.934  0.1393 -0.4282  0.2572
  515MOL0     C69419  -1.516   4.740   8.078  0.1154 -0.2931 -0.1415
  515MOL0     C69420  -1.651   4.790   8.096  0.0339 -0.5858 -0.2534
  515MOL0     O69421  -1.738   4.700   8.162  0.3125 -0.0746 -0.3370
  515MOL0     C69422  -1.868   4.737   8.154 -0.3063 -0.0428 -0.7170
  515MOL0     C69423  -1.937   4.763   8.275  0.0220  0.4473  0.5050
  515MOL0     C69424  -2.079   4.786   8.269 -0.1950 -0.0657  0.3571
  515MOL0     C69425  -2.148   4.788   8.140 -0.0046  0.9628  0.2301
  515MOL0     O69426  -2.279   4.801   8.122  1.4382  0.3413 -0.3475
  515MOL0     C69427  -2.377   4.782   8.228 -0.0429 -0.2918  0.0314
  515MOL0     C69428  -2.523   4.776   8.181 -0.2249 -0.0486  0.1060
  515MOL0     C69429  -2.569   4.654   8.108  0.3311 -0.0717 -0.0887
  515MOL0     C69430  -2.707   4.695   8.055  0.0034 -0.4028 -0.4781
  515MOL0     C69431  -2.768   4.575   7.980 -0.5691  0.1701 -0.3187
  515MOL0     C69432  -2.911   4.604   7.939 -0.1886  0.2257 -0.1606
  515MOL0     C69433  -2.951   4.530   7.806  0.3276 -1.2619 -0.6222
  515MOL0     C69434  -3.098   4.528   7.792  0.9165  0.7853 -0.0160
  515MOL0    Cl69435  -3.138   4.384   7.695 -0.1631  0.5261  0.5337
  515MOL0     C69436  -2.075   4.780   8.025 -0.0394  0.3606  0.0678
  515MOL0     C69437  -1.932   4.750   8.032  0.7926  0.1119  0.3881
  515MOL0     O69438  -1.677   4.909   8.069  0.8477 -0.5275 -0.4290
  515MOL0     C69439  -1.474   4.612   8.138  0.6966  0.4887 -0.4772
  515MOL0     C69440  -1.339   4.572   8.140  1.5829  0.2109  0.1223
  515MOL0     N69441  -0.741   4.273   7.868 -0.1710  0.2778 -0.1098
  515MOL0     N69442  -0.720   4.149   7.828  0.1541 -0.9855 -0.1398
  515MOL0     C69443   0.328   3.653   7.203  0.2833  0.3140 -0.3203
  515MOL0     C69444   0.463   3.609   7.201 -0.0515  0.1131  0.1632
  515MOL0     C69445   0.857   3.416   7.413 -0.7259  0.1576  0.0200
  515MOL0     C69446   0.938   3.364   7.515  0.1865 -0.6534  0.2675
  515MOL0     C69447   1.075   3.338   7.499 -0.3263 -0.1830  0.1825
  515MOL0     C69448   1.142   3.372   7.383  1.1124  0.0480  0.2003
  515MOL0     O69449   1.278   3.360   7.392  0.0884  0.0584  0.3851
  515MOL0     C69450   1.368   3.412   7.302  0.2451  0.4432 -0.3423
  515MOL0     C69451   1.397   3.309   7.184  0.3037 -0.6909  0.3814
  515MOL0     C69452   1.524   3.235   7.201  0.1605 -0.2444  0.1186
  515MOL0     C69453   1.591   3.182   7.067 -1.0321  0.0264  0.2848
  515MOL0     C69454   1.729   3.154   7.101  0.2429 -0.6142 -0.3322
  515MOL0     C69455   1.845   3.140   7.125  0.0510 -0.1078  0.4165
  515MOL0     C69456   1.062   3.424   7.279  0.2276  0.2974 -0.2794
  515MOL0     C69457   0.927   3.450   7.299  0.8792 -0.0066  0.3839
  515MOL0     H69458   0.444   3.412   7.471  2.6211 -0.9442 -1.9135
  515MOL0     H69459   0.202   3.457   7.454 -0.5748  2.2149  1.1334
  515MOL0     H69460   0.106   3.816   7.203 -0.1372 -0.3049 -2.3683
  515MOL0     H69461   0.066   3.686   7.101  3.0533  2.7008 -0.4130
  515MOL0     H69462  -0.121   3.840   7.159 -1.1910  1.1231  1.8056
  515MOL0     H69463  -0.155   3.670   7.198 -0.4122 -0.0103  1.8172
  515MOL0     H69464  -0.086   3.731   7.442 -0.3583  1.4044  1.8193
  515MOL0     H69465  -0.091   3.908   7.370 -1.3995  0.5732 -0.9161
  515MOL0     H69466  -0.311   3.847   7.303  0.0245  1.0632  0.0999
  515MOL0     H69467  -0.308   3.706   7.422 -0.1924 -0.4543 -0.1395
  515MOL0     H69468  -0.286   3.863   7.611  1.5244  2.7041  0.1629
  515MOL0     H69469  -0.263   3.995   7.493 -1.0421 -0.7161 -2.8413
  515MOL0     H69470  -0.480   3.965   7.408 -0.5946 -0.6044 -0.1745
  515MOL0     H69471  -0.505   3.822   7.511 -1.0015  1.1372 -1.9199
  515MOL0     H69472  -0.494   3.968   7.718 -2.5246 -2.6028 -0.0377
  515MOL0     H69473  -0.466   4.107   7.623  0.5732 -0.4863  0.8243
  515MOL0     H69474  -0.719   3.948   7.653 -2.9791  1.1418  0.0175
  515MOL0     H69475  -0.713   4.054   7.514 -2.2437 -0.7023  1.5285
  515MOL0     H69476  -0.674   4.321   7.551  2.0029 -2.2589 -0.4387
  515MOL0     H69477  -0.665   4.528   7.877  0.0784  1.2472 -0.2410
  515MOL0     H69478  -0.671   4.543   7.696 -1.5031 -0.5706 -1.0689
  515MOL0     H69479  -0.924   4.552   7.719  0.4514 -0.8409 -1.8506
  515MOL0     H69480  -0.830   4.671   7.808 -0.1153  0.7272  0.0106
  515MOL0     H69481  -0.869   4.585   8.019  2.0789 -0.4632 -1.7606
  515MOL0     H69482  -0.925   4.429   7.946 -0.6873 -0.8233 -1.5750
  515MOL0     H69483  -1.130   4.499   7.891 -0.1515  1.2996  1.0617
  515MOL0     H69484  -1.075   4.669   7.861  0.2962  0.2919 -0.0265
  515MOL0     H69485  -1.221   4.831   7.957 -2.5442  3.0835 -0.5093
  515MOL0     H69486  -1.533   4.979   7.896  0.9616 -0.1575 -1.8207
  515MOL0     H69487  -1.389   5.029   7.992  3.0752  0.6193 -3.1282
  515MOL0     H69488  -1.372   4.950   7.844 -1.1912  1.7544 -0.7235
  515MOL0     H69489  -1.890   4.757   8.372  1.1833 -1.1423 -0.1144
  515MOL0     H69490  -2.130   4.795   8.364  2.7914 -1.4934  2.2678
  515MOL0     H69491  -2.363   4.684   8.275 -1.1792 -0.8891 -0.8298
  515MOL0     H69492  -2.367   4.864   8.300 -0.7596  2.0555 -2.3847
  515MOL0     H69493  -2.583   4.799   8.270 -1.8377  0.0382 -0.9629
  515MOL0     H69494  -2.548   4.856   8.111  0.6666 -0.1442 -0.3280
  515MOL0     H69495  -2.568   4.572   8.181 -4.2923 -2.0359 -1.8009
  515MOL0     H69496  -2.499   4.624   8.029  0.5282  0.3022 -0.0581
  515MOL0     H69497  -2.773   4.717   8.139  1.3293  1.0066  0.2492
  515MOL0     H69498  -2.710   4.783   7.990  0.0352  1.0862  1.4635
  515MOL0     H69499  -2.761   4.488   8.046 -0.8746 -0.5540 -1.2194
  515MOL0     H69500  -2.712   4.559   7.887 -1.2402 -0.7668 -0.5748
  515MOL0     H69501  -2.970   4.575   8.027  1.0181 -2.2339 -0.0781
  515MOL0     H69502  -2.912   4.713   7.928  2.0221  0.5516  2.0273
  515MOL0     H69503  -2.923   4.424   7.815 -0.8259 -1.3870  2.4698
  515MOL0     H69504  -2.905   4.582   7.721 -0.1460  0.9254  0.4058
  515MOL0     H69505  -3.131   4.625   7.754  1.6320  0.6007 -1.1624
  515MOL0     H69506  -3.136   4.521   7.894  3.0887 -1.0167  0.7436
  515MOL0     H69507  -2.128   4.779   7.930 -0.1268  0.1039  0.1185
  515MOL0     H69508  -1.868   4.746   7.944 -0.3106  0.7262 -0.4607
  515MOL0     H69509  -1.547   4.556   8.196 -1.4045 -1.2345 -4.3739
  515MOL0     H69510  -1.302   4.479   8.181  1.5816 -0.3048 -1.0139
  515MOL0     H69511   0.293   3.727   7.131 -0.3044 -0.9797 -1.4036
  515MOL0     H69512   0.539   3.651   7.136 -0.3784 -0.6879 -0.7645
  515MOL0     H69513   0.900   3.337   7.613 -0.4283  0.9441  0.4890
  515MOL0     H69514   1.124   3.312   7.592  1.6040  0.5516 -0.5824
  515MOL0     H69515   1.335   3.509   7.263 -0.4174  1.0187  1.5212
  515MOL0     H69516   1.456   3.429   7.366 -0.0789  0.2193  0.1700
  515MOL0     H69517   1.411   3.374   7.097  2.0354 -3.3103 -1.4517
  515MOL0     H69518   1.316   3.243   7.152 -0.1271  0.5080 -1.1295
  515MOL0     H69519   1.512   3.147   7.264  1.0404 -1.0622 -0.8120
  515MOL0     H69520   1.593   3.292   7.264 -0.6895  0.8830  0.0649
  515MOL0     H69521   1.591   3.258   6.989  3.2356 -1.5874 -1.5764
  515MOL0     H69522   1.554   3.088   7.024 -0.4372  1.0589 -2.7273
  515MOL0     H69523   1.946   3.139   7.161  0.5149 -0.1004 -0.8315
  515MOL0     H69524   1.107   3.457   7.186  0.5020  0.1424 -0.2015
  515MOL0     H69525   0.885   3.503   7.213  0.4171  0.3256  0.8071
  516MOL0     O69526   7.711   5.905   5.122 -0.1005  0.2229 -0.3403
  516MOL0     C69527   7.779   5.798   5.124 -0.1921 -0.7666  0.1880
  516MOL0     O69528   7.731   5.680   5.104 -0.5648  0.7102  0.4981
  516MOL0     C69529   7.603   5.674   5.062  0.2303  0.1592  0.0632
  516MOL0     C69530   7.565   5.676   4.930  0.1307 -0.5488  0.3389
  516MOL0     C69531   7.433   5.666   4.893  0.0010 -0.9313 -0.2555
  516MOL0     C69532   7.331   5.647   4.994  0.1771  0.4492 -0.6119
  516MOL0     O69533   7.197   5.647   4.961  0.2434  0.4205 -0.0094
  516MOL0     C69534   7.162   5.696   4.829 -0.7458  0.4013 -0.0095
  516MOL0     C69535   7.164   5.579   4.726 -0.0478 -0.5704  0.7275
  516MOL0     C69536   7.029   5.510   4.730 -0.4134 -0.7409 -0.1039
  516MOL0     C69537   7.040   5.384   4.641  0.2176 -0.0700 -0.0390
  516MOL0     C69538   6.910   5.309   4.625  0.8178  0.1164 -0.1368
  516MOL0     C69539   6.871   5.212   4.740  0.2777 -0.1565 -0.5434
  516MOL0     C69540   6.926   5.068   4.723  0.0457 -0.4945  0.4741
  516MOL0     C69541   6.840   4.974   4.810 -0.3502 -0.4358  0.5670
  516MOL0     N69542   6.710   4.937   4.765 -0.2909 -0.2561 -0.0054
  516MOL0     C69543   6.679   4.816   4.700 -0.1402 -0.0783 -0.3203
  516MOL0     C69544   6.547   4.831   4.669 -0.3549 -0.1349 -0.2006
  516MOL0     C69545   6.472   4.724   4.603  0.0672 -0.7286  0.0424
  516MOL0     C69546   6.316   4.723   4.621  0.5578 -0.6125  0.0001
  516MOL0     C69547   6.244   4.591   4.582  0.0762  0.7945  0.5023
  516MOL0     C69548   6.322   4.462   4.615 -0.5187  0.8111 -0.1942
  516MOL0     O69549   6.235   4.346   4.609  0.4394  0.4290 -0.1635
  516MOL0     C69550   6.188   4.303   4.487 -0.2619 -0.4725 -0.0041
  516MOL0     C69551   6.080   4.208   4.485  0.6969 -0.3198  0.1727
  516MOL0     C69552   6.031   4.147   4.370 -0.0873 -0.6356 -0.6008
  516MOL0     C69553   5.911   4.055   4.381  0.8316 -0.3339  0.3218
  516MOL0     C69554   6.084   4.179   4.246 -0.2377  0.0476  0.5075
  516MOL0     C69555   6.051   4.105   4.121 -0.4640  0.4031 -0.2775
  516MOL0     O69556   6.089   4.169   4.007 -0.5843 -0.2390  0.1450
  516MOL0     C69557   6.028   4.118   3.902 -0.5075 -0.1171  0.9357
  516MOL0     C69558   6.094   4.025   3.826  0.3753  0.4026  0.1751
  516MOL0     C69559   6.033   3.953   3.722 -0.1694  0.3417  0.8278
  516MOL0     C69560   5.906   3.991   3.677  0.1082 -1.0160  0.2238
  516MOL0     O69561   5.854   3.936   3.559 -0.0691  0.6104  0.2664
  516MOL0     C69562   5.944   3.924   3.451  1.0474 -0.8231 -0.3785
  516MOL0     C69563   5.874   3.877   3.322  0.2167 -0.2547  0.9014
  516MOL0     C69564   5.774   3.979   3.279  1.0799  0.3719  0.6010
  516MOL0     C69565   5.644   3.921   3.236  0.2283 -0.0754  0.4831
  516MOL0     C69566   5.546   3.872   3.352 -0.2648  0.5260  0.3376
  516MOL0     C69567   5.482   3.978   3.434  0.6855  0.3767  0.3926
  516MOL0     C69568   5.365   3.924   3.519  0.0617 -0.2754 -0.2073
  516MOL0     C69569   5.294   4.034   3.593 -0.2978 -0.0482 -0.3875
  516MOL0    Cl69570   5.220   4.144   3.473 -0.4052  0.3913  0.1903
  516MOL0     C69571   5.831   4.086   3.757  0.6602  0.0033  0.5517
  516MOL0     C69572   5.889   4.144   3.866 -0.1410  0.5414 -0.4629
  516MOL0     O69573   6.013   3.984   4.121  0.3375  0.5115 -0.5194
  516MOL0     C69574   6.195   4.273   4.239  0.0623 -0.5927 -0.5446
  516MOL0     C69575   6.248   4.331   4.361 -0.2998  0.2966 -0.3203
  516MOL0     N69576   6.508   4.951   4.716  0.0134 -0.3738  0.1450
  516MOL0     N69577   6.601   5.018   4.764 -0.2946 -0.2720  0.2055
  516MOL0     C69578   7.368   5.644   5.133 -0.2447  0.6186 -0.9897
  516MOL0     C69579   7.503   5.656   5.164  0.4993  0.2551  0.3130
  516MOL0     C69580   7.921   5.815   5.158 -0.3658  0.2089 -0.2944
  516MOL0     C69581   8.001   5.706   5.188 -1.5528  0.5164  0.2418
  516MOL0     C69582   8.134   5.712   5.233 -0.6142 -0.5168  0.1267
  516MOL0     C69583   8.188   5.840   5.249 -0.0803 -0.1099  0.4972
  516MOL0     O69584   8.312   5.863   5.297  0.4473 -0.2264  0.1704
  516MOL0     C69585   8.380   5.752   5.363 -1.6208 -0.3085 -0.0177
  516MOL0     C69586   8.508   5.801   5.434  0.6861  1.1378 -0.1756
  516MOL0     C69587   8.623   5.815   5.343 -0.5386 -0.9859  0.8694
  516MOL0     C69588   8.755   5.868   5.407  0.4478  0.0004  0.6120
  516MOL0     C69589   8.737   6.000   5.478 -0.7727 -0.2194 -0.5361
  516MOL0     C69590   8.722   6.106   5.529 -0.5261  0.2335  0.6592
  516MOL0     C69591   8.113   5.952   5.213  0.3669 -0.0615  0.7920
  516MOL0     C69592   7.981   5.939   5.175  0.6717 -0.4228 -0.0473
  516MOL0     H69593   7.646   5.677   4.858 -0.9905 -1.9804 -1.0276
  516MOL0     H69594   7.407   5.682   4.789 -1.5580 -0.3845  0.1942
  516MOL0     H69595   7.058   5.729   4.833 -1.8399 -2.8030  1.3222
  516MOL0     H69596   7.228   5.778   4.798 -2.8161  1.5618 -1.6115
  516MOL0     H69597   7.178   5.628   4.629  0.0829 -2.1411 -0.0693
  516MOL0     H69598   7.246   5.512   4.753  0.0355 -0.0947  1.7067
  516MOL0     H69599   6.999   5.482   4.831 -1.1488 -2.5420 -0.7765
  516MOL0     H69600   6.952   5.576   4.689  0.5204  0.3073 -0.2352
  516MOL0     H69601   7.076   5.417   4.542 -3.1494 -0.5861 -1.5589
  516MOL0     H69602   7.119   5.322   4.685  0.7143  0.2895 -0.4072
  516MOL0     H69603   6.840   5.386   4.592  2.2131  1.4133 -0.1841
  516MOL0     H69604   6.913   5.236   4.544 -0.7189 -3.0296  2.3790
  516MOL0     H69605   6.906   5.250   4.836 -1.1222 -0.6964  0.2167
  516MOL0     H69606   6.762   5.209   4.749  0.3759  0.7387  1.3891
  516MOL0     H69607   6.919   5.026   4.623  0.8700 -3.7442  1.6699
  516MOL0     H69608   7.030   5.060   4.756 -0.1390 -4.0645  0.4933
  516MOL0     H69609   6.823   5.038   4.898 -1.5268 -0.9325  0.7278
  516MOL0     H69610   6.894   4.884   4.840 -0.4960 -0.1737  1.6579
  516MOL0     H69611   6.741   4.729   4.681 -0.0428  0.0893 -0.7744
  516MOL0     H69612   6.485   4.751   4.498  1.3443 -4.5792 -0.9622
  516MOL0     H69613   6.524   4.628   4.605 -1.7168 -1.7548  1.8126
  516MOL0     H69614   6.272   4.811   4.574  1.7051  0.4931  0.9091
  516MOL0     H69615   6.299   4.717   4.729  2.2159  0.7515  0.3769
  516MOL0     H69616   6.226   4.578   4.475  1.9373  2.0996 -0.0246
  516MOL0     H69617   6.142   4.579   4.621 -0.5734 -2.7414 -1.8329
  516MOL0     H69618   6.365   4.470   4.716 -1.1378  0.3033  0.1166
  516MOL0     H69619   6.398   4.457   4.538 -1.5034 -2.8218 -1.1034
  516MOL0     H69620   6.035   4.180   4.579 -0.8997 -0.6865 -0.6686
  516MOL0     H69621   5.876   4.045   4.484  0.7414  2.2128  0.6066
  516MOL0     H69622   5.831   4.091   4.315 -1.0539 -1.2962  1.9689
  516MOL0     H69623   5.939   3.957   4.342 -0.7099 -0.9318  0.6427
  516MOL0     H69624   6.192   3.987   3.851 -0.3895 -1.4844  0.4787
  516MOL0     H69625   6.092   3.882   3.665 -1.7722 -0.2216 -0.1782
  516MOL0     H69626   5.995   4.020   3.439 -1.9272  0.9466  0.2089
  516MOL0     H69627   6.015   3.842   3.464 -1.0660 -2.9611 -1.4948
  516MOL0     H69628   5.957   3.865   3.251 -0.0918  0.2226  0.4466
  516MOL0     H69629   5.826   3.779   3.328 -0.8417  0.2019  0.2216
  516MOL0     H69630   5.818   4.025   3.190  2.0300 -3.5355 -1.1789
  516MOL0     H69631   5.750   4.046   3.363 -1.1268  1.3314 -0.7044
  516MOL0     H69632   5.592   3.995   3.174  0.4573  0.5141  0.9836
  516MOL0     H69633   5.664   3.843   3.162 -0.2179  2.3415 -2.4063
  516MOL0     H69634   5.605   3.801   3.410  0.8378 -1.2417 -2.7118
  516MOL0     H69635   5.471   3.812   3.298  1.0774 -1.5995  0.7281
  516MOL0     H69636   5.554   4.033   3.496  0.1050  1.2253  0.3214
  516MOL0     H69637   5.444   4.048   3.359  0.8409  2.2167  1.9456
  516MOL0     H69638   5.418   3.851   3.581  0.2580 -1.4812 -1.7303
  516MOL0     H69639   5.293   3.863   3.464  2.0246 -3.4263  0.4537
  516MOL0     H69640   5.361   4.098   3.650  0.4995  0.1930 -1.5515
  516MOL0     H69641   5.213   3.983   3.646  0.1023 -0.6245 -0.3133
  516MOL0     H69642   5.726   4.113   3.746  0.0970 -0.9979  2.9117
  516MOL0     H69643   5.829   4.219   3.917 -1.2181 -0.3790 -0.3538
  516MOL0     H69644   6.254   4.303   4.152  2.0776  1.5258  1.4059
  516MOL0     H69645   6.336   4.394   4.353  1.3615 -1.8324  0.3321
  516MOL0     H69646   7.288   5.633   5.205 -3.2059 -0.3436 -4.1000
  516MOL0     H69647   7.536   5.647   5.267  0.6202 -0.8931  0.1928
  516MOL0     H69648   7.964   5.606   5.169  1.1261 -0.4204 -0.6081
  516MOL0     H69649   8.188   5.621   5.255  0.5615  0.4248  1.2831
  516MOL0     H69650   8.317   5.711   5.442 -0.8661 -2.6229 -0.5308
  516MOL0     H69651   8.404   5.675   5.288 -1.6133  0.9735 -1.3809
  516MOL0     H69652   8.536   5.721   5.504  0.5346 -0.7719 -2.1833
  516MOL0     H69653   8.470   5.896   5.473 -3.6141  0.8119 -2.8501
  516MOL0     H69654   8.596   5.886   5.265 -1.0035  0.2890  2.1406
  516MOL0     H69655   8.647   5.717   5.300  0.4181 -0.1539 -0.5599
  516MOL0     H69656   8.834   5.871   5.332 -0.0567 -1.1983 -0.0007
  516MOL0     H69657   8.773   5.794   5.486  2.5960 -1.7728 -1.4176
  516MOL0     H69658   8.693   6.205   5.561  1.4245  1.0113  0.1593
  516MOL0     H69659   8.162   6.048   5.213 -0.6529  0.4866 -0.3177
  516MOL0     H69660   7.913   6.019   5.147 -2.2587 -2.8339 -0.3851
  517MOL0     O69661   8.853   8.202   9.338 -0.0043 -0.0553  0.0011
  517MOL0     C69662   8.879   8.201   9.216  0.6276  0.2571 -0.7910
  517MOL0     O69663   8.786   8.202   9.123  0.4681 -0.0253 -0.0574
  517MOL0     C69664   8.654   8.212   9.162 -0.5130 -0.6844 -0.2424
  517MOL0     C69665   8.609   8.322   9.228  0.4887  0.6566 -0.9519
  517MOL0     C69666   8.469   8.338   9.243  0.1653 -0.4906  0.3672
  517MOL0     C69667   8.379   8.235   9.200  0.5866  0.8349 -0.0544
  517MOL0     O69668   8.242   8.240   9.223  0.5802  0.5795  0.8123
  517MOL0     C69669   8.169   8.362   9.244 -0.6316 -0.3433 -0.1356
  517MOL0     C69670   8.026   8.370   9.187  0.0614 -0.8357 -0.1577
  517MOL0     C69671   7.939   8.268   9.264  0.2042 -0.3838 -0.5096
  517MOL0     C69672   7.838   8.339   9.347  0.4409  0.9928 -0.0082
  517MOL0     C69673   7.724   8.246   9.387 -0.4339  0.1210  0.1111
  517MOL0     C69674   7.625   8.226   9.272  0.2295  0.1048  0.5811
  517MOL0     C69675   7.499   8.135   9.319 -1.1151  0.5726  0.1723
  517MOL0     C69676   7.391   8.152   9.215 -0.7562  0.2400 -0.0619
  517MOL0     N69677   7.266   8.108   9.275 -0.3371 -0.3926  0.1518
  517MOL0     C69678   7.203   8.174   9.378  0.4333 -0.5555  0.1299
  517MOL0     C69679   7.097   8.089   9.411 -0.2962 -0.1256 -0.2686
  517MOL0     C69680   6.985   8.113   9.506  0.4785  0.4141 -0.0995
  517MOL0     C69681   7.038   8.153   9.640 -0.2998  0.2120 -0.3183
  517MOL0     C69682   6.918   8.174   9.736  0.7579 -0.3463 -0.1723
  517MOL0     C69683   6.810   8.269   9.693  0.1409  0.5753 -0.3281
  517MOL0     O69684   6.727   8.191   9.608  0.6008 -0.0904  0.4704
  517MOL0     C69685   6.591   8.238   9.582  0.6843  0.5547 -0.2693
  517MOL0     C69686   6.512   8.144   9.514  0.0677  0.0191 -0.4260
  517MOL0     C69687   6.384   8.176   9.476 -0.4375 -0.2828 -0.5105
  517MOL0     C69688   6.308   8.076   9.386  0.4365  0.0829  0.2174
  517MOL0     C69689   6.317   8.296   9.522 -0.6781 -0.5883  0.3265
  517MOL0     C69690   6.180   8.341   9.504 -0.0758  0.3343  0.1404
  517MOL0     O69691   6.140   8.442   9.591  0.3138  0.3510  0.4003
  517MOL0     C69692   6.003   8.476   9.606 -0.2384 -0.6331  0.0757
  517MOL0     C69693   5.955   8.509   9.734 -0.0512 -0.0406  0.6995
  517MOL0     C69694   5.816   8.521   9.751 -0.0376  0.6410 -0.4007
  517MOL0     C69695   5.725   8.520   9.645  0.2794  0.4986 -0.6887
  517MOL0     O69696   5.590   8.513   9.654 -0.3098  0.2514  0.4394
  517MOL0     C69697   5.523   8.518   9.782 -0.0623  0.1601  0.0086
  517MOL0     C69698   5.365   8.529   9.754 -0.0542 -0.4433 -0.0907
  517MOL0     C69699   5.324   8.432   9.648  0.0388  0.2687 -0.3283
  517MOL0     C69700   5.177   8.453   9.617  1.0279 -0.3130 -0.0067
  517MOL0     C69701   5.127   8.329   9.543  0.3789  0.3416  0.4550
  517MOL0     C69702   5.013   8.374   9.450 -1.2943 -1.1825 -0.3044
  517MOL0     C69703   4.949   8.257   9.382 -0.1362  0.0715 -0.4449
  517MOL0     C69704   4.884   8.297   9.252 -0.1604  0.3304  0.1483
  517MOL0    Cl69705   4.735   8.396   9.297  0.1463 -0.1880  0.0192
  517MOL0     C69706   5.784   8.499   9.520  0.7521 -0.3989  0.1624
  517MOL0     C69707   5.917   8.483   9.502 -0.5067 -0.2964 -0.3277
  517MOL0     O69708   6.105   8.269   9.433  0.1370  0.4691  0.1661
  517MOL0     C69709   6.400   8.386   9.593 -0.1942 -0.3795  0.2165
  517MOL0     C69710   6.534   8.351   9.628 -0.4780 -0.0624  0.1749
  517MOL0     N69711   7.109   7.973   9.326  0.5450  0.0558 -0.0137
  517MOL0     N69712   7.200   7.994   9.240  0.4607  0.8823 -0.6114
  517MOL0     C69713   8.438   8.124   9.142  0.3864 -0.6611  0.2280
  517MOL0     C69714   8.573   8.111   9.124  0.4066 -0.1930 -0.3816
  517MOL0     C69715   9.022   8.210   9.179  0.2435  0.0398 -0.3642
  517MOL0     C69716   9.122   8.228   9.271 -0.0348  0.6508 -0.5858
  517MOL0     C69717   9.262   8.215   9.247 -0.6071  0.1164  0.6348
  517MOL0     C69718   9.301   8.189   9.121  0.0657  0.4037 -0.0538
  517MOL0     O69719   9.433   8.174   9.073  0.3065 -0.2194 -0.1297
  517MOL0     C69720   9.541   8.165   9.174 -0.2983 -0.0936 -0.0703
  517MOL0     C69721   9.679   8.222   9.118 -0.4327  0.2770 -0.1276
  517MOL0     C69722   9.722   8.167   8.979 -0.6836 -0.2545  0.1147
  517MOL0     C69723   9.857   8.233   8.939  0.4461 -0.2619  0.0246
  517MOL0     C69724   9.915   8.183   8.813 -0.8807 -0.9069 -0.1290
  517MOL0     C69725   9.976   8.162   8.708  0.5154  0.2009  0.4902
  517MOL0     C69726   9.198   8.169   9.024  0.1994  0.5465  0.3020
  517MOL0     C69727   9.059   8.168   9.047 -0.0334  0.1281 -0.2252
  517MOL0     H69728   8.674   8.389   9.284 -0.7271 -0.0801  1.5187
  517MOL0     H69729   8.437   8.418   9.309  3.2274  0.2560  1.1000
  517MOL0     H69730   8.162   8.383   9.352 -0.5548  1.5837 -0.4664
  517MOL0     H69731   8.233   8.433   9.190  2.3040 -2.3218  0.5009
  517MOL0     H69732   7.988   8.472   9.198  0.5810 -0.4722 -1.5291
  517MOL0     H69733   8.028   8.353   9.079  2.4526  0.1939 -0.3316
  517MOL0     H69734   7.900   8.202   9.187  1.2682 -2.0375  0.3098
  517MOL0     H69735   7.996   8.200   9.329  0.2721  0.8706  0.7998
  517MOL0     H69736   7.880   8.381   9.438 -0.2061  2.0012 -0.1653
  517MOL0     H69737   7.791   8.426   9.300  0.6153  3.2442  3.6297
  517MOL0     H69738   7.767   8.149   9.417 -1.3564 -0.3463 -0.0507
  517MOL0     H69739   7.669   8.277   9.476 -1.6491 -1.9355  0.1525
  517MOL0     H69740   7.594   8.324   9.235 -3.9710 -0.9817  0.6800
  517MOL0     H69741   7.663   8.171   9.186 -2.4260 -1.1953  0.1206
  517MOL0     H69742   7.539   8.034   9.330 -0.3025  0.9344  0.6255
  517MOL0     H69743   7.466   8.166   9.418 -2.1875 -2.5680  0.9109
  517MOL0     H69744   7.421   8.088   9.131  0.4981  1.2598 -0.4250
  517MOL0     H69745   7.378   8.248   9.166 -1.1252 -1.2673 -3.1648
  517MOL0     H69746   7.222   8.271   9.425  0.9178 -0.0060 -1.1470
  517MOL0     H69747   6.927   8.194   9.461  0.3822 -1.1202 -2.9854
  517MOL0     H69748   6.918   8.028   9.519 -0.8610  1.1928 -1.5221
  517MOL0     H69749   7.101   8.242   9.633  1.5795 -1.1396 -1.7999
  517MOL0     H69750   7.109   8.080   9.680 -2.3503 -1.7071  0.0502
  517MOL0     H69751   6.958   8.219   9.828  1.6417 -1.1775 -0.1344
  517MOL0     H69752   6.881   8.074   9.758 -1.5443  0.3123 -0.7607
  517MOL0     H69753   6.850   8.342   9.622 -0.9119  1.0420 -0.4677
  517MOL0     H69754   6.754   8.306   9.779  2.0782 -2.4276  2.4423
  517MOL0     H69755   6.547   8.045   9.489 -0.0623  0.2114 -1.4099
  517MOL0     H69756   6.351   7.976   9.377 -0.5313 -0.7131  3.2554
  517MOL0     H69757   6.209   8.058   9.431 -0.1036 -0.8003 -1.2341
  517MOL0     H69758   6.277   8.120   9.291 -1.6124 -2.9063 -0.6455
  517MOL0     H69759   6.016   8.526   9.823 -0.2251  1.0916  0.6200
  517MOL0     H69760   5.785   8.535   9.854 -0.3094  0.1675 -0.4130
  517MOL0     H69761   5.542   8.424   9.836  0.7667  1.2541  1.7081
  517MOL0     H69762   5.563   8.597   9.845 -1.6743  1.5565 -0.6407
  517MOL0     H69763   5.314   8.513   9.850  0.3774 -0.9074  0.0591
  517MOL0     H69764   5.346   8.633   9.724 -2.8947 -1.2606 -1.4461
  517MOL0     H69765   5.339   8.334   9.694 -0.6611  1.4171  2.5731
  517MOL0     H69766   5.376   8.451   9.554 -1.1172 -1.0148 -1.2780
  517MOL0     H69767   5.111   8.451   9.705 -0.4770 -7.3123 -0.7046
  517MOL0     H69768   5.169   8.551   9.570 -1.3682 -0.9766 -1.1479
  517MOL0     H69769   5.099   8.258   9.621 -0.8186  1.1099  0.7564
  517MOL0     H69770   5.207   8.282   9.485  0.5084  0.9361  0.1355
  517MOL0     H69771   4.931   8.434   9.489 -0.3016 -1.1440  1.9108
  517MOL0     H69772   5.071   8.426   9.373 -0.9736  0.3206  0.8956
  517MOL0     H69773   4.880   8.215   9.456  0.1609  0.7507  0.2299
  517MOL0     H69774   5.024   8.179   9.364 -0.7887 -1.4214  2.5685
  517MOL0     H69775   4.862   8.203   9.202 -0.8028  1.2302 -1.3189
  517MOL0     H69776   4.950   8.354   9.185 -2.6069  1.0389 -1.7931
  517MOL0     H69777   5.708   8.517   9.444  0.0567  0.4135  1.0231
  517MOL0     H69778   5.949   8.473   9.399 -1.1950  1.8004 -0.8026
  517MOL0     H69779   6.374   8.485   9.627 -0.0433 -0.6404  1.1058
  517MOL0     H69780   6.586   8.425   9.687 -0.0756  0.3804 -0.7132
  517MOL0     H69781   8.372   8.045   9.108 -1.9828  2.2063 -2.4805
  517MOL0     H69782   8.614   8.027   9.070 -0.2074 -0.0585 -1.0680
  517MOL0     H69783   9.090   8.246   9.373 -2.7723  0.2692 -1.2948
  517MOL0     H69784   9.332   8.222   9.329 -1.4033 -0.5397  1.3894
  517MOL0     H69785   9.521   8.210   9.271 -0.3210  0.3114 -0.2616
  517MOL0     H69786   9.559   8.058   9.181  1.8733  0.2237 -0.0356
  517MOL0     H69787   9.755   8.198   9.193 -1.3209  3.6941  2.1006
  517MOL0     H69788   9.678   8.331   9.111  0.4580  0.4911  2.1776
  517MOL0     H69789   9.656   8.169   8.892 -0.9337  2.4816  0.2559
  517MOL0     H69790   9.738   8.062   9.002  1.0412 -0.3184 -1.1645
  517MOL0     H69791   9.928   8.236   9.023  0.8771  0.8015 -0.3605
  517MOL0     H69792   9.835   8.339   8.922  0.0891 -0.4208 -0.5020
  517MOL0     H69793  10.028   8.152   8.615  0.8471  2.2630  0.4191
  517MOL0     H69794   9.229   8.150   8.922  0.1868 -0.9239  0.5496
  517MOL0     H69795   8.984   8.152   8.970 -0.8601  0.2142  0.5457
  518MOL0     O69796   2.320   7.892   7.042 -0.1030  0.2507  0.8001
  518MOL0     C69797   2.428   7.852   7.096  0.1623 -0.4682  0.2038
  518MOL0     O69798   2.439   7.739   7.172 -0.0246  0.4289 -0.6786
  518MOL0     C69799   2.319   7.692   7.203  1.3551 -0.2489 -0.3707
  518MOL0     C69800   2.271   7.577   7.149 -0.1782 -0.1376  0.2920
  518MOL0     C69801   2.144   7.531   7.178  0.6173  0.9204  0.0137
  518MOL0     C69802   2.061   7.597   7.271  0.4632  0.2576  0.4908
  518MOL0     O69803   1.929   7.556   7.275  0.6174 -0.2224 -0.3480
  518MOL0     C69804   1.857   7.571   7.407 -0.1101 -0.2235  0.8594
  518MOL0     C69805   1.743   7.470   7.408 -0.1087 -0.2333  0.6766
  518MOL0     C69806   1.794   7.326   7.394  0.6874 -0.5148 -0.3804
  518MOL0     C69807   1.690   7.215   7.431 -0.4610 -0.1369 -0.5165
  518MOL0     C69808   1.571   7.247   7.347  0.6836  0.2660 -0.3470
  518MOL0     C69809   1.470   7.142   7.329  0.0325  0.3169 -1.1137
  518MOL0     C69810   1.363   7.171   7.226  0.5729  0.4946  0.0778
  518MOL0     C69811   1.244   7.067   7.200 -0.6369 -0.4199 -0.3406
  518MOL0     N69812   1.160   7.059   7.324 -0.1548  0.0842  0.1349
  518MOL0     C69813   1.051   7.134   7.362  0.8747 -0.3548 -0.3576
  518MOL0     C69814   1.040   7.112   7.498 -0.4794 -0.5708 -0.6428
  518MOL0     C69815   0.940   7.183   7.585  0.1526 -0.4973 -0.5075
  518MOL0     C69816   0.805   7.115   7.562 -0.1566  0.0955 -0.4115
  518MOL0     C69817   0.698   7.150   7.672 -0.3093 -0.5594  0.1239
  518MOL0     C69818   0.563   7.083   7.658 -0.3983  0.3449  0.5618
  518MOL0     O69819   0.575   6.936   7.665  0.6984  0.6177  0.4413
  518MOL0     C69820   0.474   6.857   7.611 -0.3384  0.3421 -0.7060
  518MOL0     C69821   0.508   6.731   7.558 -0.1074  0.0096 -0.1843
  518MOL0     C69822   0.405   6.650   7.497 -0.1287 -0.3046 -0.7915
  518MOL0     C69823   0.462   6.521   7.449  0.7577  0.4820  0.8642
  518MOL0     C69824   0.265   6.692   7.494 -0.0857  0.8763 -0.4194
  518MOL0     C69825   0.161   6.609   7.425 -0.4054 -0.1194 -0.9509
  518MOL0     O69826   0.023   6.617   7.465 -0.5473  0.3269 -0.5280
  518MOL0     C69827  -0.059   6.524   7.418  0.1102 -0.4542  0.0778
  518MOL0     C69828  -0.169   6.561   7.335  0.3791  0.2327  0.2506
  518MOL0     C69829  -0.264   6.460   7.302 -0.0938 -0.5585  0.0070
  518MOL0     C69830  -0.259   6.328   7.351  0.0006  0.0156  0.2962
  518MOL0     O69831  -0.364   6.247   7.304 -0.9566 -0.7349 -0.7115
  518MOL0     C69832  -0.360   6.112   7.342  0.7731  0.3084  0.6462
  518MOL0     C69833  -0.508   6.049   7.326 -0.1764 -0.5843  0.0112
  518MOL0     C69834  -0.616   6.129   7.397  0.0847 -0.0454  0.4460
  518MOL0     C69835  -0.752   6.063   7.375  0.5624 -0.0018 -0.3977
  518MOL0     C69836  -0.840   6.125   7.472 -0.6708 -0.2767  0.4262
  518MOL0     C69837  -0.976   6.054   7.479 -0.4820  0.0061 -0.0846
  518MOL0     C69838  -1.087   6.126   7.557 -0.3374  0.5564 -0.0340
  518MOL0     C69839  -1.222   6.062   7.516 -0.2426  0.4497  0.3275
  518MOL0    Cl69840  -1.280   5.937   7.630  0.2600  0.3435  0.0872
  518MOL0     C69841  -0.147   6.291   7.420  0.8527  0.2566  0.1814
  518MOL0     C69842  -0.052   6.389   7.445  0.2600 -0.2352 -0.3828
  518MOL0     O69843   0.202   6.529   7.347  0.0515 -0.5927 -0.4150
  518MOL0     C69844   0.241   6.817   7.558 -0.3574 -0.1714  0.9818
  518MOL0     C69845   0.340   6.894   7.620  0.0531  0.6941 -0.5989
  518MOL0     N69846   1.141   7.026   7.533  0.1974 -0.3769  0.3603
  518MOL0     N69847   1.203   6.987   7.429  0.8624  0.1116 -0.2204
  518MOL0     C69848   2.116   7.704   7.339  0.2527  0.4518 -0.0334
  518MOL0     C69849   2.246   7.754   7.307 -0.1395 -0.2162  0.1220
  518MOL0     C69850   2.554   7.927   7.083 -0.3947  0.5971  1.0112
  518MOL0     C69851   2.678   7.871   7.126 -0.0591  0.2345  0.1294
  518MOL0     C69852   2.799   7.943   7.122  0.2072  0.4594 -0.1174
  518MOL0     C69853   2.805   8.072   7.069 -0.2223  0.6735  0.3808
  518MOL0     O69854   2.925   8.146   7.079 -0.1627  0.1120  0.2808
  518MOL0     C69855   2.959   8.271   7.005 -0.4745  0.4384 -0.2078
  518MOL0     C69856   2.974   8.232   6.860 -0.5015 -0.2325  0.4419
  518MOL0     C69857   3.023   8.346   6.765  0.0981  0.2441  0.4949
  518MOL0     C69858   2.931   8.469   6.760  0.3089 -0.7409 -0.6758
  518MOL0     C69859   2.791   8.438   6.759  0.1108 -0.1448  0.0818
  518MOL0     C69860   2.667   8.418   6.772 -0.2488 -0.4252 -0.1755
  518MOL0     C69861   2.683   8.128   7.027  0.0035  0.3628  0.0886
  518MOL0     C69862   2.555   8.062   7.033 -0.4080  0.2613 -0.4935
  518MOL0     H69863   2.328   7.518   7.078 -1.5394 -0.6015 -0.4591
  518MOL0     H69864   2.116   7.455   7.106 -2.1240 -1.5575  3.3584
  518MOL0     H69865   1.922   7.540   7.489  0.2292 -0.3507  0.5448
  518MOL0     H69866   1.837   7.677   7.424  1.9449  0.0251  1.9779
  518MOL0     H69867   1.700   7.489   7.507  0.6887  4.4908  0.3671
  518MOL0     H69868   1.669   7.492   7.331 -0.0226 -0.4692  0.5240
  518MOL0     H69869   1.828   7.294   7.295 -0.2421 -1.4163 -0.4222
  518MOL0     H69870   1.874   7.309   7.466  1.2030 -1.0542 -1.0710
  518MOL0     H69871   1.739   7.123   7.398 -1.2694 -0.2280 -1.4949
  518MOL0     H69872   1.665   7.214   7.538  0.2203 -4.2255 -0.2381
  518MOL0     H69873   1.525   7.343   7.373 -1.4141 -0.8386  0.2456
  518MOL0     H69874   1.625   7.253   7.252 -0.1188 -1.0103 -0.9088
  518MOL0     H69875   1.528   7.054   7.300 -0.3188 -0.7288  1.1628
  518MOL0     H69876   1.421   7.115   7.423 -1.0215  1.5420 -1.2759
  518MOL0     H69877   1.316   7.265   7.256 -0.2031  0.4127 -0.8600
  518MOL0     H69878   1.419   7.198   7.136  1.1920  0.6982  0.5148
  518MOL0     H69879   1.278   6.969   7.168 -2.8852 -1.0055 -1.1675
  518MOL0     H69880   1.182   7.095   7.114  1.2111  2.3786 -0.8808
  518MOL0     H69881   0.989   7.193   7.296 -0.3963  0.3384  1.3601
  518MOL0     H69882   0.968   7.155   7.687 -1.4008  2.2557  0.8003
  518MOL0     H69883   0.932   7.292   7.572 -0.3841 -0.6105 -1.1579
  518MOL0     H69884   0.808   7.007   7.542 -2.2559  0.2647 -2.0188
  518MOL0     H69885   0.763   7.149   7.467 -2.2971 -0.4390  0.2876
  518MOL0     H69886   0.686   7.259   7.667  0.1940 -0.5050 -0.0067
  518MOL0     H69887   0.738   7.126   7.771  1.1377  2.3918  0.3862
  518MOL0     H69888   0.517   7.114   7.564 -1.8717 -0.4328  0.9870
  518MOL0     H69889   0.508   7.126   7.742 -0.1359  2.3565 -0.2457
  518MOL0     H69890   0.606   6.686   7.571 -1.5603 -3.9813 -1.5236
  518MOL0     H69891   0.458   6.536   7.341  0.0849  0.9756  0.9543
  518MOL0     H69892   0.562   6.491   7.483  1.1298 -1.7387 -1.8646
  518MOL0     H69893   0.392   6.443   7.480 -1.4758  3.3250  3.6162
  518MOL0     H69894  -0.172   6.665   7.306 -1.2150  0.3782  0.8294
  518MOL0     H69895  -0.339   6.481   7.226  0.5276  0.6335 -0.3026
  518MOL0     H69896  -0.292   6.056   7.277 -0.2831  0.4499 -0.6459
  518MOL0     H69897  -0.317   6.098   7.441  5.4078  1.8762 -0.9028
  518MOL0     H69898  -0.535   6.045   7.221  1.1314  0.7305 -0.4133
  518MOL0     H69899  -0.507   5.951   7.374 -1.9925 -0.5630  0.1662
  518MOL0     H69900  -0.615   6.231   7.357 -1.0335 -0.7192 -1.4446
  518MOL0     H69901  -0.581   6.130   7.500  2.7860 -2.0594 -0.3160
  518MOL0     H69902  -0.806   6.075   7.280  0.0163  0.9655  0.0170
  518MOL0     H69903  -0.746   5.956   7.395 -0.1080 -0.1575 -0.9550
  518MOL0     H69904  -0.856   6.230   7.446  3.4867  0.4003  0.0520
  518MOL0     H69905  -0.792   6.115   7.570  0.7470 -1.0948 -0.3277
  518MOL0     H69906  -1.019   6.049   7.379 -0.4472 -2.3267 -0.0185
  518MOL0     H69907  -0.959   5.956   7.525  0.7489 -0.1858 -0.8940
  518MOL0     H69908  -1.094   6.234   7.542 -0.8717  0.3471 -1.4526
  518MOL0     H69909  -1.062   6.107   7.662 -1.8426 -1.4779  0.0331
  518MOL0     H69910  -1.221   6.026   7.413  1.4226 -0.4920  0.6202
  518MOL0     H69911  -1.289   6.148   7.521 -1.0850 -0.2123  0.7129
  518MOL0     H69912  -0.125   6.192   7.457  1.9370  0.7894  1.0232
  518MOL0     H69913   0.031   6.366   7.512 -0.0994  3.0217  1.4104
  518MOL0     H69914   0.139   6.853   7.550 -0.1117  0.1360 -2.7001
  518MOL0     H69915   0.304   6.987   7.661  1.0979  0.0980  1.8574
  518MOL0     H69916   2.051   7.752   7.411 -2.4565 -2.7057 -0.1227
  518MOL0     H69917   2.276   7.841   7.365 -0.7403 -0.0523  0.1989
  518MOL0     H69918   2.676   7.769   7.164  0.9421 -0.1549 -0.8241
  518MOL0     H69919   2.893   7.898   7.150  0.5215  1.4079  0.3986
  518MOL0     H69920   2.883   8.349   7.016 -0.6449  0.2138  0.2587
  518MOL0     H69921   3.052   8.310   7.046  0.0015  1.4995 -2.1913
  518MOL0     H69922   2.877   8.204   6.817 -0.2944  2.7114 -2.3383
  518MOL0     H69923   3.056   8.160   6.852  0.8066  1.3701 -1.6354
  518MOL0     H69924   3.043   8.300   6.668 -0.1333  2.2910 -0.5894
  518MOL0     H69925   3.117   8.388   6.804 -0.8201  3.4332 -0.4486
  518MOL0     H69926   2.948   8.537   6.676 -0.4042 -0.5224 -0.6507
  518MOL0     H69927   2.941   8.548   6.836 -2.1951  1.2410 -2.2246
  518MOL0     H69928   2.560   8.416   6.773 -0.4340  1.9679  3.6633
  518MOL0     H69929   2.664   8.229   6.991 -1.6055 -1.0495 -3.6023
  518MOL0     H69930   2.469   8.124   7.013 -1.7144 -1.8288 -1.7895
  519MOL0     O69931   5.604   6.584   2.491  0.5140 -0.4387 -0.1460
  519MOL0     C69932   5.622   6.527   2.382 -0.4616  1.0369 -0.6267
  519MOL0     O69933   5.527   6.496   2.287 -0.0581 -0.2305  0.1466
  519MOL0     C69934   5.395   6.530   2.296  0.2299  0.8056  0.0615
  519MOL0     C69935   5.329   6.504   2.415 -0.0439  0.3049  0.6515
  519MOL0     C69936   5.194   6.543   2.425 -0.1788 -0.0798 -0.6626
  519MOL0     C69937   5.124   6.608   2.325  0.1537  0.2963 -0.8326
  519MOL0     O69938   4.991   6.637   2.347  0.4697  0.2741  0.4835
  519MOL0     C69939   4.903   6.645   2.230 -0.6400  0.6533  0.9090
  519MOL0     C69940   4.771   6.705   2.282  0.4908 -0.4829  0.1467
  519MOL0     C69941   4.767   6.857   2.333 -0.8111  0.0587  0.2606
  519MOL0     C69942   4.625   6.892   2.377 -0.4265  0.1403  0.0869
  519MOL0     C69943   4.546   6.971   2.261  0.2940  0.0302 -0.1350
  519MOL0     C69944   4.524   6.874   2.142 -1.2497 -0.6944 -0.2040
  519MOL0     C69945   4.429   6.940   2.033 -0.5214 -0.3290  0.0771
  519MOL0     C69946   4.394   6.832   1.933  0.0645 -0.2015  0.4505
  519MOL0     N69947   4.285   6.860   1.846  0.6033 -0.2555 -0.1233
  519MOL0     C69948   4.187   6.949   1.870 -0.3813 -0.2093  0.1522
  519MOL0     C69949   4.114   6.961   1.761  0.7337  0.2422  0.7235
  519MOL0     C69950   3.987   7.044   1.739 -0.4792  0.0664 -0.1056
  519MOL0     C69951   4.016   7.182   1.671 -0.4787  0.2716  0.2740
  519MOL0     C69952   3.899   7.283   1.664 -0.2315 -0.7504  0.4475
  519MOL0     C69953   3.781   7.215   1.578 -1.1392  0.3609  0.1466
  519MOL0     O69954   3.697   7.306   1.511  0.3923 -0.0741 -0.0035
  519MOL0     C69955   3.569   7.274   1.469 -0.3939  0.5403  0.0541
  519MOL0     C69956   3.479   7.381   1.468 -0.6238  0.7371 -0.3456
  519MOL0     C69957   3.353   7.366   1.401  1.1229  0.7144  0.1292
  519MOL0     C69958   3.265   7.490   1.398 -0.4026 -0.5819  0.7265
  519MOL0     C69959   3.315   7.244   1.342  0.0602  0.0271  0.5222
  519MOL0     C69960   3.188   7.212   1.275  0.0623 -0.0952 -0.6620
  519MOL0     O69961   3.143   7.078   1.263 -0.2878  0.3118  0.4665
  519MOL0     C69962   3.058   7.044   1.166  0.9767  0.1176 -0.1885
  519MOL0     C69963   3.071   7.077   1.027  0.2012 -0.3555  0.0151
  519MOL0     C69964   2.978   7.033   0.933  0.1091 -0.2836 -0.5271
  519MOL0     C69965   2.870   6.956   0.976  0.3511  0.0108  0.1172
  519MOL0     O69966   2.792   6.917   0.875 -0.4089  0.6064 -0.0186
  519MOL0     C69967   2.661   6.961   0.889  0.0953 -0.1503  0.4671
  519MOL0     C69968   2.581   6.910   0.766  0.0681  0.1346 -0.3744
  519MOL0     C69969   2.432   6.907   0.786 -0.2217 -0.5741 -0.9814
  519MOL0     C69970   2.370   7.045   0.786 -0.7421  0.3456  0.2933
  519MOL0     C69971   2.224   7.049   0.820  0.4613 -0.1055  0.3313
  519MOL0     C69972   2.181   7.027   0.963 -0.5317  0.0753  0.3409
  519MOL0     C69973   2.208   7.146   1.052 -0.2155 -0.8103 -0.8033
  519MOL0     C69974   2.185   7.124   1.201 -0.0441 -0.5732  0.2798
  519MOL0    Cl69975   2.009   7.125   1.227  0.1285  0.5428  0.3978
  519MOL0     C69976   2.844   6.936   1.105  0.3702  0.8773 -0.5366
  519MOL0     C69977   2.944   6.978   1.202  1.0692 -0.4913 -0.9343
  519MOL0     O69978   3.117   7.316   1.256  0.1453  0.8850 -0.1893
  519MOL0     C69979   3.415   7.137   1.347 -0.0262  0.2724 -1.0297
  519MOL0     C69980   3.537   7.155   1.408 -0.4583  0.4079 -0.0852
  519MOL0     N69981   4.174   6.882   1.665  0.0910 -0.3701 -0.5827
  519MOL0     N69982   4.276   6.827   1.716  1.1510 -0.1658 -0.6736
  519MOL0     C69983   5.192   6.622   2.200 -1.3002  0.3688  0.0530
  519MOL0     C69984   5.322   6.574   2.186 -0.2243  0.0562  0.6967
  519MOL0     C69985   5.756   6.460   2.381  0.4585  1.3227  0.3697
  519MOL0     C69986   5.857   6.488   2.476  0.4310 -0.7820  0.3444
  519MOL0     C69987   5.980   6.417   2.469  0.1268 -0.0074  0.3726
  519MOL0     C69988   6.007   6.320   2.368  0.0835  0.1034 -0.0542
  519MOL0     O69989   6.129   6.250   2.385 -0.2192 -0.6890  1.0754
  519MOL0     C69990   6.224   6.248   2.284 -0.4238 -0.4141  1.2896
  519MOL0     C69991   6.304   6.379   2.295  0.5258  0.2581 -0.9475
  519MOL0     C69992   6.369   6.415   2.437  0.0545  0.0599 -0.2154
  519MOL0     C69993   6.468   6.308   2.480 -0.2945 -0.1155  0.3577
  519MOL0     C69994   6.593   6.310   2.402 -0.2863  0.1815  0.0113
  519MOL0     C69995   6.703   6.298   2.349  0.2207 -0.8931 -0.6252
  519MOL0     C69996   5.900   6.288   2.281 -0.7342 -0.8061 -0.1716
  519MOL0     C69997   5.780   6.357   2.285  0.2160  0.3780  0.6013
  519MOL0     H69998   5.375   6.450   2.497  0.0874  2.0854  1.8222
  519MOL0     H69999   5.138   6.524   2.516 -1.7664 -0.0573 -1.5975
  519MOL0     H70000   4.942   6.711   2.153 -0.7896 -0.8060 -0.4722
  519MOL0     H70001   4.895   6.550   2.177  1.8461  0.4946  0.7182
  519MOL0     H70002   4.697   6.695   2.202 -1.0913  1.0413  1.3297
  519MOL0     H70003   4.728   6.651   2.367 -0.2703  2.3507  1.7053
  519MOL0     H70004   4.834   6.853   2.419  1.4809  3.3542 -1.1604
  519MOL0     H70005   4.801   6.930   2.259 -2.7287  0.2285 -0.5018
  519MOL0     H70006   4.571   6.801   2.405  0.6042 -1.3657 -2.4807
  519MOL0     H70007   4.625   6.957   2.465 -1.4011  0.1186  0.1139
  519MOL0     H70008   4.450   7.012   2.292  0.5572 -0.0897  0.9106
  519MOL0     H70009   4.604   7.058   2.228  0.3159  0.4164  0.8857
  519MOL0     H70010   4.624   6.847   2.105  0.1832  2.3267  1.0666
  519MOL0     H70011   4.479   6.781   2.177 -1.8534  0.3920  2.0819
  519MOL0     H70012   4.339   6.978   2.084  0.1805 -0.1281  1.1926
  519MOL0     H70013   4.473   7.026   1.983 -1.9626  1.8872  2.3623
  519MOL0     H70014   4.369   6.742   1.988  0.9058  0.8257  2.6339
  519MOL0     H70015   4.481   6.806   1.872  1.2120 -1.2121  2.4443
  519MOL0     H70016   4.173   7.005   1.962 -0.4186 -1.8983  1.2265
  519MOL0     H70017   3.927   6.990   1.665  1.7193 -1.1741 -1.0760
  519MOL0     H70018   3.931   7.057   1.833 -0.7379  0.6137 -0.3312
  519MOL0     H70019   4.046   7.153   1.569  1.9228 -0.7275  1.1896
  519MOL0     H70020   4.098   7.230   1.725 -1.1339  0.5943  0.9946
  519MOL0     H70021   3.939   7.374   1.618  1.5222 -0.7189  1.9030
  519MOL0     H70022   3.863   7.303   1.765 -2.0524 -1.1587 -0.0903
  519MOL0     H70023   3.721   7.158   1.650  1.5677 -1.8946  0.8358
  519MOL0     H70024   3.826   7.145   1.506 -1.1793 -1.5675  1.9116
  519MOL0     H70025   3.509   7.480   1.500  1.8825  0.1132 -0.5628
  519MOL0     H70026   3.258   7.529   1.297  1.4366  0.3419  0.9102
  519MOL0     H70027   3.171   7.464   1.447 -1.3233 -1.1282 -1.2569
  519MOL0     H70028   3.310   7.577   1.447  1.3898 -1.5799  0.9555
  519MOL0     H70029   3.150   7.141   0.989 -0.8143  0.5390 -0.6466
  519MOL0     H70030   2.982   7.082   0.837 -1.7114  3.6201  1.1557
  519MOL0     H70031   2.611   6.912   0.972 -2.7435 -2.6297 -2.4376
  519MOL0     H70032   2.660   7.071   0.890 -0.7092 -0.1560  0.4112
  519MOL0     H70033   2.599   6.987   0.691  2.6076  1.4863  1.4627
  519MOL0     H70034   2.611   6.811   0.730 -0.7114 -0.7522  1.3014
  519MOL0     H70035   2.422   6.867   0.887 -2.6145  0.4768 -0.7533
  519MOL0     H70036   2.389   6.849   0.704 -1.2451  2.1223 -2.4732
  519MOL0     H70037   2.429   7.101   0.860 -0.9757  1.9902 -0.7045
  519MOL0     H70038   2.392   7.088   0.688  2.1561  2.1848  1.5806
  519MOL0     H70039   2.178   6.984   0.746  2.2491  0.4984 -1.3855
  519MOL0     H70040   2.190   7.151   0.797  0.2912 -0.2348  0.0014
  519MOL0     H70041   2.077   6.998   0.976  0.0263 -1.7148  1.2480
  519MOL0     H70042   2.237   6.939   0.995  1.0008 -0.3858 -3.1766
  519MOL0     H70043   2.142   7.231   1.034 -0.5730 -0.3215  2.3201
  519MOL0     H70044   2.310   7.182   1.038 -0.2041 -0.7578 -0.5870
  519MOL0     H70045   2.235   7.198   1.264 -2.2706  0.7101  0.6353
  519MOL0     H70046   2.210   7.024   1.239 -2.4231 -0.2444  3.1061
  519MOL0     H70047   2.756   6.878   1.128  0.6917  0.6239  0.0840
  519MOL0     H70048   2.916   6.959   1.306 -3.3359  1.7847 -1.4711
  519MOL0     H70049   3.385   7.049   1.291  1.7090 -0.3639 -1.0164
  519MOL0     H70050   3.605   7.071   1.396  0.2094  0.8115  0.7092
  519MOL0     H70051   5.148   6.685   2.123  0.8602  1.4507 -0.3660
  519MOL0     H70052   5.373   6.589   2.092 -1.5740 -1.7017 -0.4018
  519MOL0     H70053   5.844   6.562   2.554  2.7069  1.0987 -0.9514
  519MOL0     H70054   6.063   6.439   2.536 -0.0775  0.8266  0.3613
  519MOL0     H70055   6.284   6.158   2.271  0.3427  0.4536 -2.3804
  519MOL0     H70056   6.171   6.254   2.189  0.4317  0.4073  0.8343
  519MOL0     H70057   6.231   6.456   2.270  0.9574  0.0795 -2.9476
  519MOL0     H70058   6.383   6.378   2.219  0.8156 -0.7631 -0.6511
  519MOL0     H70059   6.290   6.432   2.511  1.4368 -1.5840  1.7311
  519MOL0     H70060   6.434   6.502   2.433 -0.3630  0.3578 -0.6198
  519MOL0     H70061   6.431   6.205   2.486  2.0149 -1.1585 -1.7572
  519MOL0     H70062   6.504   6.343   2.577  0.5591 -0.2508  0.0972
  519MOL0     H70063   6.805   6.287   2.318  1.0142 -1.2275  1.9522
  519MOL0     H70064   5.916   6.218   2.200 -2.5911 -1.8784  0.3161
  519MOL0     H70065   5.710   6.336   2.205  1.8995  0.5527 -0.9903
  520MOL0     O70066   7.004   2.296   3.861  0.0718 -0.1451  0.0941
  520MOL0     C70067   7.071   2.395   3.885 -0.0332  0.0060 -0.3855
  520MOL0     O70068   7.099   2.501   3.794 -0.1951 -0.1355 -0.3760
  520MOL0     C70069   7.035   2.484   3.672 -0.4469 -0.9354 -0.6603
  520MOL0     C70070   6.898   2.516   3.665 -0.5475  0.3678  0.1960
  520MOL0     C70071   6.831   2.492   3.548  1.2869  0.8430 -0.6287
  520MOL0     C70072   6.893   2.423   3.438  0.7718 -0.3977 -0.6849
  520MOL0     O70073   6.840   2.388   3.314 -0.2955  0.2024 -0.1626
  520MOL0     C70074   6.704   2.422   3.279 -0.1126 -0.0746 -0.7252
  520MOL0     C70075   6.613   2.316   3.332  0.6255 -0.0515 -0.3286
  520MOL0     C70076   6.474   2.348   3.287  0.2450 -0.2383  0.2589
  520MOL0     C70077   6.373   2.261   3.353 -0.0578  0.5808  0.1093
  520MOL0     C70078   6.224   2.300   3.323  1.0022 -0.0129  1.5218
  520MOL0     C70079   6.132   2.245   3.429 -0.4036 -1.1928 -0.1843
  520MOL0     C70080   5.987   2.284   3.415  0.6676 -0.8122 -0.1674
  520MOL0     C70081   5.907   2.181   3.330 -0.0862  0.5938 -0.6921
  520MOL0     N70082   5.774   2.226   3.290  0.2671 -0.1476  0.2656
  520MOL0     C70083   5.666   2.145   3.303  0.1636 -0.6715 -0.7635
  520MOL0     C70084   5.567   2.205   3.241  0.0386  0.5159 -0.1168
  520MOL0     C70085   5.424   2.156   3.219 -0.6990 -0.1352 -0.3721
  520MOL0     C70086   5.378   2.074   3.346 -0.3595  0.0804  0.5100
  520MOL0     C70087   5.229   2.045   3.352 -0.4676  0.4886 -0.3755
  520MOL0     C70088   5.199   1.959   3.479  0.2135 -0.3593 -0.6268
  520MOL0     O70089   5.062   1.913   3.483  0.8747  0.1401  0.6627
  520MOL0     C70090   4.954   1.991   3.519  0.0183  0.1595 -0.1197
  520MOL0     C70091   4.818   1.946   3.516 -0.0522 -0.5618  1.1572
  520MOL0     C70092   4.716   2.034   3.544  0.9790 -1.0052  0.9391
  520MOL0     C70093   4.574   1.967   3.556 -0.3418 -0.5204  0.4620
  520MOL0     C70094   4.734   2.171   3.574 -0.1600  0.7973  0.5204
  520MOL0     C70095   4.626   2.275   3.602  0.7788 -0.2494 -0.0491
  520MOL0     O70096   4.663   2.405   3.640 -0.4190  0.0802 -0.1060
  520MOL0     C70097   4.569   2.503   3.671 -1.0264  0.3766  0.3045
  520MOL0     C70098   4.459   2.521   3.594  0.2822 -0.2814  0.1833
  520MOL0     C70099   4.365   2.618   3.624  0.0891 -0.3462  0.0345
  520MOL0     C70100   4.389   2.714   3.722 -0.7637  0.1992  0.5219
  520MOL0     O70101   4.290   2.794   3.753  0.3901  0.5639 -0.1509
  520MOL0     C70102   4.266   2.897   3.659  0.7656 -0.5596  0.1163
  520MOL0     C70103   4.330   3.035   3.705 -0.2964  0.8093  0.5458
  520MOL0     C70104   4.259   3.069   3.831  0.5274  0.5174  0.0747
  520MOL0     C70105   4.328   3.182   3.913 -0.8656  0.5546 -0.3186
  520MOL0     C70106   4.473   3.153   3.942 -0.0938 -0.4318  0.3311
  520MOL0     C70107   4.518   3.248   4.051 -0.2456 -0.2083  0.4721
  520MOL0     C70108   4.669   3.255   4.070  1.0263 -0.9842 -0.1702
  520MOL0     C70109   4.697   3.355   4.179 -0.5045  0.2199  0.0165
  520MOL0    Cl70110   4.635   3.290   4.333 -0.4658  0.2193 -0.6648
  520MOL0     C70111   4.507   2.698   3.802  0.7187  0.3950 -0.3600
  520MOL0     C70112   4.598   2.589   3.773 -0.3894 -0.1842 -0.4217
  520MOL0     O70113   4.511   2.235   3.588 -0.0499  0.6433 -0.1313
  520MOL0     C70114   4.869   2.206   3.592 -0.0767  0.4529 -0.1097
  520MOL0     C70115   4.978   2.122   3.562  1.2140 -0.5818  0.2634
  520MOL0     N70116   5.615   2.329   3.189  0.1546  0.7601 -0.0465
  520MOL0     N70117   5.741   2.335   3.208  0.0461  0.4339  1.2338
  520MOL0     C70118   7.022   2.385   3.453 -0.1133 -0.1017 -0.1372
  520MOL0     C70119   7.095   2.415   3.572 -0.1416  0.1922 -0.4446
  520MOL0     C70120   7.125   2.424   4.020 -0.2252 -0.2583 -0.3454
  520MOL0     C70121   7.258   2.466   4.042  1.1009 -0.9540 -0.2562
  520MOL0     C70122   7.305   2.495   4.172  0.8381 -0.6159  0.4797
  520MOL0     C70123   7.214   2.479   4.285  0.0662  0.1766  0.1554
  520MOL0     O70124   7.253   2.496   4.411 -0.5973  0.7650  0.3984
  520MOL0     C70125   7.353   2.598   4.435 -0.4640 -0.6843 -0.2248
  520MOL0     C70126   7.371   2.620   4.588  0.0895  0.1012 -0.5195
  520MOL0     C70127   7.497   2.691   4.646  0.2394 -0.4356 -0.8053
  520MOL0     C70128   7.570   2.784   4.547 -0.1258 -0.1389  0.0179
  520MOL0     C70129   7.485   2.889   4.498  0.9466 -0.4134  0.4466
  520MOL0     C70130   7.429   2.968   4.428 -0.1343  0.0464  0.3293
  520MOL0     C70131   7.074   2.447   4.255 -0.1433  0.4543 -0.5797
  520MOL0     C70132   7.037   2.412   4.127 -0.8165  0.0865 -0.0070
  520MOL0     H70133   6.841   2.545   3.752 -1.5616 -0.4082 -0.1872
  520MOL0     H70134   6.727   2.522   3.540  0.7898 -1.2252 -4.4241
  520MOL0     H70135   6.686   2.522   3.318  1.2146 -0.9923  2.5668
  520MOL0     H70136   6.691   2.412   3.171 -1.4171  1.0223 -0.6887
  520MOL0     H70137   6.640   2.218   3.290 -0.9700  0.3327 -2.3921
  520MOL0     H70138   6.623   2.330   3.440  0.0608  0.6070 -0.3586
  520MOL0     H70139   6.444   2.451   3.308 -1.3520 -0.8641  1.2376
  520MOL0     H70140   6.461   2.324   3.182 -1.6994  1.5366  0.0327
  520MOL0     H70141   6.377   2.155   3.328  0.6673  0.5452  0.3498
  520MOL0     H70142   6.399   2.274   3.458  2.1042 -0.4717 -0.2348
  520MOL0     H70143   6.212   2.409   3.320  2.5579  0.1637 -1.0120
  520MOL0     H70144   6.187   2.275   3.223 -2.6607 -0.4855  2.8588
  520MOL0     H70145   6.134   2.135   3.426 -0.6596 -1.1982 -0.1846
  520MOL0     H70146   6.180   2.281   3.520  0.5304 -1.0982 -0.7034
  520MOL0     H70147   5.940   2.285   3.514 -0.7901 -3.6012 -0.7285
  520MOL0     H70148   5.966   2.380   3.368  1.0484 -0.3415  0.5991
  520MOL0     H70149   5.895   2.089   3.387  1.4014 -0.7935 -2.4905
  520MOL0     H70150   5.960   2.155   3.238 -1.3623 -0.5771 -1.1140
  520MOL0     H70151   5.660   2.057   3.366 -1.1577  1.2315  1.9563
  520MOL0     H70152   5.361   2.244   3.203  2.1995  1.9843 -1.0076
  520MOL0     H70153   5.414   2.092   3.131  0.3720 -1.3324  0.3421
  520MOL0     H70154   5.410   2.121   3.439  0.5503  0.4880  0.0042
  520MOL0     H70155   5.420   1.974   3.334 -1.2763 -0.5851  2.4491
  520MOL0     H70156   5.189   1.984   3.270  2.4299 -2.4060  0.1415
  520MOL0     H70157   5.175   2.140   3.365 -2.8376 -1.1320  3.2923
  520MOL0     H70158   5.212   2.018   3.570  2.7169  0.8206 -1.6656
  520MOL0     H70159   5.265   1.873   3.488  1.9078  1.1259  3.8649
  520MOL0     H70160   4.803   1.843   3.486  0.2062 -0.3999  0.4471
  520MOL0     H70161   4.573   1.870   3.507  3.0576  0.5779 -2.2394
  520MOL0     H70162   4.559   1.950   3.663  0.1944 -1.7710  0.3497
  520MOL0     H70163   4.497   2.024   3.504  0.2291  2.5367  2.6837
  520MOL0     H70164   4.440   2.443   3.520  0.6779 -0.3825  0.1848
  520MOL0     H70165   4.277   2.609   3.561  1.3254 -1.9254 -1.5834
  520MOL0     H70166   4.302   2.880   3.558 -1.0617  1.1518 -0.8972
  520MOL0     H70167   4.158   2.910   3.642  1.0801  1.6467 -0.4436
  520MOL0     H70168   4.437   3.023   3.719 -0.2750  1.6614  1.2322
  520MOL0     H70169   4.318   3.105   3.622 -1.0647 -0.8587 -0.8238
  520MOL0     H70170   4.265   2.990   3.906 -0.5371  0.6285  0.2924
  520MOL0     H70171   4.156   3.089   3.800  1.0460  0.5667 -1.7319
  520MOL0     H70172   4.332   3.272   3.851  3.5459  0.9778  0.2396
  520MOL0     H70173   4.275   3.206   4.005  0.5179 -1.8118  1.1922
  520MOL0     H70174   4.525   3.168   3.847 -0.9087 -0.1648 -0.0775
  520MOL0     H70175   4.485   3.054   3.985  0.4877 -1.8401 -2.8245
  520MOL0     H70176   4.478   3.347   4.025 -1.7452 -0.8040  0.4175
  520MOL0     H70177   4.474   3.213   4.145 -1.3324 -0.6907 -0.1888
  520MOL0     H70178   4.722   3.291   3.981  1.9860 -1.5188  0.1799
  520MOL0     H70179   4.697   3.153   4.095 -1.5486 -2.0663 -1.3328
  520MOL0     H70180   4.641   3.448   4.166 -1.4962 -0.5850 -1.9849
  520MOL0     H70181   4.806   3.369   4.180 -0.4835  0.5853  3.3631
  520MOL0     H70182   4.529   2.757   3.891  2.5485 -1.6330  0.6371
  520MOL0     H70183   4.682   2.572   3.840  0.3593  1.2820 -0.9535
  520MOL0     H70184   4.890   2.306   3.629  0.0319  0.5435 -0.4096
  520MOL0     H70185   5.075   2.167   3.581  0.6558 -0.0049  1.9248
  520MOL0     H70186   7.068   2.327   3.374 -0.1955 -1.2438  0.6345
  520MOL0     H70187   7.197   2.377   3.582 -0.5213 -0.6841  0.1946
  520MOL0     H70188   7.319   2.485   3.954  0.2158  1.3722 -0.4348
  520MOL0     H70189   7.410   2.521   4.182  1.3731 -1.6529 -1.7823
  520MOL0     H70190   7.446   2.564   4.389 -0.7112  1.3892 -2.4462
  520MOL0     H70191   7.332   2.688   4.377 -1.4497  0.2633  1.5205
  520MOL0     H70192   7.366   2.520   4.632 -1.3181  0.5275  0.3549
  520MOL0     H70193   7.285   2.678   4.622  1.9653  1.9723  1.3694
  520MOL0     H70194   7.569   2.616   4.680  2.0420  1.7270  0.3867
  520MOL0     H70195   7.462   2.745   4.734  0.4043  0.8858 -1.5300
  520MOL0     H70196   7.614   2.730   4.463  0.5920 -1.1989  1.0457
  520MOL0     H70197   7.660   2.825   4.594  1.0505 -1.6340 -0.8234
  520MOL0     H70198   7.384   3.028   4.351  1.0384  0.6796  0.1101
  520MOL0     H70199   7.013   2.443   4.345  0.1597  1.6329 -0.2996
  520MOL0     H70200   6.934   2.384   4.108 -0.4858 -1.8517  0.8063
  521MOL0     O70201  11.045  11.089   3.396 -0.4166 -0.2155  0.2571
  521MOL0     C70202  11.094  11.199   3.430  0.0492 -0.0098  0.2456
  521MOL0     O70203  11.042  11.328   3.416 -0.3846 -0.9308 -0.1255
  521MOL0     C70204  10.925  11.327   3.341 -0.5164  0.5372 -0.0827
  521MOL0     C70205  10.812  11.292   3.420  0.2442  0.5694  0.8684
  521MOL0     C70206  10.687  11.289   3.348 -0.3997  0.3549 -0.1847
  521MOL0     C70207  10.683  11.321   3.205 -1.0874 -0.1196 -0.6178
  521MOL0     O70208  10.570  11.317   3.126 -0.1665 -0.1423 -0.0203
  521MOL0     C70209  10.444  11.313   3.192 -0.4872  0.3435  0.1850
  521MOL0     C70210  10.347  11.401   3.115 -0.1706  0.2479  0.3207
  521MOL0     C70211  10.219  11.441   3.192  0.0895  0.3474 -0.0829
  521MOL0     C70212  10.141  11.548   3.119 -0.0655 -0.0976  0.7787
  521MOL0     C70213   9.992  11.561   3.163 -0.0252 -0.4413  0.1234
  521MOL0     C70214   9.919  11.667   3.087  0.3518 -0.9942 -0.2710
  521MOL0     C70215   9.769  11.685   3.134  0.1328  0.0188 -0.2705
  521MOL0     C70216   9.682  11.786   3.059 -0.4092 -0.2719  0.0484
  521MOL0     N70217   9.536  11.753   3.076 -0.5106  0.1655 -0.5106
  521MOL0     C70218   9.463  11.781   3.190  0.6272 -0.1792  0.4957
  521MOL0     C70219   9.343  11.710   3.164  0.1016  0.4928  0.7242
  521MOL0     C70220   9.216  11.727   3.245  0.0672 -0.1231  0.3771
  521MOL0     C70221   9.103  11.734   3.147  0.5289 -0.4589  0.3360
  521MOL0     C70222   8.982  11.817   3.195 -0.0722 -0.5636 -0.3548
  521MOL0     C70223   8.876  11.821   3.089  0.6428  0.5678  0.9581
  521MOL0     O70224   8.771  11.896   3.148 -0.1567 -0.4884  0.0422
  521MOL0     C70225   8.657  11.909   3.077 -0.1113  0.1673  0.6098
  521MOL0     C70226   8.584  12.020   3.102  0.1890 -0.1415 -0.6041
  521MOL0     C70227   8.466  12.055   3.034 -1.1811  0.5733  0.2215
  521MOL0     C70228   8.400  12.183   3.080 -0.5331 -0.6732  0.2073
  521MOL0     C70229   8.422  11.966   2.929 -0.3738  0.3062 -0.0788
  521MOL0     C70230   8.291  11.991   2.851 -0.4690 -0.0068 -0.3093
  521MOL0     O70231   8.252  11.913   2.753  0.2552 -0.0244 -0.2316
  521MOL0     C70232   8.116  11.915   2.715 -0.5807 -0.0808  0.4781
  521MOL0     C70233   8.001  11.960   2.792 -0.1363 -0.7917 -0.5009
  521MOL0     C70234   7.874  11.955   2.745  0.4699 -0.7656 -0.0795
  521MOL0     C70235   7.841  11.890   2.622  0.2894 -0.3492  0.2829
  521MOL0     O70236   7.713  11.891   2.580  0.1747 -0.0340 -0.0377
  521MOL0     C70237   7.679  11.849   2.447 -0.0518 -0.0941 -0.4458
  521MOL0     C70238   7.542  11.918   2.402  0.2910  0.7971 -0.8156
  521MOL0     C70239   7.428  11.839   2.466  0.1524  0.1935 -0.0890
  521MOL0     C70240   7.282  11.877   2.420  0.3981  0.2127 -0.1918
  521MOL0     C70241   7.261  12.009   2.493 -0.2248  0.5057 -0.9938
  521MOL0     C70242   7.119  12.063   2.494  0.0350  0.4399 -0.3237
  521MOL0     C70243   7.060  12.105   2.355 -0.2345  0.0891  0.1130
  521MOL0     C70244   7.155  12.189   2.272  0.3475 -0.3293  0.6852
  521MOL0    Cl70245   7.060  12.269   2.147 -0.1445 -0.4624 -0.0035
  521MOL0     C70246   7.949  11.828   2.552 -0.4225 -0.6492 -0.1256
  521MOL0     C70247   8.080  11.842   2.594 -0.1555 -0.0584 -0.5869
  521MOL0     O70248   8.229  12.093   2.881 -0.5930 -0.0264 -0.5523
  521MOL0     C70249   8.498  11.852   2.903 -0.1181 -0.0926 -0.2964
  521MOL0     C70250   8.610  11.817   2.985 -0.6104  0.1814  0.3700
  521MOL0     N70251   9.362  11.627   3.057  0.6814  0.1623 -0.7928
  521MOL0     N70252   9.477  11.655   3.004  0.2056 -0.2588 -0.0432
  521MOL0     C70253  10.799  11.353   3.144 -0.5542  0.0097  0.6867
  521MOL0     C70254  10.925  11.352   3.205  0.3478 -0.1210  0.1978
  521MOL0     C70255  11.227  11.203   3.484 -0.2266  0.6491 -0.0626
  521MOL0     C70256  11.296  11.322   3.504  0.3421 -0.8786 -0.4650
  521MOL0     C70257  11.436  11.320   3.540 -0.2477  0.1899  0.0667
  521MOL0     C70258  11.501  11.198   3.559 -1.0737 -0.4703  0.0415
  521MOL0     O70259  11.635  11.179   3.592  0.1221 -0.0360  0.4739
  521MOL0     C70260  11.716  11.290   3.642 -0.3610  0.7111 -0.0078
  521MOL0     C70261  11.818  11.336   3.535  0.7110 -0.2900  0.1958
  521MOL0     C70262  11.894  11.219   3.476  0.3321  0.4271  0.0645
  521MOL0     C70263  11.972  11.132   3.572  0.2378 -0.4726  0.2795
  521MOL0     C70264  12.100  11.075   3.525 -0.1121 -0.1219 -0.2554
  521MOL0     C70265  12.207  11.026   3.477  0.6965 -0.4310  0.1167
  521MOL0     C70266  11.425  11.087   3.553  0.1671 -0.0575  0.7655
  521MOL0     C70267  11.295  11.083   3.511  0.2042  0.0865  0.5200
  521MOL0     H70268  10.829  11.274   3.526 -1.5811  1.3794  1.3419
  521MOL0     H70269  10.599  11.259   3.404 -0.1174 -0.5243 -0.1979
  521MOL0     H70270  10.414  11.208   3.193  0.6978 -0.0231  1.3332
  521MOL0     H70271  10.448  11.356   3.293  3.8904 -0.0301  0.3734
  521MOL0     H70272  10.410  11.489   3.099  2.0419 -0.6335  3.3068
  521MOL0     H70273  10.329  11.360   3.015 -2.1694  1.8121 -0.0301
  521MOL0     H70274  10.162  11.349   3.203  1.7201 -0.7099 -0.0406
  521MOL0     H70275  10.249  11.471   3.293 -1.3124  1.1326  0.1140
  521MOL0     H70276  10.186  11.647   3.124 -0.5420  0.1214  0.7026
  521MOL0     H70277  10.138  11.511   3.016  0.2113 -0.3628  0.8628
  521MOL0     H70278   9.946  11.466   3.137 -0.0266  0.0264 -1.6828
  521MOL0     H70279   9.982  11.583   3.270  0.0519 -1.3003  0.3176
  521MOL0     H70280   9.969  11.763   3.101  0.3168 -1.2935  2.4510
  521MOL0     H70281   9.917  11.641   2.981 -0.8424  0.2973 -0.6004
  521MOL0     H70282   9.731  11.582   3.139  2.7168 -0.9561  1.2871
  521MOL0     H70283   9.760  11.716   3.239  0.6991  1.1280 -0.5453
  521MOL0     H70284   9.708  11.770   2.953  2.7882 -1.0238  0.8279
  521MOL0     H70285   9.712  11.889   3.081  1.2480 -0.9263  1.0778
  521MOL0     H70286   9.469  11.852   3.272 -0.8105 -1.4334  1.7305
  521MOL0     H70287   9.195  11.643   3.311  0.9862 -0.3668  0.3639
  521MOL0     H70288   9.207  11.824   3.296 -2.5068 -0.4559  0.7060
  521MOL0     H70289   9.073  11.636   3.108 -0.5781  0.4173 -1.0962
  521MOL0     H70290   9.144  11.787   3.061  0.0993  0.5021  0.7099
  521MOL0     H70291   9.020  11.913   3.232 -1.8568 -0.1341  0.4638
  521MOL0     H70292   8.938  11.768   3.282  1.5419 -0.6765  0.4401
  521MOL0     H70293   8.861  11.716   3.065 -0.9128  0.6119  1.5970
  521MOL0     H70294   8.904  11.876   2.999 -0.0766  0.2689  0.5409
  521MOL0     H70295   8.617  12.097   3.171 -1.1892  1.6866 -1.8787
  521MOL0     H70296   8.306  12.149   3.123 -0.1128 -2.5724 -0.2694
  521MOL0     H70297   8.461  12.230   3.158 -1.1287  0.5325 -0.0304
  521MOL0     H70298   8.400  12.262   3.004 -0.7134 -1.2943 -0.4512
  521MOL0     H70299   8.007  12.001   2.892  0.2002 -0.1568 -0.7693
  521MOL0     H70300   7.786  12.001   2.788  1.2135  2.4356 -1.6490
  521MOL0     H70301   7.760  11.886   2.383 -0.5573 -0.8871 -1.5952
  521MOL0     H70302   7.675  11.740   2.438 -0.5398 -0.0650 -0.6252
  521MOL0     H70303   7.542  12.024   2.432  1.4225  0.1693  1.6622
  521MOL0     H70304   7.534  11.921   2.293 -0.1348 -0.4693 -0.8302
  521MOL0     H70305   7.439  11.842   2.575  1.0045 -1.8514 -0.0636
  521MOL0     H70306   7.442  11.738   2.427 -0.2873  1.2250 -3.2143
  521MOL0     H70307   7.270  11.881   2.311 -1.2350 -0.7004 -0.0669
  521MOL0     H70308   7.199  11.811   2.446 -0.4640  0.3400 -2.3888
  521MOL0     H70309   7.321  12.094   2.462  0.9476  0.2288  0.3963
  521MOL0     H70310   7.279  11.986   2.599 -0.4419 -0.4877 -1.1542
  521MOL0     H70311   7.048  11.985   2.523  1.0432 -0.3733  0.0589
  521MOL0     H70312   7.110  12.144   2.566  2.5671  0.5039  0.0188
  521MOL0     H70313   6.967  12.161   2.374  0.0196  0.1319  1.3434
  521MOL0     H70314   7.033  12.020   2.292 -0.5674 -0.4618  0.9707
  521MOL0     H70315   7.235  12.123   2.238 -1.7570 -1.2256 -3.0272
  521MOL0     H70316   7.202  12.258   2.344  0.6713 -1.7736  1.8986
  521MOL0     H70317   7.928  11.761   2.469  2.0877 -2.3149  0.4456
  521MOL0     H70318   8.159  11.806   2.529 -0.4039  2.8581 -2.7038
  521MOL0     H70319   8.464  11.776   2.832  0.5573  0.0520 -0.7846
  521MOL0     H70320   8.661  11.723   2.966  0.6270  0.9818 -0.4125
  521MOL0     H70321  10.806  11.368   3.036  0.6646 -3.6336  0.1333
  521MOL0     H70322  11.014  11.383   3.152  0.7428  0.9112  1.4119
  521MOL0     H70323  11.234  11.410   3.493 -2.0011 -2.4454 -0.5479
  521MOL0     H70324  11.479  11.418   3.557  1.0105 -0.3344  0.0235
  521MOL0     H70325  11.653  11.375   3.670  0.0442  1.8188 -2.2288
  521MOL0     H70326  11.762  11.259   3.736 -1.5771 -0.9514  0.0732
  521MOL0     H70327  11.881  11.415   3.576 -0.6791 -0.3778  2.7114
  521MOL0     H70328  11.744  11.370   3.462 -1.1567 -2.8086  0.7698
  521MOL0     H70329  11.959  11.255   3.396  0.9665 -0.4240  0.1798
  521MOL0     H70330  11.825  11.154   3.420  2.5730 -0.8665 -1.3954
  521MOL0     H70331  11.904  11.061   3.619  0.3489 -0.6843  0.1215
  521MOL0     H70332  11.998  11.203   3.651 -1.0808  2.0035 -1.3866
  521MOL0     H70333  12.299  10.980   3.450  1.2042  0.0072  1.0363
  521MOL0     H70334  11.474  10.994   3.581  1.7570  0.2059 -0.9617
  521MOL0     H70335  11.248  10.987   3.497 -1.5496  0.7003  1.8141
  522MOL0     O70336  10.614   3.837   8.666 -0.4975 -0.1643  0.0770
  522MOL0     C70337  10.667   3.884   8.771  0.2307  0.1295  0.3235
  522MOL0     O70338  10.610   3.879   8.887  0.0829 -0.1609 -0.6962
  522MOL0     C70339  10.473   3.851   8.900  0.2554  0.1425  0.1562
  522MOL0     C70340  10.394   3.942   8.973  0.6817  0.8688  0.1209
  522MOL0     C70341  10.255   3.918   8.985  0.1725 -0.0575 -0.6562
  522MOL0     C70342  10.195   3.801   8.924  0.4495 -0.0705  0.2491
  522MOL0     O70343  10.063   3.772   8.919 -0.1956  1.0477  0.1682
  522MOL0     C70344   9.958   3.863   8.966  0.5265  0.5357  0.4515
  522MOL0     C70345   9.818   3.792   8.961 -0.1483 -0.0924  0.4239
  522MOL0     C70346   9.702   3.888   8.992  0.2868 -0.3055 -0.7421
  522MOL0     C70347   9.577   3.823   8.928 -1.3793 -0.4932 -0.4939
  522MOL0     C70348   9.459   3.922   8.938  0.2315  0.7287 -0.3102
  522MOL0     C70349   9.324   3.854   8.904 -0.0147  0.4169  0.2113
  522MOL0     C70350   9.205   3.941   8.924  0.6556 -0.7611 -0.4861
  522MOL0     C70351   9.079   3.862   8.879 -0.0386  0.0886 -0.4013
  522MOL0     N70352   8.963   3.941   8.830 -0.6690  0.3919 -0.3431
  522MOL0     C70353   8.898   4.041   8.893  0.6245 -0.0647  0.2624
  522MOL0     C70354   8.824   4.100   8.798  0.7829  0.1675 -0.1342
  522MOL0     C70355   8.749   4.226   8.823  0.1357 -0.2631  0.2013
  522MOL0     C70356   8.608   4.226   8.765  0.5652 -0.2826 -0.7824
  522MOL0     C70357   8.534   4.347   8.810  0.1732  0.3056  0.0321
  522MOL0     C70358   8.388   4.339   8.754 -0.0280 -0.3055 -0.0442
  522MOL0     O70359   8.305   4.410   8.838 -0.1707  0.3922  0.8017
  522MOL0     C70360   8.171   4.392   8.812 -0.6162 -0.2659 -0.2421
  522MOL0     C70361   8.095   4.293   8.878  0.0988  0.7867  0.1144
  522MOL0     C70362   7.963   4.273   8.850 -0.4819 -0.6256 -0.1068
  522MOL0     C70363   7.881   4.177   8.940 -0.3195  0.1348 -0.0191
  522MOL0     C70364   7.894   4.358   8.754  0.1554  0.4611  0.1814
  522MOL0     C70365   7.753   4.342   8.707  0.5998 -0.0582 -0.0717
  522MOL0     O70366   7.689   4.450   8.665  0.2232 -0.0911 -0.0348
  522MOL0     C70367   7.578   4.426   8.586 -0.3140 -0.2693 -0.1756
  522MOL0     C70368   7.453   4.411   8.641 -0.1340  0.3140 -0.0294
  522MOL0     C70369   7.341   4.385   8.556 -0.4557  0.3421  0.6702
  522MOL0     C70370   7.351   4.386   8.418  0.1592  0.2553 -0.0555
  522MOL0     O70371   7.234   4.383   8.345  0.2577  0.3352  0.0389
  522MOL0     C70372   7.236   4.435   8.214  0.1947 -1.0122  0.6862
  522MOL0     C70373   7.096   4.468   8.177 -0.1673  0.2792 -0.3202
  522MOL0     C70374   7.021   4.567   8.258  0.4146 -0.4204 -0.8326
  522MOL0     C70375   7.094   4.715   8.257 -0.3644  0.2863 -0.2527
  522MOL0     C70376   7.008   4.821   8.319 -0.2655  0.9181  0.1923
  522MOL0     C70377   7.070   4.956   8.358 -0.2969  0.0066 -0.0081
  522MOL0     C70378   6.960   5.055   8.396 -0.0694 -0.9973  0.2713
  522MOL0     C70379   7.008   5.195   8.425 -0.0127 -0.5191  0.3353
  522MOL0    Cl70380   7.057   5.274   8.265 -0.6166 -0.0486  0.3305
  522MOL0     C70381   7.481   4.399   8.372 -0.5416 -0.2011  0.4259
  522MOL0     C70382   7.599   4.420   8.448  0.3621  0.2175 -0.7040
  522MOL0     O70383   7.711   4.230   8.702 -0.0095  0.5884  0.1565
  522MOL0     C70384   7.972   4.462   8.701  0.0721 -0.3441  0.1287
  522MOL0     C70385   8.108   4.483   8.734  0.6103 -0.1859  0.2840
  522MOL0     N70386   8.834   4.026   8.685  0.9380 -0.8043  0.1623
  522MOL0     N70387   8.914   3.926   8.703 -0.3725 -0.7344  0.3228
  522MOL0     C70388  10.274   3.715   8.851  0.2585  0.5809 -0.4494
  522MOL0     C70389  10.411   3.740   8.837  0.5239 -0.3442 -0.1698
  522MOL0     C70390  10.810   3.923   8.757 -0.2979  0.0308  1.7616
  522MOL0     C70391  10.901   3.896   8.865  0.7369 -0.0526  0.6011
  522MOL0     C70392  11.026   3.942   8.857 -0.9200 -0.4008  0.6341
  522MOL0     C70393  11.077   4.014   8.748  0.8184 -0.3402 -1.4920
  522MOL0     O70394  11.203   4.059   8.766 -0.3813 -0.2137 -0.4697
  522MOL0     C70395  11.261   4.144   8.659  0.8993  1.0436  0.3792
  522MOL0     C70396  11.398   4.187   8.680 -0.8508  0.3230 -0.5304
  522MOL0     C70397  11.485   4.066   8.721 -0.2052 -0.0857  0.0113
  522MOL0     C70398  11.632   4.098   8.723  1.1548  0.2967  0.1852
  522MOL0     C70399  11.712   3.978   8.704 -0.9208  0.0127  0.2991
  522MOL0     C70400  11.779   3.884   8.666 -0.1204 -0.0796 -0.1597
  522MOL0     C70401  10.995   4.034   8.642  1.0241 -0.2017  0.2014
  522MOL0     C70402  10.857   3.994   8.646  0.0090 -0.5414 -1.0513
  522MOL0     H70403  10.430   4.032   9.023  0.2086 -0.1702  2.4850
  522MOL0     H70404  10.198   4.001   9.024  1.8163  1.8236 -2.0244
  522MOL0     H70405   9.975   3.888   9.071 -2.1653 -1.3753  1.4606
  522MOL0     H70406   9.955   3.949   8.899  0.4977  0.2761  0.1162
  522MOL0     H70407   9.796   3.755   8.860 -0.7431 -1.9504  1.1786
  522MOL0     H70408   9.815   3.707   9.031  0.3586 -0.2995  0.2038
  522MOL0     H70409   9.688   3.905   9.099  2.1024 -0.7560 -0.3959
  522MOL0     H70410   9.712   3.987   8.947 -0.8206 -0.4187 -1.2682
  522MOL0     H70411   9.600   3.809   8.822  0.3063  4.0757 -0.9642
  522MOL0     H70412   9.550   3.734   8.986  0.0665  0.2763  1.4668
  522MOL0     H70413   9.451   3.948   9.044  0.1513 -0.2498 -0.0668
  522MOL0     H70414   9.471   4.018   8.886  0.8241  1.0713  0.4457
  522MOL0     H70415   9.329   3.824   8.799 -2.7281  0.5368 -0.0249
  522MOL0     H70416   9.307   3.761   8.959 -1.8980  1.2745  1.1809
  522MOL0     H70417   9.201   3.972   9.029  1.1437 -0.7413 -0.4699
  522MOL0     H70418   9.213   4.034   8.866 -0.9892  0.0923  0.5682
  522MOL0     H70419   9.048   3.806   8.968 -0.7312 -1.2528 -1.4465
  522MOL0     H70420   9.106   3.789   8.802  0.5496  0.1435 -0.2507
  522MOL0     H70421   8.913   4.072   8.996  1.6169 -0.3607  0.2157
  522MOL0     H70422   8.738   4.237   8.931 -1.5952  1.8929 -0.1162
  522MOL0     H70423   8.799   4.318   8.789 -3.2453  2.3274  1.6062
  522MOL0     H70424   8.557   4.132   8.791  3.8689 -2.7069 -2.2957
  522MOL0     H70425   8.607   4.220   8.655 -1.1592 -2.4374 -0.7173
  522MOL0     H70426   8.575   4.436   8.762 -2.2034  0.8036 -1.2746
  522MOL0     H70427   8.535   4.356   8.919 -1.6385  0.2967  0.0865
  522MOL0     H70428   8.356   4.234   8.750  2.5586 -1.1439 -1.1363
  522MOL0     H70429   8.398   4.384   8.655  0.9921 -2.0380 -0.7889
  522MOL0     H70430   8.154   4.230   8.945 -1.3603  0.4083  1.0761
  522MOL0     H70431   7.863   4.087   8.881  0.7064  0.4641 -0.8517
  522MOL0     H70432   7.937   4.158   9.032 -0.7181 -4.3326 -0.5146
  522MOL0     H70433   7.788   4.231   8.963 -0.7070  0.3775 -2.0017
  522MOL0     H70434   7.436   4.395   8.747 -3.6931 -0.1976 -0.5329
  522MOL0     H70435   7.242   4.378   8.601 -0.7169  1.8351  0.4032
  522MOL0     H70436   7.295   4.527   8.212 -0.9890 -0.1803  1.8270
  522MOL0     H70437   7.285   4.367   8.144 -0.9153 -2.1977  1.0290
  522MOL0     H70438   7.081   4.512   8.078 -3.0687 -1.0193 -0.5520
  522MOL0     H70439   7.035   4.378   8.189  1.3285 -0.7868 -0.5111
  522MOL0     H70440   7.029   4.539   8.363  2.4247  1.0033 -0.5543
  522MOL0     H70441   6.914   4.577   8.239  0.4511  3.3113  0.2565
  522MOL0     H70442   7.176   4.712   8.330 -0.2607  0.2641 -0.3687
  522MOL0     H70443   7.133   4.730   8.156 -2.0221 -0.2181 -0.9883
  522MOL0     H70444   6.967   4.782   8.413  1.4334 -0.1864  0.5124
  522MOL0     H70445   6.932   4.820   8.241 -1.1569 -1.1743  1.0121
  522MOL0     H70446   7.143   4.947   8.440 -1.5442 -1.6649  0.9951
  522MOL0     H70447   7.126   4.992   8.271  1.6192 -2.7667 -0.0594
  522MOL0     H70448   6.936   5.032   8.500 -2.9298  2.2674  0.5401
  522MOL0     H70449   6.873   5.050   8.329 -0.3234  0.5264  0.4495
  522MOL0     H70450   7.091   5.191   8.496 -0.2595  1.0990  0.7687
  522MOL0     H70451   6.937   5.265   8.471  1.3070  1.1010  0.0377
  522MOL0     H70452   7.496   4.388   8.265 -0.8733  1.0654  0.2414
  522MOL0     H70453   7.696   4.419   8.399  0.9755 -2.9735  0.3428
  522MOL0     H70454   7.937   4.542   8.636  0.2777  1.1706  1.7766
  522MOL0     H70455   8.163   4.562   8.685 -2.5358  1.9807 -0.0235
  522MOL0     H70456  10.234   3.624   8.809 -1.2063  0.6348  0.7284
  522MOL0     H70457  10.477   3.670   8.787  0.4319 -0.9635  0.5487
  522MOL0     H70458  10.885   3.839   8.956  1.5122 -2.4999 -0.7239
  522MOL0     H70459  11.092   3.920   8.940 -1.2166 -0.3573  0.8844
  522MOL0     H70460  11.260   4.079   8.571 -4.6945  1.0123  0.1211
  522MOL0     H70461  11.191   4.226   8.639  0.7960  0.4016 -2.2981
  522MOL0     H70462  11.402   4.266   8.755  1.5176  1.5532 -1.8336
  522MOL0     H70463  11.435   4.228   8.586  2.3076 -1.5087 -0.2399
  522MOL0     H70464  11.460   3.981   8.656 -0.8269  0.9630 -1.1677
  522MOL0     H70465  11.450   4.035   8.820  0.3383 -3.8087 -0.7891
  522MOL0     H70466  11.662   4.143   8.818 -1.5687  1.3530  0.6191
  522MOL0     H70467  11.649   4.170   8.643 -0.8459  0.6200  0.0177
  522MOL0     H70468  11.834   3.794   8.645  0.0304  0.2858 -1.4103
  522MOL0     H70469  11.029   4.078   8.549 -2.2981 -0.3264 -1.2020
  522MOL0     H70470  10.794   4.017   8.561 -1.2562  4.3768  0.8442
  523MOL0     O70471   4.375   0.402   5.886  0.4024 -0.6120 -0.5312
  523MOL0     C70472   4.421   0.512   5.851  0.4083  0.3152  0.6384
  523MOL0     O70473   4.354   0.630   5.844  0.3246  0.1254  0.3554
  523MOL0     C70474   4.236   0.641   5.911  0.7907 -0.6499  1.2133
  523MOL0     C70475   4.119   0.570   5.880 -0.6477  0.6294 -0.1310
  523MOL0     C70476   4.000   0.593   5.954  0.0341 -0.1424  0.4991
  523MOL0     C70477   4.000   0.685   6.061 -0.2094  0.1212 -0.4194
  523MOL0     O70478   3.888   0.713   6.132 -0.3080  0.4397  0.3506
  523MOL0     C70479   3.799   0.605   6.162  0.1959  0.3688  0.0930
  523MOL0     C70480   3.725   0.653   6.287  0.0028 -0.4000  0.3875
  523MOL0     C70481   3.623   0.553   6.339 -0.3945  0.0715 -0.0710
  523MOL0     C70482   3.537   0.611   6.450 -0.3989  0.5953 -0.4752
  523MOL0     C70483   3.494   0.489   6.538  0.2824 -0.0146  0.0880
  523MOL0     C70484   3.398   0.531   6.653 -0.4500 -0.8237 -0.6996
  523MOL0     C70485   3.359   0.413   6.746 -0.1892 -0.4864 -0.0579
  523MOL0     C70486   3.266   0.453   6.857  0.2218 -0.6962  0.3373
  523MOL0     N70487   3.126   0.494   6.801  0.3681  0.2603  0.2017
  523MOL0     C70488   3.085   0.623   6.757 -0.1061  0.0623  0.3640
  523MOL0     C70489   2.950   0.604   6.729 -1.0056  0.6252 -0.0023
  523MOL0     C70490   2.848   0.710   6.701 -0.8385 -0.7369  0.6101
  523MOL0     C70491   2.801   0.732   6.556  0.1198  0.8665 -0.3146
  523MOL0     C70492   2.752   0.602   6.493  0.5058 -0.1032  0.5966
  523MOL0     C70493   2.621   0.560   6.560 -0.1955 -0.7911 -0.9741
  523MOL0     O70494   2.523   0.666   6.571 -0.4620 -0.7649 -0.4137
  523MOL0     C70495   2.390   0.637   6.585 -1.0200  0.2265  0.0814
  523MOL0     C70496   2.356   0.515   6.630 -1.2025  0.1799  1.0668
  523MOL0     C70497   2.216   0.477   6.637 -0.8163  0.4972 -0.0561
  523MOL0     C70498   2.187   0.342   6.691 -0.1288  0.1192 -0.0621
  523MOL0     C70499   2.112   0.572   6.607 -0.0581 -0.0165  0.4915
  523MOL0     C70500   1.969   0.552   6.610 -0.8601 -0.1593 -0.2425
  523MOL0     O70501   1.901   0.624   6.519 -0.1197  0.2956 -0.2985
  523MOL0     C70502   1.766   0.618   6.523 -0.2637  0.5831 -0.0231
  523MOL0     C70503   1.692   0.704   6.601  0.1443 -0.1538 -0.2496
  523MOL0     C70504   1.553   0.695   6.608  0.4589 -0.4182 -0.7628
  523MOL0     C70505   1.485   0.583   6.555 -0.7103 -0.8259 -0.0716
  523MOL0     O70506   1.355   0.551   6.576 -0.5562 -0.2735 -0.6959
  523MOL0     C70507   1.262   0.652   6.551  0.0686 -0.9041  0.8049
  523MOL0     C70508   1.117   0.605   6.502  0.4500 -0.6554  0.2759
  523MOL0     C70509   1.024   0.538   6.611  0.4337  0.4005 -0.0663
  523MOL0     C70510   0.880   0.504   6.552  0.5707  0.8710  0.5822
  523MOL0     C70511   0.795   0.466   6.671 -0.2898  0.0532 -0.3674
  523MOL0     C70512   0.666   0.398   6.625 -0.3965  0.0679 -0.6268
  523MOL0     C70513   0.566   0.384   6.732 -0.2177  0.4534  0.6862
  523MOL0     C70514   0.452   0.292   6.692 -0.8017 -0.2825  0.2746
  523MOL0    Cl70515   0.371   0.254   6.844  0.1893 -0.0098  0.1717
  523MOL0     C70516   1.566   0.484   6.483  0.4227 -0.1444 -0.7970
  523MOL0     C70517   1.704   0.508   6.464  0.6804  0.1842 -0.1269
  523MOL0     O70518   1.912   0.481   6.691  0.2429 -0.0405 -0.2034
  523MOL0     C70519   2.166   0.697   6.561 -1.0324  0.2457 -0.0637
  523MOL0     C70520   2.296   0.726   6.550 -0.2372 -0.3908 -0.3466
  523MOL0     N70521   2.924   0.462   6.723 -1.2341 -0.2069  0.6156
  523MOL0     N70522   3.027   0.406   6.770  0.0794  0.8392  0.5374
  523MOL0     C70523   4.115   0.749   6.095 -0.4298  0.5038  0.3618
  523MOL0     C70524   4.233   0.725   6.021 -0.6949  0.3256  0.5705
  523MOL0     C70525   4.567   0.520   5.813  0.4511  0.1658  0.1967
  523MOL0     C70526   4.639   0.640   5.837  0.1286 -0.4173  0.4351
  523MOL0     C70527   4.778   0.647   5.824 -0.3386  0.8625 -1.0505
  523MOL0     C70528   4.849   0.531   5.790  0.5335 -0.0741 -0.3826
  523MOL0     O70529   4.984   0.527   5.784 -0.4598 -0.2340 -0.1607
  523MOL0     C70530   5.056   0.634   5.712  0.9668 -0.4213  0.1476
  523MOL0     C70531   5.206   0.599   5.713 -0.5682  0.0159  0.8111
  523MOL0     C70532   5.246   0.467   5.634 -0.2644 -0.3936  0.0412
  523MOL0     C70533   5.400   0.464   5.634  0.4205  0.5320 -0.5101
  523MOL0     C70534   5.467   0.428   5.761 -1.1256  0.6341  0.5901
  523MOL0     C70535   5.527   0.406   5.868 -0.0596  1.1983  0.5777
  523MOL0     C70536   4.777   0.418   5.752  0.3565 -0.3762 -0.1448
  523MOL0     C70537   4.638   0.409   5.767 -0.5368 -0.2870 -0.8499
  523MOL0     H70538   4.136   0.511   5.790  0.6736 -1.1306  1.1833
  523MOL0     H70539   3.906   0.544   5.929  0.1803 -0.1957  0.0402
  523MOL0     H70540   3.723   0.589   6.085 -0.9053  3.8347  0.2836
  523MOL0     H70541   3.844   0.508   6.182 -0.0587  0.0423 -0.8828
  523MOL0     H70542   3.802   0.675   6.361  0.4144  1.0580 -0.4408
  523MOL0     H70543   3.673   0.745   6.259  1.6769 -0.2590 -2.5557
  523MOL0     H70544   3.562   0.520   6.254 -1.4104  0.5585  0.4491
  523MOL0     H70545   3.672   0.460   6.368  1.2731  0.2974 -1.9802
  523MOL0     H70546   3.586   0.671   6.527  0.8851 -4.6604  3.3380
  523MOL0     H70547   3.453   0.667   6.407 -2.3373 -0.5202  1.6466
  523MOL0     H70548   3.445   0.405   6.487 -1.3388  0.1920  1.1996
  523MOL0     H70549   3.582   0.449   6.589  0.8422  1.6431  0.4820
  523MOL0     H70550   3.441   0.610   6.715 -0.1607  0.4064 -2.3769
  523MOL0     H70551   3.310   0.579   6.609 -0.0533  0.8732  0.2506
  523MOL0     H70552   3.312   0.331   6.690 -1.9538  0.3337  0.1389
  523MOL0     H70553   3.445   0.378   6.803 -1.9605 -1.5506  2.1028
  523MOL0     H70554   3.304   0.544   6.904  1.2049 -0.5209 -0.7533
  523MOL0     H70555   3.243   0.369   6.923  0.2148 -1.3261 -0.4473
  523MOL0     H70556   3.147   0.711   6.761  1.4617 -1.0563  1.9560
  523MOL0     H70557   2.760   0.697   6.765 -1.5021  1.0547  0.1267
  523MOL0     H70558   2.892   0.806   6.729  0.0092 -1.3108  1.3152
  523MOL0     H70559   2.893   0.768   6.510  1.9066 -0.6463  1.8891
  523MOL0     H70560   2.724   0.809   6.543 -0.8848 -0.0391  0.0729
  523MOL0     H70561   2.819   0.516   6.491  2.3583  1.2089 -3.1527
  523MOL0     H70562   2.728   0.624   6.388  0.2028 -0.2128  0.6395
  523MOL0     H70563   2.642   0.524   6.661  1.6365 -2.7947 -2.0065
  523MOL0     H70564   2.581   0.479   6.498 -0.8600 -0.7571 -0.6040
  523MOL0     H70565   2.426   0.434   6.644  2.6501  2.9661 -0.4060
  523MOL0     H70566   2.098   0.340   6.755 -0.3574 -0.6492 -0.4011
  523MOL0     H70567   2.180   0.269   6.610 -2.2929  3.1407 -2.8611
  523MOL0     H70568   2.269   0.304   6.753 -0.2172 -0.5985 -0.3777
  523MOL0     H70569   1.754   0.783   6.642 -1.3918  0.4748  0.9580
  523MOL0     H70570   1.505   0.775   6.662  1.1321  0.4445 -1.4279
  523MOL0     H70571   1.250   0.721   6.636 -0.6893  0.9083 -0.6923
  523MOL0     H70572   1.305   0.719   6.476 -1.7314  2.2041  2.3167
  523MOL0     H70573   1.066   0.675   6.435  3.4075  0.3912 -1.0700
  523MOL0     H70574   1.135   0.522   6.433 -0.0489 -2.9230  2.7103
  523MOL0     H70575   1.013   0.603   6.698 -1.3892  0.3848 -0.2488
  523MOL0     H70576   1.059   0.445   6.658  1.5355  0.8122 -0.0402
  523MOL0     H70577   0.825   0.583   6.500  0.1994  0.7521  0.7868
  523MOL0     H70578   0.875   0.417   6.487 -0.7570  1.1588  0.2661
  523MOL0     H70579   0.755   0.558   6.716 -1.8676 -0.2640 -1.0588
  523MOL0     H70580   0.853   0.408   6.743  1.8168  0.8524 -1.3341
  523MOL0     H70581   0.632   0.461   6.542  2.2858  1.8400 -0.4864
  523MOL0     H70582   0.691   0.299   6.585  2.0422  0.4098 -0.0991
  523MOL0     H70583   0.520   0.480   6.757 -0.4236  0.5896 -0.1858
  523MOL0     H70584   0.622   0.349   6.819 -0.5631  1.0717  1.1630
  523MOL0     H70585   0.491   0.201   6.646  1.1711  1.2465 -1.2803
  523MOL0     H70586   0.382   0.341   6.624 -2.2583  1.9672  3.1661
  523MOL0     H70587   1.514   0.396   6.448 -2.0324  0.6766  0.5080
  523MOL0     H70588   1.767   0.433   6.417  1.5988 -0.6496  2.3074
  523MOL0     H70589   2.108   0.785   6.536 -1.3758  0.7313  2.1485
  523MOL0     H70590   2.330   0.825   6.520  2.2179  0.4653  4.3557
  523MOL0     H70591   4.123   0.799   6.191  1.0035 -2.6798  2.0640
  523MOL0     H70592   4.327   0.778   6.041 -0.6725  1.0111 -1.1976
  523MOL0     H70593   4.605   0.738   5.869 -0.7616 -0.4203 -0.4612
  523MOL0     H70594   4.832   0.741   5.827 -0.2227  0.7764  0.2195
  523MOL0     H70595   5.018   0.633   5.610  1.2703 -3.2644 -0.0299
  523MOL0     H70596   5.026   0.732   5.749 -3.9998 -2.0011  1.1705
  523MOL0     H70597   5.240   0.581   5.815 -1.1529  1.1515  1.2347
  523MOL0     H70598   5.264   0.687   5.683  2.3782 -2.5258 -1.5835
  523MOL0     H70599   5.208   0.461   5.531  0.5128  0.1940 -0.2838
  523MOL0     H70600   5.208   0.380   5.689  0.6026  0.0608  1.4130
  523MOL0     H70601   5.437   0.565   5.615 -1.4949  1.6558  1.3391
  523MOL0     H70602   5.441   0.405   5.552  1.8440  1.2383 -0.3467
  523MOL0     H70603   5.566   0.381   5.964 -1.1731 -0.4521  0.6554
  523MOL0     H70604   4.834   0.337   5.709  1.0129  0.2272 -0.4275
  523MOL0     H70605   4.582   0.320   5.741 -3.3343  1.7192 -2.1616
  524MOL0     O70606   7.784   4.089   9.686  0.4187  0.1469  0.1751
  524MOL0     C70607   7.821   3.976   9.714  0.1589  0.4170 -0.1585
  524MOL0     O70608   7.744   3.864   9.716  0.6231  0.2406  0.4882
  524MOL0     C70609   7.615   3.852   9.659  0.2291 -0.5633  0.5493
  524MOL0     C70610   7.567   3.920   9.542 -0.0526  0.1167 -0.5256
  524MOL0     C70611   7.427   3.912   9.509 -0.4177 -0.6726 -0.1425
  524MOL0     C70612   7.349   3.830   9.582  0.4531 -0.4285 -0.1822
  524MOL0     O70613   7.210   3.832   9.555  0.8383  0.3540  0.3784
  524MOL0     C70614   7.162   3.883   9.421  0.5964 -0.0891 -0.3975
  524MOL0     C70615   7.015   3.878   9.440 -0.6088 -0.7636 -0.1426
  524MOL0     C70616   6.957   3.739   9.433  1.1219 -0.1280  0.3192
  524MOL0     C70617   6.808   3.762   9.435  0.7696  0.6241 -0.4428
  524MOL0     C70618   6.724   3.637   9.411 -0.6912 -0.1121  0.2446
  524MOL0     C70619   6.768   3.526   9.506  0.2269 -0.8506 -0.7049
  524MOL0     C70620   6.672   3.410   9.515  0.1152  0.3399 -0.6934
  524MOL0     C70621   6.673   3.326   9.383  0.1276 -0.3437 -0.0426
  524MOL0     N70622   6.572   3.217   9.388 -0.2720 -0.3365  0.4523
  524MOL0     C70623   6.561   3.116   9.483  0.0842  0.9838 -0.3671
  524MOL0     C70624   6.443   3.055   9.443 -0.1867  0.1508 -0.6058
  524MOL0     C70625   6.379   2.928   9.495 -0.1402  0.0926  0.5035
  524MOL0     C70626   6.341   2.934   9.642  0.5384  0.0645  0.3299
  524MOL0     C70627   6.234   3.036   9.684  0.3050  0.4770  0.2426
  524MOL0     C70628   6.081   3.001   9.645 -0.9919  0.4968  0.1137
  524MOL0     O70629   5.999   3.084   9.720  0.3255  0.9863 -0.0810
  524MOL0     C70630   5.892   3.024   9.768 -0.0247  0.3124 -0.0323
  524MOL0     C70631   5.771   3.030   9.701  0.3984 -0.0026  0.2909
  524MOL0     C70632   5.652   3.001   9.760  0.4447  0.3487  0.3385
  524MOL0     C70633   5.529   3.020   9.675  0.0463  0.3695  0.0042
  524MOL0     C70634   5.655   2.951   9.896  0.1533 -0.2575  1.0386
  524MOL0     C70635   5.536   2.911   9.973 -0.0758  0.4864 -0.4349
  524MOL0     O70636   5.544   2.802  10.055  0.0914 -0.2593 -0.5528
  524MOL0     C70637   5.434   2.755  10.132  0.3565 -0.4028  0.4818
  524MOL0     C70638   5.303   2.807  10.143 -0.1059 -0.0683 -0.3371
  524MOL0     C70639   5.205   2.757  10.234 -0.3612 -0.6093 -0.7999
  524MOL0     C70640   5.240   2.667  10.333  0.7145  0.2063  0.4367
  524MOL0     O70641   5.149   2.633  10.427 -0.3216 -0.0296  0.3175
  524MOL0     C70642   5.118   2.747  10.513  0.5066 -0.8196 -0.0538
  524MOL0     C70643   5.034   2.712  10.629 -0.2547  0.9891  0.1299
  524MOL0     C70644   5.023   2.816  10.740  0.1121  0.1021  0.7598
  524MOL0     C70645   4.932   2.767  10.856  0.0556  0.2259 -1.2474
  524MOL0     C70646   4.908   2.879  10.960 -0.1215 -0.3896  0.2567
  524MOL0     C70647   4.794   2.968  10.908 -0.8877  0.0248  0.2371
  524MOL0     C70648   4.722   3.042  11.024 -0.4651 -0.8464  0.2112
  524MOL0     C70649   4.635   3.156  10.966  0.2407  0.3571 -0.2125
  524MOL0    Cl70650   4.759   3.279  10.909 -0.2505  0.3006 -0.0248
  524MOL0     C70651   5.372   2.611  10.325  1.0125 -0.6581  0.1490
  524MOL0     C70652   5.469   2.657  10.230  0.4029  0.4164 -0.1029
  524MOL0     O70653   5.443   2.989   9.967 -0.3354 -0.0394  0.3194
  524MOL0     C70654   5.779   2.948   9.958 -1.4082 -0.6529 -0.6805
  524MOL0     C70655   5.902   2.985   9.899  0.3854  0.7036 -0.4221
  524MOL0     N70656   6.382   3.120   9.341 -0.1030 -0.3265  0.7468
  524MOL0     N70657   6.461   3.216   9.307  0.1894 -0.4618 -1.5484
  524MOL0     C70658   7.394   3.759   9.692 -0.4925 -0.0292 -0.0803
  524MOL0     C70659   7.532   3.766   9.731 -0.0247  0.6336  0.7219
  524MOL0     C70660   7.960   3.963   9.760  0.2108  0.1832 -0.8124
  524MOL0     C70661   8.014   3.839   9.793 -0.1334 -0.2204 -0.6956
  524MOL0     C70662   8.148   3.822   9.822 -0.5477 -0.5378 -0.0985
  524MOL0     C70663   8.233   3.939   9.838  0.6867  0.5755  0.5939
  524MOL0     O70664   8.368   3.940   9.866 -0.9564  0.1810 -0.2781
  524MOL0     C70665   8.435   3.821   9.909  0.0143  0.6006  0.3033
  524MOL0     C70666   8.560   3.846   9.994 -0.3255  0.0954  0.1423
  524MOL0     C70667   8.666   3.919   9.917 -0.0349 -0.1701  0.6500
  524MOL0     C70668   8.776   3.965  10.013 -0.1197  0.0777 -0.7307
  524MOL0     C70669   8.838   3.850  10.090 -0.1297  0.2629  0.3199
  524MOL0     C70670   8.894   3.762  10.145  0.3687  1.1254  0.1087
  524MOL0     C70671   8.182   4.058   9.809  0.3766 -0.2766 -0.4655
  524MOL0     C70672   8.044   4.077   9.778 -0.2341  0.1497 -0.0641
  524MOL0     H70673   7.633   3.983   9.484  3.4843 -1.8741  1.0351
  524MOL0     H70674   7.402   3.961   9.416  3.3688 -1.0177 -1.5116
  524MOL0     H70675   7.197   3.987   9.422  1.8999 -0.4837  1.8922
  524MOL0     H70676   7.204   3.830   9.335  4.1273  2.6943 -0.6477
  524MOL0     H70677   6.981   3.920   9.536  3.3953  1.2954  0.5962
  524MOL0     H70678   6.972   3.945   9.366  2.3403  1.5323  0.0558
  524MOL0     H70679   6.995   3.699   9.338 -0.2440  0.6910 -0.6160
  524MOL0     H70680   6.992   3.682   9.520  3.4161 -3.0306 -2.2633
  524MOL0     H70681   6.778   3.782   9.538 -1.2291 -0.5297 -0.7495
  524MOL0     H70682   6.767   3.840   9.371 -0.1274 -0.5843 -1.3976
  524MOL0     H70683   6.615   3.648   9.414 -0.8711 -0.8043 -1.9633
  524MOL0     H70684   6.753   3.599   9.313  0.8256  2.5172 -0.4206
  524MOL0     H70685   6.865   3.486   9.476  1.0283  0.4333  0.0767
  524MOL0     H70686   6.778   3.560   9.610  1.6389 -2.6478 -0.2048
  524MOL0     H70687   6.714   3.353   9.599 -0.7953  3.1374  1.8187
  524MOL0     H70688   6.579   3.446   9.560 -0.3584  0.3903 -1.6727
  524MOL0     H70689   6.771   3.281   9.363 -0.5460 -3.0085  2.1356
  524MOL0     H70690   6.651   3.382   9.291  0.4391  0.2366  0.2339
  524MOL0     H70691   6.625   3.089   9.566 -0.2021 -1.4573 -0.8910
  524MOL0     H70692   6.293   2.903   9.432  1.6321  0.9753 -2.4462
  524MOL0     H70693   6.455   2.850   9.481 -0.2368  0.4997 -3.2268
  524MOL0     H70694   6.428   2.949   9.707  2.5078 -2.3753 -1.5708
  524MOL0     H70695   6.315   2.831   9.667  1.5116  0.2962  2.6789
  524MOL0     H70696   6.267   3.133   9.646  3.0066 -0.6144 -0.4196
  524MOL0     H70697   6.228   3.036   9.794 -2.4129 -0.0239  0.1730
  524MOL0     H70698   6.065   2.893   9.657  1.9985 -0.2106 -1.3250
  524MOL0     H70699   6.071   3.007   9.537 -1.2815 -1.7419 -0.0264
  524MOL0     H70700   5.763   3.072   9.601  0.2227  1.0322  0.7388
  524MOL0     H70701   5.512   3.128   9.671  1.1330  0.4956 -1.7687
  524MOL0     H70702   5.550   2.973   9.579  0.4132 -0.1768  0.3498
  524MOL0     H70703   5.447   2.965   9.722 -0.8874  0.0238 -1.9416
  524MOL0     H70704   5.271   2.891  10.082 -0.1350  0.7231  0.7477
  524MOL0     H70705   5.104   2.798  10.232  0.1503  0.8336  0.5797
  524MOL0     H70706   5.209   2.803  10.537  1.5832 -1.1958 -2.8985
  524MOL0     H70707   5.055   2.814  10.454  3.4269  0.0922 -2.3981
  524MOL0     H70708   4.930   2.696  10.598  0.0035  0.2145 -0.3581
  524MOL0     H70709   5.073   2.625  10.683 -0.6027  1.5299  1.2933
  524MOL0     H70710   4.972   2.899  10.691  2.3876  1.2694  0.2543
  524MOL0     H70711   5.126   2.828  10.775  1.0295 -3.6041 -0.2040
  524MOL0     H70712   4.842   2.728  10.806 -0.8966 -0.9547  1.2299
  524MOL0     H70713   4.979   2.690  10.917 -1.9389  1.2444  1.7785
  524MOL0     H70714   5.001   2.929  10.989 -0.7507  1.5194 -0.8038
  524MOL0     H70715   4.878   2.830  11.053  1.3968  3.7098  3.1547
  524MOL0     H70716   4.827   3.038  10.831  1.6136 -1.0818  0.2051
  524MOL0     H70717   4.713   2.914  10.860  1.2165 -3.1304 -0.0657
  524MOL0     H70718   4.802   3.092  11.079 -0.5189  0.7723 -1.1032
  524MOL0     H70719   4.674   2.977  11.097  2.3644 -0.9685  2.0930
  524MOL0     H70720   4.559   3.199  11.032 -0.3217  0.4020 -0.8773
  524MOL0     H70721   4.584   3.113  10.879 -1.9777  2.3080  0.0174
  524MOL0     H70722   5.390   2.538  10.403  2.8430  1.1260  1.5067
  524MOL0     H70723   5.576   2.640  10.237  0.2544  0.0538  1.8978
  524MOL0     H70724   5.788   2.919  10.062  3.0321  2.9134  0.2429
  524MOL0     H70725   5.992   2.994   9.960  1.1101  1.3378 -1.5670
  524MOL0     H70726   7.318   3.710   9.751  1.4822 -2.7886  0.3432
  524MOL0     H70727   7.575   3.729   9.823 -1.2857 -0.0957  1.0445
  524MOL0     H70728   7.953   3.749   9.793 -0.3304 -0.1459  1.6645
  524MOL0     H70729   8.205   3.731   9.837  3.6528  1.4313 -2.3959
  524MOL0     H70730   8.365   3.755   9.959 -2.1137  0.5438 -2.4974
  524MOL0     H70731   8.456   3.765   9.817 -3.1338  0.0590 -0.1713
  524MOL0     H70732   8.597   3.752  10.036  0.5421 -0.9634 -2.7870
  524MOL0     H70733   8.513   3.902  10.076 -1.3567  1.0689 -1.0757
  524MOL0     H70734   8.626   4.001   9.857  0.3798 -0.7667 -0.4832
  524MOL0     H70735   8.717   3.847   9.852 -1.2858 -1.1361  0.6935
  524MOL0     H70736   8.726   4.025  10.090  0.0783  0.4928 -0.9202
  524MOL0     H70737   8.853   4.028   9.967  0.3837 -1.3016 -1.8384
  524MOL0     H70738   8.927   3.668  10.185  0.2561  0.8194 -0.5043
  524MOL0     H70739   8.248   4.144   9.800 -2.0819  1.5025 -2.8351
  524MOL0     H70740   7.999   4.173   9.753 -1.7827 -0.6607 -0.5505
  525MOL0     O70741   5.635   4.515   3.063  0.0640  0.5350  0.3349
  525MOL0     C70742   5.674   4.618   3.111  0.5136 -1.1947 -0.0814
  525MOL0     O70743   5.596   4.739   3.123 -0.6615 -0.5362  0.7395
  525MOL0     C70744   5.465   4.746   3.112  0.3464  0.0292  0.5937
  525MOL0     C70745   5.416   4.871   3.074 -0.2168 -0.3508 -0.1383
  525MOL0     C70746   5.274   4.886   3.072 -0.4267 -0.7027  0.1995
  525MOL0     C70747   5.188   4.769   3.080 -0.4635  0.0249 -0.5020
  525MOL0     O70748   5.063   4.806   3.072  0.0033  0.8890  0.1159
  525MOL0     C70749   4.958   4.712   3.035 -0.2835  0.0398 -0.4701
  525MOL0     C70750   4.824   4.789   3.039 -0.0627  0.2314  0.4530
  525MOL0     C70751   4.791   4.865   2.916 -0.1340 -0.0430 -0.1387
  525MOL0     C70752   4.646   4.917   2.944 -0.0311  1.1321  0.1636
  525MOL0     C70753   4.582   4.976   2.818 -0.5450  0.5995  0.1998
  525MOL0     C70754   4.467   5.070   2.847  0.5811 -0.3839  0.2925
  525MOL0     C70755   4.444   5.176   2.740 -0.3489 -0.1845 -0.7012
  525MOL0     C70756   4.465   5.127   2.594  0.7860  0.4363 -1.2314
  525MOL0     N70757   4.348   5.047   2.560  1.1370  0.8603  0.4609
  525MOL0     C70758   4.242   5.090   2.487 -0.5645 -0.5673  0.4003
  525MOL0     C70759   4.158   4.982   2.467  1.0175  0.0571  0.1413
  525MOL0     C70760   4.025   4.981   2.390 -0.1377  0.2402  0.5002
  525MOL0     C70761   3.909   5.050   2.464 -0.3454  0.3565  0.1691
  525MOL0     C70762   3.778   5.031   2.393  0.1368 -0.0427 -0.2669
  525MOL0     C70763   3.750   5.124   2.277 -0.4161  0.1960 -0.3651
  525MOL0     O70764   3.701   5.247   2.326 -0.8155 -0.1891  0.3610
  525MOL0     C70765   3.566   5.272   2.352 -0.2544  0.0553 -0.9978
  525MOL0     C70766   3.524   5.391   2.413 -0.5385  0.0205 -0.4303
  525MOL0     C70767   3.390   5.410   2.453 -1.4687 -0.1425  0.4175
  525MOL0     C70768   3.366   5.531   2.540 -0.7147 -0.4636 -0.1869
  525MOL0     C70769   3.286   5.320   2.406 -0.6126  0.7304 -0.0319
  525MOL0     C70770   3.135   5.346   2.430 -0.1953 -0.7088  0.7893
  525MOL0     O70771   3.042   5.253   2.397  0.3379  0.1728  0.4998
  525MOL0     C70772   2.912   5.272   2.444  0.4680  0.3406 -0.1553
  525MOL0     C70773   2.890   5.268   2.584  0.7257  0.0044 -0.6307
  525MOL0     C70774   2.766   5.273   2.644  0.3697 -0.1099  0.1432
  525MOL0     C70775   2.654   5.279   2.557 -0.0570 -0.0037 -0.5554
  525MOL0     O70776   2.530   5.267   2.614  0.3067  0.4411  0.2058
  525MOL0     C70777   2.514   5.227   2.749  0.1720  0.4921 -0.6575
  525MOL0     C70778   2.369   5.249   2.788 -0.6273  0.7330 -0.8115
  525MOL0     C70779   2.352   5.219   2.940  0.0352 -0.7646 -0.9436
  525MOL0     C70780   2.208   5.231   2.982  0.2459 -0.4223 -1.1888
  525MOL0     C70781   2.174   5.206   3.131  0.1362 -0.1848  0.2343
  525MOL0     C70782   2.015   5.187   3.138  0.2043  0.6214 -0.7066
  525MOL0     C70783   1.968   5.146   3.271 -0.1358  0.1262 -0.0030
  525MOL0     C70784   1.822   5.089   3.269  0.9082  0.0967  0.1113
  525MOL0    Cl70785   1.699   5.173   3.165  0.1805 -0.1303  0.0270
  525MOL0     C70786   2.672   5.274   2.413 -0.7754  0.2131 -0.6627
  525MOL0     C70787   2.804   5.274   2.361 -0.6644 -0.0633  0.4313
  525MOL0     O70788   3.108   5.457   2.477  0.1516  0.4461  0.1012
  525MOL0     C70789   3.325   5.194   2.349 -0.0401  0.1515 -0.4088
  525MOL0     C70790   3.468   5.181   2.319 -0.4447  0.4256  0.4301
  525MOL0     N70791   4.213   4.873   2.526  0.3285  0.9172 -0.9074
  525MOL0     N70792   4.335   4.906   2.567  0.0221  0.3422 -0.4451
  525MOL0     C70793   5.238   4.644   3.103  1.0233  0.0606 -0.0324
  525MOL0     C70794   5.377   4.637   3.134 -0.2443 -0.3358 -0.0866
  525MOL0     C70795   5.813   4.618   3.165  0.6185  0.1587 -0.4185
  525MOL0     C70796   5.877   4.738   3.193  0.1541  0.0095 -0.0817
  525MOL0     C70797   6.005   4.742   3.254  0.0302  0.3115  0.2506
  525MOL0     C70798   6.080   4.632   3.283  0.3938 -0.0019 -0.4759
  525MOL0     O70799   6.199   4.642   3.354 -0.2319 -0.2357 -0.2608
  525MOL0     C70800   6.243   4.771   3.410 -0.3755  0.5268  0.8751
  525MOL0     C70801   6.383   4.758   3.471 -0.0512 -0.1101  0.4213
  525MOL0     C70802   6.500   4.711   3.371 -0.2591 -0.2714 -0.2357
  525MOL0     C70803   6.587   4.823   3.321  0.2192  0.0505  0.2438
  525MOL0     C70804   6.708   4.844   3.406  0.5900 -0.2484 -0.2544
  525MOL0     C70805   6.802   4.871   3.479  0.1926 -0.4283  0.0142
  525MOL0     C70806   6.023   4.514   3.245 -0.5713  0.9027  0.4192
  525MOL0     C70807   5.896   4.505   3.182 -0.5296 -0.0317  0.6836
  525MOL0     H70808   5.476   4.961   3.067 -2.0165  0.8819 -0.2158
  525MOL0     H70809   5.241   4.987   3.055  0.0952 -0.8842 -2.3024
  525MOL0     H70810   4.960   4.660   2.939 -1.8085 -1.2395  0.1473
  525MOL0     H70811   4.956   4.644   3.120 -0.4532  0.5864 -0.0260
  525MOL0     H70812   4.741   4.720   3.057 -1.4800  2.1716  1.7303
  525MOL0     H70813   4.834   4.862   3.120 -1.5344  0.4577  0.4550
  525MOL0     H70814   4.863   4.946   2.902 -0.6683 -0.1751 -5.4442
  525MOL0     H70815   4.800   4.803   2.827  0.7809  0.1778 -0.2133
  525MOL0     H70816   4.581   4.841   2.987  2.1448 -1.8617 -1.4782
  525MOL0     H70817   4.657   5.002   3.013 -1.0966  2.6754 -1.4692
  525MOL0     H70818   4.662   5.016   2.754 -2.1177  1.3057 -1.4093
  525MOL0     H70819   4.550   4.896   2.750  2.0842  0.9332 -1.6137
  525MOL0     H70820   4.378   5.008   2.859 -0.2477  0.4110 -1.4492
  525MOL0     H70821   4.487   5.124   2.940 -1.2004  3.3891 -1.3136
  525MOL0     H70822   4.348   5.228   2.750 -1.2393 -1.6553 -1.1834
  525MOL0     H70823   4.523   5.250   2.752 -1.5470  1.7594 -3.6438
  525MOL0     H70824   4.556   5.068   2.587  1.1863  0.8534  0.1708
  525MOL0     H70825   4.477   5.212   2.526  1.7236  1.5993  0.3216
  525MOL0     H70826   4.247   5.184   2.434  2.4128 -0.8168  0.0323
  525MOL0     H70827   4.042   5.028   2.292 -0.1804 -2.3179 -0.8108
  525MOL0     H70828   3.986   4.880   2.374 -4.2650  1.6213  0.6811
  525MOL0     H70829   3.929   5.153   2.495 -2.4389 -0.2248  4.2700
  525MOL0     H70830   3.906   4.997   2.560  0.3945  0.4066  0.2291
  525MOL0     H70831   3.691   5.046   2.457 -0.1466  1.3810 -0.9459
  525MOL0     H70832   3.778   4.928   2.355  0.2410 -1.4747  3.2518
  525MOL0     H70833   3.679   5.084   2.204  3.0680 -0.1128 -3.9108
  525MOL0     H70834   3.844   5.143   2.226 -0.1615 -3.1664 -1.3376
  525MOL0     H70835   3.589   5.471   2.445 -1.3041 -0.2681  2.0376
  525MOL0     H70836   3.308   5.606   2.486 -1.7587 -0.6562  0.6530
  525MOL0     H70837   3.308   5.494   2.625 -0.7363 -1.7047 -0.7211
  525MOL0     H70838   3.460   5.571   2.578 -0.7364 -1.9177  1.5402
  525MOL0     H70839   2.976   5.254   2.649 -0.2229 -4.0138  0.0475
  525MOL0     H70840   2.762   5.273   2.753  3.5676  0.2517  0.3613
  525MOL0     H70841   2.555   5.128   2.771 -0.5842 -0.2830 -2.4835
  525MOL0     H70842   2.565   5.296   2.816 -1.9527  2.7338 -1.1639
  525MOL0     H70843   2.333   5.347   2.754  1.0073  1.0681 -1.6940
  525MOL0     H70844   2.304   5.183   2.730  2.2340 -0.1638 -3.2462
  525MOL0     H70845   2.413   5.292   2.993  0.6738 -0.6223 -1.8482
  525MOL0     H70846   2.383   5.115   2.951 -0.7325 -1.4539 -4.1219
  525MOL0     H70847   2.154   5.320   2.948  0.1626  0.3097  0.7532
  525MOL0     H70848   2.176   5.143   2.926  2.0253 -0.5233 -2.1234
  525MOL0     H70849   2.206   5.291   3.191 -0.5232 -0.0921  0.4735
  525MOL0     H70850   2.220   5.116   3.173 -0.5342  0.0851  1.6302
  525MOL0     H70851   1.960   5.281   3.125 -1.9831 -0.7974 -2.4292
  525MOL0     H70852   1.978   5.112   3.068 -2.4928  1.3060 -0.1503
  525MOL0     H70853   1.970   5.233   3.336  2.0641  1.7646 -2.0556
  525MOL0     H70854   2.040   5.076   3.315  2.2949  2.2388 -0.3413
  525MOL0     H70855   1.787   5.097   3.372 -0.9827  1.1827 -0.5711
  525MOL0     H70856   1.826   4.984   3.239  2.3825  0.3059 -0.5041
  525MOL0     H70857   2.590   5.266   2.342 -1.9424 -1.2940  0.7985
  525MOL0     H70858   2.826   5.259   2.255  0.5102 -2.0236  0.8918
  525MOL0     H70859   3.255   5.110   2.345 -1.5205  0.8408  4.5236
  525MOL0     H70860   3.497   5.086   2.276  2.4886  1.5446 -0.2723
  525MOL0     H70861   5.168   4.562   3.090  2.7215 -1.2638 -1.3021
  525MOL0     H70862   5.430   4.545   3.155  2.5415  0.5914 -2.3075
  525MOL0     H70863   5.821   4.829   3.179 -1.0633 -0.6130  0.6448
  525MOL0     H70864   6.034   4.845   3.271 -1.9453  1.2544 -1.7076
  525MOL0     H70865   6.253   4.842   3.327  1.1386 -0.0732  0.5132
  525MOL0     H70866   6.169   4.800   3.486 -0.3558  0.6268  0.8562
  525MOL0     H70867   6.378   4.681   3.549  2.5763 -1.6912 -0.8130
  525MOL0     H70868   6.406   4.849   3.527  0.4514  0.6577 -0.9711
  525MOL0     H70869   6.457   4.670   3.279 -0.7320  2.0666 -1.1358
  525MOL0     H70870   6.557   4.631   3.419 -0.0909 -1.1844 -1.8680
  525MOL0     H70871   6.526   4.913   3.318 -1.0589 -0.7998 -1.0385
  525MOL0     H70872   6.613   4.806   3.216 -1.9021 -0.2106 -0.2854
  525MOL0     H70873   6.878   4.930   3.526 -0.3022  1.8398 -1.8815
  525MOL0     H70874   6.073   4.422   3.270  0.5604  1.1326 -0.9360
  525MOL0     H70875   5.861   4.409   3.146  3.2482 -0.1126 -3.5370
  526MOL0     O70876  10.585   4.149   4.974 -0.3435 -0.0525  0.0373
  526MOL0     C70877  10.668   4.237   5.006  0.6175  0.3549  0.8022
  526MOL0     O70878  10.638   4.370   5.028 -0.1452  0.3709  0.4701
  526MOL0     C70879  10.511   4.406   5.003  0.8823 -0.3046  0.0430
  526MOL0     C70880  10.474   4.474   4.891  0.1179 -0.0376 -0.3220
  526MOL0     C70881  10.347   4.520   4.865 -1.6111  0.5369 -0.0130
  526MOL0     C70882  10.248   4.498   4.964  0.3938  0.2299 -0.3208
  526MOL0     O70883  10.120   4.550   4.950 -0.9350 -0.2470  0.0156
  526MOL0     C70884  10.102   4.684   4.893 -0.4903  0.6411  0.1184
  526MOL0     C70885   9.963   4.731   4.919 -0.3331  0.3205  0.4207
  526MOL0     C70886   9.860   4.657   4.837  0.6411  0.0367  0.5902
  526MOL0     C70887   9.773   4.581   4.933  0.5478  0.4369 -0.8880
  526MOL0     C70888   9.679   4.478   4.861 -0.7288 -0.4565 -0.1301
  526MOL0     C70889   9.617   4.378   4.958 -1.2916 -0.9647 -0.0695
  526MOL0     C70890   9.511   4.284   4.899  0.8455 -0.8324 -0.0822
  526MOL0     C70891   9.379   4.348   4.833 -0.6465  0.3511 -0.2502
  526MOL0     N70892   9.304   4.431   4.926 -0.3542  0.2074 -0.9237
  526MOL0     C70893   9.182   4.397   4.975 -0.2114  0.0337  0.0211
  526MOL0     C70894   9.147   4.497   5.056 -0.9019  0.7115 -0.9886
  526MOL0     C70895   9.016   4.501   5.138 -0.6951 -0.1611  0.1309
  526MOL0     C70896   8.990   4.643   5.191 -0.2886 -0.7098  0.2880
  526MOL0     C70897   8.959   4.754   5.090 -0.3599 -0.2270 -0.9366
  526MOL0     C70898   8.810   4.762   5.045 -0.6288 -0.4124 -0.3797
  526MOL0     O70899   8.764   4.880   5.121 -0.7490  0.1856  0.4086
  526MOL0     C70900   8.629   4.891   5.128 -1.2495  0.1644  0.4222
  526MOL0     C70901   8.577   4.935   5.245 -0.2778 -0.1677  0.3729
  526MOL0     C70902   8.431   4.942   5.250 -0.5982 -0.0333 -0.0094
  526MOL0     C70903   8.367   4.983   5.382 -0.2373  0.0918 -0.8084
  526MOL0     C70904   8.348   4.923   5.135 -0.6134 -0.2153  0.0954
  526MOL0     C70905   8.200   4.935   5.131  0.6370  0.8102 -0.6288
  526MOL0     O70906   8.143   4.919   5.005  0.5025 -0.0329 -0.5150
  526MOL0     C70907   8.005   4.931   4.984 -0.3866  0.2004  0.0146
  526MOL0     C70908   7.921   4.841   5.053 -0.3187 -0.8599 -0.0801
  526MOL0     C70909   7.783   4.858   5.044 -0.0815  0.3200 -0.2658
  526MOL0     C70910   7.725   4.954   4.957 -0.1600  0.1466 -0.3438
  526MOL0     O70911   7.586   4.973   4.935 -0.6042  0.8958 -0.1605
  526MOL0     C70912   7.499   4.885   5.008  0.7784 -0.3809  0.0349
  526MOL0     C70913   7.355   4.920   4.969  0.7607  0.2702  0.1557
  526MOL0     C70914   7.302   5.036   5.053 -0.1138 -0.2693  0.0204
  526MOL0     C70915   7.376   5.173   5.033  0.0205 -0.2199 -0.4776
  526MOL0     C70916   7.309   5.300   5.093 -0.6895  0.1433 -1.1324
  526MOL0     C70917   7.258   5.285   5.235  1.1704 -0.0555  0.3223
  526MOL0     C70918   7.113   5.344   5.244  0.0156  0.6521  0.0195
  526MOL0     C70919   7.017   5.244   5.181 -0.9394 -0.2716  0.8168
  526MOL0    Cl70920   6.858   5.319   5.200 -0.1976  0.3685 -0.1391
  526MOL0     C70921   7.816   5.036   4.885 -0.9775  0.4828  0.2388
  526MOL0     C70922   7.956   5.026   4.900  0.5527  0.1824 -0.4777
  526MOL0     O70923   8.133   4.941   5.235  1.1034 -0.5768 -0.2189
  526MOL0     C70924   8.412   4.880   5.021  0.0201  0.4100 -0.2461
  526MOL0     C70925   8.549   4.870   5.012 -0.8526 -0.6663  0.5430
  526MOL0     N70926   9.252   4.582   5.067  0.1200  0.1009  0.6191
  526MOL0     N70927   9.348   4.547   4.989 -0.1758  0.3089  0.1146
  526MOL0     C70928  10.279   4.414   5.074 -0.3190  0.5072  0.0855
  526MOL0     C70929  10.411   4.368   5.092  0.5170 -0.5658 -0.4964
  526MOL0     C70930  10.806   4.196   4.995 -0.2511  0.5957 -0.0544
  526MOL0     C70931  10.917   4.286   5.014  0.6678  0.0230  0.6272
  526MOL0     C70932  11.050   4.253   4.984 -0.0699 -0.2485  0.0590
  526MOL0     C70933  11.087   4.128   4.947 -0.2150  0.9016 -0.1779
  526MOL0     O70934  11.219   4.109   4.923  0.1714  0.6096 -0.5493
  526MOL0     C70935  11.271   3.968   4.922  0.1030 -0.2475 -0.1588
  526MOL0     C70936  11.418   3.966   4.957 -0.0573  0.9886  0.0690
  526MOL0     C70937  11.499   4.054   4.865 -0.1653  0.1334  0.1870
  526MOL0     C70938  11.638   4.095   4.910 -0.4876  0.4646  0.1183
  526MOL0     C70939  11.628   4.218   4.997 -0.3979 -0.1313 -0.0628
  526MOL0     C70940  11.625   4.316   5.076  0.3203 -0.0190  0.6178
  526MOL0     C70941  10.985   4.032   4.930  0.6225 -0.5990  0.4129
  526MOL0     C70942  10.851   4.067   4.949 -0.9625 -0.3042  0.5270
  526MOL0     H70943  10.556   4.498   4.825 -0.6453  0.2952 -1.1617
  526MOL0     H70944  10.322   4.577   4.777 -2.9524  1.4034  0.8898
  526MOL0     H70945  10.174   4.745   4.949 -0.5416 -0.3381  1.2778
  526MOL0     H70946  10.127   4.687   4.786 -0.7892 -1.2773 -0.0315
  526MOL0     H70947   9.945   4.725   5.027 -1.2771 -1.7563  0.1979
  526MOL0     H70948   9.961   4.832   4.878  2.1784  0.4591  0.5263
  526MOL0     H70949   9.793   4.730   4.791  0.2342  0.4923  1.8917
  526MOL0     H70950   9.898   4.595   4.755 -1.0537  0.3450 -0.4829
  526MOL0     H70951   9.839   4.510   4.985 -1.4967 -0.0208  1.2262
  526MOL0     H70952   9.712   4.638   5.003  0.6673  1.6763 -1.7566
  526MOL0     H70953   9.601   4.537   4.812 -0.7809 -1.4944 -1.3776
  526MOL0     H70954   9.737   4.424   4.785  1.9967  3.8161 -1.4503
  526MOL0     H70955   9.695   4.306   4.982 -0.6484 -0.1725  0.2730
  526MOL0     H70956   9.588   4.430   5.050 -0.5667  2.1607 -1.4501
  526MOL0     H70957   9.558   4.242   4.810  2.1862 -0.8865  0.6240
  526MOL0     H70958   9.482   4.212   4.976  0.1869 -0.5281 -0.0441
  526MOL0     H70959   9.313   4.268   4.798 -0.5849  0.1539  0.0734
  526MOL0     H70960   9.402   4.405   4.743 -0.9630  0.6927 -0.1145
  526MOL0     H70961   9.121   4.311   4.949  1.9948 -0.7658 -3.0345
  526MOL0     H70962   8.929   4.474   5.078 -0.3695 -1.2149  0.1050
  526MOL0     H70963   9.023   4.426   5.218  0.8538  1.2025  1.3430
  526MOL0     H70964   9.080   4.667   5.249  2.4608 -2.1991 -3.0067
  526MOL0     H70965   8.910   4.624   5.263 -0.0571  0.2498  0.8057
  526MOL0     H70966   9.023   4.738   5.003 -1.3643 -2.5534 -1.3034
  526MOL0     H70967   8.994   4.847   5.137  0.7305 -0.5056 -1.1700
  526MOL0     H70968   8.749   4.672   5.059 -0.7051 -0.7693 -2.5614
  526MOL0     H70969   8.809   4.776   4.936 -0.3157  0.8219 -0.2352
  526MOL0     H70970   8.635   4.957   5.334 -0.3633  1.5364  0.0404
  526MOL0     H70971   8.291   4.910   5.411 -0.0384  0.5193  0.8486
  526MOL0     H70972   8.439   4.977   5.464 -2.3768  0.1961  1.1795
  526MOL0     H70973   8.340   5.088   5.371  0.4645  0.6154  1.9046
  526MOL0     H70974   7.969   4.772   5.121  1.1196 -0.0527 -0.2334
  526MOL0     H70975   7.721   4.798   5.110 -1.1102  0.3476 -1.1659
  526MOL0     H70976   7.518   4.780   4.983 -0.8644 -0.5602 -0.6099
  526MOL0     H70977   7.515   4.898   5.115  3.2629  2.8860 -0.5663
  526MOL0     H70978   7.335   4.938   4.863 -0.5967  1.0986  0.5225
  526MOL0     H70979   7.302   4.828   4.995  1.8323  0.1153  2.0134
  526MOL0     H70980   7.317   5.018   5.160  1.1469  3.7116  0.6653
  526MOL0     H70981   7.195   5.046   5.038 -0.8470 -0.7049  3.9231
  526MOL0     H70982   7.481   5.168   5.065  0.9439  0.9235 -3.0334
  526MOL0     H70983   7.373   5.195   4.926 -2.3695  0.1618 -0.3725
  526MOL0     H70984   7.229   5.323   5.022 -0.4813  0.8664 -1.1329
  526MOL0     H70985   7.376   5.386   5.090  0.0759 -0.4288 -0.7046
  526MOL0     H70986   7.250   5.178   5.257  2.5257 -0.6036 -1.5642
  526MOL0     H70987   7.316   5.333   5.315  1.4621  0.8376 -0.4130
  526MOL0     H70988   7.110   5.446   5.204  0.9463  1.3103  1.5039
  526MOL0     H70989   7.088   5.350   5.351  0.0469  1.3811 -0.0068
  526MOL0     H70990   7.020   5.149   5.234 -3.2764 -0.0529  1.4489
  526MOL0     H70991   7.043   5.225   5.077 -0.3377 -2.9778  1.4082
  526MOL0     H70992   7.777   5.100   4.806  3.0674  0.6374 -1.9055
  526MOL0     H70993   8.024   5.075   4.831  3.1130 -3.3312 -0.7017
  526MOL0     H70994   8.362   4.873   4.925 -0.8457 -2.4143  0.3309
  526MOL0     H70995   8.577   4.848   4.909  1.0990 -3.2915  1.5443
  526MOL0     H70996  10.206   4.398   5.153  1.0581 -0.9199  1.1255
  526MOL0     H70997  10.438   4.300   5.172  4.8867 -0.9130 -1.9756
  526MOL0     H70998  10.904   4.391   5.040 -1.0725 -0.0875  0.3834
  526MOL0     H70999  11.128   4.328   4.981  0.3818 -0.6658 -3.3016
  526MOL0     H71000  11.223   3.912   5.002  0.8999  2.1298  2.1067
  526MOL0     H71001  11.252   3.935   4.819 -1.5919  2.4596 -0.8194
  526MOL0     H71002  11.444   3.860   4.946  0.8981  1.1814  0.4145
  526MOL0     H71003  11.427   4.001   5.060 -0.8077  1.5219 -0.0361
  526MOL0     H71004  11.444   4.147   4.847 -0.1634  0.1904  0.4729
  526MOL0     H71005  11.520   4.012   4.766 -0.0373  1.4387 -0.3691
  526MOL0     H71006  11.699   4.119   4.822 -0.5748 -0.4858 -0.2077
  526MOL0     H71007  11.693   4.013   4.957  1.2099 -0.6889 -3.5471
  526MOL0     H71008  11.620   4.403   5.139  4.5313  0.9887 -0.0709
  526MOL0     H71009  10.987   3.935   4.881  1.0009 -0.7599  0.7379
  526MOL0     H71010  10.769   4.002   4.921 -1.3859  1.2153 -2.1126
  527MOL0     O71011   5.800   9.509   8.212  0.0025  0.1057 -0.4539
  527MOL0     C71012   5.779   9.461   8.320  0.1728  0.1316 -0.3037
  527MOL0     O71013   5.873   9.417   8.403 -0.2156  0.1110  0.1828
  527MOL0     C71014   6.007   9.424   8.360  0.4390  0.1339 -0.4124
  527MOL0     C71015   6.093   9.522   8.408  1.2823 -0.2812 -0.6907
  527MOL0     C71016   6.224   9.520   8.361  1.3648 -0.4673 -0.0888
  527MOL0     C71017   6.276   9.421   8.282 -0.4580 -0.7920  0.1099
  527MOL0     O71018   6.411   9.427   8.254  0.3283 -0.1599 -0.3229
  527MOL0     C71019   6.474   9.312   8.192 -0.7191 -0.9234  0.1767
  527MOL0     C71020   6.618   9.347   8.168 -0.7178 -0.0950  0.0300
  527MOL0     C71021   6.697   9.223   8.137  0.4715 -0.3928 -0.3244
  527MOL0     C71022   6.813   9.259   8.049  0.2171 -0.6991  1.1376
  527MOL0     C71023   6.921   9.146   8.049 -0.2956  0.0707 -0.2639
  527MOL0     C71024   6.896   9.019   7.972 -0.0599 -0.3777 -0.0522
  527MOL0     C71025   7.025   8.932   7.958  0.3899 -0.3518 -0.0450
  527MOL0     C71026   7.088   8.880   8.097 -0.2073  0.0136  0.1413
  527MOL0     N71027   7.017   8.763   8.146  0.4370 -0.6305  0.0072
  527MOL0     C71028   6.892   8.759   8.216 -0.0956 -0.5951  0.1566
  527MOL0     C71029   6.868   8.618   8.231 -0.3591  0.5622 -0.2568
  527MOL0     C71030   6.734   8.557   8.278  0.6839  0.2316  0.3757
  527MOL0     C71031   6.656   8.642   8.375 -0.0091 -0.1614 -0.3136
  527MOL0     C71032   6.504   8.617   8.374  0.3351 -0.2298  0.0897
  527MOL0     C71033   6.468   8.470   8.401 -0.1243 -0.2421 -0.5646
  527MOL0     O71034   6.332   8.433   8.364 -0.1969  0.2322 -0.1503
  527MOL0     C71035   6.224   8.460   8.454  0.3916 -0.4982  0.5909
  527MOL0     C71036   6.233   8.497   8.587 -0.2738  0.3398  0.5601
  527MOL0     C71037   6.118   8.519   8.668 -0.4127 -0.0287 -0.0789
  527MOL0     C71038   6.139   8.569   8.802 -0.0594 -0.5564 -1.0505
  527MOL0     C71039   5.992   8.519   8.606 -0.5498  0.0700 -0.4594
  527MOL0     C71040   5.860   8.554   8.664 -0.2154  1.6316  0.3087
  527MOL0     O71041   5.761   8.599   8.578  0.0011 -0.2907 -0.5793
  527MOL0     C71042   5.635   8.620   8.633  0.9522 -0.1551 -0.2426
  527MOL0     C71043   5.567   8.524   8.711  0.0503 -0.8629 -0.3226
  527MOL0     C71044   5.435   8.551   8.740 -0.1113  0.6417  0.0952
  527MOL0     C71045   5.372   8.672   8.707  0.3605 -0.5792  0.2075
  527MOL0     O71046   5.250   8.677   8.757 -0.4350 -0.0673 -0.4728
  527MOL0     C71047   5.149   8.714   8.658 -0.5049 -0.0606 -0.1682
  527MOL0     C71048   5.009   8.717   8.720 -0.0069  0.6298  0.8702
  527MOL0     C71049   4.947   8.578   8.730 -0.5587 -0.3450  1.4025
  527MOL0     C71050   4.808   8.578   8.791 -0.0881 -0.3431 -0.1299
  527MOL0     C71051   4.753   8.435   8.789 -0.8740  0.8628  0.6425
  527MOL0     C71052   4.614   8.412   8.850  0.0623 -0.3612  0.3544
  527MOL0     C71053   4.565   8.279   8.806  0.2765  0.5938  0.0414
  527MOL0     C71054   4.470   8.206   8.900 -0.3538  0.3647  0.3666
  527MOL0    Cl71055   4.516   8.210   9.074  0.2110  0.0240  0.0800
  527MOL0     C71056   5.440   8.772   8.631 -1.3137 -0.1685  0.7553
  527MOL0     C71057   5.577   8.744   8.601  0.1456  0.2103  0.5974
  527MOL0     O71058   5.847   8.539   8.782 -0.2174  0.3075  0.0817
  527MOL0     C71059   5.987   8.484   8.469  0.0637  0.0313  0.5344
  527MOL0     C71060   6.100   8.451   8.396  0.7006 -0.2289 -0.8789
  527MOL0     N71061   6.978   8.550   8.180 -1.1291  0.9692 -0.3892
  527MOL0     N71062   7.063   8.633   8.132 -0.5208  0.5879  1.2485
  527MOL0     C71063   6.192   9.321   8.238  0.5462  0.0799 -1.0341
  527MOL0     C71064   6.058   9.328   8.268 -0.3498 -0.4385  0.3012
  527MOL0     C71065   5.641   9.462   8.365 -0.4782 -0.1410  0.3956
  527MOL0     C71066   5.604   9.397   8.479 -0.4408  0.2323  0.4732
  527MOL0     C71067   5.479   9.416   8.537  0.0459  0.0540  0.6044
  527MOL0     C71068   5.388   9.495   8.471 -0.1650 -0.0837 -0.3251
  527MOL0     O71069   5.265   9.514   8.529 -0.5178 -0.3517 -0.2622
  527MOL0     C71070   5.196   9.397   8.580  0.7016 -0.7674 -0.5889
  527MOL0     C71071   5.051   9.416   8.529 -0.1169  0.9508  0.8835
  527MOL0     C71072   4.978   9.530   8.583  0.2899 -0.5642  0.2527
  527MOL0     C71073   4.841   9.546   8.510  1.1681  0.3601  0.2501
  527MOL0     C71074   4.778   9.666   8.559  0.1953 -0.0369  0.4595
  527MOL0     C71075   4.722   9.773   8.571 -1.1787  0.1717  0.3138
  527MOL0     C71076   5.415   9.545   8.339  0.5978 -0.4715 -0.1528
  527MOL0     C71077   5.545   9.529   8.288  0.3161  0.0177 -0.1913
  527MOL0     H71078   6.058   9.599   8.476  1.0883 -0.2839 -0.7846
  527MOL0     H71079   6.295   9.594   8.395 -0.0535  0.7604  0.3254
  527MOL0     H71080   6.469   9.232   8.267  3.2351 -1.3120  0.2704
  527MOL0     H71081   6.442   9.289   8.090  2.0888  1.4263 -1.4078
  527MOL0     H71082   6.606   9.404   8.076  0.1815 -1.5201 -1.0156
  527MOL0     H71083   6.667   9.394   8.254 -1.1725 -1.5740  1.1548
  527MOL0     H71084   6.729   9.191   8.236  0.3514 -1.9401 -0.7510
  527MOL0     H71085   6.636   9.144   8.092  1.4026  0.4345 -3.3005
  527MOL0     H71086   6.783   9.277   7.945  2.3648  2.3621  0.9086
  527MOL0     H71087   6.864   9.349   8.085 -1.4094  0.3189  1.0029
  527MOL0     H71088   7.007   9.188   7.995 -0.3817 -1.6465 -1.8419
  527MOL0     H71089   6.948   9.121   8.152 -0.9546  4.7006  1.2744
  527MOL0     H71090   6.811   8.960   8.008 -0.6606  0.8733  0.6452
  527MOL0     H71091   6.873   9.050   7.869  0.0675  3.4138  0.9181
  527MOL0     H71092   7.012   8.846   7.891 -1.1837  0.1201 -0.4023
  527MOL0     H71093   7.103   8.995   7.916  1.8687 -2.0088  0.1100
  527MOL0     H71094   7.096   8.965   8.165  1.3477  0.1588 -0.1954
  527MOL0     H71095   7.193   8.853   8.085 -0.1522 -0.4232  1.5006
  527MOL0     H71096   6.824   8.843   8.225  0.5852 -0.1521  1.5243
  527MOL0     H71097   6.682   8.543   8.183  1.0486  0.7669  0.0904
  527MOL0     H71098   6.744   8.460   8.327 -1.2943 -0.2160 -0.0219
  527MOL0     H71099   6.668   8.746   8.343 -2.4265 -0.3678 -2.2196
  527MOL0     H71100   6.689   8.627   8.478 -1.3444  1.2902  0.3557
  527MOL0     H71101   6.461   8.646   8.278 -1.1102  1.6715  1.2417
  527MOL0     H71102   6.455   8.687   8.442  2.6066  0.2731  1.3363
  527MOL0     H71103   6.479   8.446   8.507 -1.3964 -0.1925 -0.4095
  527MOL0     H71104   6.524   8.402   8.335 -2.0030 -0.6640 -1.7891
  527MOL0     H71105   6.330   8.514   8.633  1.1640 -1.8256 -1.3630
  527MOL0     H71106   6.075   8.526   8.880  1.3299 -1.4042 -0.3228
  527MOL0     H71107   6.239   8.552   8.842 -0.9355 -0.0694  1.5242
  527MOL0     H71108   6.128   8.677   8.790  0.8317 -0.2413  0.6861
  527MOL0     H71109   5.615   8.438   8.757  2.5745  1.7765  2.3576
  527MOL0     H71110   5.385   8.477   8.802  0.9206  0.2219  0.4455
  527MOL0     H71111   5.173   8.812   8.616  3.9092 -1.1616 -0.7176
  527MOL0     H71112   5.145   8.646   8.573  0.6517  1.5910 -1.6347
  527MOL0     H71113   5.029   8.755   8.821 -0.2794  0.2896  1.0536
  527MOL0     H71114   4.943   8.785   8.665  1.7597  0.6310 -1.4218
  527MOL0     H71115   5.010   8.512   8.791 -1.6501 -4.8461 -1.8286
  527MOL0     H71116   4.937   8.535   8.630  0.5831  1.0656  0.6448
  527MOL0     H71117   4.818   8.627   8.888  3.1372  0.9169 -0.9446
  527MOL0     H71118   4.741   8.638   8.729 -2.0836  0.0588  2.2513
  527MOL0     H71119   4.827   8.367   8.832  2.0710  1.6063 -2.6890
  527MOL0     H71120   4.747   8.403   8.684 -2.3180  0.8814  0.7039
  527MOL0     H71121   4.635   8.419   8.958 -1.1973  0.0631  0.5926
  527MOL0     H71122   4.547   8.497   8.834 -1.1852 -0.4523  4.0927
  527MOL0     H71123   4.643   8.203   8.797 -0.5440 -0.1039 -1.4172
  527MOL0     H71124   4.526   8.287   8.705  0.7390 -0.3373 -0.2211
  527MOL0     H71125   4.456   8.102   8.868 -1.2516  0.6985 -0.3677
  527MOL0     H71126   4.368   8.244   8.903 -0.4693  0.0384  2.7867
  527MOL0     H71127   5.405   8.870   8.600  1.2721  0.6568  0.1916
  527MOL0     H71128   5.639   8.824   8.560  1.6842 -0.0211  2.3745
  527MOL0     H71129   5.895   8.478   8.412  0.8703 -0.5807 -0.7595
  527MOL0     H71130   6.080   8.415   8.296  0.1693 -2.4632 -0.0436
  527MOL0     H71131   6.230   9.239   8.178 -0.1187  0.8063 -2.5081
  527MOL0     H71132   5.995   9.254   8.220  2.2462 -0.9507 -2.6359
  527MOL0     H71133   5.666   9.331   8.539 -1.6472 -2.7300 -1.2944
  527MOL0     H71134   5.448   9.373   8.631  1.1888  2.7756  2.3685
  527MOL0     H71135   5.245   9.303   8.551  1.5627 -0.2065 -1.0057
  527MOL0     H71136   5.205   9.405   8.688  2.5590  3.8357 -0.8672
  527MOL0     H71137   4.985   9.331   8.549  1.2840 -0.7623 -1.2597
  527MOL0     H71138   5.063   9.418   8.420 -0.5981  2.3111  0.8442
  527MOL0     H71139   5.037   9.618   8.555 -0.1959 -1.0759 -2.7987
  527MOL0     H71140   4.975   9.517   8.691 -1.1630 -2.1808  0.0730
  527MOL0     H71141   4.776   9.459   8.518  2.3160 -0.5454 -0.0727
  527MOL0     H71142   4.865   9.550   8.403 -1.6945  0.9747 -0.4556
  527MOL0     H71143   4.678   9.871   8.575  1.1580  1.3276 -0.4072
  527MOL0     H71144   5.341   9.595   8.277 -0.4182 -2.8576 -0.9939
  527MOL0     H71145   5.568   9.567   8.189  1.3505 -1.1029 -0.4069
  528MOL0     O71146   9.375   8.735   5.591  0.5838 -0.1745  0.1737
  528MOL0     C71147   9.349   8.784   5.478  0.2172  1.1902 -0.6568
  528MOL0     O71148   9.248   8.759   5.397 -0.4588  0.7505 -0.5663
  528MOL0     C71149   9.155   8.655   5.407  0.1214  0.7793  0.3902
  528MOL0     C71150   9.137   8.562   5.511  0.2213 -0.6320 -0.4527
  528MOL0     C71151   9.026   8.479   5.509  0.1828 -0.2111  0.5423
  528MOL0     C71152   8.954   8.466   5.395 -0.5654 -0.0730 -0.2967
  528MOL0     O71153   8.850   8.377   5.380 -0.5749 -0.1550 -0.9305
  528MOL0     C71154   8.824   8.280   5.490 -0.2387 -0.5083 -0.4295
  528MOL0     C71155   8.714   8.193   5.429  0.2383 -0.6969 -0.4892
  528MOL0     C71156   8.590   8.271   5.406 -0.1909  0.6769  0.1679
  528MOL0     C71157   8.489   8.177   5.329 -0.1307  0.4422 -0.0333
  528MOL0     C71158   8.358   8.258   5.329 -0.6385 -1.2109  0.7716
  528MOL0     C71159   8.235   8.183   5.283 -0.3221 -0.0942  0.6110
  528MOL0     C71160   8.113   8.267   5.229  0.1803  0.3591 -0.5155
  528MOL0     C71161   8.065   8.368   5.332  0.2897 -0.0801 -0.0297
  528MOL0     N71162   7.952   8.458   5.287 -1.1105  0.1624 -0.6038
  528MOL0     C71163   7.825   8.421   5.254  0.2636  0.5481  0.2016
  528MOL0     C71164   7.761   8.529   5.207  1.3436  0.0920  0.6529
  528MOL0     C71165   7.623   8.536   5.154  0.4071 -0.4948  0.8172
  528MOL0     C71166   7.521   8.438   5.224 -0.7393 -1.1937 -0.2787
  528MOL0     C71167   7.399   8.447   5.138 -1.1158  0.3954  0.3693
  528MOL0     C71168   7.289   8.356   5.177  0.2865  0.0076  0.4704
  528MOL0     O71169   7.270   8.348   5.317 -0.2942  0.0090  0.1262
  528MOL0     C71170   7.141   8.336   5.365  0.9267 -0.3595 -0.5263
  528MOL0     C71171   7.126   8.383   5.495  0.0954 -0.7921  0.1580
  528MOL0     C71172   7.012   8.342   5.567  0.6680 -0.6357  0.5273
  528MOL0     C71173   7.020   8.387   5.712 -0.2331  0.5774 -0.2401
  528MOL0     C71174   6.896   8.290   5.504 -0.1984 -0.1615 -0.1843
  528MOL0     C71175   6.767   8.267   5.568  0.7521 -0.4894 -0.2837
  528MOL0     O71176   6.652   8.292   5.488  0.4581  0.0371  0.1559
  528MOL0     C71177   6.524   8.308   5.538  0.6385 -0.6289 -0.0789
  528MOL0     C71178   6.469   8.266   5.661  0.0712 -0.5175 -0.1495
  528MOL0     C71179   6.340   8.319   5.693  0.1403  0.3329 -0.0885
  528MOL0     C71180   6.257   8.391   5.607  0.3206 -0.7348 -0.6940
  528MOL0     O71181   6.145   8.447   5.659  0.7220  1.0680 -0.3773
  528MOL0     C71182   6.060   8.513   5.565 -0.5030 -0.3224 -0.3766
  528MOL0     C71183   5.926   8.551   5.628 -0.3781  0.2686 -0.9193
  528MOL0     C71184   5.839   8.427   5.659  0.0055  0.6462 -0.8696
  528MOL0     C71185   5.833   8.407   5.810 -0.7586  0.8689 -0.7010
  528MOL0     C71186   5.710   8.322   5.837  0.4964  0.3779 -0.1710
  528MOL0     C71187   5.577   8.392   5.817 -0.3303  0.1487  0.2367
  528MOL0     C71188   5.454   8.287   5.835 -0.2642 -1.0100 -0.5358
  528MOL0     C71189   5.316   8.353   5.847 -0.0128  0.6741 -1.3424
  528MOL0    Cl71190   5.328   8.451   6.002  0.0213 -0.1661 -0.3245
  528MOL0     C71191   6.313   8.419   5.485  0.3556  0.1511  0.3434
  528MOL0     C71192   6.442   8.379   5.448  0.2463 -0.9130 -0.0715
  528MOL0     O71193   6.760   8.217   5.680 -0.5355 -0.3760 -0.8314
  528MOL0     C71194   6.904   8.263   5.366  0.1454 -0.9553  0.1012
  528MOL0     C71195   7.029   8.285   5.300  0.7723 -0.5284  0.2202
  528MOL0     N71196   7.844   8.637   5.218 -0.4937 -0.0315  0.6818
  528MOL0     N71197   7.967   8.596   5.259 -0.1580 -0.0863 -0.8026
  528MOL0     C71198   8.978   8.545   5.286 -0.8451  0.7575  0.1866
  528MOL0     C71199   9.074   8.647   5.295  0.5060  0.1237 -0.2445
  528MOL0     C71200   9.444   8.885   5.430  0.8387 -0.1432  0.5683
  528MOL0     C71201   9.427   8.950   5.304  0.9449  0.9974 -0.3044
  528MOL0     C71202   9.535   9.027   5.251 -0.4180  0.2198  0.0433
  528MOL0     C71203   9.651   9.061   5.326 -0.4640  0.1772  0.5236
  528MOL0     O71204   9.758   9.135   5.280 -0.4628  0.6577  0.3599
  528MOL0     C71205   9.761   9.186   5.145 -0.2446 -0.1037 -0.4690
  528MOL0     C71206   9.899   9.214   5.091 -0.2272 -0.3009  0.4819
  528MOL0     C71207   9.968   9.331   5.162 -0.2963  1.3881  0.6130
  528MOL0     C71208  10.051   9.291   5.283  0.1079  0.7469 -0.2568
  528MOL0     C71209  10.184   9.225   5.254 -0.7126  0.7171 -0.5924
  528MOL0     C71210  10.276   9.154   5.219  0.4017  0.1654  0.2807
  528MOL0     C71211   9.656   9.006   5.450  0.5206  0.6312 -0.4637
  528MOL0     C71212   9.555   8.922   5.509 -0.0134 -0.4797  0.3609
  528MOL0     H71213   9.189   8.585   5.604 -3.3046  0.9668  1.3541
  528MOL0     H71214   9.010   8.406   5.588 -1.9880 -1.6213 -1.1026
  528MOL0     H71215   8.915   8.221   5.502  1.0637  1.5447  0.3924
  528MOL0     H71216   8.808   8.323   5.589  1.6877  0.2135 -0.3976
  528MOL0     H71217   8.738   8.140   5.337 -0.2594 -1.2229 -0.3263
  528MOL0     H71218   8.696   8.116   5.505 -1.8376 -0.2123 -0.4277
  528MOL0     H71219   8.547   8.311   5.498 -2.3522  4.8529 -2.3237
  528MOL0     H71220   8.610   8.363   5.350 -0.6348  0.8474  0.2895
  528MOL0     H71221   8.517   8.144   5.229 -0.4101  1.9398 -0.6398
  528MOL0     H71222   8.471   8.090   5.393 -4.6495  2.2216  1.4953
  528MOL0     H71223   8.329   8.292   5.429 -0.6196 -1.9557  1.0303
  528MOL0     H71224   8.365   8.347   5.265 -0.5800 -1.7334  0.0470
  528MOL0     H71225   8.271   8.134   5.192 -0.8451 -0.4618  0.5961
  528MOL0     H71226   8.201   8.110   5.358  1.6906  1.1940  2.9052
  528MOL0     H71227   8.133   8.314   5.132 -2.7643  2.5170 -0.2102
  528MOL0     H71228   8.027   8.200   5.218  1.1009 -0.4838 -3.6814
  528MOL0     H71229   8.149   8.424   5.373 -1.8126  1.3463  2.6659
  528MOL0     H71230   8.033   8.318   5.423 -0.7778  1.8014  0.6971
  528MOL0     H71231   7.782   8.321   5.248 -0.5034  0.9050 -0.5960
  528MOL0     H71232   7.575   8.634   5.163  2.2485  0.5213  0.0103
  528MOL0     H71233   7.625   8.520   5.045  0.7534  0.0715  0.7348
  528MOL0     H71234   7.503   8.474   5.326 -2.0086 -4.0610  0.6099
  528MOL0     H71235   7.561   8.336   5.229 -1.1332 -1.3564 -0.4721
  528MOL0     H71236   7.432   8.411   5.040 -0.7895 -3.9637  1.8725
  528MOL0     H71237   7.354   8.547   5.135  0.7398  1.2680  0.1023
  528MOL0     H71238   7.307   8.251   5.152 -2.7996 -0.2103 -1.4552
  528MOL0     H71239   7.197   8.397   5.134 -1.0927 -2.1276  1.2097
  528MOL0     H71240   7.216   8.418   5.545  0.7118 -2.3611  0.2060
  528MOL0     H71241   7.120   8.386   5.759 -0.6331 -1.2885  0.6804
  528MOL0     H71242   6.972   8.485   5.715 -1.5935 -0.0817  1.4589
  528MOL0     H71243   6.958   8.322   5.774  1.4490  0.7362  1.7467
  528MOL0     H71244   6.520   8.209   5.738 -2.3512 -2.1385  0.3742
  528MOL0     H71245   6.300   8.292   5.790 -0.6013  0.2586 -0.4096
  528MOL0     H71246   6.104   8.608   5.535 -1.7337  0.0365 -1.1448
  528MOL0     H71247   6.042   8.447   5.479  1.3572 -0.5469 -0.6319
  528MOL0     H71248   5.933   8.617   5.715 -0.5358  0.0932 -0.7744
  528MOL0     H71249   5.877   8.601   5.544 -0.8986 -3.4645 -3.0477
  528MOL0     H71250   5.881   8.338   5.609 -1.0857  0.2171 -1.0455
  528MOL0     H71251   5.737   8.437   5.622 -2.0913  0.6811  4.2334
  528MOL0     H71252   5.927   8.358   5.839 -0.9159  0.9656 -0.0175
  528MOL0     H71253   5.828   8.500   5.867 -0.4504  1.2162 -1.2325
  528MOL0     H71254   5.722   8.269   5.932  1.8219  0.9238 -0.0083
  528MOL0     H71255   5.708   8.234   5.772 -0.6071 -2.9737  3.9609
  528MOL0     H71256   5.577   8.468   5.896 -1.2443  2.0416 -1.4891
  528MOL0     H71257   5.559   8.451   5.726  0.1638  1.4767  0.9698
  528MOL0     H71258   5.475   8.225   5.922 -1.2720 -0.7300 -0.0781
  528MOL0     H71259   5.447   8.218   5.751 -0.2825 -0.3389 -1.1035
  528MOL0     H71260   5.239   8.277   5.865 -0.5057  1.7322  1.4743
  528MOL0     H71261   5.295   8.421   5.764  1.7633  0.7319 -1.7859
  528MOL0     H71262   6.256   8.468   5.406 -0.1081 -0.8986  0.0194
  528MOL0     H71263   6.474   8.390   5.345 -2.8304  3.8416 -0.8608
  528MOL0     H71264   6.815   8.224   5.319 -1.2478 -0.0398  1.8147
  528MOL0     H71265   7.039   8.265   5.193 -0.8331 -1.4906  0.2115
  528MOL0     H71266   8.914   8.532   5.200  0.2042 -1.2262 -0.3426
  528MOL0     H71267   9.088   8.710   5.207  1.5204 -0.1242 -0.2771
  528MOL0     H71268   9.345   8.937   5.235  0.5277  4.0812 -0.5319
  528MOL0     H71269   9.530   9.073   5.153  0.7120 -1.8624 -1.0759
  528MOL0     H71270   9.734   9.109   5.072 -0.6861 -1.6260  1.2520
  528MOL0     H71271   9.697   9.271   5.119 -2.7712 -2.1220 -1.3227
  528MOL0     H71272   9.899   9.239   4.985 -0.8610  0.4431  0.6489
  528MOL0     H71273   9.955   9.125   5.122 -0.7513 -0.6488  0.4354
  528MOL0     H71274   9.891   9.402   5.193 -2.0630  0.2831 -1.0522
  528MOL0     H71275  10.042   9.364   5.088 -0.9480 -1.7180 -1.5842
  528MOL0     H71276   9.988   9.222   5.339  0.3534  0.8763  0.1820
  528MOL0     H71277  10.073   9.378   5.345 -0.7192  0.0308  1.0819
  528MOL0     H71278  10.361   9.088   5.221  0.4818  0.2279  3.0572
  528MOL0     H71279   9.744   9.019   5.513 -0.2190 -0.5811  0.8659
  528MOL0     H71280   9.554   8.888   5.612 -2.8622 -2.3908 -0.1875
  529MOL0     O71281  11.055   6.894   3.986 -0.2263  0.6845 -0.3217
  529MOL0     C71282  11.098   6.774   3.986 -1.3713 -0.3395 -0.9914
  529MOL0     O71283  11.052   6.665   4.052 -0.2838  0.0151 -0.1603
  529MOL0     C71284  10.924   6.680   4.108 -0.5514 -0.1960  0.0999
  529MOL0     C71285  10.919   6.721   4.240  0.0145 -0.1619  0.3476
  529MOL0     C71286  10.805   6.737   4.311  0.9299  0.6770 -0.0850
  529MOL0     C71287  10.679   6.697   4.255 -0.1584 -0.4162 -0.2631
  529MOL0     O71288  10.569   6.691   4.322 -0.3680  0.1521 -0.3857
  529MOL0     C71289  10.554   6.705   4.469 -0.0707 -0.6913  0.0833
  529MOL0     C71290  10.462   6.594   4.524 -0.0065 -0.3384  0.2797
  529MOL0     C71291  10.330   6.595   4.446 -0.0578  0.3096  0.1125
  529MOL0     C71292  10.225   6.501   4.496 -0.9159 -0.0151  0.4115
  529MOL0     C71293  10.086   6.509   4.427 -0.6552 -0.3426  0.1311
  529MOL0     C71294  10.013   6.643   4.456 -0.8288 -0.0652  0.3346
  529MOL0     C71295   9.868   6.630   4.415 -0.7429 -0.0966  0.0223
  529MOL0     C71296   9.789   6.761   4.421 -0.9550  0.4954 -0.2334
  529MOL0     N71297   9.659   6.737   4.352 -0.3134  0.1297 -0.2443
  529MOL0     C71298   9.593   6.816   4.265 -0.0234 -0.4743 -0.0934
  529MOL0     C71299   9.465   6.781   4.273  0.0222  0.5590  0.5523
  529MOL0     C71300   9.352   6.842   4.196  0.3708 -0.1577  0.2645
  529MOL0     C71301   9.367   6.877   4.041  1.0409 -0.0534  0.2847
  529MOL0     C71302   9.236   6.938   3.978  1.6666  0.4140  0.0872
  529MOL0     C71303   9.105   6.866   3.978 -0.1282 -0.1276  0.3113
  529MOL0     O71304   9.026   6.940   3.887  0.4793  0.0138 -0.6202
  529MOL0     C71305   8.907   6.886   3.841  0.0630 -0.0614  0.1238
  529MOL0     C71306   8.849   6.922   3.723  0.8456 -0.1555 -0.1778
  529MOL0     C71307   8.721   6.881   3.674 -0.1074 -0.0554 -0.1749
  529MOL0     C71308   8.677   6.951   3.552  0.0645  0.7204 -0.2545
  529MOL0     C71309   8.660   6.783   3.750  0.8086  0.0908 -0.8505
  529MOL0     C71310   8.521   6.721   3.709  0.1107 -0.6759  0.5084
  529MOL0     O71311   8.431   6.804   3.646 -0.2354  0.2488  0.5179
  529MOL0     C71312   8.320   6.745   3.589  0.8601  0.6630  0.0237
  529MOL0     C71313   8.279   6.777   3.461  0.2952 -0.2812  0.0140
  529MOL0     C71314   8.148   6.751   3.421  0.0455  0.8120 -0.0481
  529MOL0     C71315   8.067   6.672   3.496  0.5876  0.1673 -0.1217
  529MOL0     O71316   7.951   6.621   3.439  0.6126 -0.6781  0.7773
  529MOL0     C71317   7.947   6.483   3.410 -0.6448 -0.6032  0.0712
  529MOL0     C71318   8.047   6.437   3.305 -0.2866 -1.0427  0.1775
  529MOL0     C71319   8.014   6.310   3.238 -0.6071  0.2450  1.3816
  529MOL0     C71320   7.897   6.309   3.153 -0.3636 -0.0688  0.7431
  529MOL0     C71321   7.861   6.166   3.098  0.3468  0.0793 -0.0777
  529MOL0     C71322   7.737   6.167   3.006  0.3748 -0.0783 -0.7785
  529MOL0     C71323   7.695   6.028   2.954  0.0829 -0.0980  1.1305
  529MOL0     C71324   7.605   6.029   2.837  0.7353  0.1317 -0.3014
  529MOL0    Cl71325   7.682   6.078   2.686  0.3650 -0.1457 -0.3083
  529MOL0     C71326   8.102   6.634   3.624  1.2876 -0.2832  0.2663
  529MOL0     C71327   8.222   6.674   3.671 -0.5398  0.3369  0.1840
  529MOL0     O71328   8.506   6.602   3.741 -0.0894 -0.4427 -0.3392
  529MOL0     C71329   8.712   6.737   3.870 -1.1628  0.6093 -0.8231
  529MOL0     C71330   8.830   6.798   3.920 -1.1328  0.3896  0.2284
  529MOL0     N71331   9.451   6.671   4.352  0.0844  0.2216  0.8968
  529MOL0     N71332   9.566   6.650   4.405 -0.2695  0.8938  0.1709
  529MOL0     C71333  10.679   6.654   4.125  0.0284  0.0753 -0.0187
  529MOL0     C71334  10.800   6.643   4.048  0.4669 -0.0963 -0.2322
  529MOL0     C71335  11.225   6.748   3.905  0.2876 -0.4970  0.6936
  529MOL0     C71336  11.283   6.849   3.825  0.0518  0.3954  0.6479
  529MOL0     C71337  11.393   6.827   3.750 -0.3431  0.2681  0.4291
  529MOL0     C71338  11.450   6.698   3.742  0.2134 -0.2794 -0.1524
  529MOL0     O71339  11.555   6.680   3.659  0.1194  0.0950  0.5363
  529MOL0     C71340  11.618   6.544   3.636 -0.7415  0.0391  0.3675
  529MOL0     C71341  11.762   6.578   3.574  0.5850 -0.1234 -0.3188
  529MOL0     C71342  11.797   6.484   3.452 -1.4741 -0.0878 -0.2181
  529MOL0     C71343  11.819   6.349   3.509  0.0187  0.5662 -0.7189
  529MOL0     C71344  11.812   6.246   3.404  0.3870  0.0526 -0.0695
  529MOL0     C71345  11.809   6.167   3.313  0.1731  0.0324  0.0882
  529MOL0     C71346  11.397   6.597   3.820  1.0375  0.1574  0.7776
  529MOL0     C71347  11.290   6.624   3.903 -0.2852 -0.7928 -0.2120
  529MOL0     H71348  11.017   6.751   4.276  1.6761 -1.2040 -2.9006
  529MOL0     H71349  10.811   6.771   4.414 -3.9274  0.3677  0.5369
  529MOL0     H71350  10.652   6.697   4.518  1.1782  1.2819 -1.9104
  529MOL0     H71351  10.520   6.805   4.497 -0.1543 -0.3849 -1.0876
  529MOL0     H71352  10.519   6.501   4.522  0.6504  0.0727 -1.0815
  529MOL0     H71353  10.434   6.610   4.629 -1.0033 -2.4899  0.3776
  529MOL0     H71354  10.289   6.696   4.439  0.0254  0.2872 -0.8016
  529MOL0     H71355  10.343   6.555   4.345 -1.2973 -1.4149  0.5925
  529MOL0     H71356  10.266   6.400   4.493 -1.1831 -0.1033 -0.3318
  529MOL0     H71357  10.212   6.535   4.600  0.2860 -0.7533  0.8164
  529MOL0     H71358  10.094   6.483   4.321  0.3275 -3.4408  0.8820
  529MOL0     H71359  10.028   6.424   4.463  1.2161 -2.4818 -1.5908
  529MOL0     H71360  10.019   6.671   4.562 -2.1569  3.1747 -0.3277
  529MOL0     H71361  10.067   6.720   4.401  0.3813 -1.3184 -0.3050
  529MOL0     H71362   9.872   6.592   4.313  0.7311  3.1832 -1.2578
  529MOL0     H71363   9.821   6.557   4.482 -0.4770 -2.3942 -2.1572
  529MOL0     H71364   9.853   6.839   4.379  0.9292 -0.3067  0.9839
  529MOL0     H71365   9.770   6.788   4.525 -1.5221  4.9359 -1.3159
  529MOL0     H71366   9.650   6.892   4.212 -0.8395  1.5419  1.7180
  529MOL0     H71367   9.263   6.779   4.211 -0.4231  0.7475 -0.4545
  529MOL0     H71368   9.332   6.934   4.252 -1.5323 -1.1924  1.3820
  529MOL0     H71369   9.387   6.794   3.972  0.7326  2.0123 -2.4776
  529MOL0     H71370   9.445   6.952   4.024  1.6387 -0.7248 -0.0180
  529MOL0     H71371   9.256   6.968   3.875  0.4412 -0.6092 -0.4710
  529MOL0     H71372   9.213   7.033   4.027  1.3741  0.3896 -0.0013
  529MOL0     H71373   9.069   6.866   4.081  0.1622 -1.8286  0.4466
  529MOL0     H71374   9.125   6.763   3.949  0.3270 -0.3257  1.2776
  529MOL0     H71375   8.899   7.005   3.675 -0.1414  0.5797  0.0372
  529MOL0     H71376   8.761   7.006   3.509  0.3697  0.0726 -0.5029
  529MOL0     H71377   8.643   6.881   3.475  1.5250 -0.4360  0.0939
  529MOL0     H71378   8.589   7.013   3.566 -0.8486 -0.5734 -0.0938
  529MOL0     H71379   8.347   6.838   3.403  0.0259  0.9383  0.9388
  529MOL0     H71380   8.119   6.782   3.322 -1.3420 -0.2555 -0.0063
  529MOL0     H71381   7.971   6.430   3.502  0.7859 -0.9098 -0.4409
  529MOL0     H71382   7.845   6.464   3.376 -1.5112 -0.5692  2.4906
  529MOL0     H71383   8.055   6.523   3.238  3.9271 -0.0761  1.6001
  529MOL0     H71384   8.140   6.425   3.362 -1.7578 -0.7941  2.7985
  529MOL0     H71385   8.009   6.231   3.314  1.5565 -1.0860  0.2509
  529MOL0     H71386   8.091   6.289   3.163 -3.4674  0.2270 -1.8265
  529MOL0     H71387   7.811   6.348   3.209 -1.1210  1.8285 -1.5892
  529MOL0     H71388   7.903   6.370   3.063 -1.5668  3.4770  2.8333
  529MOL0     H71389   7.826   6.117   3.189 -1.7264  1.1424 -0.2437
  529MOL0     H71390   7.947   6.117   3.053  1.1691  0.9918  0.4715
  529MOL0     H71391   7.646   6.209   3.050  1.4994 -0.4996  2.1985
  529MOL0     H71392   7.768   6.228   2.921 -0.4170 -1.2718 -1.9684
  529MOL0     H71393   7.667   5.960   3.036  1.3945 -0.6284  1.1745
  529MOL0     H71394   7.788   5.983   2.918 -0.9005 -0.3108 -1.2984
  529MOL0     H71395   7.523   6.093   2.871  0.8344 -0.3335  0.8401
  529MOL0     H71396   7.572   5.926   2.818  0.6810 -0.0192  0.5570
  529MOL0     H71397   8.037   6.574   3.686  1.1364  0.6658  1.0710
  529MOL0     H71398   8.250   6.647   3.772 -0.8981  0.2326  0.2560
  529MOL0     H71399   8.666   6.655   3.924  1.1513  1.1989  2.3156
  529MOL0     H71400   8.871   6.784   4.020  1.3099  1.7301 -0.4979
  529MOL0     H71401  10.583   6.615   4.092  0.4936 -0.8930 -0.2640
  529MOL0     H71402  10.805   6.605   3.946  1.8486 -3.4971  0.9482
  529MOL0     H71403  11.244   6.950   3.811  0.9080  0.6733  0.1741
  529MOL0     H71404  11.438   6.906   3.691 -2.3468 -0.5641 -2.4233
  529MOL0     H71405  11.628   6.479   3.723 -0.2399 -2.2604 -1.3083
  529MOL0     H71406  11.555   6.493   3.562 -0.2122 -0.6354  0.3663
  529MOL0     H71407  11.832   6.578   3.658  0.3615 -0.0417 -0.1306
  529MOL0     H71408  11.772   6.682   3.541 -0.3375  0.1298  0.1519
  529MOL0     H71409  11.889   6.522   3.406 -0.0880  0.2002  2.6047
  529MOL0     H71410  11.712   6.488   3.383 -0.9303 -1.0707 -0.9724
  529MOL0     H71411  11.737   6.327   3.577  0.6424  1.4232  0.3280
  529MOL0     H71412  11.912   6.344   3.567  0.0628  0.9306 -0.7586
  529MOL0     H71413  11.838   6.107   3.229 -3.4789 -1.0505 -0.5663
  529MOL0     H71414  11.433   6.495   3.814 -3.7003 -1.6768 -1.3182
  529MOL0     H71415  11.252   6.546   3.967  0.8370 -0.4464  0.9288
  530MOL0     O71416   4.898  10.367   4.539  0.1265  0.1973  0.8326
  530MOL0     C71417   4.826  10.342   4.633 -0.3820  0.9194 -0.0301
  530MOL0     O71418   4.860  10.247   4.735  0.0856  0.1388 -0.2514
  530MOL0     C71419   4.955  10.149   4.716 -0.8996 -0.4332 -0.1317
  530MOL0     C71420   4.989  10.099   4.590  0.1309  0.2546  0.5260
  530MOL0     C71421   5.088  10.004   4.579 -0.0646 -0.6476  0.5295
  530MOL0     C71422   5.162   9.962   4.693  0.4463  0.5029 -0.4131
  530MOL0     O71423   5.266   9.868   4.690  0.0294 -0.0799 -0.0495
  530MOL0     C71424   5.233   9.740   4.627 -0.0359 -0.1504 -0.6395
  530MOL0     C71425   5.311   9.628   4.691  0.1517  0.7898 -0.0328
  530MOL0     C71426   5.304   9.496   4.623  0.4523 -0.7837  0.0775
  530MOL0     C71427   5.383   9.497   4.494 -0.2618 -0.3271 -0.4331
  530MOL0     C71428   5.412   9.356   4.447  0.2349  0.1052  0.6454
  530MOL0     C71429   5.285   9.279   4.401  0.8397  0.0129 -0.8924
  530MOL0     C71430   5.213   9.344   4.283  0.2280  0.2212  0.2860
  530MOL0     C71431   5.104   9.267   4.211  0.0512 -0.0966  0.0408
  530MOL0     N71432   4.983   9.253   4.289  0.0833  0.2776  0.0589
  530MOL0     C71433   4.918   9.343   4.368 -0.3173 -0.9620 -1.1183
  530MOL0     C71434   4.797   9.304   4.393  0.9806  0.2878  0.2883
  530MOL0     C71435   4.687   9.377   4.455  0.7594 -0.6242 -0.0661
  530MOL0     C71436   4.724   9.447   4.584  0.1637  0.4816 -0.4296
  530MOL0     C71437   4.605   9.543   4.632 -0.7170  0.1538 -0.0230
  530MOL0     C71438   4.470   9.477   4.672 -0.7811 -0.0999  0.2305
  530MOL0     O71439   4.380   9.577   4.724  0.4282  0.0267 -0.3756
  530MOL0     C71440   4.284   9.628   4.635 -0.4237  0.3459 -0.3621
  530MOL0     C71441   4.266   9.591   4.501  0.3746  0.4769 -0.2952
  530MOL0     C71442   4.158   9.643   4.422  0.4561 -0.2592  0.0895
  530MOL0     C71443   4.150   9.639   4.274 -0.2934  0.6457 -0.0316
  530MOL0     C71444   4.063   9.731   4.481 -0.3772 -0.1262 -0.7059
  530MOL0     C71445   3.926   9.780   4.424  0.4602  0.1588 -0.1056
  530MOL0     O71446   3.871   9.894   4.480 -0.0543 -0.3753  0.3181
  530MOL0     C71447   3.738   9.929   4.473  0.7057  0.5628  0.3473
  530MOL0     C71448   3.629   9.847   4.416 -0.8766 -0.3919 -0.4464
  530MOL0     C71449   3.497   9.890   4.398  0.8468  0.3698  0.0488
  530MOL0     C71450   3.461  10.020   4.433 -0.3848  0.5562 -0.8678
  530MOL0     O71451   3.334  10.069   4.402  0.2287 -0.0886  0.1384
  530MOL0     C71452   3.244   9.986   4.319 -0.3017  0.3710 -1.3515
  530MOL0     C71453   3.109  10.058   4.313 -0.2261  0.0184 -0.6902
  530MOL0     C71454   3.046  10.053   4.452 -0.6024 -0.1970 -0.0504
  530MOL0     C71455   3.014   9.906   4.511 -0.2439 -0.4668 -0.1852
  530MOL0     C71456   2.891   9.906   4.594  0.2764 -0.5694  0.4236
  530MOL0     C71457   2.891   9.780   4.671 -0.5923  0.2006  0.1471
  530MOL0     C71458   2.791   9.777   4.786  0.4662  0.0613 -0.2915
  530MOL0     C71459   2.803   9.643   4.866  0.1349 -0.4494  0.4090
  530MOL0    Cl71460   2.712   9.653   5.020  0.3882 -0.3363 -0.0741
  530MOL0     C71461   3.565  10.102   4.490 -0.0754 -0.1251 -0.1929
  530MOL0     C71462   3.698  10.056   4.515  0.6834  0.3458 -0.0760
  530MOL0     O71463   3.874   9.711   4.340 -0.4216 -0.0504 -0.0981
  530MOL0     C71464   4.086   9.769   4.614 -0.0389 -0.9968  0.2512
  530MOL0     C71465   4.197   9.718   4.686  0.8761 -0.6461  0.1921
  530MOL0     N71466   4.789   9.173   4.342  0.0805  0.0245  0.5841
  530MOL0     N71467   4.895   9.146   4.275 -0.2636  0.6517 -0.0110
  530MOL0     C71468   5.122  10.011   4.822 -0.5438  0.0978 -0.5127
  530MOL0     C71469   5.021  10.104   4.829  0.2339  0.2657 -0.3869
  530MOL0     C71470   4.707  10.421   4.659  0.3297  0.0241  0.6191
  530MOL0     C71471   4.671  10.516   4.566  0.0241  0.1996  0.1431
  530MOL0     C71472   4.544  10.578   4.574  0.2199  0.6545  0.4683
  530MOL0     C71473   4.460  10.564   4.687  0.7171  0.7650 -0.4369
  530MOL0     O71474   4.332  10.609   4.700 -0.5009  1.0006 -0.5742
  530MOL0     C71475   4.278  10.703   4.608 -0.6419  0.1646  0.4800
  530MOL0     C71476   4.137  10.715   4.646 -0.2372  0.4730 -0.2908
  530MOL0     C71477   4.053  10.591   4.615  0.8862 -0.1911 -0.7446
  530MOL0     C71478   3.901  10.616   4.650  0.1752  0.4152 -0.0395
  530MOL0     C71479   3.819  10.522   4.568  0.2406 -0.2276  0.0932
  530MOL0     C71480   3.746  10.449   4.500  0.2469  0.6825  0.4171
  530MOL0     C71481   4.505  10.483   4.792 -0.2496 -0.3237  0.4073
  530MOL0     C71482   4.634  10.420   4.785  0.4431  0.1188 -0.1682
  530MOL0     H71483   4.935  10.130   4.501  2.6716  0.0216 -1.2152
  530MOL0     H71484   5.108   9.967   4.479  0.2052 -0.0871  0.3762
  530MOL0     H71485   5.127   9.720   4.642 -0.0167  0.9801  1.3510
  530MOL0     H71486   5.260   9.751   4.522 -0.8020 -0.4435 -0.8700
  530MOL0     H71487   5.416   9.658   4.692  0.4275 -0.1560  0.3036
  530MOL0     H71488   5.288   9.614   4.797 -1.0542 -0.5263 -0.4396
  530MOL0     H71489   5.322   9.417   4.696 -0.1514  1.1492  2.4803
  530MOL0     H71490   5.196   9.486   4.611  0.5321 -0.9960 -0.4760
  530MOL0     H71491   5.330   9.560   4.422 -2.2233  0.9127  1.9811
  530MOL0     H71492   5.477   9.550   4.515 -1.5631  1.1941  1.9625
  530MOL0     H71493   5.485   9.365   4.366  2.3947  1.2013  2.6156
  530MOL0     H71494   5.466   9.302   4.525  0.2648  1.6270  1.7179
  530MOL0     H71495   5.301   9.175   4.370  0.0015 -0.2791 -0.3661
  530MOL0     H71496   5.220   9.271   4.488  0.8810  0.4368 -0.8250
  530MOL0     H71497   5.177   9.441   4.319  0.2054  0.0876  0.6246
  530MOL0     H71498   5.280   9.369   4.200  0.2672 -0.9792 -0.0609
  530MOL0     H71499   5.126   9.163   4.187 -1.4389  0.1448 -2.7067
  530MOL0     H71500   5.085   9.327   4.121 -0.9934  1.5918  1.3210
  530MOL0     H71501   4.959   9.437   4.402 -0.9000 -0.5105 -1.6422
  530MOL0     H71502   4.646   9.456   4.391 -1.1475 -1.7808 -0.3723
  530MOL0     H71503   4.605   9.308   4.475  1.3595 -0.6318  2.6874
  530MOL0     H71504   4.814   9.508   4.569  0.4821  1.3502  3.8742
  530MOL0     H71505   4.741   9.384   4.671 -1.6847  1.7360  0.9347
  530MOL0     H71506   4.585   9.606   4.545  0.6647  1.8128  0.7956
  530MOL0     H71507   4.636   9.602   4.719 -0.2106 -2.5072  1.6918
  530MOL0     H71508   4.493   9.406   4.752  0.7025 -1.2021 -1.1240
  530MOL0     H71509   4.426   9.424   4.587  0.1341  2.2608 -1.8432
  530MOL0     H71510   4.346   9.539   4.450  0.9817  1.8357 -0.7887
  530MOL0     H71511   4.247   9.638   4.223 -1.1910  2.1103 -1.9006
  530MOL0     H71512   4.083   9.559   4.242 -0.1300  0.7602 -0.6879
  530MOL0     H71513   4.112   9.736   4.241  0.6069  1.2130  0.5524
  530MOL0     H71514   3.662   9.750   4.381  0.0750 -0.1822 -0.1495
  530MOL0     H71515   3.424   9.827   4.348 -0.6491  1.5128  0.6983
  530MOL0     H71516   3.285   9.970   4.219 -1.7461  0.6267 -2.0232
  530MOL0     H71517   3.238   9.887   4.365 -2.1225  2.1212  2.7464
  530MOL0     H71518   3.112  10.162   4.279  1.0619  1.2134  2.6291
  530MOL0     H71519   3.041  10.003   4.247  1.0565 -2.5601  0.0060
  530MOL0     H71520   2.958  10.117   4.437  0.0471  0.4448 -1.3227
  530MOL0     H71521   3.114  10.104   4.520 -0.6046  1.6394 -1.3341
  530MOL0     H71522   3.005   9.833   4.431  2.0196 -1.1737  0.1400
  530MOL0     H71523   3.105   9.879   4.564 -0.3981 -1.6679 -0.5133
  530MOL0     H71524   2.798   9.919   4.538 -0.6841  0.9606  2.2570
  530MOL0     H71525   2.903   9.991   4.663 -1.4158  1.8736 -2.0733
  530MOL0     H71526   2.856   9.693   4.614 -0.0784 -0.1323  0.3382
  530MOL0     H71527   2.992   9.747   4.695 -0.1389  2.4825  1.6971
  530MOL0     H71528   2.690   9.793   4.748  0.5979  0.7911 -0.3557
  530MOL0     H71529   2.807   9.865   4.849 -4.0105  0.2037  0.9936
  530MOL0     H71530   2.893   9.595   4.905 -0.9848 -1.8668  1.3979
  530MOL0     H71531   2.767   9.563   4.800  1.6167  0.8144 -2.0570
  530MOL0     H71532   3.538  10.205   4.507  2.0431  0.4165  0.1317
  530MOL0     H71533   3.772  10.129   4.547  1.6991  0.4045 -2.3506
  530MOL0     H71534   4.029   9.854   4.651  0.6332  0.8162 -2.5491
  530MOL0     H71535   4.212   9.763   4.783  2.4741  0.4017 -0.5054
  530MOL0     H71536   5.161   9.964   4.912 -0.8660 -0.5754 -0.7213
  530MOL0     H71537   5.001  10.145   4.928  0.6271 -1.2179  0.3236
  530MOL0     H71538   4.736  10.549   4.485  0.6632  0.2223  0.6581
  530MOL0     H71539   4.512  10.642   4.492 -0.4241  0.0892  0.2707
  530MOL0     H71540   4.335  10.797   4.612  2.7950 -1.6390 -1.7484
  530MOL0     H71541   4.291  10.652   4.512  0.1631 -2.3520  1.8413
  530MOL0     H71542   4.099  10.803   4.593 -1.6120  0.2632  0.2991
  530MOL0     H71543   4.130  10.737   4.753  0.2147 -1.4589  0.1665
  530MOL0     H71544   4.093  10.509   4.675  0.2720 -0.5312 -0.7940
  530MOL0     H71545   4.063  10.569   4.509 -1.1976  1.2785 -1.2966
  530MOL0     H71546   3.879  10.718   4.616  2.2299  0.7185 -0.6254
  530MOL0     H71547   3.882  10.616   4.757 -1.6720  2.3643 -0.3015
  530MOL0     H71548   3.672  10.390   4.450  1.2961 -0.0850 -0.2842
  530MOL0     H71549   4.445  10.473   4.882 -0.8104 -2.9133 -0.1835
  530MOL0     H71550   4.667  10.356   4.866  1.1961 -1.7652 -1.8737
  531MOL0     O71551  11.100  10.315   6.026 -0.3269 -0.6602  0.2154
  531MOL0     C71552  11.140  10.198   6.021 -0.4671  0.4220 -0.7811
  531MOL0     O71553  11.074  10.092   6.078 -0.6786 -0.7764 -0.2495
  531MOL0     C71554  10.947  10.115   6.124 -0.0829  0.7707  0.0403
  531MOL0     C71555  10.842  10.025   6.088 -0.6377 -0.9225 -0.4712
  531MOL0     C71556  10.712  10.042   6.130  0.7370  0.2920  0.5978
  531MOL0     C71557  10.682  10.137   6.226 -0.3438  0.4514 -0.3693
  531MOL0     O71558  10.560  10.147   6.288  0.7293 -0.0910  0.0866
  531MOL0     C71559  10.440  10.134   6.211 -0.0846 -0.3249 -0.2971
  531MOL0     C71560  10.324  10.130   6.306  0.3802 -1.1399  0.3962
  531MOL0     C71561  10.193  10.101   6.238 -0.0274 -0.0812  0.4676
  531MOL0     C71562  10.089  10.079   6.342 -0.5144  0.1096  0.2868
  531MOL0     C71563   9.954  10.051   6.278  0.2801  0.4258  0.3772
  531MOL0     C71564   9.852  10.042   6.394  0.2246  0.1307 -0.6792
  531MOL0     C71565   9.718  10.014   6.332  0.4703  0.4739 -0.1981
  531MOL0     C71566   9.601  10.025   6.429 -0.1828 -0.2548 -0.8639
  531MOL0     N71567   9.477   9.996   6.354  0.3100  0.3715  0.0846
  531MOL0     C71568   9.441   9.876   6.294  0.2931 -0.3012 -0.2871
  531MOL0     C71569   9.321   9.910   6.238  0.2044 -0.1039  0.0365
  531MOL0     C71570   9.216   9.841   6.167  0.6144 -0.4013 -0.9062
  531MOL0     C71571   9.141   9.747   6.266 -0.2164 -0.2178  0.1790
  531MOL0     C71572   9.090   9.826   6.394 -0.1316  0.5210 -0.3319
  531MOL0     C71573   8.959   9.761   6.456  0.4705 -0.2557  0.1739
  531MOL0     O71574   8.855   9.774   6.362  0.1693 -0.3031  0.4199
  531MOL0     C71575   8.731   9.730   6.393 -0.3892  0.0938 -0.0406
  531MOL0     C71576   8.648   9.682   6.292 -0.6401  0.1793 -0.3327
  531MOL0     C71577   8.516   9.633   6.319 -0.1313 -0.2459  0.0302
  531MOL0     C71578   8.441   9.577   6.207 -1.0286 -1.1373  0.5445
  531MOL0     C71579   8.467   9.642   6.453  0.6066 -0.0278 -0.1362
  531MOL0     C71580   8.326   9.627   6.487 -0.2642  1.1246  0.9021
  531MOL0     O71581   8.260   9.533   6.422  0.1681 -0.0764 -0.4219
  531MOL0     C71582   8.116   9.521   6.425 -0.4579  0.0109  0.5496
  531MOL0     C71583   8.052   9.485   6.305  0.4604  0.1507  0.8612
  531MOL0     C71584   7.918   9.462   6.292  0.9392 -0.7108  0.3952
  531MOL0     C71585   7.840   9.481   6.408  0.3485  0.0333 -0.0338
  531MOL0     O71586   7.706   9.451   6.402  0.5086  0.7108 -0.2089
  531MOL0     C71587   7.616   9.459   6.511  0.3940  0.5977  0.2169
  531MOL0     C71588   7.471   9.460   6.455  0.2343 -0.4082 -0.6174
  531MOL0     C71589   7.371   9.435   6.568 -0.2574  0.3763  0.4908
  531MOL0     C71590   7.224   9.432   6.518  0.0631  0.6526  0.5627
  531MOL0     C71591   7.126   9.400   6.631  0.1713 -0.4426  0.3175
  531MOL0     C71592   6.982   9.392   6.583 -0.0289 -0.1415  0.2552
  531MOL0     C71593   6.898   9.373   6.705  0.3291  0.2504  0.3329
  531MOL0     C71594   6.746   9.371   6.665 -0.4297  1.4476  0.4705
  531MOL0    Cl71595   6.695   9.217   6.588 -0.5351 -0.1556 -0.4036
  531MOL0     C71596   7.902   9.517   6.533  0.5937  0.9042  0.5464
  531MOL0     C71597   8.043   9.527   6.543  0.8967 -0.2552  0.6712
  531MOL0     O71598   8.282   9.701   6.579  0.2084  0.4753 -0.4404
  531MOL0     C71599   8.551   9.682   6.561 -0.3150  0.5544 -0.2212
  531MOL0     C71600   8.685   9.724   6.532 -1.1646 -0.6932 -0.4837
  531MOL0     N71601   9.302  10.044   6.253 -0.5851 -0.5575 -0.3118
  531MOL0     N71602   9.397  10.102   6.320  0.5775  0.3048 -0.6130
  531MOL0     C71603  10.783  10.226   6.266  0.4945 -0.5554  0.1339
  531MOL0     C71604  10.916  10.214   6.219 -0.6411  0.3006  0.3465
  531MOL0     C71605  11.275  10.169   5.969 -0.9461 -0.8037  0.3594
  531MOL0     C71606  11.320  10.042   5.964 -0.8373 -0.4136  0.6299
  531MOL0     C71607  11.446  10.010   5.910  0.4340  0.5081 -0.1372
  531MOL0     C71608  11.524  10.111   5.854 -0.2438 -1.0973 -0.9369
  531MOL0     O71609  11.648  10.071   5.806  0.0507 -0.2365 -0.2056
  531MOL0     C71610  11.736  10.178   5.758 -0.1953 -0.3163  0.8987
  531MOL0     C71611  11.850  10.114   5.668  0.2221  0.3265  0.0303
  531MOL0     C71612  11.950  10.050   5.765 -0.2599 -0.7452 -0.2633
  531MOL0     C71613  12.064   9.990   5.684 -0.1388  0.4349  0.2891
  531MOL0     C71614  12.092   9.853   5.735 -0.0677 -0.2983 -0.2383
  531MOL0     C71615  12.098   9.735   5.778 -0.2835 -0.6659 -0.2471
  531MOL0     C71616  11.480  10.251   5.850 -0.8596  0.4350 -0.3258
  531MOL0     C71617  11.354  10.276   5.914 -0.3402  0.6571  0.6976
  531MOL0     H71618  10.864   9.950   6.012 -0.2238 -1.8633  0.5477
  531MOL0     H71619  10.637   9.977   6.088 -0.9325  1.7951  1.1137
  531MOL0     H71620  10.423  10.220   6.146  0.8847 -0.0033 -0.1419
  531MOL0     H71621  10.436  10.038   6.157  1.9800 -1.0771  0.7761
  531MOL0     H71622  10.344  10.063   6.390 -0.1002  0.1701  1.5717
  531MOL0     H71623  10.318  10.225   6.358 -0.5296 -1.0456  0.1395
  531MOL0     H71624  10.159  10.178   6.169 -0.1147 -1.2491 -0.8422
  531MOL0     H71625  10.204  10.013   6.173  3.0260  0.2389  0.3849
  531MOL0     H71626  10.121   9.993   6.401  0.1734 -0.3922 -0.7891
  531MOL0     H71627  10.086  10.160   6.416  1.4706 -0.2805  0.8685
  531MOL0     H71628   9.916  10.130   6.213 -1.3397  0.1429  0.9329
  531MOL0     H71629   9.960   9.951   6.233  3.3738  1.1272 -1.0077
  531MOL0     H71630   9.887   9.967   6.465 -2.1482 -0.4157  0.0102
  531MOL0     H71631   9.844  10.136   6.449  1.0538  0.2257 -0.7059
  531MOL0     H71632   9.703  10.093   6.257  0.9116 -1.2096 -2.1201
  531MOL0     H71633   9.715   9.915   6.287 -1.9113  0.1459  0.5319
  531MOL0     H71634   9.601  10.126   6.471 -3.1097 -1.7906  3.5600
  531MOL0     H71635   9.601   9.952   6.511  0.1886  0.3215 -0.3417
  531MOL0     H71636   9.493   9.781   6.293 -0.2876 -0.6189 -1.2177
  531MOL0     H71637   9.143   9.913   6.129  0.2296 -1.0724 -1.4531
  531MOL0     H71638   9.256   9.782   6.084  0.4848 -0.5713 -0.8493
  531MOL0     H71639   9.216   9.675   6.300  2.8798  3.4632  1.7917
  531MOL0     H71640   9.058   9.691   6.221 -0.0532  0.5621 -1.1231
  531MOL0     H71641   9.061   9.928   6.368 -0.4882  0.2640 -0.9798
  531MOL0     H71642   9.171   9.829   6.467  1.4102  3.9682 -1.9608
  531MOL0     H71643   8.940   9.817   6.548 -0.4421 -3.1190  1.8804
  531MOL0     H71644   8.968   9.657   6.491  1.0571 -0.2849 -0.0447
  531MOL0     H71645   8.695   9.674   6.194  0.2134 -2.7216  0.2059
  531MOL0     H71646   8.333   9.595   6.204 -0.6991  1.2373  0.9282
  531MOL0     H71647   8.491   9.611   6.116  3.2533 -1.0369  2.6884
  531MOL0     H71648   8.456   9.469   6.219 -0.0456 -0.8179  2.6893
  531MOL0     H71649   8.110   9.492   6.213 -1.2664 -0.7595 -0.3533
  531MOL0     H71650   7.866   9.444   6.198 -0.4671  3.5309  0.1459
  531MOL0     H71651   7.625   9.379   6.584  0.9205 -0.8775 -1.3898
  531MOL0     H71652   7.623   9.559   6.556 -3.8700  0.2365  2.0837
  531MOL0     H71653   7.448   9.560   6.418 -1.0764 -1.1236 -1.8635
  531MOL0     H71654   7.455   9.387   6.374  1.7629  0.3659 -1.6659
  531MOL0     H71655   7.388   9.509   6.647 -2.6392  2.1943 -0.5366
  531MOL0     H71656   7.385   9.342   6.623  3.1317  0.5653  0.1571
  531MOL0     H71657   7.201   9.530   6.476  1.5035  1.2156  1.0141
  531MOL0     H71658   7.211   9.354   6.443 -1.3223  0.2135  1.2364
  531MOL0     H71659   7.135   9.481   6.704 -0.0245 -0.0451 -0.0904
  531MOL0     H71660   7.149   9.303   6.677 -0.4043 -0.6345  0.2152
  531MOL0     H71661   6.949   9.482   6.530  0.2014  0.8436  1.7274
  531MOL0     H71662   6.971   9.300   6.524 -1.5023 -0.3564  0.8172
  531MOL0     H71663   6.920   9.459   6.769  2.9068  1.1716 -1.6128
  531MOL0     H71664   6.919   9.280   6.759 -0.8832 -1.0674 -1.3862
  531MOL0     H71665   6.733   9.456   6.597 -2.4280 -1.0427 -2.5084
  531MOL0     H71666   6.682   9.386   6.753 -3.8426  1.2860 -1.7837
  531MOL0     H71667   7.843   9.525   6.624  0.2036  0.5083  0.3338
  531MOL0     H71668   8.085   9.549   6.641  1.8866 -0.0375  0.2174
  531MOL0     H71669   8.510   9.701   6.659 -1.8555 -2.8274 -0.0765
  531MOL0     H71670   8.755   9.739   6.614  1.1348 -2.6016 -1.9506
  531MOL0     H71671  10.761  10.314   6.325  1.8337 -0.0236 -0.1358
  531MOL0     H71672  10.983  10.287   6.263 -1.0674  1.5973 -1.0158
  531MOL0     H71673  11.254   9.965   6.004 -2.1132  0.7633  0.8676
  531MOL0     H71674  11.470   9.907   5.889 -5.0411 -0.7354 -2.0903
  531MOL0     H71675  11.694  10.256   5.693 -0.4006 -1.1929 -0.0584
  531MOL0     H71676  11.773  10.228   5.848 -0.8104 -1.1950  1.6590
  531MOL0     H71677  11.897  10.194   5.610 -2.1663  1.4923 -0.4523
  531MOL0     H71678  11.811  10.042   5.595  0.6619 -2.7472  2.5862
  531MOL0     H71679  11.908   9.968   5.824 -0.1676 -1.4841 -1.2046
  531MOL0     H71680  12.002  10.123   5.828  1.0521 -2.7211  1.0433
  531MOL0     H71681  12.152  10.055   5.692 -1.3300  2.2299 -0.3807
  531MOL0     H71682  12.040   9.978   5.578 -1.6435 -2.7576  0.8799
  531MOL0     H71683  12.082   9.635   5.812 -2.5395 -0.5313 -0.8206
  531MOL0     H71684  11.528  10.339   5.810  0.4804 -0.5220 -0.9296
  531MOL0     H71685  11.319  10.378   5.906  2.4098  1.5974 -0.4343
  532MOL0     O71686   7.691  11.264   3.088 -0.2061 -0.7567 -0.0579
  532MOL0     C71687   7.718  11.202   2.986  0.5910  0.0709 -0.4245
  532MOL0     O71688   7.624  11.154   2.895 -0.5825  0.0189 -0.2896
  532MOL0     C71689   7.496  11.166   2.942 -0.3435 -0.9473  0.6424
  532MOL0     C71690   7.409  11.061   2.922 -0.3638  0.3380  1.4180
  532MOL0     C71691   7.272  11.066   2.954  0.2376 -0.3874  0.4575
  532MOL0     C71692   7.214  11.183   3.006  0.4082 -0.4227 -0.4555
  532MOL0     O71693   7.080  11.176   3.040  0.4073 -1.0301 -0.1371
  532MOL0     C71694   7.034  11.268   3.137 -0.4878 -0.2205  0.1050
  532MOL0     C71695   6.897  11.263   3.181 -0.1839 -0.7192  0.1407
  532MOL0     C71696   6.845  11.138   3.241 -0.2604  0.5410  0.8410
  532MOL0     C71697   6.833  11.023   3.138 -0.0442 -0.4969 -0.5767
  532MOL0     C71698   6.767  10.899   3.206 -0.3416 -0.3941 -0.1559
  532MOL0     C71699   6.746  10.789   3.109 -0.7857 -0.8989 -0.3471
  532MOL0     C71700   6.695  10.655   3.179 -1.0354 -0.7540  0.2912
  532MOL0     C71701   6.566  10.666   3.260 -0.4617  0.4125 -0.0532
  532MOL0     N71702   6.458  10.689   3.165 -0.8574 -0.3382  0.6142
  532MOL0     C71703   6.379  10.590   3.104  0.0331  0.7937  0.3230
  532MOL0     C71704   6.297  10.662   3.024  0.7494  0.4747 -0.3291
  532MOL0     C71705   6.173  10.609   2.954 -0.6509  0.3662 -0.4159
  532MOL0     C71706   6.194  10.536   2.813  0.4825  0.1645  0.0793
  532MOL0     C71707   6.099  10.420   2.806 -0.3242 -0.5171 -0.1216
  532MOL0     C71708   6.104  10.368   2.657 -0.0049 -1.1361  0.1648
  532MOL0     O71709   6.010  10.265   2.632 -0.1144  0.5691 -0.2111
  532MOL0     C71710   5.875  10.293   2.640  0.1838 -0.5828  0.2533
  532MOL0     C71711   5.820  10.404   2.574 -0.5262 -0.0658 -0.6316
  532MOL0     C71712   5.680  10.418   2.573  0.3636  0.3496 -0.4483
  532MOL0     C71713   5.627  10.546   2.518  0.5256  0.2046  0.0507
  532MOL0     C71714   5.598  10.311   2.634  0.1920 -0.1010  0.4473
  532MOL0     C71715   5.450  10.300   2.614 -0.0297  0.3646 -0.0692
  532MOL0     O71716   5.391  10.200   2.687  0.0930 -0.5123  0.5615
  532MOL0     C71717   5.247  10.192   2.694 -0.0363 -1.1545 -0.0500
  532MOL0     C71718   5.161  10.299   2.677  0.6577 -0.6073  0.5375
  532MOL0     C71719   5.019  10.287   2.693  0.0950 -0.7000 -0.7732
  532MOL0     C71720   4.964  10.171   2.724 -0.2174 -0.2670 -0.7998
  532MOL0     O71721   4.831  10.176   2.745 -0.1665 -0.4515 -0.4079
  532MOL0     C71722   4.757  10.207   2.635  0.3119  0.6295  0.1229
  532MOL0     C71723   4.625  10.146   2.663  1.0190 -1.2715 -0.3288
  532MOL0     C71724   4.518  10.238   2.600 -0.1885 -1.1885  0.0312
  532MOL0     C71725   4.376  10.194   2.621  0.2248  1.0097 -0.2721
  532MOL0     C71726   4.278  10.270   2.531  1.2640 -0.0455  0.2959
  532MOL0     C71727   4.138  10.234   2.558  1.6212 -0.4881  0.1544
  532MOL0     C71728   4.043  10.301   2.454 -0.3807 -0.2584  0.7647
  532MOL0     C71729   3.892  10.270   2.505 -0.3477 -0.7855  0.4086
  532MOL0    Cl71730   3.782  10.263   2.367  0.1733 -0.2721  0.1719
  532MOL0     C71731   5.045  10.060   2.748  0.0242 -0.4951 -0.0208
  532MOL0     C71732   5.186  10.075   2.737 -0.1208 -0.5749  0.1838
  532MOL0     O71733   5.396  10.380   2.540  0.3920  0.0121  0.1053
  532MOL0     C71734   5.660  10.201   2.700 -0.0843 -0.1569 -0.1603
  532MOL0     C71735   5.798  10.195   2.710  0.0840 -0.5499  0.0668
  532MOL0     N71736   6.326  10.795   3.027  0.1518 -1.0237  1.1271
  532MOL0     N71737   6.420  10.812   3.115 -0.2417 -0.1273 -0.2165
  532MOL0     C71738   7.301  11.300   3.000 -0.0830  0.4047  0.2183
  532MOL0     C71739   7.430  11.289   2.972 -1.0262  0.5352 -0.6346
  532MOL0     C71740   7.858  11.183   2.955  0.0445 -0.5334 -0.2902
  532MOL0     C71741   7.892  11.103   2.851 -0.4555  0.4619  0.6113
  532MOL0     C71742   8.022  11.097   2.809 -0.3997  0.3362 -0.2797
  532MOL0     C71743   8.126  11.151   2.877  0.1686  0.2424 -0.5432
  532MOL0     O71744   8.249  11.109   2.826 -0.3979  0.2603 -0.2178
  532MOL0     C71745   8.356  11.190   2.865 -0.1857 -0.2993 -0.1636
  532MOL0     C71746   8.494  11.138   2.803  1.4872  0.6453 -0.9004
  532MOL0     C71747   8.485  11.105   2.659  1.4540 -0.0976  0.1705
  532MOL0     C71748   8.585  11.000   2.613 -0.7025 -0.1659  0.5217
  532MOL0     C71749   8.728  11.015   2.638 -0.7404  0.9543  0.3895
  532MOL0     C71750   8.844  11.007   2.657 -0.3504 -0.7182 -0.1417
  532MOL0     C71751   8.095  11.231   2.987  0.1750 -0.3302 -0.3229
  532MOL0     C71752   7.963  11.243   3.030 -1.0313  0.1621 -1.0304
  532MOL0     H71753   7.434  10.966   2.878 -2.5837  0.6380 -0.6829
  532MOL0     H71754   7.215  10.975   2.935 -0.6901  0.2588  0.0515
  532MOL0     H71755   7.102  11.255   3.222  0.0512  0.7545 -0.1536
  532MOL0     H71756   7.048  11.372   3.103 -2.1843  0.1939  0.5724
  532MOL0     H71757   6.894  11.334   3.265 -1.1385  1.8173 -1.8700
  532MOL0     H71758   6.836  11.305   3.100  2.2502  1.8257 -0.5160
  532MOL0     H71759   6.911  11.095   3.318  2.9258  0.8887 -1.4733
  532MOL0     H71760   6.746  11.164   3.279 -1.4783 -1.7913 -0.5431
  532MOL0     H71761   6.766  11.057   3.059 -1.7903 -2.5037 -0.0212
  532MOL0     H71762   6.933  11.004   3.098  1.8102  1.1902  2.7738
  532MOL0     H71763   6.831  10.850   3.280 -0.3597  0.4272  0.4186
  532MOL0     H71764   6.677  10.922   3.263  1.0738  2.2690  1.1654
  532MOL0     H71765   6.674  10.823   3.034 -0.8852 -0.5671 -0.1016
  532MOL0     H71766   6.845  10.776   3.065 -0.2016 -0.6567  0.8658
  532MOL0     H71767   6.678  10.594   3.089  0.5946  1.5702 -1.7184
  532MOL0     H71768   6.770  10.610   3.245  0.1076  0.5619 -0.0599
  532MOL0     H71769   6.564  10.757   3.321 -0.9498  0.1635  0.3099
  532MOL0     H71770   6.541  10.585   3.329  0.8306  2.1528  2.6320
  532MOL0     H71771   6.392  10.483   3.110 -1.0632  0.5462 -0.9751
  532MOL0     H71772   6.136  10.542   3.032  1.3720 -0.7049 -0.3038
  532MOL0     H71773   6.107  10.694   2.934  1.4064  1.3793 -3.6892
  532MOL0     H71774   6.293  10.492   2.803  0.0382 -0.6889 -0.8039
  532MOL0     H71775   6.179  10.608   2.732  2.2367  1.2991  0.7082
  532MOL0     H71776   5.995  10.446   2.826  0.3225  2.1847  0.1361
  532MOL0     H71777   6.139  10.340   2.870 -0.9032 -1.3021 -0.7230
  532MOL0     H71778   6.207  10.335   2.645 -0.5453 -1.9553 -3.3409
  532MOL0     H71779   6.092  10.446   2.581  0.7816  0.9903  2.1113
  532MOL0     H71780   5.894  10.465   2.523 -0.4247  0.9551  0.6924
  532MOL0     H71781   5.699  10.629   2.522  0.8193 -0.0923  0.9673
  532MOL0     H71782   5.591  10.534   2.415  0.0133  3.5486 -0.2767
  532MOL0     H71783   5.536  10.575   2.572 -1.1184 -0.0513 -2.4011
  532MOL0     H71784   5.192  10.398   2.648  0.7441 -0.4682  1.0992
  532MOL0     H71785   4.954  10.373   2.676 -0.8297 -1.3794 -0.7454
  532MOL0     H71786   4.753  10.316   2.621 -0.2877  0.6413  0.3598
  532MOL0     H71787   4.799  10.167   2.542 -0.4717 -1.0842  0.4784
  532MOL0     H71788   4.613  10.044   2.623  2.0998 -0.7823 -1.9975
  532MOL0     H71789   4.623  10.147   2.772  3.2954  1.9205 -0.1957
  532MOL0     H71790   4.530  10.250   2.492  0.2526  0.7730  0.2585
  532MOL0     H71791   4.530  10.336   2.647 -1.7541 -0.3273 -1.2855
  532MOL0     H71792   4.357  10.089   2.600 -0.7851  1.0563  0.3696
  532MOL0     H71793   4.350  10.217   2.725  3.1137 -0.2677  0.8531
  532MOL0     H71794   4.309  10.247   2.429  0.4491  3.1979 -0.7997
  532MOL0     H71795   4.283  10.379   2.534 -1.6711  0.2322 -1.5552
  532MOL0     H71796   4.120  10.126   2.567  1.0703 -0.2223  5.3105
  532MOL0     H71797   4.109  10.272   2.657 -0.3681  1.1648 -0.9784
  532MOL0     H71798   4.052  10.236   2.367 -1.8594  1.1450 -0.5002
  532MOL0     H71799   4.065  10.406   2.430 -0.7531 -0.8830 -2.8802
  532MOL0     H71800   3.866  10.357   2.567  0.8425 -0.3691  0.3412
  532MOL0     H71801   3.891  10.175   2.558 -1.1144 -2.2586 -2.1102
  532MOL0     H71802   4.995   9.970   2.783 -0.1781  0.2352  1.6667
  532MOL0     H71803   5.239   9.984   2.767 -1.4973 -1.5789 -0.3031
  532MOL0     H71804   5.604  10.116   2.740 -1.2907 -0.1780 -1.7997
  532MOL0     H71805   5.850  10.111   2.757  0.4841 -0.5452 -0.3604
  532MOL0     H71806   7.259  11.398   3.016 -1.7849 -0.0031 -1.3579
  532MOL0     H71807   7.496  11.373   2.992 -2.2203  1.5895 -0.9904
  532MOL0     H71808   7.815  11.052   2.793  0.4143  1.3271 -1.3974
  532MOL0     H71809   8.050  11.029   2.729 -0.7671 -2.4339  1.7587
  532MOL0     H71810   8.342  11.289   2.821 -3.1628  0.1371  1.4991
  532MOL0     H71811   8.365  11.193   2.974 -2.4258 -3.2796  0.2365
  532MOL0     H71812   8.534  11.059   2.868  0.6659  0.5626 -0.4876
  532MOL0     H71813   8.562  11.224   2.812 -0.2670  2.1153 -1.2717
  532MOL0     H71814   8.505  11.194   2.599  0.0162  1.5903  2.0728
  532MOL0     H71815   8.385  11.067   2.638  0.0901  1.3594  3.2704
  532MOL0     H71816   8.567  10.976   2.507  1.7423 -1.7612  0.4116
  532MOL0     H71817   8.561  10.899   2.646 -0.4931 -0.5244 -0.3922
  532MOL0     H71818   8.947  11.022   2.682 -0.6343  1.4696 -0.0889
  532MOL0     H71819   8.177  11.275   3.042 -0.9099  1.0847  0.1947
  532MOL0     H71820   7.933  11.307   3.113  0.8287 -1.9258  1.4554
  533MOL0     O71821   7.831   1.345   2.632  0.3482 -0.5334  0.4617
  533MOL0     C71822   7.936   1.321   2.687 -0.7245  0.7738  0.6182
  533MOL0     O71823   8.057   1.380   2.661  0.3193 -0.2865  0.1016
  533MOL0     C71824   8.059   1.475   2.566  0.3604  0.1249  0.0500
  533MOL0     C71825   8.106   1.600   2.604  0.0116  0.4727  0.1089
  533MOL0     C71826   8.127   1.695   2.500 -0.2321 -0.6265  0.1939
  533MOL0     C71827   8.101   1.663   2.360 -0.8247  0.1053  0.8401
  533MOL0     O71828   8.095   1.754   2.257 -0.1469 -0.5386  0.3780
  533MOL0     C71829   8.023   1.877   2.290  0.1367 -0.8532  0.0662
  533MOL0     C71830   7.875   1.855   2.321  0.5647 -0.6585 -0.3857
  533MOL0     C71831   7.797   1.995   2.352 -0.3257  0.8067  0.1341
  533MOL0     C71832   7.790   2.094   2.239  0.6902 -0.2036  0.1826
  533MOL0     C71833   7.712   2.219   2.279  0.5955  0.4004  0.1838
  533MOL0     C71834   7.552   2.191   2.278  1.0356 -0.7619  0.5275
  533MOL0     C71835   7.472   2.322   2.303 -0.6379  0.5640  0.3188
  533MOL0     C71836   7.439   2.385   2.171  0.0085 -1.1068 -0.5916
  533MOL0     N71837   7.344   2.312   2.092 -0.0092 -0.2905 -0.3586
  533MOL0     C71838   7.277   2.364   1.983 -0.5471 -0.0380 -0.9273
  533MOL0     C71839   7.168   2.284   1.977  0.0361 -0.0899 -0.6016
  533MOL0     C71840   7.063   2.301   1.875  0.7523 -0.2528 -0.5080
  533MOL0     C71841   6.924   2.348   1.936  0.0745  0.5955 -0.1743
  533MOL0     C71842   6.848   2.241   2.018 -0.0653  0.0368  0.3438
  533MOL0     C71843   6.697   2.288   2.044 -0.5771  0.0516  0.2946
  533MOL0     O71844   6.693   2.419   2.099 -0.0887 -0.0353  0.2054
  533MOL0     C71845   6.577   2.475   2.129  0.6694 -0.3008  0.0879
  533MOL0     C71846   6.573   2.612   2.161  0.2843  0.8582  0.3531
  533MOL0     C71847   6.456   2.681   2.189 -0.3925  0.5464 -0.0067
  533MOL0     C71848   6.462   2.824   2.234 -0.1823  0.2101 -0.4593
  533MOL0     C71849   6.333   2.608   2.192  1.0074  0.0626 -0.0319
  533MOL0     C71850   6.199   2.672   2.226  0.2160  0.3267 -0.1772
  533MOL0     O71851   6.163   2.798   2.184  0.1463 -0.4361  0.2072
  533MOL0     C71852   6.048   2.847   2.230  0.6209  0.0401 -1.1998
  533MOL0     C71853   6.035   2.909   2.355 -0.3403 -0.8068  0.5708
  533MOL0     C71854   5.905   2.957   2.409 -0.4113 -0.0208  0.4976
  533MOL0     C71855   5.798   2.960   2.326 -0.4461  0.5000 -0.1283
  533MOL0     O71856   5.681   3.002   2.382  0.3065 -0.4900 -0.3440
  533MOL0     C71857   5.575   3.041   2.300  0.1717 -0.1531 -0.3062
  533MOL0     C71858   5.447   3.064   2.375  0.4284 -0.4429 -0.7068
  533MOL0     C71859   5.325   3.018   2.305  0.1868  0.6516  0.5312
  533MOL0     C71860   5.203   3.074   2.365 -0.0116  0.9989 -0.4596
  533MOL0     C71861   5.085   3.039   2.278  1.2717  0.2720 -0.1805
  533MOL0     C71862   4.952   3.106   2.327 -0.7100  0.9608 -0.0884
  533MOL0     C71863   4.837   3.058   2.236  0.0065  0.2990 -0.3442
  533MOL0     C71864   4.704   3.042   2.306 -0.1421  0.2620  0.4514
  533MOL0    Cl71865   4.646   3.196   2.339 -0.0157  0.1724 -0.0291
  533MOL0     C71866   5.809   2.918   2.192 -0.4479  0.2857 -0.3294
  533MOL0     C71867   5.928   2.852   2.150  0.0027  0.6061 -0.0663
  533MOL0     O71868   6.124   2.607   2.297  0.1776  0.0925  0.5148
  533MOL0     C71869   6.335   2.477   2.149  0.4165  0.8051 -0.3995
  533MOL0     C71870   6.453   2.407   2.121 -0.1089  0.1639  0.5126
  533MOL0     N71871   7.174   2.180   2.069  0.5633 -0.4573  0.2923
  533MOL0     N71872   7.287   2.197   2.134  0.8815  0.1123  0.0226
  533MOL0     C71873   8.061   1.533   2.333 -0.7708 -0.1022  0.6590
  533MOL0     C71874   8.038   1.436   2.435 -0.7186 -0.0195 -0.0294
  533MOL0     C71875   7.936   1.201   2.774 -0.9472 -0.6472  0.2308
  533MOL0     C71876   8.048   1.141   2.830 -0.2173 -1.1466 -1.4051
  533MOL0     C71877   8.044   1.040   2.926  0.0983  0.1889 -0.0184
  533MOL0     C71878   7.916   0.983   2.957  0.2216 -0.2331 -0.0945
  533MOL0     O71879   7.886   0.892   3.056 -0.0438 -0.2199  0.2865
  533MOL0     C71880   7.984   0.859   3.153  0.1068 -0.3668  0.6977
  533MOL0     C71881   7.908   0.773   3.257  0.0757 -0.0291 -0.4065
  533MOL0     C71882   7.874   0.865   3.371  0.3608 -0.4048 -0.1374
  533MOL0     C71883   7.822   0.796   3.494  0.5966  0.9145  0.0730
  533MOL0     C71884   7.701   0.719   3.464  0.5815  0.3469  0.0024
  533MOL0     C71885   7.597   0.650   3.447 -0.2997 -0.6842 -0.2819
  533MOL0     C71886   7.811   1.036   2.894  1.0483  0.6949  1.4868
  533MOL0     C71887   7.817   1.146   2.809 -0.2166  0.6752  0.2411
  533MOL0     H71888   8.120   1.618   2.710  1.7237 -0.5959  0.1057
  533MOL0     H71889   8.162   1.794   2.526 -3.3356  0.9861 -1.2654
  533MOL0     H71890   8.075   1.926   2.373 -0.5476  0.5142 -0.2778
  533MOL0     H71891   8.028   1.948   2.206 -1.8057  1.9113  2.0874
  533MOL0     H71892   7.817   1.809   2.241  1.4820  0.4536 -1.7375
  533MOL0     H71893   7.863   1.787   2.406 -2.3305 -0.2568 -0.3709
  533MOL0     H71894   7.697   1.960   2.378  0.0778 -0.0083  0.6299
  533MOL0     H71895   7.843   2.042   2.439  0.4306 -1.7929  1.2324
  533MOL0     H71896   7.893   2.128   2.224  0.5542  0.0052 -0.2749
  533MOL0     H71897   7.746   2.044   2.153 -0.7657  2.0428 -0.4632
  533MOL0     H71898   7.742   2.252   2.378  0.0829  1.9620 -0.1593
  533MOL0     H71899   7.729   2.287   2.195 -0.2170 -1.3878 -1.5252
  533MOL0     H71900   7.528   2.146   2.181  1.8317 -0.6247  0.2599
  533MOL0     H71901   7.529   2.116   2.354  1.0866 -0.5413  0.7604
  533MOL0     H71902   7.382   2.300   2.361 -1.3421  3.2584  0.3994
  533MOL0     H71903   7.542   2.383   2.361 -0.0086  0.8793 -0.7469
  533MOL0     H71904   7.521   2.387   2.098 -1.1969 -0.0788 -1.9953
  533MOL0     H71905   7.411   2.490   2.184  0.0107 -0.8405 -2.4566
  533MOL0     H71906   7.305   2.449   1.921  1.7163  1.2665  1.6505
  533MOL0     H71907   7.107   2.369   1.801  0.1477  1.0788  0.3232
  533MOL0     H71908   7.037   2.204   1.830 -1.4697 -0.6201  1.3890
  533MOL0     H71909   6.869   2.390   1.851 -1.9659 -3.0054 -0.8349
  533MOL0     H71910   6.936   2.430   2.008 -0.2714 -0.6483  1.3476
  533MOL0     H71911   6.902   2.235   2.113 -2.9369  2.3677  2.3478
  533MOL0     H71912   6.852   2.150   1.958 -1.5710  0.4156 -0.3849
  533MOL0     H71913   6.643   2.213   2.103 -0.5486 -0.3023 -0.1227
  533MOL0     H71914   6.652   2.292   1.944  2.8270  1.0178 -1.3244
  533MOL0     H71915   6.673   2.651   2.171  0.6903 -0.4667  1.7478
  533MOL0     H71916   6.558   2.848   2.279  0.8651  1.8768 -3.3352
  533MOL0     H71917   6.451   2.886   2.145  1.6106  0.2662 -0.6822
  533MOL0     H71918   6.380   2.851   2.302  1.1039  1.4655  0.6457
  533MOL0     H71919   6.124   2.919   2.416  0.3484 -3.0015 -0.0095
  533MOL0     H71920   5.889   2.979   2.514 -2.1746 -2.2898  0.7772
  533MOL0     H71921   5.596   3.121   2.229 -1.7769 -0.1777 -0.9803
  533MOL0     H71922   5.552   2.955   2.237  0.9710  0.0441 -0.8861
  533MOL0     H71923   5.463   3.008   2.467  5.0266 -0.0181 -0.9738
  533MOL0     H71924   5.435   3.171   2.389 -1.3131 -0.6222 -0.7034
  533MOL0     H71925   5.335   2.909   2.316  3.7241  0.9679  1.6166
  533MOL0     H71926   5.342   3.037   2.199  3.3825 -2.4350  0.2803
  533MOL0     H71927   5.194   3.041   2.469 -1.5244  0.8751 -0.6153
  533MOL0     H71928   5.203   3.184   2.368 -2.2818  1.0441 -0.6523
  533MOL0     H71929   5.076   2.930   2.279  2.1729  0.1634  1.7768
  533MOL0     H71930   5.111   3.061   2.175 -0.9630  0.2542 -0.8126
  533MOL0     H71931   4.938   3.080   2.433 -2.9854 -0.6377 -0.7245
  533MOL0     H71932   4.961   3.215   2.324  0.0932  0.8793 -1.9411
  533MOL0     H71933   4.856   2.961   2.190  2.5595  0.6145 -0.1322
  533MOL0     H71934   4.823   3.132   2.157  0.3643 -0.7085 -1.3821
  533MOL0     H71935   4.733   2.997   2.402  0.9270  2.8665  1.4455
  533MOL0     H71936   4.626   2.984   2.257 -3.3216  1.4306  3.6900
  533MOL0     H71937   5.732   2.912   2.116  1.1837  1.6558 -2.1951
  533MOL0     H71938   5.946   2.812   2.051 -1.4754 -0.8692  0.2309
  533MOL0     H71939   6.242   2.422   2.139  1.1411 -0.2439 -1.8041
  533MOL0     H71940   6.440   2.306   2.083 -2.0079  0.6711 -0.2803
  533MOL0     H71941   8.034   1.503   2.232  2.4826 -4.1778  0.7374
  533MOL0     H71942   8.008   1.334   2.414  0.7828 -0.7150  1.0017
  533MOL0     H71943   8.144   1.186   2.806  0.6954 -1.4815  1.3578
  533MOL0     H71944   8.129   1.009   2.985 -0.2445  0.6636  0.7379
  533MOL0     H71945   8.059   0.798   3.102  0.1049  1.6412 -1.9013
  533MOL0     H71946   8.025   0.946   3.204  1.5555 -1.1421  0.8916
  533MOL0     H71947   7.963   0.685   3.293 -0.2568  0.7365  2.1912
  533MOL0     H71948   7.819   0.743   3.201  0.9847 -0.7570 -1.5128
  533MOL0     H71949   7.801   0.933   3.326  0.9216 -2.0879 -4.0721
  533MOL0     H71950   7.966   0.919   3.396  0.2528 -0.5285  0.5414
  533MOL0     H71951   7.812   0.863   3.581 -0.2056 -0.9181  1.4577
  533MOL0     H71952   7.899   0.727   3.530 -0.3543  0.0284  0.4531
  533MOL0     H71953   7.510   0.591   3.425  0.5344 -2.6661  1.3443
  533MOL0     H71954   7.716   0.986   2.908  0.2987  0.7281 -2.3737
  533MOL0     H71955   7.717   1.177   2.780 -0.3323  1.4176  1.3551
  534MOL0     O71956   6.646   2.763   5.926  0.0042 -0.6597  0.6086
  534MOL0     C71957   6.709   2.797   5.827  0.1720 -0.4668  0.8443
  534MOL0     O71958   6.660   2.874   5.719  0.0718  0.3953 -0.0467
  534MOL0     C71959   6.534   2.921   5.725  0.6552  0.2229 -0.0914
  534MOL0     C71960   6.423   2.840   5.740 -0.2923 -0.5763 -0.5495
  534MOL0     C71961   6.295   2.894   5.731  0.6507  0.0637 -0.1159
  534MOL0     C71962   6.273   3.033   5.706  0.9050  0.0208  0.4630
  534MOL0     O71963   6.141   3.070   5.697 -0.7356 -0.0392  0.1627
  534MOL0     C71964   6.093   3.192   5.646 -0.0804  0.4623 -0.4669
  534MOL0     C71965   5.947   3.210   5.683 -0.0860  0.9501  0.6135
  534MOL0     C71966   5.912   3.251   5.831  0.2749  1.0611 -0.0357
  534MOL0     C71967   5.984   3.373   5.876 -0.6156  0.4093  0.1146
  534MOL0     C71968   5.952   3.396   6.018  0.4612  0.1458 -0.6414
  534MOL0     C71969   5.999   3.529   6.067  1.0109 -0.2544  0.0534
  534MOL0     C71970   5.922   3.559   6.196 -0.0472  0.5571 -0.4673
  534MOL0     C71971   5.977   3.690   6.259 -0.6203  0.0348  0.4790
  534MOL0     N71972   6.105   3.672   6.328 -0.3094 -0.2533 -0.6386
  534MOL0     C71973   6.121   3.658   6.462  0.7097  0.1814 -0.1923
  534MOL0     C71974   6.251   3.682   6.478  0.3715  0.6510  0.0365
  534MOL0     C71975   6.331   3.672   6.604 -0.1054  0.1222  0.8585
  534MOL0     C71976   6.339   3.811   6.673 -0.1200  0.1644  0.3389
  534MOL0     C71977   6.410   3.801   6.813 -1.2197 -0.4989 -0.6747
  534MOL0     C71978   6.561   3.797   6.780  0.4292  0.4810 -0.2718
  534MOL0     O71979   6.625   3.760   6.900  0.3821  0.5247 -0.2953
  534MOL0     C71980   6.762   3.776   6.911  0.0554  0.6932  0.3864
  534MOL0     C71981   6.841   3.833   6.811 -0.5650 -0.7661 -0.2891
  534MOL0     C71982   6.978   3.862   6.820 -0.5086  0.5182 -0.0588
  534MOL0     C71983   7.050   3.891   6.690  0.0034  0.0490 -0.0367
  534MOL0     C71984   7.037   3.835   6.948 -0.2604 -0.4244 -0.7618
  534MOL0     C71985   7.176   3.883   6.976  0.3082  0.1229 -0.0179
  534MOL0     O71986   7.245   3.814   7.069 -0.1600  0.4164 -0.4536
  534MOL0     C71987   7.382   3.836   7.056  0.4669  0.1737 -0.6359
  534MOL0     C71988   7.444   3.907   7.151 -0.1049  0.9913 -0.8225
  534MOL0     C71989   7.581   3.937   7.147  0.2158  0.0000 -0.1938
  534MOL0     C71990   7.653   3.891   7.043  0.2746 -0.4858 -0.0203
  534MOL0     O71991   7.789   3.909   7.044 -0.2275 -0.1982 -0.8972
  534MOL0     C71992   7.865   3.840   7.142  0.0336 -0.3532 -0.1237
  534MOL0     C71993   8.016   3.863   7.113  0.3946 -0.4137 -0.6060
  534MOL0     C71994   8.095   3.782   7.220 -0.0475 -0.5322  0.6587
  534MOL0     C71995   8.251   3.786   7.190  0.4704  0.4693  0.2250
  534MOL0     C71996   8.328   3.924   7.197  0.1734  0.1016  0.3118
  534MOL0     C71997   8.471   3.897   7.129 -0.0045 -1.3925  0.1196
  534MOL0     C71998   8.566   4.015   7.140  0.2930 -0.5244  0.3656
  534MOL0     C71999   8.700   3.975   7.085 -0.2640 -0.1592 -0.1774
  534MOL0    Cl72000   8.813   4.071   7.171  0.3183 -0.1259  0.0495
  534MOL0     C72001   7.594   3.827   6.939  1.6530 -0.3841  0.1613
  534MOL0     C72002   7.459   3.795   6.941  0.4827 -0.2529 -0.0892
  534MOL0     O72003   7.208   3.989   6.918 -0.1166 -0.1151 -0.2130
  534MOL0     C72004   6.957   3.773   7.051 -1.1100 -0.0339  0.4737
  534MOL0     C72005   6.828   3.739   7.026  0.0682  0.3880 -0.0761
  534MOL0     N72006   6.314   3.720   6.365 -0.6996 -0.1252  0.1716
  534MOL0     N72007   6.222   3.728   6.274 -0.2548  0.1472 -1.3110
  534MOL0     C72008   6.383   3.114   5.688 -0.8483 -0.7715  0.3769
  534MOL0     C72009   6.510   3.057   5.698 -0.0182  0.5572 -0.5582
  534MOL0     C72010   6.854   2.759   5.820  0.1652 -0.4090  0.3089
  534MOL0     C72011   6.890   2.637   5.885 -0.0289  0.4462 -0.2742
  534MOL0     C72012   7.022   2.583   5.881  0.3752  0.4112 -0.1485
  534MOL0     C72013   7.115   2.658   5.809 -0.4363  0.4638 -0.2900
  534MOL0     O72014   7.252   2.614   5.807  0.7350 -0.2964 -0.2821
  534MOL0     C72015   7.295   2.512   5.888 -0.8952 -0.1056 -0.2033
  534MOL0     C72016   7.444   2.532   5.897 -0.4218  0.1693 -0.6200
  534MOL0     C72017   7.522   2.420   5.960 -0.1893  0.5908  0.3463
  534MOL0     C72018   7.676   2.430   5.916  0.6958 -0.4350 -0.7326
  534MOL0     C72019   7.757   2.406   6.036  0.8321 -0.1286  0.4553
  534MOL0     C72020   7.838   2.389   6.129 -0.8383 -0.4820  0.2679
  534MOL0     C72021   7.080   2.773   5.742 -0.3791 -0.5374  0.2888
  534MOL0     C72022   6.958   2.824   5.741 -0.3575  0.0453 -0.6195
  534MOL0     H72023   6.440   2.735   5.765  1.9717  0.0566  0.8657
  534MOL0     H72024   6.205   2.832   5.731 -0.1420  1.1480 -1.6974
  534MOL0     H72025   6.145   3.285   5.672  0.6967 -1.0898  4.7544
  534MOL0     H72026   6.099   3.181   5.538 -0.1288 -0.7196 -0.3695
  534MOL0     H72027   5.913   3.284   5.611  0.8840 -1.0992 -2.1249
  534MOL0     H72028   5.895   3.118   5.656  0.4973  0.6203  0.5836
  534MOL0     H72029   5.804   3.261   5.837 -0.0229 -1.6405  0.6214
  534MOL0     H72030   5.938   3.172   5.902  1.5761  1.2024 -0.3260
  534MOL0     H72031   6.092   3.370   5.862 -0.6924 -1.6496 -0.4019
  534MOL0     H72032   5.944   3.448   5.807 -0.1841 -0.3611 -0.9996
  534MOL0     H72033   5.843   3.401   6.032  0.0881 -0.7285 -2.8169
  534MOL0     H72034   5.992   3.313   6.078  0.2590  1.1381  0.9206
  534MOL0     H72035   6.106   3.517   6.085  1.2048 -0.2442 -1.0487
  534MOL0     H72036   5.986   3.606   5.991 -0.5031  2.5238  2.8852
  534MOL0     H72037   5.814   3.566   6.180 -0.3827 -1.3254  0.6508
  534MOL0     H72038   5.942   3.479   6.268  1.3689  0.1893 -1.2241
  534MOL0     H72039   5.900   3.716   6.332  1.2786  1.1949  2.2097
  534MOL0     H72040   5.982   3.774   6.189  0.2133  0.5544  1.1312
  534MOL0     H72041   6.054   3.633   6.544  2.0576  1.7180  1.4910
  534MOL0     H72042   6.285   3.602   6.674  3.2272 -1.8972  1.2352
  534MOL0     H72043   6.433   3.648   6.572 -1.2375 -2.0112 -1.5483
  534MOL0     H72044   6.235   3.843   6.684 -0.5315 -0.5390 -1.2033
  534MOL0     H72045   6.388   3.888   6.612  0.3397 -0.2139  0.2225
  534MOL0     H72046   6.372   3.715   6.869  0.3206 -1.9096 -1.6830
  534MOL0     H72047   6.399   3.898   6.861  0.8919 -1.2822  1.6204
  534MOL0     H72048   6.588   3.894   6.737 -1.9084  1.8552  1.1515
  534MOL0     H72049   6.579   3.715   6.709 -0.5461  0.3897 -0.4248
  534MOL0     H72050   6.792   3.858   6.717  0.8642  2.3248 -0.3114
  534MOL0     H72051   7.034   3.996   6.665 -0.0922  1.1081  3.8797
  534MOL0     H72052   7.157   3.869   6.701 -0.1931 -0.9123  0.0458
  534MOL0     H72053   7.008   3.817   6.621 -2.1904  2.0666 -0.9968
  534MOL0     H72054   7.391   3.939   7.240  2.5969 -0.7705  1.5963
  534MOL0     H72055   7.610   4.002   7.230 -1.9574  0.8086 -0.0104
  534MOL0     H72056   7.839   3.879   7.241  1.3683 -3.4475  1.5756
  534MOL0     H72057   7.848   3.733   7.134  1.2217 -0.4148 -2.6255
  534MOL0     H72058   8.047   3.845   7.010 -1.1833  2.2611 -1.6660
  534MOL0     H72059   8.052   3.966   7.128  0.7496 -0.3651 -1.7065
  534MOL0     H72060   8.058   3.679   7.221  0.4589 -0.7224  0.0706
  534MOL0     H72061   8.086   3.826   7.320  0.9307 -1.3404  1.1284
  534MOL0     H72062   8.296   3.716   7.261  2.3436  1.9653  0.6162
  534MOL0     H72063   8.268   3.741   7.092 -1.9792 -0.5927  0.2187
  534MOL0     H72064   8.347   3.969   7.295 -0.2298  0.2829  0.3086
  534MOL0     H72065   8.266   3.996   7.144  0.1397 -0.1559 -0.0046
  534MOL0     H72066   8.518   3.810   7.175 -2.0159 -2.0525  0.9960
  534MOL0     H72067   8.464   3.873   7.022  0.5185  0.0581 -0.2630
  534MOL0     H72068   8.587   4.049   7.242 -0.5570  1.5067 -0.0699
  534MOL0     H72069   8.526   4.104   7.089 -1.1305 -0.2087  1.9579
  534MOL0     H72070   8.701   3.990   6.977 -0.5212 -0.2880 -0.1997
  534MOL0     H72071   8.725   3.869   7.096 -0.4615 -0.1272  0.6435
  534MOL0     H72072   7.649   3.806   6.848 -0.3328 -1.6098 -0.8193
  534MOL0     H72073   7.405   3.747   6.860  1.3616  0.6525 -1.2374
  534MOL0     H72074   7.009   3.742   7.141  3.3542  0.8347 -1.5685
  534MOL0     H72075   6.772   3.678   7.097  0.4191 -0.7787 -0.7748
  534MOL0     H72076   6.378   3.220   5.668  0.1692 -0.8661 -0.4999
  534MOL0     H72077   6.599   3.117   5.680  0.7251 -0.8375 -1.6160
  534MOL0     H72078   6.816   2.573   5.933 -1.3752 -0.9643 -3.8520
  534MOL0     H72079   7.050   2.495   5.938 -1.1326 -0.1122 -0.1624
  534MOL0     H72080   7.262   2.532   5.990  1.1020 -0.3424  0.5261
  534MOL0     H72081   7.254   2.416   5.856 -3.6321  0.4909  1.1789
  534MOL0     H72082   7.472   2.624   5.949 -0.1674  0.9398 -2.0706
  534MOL0     H72083   7.482   2.552   5.796  1.3669  2.0313  0.3387
  534MOL0     H72084   7.477   2.327   5.923 -2.0494  0.2414  3.1754
  534MOL0     H72085   7.496   2.424   6.066 -0.3464  0.7931  0.3012
  534MOL0     H72086   7.688   2.535   5.887 -0.1840 -0.1738 -0.1928
  534MOL0     H72087   7.697   2.370   5.827  1.3463 -1.9168  0.3849
  534MOL0     H72088   7.894   2.376   6.219 -1.2631  1.2708  0.8210
  534MOL0     H72089   7.160   2.838   5.709 -1.5511  0.4177 -0.8089
  534MOL0     H72090   6.935   2.920   5.695  0.2799  0.6110  0.2034
  535MOL0     O72091   2.228  11.011   7.492 -0.0391 -0.5188  0.0468
  535MOL0     C72092   2.301  10.907   7.504  0.0586 -0.6845  0.1399
  535MOL0     O72093   2.278  10.782   7.458 -0.1352 -0.2306  0.3446
  535MOL0     C72094   2.174  10.767   7.373  0.3863 -0.3520 -0.3533
  535MOL0     C72095   2.177  10.797   7.238  0.2119  0.4413  0.1207
  535MOL0     C72096   2.062  10.789   7.163  0.3705  0.0604 -0.1634
  535MOL0     C72097   1.939  10.748   7.222 -0.6412  0.7183 -0.1618
  535MOL0     O72098   1.824  10.702   7.155  0.8778 -0.7767 -0.1691
  535MOL0     C72099   1.793  10.763   7.024 -0.3074  0.8927 -0.0140
  535MOL0     C72100   1.639  10.803   7.030  0.2006  0.3372  0.7613
  535MOL0     C72101   1.546  10.681   7.055  0.8210  0.2535 -0.0780
  535MOL0     C72102   1.502  10.613   6.919 -0.7507  0.4893  0.3563
  535MOL0     C72103   1.384  10.506   6.936  0.0609  0.0261 -0.2196
  535MOL0     C72104   1.327  10.477   6.801 -0.5107 -0.3837 -0.4005
  535MOL0     C72105   1.253  10.346   6.802 -1.0179  0.0208 -0.7070
  535MOL0     C72106   1.117  10.368   6.881  0.6693  0.6071  0.1813
  535MOL0     N72107   1.016  10.423   6.786  0.7437 -0.1134 -0.0555
  535MOL0     C72108   0.927  10.351   6.700 -0.0291 -0.9969 -0.5487
  535MOL0     C72109   0.856  10.457   6.636 -0.6494  0.2579  0.3878
  535MOL0     C72110   0.735  10.446   6.533 -1.1169  0.1079 -0.7222
  535MOL0     C72111   0.626  10.553   6.542  0.0982 -0.6118 -0.7630
  535MOL0     C72112   0.565  10.570   6.690 -0.3958  0.1699  0.4581
  535MOL0     C72113   0.417  10.591   6.695  0.8258  0.6144  0.6363
  535MOL0     O72114   0.388  10.695   6.594 -0.2248  0.3876  0.0678
  535MOL0     C72115   0.258  10.740   6.575  0.7936  0.3486 -0.6959
  535MOL0     C72116   0.146  10.691   6.651 -0.3170 -0.7229 -0.0087
  535MOL0     C72117   0.013  10.734   6.633 -0.7457 -0.1950  0.7374
  535MOL0     C72118  -0.090  10.683   6.724  0.2540 -0.1014 -0.2544
  535MOL0     C72119  -0.014  10.817   6.516  0.6207  0.4760  0.2691
  535MOL0     C72120  -0.151  10.863   6.468  0.3707 -0.3571  0.8574
  535MOL0     O72121  -0.169  10.990   6.411 -0.2379 -0.4026 -0.3049
  535MOL0     C72122  -0.290  11.019   6.353 -0.0620 -0.0845 -0.0583
  535MOL0     C72123  -0.383  11.109   6.409 -0.0827 -0.4144 -0.0560
  535MOL0     C72124  -0.497  11.151   6.341 -0.2081 -0.2822  0.1778
  535MOL0     C72125  -0.516  11.113   6.209 -0.4005 -0.7495  0.8660
  535MOL0     O72126  -0.621  11.134   6.124 -0.0356 -0.4980  0.5400
  535MOL0     C72127  -0.734  11.196   6.182  0.7473 -0.2627 -0.4319
  535MOL0     C72128  -0.862  11.199   6.090 -0.0275  0.1329 -0.2265
  535MOL0     C72129  -0.895  11.057   6.023 -0.0747 -0.8382  0.8121
  535MOL0     C72130  -1.042  11.066   5.975 -0.1187  0.3370  1.2956
  535MOL0     C72131  -1.085  10.946   5.884  0.6306 -0.2621 -0.0305
  535MOL0     C72132  -1.227  10.962   5.822  1.2055  0.2949  0.3381
  535MOL0     C72133  -1.262  10.862   5.715  0.7744 -0.0727  0.2245
  535MOL0     C72134  -1.401  10.865   5.652  0.2873  0.5200  0.1780
  535MOL0    Cl72135  -1.449  11.035   5.601 -0.0489 -0.7127 -0.4201
  535MOL0     C72136  -0.428  11.022   6.151  1.0865 -0.3486 -0.1154
  535MOL0     C72137  -0.315  10.976   6.221  0.6543 -0.0838  0.3864
  535MOL0     O72138  -0.233  10.775   6.477 -0.2872 -0.5292 -0.6867
  535MOL0     C72139   0.098  10.869   6.452  0.5450 -0.0951  0.1814
  535MOL0     C72140   0.226  10.839   6.484  0.3200  0.5700  0.9433
  535MOL0     N72141   0.900  10.582   6.688 -0.1524  0.7201 -0.6883
  535MOL0     N72142   0.998  10.561   6.773 -0.7179  1.0075  0.4368
  535MOL0     C72143   1.943  10.712   7.353  0.0074  0.3662  0.1677
  535MOL0     C72144   2.052  10.722   7.432  0.0273 -0.2723  0.0160
  535MOL0     C72145   2.429  10.921   7.570 -0.4059  0.5442  0.9560
  535MOL0     C72146   2.503  10.808   7.601 -1.2438 -0.3752 -0.2558
  535MOL0     C72147   2.632  10.824   7.653 -0.4710 -0.5639 -1.2222
  535MOL0     C72148   2.690  10.951   7.665  0.2028 -0.6332 -0.5195
  535MOL0     O72149   2.819  10.970   7.701 -0.4943  0.1272  0.4221
  535MOL0     C72150   2.918  10.864   7.686  0.0686 -0.7319  0.4620
  535MOL0     C72151   2.942  10.768   7.804  0.1822 -0.3463 -0.8796
  535MOL0     C72152   3.070  10.681   7.806  0.1898 -0.1995 -0.4555
  535MOL0     C72153   3.085  10.599   7.929 -0.2417  0.6117 -0.5947
  535MOL0     C72154   2.979  10.502   7.920  0.6477  0.1284  0.5644
  535MOL0     C72155   2.886  10.423   7.938  0.1847  0.5001  0.9391
  535MOL0     C72156   2.616  11.067   7.640  0.4156 -0.2412 -0.1553
  535MOL0     C72157   2.482  11.050   7.594  0.0697  1.2272  1.0072
  535MOL0     H72158   2.267  10.833   7.189 -0.2129  2.0626  0.4541
  535MOL0     H72159   2.060  10.805   7.056 -2.8591 -1.3650 -0.4283
  535MOL0     H72160   1.850  10.854   7.004  0.2794  1.1734  2.5778
  535MOL0     H72161   1.812  10.692   6.943  0.8776  0.1509  0.8905
  535MOL0     H72162   1.630  10.879   7.109  0.4840  1.5465 -0.3190
  535MOL0     H72163   1.605  10.861   6.944  0.8336  2.2517  1.7274
  535MOL0     H72164   1.593  10.611   7.124  1.1939  0.2043 -0.3744
  535MOL0     H72165   1.457  10.717   7.107  0.4718  0.2730 -0.6749
  535MOL0     H72166   1.461  10.692   6.856 -2.8175  0.7703  1.9655
  535MOL0     H72167   1.592  10.569   6.875 -0.4758  1.4872 -0.1164
  535MOL0     H72168   1.423  10.417   6.986  2.8970 -0.1435 -2.5035
  535MOL0     H72169   1.312  10.550   7.006 -1.5475 -2.0107 -0.4956
  535MOL0     H72170   1.265  10.561   6.768  1.0426  0.9953  0.0956
  535MOL0     H72171   1.404  10.473   6.723 -1.2675  3.9253 -1.6245
  535MOL0     H72172   1.215  10.326   6.701 -2.3175  1.9641 -0.6681
  535MOL0     H72173   1.319  10.263   6.829 -1.3947 -0.5146 -1.3836
  535MOL0     H72174   1.121  10.439   6.964 -0.3791 -1.3616  2.0294
  535MOL0     H72175   1.072  10.274   6.914 -0.1501  0.5331 -1.0670
  535MOL0     H72176   0.930  10.246   6.672  0.9105 -0.0428 -4.7284
  535MOL0     H72177   0.768  10.452   6.429 -0.7588  0.4930 -0.5868
  535MOL0     H72178   0.686  10.349   6.541 -0.2644 -0.2601  0.3381
  535MOL0     H72179   0.549  10.506   6.480  0.7859 -2.8019 -0.0645
  535MOL0     H72180   0.647  10.652   6.501 -1.4357  0.3995  0.7758
  535MOL0     H72181   0.614  10.650   6.745  0.0555 -0.0318  0.3579
  535MOL0     H72182   0.583  10.471   6.734  1.0295 -1.0945 -2.6625
  535MOL0     H72183   0.375  10.632   6.787  1.0359  1.1192  0.5155
  535MOL0     H72184   0.372  10.499   6.658  3.7079 -0.1849 -1.2590
  535MOL0     H72185   0.163  10.621   6.732  1.0711 -0.6232 -0.1847
  535MOL0     H72186  -0.118  10.579   6.709  0.7653 -0.6954  2.3866
  535MOL0     H72187  -0.051  10.689   6.826 -1.2759  2.1092  0.2805
  535MOL0     H72188  -0.177  10.749   6.731  1.0585  0.8317  1.6198
  535MOL0     H72189  -0.375  11.142   6.512 -2.7517 -0.5034  0.2561
  535MOL0     H72190  -0.557  11.222   6.398  0.1845 -0.0321  0.2831
  535MOL0     H72191  -0.760  11.129   6.264  1.2050  0.9794  0.7578
  535MOL0     H72192  -0.718  11.301   6.208 -0.0268 -0.0058 -0.9261
  535MOL0     H72193  -0.942  11.230   6.157  0.2947 -0.4043  0.4140
  535MOL0     H72194  -0.833  11.279   6.021  1.7953  1.3740  1.8543
  535MOL0     H72195  -0.895  10.982   6.103  2.0799  0.3368  2.0022
  535MOL0     H72196  -0.826  11.033   5.941 -3.4724 -1.7536 -2.0547
  535MOL0     H72197  -1.116  11.066   6.055  0.4354 -1.1280  1.8359
  535MOL0     H72198  -1.054  11.158   5.916  3.2308  0.5364  0.7198
  535MOL0     H72199  -1.085  10.858   5.949 -1.3575  1.5800  2.6669
  535MOL0     H72200  -1.006  10.934   5.809 -1.3899 -1.1928 -2.1424
  535MOL0     H72201  -1.300  10.956   5.903  1.3221  2.0972  0.6222
  535MOL0     H72202  -1.226  11.062   5.777 -0.1213  1.0405  1.8391
  535MOL0     H72203  -1.249  10.759   5.749 -0.9524 -0.6993 -0.8398
  535MOL0     H72204  -1.186  10.876   5.638  1.9574 -2.3834  0.8738
  535MOL0     H72205  -1.480  10.833   5.720  0.1674 -1.0449 -0.6313
  535MOL0     H72206  -1.401  10.798   5.565 -1.0105  0.1451  0.4452
  535MOL0     H72207  -0.451  10.990   6.049  1.9023 -2.9339  0.4268
  535MOL0     H72208  -0.247  10.910   6.168 -0.5083  0.0463 -1.3322
  535MOL0     H72209   0.078  10.938   6.370  3.1184  0.7567  0.1930
  535MOL0     H72210   0.318  10.881   6.443 -0.4011  0.5511 -0.7918
  535MOL0     H72211   1.849  10.669   7.387 -0.6650  1.3523 -0.3978
  535MOL0     H72212   2.041  10.690   7.535 -1.5693 -0.7363 -0.2644
  535MOL0     H72213   2.470  10.706   7.582  0.8691 -1.4875  1.5642
  535MOL0     H72214   2.683  10.730   7.675 -2.0349 -0.8610  1.7571
  535MOL0     H72215   2.901  10.801   7.598  1.6520 -2.7241  1.4781
  535MOL0     H72216   3.011  10.920   7.679 -1.5265  1.8915 -1.2572
  535MOL0     H72217   2.860  10.696   7.815  0.7019 -1.0144 -1.3037
  535MOL0     H72218   2.950  10.825   7.898  0.6688 -3.4377  1.0909
  535MOL0     H72219   3.154  10.751   7.802  0.6195 -0.5356  1.7298
  535MOL0     H72220   3.075  10.611   7.722  1.2041  1.3779 -1.7721
  535MOL0     H72221   3.071  10.656   8.022  0.4193  0.5409 -0.4425
  535MOL0     H72222   3.184  10.552   7.930 -1.7502 -2.9755 -2.3486
  535MOL0     H72223   2.815  10.343   7.949  0.4909  0.2159  0.8786
  535MOL0     H72224   2.662  11.164   7.658 -0.3926 -0.2115  2.1229
  535MOL0     H72225   2.421  11.140   7.588 -0.6005  0.8202  1.5719
  536MOL0     O72226   1.899   6.595  10.796  0.7249  0.0017 -0.0658
  536MOL0     C72227   1.989   6.629  10.723 -0.2931  0.7866 -0.1282
  536MOL0     O72228   1.983   6.728  10.637  0.0741 -0.3453  0.3366
  536MOL0     C72229   1.879   6.813  10.643  0.1369  0.0345  0.6843
  536MOL0     C72230   1.809   6.852  10.525 -0.7053 -0.1984  0.5014
  536MOL0     C72231   1.699   6.945  10.529  0.6998 -0.3414  0.4724
  536MOL0     C72232   1.661   7.011  10.645  0.1965 -0.1782 -0.7734
  536MOL0     O72233   1.556   7.102  10.634 -0.5746  0.3959 -0.3943
  536MOL0     C72234   1.459   7.097  10.739  0.1496  0.1868  0.3466
  536MOL0     C72235   1.345   7.198  10.712 -0.3522  0.1311  0.1315
  536MOL0     C72236   1.252   7.211  10.833 -0.1352  0.7601 -0.8448
  536MOL0     C72237   1.122   7.290  10.813 -0.0804 -1.2515  0.1323
  536MOL0     C72238   1.108   7.413  10.905  0.5713 -0.1921  0.0864
  536MOL0     C72239   1.234   7.502  10.882 -0.4297  0.4881  0.0981
  536MOL0     C72240   1.220   7.624  10.977  0.4241  1.4618  1.0666
  536MOL0     C72241   1.232   7.592  11.127  0.6636 -0.1205  0.2093
  536MOL0     N72242   1.342   7.499  11.158 -0.5497  0.1735  0.3753
  536MOL0     C72243   1.475   7.512  11.128 -0.3824  0.1184  0.7482
  536MOL0     C72244   1.532   7.383  11.115 -0.2098  0.5237 -0.5587
  536MOL0     C72245   1.673   7.336  11.075 -0.0335  0.0085  0.6407
  536MOL0     C72246   1.747   7.409  10.961  0.3809  0.4255 -0.2500
  536MOL0     C72247   1.663   7.385  10.830 -0.4645  0.2296  0.2497
  536MOL0     C72248   1.722   7.457  10.709  0.0344 -0.1490  1.0464
  536MOL0     O72249   1.744   7.593  10.738 -0.2020 -0.4275 -0.6107
  536MOL0     C72250   1.649   7.684  10.717  0.1513 -0.2722 -0.0716
  536MOL0     C72251   1.691   7.814  10.706 -0.6818 -0.5449 -0.4260
  536MOL0     C72252   1.612   7.915  10.657  0.2695 -0.2528 -1.0136
  536MOL0     C72253   1.680   8.041  10.645 -0.0046 -0.8432  0.0887
  536MOL0     C72254   1.476   7.898  10.640  0.8093  1.1191  0.1004
  536MOL0     C72255   1.381   8.004  10.596  0.8353 -0.0474 -0.7110
  536MOL0     O72256   1.256   7.960  10.573 -0.6430 -0.2695  0.5966
  536MOL0     C72257   1.170   8.042  10.504 -0.1812 -0.1271  0.1794
  536MOL0     C72258   1.121   8.159  10.570  0.1248 -0.7899  0.4923
  536MOL0     C72259   1.027   8.242  10.503 -0.7276  0.2248 -0.5321
  536MOL0     C72260   0.974   8.202  10.381 -0.3078  0.2583 -0.2979
  536MOL0     O72261   0.888   8.275  10.311 -0.2917 -0.2476  0.3124
  536MOL0     C72262   0.756   8.250  10.355 -0.1425  1.1226 -0.5381
  536MOL0     C72263   0.672   8.224  10.230 -0.3297  0.0686 -1.3218
  536MOL0     C72264   0.523   8.224  10.248  0.0381  0.8740  0.1434
  536MOL0     C72265   0.448   8.204  10.117  0.0094  0.0250 -0.8085
  536MOL0     C72266   0.299   8.204  10.151 -0.0841 -1.0032 -0.2084
  536MOL0     C72267   0.223   8.180  10.017 -0.8844  0.6256 -0.8704
  536MOL0     C72268   0.074   8.151  10.050 -0.7924 -0.0581  0.6823
  536MOL0     C72269   0.002   8.081   9.930  0.4430 -0.2203 -0.0099
  536MOL0    Cl72270  -0.057   8.201   9.819  0.7925  0.2624  0.3597
  536MOL0     C72271   1.007   8.079  10.328 -0.1748 -0.3936 -0.2044
  536MOL0     C72272   1.111   7.998  10.386  0.3965  0.0309 -0.2709
  536MOL0     O72273   1.418   8.124  10.596 -0.1294  0.5750  0.3501
  536MOL0     C72274   1.422   7.766  10.652 -0.6608 -0.1196 -0.7369
  536MOL0     C72275   1.508   7.657  10.702 -0.6179  0.0492 -0.0545
  536MOL0     N72276   1.428   7.306  11.156 -0.3537  0.7841 -0.0139
  536MOL0     N72277   1.316   7.372  11.176  0.0337 -0.3088 -0.0405
  536MOL0     C72278   1.735   6.975  10.759  0.3869 -0.0300 -0.3692
  536MOL0     C72279   1.844   6.886  10.753  0.6362 -0.1299  0.0624
  536MOL0     C72280   2.112   6.545  10.703 -0.7874 -0.2781 -0.0520
  536MOL0     C72281   2.145   6.438  10.802 -0.1956  0.6153  0.3855
  536MOL0     C72282   2.254   6.359  10.782 -0.6344  0.5421  0.6535
  536MOL0     C72283   2.352   6.404  10.683  1.1038  1.1826 -0.3296
  536MOL0     O72284   2.471   6.340  10.658 -0.1388  0.6284 -0.3527
  536MOL0     C72285   2.489   6.213  10.734  0.5436 -0.5334  0.3826
  536MOL0     C72286   2.611   6.135  10.668  0.7908  0.0829 -0.9404
  536MOL0     C72287   2.749   6.194  10.695  0.6535 -0.1476  0.7030
  536MOL0     C72288   2.864   6.123  10.607 -0.2830  0.3695 -0.0481
  536MOL0     C72289   2.839   6.083  10.464 -0.4818 -1.2018  0.5751
  536MOL0     C72290   2.794   6.072  10.350  0.6842 -0.0309 -0.0084
  536MOL0     C72291   2.326   6.508  10.594  0.3481  0.4240 -0.3096
  536MOL0     C72292   2.210   6.565  10.598  0.5707  0.4287  0.5519
  536MOL0     H72293   1.837   6.820  10.425 -0.1415  3.6251 -0.7155
  536MOL0     H72294   1.645   6.956  10.435 -0.0518  0.8400  1.0251
  536MOL0     H72295   1.407   7.000  10.733  0.9623 -0.2385 -0.1064
  536MOL0     H72296   1.515   7.110  10.832  1.1038 -0.8406 -0.0504
  536MOL0     H72297   1.383   7.298  10.688  0.0192  0.4077  1.7685
  536MOL0     H72298   1.279   7.169  10.630 -0.1544  2.2089 -0.8172
  536MOL0     H72299   1.230   7.106  10.854  0.3523  1.0166  1.1348
  536MOL0     H72300   1.314   7.247  10.916 -0.2795 -1.1815  0.1661
  536MOL0     H72301   1.112   7.323  10.709 -3.3645 -1.4901  0.2737
  536MOL0     H72302   1.034   7.227  10.826 -0.4085 -0.6661  0.8388
  536MOL0     H72303   1.017   7.470  10.885 -0.2701 -1.6810 -0.5668
  536MOL0     H72304   1.105   7.372  11.007  2.7276  2.1963  1.2148
  536MOL0     H72305   1.329   7.450  10.900  0.6869  2.3495 -0.2394
  536MOL0     H72306   1.239   7.536  10.779 -1.1992  2.6216  0.7186
  536MOL0     H72307   1.305   7.688  10.954  0.7470  0.6774 -0.0205
  536MOL0     H72308   1.129   7.682  10.958 -0.5829 -0.7419 -1.4825
  536MOL0     H72309   1.138   7.547  11.160 -0.3437  1.5901 -0.2089
  536MOL0     H72310   1.234   7.681  11.190 -2.4762  0.1191  0.1085
  536MOL0     H72311   1.525   7.606  11.106 -0.8802  0.5241  1.3320
  536MOL0     H72312   1.741   7.344  11.161  0.4871  2.2032  0.1058
  536MOL0     H72313   1.663   7.232  11.042 -1.1227 -0.2542  1.7053
  536MOL0     H72314   1.849   7.371  10.946 -0.3479 -4.3181  3.9790
  536MOL0     H72315   1.738   7.517  10.972 -0.9579  0.5173 -1.7864
  536MOL0     H72316   1.561   7.413  10.858  0.0292  1.7306  0.6630
  536MOL0     H72317   1.656   7.280  10.801 -1.1356  0.3638 -0.1046
  536MOL0     H72318   1.658   7.453  10.620 -0.8835  2.8638  1.4644
  536MOL0     H72319   1.819   7.407  10.693  0.5364  1.2690 -0.6767
  536MOL0     H72320   1.796   7.829  10.725 -0.5701 -1.6757 -0.0743
  536MOL0     H72321   1.650   8.102  10.730 -0.4287 -1.9235  0.7362
  536MOL0     H72322   1.790   8.039  10.640  0.1222  1.8576  0.7151
  536MOL0     H72323   1.652   8.098  10.556 -3.6771 -0.4807  1.3045
  536MOL0     H72324   1.164   8.197  10.663  0.5849 -1.5500  0.5963
  536MOL0     H72325   0.988   8.334  10.545  0.7003  0.6617 -0.0936
  536MOL0     H72326   0.750   8.160  10.417  0.8037 -0.0431 -2.0836
  536MOL0     H72327   0.725   8.332  10.422 -1.8737 -0.2547  0.4362
  536MOL0     H72328   0.693   8.307  10.163 -0.9633  0.5286 -0.9537
  536MOL0     H72329   0.697   8.124  10.193  1.7957 -1.0694  2.5408
  536MOL0     H72330   0.500   8.318  10.299  4.7839  1.5365  1.4712
  536MOL0     H72331   0.504   8.151  10.328 -0.3900  1.9037  1.0137
  536MOL0     H72332   0.476   8.270  10.034  2.8962 -0.1745 -0.1058
  536MOL0     H72333   0.481   8.103  10.090 -1.0102 -0.0454 -1.8514
  536MOL0     H72334   0.267   8.297  10.198  2.0972 -0.5465  0.4752
  536MOL0     H72335   0.280   8.122  10.221  1.4046 -1.0188  0.2244
  536MOL0     H72336   0.231   8.266   9.951  1.1336  1.6520  0.6067
  536MOL0     H72337   0.266   8.093   9.966  2.0631  2.7051 -2.1653
  536MOL0     H72338   0.021   8.243  10.077  1.1293  2.9531 -4.3935
  536MOL0     H72339   0.076   8.084  10.137  2.4810 -1.0332  0.0117
  536MOL0     H72340  -0.084   8.026   9.970  1.0082  0.0892  1.6859
  536MOL0     H72341   0.049   8.010   9.861  0.7863  0.5141 -0.5394
  536MOL0     H72342   0.953   8.060  10.236 -2.4122 -2.0604  1.3407
  536MOL0     H72343   1.147   7.907  10.339  0.5433 -0.0505 -0.0006
  536MOL0     H72344   1.322   7.729  10.631 -2.4995  1.8600  3.4272
  536MOL0     H72345   1.470   7.557  10.722  0.1852 -0.7711 -2.2956
  536MOL0     H72346   1.716   7.021  10.856 -1.5590  2.3229 -1.7368
  536MOL0     H72347   1.907   6.870  10.840  1.2897  1.2570 -0.1309
  536MOL0     H72348   2.086   6.420  10.891  1.6926 -0.3410  1.5114
  536MOL0     H72349   2.280   6.277  10.848  2.6111  0.9748  0.1124
  536MOL0     H72350   2.516   6.234  10.838  2.2756 -1.2281  0.1004
  536MOL0     H72351   2.400   6.151  10.719  0.2120  0.4266 -2.3871
  536MOL0     H72352   2.588   6.139  10.561 -1.6448  3.5981 -0.4377
  536MOL0     H72353   2.619   6.030  10.698  3.2413  0.6652  0.7395
  536MOL0     H72354   2.774   6.200  10.802  0.2142  1.1191  0.7559
  536MOL0     H72355   2.741   6.299  10.667  2.3722  0.3896  2.0748
  536MOL0     H72356   2.881   6.033  10.666  1.3563  1.2210  0.8632
  536MOL0     H72357   2.959   6.177  10.616 -0.2011  0.3826 -0.9386
  536MOL0     H72358   2.756   6.054  10.251 -2.2275  0.3438  0.9305
  536MOL0     H72359   2.400   6.537  10.520  1.4855  0.2988  0.7510
  536MOL0     H72360   2.193   6.635  10.517 -1.4933 -2.0996 -1.3796
  537MOL0     O72361   3.696   3.693   1.320 -0.4747  0.1374 -0.1993
  537MOL0     C72362   3.664   3.794   1.258 -0.4774 -0.3086 -0.4372
  537MOL0     O72363   3.529   3.828   1.227  0.0585  0.8735  0.4366
  537MOL0     C72364   3.428   3.741   1.258 -0.2715 -0.1163  0.8086
  537MOL0     C72365   3.419   3.610   1.309 -0.1986  0.3714 -0.4684
  537MOL0     C72366   3.300   3.552   1.349  0.3897  0.4402  0.6782
  537MOL0     C72367   3.176   3.613   1.330  0.2586  0.5597 -0.2293
  537MOL0     O72368   3.060   3.549   1.372  0.4921 -0.1970 -0.4897
  537MOL0     C72369   2.960   3.632   1.425  0.4532  0.0265 -0.0298
  537MOL0     C72370   2.881   3.558   1.536  0.2471 -0.7398  0.9213
  537MOL0     C72371   2.795   3.658   1.622  0.7969 -0.5415 -0.3790
  537MOL0     C72372   2.686   3.575   1.702  0.5303 -0.3761 -0.1395
  537MOL0     C72373   2.574   3.663   1.761 -0.0335  0.4296  0.2727
  537MOL0     C72374   2.465   3.567   1.821 -0.0275 -0.4335 -0.1133
  537MOL0     C72375   2.358   3.654   1.878  0.5993 -0.4145  0.1891
  537MOL0     C72376   2.244   3.563   1.927 -0.6403  0.9879 -0.9823
  537MOL0     N72377   2.167   3.614   2.041 -0.3491  0.3852  0.1908
  537MOL0     C72378   2.150   3.550   2.168 -0.5350  0.1846 -0.3202
  537MOL0     C72379   2.061   3.633   2.231 -0.2446  0.2126  0.2025
  537MOL0     C72380   2.001   3.604   2.361  0.1630 -0.0175  0.6245
  537MOL0     C72381   1.845   3.596   2.326  0.1905  0.3911 -0.3711
  537MOL0     C72382   1.759   3.581   2.455  0.5549  0.6751  0.1140
  537MOL0     C72383   1.609   3.577   2.420 -0.1261 -0.7214  0.8966
  537MOL0     O72384   1.539   3.519   2.529 -0.4402 -0.0951 -0.2247
  537MOL0     C72385   1.398   3.544   2.542  0.3112 -0.2471 -0.3072
  537MOL0     C72386   1.334   3.463   2.631 -1.3226 -0.0370  0.0798
  537MOL0     C72387   1.209   3.485   2.677  0.4922  0.2446  0.1199
  537MOL0     C72388   1.166   3.404   2.797 -0.5824  0.9436  0.5529
  537MOL0     C72389   1.121   3.567   2.603 -0.1748 -1.2965  0.1412
  537MOL0     C72390   0.977   3.567   2.616 -0.2960  0.2520  0.0718
  537MOL0     O72391   0.898   3.608   2.513  0.4949  0.0597  0.1767
  537MOL0     C72392   0.768   3.644   2.540 -0.2946 -0.4076 -0.2749
  537MOL0     C72393   0.665   3.609   2.450 -0.3816 -0.3914 -0.2367
  537MOL0     C72394   0.533   3.658   2.472 -0.0567  0.3873 -0.0896
  537MOL0     C72395   0.502   3.730   2.592 -0.0684 -0.2853  0.2418
  537MOL0     O72396   0.380   3.783   2.621  0.1247  0.5409  0.1771
  537MOL0     C72397   0.260   3.734   2.553 -0.3947  0.1574  0.4332
  537MOL0     C72398   0.219   3.592   2.594  0.4130  0.7102 -0.6541
  537MOL0     C72399   0.095   3.596   2.686  0.1517  0.5837  0.4494
  537MOL0     C72400   0.114   3.675   2.811  0.4503 -0.2708  0.4819
  537MOL0     C72401  -0.009   3.696   2.894  0.7782 -0.2754 -0.5515
  537MOL0     C72402  -0.069   3.561   2.938 -0.7730  0.0532  0.3552
  537MOL0     C72403  -0.194   3.583   3.029  0.2048 -0.6160  0.4618
  537MOL0     C72404  -0.260   3.448   3.073  0.1262 -0.4423 -0.0800
  537MOL0    Cl72405  -0.364   3.384   2.950  0.6876 -0.3404 -0.4242
  537MOL0     C72406   0.598   3.754   2.680 -0.2303 -0.0572 -0.2799
  537MOL0     C72407   0.727   3.716   2.656 -0.5696  0.5587 -0.1546
  537MOL0     O72408   0.937   3.544   2.730  0.1712  0.4428 -0.6938
  537MOL0     C72409   1.182   3.652   2.502  0.5216 -0.2788  0.0470
  537MOL0     C72410   1.318   3.652   2.480 -0.2375 -0.2451  0.3932
  537MOL0     N72411   2.040   3.742   2.150 -0.2464  0.2866 -0.4681
  537MOL0     N72412   2.093   3.723   2.035 -0.7480 -0.1146 -0.1725
  537MOL0     C72413   3.181   3.739   1.268 -0.2996 -0.6313 -0.9094
  537MOL0     C72414   3.300   3.804   1.229 -0.5090  0.3195  0.0319
  537MOL0     C72415   3.769   3.881   1.207  0.3024  0.3693  0.2502
  537MOL0     C72416   3.740   4.000   1.137  0.2466  0.4228  0.1448
  537MOL0     C72417   3.842   4.086   1.096 -1.0691  0.5412  0.3061
  537MOL0     C72418   3.982   4.058   1.124 -0.0263  0.2453  0.0837
  537MOL0     O72419   4.091   4.140   1.101 -0.6574 -0.2825  0.6126
  537MOL0     C72420   4.074   4.241   0.998 -0.6476  0.2318 -0.2293
  537MOL0     C72421   4.208   4.235   0.916 -0.4225 -0.5217 -0.2294
  537MOL0     C72422   4.329   4.286   1.005 -0.7188  0.1588  0.0222
  537MOL0     C72423   4.466   4.283   0.937 -0.0213  0.0867  0.2245
  537MOL0     C72424   4.582   4.305   1.025  0.3237  0.3638  0.2616
  537MOL0     C72425   4.680   4.319   1.090 -0.4714  0.2076 -0.1885
  537MOL0     C72426   4.008   3.939   1.195 -0.2477  0.4414 -0.5485
  537MOL0     C72427   3.904   3.852   1.238  0.3239 -0.2939  1.0915
  537MOL0     H72428   3.509   3.561   1.346  0.9622  2.8816  0.2116
  537MOL0     H72429   3.302   3.453   1.394 -1.1012 -0.1136 -0.4147
  537MOL0     H72430   2.997   3.727   1.465 -0.2648 -0.0031  0.7513
  537MOL0     H72431   2.891   3.658   1.344  1.2579  0.1501 -0.6845
  537MOL0     H72432   2.812   3.488   1.487  1.5064 -1.1188 -0.3858
  537MOL0     H72433   2.954   3.504   1.596  2.9101  1.2425 -0.3469
  537MOL0     H72434   2.847   3.720   1.694  2.1840  1.2204 -2.7474
  537MOL0     H72435   2.746   3.728   1.553 -0.4829 -0.0030  1.0346
  537MOL0     H72436   2.653   3.505   1.624  2.6751 -1.3144 -0.2981
  537MOL0     H72437   2.720   3.507   1.780 -0.9016 -2.1159 -0.9451
  537MOL0     H72438   2.611   3.745   1.824 -2.7471 -0.7292  3.7289
  537MOL0     H72439   2.533   3.720   1.678  1.2253  1.2000  0.1672
  537MOL0     H72440   2.418   3.494   1.754  1.3187 -1.8510  0.4161
  537MOL0     H72441   2.515   3.511   1.901  0.5840 -2.8569 -2.0629
  537MOL0     H72442   2.394   3.724   1.954  2.3346 -0.4694 -0.5268
  537MOL0     H72443   2.322   3.713   1.794  0.4190 -2.1984 -1.0419
  537MOL0     H72444   2.283   3.467   1.962  1.3428  1.9085 -0.5560
  537MOL0     H72445   2.176   3.537   1.845 -2.4734  0.6792  0.5734
  537MOL0     H72446   2.194   3.455   2.196 -1.6622  0.2862  2.0053
  537MOL0     H72447   2.027   3.507   2.404  1.2111  0.1503  0.4011
  537MOL0     H72448   2.034   3.679   2.433 -0.2022  1.5223 -0.7579
  537MOL0     H72449   1.812   3.512   2.264  2.0888  0.3320 -1.3668
  537MOL0     H72450   1.812   3.691   2.285  0.4521  1.0302  0.8605
  537MOL0     H72451   1.775   3.665   2.523  2.0131  2.6097 -2.4626
  537MOL0     H72452   1.784   3.492   2.514 -1.9250  0.2908  0.7080
  537MOL0     H72453   1.589   3.515   2.332 -3.1862  0.1554  0.8649
  537MOL0     H72454   1.574   3.680   2.403  2.1874 -0.0232  0.0184
  537MOL0     H72455   1.387   3.387   2.688 -1.2436 -1.3045 -1.6053
  537MOL0     H72456   1.066   3.360   2.794  1.2803 -3.8559 -0.5057
  537MOL0     H72457   1.225   3.314   2.816 -1.6606  0.2437  0.6647
  537MOL0     H72458   1.168   3.476   2.879 -0.4205  0.1363  1.2775
  537MOL0     H72459   0.684   3.558   2.356 -2.0953 -2.4043  0.4249
  537MOL0     H72460   0.461   3.623   2.399  1.4175 -1.6184 -0.6826
  537MOL0     H72461   0.173   3.793   2.580 -1.8290 -0.3843 -2.5847
  537MOL0     H72462   0.278   3.733   2.445 -1.7494 -1.1891  0.1960
  537MOL0     H72463   0.207   3.521   2.512  0.9743  0.2807 -0.3725
  537MOL0     H72464   0.299   3.544   2.650  1.1685  2.5355 -0.0932
  537MOL0     H72465   0.068   3.493   2.710  0.7440  0.0767 -0.9502
  537MOL0     H72466   0.017   3.639   2.622 -0.2982 -1.8243 -0.7312
  537MOL0     H72467   0.189   3.616   2.864 -0.0952 -1.5828 -0.1637
  537MOL0     H72468   0.162   3.771   2.788  1.8620 -0.9499  0.5050
  537MOL0     H72469  -0.086   3.764   2.857 -0.6798 -3.2196 -3.4154
  537MOL0     H72470   0.027   3.755   2.979 -0.0447  1.0381 -1.0803
  537MOL0     H72471  -0.111   3.518   2.847 -0.4589  1.0729 -0.2744
  537MOL0     H72472   0.005   3.503   2.994 -0.3521  0.9682  0.7715
  537MOL0     H72473  -0.267   3.641   2.973 -1.6307 -2.9629  0.2478
  537MOL0     H72474  -0.158   3.630   3.120  2.9993 -2.4250  0.4186
  537MOL0     H72475  -0.325   3.469   3.159  0.0867 -0.4225 -0.1141
  537MOL0     H72476  -0.187   3.371   3.098  0.4946 -0.6707 -1.7308
  537MOL0     H72477   0.579   3.809   2.772  4.5594  1.9436 -0.1961
  537MOL0     H72478   0.804   3.739   2.730 -0.7881  2.0068 -0.3579
  537MOL0     H72479   1.122   3.715   2.438 -1.5452 -1.3264  0.8830
  537MOL0     H72480   1.359   3.720   2.405  2.8328 -2.6940 -0.3711
  537MOL0     H72481   3.085   3.788   1.253  0.5943  1.3887 -0.3000
  537MOL0     H72482   3.307   3.900   1.180  0.9495  0.0188 -0.3953
  537MOL0     H72483   3.638   4.028   1.111  0.5185  0.2702 -1.1440
  537MOL0     H72484   3.821   4.176   1.040  2.4052  1.4049  0.1413
  537MOL0     H72485   3.994   4.213   0.930  0.0686 -0.0963 -0.9596
  537MOL0     H72486   4.049   4.339   1.039  1.1383  1.5308 -2.0036
  537MOL0     H72487   4.190   4.293   0.825 -0.7262 -2.0694 -1.2091
  537MOL0     H72488   4.227   4.130   0.891  1.9550  0.0179 -0.8898
  537MOL0     H72489   4.340   4.209   1.081 -0.0968 -2.2564 -2.3554
  537MOL0     H72490   4.304   4.386   1.042  0.4108  1.3865 -2.2995
  537MOL0     H72491   4.475   4.359   0.859  0.6056 -1.4016 -1.2149
  537MOL0     H72492   4.479   4.185   0.891 -0.5767 -0.0032  0.2530
  537MOL0     H72493   4.769   4.321   1.148  0.2007 -0.5185 -1.1703
  537MOL0     H72494   4.100   3.905   1.242 -0.9349  0.5030  0.8867
  537MOL0     H72495   3.931   3.756   1.282  1.3761 -1.4603 -1.8710
  538MOL0     O72496   6.266   7.090   1.837 -0.0083 -0.0199 -0.0555
  538MOL0     C72497   6.353   7.075   1.754 -0.3458 -0.1482  0.7295
  538MOL0     O72498   6.334   7.016   1.631  0.4606  0.2799 -0.4329
  538MOL0     C72499   6.232   6.921   1.624  0.9723 -0.7179  0.1754
  538MOL0     C72500   6.213   6.826   1.722  0.0841 -0.1598 -0.0980
  538MOL0     C72501   6.130   6.721   1.695  0.3663 -1.0297  0.0497
  538MOL0     C72502   6.065   6.712   1.575 -0.2540 -0.4962  0.2813
  538MOL0     O72503   5.978   6.620   1.533 -0.8816  0.0555  0.4406
  538MOL0     C72504   5.947   6.507   1.611  0.0997  0.2237  0.4369
  538MOL0     C72505   5.828   6.441   1.537 -0.8021  0.2718 -0.3500
  538MOL0     C72506   5.708   6.531   1.508 -0.4200  0.2215 -0.4611
  538MOL0     C72507   5.602   6.440   1.458 -0.2903  1.1889 -0.7334
  538MOL0     C72508   5.483   6.504   1.382 -0.1212 -0.1759 -0.2058
  538MOL0     C72509   5.381   6.399   1.328 -0.1344  0.0681 -0.1117
  538MOL0     C72510   5.332   6.424   1.186 -0.1615 -0.9847 -0.0492
  538MOL0     C72511   5.247   6.551   1.197 -0.5873  0.2984  0.0599
  538MOL0     N72512   5.156   6.563   1.085  0.0587  0.1059  0.3350
  538MOL0     C72513   5.069   6.461   1.049  0.9408 -0.1817 -0.4200
  538MOL0     C72514   5.005   6.511   0.938  0.4196  0.5058  0.6953
  538MOL0     C72515   4.892   6.450   0.861 -0.3388 -0.5112 -0.4469
  538MOL0     C72516   4.827   6.332   0.934 -0.4020  0.3860 -0.8300
  538MOL0     C72517   4.767   6.363   1.071  0.0174 -0.7858 -0.3629
  538MOL0     C72518   4.629   6.446   1.044  0.3191  0.0556 -0.2543
  538MOL0     O72519   4.531   6.361   0.986  0.6561 -0.5608  0.2732
  538MOL0     C72520   4.396   6.387   1.014 -0.0221 -0.3741 -0.5483
  538MOL0     C72521   4.345   6.500   1.077 -1.1197 -0.8575  0.9479
  538MOL0     C72522   4.207   6.521   1.105 -1.2789  0.2068 -0.5058
  538MOL0     C72523   4.163   6.651   1.175  0.3180  0.0456 -0.5170
  538MOL0     C72524   4.125   6.410   1.075  0.1456  0.0961 -0.5140
  538MOL0     C72525   3.979   6.413   1.108 -0.5087 -0.1012  0.7724
  538MOL0     O72526   3.925   6.292   1.131  0.3378  0.3021 -0.4461
  538MOL0     C72527   3.822   6.300   1.215 -0.0216  0.0387 -0.7161
  538MOL0     C72528   3.700   6.338   1.177  0.9267 -0.7260  0.6417
  538MOL0     C72529   3.604   6.374   1.274 -0.0286  0.6424  0.2321
  538MOL0     C72530   3.632   6.359   1.416  0.9423 -0.5037  0.5899
  538MOL0     O72531   3.541   6.377   1.515 -0.0757 -0.2119  0.3870
  538MOL0     C72532   3.418   6.450   1.485  0.8257 -0.8349  0.2772
  538MOL0     C72533   3.335   6.441   1.614  0.5984  0.0152  0.3297
  538MOL0     C72534   3.197   6.493   1.578  0.0847  0.4731  0.0353
  538MOL0     C72535   3.114   6.527   1.702  0.1389 -0.1796  0.3144
  538MOL0     C72536   2.966   6.557   1.662 -0.7475 -0.1181  0.2463
  538MOL0     C72537   2.887   6.434   1.636 -0.2876  0.1896 -0.0005
  538MOL0     C72538   2.737   6.453   1.598 -0.2892 -0.4609 -0.1489
  538MOL0     C72539   2.665   6.442   1.728 -0.2347  0.4331  0.1817
  538MOL0    Cl72540   2.501   6.502   1.707  0.2872 -0.3289  0.2157
  538MOL0     C72541   3.759   6.309   1.452 -0.0531 -0.2673  0.7230
  538MOL0     C72542   3.854   6.285   1.351  0.2184 -0.7601  0.2844
  538MOL0     O72543   3.925   6.522   1.105 -0.1051  0.1053 -0.7640
  538MOL0     C72544   4.172   6.300   1.013  0.0614 -0.4042  0.1396
  538MOL0     C72545   4.303   6.285   0.984 -0.5033  0.4578 -0.4352
  538MOL0     N72546   5.056   6.643   0.914  0.1657 -0.6589  0.0383
  538MOL0     N72547   5.143   6.676   1.007 -0.4364 -0.0834  0.6747
  538MOL0     C72548   6.087   6.800   1.468 -0.0552  0.7406 -0.1392
  538MOL0     C72549   6.170   6.906   1.499 -0.3172 -0.3211  0.1530
  538MOL0     C72550   6.486   7.136   1.780  0.3065  0.0106  0.4008
  538MOL0     C72551   6.506   7.223   1.882  0.2177  0.2585  0.0380
  538MOL0     C72552   6.638   7.260   1.913 -0.1266 -0.2539  0.0925
  538MOL0     C72553   6.746   7.218   1.837 -0.5995  0.5408 -0.4479
  538MOL0     O72554   6.866   7.270   1.879  0.3127  0.0434 -0.1979
  538MOL0     C72555   6.981   7.253   1.791 -0.0691  0.0515  0.3644
  538MOL0     C72556   7.117   7.305   1.840 -0.2717  0.5286 -0.2706
  538MOL0     C72557   7.140   7.333   1.993  0.6609  0.1299  0.3062
  538MOL0     C72558   7.288   7.359   2.017 -0.8212 -0.1383  0.2686
  538MOL0     C72559   7.336   7.490   1.976 -0.1256  0.4704  0.6126
  538MOL0     C72560   7.393   7.595   1.955  0.1249  0.0393 -0.6626
  538MOL0     C72561   6.716   7.140   1.727 -0.2313  1.6002  0.1591
  538MOL0     C72562   6.586   7.095   1.703 -0.4392 -0.1392 -0.0634
  538MOL0     H72563   6.271   6.837   1.813  0.2620  1.6216 -0.4022
  538MOL0     H72564   6.108   6.644   1.768 -0.1311 -1.7820 -0.8788
  538MOL0     H72565   6.029   6.437   1.629  0.9735  0.2006 -3.0401
  538MOL0     H72566   5.906   6.529   1.710  0.5615 -3.4063  1.5659
  538MOL0     H72567   5.878   6.404   1.447  0.5545  0.7419  0.1767
  538MOL0     H72568   5.785   6.359   1.595  2.5693 -1.5632 -0.1901
  538MOL0     H72569   5.670   6.566   1.605  1.7929 -0.3392  0.6805
  538MOL0     H72570   5.738   6.618   1.448  0.4627  0.0618 -0.2729
  538MOL0     H72571   5.648   6.353   1.410  0.4158  0.6672  0.8275
  538MOL0     H72572   5.553   6.407   1.551  1.2285  1.1606  0.0814
  538MOL0     H72573   5.434   6.572   1.453 -1.3772 -0.2418 -0.9801
  538MOL0     H72574   5.528   6.569   1.307  4.1159 -0.7944  1.4978
  538MOL0     H72575   5.415   6.295   1.332 -2.4890 -0.7414  3.3756
  538MOL0     H72576   5.300   6.383   1.400 -1.1990 -1.0626 -1.5076
  538MOL0     H72577   5.411   6.423   1.111  0.6439  0.4318  0.7212
  538MOL0     H72578   5.265   6.342   1.160  0.4984 -1.3023 -0.7748
  538MOL0     H72579   5.324   6.628   1.201  0.1765 -0.1379 -3.1075
  538MOL0     H72580   5.192   6.559   1.291 -1.4872  1.2007 -0.5202
  538MOL0     H72581   5.066   6.367   1.103  2.4400 -1.0417 -1.7410
  538MOL0     H72582   4.826   6.536   0.847  0.2521  0.3459  1.7055
  538MOL0     H72583   4.929   6.417   0.763 -3.1124 -3.4133 -0.6804
  538MOL0     H72584   4.903   6.255   0.948  1.4765  2.3785  0.7278
  538MOL0     H72585   4.761   6.281   0.864 -0.9300  0.1402 -0.1631
  538MOL0     H72586   4.835   6.422   1.133  0.7985 -0.3595 -1.5853
  538MOL0     H72587   4.742   6.268   1.118  1.1891 -0.8807  0.0857
  538MOL0     H72588   4.640   6.532   0.978 -0.3036 -0.1701 -0.6618
  538MOL0     H72589   4.602   6.475   1.146 -2.2826 -1.7479 -0.3266
  538MOL0     H72590   4.409   6.584   1.103  1.0549 -0.8176 -3.5800
  538MOL0     H72591   4.124   6.717   1.097  0.9867 -1.6190 -2.3440
  538MOL0     H72592   4.093   6.633   1.257  0.9223 -0.5675 -0.1223
  538MOL0     H72593   4.243   6.698   1.233 -0.2948  0.9201 -0.3629
  538MOL0     H72594   3.689   6.364   1.072  0.7638  0.6636  0.9764
  538MOL0     H72595   3.514   6.409   1.225  0.7039  1.3422 -0.6302
  538MOL0     H72596   3.442   6.555   1.470  3.2940 -1.0860  1.8463
  538MOL0     H72597   3.370   6.415   1.394 -0.1144 -1.8296  1.1229
  538MOL0     H72598   3.332   6.335   1.638  1.6012  0.5395  3.1432
  538MOL0     H72599   3.388   6.484   1.699  1.0928 -1.2750  0.6851
  538MOL0     H72600   3.152   6.408   1.527  0.4287 -0.3789  1.0976
  538MOL0     H72601   3.207   6.582   1.515  0.7018  1.3971  1.3902
  538MOL0     H72602   3.110   6.437   1.763 -1.1822 -0.9092 -0.8039
  538MOL0     H72603   3.155   6.611   1.760  0.0104 -0.4107  0.7468
  538MOL0     H72604   2.961   6.619   1.573 -0.2232 -0.9749 -0.3953
  538MOL0     H72605   2.919   6.611   1.745 -2.2671 -0.9165 -0.0444
  538MOL0     H72606   2.938   6.388   1.551 -2.9777 -0.5471 -1.3457
  538MOL0     H72607   2.899   6.357   1.714  1.2615 -1.2015 -1.5250
  538MOL0     H72608   2.705   6.370   1.535 -3.1846  1.0301 -0.8298
  538MOL0     H72609   2.718   6.552   1.556  1.0525  0.6087  1.6104
  538MOL0     H72610   2.720   6.498   1.805  0.8228 -0.3300  0.0107
  538MOL0     H72611   2.660   6.335   1.754 -0.8018  0.5497  0.5711
  538MOL0     H72612   3.796   6.295   1.553 -1.4196 -0.5260  1.2060
  538MOL0     H72613   3.958   6.260   1.373  0.2170  0.0699  1.3212
  538MOL0     H72614   4.107   6.216   0.988 -0.6127  0.7347 -2.2299
  538MOL0     H72615   4.334   6.191   0.939  0.2262 -0.0735  1.0806
  538MOL0     H72616   6.043   6.796   1.369 -1.2350  4.2760  0.1094
  538MOL0     H72617   6.195   6.977   1.421 -0.5451 -0.7707 -0.3323
  538MOL0     H72618   6.422   7.261   1.939 -1.4061 -3.1897  0.2195
  538MOL0     H72619   6.657   7.325   1.998 -2.0122  0.3440  0.0977
  538MOL0     H72620   6.995   7.150   1.759  0.2330  0.3279 -0.4061
  538MOL0     H72621   6.953   7.309   1.702 -2.2774  1.4640  1.8324
  538MOL0     H72622   7.133   7.402   1.792 -3.5489  1.3393  0.0340
  538MOL0     H72623   7.190   7.234   1.800 -0.5096  2.1253 -3.9112
  538MOL0     H72624   7.096   7.251   2.050 -3.3584  2.4325  0.8757
  538MOL0     H72625   7.082   7.422   2.019  1.0079  0.9504 -1.5287
  538MOL0     H72626   7.352   7.287   1.967 -1.2227  1.1065 -2.2188
  538MOL0     H72627   7.305   7.361   2.125 -2.8577  3.4762  0.6880
  538MOL0     H72628   7.444   7.689   1.948  2.4736 -0.9591  1.5199
  538MOL0     H72629   6.797   7.097   1.668 -0.5832  0.8083  0.2355
  538MOL0     H72630   6.575   7.012   1.633 -0.2379 -0.1345 -0.1006
  539MOL0     O72631   2.078  10.800   6.753  0.4080 -0.1644 -0.6122
  539MOL0     C72632   2.112  10.786   6.641 -1.0307  0.7891  0.1342
  539MOL0     O72633   2.027  10.776   6.532  0.1558 -0.0571 -0.3735
  539MOL0     C72634   1.892  10.796   6.565  0.1678  0.1958 -0.3237
  539MOL0     C72635   1.841  10.912   6.621  0.2833  0.1134  0.4746
  539MOL0     C72636   1.700  10.921   6.640 -0.3059 -0.1432 -0.2011
  539MOL0     C72637   1.618  10.814   6.609 -0.5120 -0.5018  0.1040
  539MOL0     O72638   1.479  10.834   6.629  0.3631 -0.2596  0.2924
  539MOL0     C72639   1.384  10.769   6.542  0.2417 -0.5877 -0.0953
  539MOL0     C72640   1.247  10.846   6.549 -0.9543  0.6615 -0.2299
  539MOL0     C72641   1.168  10.814   6.421  0.2240 -0.2227  0.6440
  539MOL0     C72642   1.071  10.940   6.400  0.0514  0.1046 -0.0589
  539MOL0     C72643   0.965  10.925   6.283  0.4654 -0.2314  0.0048
  539MOL0     C72644   0.854  10.820   6.315  0.3126  0.3862 -0.4518
  539MOL0     C72645   0.723  10.838   6.235 -0.5507 -0.4201 -0.3642
  539MOL0     C72646   0.741  10.852   6.083  0.2534  0.1279  0.3855
  539MOL0     N72647   0.613  10.902   6.030  0.1122  0.5183 -0.1240
  539MOL0     C72648   0.546  11.015   6.072  0.1912  0.8815 -0.1733
  539MOL0     C72649   0.423  11.009   6.015  0.2898 -0.5061 -0.5737
  539MOL0     C72650   0.303  11.108   6.044 -0.1277 -0.2548 -0.3573
  539MOL0     C72651   0.170  11.058   5.972  0.8196 -0.3464  0.1819
  539MOL0     C72652   0.036  11.120   6.018  0.5106 -0.1528 -0.1139
  539MOL0     C72653  -0.089  11.083   5.936  0.7090  0.1094  0.9538
  539MOL0     O72654  -0.085  11.135   5.799  0.2983 -0.2332  0.4628
  539MOL0     C72655  -0.203  11.135   5.728 -0.6495 -0.0477  1.0220
  539MOL0     C72656  -0.205  11.215   5.616  0.6098 -0.1472  1.1853
  539MOL0     C72657  -0.316  11.235   5.534  0.2580  0.0482 -0.5019
  539MOL0     C72658  -0.291  11.321   5.418  0.2031  0.4062 -0.7787
  539MOL0     C72659  -0.433  11.167   5.570 -0.5898  0.4057  0.7987
  539MOL0     C72660  -0.554  11.174   5.489 -0.0871 -0.4683  0.2370
  539MOL0     O72661  -0.670  11.130   5.550 -0.9230  0.2486  0.8435
  539MOL0     C72662  -0.794  11.138   5.485 -0.5323  0.6551  0.4685
  539MOL0     C72663  -0.812  11.140   5.348  0.5236  0.8456  0.0860
  539MOL0     C72664  -0.940  11.141   5.291  0.3696 -0.4591  0.2878
  539MOL0     C72665  -1.054  11.156   5.367  0.0148 -0.0317  0.5216
  539MOL0     O72666  -1.186  11.135   5.329  0.0597 -0.8417  0.4254
  539MOL0     C72667  -1.218  11.088   5.193 -0.4021  0.0982  0.0811
  539MOL0     C72668  -1.373  11.094   5.179 -0.0713 -0.2069  0.0905
  539MOL0     C72669  -1.432  10.983   5.262  0.1865  0.0573 -0.3761
  539MOL0     C72670  -1.587  11.008   5.259  0.8192 -0.2194  0.5567
  539MOL0     C72671  -1.668  10.896   5.322 -0.0222  0.6600  0.9686
  539MOL0     C72672  -1.818  10.924   5.327 -1.1119 -0.1166  0.2559
  539MOL0     C72673  -1.893  10.803   5.385 -0.2281 -1.0834 -0.4807
  539MOL0     C72674  -2.047  10.829   5.377  0.3487 -0.7115  0.0380
  539MOL0    Cl72675  -2.101  10.943   5.499 -0.0545 -0.0436 -0.0153
  539MOL0     C72676  -1.034  11.152   5.511  0.7340 -0.0580 -0.0952
  539MOL0     C72677  -0.900  11.150   5.568  0.8218 -0.1579  0.4028
  539MOL0     O72678  -0.549  11.228   5.380  0.3170 -0.4333  0.1506
  539MOL0     C72679  -0.434  11.077   5.680  0.0594  0.5200  0.2790
  539MOL0     C72680  -0.320  11.060   5.759 -0.0304 -0.9062  0.1007
  539MOL0     N72681   0.420  10.904   5.924 -0.3457 -0.1378  0.0798
  539MOL0     N72682   0.528  10.831   5.947 -0.2389  0.7576  0.3934
  539MOL0     C72683   1.673  10.699   6.545  0.1518 -0.3291 -0.1470
  539MOL0     C72684   1.812  10.693   6.523 -0.2098  0.2771 -0.9682
  539MOL0     C72685   2.254  10.765   6.620 -0.3225  0.0446 -0.1457
  539MOL0     C72686   2.345  10.796   6.725  0.0365  0.2383  0.9136
  539MOL0     C72687   2.488  10.795   6.704  1.0286 -0.9908  0.4926
  539MOL0     C72688   2.539  10.771   6.579  0.8576 -0.0442 -0.5701
  539MOL0     O72689   2.674  10.780   6.559 -0.1989  0.4300 -0.4078
  539MOL0     C72690   2.741  10.669   6.497 -0.1220 -0.6071 -0.2034
  539MOL0     C72691   2.892  10.679   6.518 -0.0516 -0.0824 -0.4814
  539MOL0     C72692   2.938  10.831   6.504 -1.0670 -0.4170 -0.5037
  539MOL0     C72693   3.089  10.832   6.466 -0.4821  0.9787  0.1359
  539MOL0     C72694   3.182  10.781   6.562 -0.2085 -0.3908 -0.0487
  539MOL0     C72695   3.275  10.745   6.642  0.0929 -0.5179 -0.1415
  539MOL0     C72696   2.448  10.747   6.476  0.1690 -0.3664  0.2946
  539MOL0     C72697   2.310  10.739   6.496 -0.3127 -0.3812  0.1737
  539MOL0     H72698   1.912  10.986   6.655  1.4255  0.0056 -1.5142
  539MOL0     H72699   1.655  11.017   6.666 -2.8607 -1.2575 -0.2383
  539MOL0     H72700   1.435  10.778   6.445 -1.9004  2.1533 -1.0787
  539MOL0     H72701   1.366  10.663   6.566 -0.5646 -0.4745 -0.1905
  539MOL0     H72702   1.198  10.802   6.636  0.5143 -1.7243 -0.5228
  539MOL0     H72703   1.262  10.955   6.554 -1.3195  0.6833  0.3988
  539MOL0     H72704   1.222  10.797   6.328 -0.0092  2.6941 -0.1336
  539MOL0     H72705   1.100  10.729   6.431  1.2820 -0.8919  2.5096
  539MOL0     H72706   1.010  10.961   6.489  1.2029 -4.2460  2.0039
  539MOL0     H72707   1.132  11.027   6.374  0.9485 -0.9037 -1.4381
  539MOL0     H72708   0.920  11.024   6.273  1.6562  0.6515  2.4647
  539MOL0     H72709   1.023  10.898   6.195 -1.5192 -0.4533 -1.2922
  539MOL0     H72710   0.889  10.716   6.312 -3.5334 -1.1019  0.6346
  539MOL0     H72711   0.822  10.825   6.419 -0.4020  0.5938 -0.6770
  539MOL0     H72712   0.661  10.751   6.261  0.9969 -1.3782  0.2223
  539MOL0     H72713   0.678  10.925   6.284  0.7681  0.8134 -1.2583
  539MOL0     H72714   0.769  10.755   6.042  1.3353  0.6349 -0.0887
  539MOL0     H72715   0.825  10.920   6.065  1.1922 -0.8690  0.9356
  539MOL0     H72716   0.576  11.091   6.144 -3.7358 -1.3236  4.3271
  539MOL0     H72717   0.290  11.108   6.152 -0.8854 -0.8418 -0.4384
  539MOL0     H72718   0.329  11.210   6.014 -0.3645  0.5583  2.0138
  539MOL0     H72719   0.162  10.949   5.979  0.1087 -0.2423  1.1148
  539MOL0     H72720   0.172  11.096   5.870  3.3409 -0.0137  0.2829
  539MOL0     H72721   0.047  11.229   6.016  0.0047 -0.1047 -0.3470
  539MOL0     H72722   0.024  11.102   6.125  1.0969 -0.0836 -0.0324
  539MOL0     H72723  -0.181  11.112   5.988 -0.7821 -2.2478 -0.1595
  539MOL0     H72724  -0.111  10.976   5.932 -1.2289  0.4949 -0.8155
  539MOL0     H72725  -0.110  11.265   5.599  0.4003 -0.4359 -1.1843
  539MOL0     H72726  -0.366  11.400   5.415 -1.1196 -0.5546  2.6652
  539MOL0     H72727  -0.199  11.381   5.418  0.3487  0.2697  1.2642
  539MOL0     H72728  -0.292  11.268   5.323  0.1324  1.7322 -1.5457
  539MOL0     H72729  -0.734  11.123   5.274  0.0129  0.2293 -0.3158
  539MOL0     H72730  -0.953  11.129   5.184  0.9480  0.2124  0.1395
  539MOL0     H72731  -1.172  11.142   5.110  0.4918  0.3917  0.7538
  539MOL0     H72732  -1.188  10.983   5.181 -0.4746  0.1800 -0.8944
  539MOL0     H72733  -1.404  11.192   5.218  5.1617  0.5742  3.2717
  539MOL0     H72734  -1.401  11.080   5.074 -0.3539 -3.0095  0.4795
  539MOL0     H72735  -1.392  10.991   5.363 -0.5670 -1.3953  0.0692
  539MOL0     H72736  -1.401  10.889   5.214 -0.7746 -0.2661 -0.3862
  539MOL0     H72737  -1.616  11.102   5.305 -3.1273 -2.3116  2.8683
  539MOL0     H72738  -1.604  11.014   5.151 -2.2923 -0.8228  0.9203
  539MOL0     H72739  -1.619  10.874   5.417  5.4122 -1.3459 -1.8422
  539MOL0     H72740  -1.651  10.804   5.266  0.6355  0.2782  1.7820
  539MOL0     H72741  -1.834  11.015   5.386 -0.0333  0.1972  0.0856
  539MOL0     H72742  -1.851  10.951   5.227 -0.6801  0.6587  0.3084
  539MOL0     H72743  -1.865  10.791   5.491  0.8001  1.4050 -0.3813
  539MOL0     H72744  -1.865  10.713   5.331  2.2900 -0.9014  0.3924
  539MOL0     H72745  -2.108  10.742   5.402 -2.7806  1.8059  2.0198
  539MOL0     H72746  -2.065  10.873   5.278  0.4456 -0.2736  0.2101
  539MOL0     H72747  -1.113  11.150   5.585 -1.3913  0.7127 -2.2306
  539MOL0     H72748  -0.888  11.156   5.675  1.8172  1.7257  0.2196
  539MOL0     H72749  -0.514  11.010   5.708  2.0775 -1.6305  1.1918
  539MOL0     H72750  -0.327  10.998   5.847 -0.7705  2.2207  2.4548
  539MOL0     H72751   1.605  10.622   6.510 -0.0429 -0.8178  1.2336
  539MOL0     H72752   1.858  10.609   6.471 -2.1366 -0.3631 -1.7114
  539MOL0     H72753   2.308  10.807   6.826 -0.3463 -4.9588  1.6232
  539MOL0     H72754   2.558  10.802   6.786  2.6404  2.9075 -0.9513
  539MOL0     H72755   2.698  10.577   6.537 -0.4691 -0.4760 -0.2694
  539MOL0     H72756   2.718  10.665   6.390 -4.6434 -4.0153  0.6050
  539MOL0     H72757   2.945  10.609   6.452  0.5608  2.6913 -3.1519
  539MOL0     H72758   2.917  10.651   6.621  1.1138  0.4024 -0.6160
  539MOL0     H72759   2.922  10.871   6.605  1.7917 -1.0168  0.2862
  539MOL0     H72760   2.881  10.893   6.434 -0.3635  1.7900  0.7606
  539MOL0     H72761   3.114  10.937   6.449  1.8394  0.3238 -1.0267
  539MOL0     H72762   3.106  10.782   6.370  2.2408  1.5602  0.2209
  539MOL0     H72763   3.335  10.722   6.727 -0.4181  0.8935  0.6456
  539MOL0     H72764   2.480  10.733   6.374 -1.1111  0.8008 -0.3059
  539MOL0     H72765   2.247  10.715   6.411  0.8207  2.0553 -1.4559
  540MOL0     O72766   2.577   4.007   4.720 -0.0287 -0.4413  0.0686
  540MOL0     C72767   2.635   4.073   4.805 -0.0623 -0.2278  0.5454
  540MOL0     O72768   2.572   4.128   4.910 -0.3238 -0.5284 -0.2513
  540MOL0     C72769   2.434   4.106   4.920  0.0934 -1.2089  0.5206
  540MOL0     C72770   2.376   4.053   5.041 -0.2724 -0.3891  0.7706
  540MOL0     C72771   2.240   4.042   5.054 -0.7464 -0.1782 -0.0324
  540MOL0     C72772   2.157   4.076   4.945  0.1918  0.0102 -0.3958
  540MOL0     O72773   2.022   4.067   4.978  0.9684  0.2552  0.0658
  540MOL0     C72774   1.928   4.116   4.874 -0.4040 -0.2526 -0.3934
  540MOL0     C72775   1.796   4.144   4.938 -0.4094 -0.4360  0.1189
  540MOL0     C72776   1.741   4.018   5.009  1.3092 -0.0439 -0.1707
  540MOL0     C72777   1.704   3.911   4.908 -0.2576  0.1647 -0.3598
  540MOL0     C72778   1.586   3.825   4.954  0.2409 -0.3818 -0.0498
  540MOL0     C72779   1.621   3.767   5.095  0.3370 -0.0743  0.3822
  540MOL0     C72780   1.523   3.662   5.155 -0.0602  0.2972  0.0197
  540MOL0     C72781   1.388   3.733   5.173  0.2083  0.2921 -0.2519
  540MOL0     N72782   1.288   3.648   5.244 -0.7592 -0.8551 -0.3264
  540MOL0     C72783   1.176   3.690   5.313  0.2563 -0.3501 -0.4846
  540MOL0     C72784   1.093   3.588   5.334 -0.0446 -0.3822  0.0078
  540MOL0     C72785   0.960   3.593   5.407  0.4405 -0.1566 -0.4607
  540MOL0     C72786   0.870   3.491   5.341 -0.5579 -0.6620 -0.1687
  540MOL0     C72787   0.732   3.480   5.401  0.3752  0.3346  0.8992
  540MOL0     C72788   0.659   3.618   5.428 -0.5016  1.4151  0.7353
  540MOL0     O72789   0.538   3.594   5.486 -0.0418  0.1598  0.5789
  540MOL0     C72790   0.428   3.671   5.438  0.1684  0.0561  0.3593
  540MOL0     C72791   0.438   3.802   5.396  0.1132  0.3915 -0.8167
  540MOL0     C72792   0.312   3.865   5.355 -0.7544 -0.0215  0.6306
  540MOL0     C72793   0.344   4.003   5.307 -0.1638  0.4490 -0.1305
  540MOL0     C72794   0.185   3.802   5.362  0.5675  0.0187 -0.1455
  540MOL0     C72795   0.055   3.871   5.335 -0.1575  0.0041  0.2025
  540MOL0     O72796  -0.052   3.791   5.370 -0.0814  0.5012  0.0497
  540MOL0     C72797  -0.181   3.837   5.359 -0.2153  0.6039  0.3286
  540MOL0     C72798  -0.239   3.925   5.263 -0.5284 -0.5953  0.3316
  540MOL0     C72799  -0.368   3.948   5.266  0.2291  0.8229 -0.3940
  540MOL0     C72800  -0.461   3.891   5.358 -0.9331  0.1484 -0.3177
  540MOL0     O72801  -0.596   3.908   5.332 -0.1818  0.0802 -1.1350
  540MOL0     C72802  -0.648   4.004   5.426  0.3054 -0.2379  0.0635
  540MOL0     C72803  -0.793   4.030   5.391  0.3256 -0.6066  0.2373
  540MOL0     C72804  -0.848   4.141   5.476 -0.0103 -0.7808  0.9996
  540MOL0     C72805  -0.989   4.158   5.426 -0.2512 -0.8095 -0.3315
  540MOL0     C72806  -1.064   4.252   5.519  0.2716 -0.4833 -0.2415
  540MOL0     C72807  -1.202   4.280   5.464 -0.2204  0.1474 -0.6650
  540MOL0     C72808  -1.262   4.390   5.565 -0.0099 -1.0479 -0.1654
  540MOL0     C72809  -1.413   4.416   5.541  0.0609  0.1487  0.5193
  540MOL0    Cl72810  -1.441   4.501   5.385 -0.1541  0.2694 -0.2252
  540MOL0     C72811  -0.409   3.810   5.454 -0.3663 -0.7444 -0.0998
  540MOL0     C72812  -0.268   3.778   5.448 -0.6046 -0.6773 -0.3414
  540MOL0     O72813   0.046   3.982   5.292  0.1241 -0.4030  0.1896
  540MOL0     C72814   0.188   3.669   5.413 -0.6505  1.0266  0.5284
  540MOL0     C72815   0.306   3.609   5.454  0.9398  0.3551  0.5764
  540MOL0     N72816   1.161   3.475   5.275 -0.5540  0.2867 -0.3230
  540MOL0     N72817   1.268   3.519   5.216 -0.2029  0.8809  0.2152
  540MOL0     C72818   2.211   4.124   4.827 -0.4538 -0.8344 -1.1673
  540MOL0     C72819   2.347   4.142   4.812 -0.3362  0.7270  0.3968
  540MOL0     C72820   2.772   4.096   4.771 -0.0881 -0.2104 -0.0717
  540MOL0     C72821   2.834   4.211   4.805 -1.2354 -0.9104 -0.0805
  540MOL0     C72822   2.976   4.222   4.797 -0.0740 -0.5652  0.1213
  540MOL0     C72823   3.059   4.118   4.766 -0.0749 -0.0751 -0.1167
  540MOL0     O72824   3.189   4.114   4.769 -0.8012 -0.0996  0.7028
  540MOL0     C72825   3.257   4.130   4.895  0.1452 -0.1345  0.4492
  540MOL0     C72826   3.257   3.994   4.973  0.4130 -0.1333 -0.2177
  540MOL0     C72827   3.309   3.880   4.894 -0.2019  1.1366 -0.0862
  540MOL0     C72828   3.453   3.886   4.841  0.0043 -0.3746 -1.6980
  540MOL0     C72829   3.548   3.925   4.946  0.0996 -0.7565  0.3384
  540MOL0     C72830   3.614   3.941   5.045  0.2088 -0.4147  0.4514
  540MOL0     C72831   2.999   4.007   4.723  0.5600  0.7635  0.5102
  540MOL0     C72832   2.859   3.996   4.717 -0.5492  0.7095  0.4014
  540MOL0     H72833   2.446   4.009   5.111 -1.2184 -0.6319  1.5868
  540MOL0     H72834   2.194   3.984   5.133 -1.2751 -1.3165 -1.1372
  540MOL0     H72835   1.961   4.207   4.823  0.2132  0.3682  1.0618
  540MOL0     H72836   1.917   4.034   4.803 -1.8722  1.0600 -1.7434
  540MOL0     H72837   1.813   4.223   5.012 -0.2524 -3.3491  3.4661
  540MOL0     H72838   1.725   4.186   4.867 -2.4999  0.1072  2.3963
  540MOL0     H72839   1.803   3.987   5.094 -1.8922  4.0349  4.1527
  540MOL0     H72840   1.648   4.056   5.051  1.1392 -1.6299  0.9509
  540MOL0     H72841   1.674   3.949   4.810  0.6387 -0.0881 -0.7420
  540MOL0     H72842   1.792   3.853   4.878 -2.1924 -2.5485 -1.1925
  540MOL0     H72843   1.495   3.885   4.947  2.6229  3.3475 -3.7502
  540MOL0     H72844   1.562   3.742   4.887 -1.7460 -0.2458  0.4380
  540MOL0     H72845   1.720   3.721   5.090  0.6916  0.5272  1.5549
  540MOL0     H72846   1.637   3.855   5.157 -0.1614 -0.2255  0.7230
  540MOL0     H72847   1.503   3.576   5.091 -2.1196 -0.2469  1.2943
  540MOL0     H72848   1.548   3.625   5.254 -1.1658  1.9573  0.9748
  540MOL0     H72849   1.354   3.768   5.075  0.2969  0.2785 -0.2885
  540MOL0     H72850   1.397   3.823   5.234 -5.2503  2.1999 -1.7198
  540MOL0     H72851   1.156   3.791   5.347 -1.7687  0.3236 -3.3323
  540MOL0     H72852   0.979   3.568   5.512 -0.3775  1.3944  0.0806
  540MOL0     H72853   0.920   3.693   5.390 -1.7576 -1.1022 -1.2179
  540MOL0     H72854   0.919   3.393   5.347  0.8898 -0.0666 -1.4690
  540MOL0     H72855   0.851   3.513   5.236  0.4582  0.1431 -0.2019
  540MOL0     H72856   0.723   3.422   5.494 -0.6671 -0.0634  0.5668
  540MOL0     H72857   0.676   3.422   5.327  0.0226  0.8901  0.7229
  540MOL0     H72858   0.642   3.669   5.333  1.5258  1.5505  0.3878
  540MOL0     H72859   0.713   3.688   5.492 -0.5054  0.9436  1.2630
  540MOL0     H72860   0.538   3.843   5.399 -0.2233  1.2587 -1.0109
  540MOL0     H72861   0.325   4.012   5.199  0.7987 -1.8637 -0.5564
  540MOL0     H72862   0.275   4.057   5.372  0.6812  1.0637  0.2497
  540MOL0     H72863   0.445   4.032   5.334 -1.0974  1.4152  2.6681
  540MOL0     H72864  -0.178   3.970   5.184  1.5388 -2.1527  0.9458
  540MOL0     H72865  -0.411   4.026   5.203 -0.7272 -1.0707 -2.1882
  540MOL0     H72866  -0.630   3.980   5.531  2.6637 -0.1521 -0.2716
  540MOL0     H72867  -0.598   4.101   5.413  0.3982 -0.2244  0.4970
  540MOL0     H72868  -0.801   4.047   5.283  1.6400  1.8071  0.4397
  540MOL0     H72869  -0.842   3.934   5.406  0.5670 -0.8895 -0.7294
  540MOL0     H72870  -0.789   4.232   5.462 -1.0680 -0.0883  1.0011
  540MOL0     H72871  -0.846   4.102   5.578 -3.3875 -4.9390 -0.1848
  540MOL0     H72872  -0.984   4.207   5.328  2.4660  0.5373  0.3745
  540MOL0     H72873  -1.042   4.063   5.424 -1.6817 -0.0923  1.2058
  540MOL0     H72874  -1.010   4.347   5.524 -0.6343  0.0352 -0.1441
  540MOL0     H72875  -1.065   4.213   5.621  1.2898  0.0601 -0.0038
  540MOL0     H72876  -1.197   4.306   5.358  1.1896  0.1194 -0.6207
  540MOL0     H72877  -1.260   4.188   5.466 -1.3472  0.8426 -0.7236
  540MOL0     H72878  -1.206   4.483   5.549  1.4624 -1.8399  0.1479
  540MOL0     H72879  -1.253   4.357   5.669  0.8356 -0.3893 -0.0229
  540MOL0     H72880  -1.450   4.469   5.629  0.7512  0.9914  0.3161
  540MOL0     H72881  -1.459   4.317   5.535 -1.9443  1.0804 -0.2844
  540MOL0     H72882  -0.475   3.766   5.529  0.7650 -0.9274  0.8256
  540MOL0     H72883  -0.238   3.702   5.520  0.0604 -2.3768 -2.3281
  540MOL0     H72884   0.097   3.614   5.430  0.1863 -1.1506 -1.4162
  540MOL0     H72885   0.298   3.506   5.485 -0.3233 -1.0265 -3.6896
  540MOL0     H72886   2.145   4.149   4.745  1.2803  2.4135 -1.7200
  540MOL0     H72887   2.382   4.181   4.716 -2.0399  2.1159  0.2958
  540MOL0     H72888   2.774   4.295   4.840 -0.2802  0.5902 -1.8360
  540MOL0     H72889   3.029   4.317   4.806  2.0484 -1.3589 -2.7269
  540MOL0     H72890   3.360   4.167   4.883  1.3547 -3.3732 -0.0874
  540MOL0     H72891   3.207   4.208   4.953 -0.7756  0.7303 -1.4207
  540MOL0     H72892   3.155   3.976   5.007  0.0996  0.8343 -0.6167
  540MOL0     H72893   3.303   4.012   5.071 -0.1434  2.8560 -0.4130
  540MOL0     H72894   3.250   3.880   4.802 -0.8027  0.5250  0.2926
  540MOL0     H72895   3.287   3.785   4.944 -2.6590  1.9449  0.4896
  540MOL0     H72896   3.453   3.966   4.767 -1.2790  0.4430 -0.8502
  540MOL0     H72897   3.486   3.792   4.795 -0.0560 -1.2235 -0.1172
  540MOL0     H72898   3.679   3.936   5.130 -0.9087  0.5239  1.4079
  540MOL0     H72899   3.049   3.924   4.674 -3.5515 -3.4670  2.6169
  540MOL0     H72900   2.823   3.902   4.676 -0.6399  0.8767  0.0924
  541MOL0     O72901   4.463   5.078   6.439 -0.6764 -0.5091 -0.0643
  541MOL0     C72902   4.493   5.060   6.555 -0.4082  0.0026 -0.8343
  541MOL0     O72903   4.401   5.072   6.671 -0.4852 -0.3063  0.7642
  541MOL0     C72904   4.282   5.124   6.644  0.3353  0.4000 -0.6179
  541MOL0     C72905   4.177   5.049   6.596  0.3233  0.4989 -1.5424
  541MOL0     C72906   4.050   5.098   6.580  0.0559  0.5564 -0.5787
  541MOL0     C72907   4.018   5.229   6.592 -0.0608 -0.5105  0.2690
  541MOL0     O72908   3.886   5.271   6.581 -0.5439  1.2130 -0.3833
  541MOL0     C72909   3.843   5.409   6.572 -0.2780  0.4969 -1.0232
  541MOL0     C72910   3.846   5.481   6.699  0.0337  0.2921 -0.3529
  541MOL0     C72911   3.734   5.439   6.791  0.6210 -0.2903  0.1063
  541MOL0     C72912   3.599   5.503   6.736  1.2069 -1.1475 -0.6536
  541MOL0     C72913   3.467   5.465   6.813 -0.2171  0.1653  0.4291
  541MOL0     C72914   3.353   5.544   6.757  0.0191  1.1088 -0.2270
  541MOL0     C72915   3.218   5.516   6.827  0.6620  0.4784 -0.4215
  541MOL0     C72916   3.114   5.606   6.765 -1.7945 -0.6130  0.6626
  541MOL0     N72917   2.979   5.541   6.751 -0.0208 -0.2621  0.4828
  541MOL0     C72918   2.941   5.488   6.631  0.7872  0.8505 -0.3057
  541MOL0     C72919   2.824   5.422   6.656 -1.4300  1.1997  0.4825
  541MOL0     C72920   2.747   5.348   6.558  0.9509 -0.6112  0.1727
  541MOL0     C72921   2.604   5.402   6.557 -0.0371 -0.5641 -0.2231
  541MOL0     C72922   2.536   5.342   6.440  0.6034  0.1362 -0.2267
  541MOL0     C72923   2.521   5.185   6.449  0.5410  0.5494  0.6844
  541MOL0     O72924   2.422   5.139   6.364 -1.0514  0.0000  0.3709
  541MOL0     C72925   2.290   5.117   6.405 -0.2074 -0.7294  0.3896
  541MOL0     C72926   2.234   5.161   6.530  0.1448 -0.1549  1.3427
  541MOL0     C72927   2.104   5.133   6.567  0.6312  0.3230  0.0470
  541MOL0     C72928   2.059   5.164   6.708  0.2874  0.5713  0.6926
  541MOL0     C72929   2.016   5.063   6.479  0.1404 -0.1343  0.8564
  541MOL0     C72930   1.878   5.014   6.502  0.4664 -0.7386  0.0340
  541MOL0     O72931   1.831   5.024   6.625 -0.5940 -0.0573  0.5138
  541MOL0     C72932   1.711   4.991   6.663  0.2936 -0.0995  0.5449
  541MOL0     C72933   1.701   4.883   6.748  0.2053 -0.0103 -0.2262
  541MOL0     C72934   1.571   4.852   6.792  0.0931  0.2143  0.6183
  541MOL0     C72935   1.455   4.929   6.775 -0.5085 -0.2190  0.0766
  541MOL0     O72936   1.332   4.904   6.817 -0.6029 -0.0213  0.0091
  541MOL0     C72937   1.331   4.847   6.949  0.3797  0.5462 -0.0848
  541MOL0     C72938   1.218   4.879   7.045 -0.7007 -0.2257  0.0969
  541MOL0     C72939   1.084   4.878   6.970 -0.4653  0.0654 -0.3558
  541MOL0     C72940   0.979   4.887   7.080  0.6789  0.0878  0.5599
  541MOL0     C72941   0.836   4.853   7.022  0.5667  0.2007 -0.9505
  541MOL0     C72942   0.773   4.956   6.922  1.0050 -0.5210  0.4682
  541MOL0     C72943   0.624   4.942   6.923  0.6783  0.0689  0.4774
  541MOL0     C72944   0.595   4.815   6.852 -0.0909  0.1464 -0.7742
  541MOL0    Cl72945   0.419   4.788   6.876  0.4340  0.0832 -0.4931
  541MOL0     C72946   1.474   5.053   6.708 -0.2614  0.5052 -0.0302
  541MOL0     C72947   1.600   5.079   6.643  0.8704  0.0189 -0.9617
  541MOL0     O72948   1.816   4.962   6.413 -0.0928 -0.1887  0.4539
  541MOL0     C72949   2.071   5.048   6.350 -0.5440  0.6559  0.6440
  541MOL0     C72950   2.204   5.053   6.323 -0.7541 -0.8131  0.7868
  541MOL0     N72951   2.797   5.447   6.790  0.6597  0.3424 -0.8529
  541MOL0     N72952   2.890   5.517   6.841  0.0582 -0.2904  0.1224
  541MOL0     C72953   4.126   5.312   6.633 -0.9318  0.1129  0.5991
  541MOL0     C72954   4.251   5.264   6.675  0.1125 -0.3544 -0.3107
  541MOL0     C72955   4.625   5.003   6.588 -0.1490 -0.2472  0.5811
  541MOL0     C72956   4.724   5.007   6.486  0.2613  0.1362  0.4705
  541MOL0     C72957   4.854   4.954   6.510  0.2230 -0.2288 -0.8376
  541MOL0     C72958   4.881   4.882   6.630 -0.8249  0.4291 -0.3197
  541MOL0     O72959   5.010   4.838   6.655  0.0501  0.0192 -0.1568
  541MOL0     C72960   5.065   4.840   6.788  0.3423  0.1443  0.5548
  541MOL0     C72961   5.085   4.976   6.855  0.0042  0.9377  0.0856
  541MOL0     C72962   5.182   5.061   6.769 -0.1517 -0.0726 -0.2998
  541MOL0     C72963   5.191   5.204   6.825  0.2719 -0.1258 -1.2547
  541MOL0     C72964   5.068   5.269   6.775 -0.4918  0.3643  0.6644
  541MOL0     C72965   4.983   5.342   6.752  0.4153  0.4812 -0.3942
  541MOL0     C72966   4.782   4.881   6.730 -0.0430 -0.4341 -0.1733
  541MOL0     C72967   4.663   4.949   6.712  0.2285  0.0098  0.4061
  541MOL0     H72968   4.193   4.944   6.573  1.6201  0.3472 -0.1216
  541MOL0     H72969   3.973   5.029   6.547 -1.9810  1.7002  1.4550
  541MOL0     H72970   3.911   5.461   6.504  0.6391  1.4841  0.5892
  541MOL0     H72971   3.743   5.402   6.527 -1.1369 -0.0347  0.8680
  541MOL0     H72972   3.939   5.469   6.755 -1.0471 -1.1849  1.2388
  541MOL0     H72973   3.841   5.589   6.687  0.6407  0.1073 -2.9758
  541MOL0     H72974   3.732   5.330   6.793 -1.2718 -0.2906  0.2484
  541MOL0     H72975   3.741   5.481   6.892 -2.5637  3.5859 -1.0312
  541MOL0     H72976   3.593   5.612   6.730 -0.1721 -1.2473 -1.5976
  541MOL0     H72977   3.580   5.471   6.632 -1.3673 -2.7076  0.1848
  541MOL0     H72978   3.453   5.358   6.795 -0.4681  0.5653 -2.0792
  541MOL0     H72979   3.484   5.480   6.920  2.6880  0.1818  0.0405
  541MOL0     H72980   3.378   5.651   6.761  0.8217  0.9281 -0.1536
  541MOL0     H72981   3.343   5.522   6.651  0.1161 -0.4366  0.0601
  541MOL0     H72982   3.186   5.413   6.811 -2.4374  1.0462  1.3159
  541MOL0     H72983   3.229   5.546   6.932 -3.2518  4.3741 -0.8498
  541MOL0     H72984   3.152   5.641   6.669 -1.9047 -1.7879  0.1756
  541MOL0     H72985   3.106   5.697   6.826  3.6267  1.0373 -0.5758
  541MOL0     H72986   2.997   5.492   6.538  1.8705  0.8602  0.3328
  541MOL0     H72987   2.798   5.368   6.463 -0.2318 -0.7287 -0.5062
  541MOL0     H72988   2.750   5.242   6.583  0.2341 -0.2961  1.6831
  541MOL0     H72989   2.602   5.511   6.546 -0.3474 -0.3877  1.3198
  541MOL0     H72990   2.551   5.377   6.649  4.1516 -2.1983  2.0191
  541MOL0     H72991   2.595   5.366   6.351  0.6968 -0.4725 -0.3333
  541MOL0     H72992   2.439   5.391   6.428 -0.5813 -1.3651  2.3737
  541MOL0     H72993   2.499   5.153   6.552  0.7990 -1.4436  0.1656
  541MOL0     H72994   2.609   5.121   6.434 -2.0806 -3.1485 -0.2844
  541MOL0     H72995   2.289   5.232   6.591 -0.5541  1.0128  0.6617
  541MOL0     H72996   1.959   5.207   6.704 -0.9413 -1.8047  2.8973
  541MOL0     H72997   2.063   5.074   6.771  0.6651 -0.3501 -0.5969
  541MOL0     H72998   2.136   5.235   6.741  0.1139  2.7677 -3.0806
  541MOL0     H72999   1.774   4.804   6.765  1.3017  1.1730  0.7260
  541MOL0     H73000   1.561   4.767   6.859  1.2356 -0.0502  0.4795
  541MOL0     H73001   1.320   4.742   6.922 -0.0324  1.3208 -3.3231
  541MOL0     H73002   1.421   4.879   7.002 -1.0769 -1.8505  4.3357
  541MOL0     H73003   1.220   4.807   7.128  2.9289  0.5826  0.9037
  541MOL0     H73004   1.240   4.977   7.088 -0.2896 -0.7482  1.1327
  541MOL0     H73005   1.070   4.796   6.899  0.4906  1.0395 -1.7357
  541MOL0     H73006   1.091   4.969   6.909 -2.7461  0.0244 -0.7546
  541MOL0     H73007   0.995   4.818   7.164  1.3149  2.8600  2.9122
  541MOL0     H73008   0.974   4.989   7.120  0.8149  1.0250 -1.6750
  541MOL0     H73009   0.769   4.843   7.108 -1.7152  0.4092 -2.6095
  541MOL0     H73010   0.841   4.749   6.987 -1.6428 -0.9835  1.7833
  541MOL0     H73011   0.796   5.056   6.959 -0.2201 -0.0103 -0.1052
  541MOL0     H73012   0.823   4.937   6.826  1.4737 -0.8478  0.7698
  541MOL0     H73013   0.576   5.028   6.877  1.1518  0.3573  0.5183
  541MOL0     H73014   0.577   4.936   7.022 -1.2139 -0.3613 -0.4034
  541MOL0     H73015   0.644   4.730   6.900 -1.5718  0.7971  2.1533
  541MOL0     H73016   0.623   4.825   6.747 -1.5791  0.3414 -1.1744
  541MOL0     H73017   1.395   5.123   6.685  0.9819  1.8940 -0.2648
  541MOL0     H73018   1.617   5.169   6.586  0.3217 -0.0740 -1.2786
  541MOL0     H73019   2.005   5.006   6.275  1.4579  2.0084 -2.0142
  541MOL0     H73020   2.242   5.019   6.228  0.5258  0.1301  0.9408
  541MOL0     H73021   4.110   5.419   6.642 -2.8699 -0.3166  5.1611
  541MOL0     H73022   4.326   5.333   6.713 -0.4303 -0.1507  0.3953
  541MOL0     H73023   4.696   5.046   6.389  0.9950  1.9728  0.9629
  541MOL0     H73024   4.931   4.958   6.433  0.3187  1.2779 -0.7046
  541MOL0     H73025   5.003   4.774   6.849  0.1311 -0.3203 -0.1483
  541MOL0     H73026   5.162   4.790   6.783  1.0291  1.5169 -2.3211
  541MOL0     H73027   5.133   4.963   6.953 -0.5727 -1.9730  0.0848
  541MOL0     H73028   4.987   5.024   6.866  1.0280  2.8784  1.3639
  541MOL0     H73029   5.160   5.051   6.662  0.2127 -3.4981 -0.1500
  541MOL0     H73030   5.276   5.006   6.775  0.3777  0.7729 -0.6388
  541MOL0     H73031   5.287   5.251   6.801  0.3017 -0.6849 -2.3004
  541MOL0     H73032   5.187   5.216   6.933  1.0678  2.1261 -1.4242
  541MOL0     H73033   4.897   5.406   6.749  0.4326  0.7070  2.0591
  541MOL0     H73034   4.798   4.831   6.825 -1.2768  1.2400  0.9942
  541MOL0     H73035   4.594   4.947   6.796  3.4157 -1.4899  3.2223
  542MOL0     O73036   4.770  10.975   2.632  0.5629  0.4575 -0.2491
  542MOL0     C73037   4.791  11.016   2.744  0.1676 -0.3937  0.1549
  542MOL0     O73038   4.702  11.026   2.851 -0.2832  0.4912  0.5490
  542MOL0     C73039   4.577  11.004   2.816 -0.3572 -0.3503 -0.4760
  542MOL0     C73040   4.506  10.897   2.873  0.5282  0.0898  0.4021
  542MOL0     C73041   4.371  10.878   2.843 -0.5106  0.1236  0.1926
  542MOL0     C73042   4.298  10.963   2.762  0.2216  0.9966 -0.8535
  542MOL0     O73043   4.170  10.949   2.716 -0.7648 -0.2612  0.3755
  542MOL0     C73044   4.103  10.823   2.725 -0.5237  0.0590 -0.2046
  542MOL0     C73045   3.954  10.839   2.693 -0.1713 -0.6082  0.1992
  542MOL0     C73046   3.875  10.703   2.710 -0.3840 -0.4967  0.8083
  542MOL0     C73047   3.730  10.726   2.677  0.0479 -0.4354 -0.3318
  542MOL0     C73048   3.646  10.599   2.672 -0.2157  0.2135 -0.2406
  542MOL0     C73049   3.533  10.598   2.563  0.2065 -0.3052 -0.2141
  542MOL0     C73050   3.465  10.459   2.558  0.3082  0.3009  0.0480
  542MOL0     C73051   3.317  10.458   2.518  0.0699 -0.1513 -0.4214
  542MOL0     N73052   3.237  10.523   2.620  0.2719  0.9499  0.2810
  542MOL0     C73053   3.220  10.481   2.753 -0.2367  0.1211  0.2980
  542MOL0     C73054   3.171  10.595   2.815  0.4125  0.0479 -0.9279
  542MOL0     C73055   3.115  10.611   2.959 -0.0737 -0.2210 -0.0745
  542MOL0     C73056   2.970  10.651   2.950 -0.0398  0.1323 -0.2603
  542MOL0     C73057   2.928  10.730   3.074  0.0905 -1.2720 -0.8059
  542MOL0     C73058   2.778  10.746   3.077  0.1380  0.4690  0.2063
  542MOL0     O73059   2.712  10.620   3.099  0.7309  0.2350  0.2255
  542MOL0     C73060   2.578  10.624   3.118 -0.7985 -0.3353 -0.9471
  542MOL0     C73061   2.508  10.527   3.195 -0.3940  0.3445 -0.3946
  542MOL0     C73062   2.371  10.523   3.209  0.6454 -0.4097  0.4469
  542MOL0     C73063   2.304  10.393   3.262 -0.4143  0.5998 -0.7482
  542MOL0     C73064   2.299  10.638   3.157 -0.0623  1.0652  0.7147
  542MOL0     C73065   2.151  10.653   3.168 -0.1946 -0.4049 -0.9931
  542MOL0     O73066   2.087  10.604   3.285  0.0254 -0.3582 -0.5246
  542MOL0     C73067   1.966  10.656   3.327  0.4561 -0.2679  0.0050
  542MOL0     C73068   1.875  10.572   3.389 -0.0841  0.0598  0.0553
  542MOL0     C73069   1.749  10.624   3.443 -0.9045 -0.0334 -0.1496
  542MOL0     C73070   1.717  10.759   3.431  0.6560 -0.1435  0.3529
  542MOL0     O73071   1.599  10.818   3.477 -0.9160  0.1461  0.2623
  542MOL0     C73072   1.518  10.742   3.559  0.4078 -0.1080 -0.4612
  542MOL0     C73073   1.415  10.831   3.609  0.3252  0.3674  0.3893
  542MOL0     C73074   1.291  10.752   3.671  0.2741 -0.3243 -0.3268
  542MOL0     C73075   1.196  10.844   3.744 -0.1384 -0.2606 -0.2622
  542MOL0     C73076   1.055  10.789   3.738 -0.1723 -0.4648 -1.2682
  542MOL0     C73077   0.970  10.889   3.821  0.1984  0.5149  0.2371
  542MOL0     C73078   0.824  10.839   3.827 -0.1269  0.6343  0.7306
  542MOL0     C73079   0.754  10.897   3.944  1.1750  0.0744  0.2487
  542MOL0    Cl73080   0.692  11.062   3.924 -0.0607  0.0941 -0.3014
  542MOL0     C73081   1.809  10.837   3.358  0.8935 -0.3045 -0.3134
  542MOL0     C73082   1.933  10.793   3.321  0.4517 -0.1863 -0.4614
  542MOL0     O73083   2.098  10.725   3.086  0.6307 -0.5293  0.2375
  542MOL0     C73084   2.367  10.737   3.093 -0.5831  0.2815 -0.5868
  542MOL0     C73085   2.505  10.726   3.066  0.9159  0.0855  0.7125
  542MOL0     N73086   3.154  10.695   2.716 -0.8369 -0.0563 -1.4826
  542MOL0     N73087   3.185  10.643   2.600 -0.6263  0.1076 -0.3769
  542MOL0     C73088   4.370  11.072   2.709 -0.0221  0.9338  0.3747
  542MOL0     C73089   4.509  11.092   2.724  0.2124 -0.2361  1.2822
  542MOL0     C73090   4.931  11.040   2.777 -0.4465 -0.0463 -0.0856
  542MOL0     C73091   4.960  11.089   2.906 -0.3030 -0.0411 -0.5610
  542MOL0     C73092   5.095  11.114   2.942  0.2750  0.4530  0.4647
  542MOL0     C73093   5.198  11.115   2.847 -0.6558 -0.1993  0.6591
  542MOL0     O73094   5.330  11.138   2.883  0.4571 -0.4063  0.5078
  542MOL0     C73095   5.396  11.014   2.916  0.4142 -1.0745 -0.7395
  542MOL0     C73096   5.409  10.987   3.071 -0.3313  0.5591 -0.5629
  542MOL0     C73097   5.468  11.101   3.150 -0.3291  0.0162  0.0649
  542MOL0     C73098   5.536  11.053   3.281 -0.2602  0.4142 -0.1690
  542MOL0     C73099   5.464  10.948   3.355 -0.1984  0.7725 -0.5707
  542MOL0     C73100   5.386  10.870   3.394 -0.7016  0.7486 -0.3590
  542MOL0     C73101   5.157  11.079   2.714 -0.8510 -0.2654 -0.2131
  542MOL0     C73102   5.031  11.035   2.677 -0.2751  0.0392  0.1779
  542MOL0     H73103   4.549  10.825   2.942 -1.4722 -0.6284  0.9507
  542MOL0     H73104   4.337  10.792   2.899 -1.8311 -0.3460 -1.2394
  542MOL0     H73105   4.158  10.752   2.662  1.0071 -0.4163  1.5889
  542MOL0     H73106   4.106  10.772   2.821 -1.1348 -0.0750 -0.2524
  542MOL0     H73107   3.893  10.909   2.750 -0.3408  2.1797 -3.0433
  542MOL0     H73108   3.945  10.875   2.590  2.7732 -0.6885 -0.1727
  542MOL0     H73109   3.905  10.615   2.652 -0.3091 -2.0609  3.0790
  542MOL0     H73110   3.892  10.678   2.816  1.7785 -1.1931  0.3566
  542MOL0     H73111   3.694  10.794   2.754  2.4439  0.2715  0.2631
  542MOL0     H73112   3.735  10.776   2.580 -0.7317 -2.4266 -1.4705
  542MOL0     H73113   3.702  10.510   2.640  0.3424  0.8203 -0.9829
  542MOL0     H73114   3.594  10.578   2.766  2.9598 -0.6351  1.4862
  542MOL0     H73115   3.462  10.672   2.604 -1.1151 -0.2285 -2.4828
  542MOL0     H73116   3.579  10.626   2.468  0.9287  1.6490  0.6471
  542MOL0     H73117   3.514  10.393   2.485  1.1209  1.6052 -0.6189
  542MOL0     H73118   3.475  10.410   2.656  0.8038 -0.2590 -0.2727
  542MOL0     H73119   3.284  10.356   2.495 -1.4880 -0.4819  2.7411
  542MOL0     H73120   3.313  10.506   2.420  0.8587  0.2786 -0.2569
  542MOL0     H73121   3.246  10.383   2.791  0.0816 -0.4807 -1.3932
  542MOL0     H73122   3.120  10.515   3.012 -0.0114 -0.1241  0.0960
  542MOL0     H73123   3.184  10.685   3.001 -0.2326  0.4465 -0.9514
  542MOL0     H73124   2.907  10.562   2.939 -1.6061  0.7225  2.9866
  542MOL0     H73125   2.948  10.708   2.859  0.7233 -1.1894 -1.3310
  542MOL0     H73126   2.973  10.829   3.060 -1.6085 -0.2910  0.2280
  542MOL0     H73127   2.977  10.689   3.163 -3.1384  1.2104  2.4315
  542MOL0     H73128   2.745  10.793   2.984  1.6681 -2.1279 -1.7861
  542MOL0     H73129   2.759  10.822   3.153  0.0296 -0.4655  1.1241
  542MOL0     H73130   2.565  10.447   3.241 -1.2760 -0.4744 -0.7027
  542MOL0     H73131   2.374  10.315   3.294 -2.0515  0.3772  2.7686
  542MOL0     H73132   2.247  10.411   3.354  1.2531 -0.7250  0.6184
  542MOL0     H73133   2.242  10.345   3.186  0.5821 -0.1623 -1.0959
  542MOL0     H73134   1.893  10.465   3.388 -3.3596 -0.6225  1.2494
  542MOL0     H73135   1.680  10.557   3.493 -0.7090 -0.5165 -0.5150
  542MOL0     H73136   1.484  10.661   3.494 -2.7525  2.1800 -1.8842
  542MOL0     H73137   1.572  10.718   3.652  1.4473 -0.7643 -1.2117
  542MOL0     H73138   1.456  10.894   3.688 -1.1871  0.1939  1.3543
  542MOL0     H73139   1.379  10.892   3.526  1.7629 -0.3291 -0.7808
  542MOL0     H73140   1.323  10.685   3.751 -1.4618  1.8303  2.3493
  542MOL0     H73141   1.239  10.697   3.591  1.0636 -4.5386  1.7964
  542MOL0     H73142   1.229  10.854   3.848  0.9674  1.6211 -0.7519
  542MOL0     H73143   1.191  10.938   3.688  0.2315 -0.0233  0.0930
  542MOL0     H73144   1.056  10.689   3.782 -1.0770  0.3240  0.6410
  542MOL0     H73145   1.016  10.782   3.636 -1.9855 -1.7037 -0.5537
  542MOL0     H73146   1.007  10.906   3.922 -5.0380 -1.0570  2.8260
  542MOL0     H73147   0.967  10.982   3.765 -1.0347  0.1090 -0.4259
  542MOL0     H73148   0.824  10.730   3.836 -1.9369  0.2727 -2.2639
  542MOL0     H73149   0.774  10.848   3.731 -0.9912 -3.4558  0.6066
  542MOL0     H73150   0.810  10.872   4.034  0.7650 -1.7223  0.0476
  542MOL0     H73151   0.660  10.845   3.964  1.7559 -2.9166 -3.5758
  542MOL0     H73152   1.778  10.941   3.351  0.5089 -0.3573  0.4939
  542MOL0     H73153   2.002  10.866   3.280  0.6664 -0.3165 -0.3307
  542MOL0     H73154   2.321  10.830   3.063 -0.1013 -0.2661 -3.2461
  542MOL0     H73155   2.540  10.812   3.010 -0.3060 -0.8886 -1.6824
  542MOL0     H73156   4.326  11.136   2.633 -0.0371  0.3146 -0.1565
  542MOL0     H73157   4.554  11.181   2.679  0.7514 -0.1233  2.0215
  542MOL0     H73158   4.881  11.097   2.979  1.6281 -0.4229  1.6865
  542MOL0     H73159   5.108  11.141   3.047  0.8657 -1.6399  0.9787
  542MOL0     H73160   5.342  10.929   2.873  0.2928 -0.8201 -1.0972
  542MOL0     H73161   5.496  11.017   2.870  0.4297  1.7066 -0.6822
  542MOL0     H73162   5.463  10.893   3.081 -1.4613 -0.9274 -5.5368
  542MOL0     H73163   5.306  10.966   3.100  0.5073 -1.0686  1.5167
  542MOL0     H73164   5.385  11.162   3.186 -2.6463 -3.3867  1.0306
  542MOL0     H73165   5.533  11.163   3.088 -1.7726  0.8132 -0.7152
  542MOL0     H73166   5.568  11.131   3.351 -1.9752  0.1531  0.9531
  542MOL0     H73167   5.624  11.000   3.243 -0.8758 -1.6379  1.0886
  542MOL0     H73168   5.299  10.817   3.428 -0.5231  0.3057 -0.5857
  542MOL0     H73169   5.242  11.085   2.648  1.1020 -1.8961  1.9673
  542MOL0     H73170   5.019  11.004   2.574  0.0822  0.3623  0.0349
  543MOL0     O73171   3.555   6.039   7.992 -0.0337  0.0865 -0.0770
  543MOL0     C73172   3.559   6.158   7.967 -0.1153 -0.9476  0.2812
  543MOL0     O73173   3.474   6.262   8.003 -0.2406  0.3011 -0.2572
  543MOL0     C73174   3.363   6.242   8.087 -0.0392  0.5456  0.0657
  543MOL0     C73175   3.294   6.128   8.126  0.4649  1.2493  0.2961
  543MOL0     C73176   3.178   6.129   8.190 -0.7763  0.2759 -0.2106
  543MOL0     C73177   3.107   6.243   8.226 -0.2007  0.6092 -0.4407
  543MOL0     O73178   2.988   6.217   8.294 -0.3854  0.4443  0.1669
  543MOL0     C73179   2.919   6.327   8.349  0.0169 -0.5956 -0.5069
  543MOL0     C73180   2.781   6.290   8.408  0.1037  0.0878  1.2786
  543MOL0     C73181   2.682   6.269   8.288 -0.0382  0.0854 -0.0483
  543MOL0     C73182   2.551   6.197   8.342 -0.2699  0.0441 -0.0993
  543MOL0     C73183   2.453   6.193   8.234  0.4107  0.1635  0.3088
  543MOL0     C73184   2.335   6.097   8.261 -0.3656  0.2377 -0.9344
  543MOL0     C73185   2.249   6.139   8.386 -0.0990 -0.7315 -0.1649
  543MOL0     C73186   2.148   6.254   8.362 -0.4200  0.0375 -0.0443
  543MOL0     N73187   2.028   6.236   8.289  0.1685  0.5962  1.0508
  543MOL0     C73188   1.904   6.224   8.348 -0.3962 -0.1388  0.0924
  543MOL0     C73189   1.814   6.254   8.250  0.2180  0.1176  0.4821
  543MOL0     C73190   1.658   6.272   8.271  0.2752 -0.6648  0.0770
  543MOL0     C73191   1.576   6.155   8.326 -0.4596  0.0688  1.0919
  543MOL0     C73192   1.443   6.203   8.370  0.8811 -0.1607  0.4365
  543MOL0     C73193   1.353   6.276   8.266 -0.6429  0.4530  0.3038
  543MOL0     O73194   1.358   6.194   8.144  0.2324 -1.0804 -0.2353
  543MOL0     C73195   1.245   6.117   8.139  0.0480  0.0516 -0.3240
  543MOL0     C73196   1.127   6.188   8.109 -0.1282  1.1600  0.3894
  543MOL0     C73197   1.005   6.120   8.110  0.1351 -0.2931  0.0976
  543MOL0     C73198   0.890   6.205   8.055  0.0291  0.0849  0.2686
  543MOL0     C73199   0.993   5.987   8.159 -0.2026  0.1535  0.0412
  543MOL0     C73200   0.868   5.914   8.164 -0.6232  0.6720  0.1299
  543MOL0     O73201   0.775   5.954   8.081 -0.1013 -0.6132  0.6436
  543MOL0     C73202   0.652   5.899   8.072  0.1115 -0.0060  0.2919
  543MOL0     C73203   0.617   5.774   8.122  0.3486 -0.4244  0.5614
  543MOL0     C73204   0.481   5.733   8.112  0.2642 -0.0768 -0.5577
  543MOL0     C73205   0.381   5.820   8.073 -0.5444 -0.1227  0.3023
  543MOL0     O73206   0.247   5.790   8.075  0.5565  0.7753  0.3944
  543MOL0     C73207   0.197   5.711   8.188  0.3099 -0.1291  0.0187
  543MOL0     C73208   0.048   5.726   8.166 -1.1896  0.0759  0.3492
  543MOL0     C73209  -0.033   5.668   8.281  0.4808 -0.1530  1.4521
  543MOL0     C73210  -0.024   5.750   8.408 -0.3554  0.1447 -0.3411
  543MOL0     C73211  -0.128   5.713   8.507 -0.1260  0.2132 -0.1487
  543MOL0     C73212  -0.110   5.790   8.634  0.2596  0.4677  0.5367
  543MOL0     C73213  -0.218   5.754   8.746 -0.0871 -0.1176 -0.0811
  543MOL0     C73214  -0.249   5.874   8.839 -0.6596 -0.0819  0.5026
  543MOL0    Cl73215  -0.393   5.831   8.947  0.0673  0.2856 -0.1173
  543MOL0     C73216   0.418   5.948   8.031 -0.2704  0.7398 -0.9645
  543MOL0     C73217   0.552   5.979   8.029 -1.0440 -0.3134  0.8183
  543MOL0     O73218   0.862   5.840   8.258 -0.4823 -0.0681  0.1887
  543MOL0     C73219   1.116   5.919   8.191  0.7108 -0.3936 -0.4642
  543MOL0     C73220   1.238   5.981   8.180 -0.1210 -0.2659  0.7105
  543MOL0     N73221   1.882   6.285   8.131 -0.5361 -0.0148  0.0024
  543MOL0     N73222   2.008   6.266   8.155 -0.4001 -0.7068 -0.0120
  543MOL0     C73223   3.171   6.365   8.193 -0.7504 -1.2342 -0.7507
  543MOL0     C73224   3.304   6.359   8.124  0.1189 -0.7353 -0.4963
  543MOL0     C73225   3.695   6.204   7.914 -0.1355 -0.3336 -0.6541
  543MOL0     C73226   3.763   6.138   7.804  0.6992  0.5922 -0.0193
  543MOL0     C73227   3.881   6.180   7.750 -0.0091  0.6368 -0.8491
  543MOL0     C73228   3.947   6.284   7.814  0.7051 -0.1751 -0.8637
  543MOL0     O73229   4.064   6.309   7.751 -0.5611  0.3251 -0.5669
  543MOL0     C73230   4.125   6.436   7.779  0.6441  0.6028 -0.0295
  543MOL0     C73231   4.249   6.459   7.692 -0.7979  0.3323 -0.9525
  543MOL0     C73232   4.363   6.369   7.734 -0.2480 -0.2197  0.0807
  543MOL0     C73233   4.476   6.371   7.626 -0.3093  1.4741 -0.2706
  543MOL0     C73234   4.595   6.298   7.669 -0.1996  0.4744 -0.0363
  543MOL0     C73235   4.697   6.235   7.700 -0.2988  0.7641 -0.0840
  543MOL0     C73236   3.894   6.348   7.929 -0.3653  0.3147 -0.9989
  543MOL0     C73237   3.762   6.315   7.969  0.5377  0.1142 -0.7015
  543MOL0     H73238   3.333   6.031   8.096  2.0991  0.4432  4.3299
  543MOL0     H73239   3.139   6.030   8.207  0.8512 -0.6072 -1.3816
  543MOL0     H73240   2.974   6.391   8.419  1.1634 -0.7450 -1.2302
  543MOL0     H73241   2.888   6.393   8.267  0.3910  0.2866  0.0415
  543MOL0     H73242   2.801   6.191   8.449  0.8653 -0.8351 -1.1137
  543MOL0     H73243   2.759   6.373   8.475  1.2593  0.4256  1.2570
  543MOL0     H73244   2.656   6.370   8.256  1.2343  0.7752  1.0269
  543MOL0     H73245   2.719   6.207   8.206  1.6351  1.8688 -0.6956
  543MOL0     H73246   2.567   6.095   8.380  1.4460  0.8693  1.6044
  543MOL0     H73247   2.508   6.265   8.416 -2.4394  1.2067 -2.3080
  543MOL0     H73248   2.415   6.291   8.203 -2.5734 -0.9871  0.0569
  543MOL0     H73249   2.498   6.144   8.148 -0.8126 -2.0538  0.8399
  543MOL0     H73250   2.279   6.093   8.167  0.4629 -0.8937 -1.4094
  543MOL0     H73251   2.371   5.995   8.278 -2.1988 -0.1086  1.5312
  543MOL0     H73252   2.189   6.052   8.415  1.0994 -1.0921  1.4109
  543MOL0     H73253   2.311   6.163   8.473 -1.1568  1.8233 -0.0246
  543MOL0     H73254   2.195   6.345   8.325  1.6770 -0.1483  1.9157
  543MOL0     H73255   2.127   6.292   8.463  2.8735  0.7277  0.4973
  543MOL0     H73256   1.886   6.200   8.453 -0.3330 -0.3141  0.0624
  543MOL0     H73257   1.638   6.347   8.348  0.7641  1.3245 -1.6348
  543MOL0     H73258   1.619   6.308   8.176 -0.5353  1.4759  1.1481
  543MOL0     H73259   1.636   6.105   8.403  0.3217 -1.0096 -0.1586
  543MOL0     H73260   1.556   6.084   8.245 -0.9824 -0.4341  1.6538
  543MOL0     H73261   1.452   6.258   8.464 -2.3035  1.6507 -0.1653
  543MOL0     H73262   1.390   6.111   8.396  1.9748 -0.0014  3.6972
  543MOL0     H73263   1.377   6.381   8.246 -0.0583  0.4983  1.1591
  543MOL0     H73264   1.251   6.280   8.306 -0.5153 -2.5059  1.1696
  543MOL0     H73265   1.135   6.293   8.084 -0.5079  2.7720  5.8465
  543MOL0     H73266   0.870   6.174   7.953 -0.2412 -3.9707  1.3886
  543MOL0     H73267   0.793   6.194   8.104  0.7461  0.8930  1.9681
  543MOL0     H73268   0.917   6.311   8.053 -0.6026  0.2449 -1.6830
  543MOL0     H73269   0.697   5.709   8.154  1.4265  0.6606  0.1401
  543MOL0     H73270   0.456   5.639   8.160  0.9735 -0.1463 -0.3076
  543MOL0     H73271   0.238   5.610   8.191 -0.3098 -0.5258 -2.3016
  543MOL0     H73272   0.226   5.763   8.279  1.4601  1.1279 -1.0064
  543MOL0     H73273   0.022   5.830   8.143  2.8621  0.5992 -3.0088
  543MOL0     H73274   0.036   5.682   8.066  0.2586  0.2577  0.0709
  543MOL0     H73275  -0.005   5.564   8.303  1.1069 -0.6068 -1.1734
  543MOL0     H73276  -0.137   5.671   8.248  0.5654 -1.3668  1.0160
  543MOL0     H73277   0.070   5.720   8.455 -2.1215 -1.6424  2.3099
  543MOL0     H73278  -0.032   5.855   8.381 -1.3997  0.2580  0.3452
  543MOL0     H73279  -0.102   5.609   8.529  1.4730  0.9221  1.6395
  543MOL0     H73280  -0.229   5.729   8.469 -0.0683 -1.0493 -0.8739
  543MOL0     H73281  -0.011   5.776   8.676 -0.4779 -1.1732  1.8502
  543MOL0     H73282  -0.112   5.896   8.608 -0.1522  0.5807  1.0113
  543MOL0     H73283  -0.181   5.661   8.790 -1.7275 -1.4023 -1.2642
  543MOL0     H73284  -0.312   5.714   8.708 -1.0724  2.1113 -0.1656
  543MOL0     H73285  -0.275   5.963   8.782 -0.1786 -0.6745 -0.6671
  543MOL0     H73286  -0.172   5.900   8.913 -1.9663  1.6707  1.3182
  543MOL0     H73287   0.348   6.028   8.009 -0.3830  1.7160  2.3289
  543MOL0     H73288   0.586   6.079   8.006  0.0618 -0.8241  0.1696
  543MOL0     H73289   1.106   5.811   8.202  0.3565 -0.5036 -1.7179
  543MOL0     H73290   1.328   5.923   8.197  0.2312 -0.5006 -1.5886
  543MOL0     H73291   3.122   6.459   8.213  0.9424  0.0340 -2.1906
  543MOL0     H73292   3.328   6.460   8.090  0.3490 -0.5737  0.1289
  543MOL0     H73293   3.722   6.048   7.760 -1.4853  1.2573  0.5349
  543MOL0     H73294   3.916   6.134   7.658 -1.8477 -0.4757 -1.0445
  543MOL0     H73295   4.051   6.513   7.754  0.7650  0.3110 -1.3422
  543MOL0     H73296   4.149   6.455   7.884 -0.8044  4.0711 -0.1858
  543MOL0     H73297   4.275   6.564   7.704 -1.1819  0.2504  0.9738
  543MOL0     H73298   4.229   6.456   7.585  0.0330 -4.1412 -1.1686
  543MOL0     H73299   4.327   6.267   7.751 -0.0699 -0.0987  1.2765
  543MOL0     H73300   4.405   6.409   7.826  1.1970 -0.9853 -0.2100
  543MOL0     H73301   4.514   6.472   7.608 -0.1820  1.2096 -1.5979
  543MOL0     H73302   4.437   6.323   7.536 -1.0253 -0.8344  1.1801
  543MOL0     H73303   4.785   6.184   7.733 -0.4212 -1.0817 -2.2785
  543MOL0     H73304   3.958   6.417   7.982  1.0070 -0.0624 -2.1036
  543MOL0     H73305   3.707   6.373   8.043 -0.2285 -0.1050 -1.0838
  544MOL0     O73306   6.005   6.500   6.523  0.2370  0.0592  0.0544
  544MOL0     C73307   5.979   6.424   6.428 -0.4547 -0.5535  0.1737
  544MOL0     O73308   5.853   6.416   6.377 -0.3502  0.1717 -0.0625
  544MOL0     C73309   5.746   6.478   6.440 -0.3367 -1.0287 -1.0082
  544MOL0     C73310   5.658   6.543   6.352  0.6466 -0.3684 -0.7812
  544MOL0     C73311   5.538   6.608   6.399 -0.3607 -0.6768  0.5232
  544MOL0     C73312   5.497   6.581   6.533 -0.8145 -0.4142 -0.6148
  544MOL0     O73313   5.385   6.646   6.586 -0.1090 -0.5748 -0.6254
  544MOL0     C73314   5.319   6.747   6.505 -0.1127  0.4204 -0.1264
  544MOL0     C73315   5.195   6.792   6.583 -0.2472 -0.7196 -0.5257
  544MOL0     C73316   5.237   6.902   6.676 -0.1093 -0.4302 -0.0109
  544MOL0     C73317   5.129   6.963   6.774  0.7724 -0.5467  0.2475
  544MOL0     C73318   5.212   7.034   6.890  0.1177 -0.7880 -0.7155
  544MOL0     C73319   5.117   7.134   6.963 -0.3030 -0.6597  0.3449
  544MOL0     C73320   4.999   7.082   7.038 -0.0505  0.7518  0.0656
  544MOL0     C73321   4.925   7.185   7.116 -0.9742 -0.4370 -0.8660
  544MOL0     N73322   4.840   7.121   7.221 -0.7575 -0.2875 -0.4171
  544MOL0     C73323   4.877   7.071   7.346 -0.4412  0.0044  0.0336
  544MOL0     C73324   4.768   7.005   7.392  0.7366 -0.0500 -0.5913
  544MOL0     C73325   4.770   6.903   7.506 -0.2401  0.2547 -0.3833
  544MOL0     C73326   4.648   6.917   7.596  0.2120  0.0971 -0.3136
  544MOL0     C73327   4.664   6.863   7.740 -0.4099  0.0368 -0.3769
  544MOL0     C73328   4.539   6.888   7.825 -0.0033 -0.2393 -0.0882
  544MOL0     O73329   4.435   6.799   7.784 -0.3080  0.1001  0.1563
  544MOL0     C73330   4.351   6.751   7.877  0.4257  0.3037  0.3775
  544MOL0     C73331   4.379   6.655   7.977 -0.4731 -0.2392  0.1252
  544MOL0     C73332   4.277   6.602   8.058  0.6477 -0.8686 -0.6246
  544MOL0     C73333   4.312   6.494   8.150  0.0725  0.7812  0.5917
  544MOL0     C73334   4.145   6.660   8.051 -0.3443  0.2496  0.5161
  544MOL0     C73335   4.027   6.618   8.126  0.4414  0.5942 -0.4182
  544MOL0     O73336   3.911   6.690   8.103 -0.1281 -0.2152  0.4920
  544MOL0     C73337   3.800   6.683   8.186  0.2439 -0.9579 -0.3316
  544MOL0     C73338   3.796   6.706   8.325  0.0959 -0.1656 -0.3371
  544MOL0     C73339   3.672   6.725   8.389  1.1880 -0.7240 -0.4538
  544MOL0     C73340   3.550   6.729   8.312 -0.1900 -0.2990 -0.2323
  544MOL0     O73341   3.430   6.761   8.377  0.1092 -0.3729  0.6284
  544MOL0     C73342   3.392   6.675   8.489  0.6790  0.3728 -0.5417
  544MOL0     C73343   3.244   6.719   8.530 -0.0722 -0.1019 -0.1078
  544MOL0     C73344   3.132   6.673   8.434 -0.4107 -0.2752  1.2500
  544MOL0     C73345   2.997   6.746   8.454  0.9542  0.0580  0.4552
  544MOL0     C73346   2.885   6.714   8.344 -0.1034 -0.0498  0.7841
  544MOL0     C73347   2.744   6.745   8.398 -0.3178  0.1075  0.6795
  544MOL0     C73348   2.625   6.698   8.317 -0.4401  0.1528  0.0268
  544MOL0     C73349   2.486   6.729   8.380 -0.5045 -0.2508  0.8910
  544MOL0    Cl73350   2.361   6.674   8.253  0.0098  0.3481 -0.6176
  544MOL0     C73351   3.552   6.708   8.174 -0.2618  0.7451 -0.1107
  544MOL0     C73352   3.681   6.694   8.118  0.3079  0.0548  0.5985
  544MOL0     O73353   4.037   6.540   8.225 -0.0571  0.2180  0.3013
  544MOL0     C73354   4.125   6.761   7.955  0.4572 -0.4431  0.2566
  544MOL0     C73355   4.225   6.802   7.872  0.7426  0.0110 -0.1070
  544MOL0     N73356   4.671   7.008   7.298 -0.0733 -0.3248  0.5657
  544MOL0     N73357   4.712   7.082   7.200 -0.5224  0.0237  0.0886
  544MOL0     C73358   5.574   6.496   6.612 -0.3525 -0.2729  0.3875
  544MOL0     C73359   5.701   6.446   6.568 -0.1392  0.0762  0.0079
  544MOL0     C73360   6.084   6.328   6.385  0.2841 -0.7800  0.1250
  544MOL0     C73361   6.203   6.311   6.455 -0.4548  0.7454  0.4427
  544MOL0     C73362   6.298   6.219   6.414  0.3252 -0.8820  0.1279
  544MOL0     C73363   6.285   6.151   6.291 -0.1670  0.3672 -0.4298
  544MOL0     O73364   6.385   6.070   6.255  0.1999 -0.4991 -0.4776
  544MOL0     C73365   6.427   6.047   6.119 -0.8735  0.5151  0.8434
  544MOL0     C73366   6.541   6.146   6.080  0.1670  0.2327  0.2413
  544MOL0     C73367   6.641   6.129   6.195  0.3912  0.1461  0.7901
  544MOL0     C73368   6.766   6.208   6.161  0.4266 -0.1252 -0.7588
  544MOL0     C73369   6.852   6.242   6.270  0.7157  0.6403  0.2136
  544MOL0     C73370   6.927   6.259   6.355 -0.0039 -0.5574  0.0511
  544MOL0     C73371   6.157   6.155   6.227 -0.0129 -0.4714  0.1998
  544MOL0     C73372   6.058   6.241   6.277  0.5418 -0.0051  0.3298
  544MOL0     H73373   5.669   6.555   6.244 -1.2848  0.3957 -0.9279
  544MOL0     H73374   5.473   6.660   6.329  0.0345 -1.7422 -0.6770
  544MOL0     H73375   5.385   6.832   6.485  0.1032  0.3804  0.3899
  544MOL0     H73376   5.286   6.705   6.410  0.0391  0.9960 -0.4332
  544MOL0     H73377   5.129   6.824   6.501 -1.6372 -0.0798  0.8030
  544MOL0     H73378   5.155   6.700   6.626 -0.4700 -1.1133 -1.5289
  544MOL0     H73379   5.315   6.853   6.736 -0.0054 -3.1946 -2.1625
  544MOL0     H73380   5.275   6.989   6.623 -1.4974  0.1964 -0.0258
  544MOL0     H73381   5.068   7.031   6.715 -2.6746 -1.9800  1.8643
  544MOL0     H73382   5.056   6.895   6.819  0.4044  1.1980  2.4762
  544MOL0     H73383   5.259   6.966   6.961  4.0070  1.7660 -0.5033
  544MOL0     H73384   5.292   7.092   6.841 -0.8396 -0.8031 -2.3700
  544MOL0     H73385   5.181   7.187   7.034 -2.1643  0.2754  1.4056
  544MOL0     H73386   5.074   7.205   6.891 -2.5020 -1.0716  1.1711
  544MOL0     H73387   4.920   7.036   6.978  0.0631  0.5676  0.0573
  544MOL0     H73388   5.044   7.016   7.113 -0.3726  0.0817 -0.3196
  544MOL0     H73389   4.867   7.238   7.041 -1.2962 -0.4616 -0.6346
  544MOL0     H73390   4.987   7.254   7.173 -0.3506 -1.0535 -0.7759
  544MOL0     H73391   4.967   7.084   7.404 -0.8886 -1.0198  1.0184
  544MOL0     H73392   4.775   6.798   7.475  0.6621 -0.0458  0.7182
  544MOL0     H73393   4.857   6.915   7.572 -0.2764 -2.3273  0.2509
  544MOL0     H73394   4.570   6.862   7.543 -1.7148 -0.0329  2.4531
  544MOL0     H73395   4.608   7.018   7.611  2.3767  1.1857 -1.3349
  544MOL0     H73396   4.742   6.918   7.794 -0.0876 -0.4494 -0.3417
  544MOL0     H73397   4.686   6.756   7.747 -1.5769 -0.2346 -0.6572
  544MOL0     H73398   4.488   6.983   7.806 -0.7499 -0.8041 -0.9700
  544MOL0     H73399   4.570   6.887   7.930 -0.2278  1.9325  0.0556
  544MOL0     H73400   4.480   6.616   7.989 -0.3596 -0.2497 -0.8127
  544MOL0     H73401   4.261   6.400   8.127 -2.0367  2.1041 -0.4541
  544MOL0     H73402   4.420   6.477   8.154 -0.2067 -2.1331 -1.2254
  544MOL0     H73403   4.291   6.511   8.256 -2.5469 -0.4579  0.3489
  544MOL0     H73404   3.876   6.692   8.397  1.5476 -0.4077 -1.9344
  544MOL0     H73405   3.666   6.750   8.495  0.0025 -1.5559 -0.3010
  544MOL0     H73406   3.365   6.576   8.450 -0.4937  1.1315 -1.7263
  544MOL0     H73407   3.468   6.683   8.568  0.2350  2.7998 -0.3008
  544MOL0     H73408   3.216   6.674   8.626 -2.2266 -1.1825 -1.1707
  544MOL0     H73409   3.247   6.828   8.533  1.2485 -0.1014 -0.4993
  544MOL0     H73410   3.123   6.565   8.448  0.2948 -0.1375  3.1559
  544MOL0     H73411   3.164   6.701   8.333  0.2849 -1.0626  1.2427
  544MOL0     H73412   2.962   6.710   8.551  1.2217 -0.5831  0.3218
  544MOL0     H73413   3.007   6.851   8.481 -3.3540  0.4985  1.0981
  544MOL0     H73414   2.892   6.607   8.324  1.0972  0.3077 -0.9474
  544MOL0     H73415   2.909   6.773   8.255 -1.3219  1.8232  1.6434
  544MOL0     H73416   2.747   6.708   8.502 -1.3241  0.0234  0.6893
  544MOL0     H73417   2.735   6.853   8.410  0.3385  0.5356 -2.1447
  544MOL0     H73418   2.628   6.589   8.308 -1.5880  0.1324 -0.2607
  544MOL0     H73419   2.638   6.735   8.215 -0.2912 -1.1754 -0.4529
  544MOL0     H73420   2.469   6.837   8.377 -0.7304 -0.2530 -2.7277
  544MOL0     H73421   2.473   6.689   8.481 -1.7135 -0.2314  0.7649
  544MOL0     H73422   3.461   6.713   8.116 -0.6077 -0.3047  0.3133
  544MOL0     H73423   3.683   6.695   8.009 -0.6944  0.7143  0.5788
  544MOL0     H73424   4.034   6.821   7.955  1.3503  0.9587 -0.0188
  544MOL0     H73425   4.203   6.883   7.803  0.2132  0.4916  0.6177
  544MOL0     H73426   5.543   6.469   6.713 -0.2628 -1.4382  0.1129
  544MOL0     H73427   5.761   6.387   6.637 -2.5412 -3.2390 -0.5308
  544MOL0     H73428   6.214   6.378   6.540 -2.7344  0.3109  1.1471
  544MOL0     H73429   6.393   6.213   6.467  0.4591 -1.0775 -0.1321
  544MOL0     H73430   6.462   5.945   6.106 -3.7686 -0.3257 -1.2204
  544MOL0     H73431   6.341   6.055   6.053  0.1002 -0.9685 -0.6760
  544MOL0     H73432   6.496   6.245   6.074 -2.3175 -0.8123  0.4144
  544MOL0     H73433   6.589   6.115   5.987 -2.0128  0.3072 -0.9805
  544MOL0     H73434   6.672   6.027   6.217  0.8142  0.4329  1.5834
  544MOL0     H73435   6.599   6.172   6.287 -0.5216 -1.7401  1.3008
  544MOL0     H73436   6.740   6.303   6.113 -2.7528 -0.9415 -0.8904
  544MOL0     H73437   6.823   6.157   6.083 -1.6981 -1.5789 -1.4324
  544MOL0     H73438   6.992   6.269   6.440  4.1701  1.5555 -2.9844
  544MOL0     H73439   6.148   6.088   6.142 -2.7042  2.3297 -1.9310
  544MOL0     H73440   5.956   6.253   6.243 -1.1846 -1.5305  4.3677
  545MOL0     O73441   3.805   5.254  10.431 -0.1169  0.1761 -0.3284
  545MOL0     C73442   3.886   5.324  10.373 -0.3136 -0.5438  0.5918
  545MOL0     O73443   3.864   5.422  10.282  0.1210  0.1025  0.5787
  545MOL0     C73444   3.736   5.449  10.242 -0.4285  0.5601  0.9267
  545MOL0     C73445   3.658   5.533  10.324  0.2592 -0.0510 -1.1209
  545MOL0     C73446   3.525   5.563  10.286  0.1294  1.1773  0.1708
  545MOL0     C73447   3.477   5.514  10.161  0.3606 -1.0887 -0.9468
  545MOL0     O73448   3.343   5.549  10.133  0.0587  0.5822 -0.3179
  545MOL0     C73449   3.267   5.454  10.061 -0.8311  0.1695 -0.6690
  545MOL0     C73450   3.137   5.523  10.012 -0.4722 -0.0375 -0.1591
  545MOL0     C73451   3.039   5.551  10.127  0.0550  0.4981 -0.3176
  545MOL0     C73452   2.925   5.635  10.072  0.0674  0.6332  0.7361
  545MOL0     C73453   2.805   5.648  10.164 -0.4641 -0.4974  0.3147
  545MOL0     C73454   2.849   5.689  10.307  0.0189 -0.2521  0.3789
  545MOL0     C73455   2.725   5.715  10.393 -0.1328  0.2427  0.3555
  545MOL0     C73456   2.633   5.598  10.397 -0.1198 -0.0710 -0.9179
  545MOL0     N73457   2.529   5.613  10.500  0.3117  0.6596  0.4894
  545MOL0     C73458   2.423   5.696  10.497 -0.0224 -0.5817 -0.1386
  545MOL0     C73459   2.363   5.682  10.623 -0.2916  0.1298  0.7247
  545MOL0     C73460   2.245   5.759  10.679 -0.2109  0.6201 -0.1773
  545MOL0     C73461   2.128   5.702  10.611  0.3508  0.5773 -0.6760
  545MOL0     C73462   1.999   5.777  10.653 -0.4410 -0.1682 -0.0787
  545MOL0     C73463   1.880   5.697  10.611 -0.9902 -0.4653  0.3540
  545MOL0     O73464   1.761   5.751  10.669 -0.0616  0.0286  0.6389
  545MOL0     C73465   1.661   5.811  10.594  0.1465 -0.3061 -0.0418
  545MOL0     C73466   1.561   5.868  10.669  0.3030  0.2330  0.6112
  545MOL0     C73467   1.452   5.926  10.599  0.0394 -0.9283 -0.4525
  545MOL0     C73468   1.329   5.936  10.687 -0.2183 -1.0723 -0.5593
  545MOL0     C73469   1.452   5.944  10.460 -0.1568 -0.8310  0.1925
  545MOL0     C73470   1.352   6.016  10.379 -0.4296  0.1061 -0.4976
  545MOL0     O73471   1.343   5.961  10.252 -0.3701  0.6093 -0.6424
  545MOL0     C73472   1.234   6.005  10.178  0.0720 -0.1088  0.6921
  545MOL0     C73473   1.257   6.062  10.054  0.4078 -0.4783 -0.2505
  545MOL0     C73474   1.146   6.115   9.982 -0.5317  0.5636 -0.3204
  545MOL0     C73475   1.016   6.102  10.033 -0.2633  0.3666  0.2186
  545MOL0     O73476   0.914   6.154   9.959  0.0791  0.3793 -0.5070
  545MOL0     C73477   0.796   6.082   9.937  0.1013 -0.1964 -0.0321
  545MOL0     C73478   0.814   5.985   9.820  0.2632 -0.2288  0.0239
  545MOL0     C73479   0.689   5.891   9.809  0.4079  0.7470 -1.1595
  545MOL0     C73480   0.663   5.826   9.675 -0.1386 -0.7578  0.1123
  545MOL0     C73481   0.525   5.760   9.657 -0.0871  0.3042  0.5304
  545MOL0     C73482   0.529   5.683   9.531 -0.4811 -0.1024  0.3013
  545MOL0     C73483   0.555   5.759   9.406 -0.4038 -0.1519  0.5715
  545MOL0     C73484   0.476   5.890   9.386  0.1743  0.3783  0.2228
  545MOL0    Cl73485   0.299   5.867   9.415 -0.1202 -0.0998  0.4026
  545MOL0     C73486   0.994   6.022  10.153 -0.5515  0.0412 -0.4029
  545MOL0     C73487   1.110   5.982  10.220  1.0824 -0.3538 -0.7764
  545MOL0     O73488   1.272   6.091  10.438 -0.3214  0.3684 -0.7708
  545MOL0     C73489   1.561   5.895  10.394 -0.8115 -0.3035  0.5034
  545MOL0     C73490   1.662   5.823  10.458 -0.1171 -1.4924 -0.0183
  545MOL0     N73491   2.441   5.588  10.697  0.0973 -0.3310  0.5925
  545MOL0     N73492   2.533   5.542  10.621  0.4327  0.4016  0.5699
  545MOL0     C73493   3.559   5.423  10.088 -0.7983 -0.7994 -0.1083
  545MOL0     C73494   3.686   5.392  10.125  0.0435  0.5330 -0.0138
  545MOL0     C73495   4.024   5.301  10.406 -0.5299 -0.0793 -0.3778
  545MOL0     C73496   4.062   5.220  10.515 -0.5850  0.8166  0.4916
  545MOL0     C73497   4.197   5.185  10.541  0.1904 -0.1429  0.6504
  545MOL0     C73498   4.300   5.260  10.491  0.4443 -0.5696 -0.4815
  545MOL0     O73499   4.426   5.243  10.550  0.7197 -0.7908  0.9198
  545MOL0     C73500   4.527   5.328  10.500  0.8730 -0.5741 -1.2740
  545MOL0     C73501   4.654   5.278  10.562 -1.0029 -0.4885  0.2558
  545MOL0     C73502   4.777   5.365  10.510  0.9859  0.2940  0.1082
  545MOL0     C73503   4.914   5.326  10.571  0.1879  0.1033 -0.3089
  545MOL0     C73504   5.011   5.406  10.494 -0.6839 -0.6873 -0.2395
  545MOL0     C73505   5.083   5.487  10.436  0.4262  0.2267 -0.8516
  545MOL0     C73506   4.263   5.350  10.382  0.1889  1.0927 -0.7494
  545MOL0     C73507   4.134   5.362  10.335  0.2715 -0.3268 -0.0957
  545MOL0     H73508   3.698   5.592  10.406 -0.0375  2.4239 -2.6741
  545MOL0     H73509   3.458   5.625  10.346 -0.1689  0.4429  0.6135
  545MOL0     H73510   3.319   5.426   9.969 -0.2183 -2.0581  0.2996
  545MOL0     H73511   3.251   5.359  10.112 -0.1088 -0.2585 -1.2005
  545MOL0     H73512   3.162   5.622   9.972  0.9328  0.2123  1.2375
  545MOL0     H73513   3.091   5.472   9.927 -0.1303  0.2965 -0.5509
  545MOL0     H73514   2.997   5.453  10.154 -2.6083  1.4319 -0.7859
  545MOL0     H73515   3.104   5.586  10.207  1.8760 -2.4188 -0.3526
  545MOL0     H73516   2.958   5.739  10.061  0.4753  0.7666  2.7810
  545MOL0     H73517   2.896   5.608   9.970  4.9525  2.0415 -1.3231
  545MOL0     H73518   2.743   5.727  10.122  1.2893  0.1948 -1.0770
  545MOL0     H73519   2.759   5.549  10.174 -0.3136 -0.4544  1.6233
  545MOL0     H73520   2.921   5.618  10.349  0.2990 -1.7092 -2.3228
  545MOL0     H73521   2.901   5.785  10.304  2.5051 -1.5347 -0.5427
  545MOL0     H73522   2.748   5.737  10.497  0.6064 -2.5919  0.8647
  545MOL0     H73523   2.671   5.807  10.366  1.3307  1.7855  2.4390
  545MOL0     H73524   2.693   5.508  10.413  1.9484  0.8951 -2.7225
  545MOL0     H73525   2.586   5.585  10.299  1.1493  0.7755 -1.6628
  545MOL0     H73526   2.406   5.768  10.417  1.6642  1.9931  1.6709
  545MOL0     H73527   2.243   5.731  10.785 -0.0331  0.2705 -0.2627
  545MOL0     H73528   2.249   5.868  10.678 -3.7036  0.8595 -0.6959
  545MOL0     H73529   2.112   5.596  10.634  0.0052  0.4543 -1.4533
  545MOL0     H73530   2.146   5.724  10.506  0.0171  1.7206 -0.5078
  545MOL0     H73531   2.008   5.883  10.627  2.7750 -0.0312  1.1002
  545MOL0     H73532   1.994   5.773  10.763  1.0284 -2.2850 -0.0246
  545MOL0     H73533   1.889   5.592  10.641 -0.3268 -0.2426  0.9645
  545MOL0     H73534   1.878   5.689  10.502  0.0054  1.8819  0.1263
  545MOL0     H73535   1.573   5.861  10.776  1.5959 -1.7205  0.4008
  545MOL0     H73536   1.364   5.958  10.788  0.1974  0.2713 -0.9692
  545MOL0     H73537   1.256   6.013  10.660  1.6984  0.7916 -0.7628
  545MOL0     H73538   1.268   5.846  10.686 -0.0733 -1.1706 -1.5211
  545MOL0     H73539   1.358   6.070  10.015  0.3172 -0.9610 -0.6000
  545MOL0     H73540   1.171   6.166   9.890 -1.3087  0.5013 -0.5694
  545MOL0     H73541   0.754   6.040  10.028  0.0143  0.1088  0.0716
  545MOL0     H73542   0.723   6.155   9.903 -0.2116 -1.2271 -1.6355
  545MOL0     H73543   0.818   6.061   9.742  0.3590  0.9426  1.1277
  545MOL0     H73544   0.905   5.924   9.830  1.1900  1.1970  0.6349
  545MOL0     H73545   0.604   5.956   9.831  1.9132  1.9802  1.6784
  545MOL0     H73546   0.698   5.811   9.882  2.9211  1.4800 -0.5341
  545MOL0     H73547   0.672   5.902   9.598 -0.9827 -3.2941 -2.6959
  545MOL0     H73548   0.738   5.748   9.657  0.2852 -0.5071  0.7454
  545MOL0     H73549   0.454   5.843   9.653  3.3145  3.5371  1.7432
  545MOL0     H73550   0.497   5.690   9.735  2.1696 -2.2054 -0.7447
  545MOL0     H73551   0.600   5.600   9.537 -0.4733 -0.4142 -2.7861
  545MOL0     H73552   0.426   5.649   9.519  0.1366 -1.7746 -0.5604
  545MOL0     H73553   0.530   5.693   9.322  2.2504 -1.6117  0.8238
  545MOL0     H73554   0.661   5.785   9.401 -0.9702  2.1650 -1.9116
  545MOL0     H73555   0.482   5.926   9.283  1.0549  2.8549  1.0628
  545MOL0     H73556   0.520   5.963   9.456 -2.0710  0.4146  1.6962
  545MOL0     H73557   0.892   6.002  10.186 -1.0272  0.7455 -1.3917
  545MOL0     H73558   1.099   5.921  10.310  2.9349 -1.8879 -1.5252
  545MOL0     H73559   1.577   5.922  10.289  2.7458  2.1729  1.4810
  545MOL0     H73560   1.733   5.770  10.394  0.9119  2.0494 -2.0652
  545MOL0     H73561   3.512   5.375  10.003 -1.2317 -1.1146  0.3045
  545MOL0     H73562   3.741   5.309  10.082 -2.2954 -1.7771  1.1754
  545MOL0     H73563   3.982   5.169  10.567  1.3046 -2.3518  0.5095
  545MOL0     H73564   4.218   5.112  10.618 -1.8931 -1.9815 -0.4077
  545MOL0     H73565   4.531   5.338  10.391 -1.5032  0.0381 -1.3739
  545MOL0     H73566   4.499   5.425  10.542  0.1072 -0.7842 -1.2802
  545MOL0     H73567   4.672   5.176  10.529  1.9824 -0.4872  1.5350
  545MOL0     H73568   4.654   5.292  10.671 -1.7975  3.1316 -0.0582
  545MOL0     H73569   4.758   5.467  10.546 -3.4216  0.1690 -1.2525
  545MOL0     H73570   4.796   5.348  10.403  1.0476  0.7008  0.0551
  545MOL0     H73571   4.918   5.218  10.556 -1.9674 -0.8061  4.0191
  545MOL0     H73572   4.909   5.346  10.678 -0.6978 -1.0337 -0.1129
  545MOL0     H73573   5.142   5.558  10.381  0.3793  0.0390 -1.1463
  545MOL0     H73574   4.342   5.414  10.344  0.5416  1.4811  0.5873
  545MOL0     H73575   4.109   5.418  10.245  0.4054 -1.6382 -0.9883
  546MOL0     O73576  11.219   8.033   6.756 -0.1101  0.0671 -0.8198
  546MOL0     C73577  11.285   8.113   6.689 -0.2852 -0.1699  0.0737
  546MOL0     O73578  11.260   8.246   6.678 -0.0022 -0.0332 -0.1124
  546MOL0     C73579  11.146   8.298   6.737  0.4099  0.1553 -0.3688
  546MOL0     C73580  11.045   8.359   6.659 -0.1505 -0.0578 -0.0056
  546MOL0     C73581  10.930   8.420   6.709 -0.4647  0.3770 -0.3951
  546MOL0     C73582  10.903   8.413   6.847 -0.1180  0.1092 -0.5599
  546MOL0     O73583  10.801   8.463   6.914 -0.6807 -0.1333 -0.1519
  546MOL0     C73584  10.672   8.420   6.862 -0.0235 -0.0866 -0.4104
  546MOL0     C73585  10.598   8.368   6.995  0.6736 -0.4838  0.6256
  546MOL0     C73586  10.450   8.345   6.969  0.3726 -0.6873  0.4020
  546MOL0     C73587  10.378   8.290   7.092  0.8402  0.3891 -0.5535
  546MOL0     C73588  10.230   8.273   7.054  0.4808  0.7746  0.3658
  546MOL0     C73589  10.153   8.399   7.087  0.4080  0.3513  0.2526
  546MOL0     C73590  10.124   8.485   6.959  0.7260 -0.4839 -0.5923
  546MOL0     C73591  10.069   8.625   6.982  0.1808 -0.6410 -0.3289
  546MOL0     N73592   9.933   8.630   7.038 -0.5594 -0.3697  0.3874
  546MOL0     C73593   9.815   8.649   6.970  0.4765 -1.5595 -0.5358
  546MOL0     C73594   9.725   8.699   7.061 -0.0742 -0.6466 -0.8731
  546MOL0     C73595   9.580   8.750   7.053  0.4225  0.9918  0.3213
  546MOL0     C73596   9.489   8.648   6.987  0.0045 -0.2959  0.6491
  546MOL0     C73597   9.353   8.704   6.940 -0.2739 -0.1510 -0.6028
  546MOL0     C73598   9.241   8.597   6.939 -0.6846 -0.1379 -0.0496
  546MOL0     O73599   9.133   8.653   6.864  0.8049 -0.4987 -1.1024
  546MOL0     C73600   9.004   8.594   6.854 -0.3334 -0.3218  0.0836
  546MOL0     C73601   8.972   8.468   6.908 -0.0914  1.0353 -0.9365
  546MOL0     C73602   8.838   8.430   6.914 -0.2941  0.1803 -0.1642
  546MOL0     C73603   8.810   8.293   6.972  0.1951  0.4980 -0.5085
  546MOL0     C73604   8.738   8.522   6.858 -0.0704  0.3995 -0.8885
  546MOL0     C73605   8.597   8.494   6.858 -0.9670 -0.5286  0.0154
  546MOL0     O73606   8.509   8.591   6.809 -0.5304 -0.3861 -0.3931
  546MOL0     C73607   8.373   8.557   6.788  0.2325 -0.9403  0.6586
  546MOL0     C73608   8.307   8.677   6.751 -0.6874  1.0081 -0.1678
  546MOL0     C73609   8.173   8.668   6.727  0.1434  0.5034  0.6902
  546MOL0     C73610   8.104   8.546   6.749  0.0642  0.9602  0.4007
  546MOL0     O73611   7.969   8.542   6.739 -0.5412 -0.2820 -0.4108
  546MOL0     C73612   7.880   8.654   6.700 -0.7688 -0.0821 -0.1100
  546MOL0     C73613   7.731   8.623   6.736 -0.1376  0.4990  0.0353
  546MOL0     C73614   7.640   8.744   6.726  0.2950 -0.3487  0.7643
  546MOL0     C73615   7.541   8.735   6.851 -0.6069  0.4418 -0.1462
  546MOL0     C73616   7.444   8.845   6.865  0.2971  0.1000 -1.1681
  546MOL0     C73617   7.312   8.800   6.800 -0.4928  0.6596  0.0792
  546MOL0     C73618   7.214   8.912   6.779 -0.3774  0.3433  0.7982
  546MOL0     C73619   7.071   8.860   6.794  0.8071 -0.3494 -0.4701
  546MOL0    Cl73620   6.958   8.980   6.722  0.0629  0.0008 -0.3167
  546MOL0     C73621   8.168   8.432   6.792  0.8037  0.2664  0.0268
  546MOL0     C73622   8.304   8.439   6.820 -0.5922  0.4585  0.2347
  546MOL0     O73623   8.576   8.376   6.874  0.5346 -0.1187  0.4831
  546MOL0     C73624   8.780   8.632   6.803 -0.0774 -0.2744  0.6701
  546MOL0     C73625   8.913   8.672   6.790 -0.5393  0.0567 -0.1183
  546MOL0     N73626   9.783   8.692   7.180 -0.4233  0.3909  0.2903
  546MOL0     N73627   9.904   8.644   7.164  0.8082  0.0924  0.3792
  546MOL0     C73628  11.013   8.371   6.932  0.6217 -0.5314  0.4482
  546MOL0     C73629  11.129   8.303   6.879  0.2807 -0.4297 -0.1974
  546MOL0     C73630  11.388   8.047   6.605  0.1760  0.0975 -0.3548
  546MOL0     C73631  11.448   8.109   6.496  0.7161 -0.8861 -0.2129
  546MOL0     C73632  11.553   8.043   6.435 -0.2618 -0.3991 -0.1301
  546MOL0     C73633  11.596   7.919   6.469 -0.3686  0.5494  0.4303
  546MOL0     O73634  11.686   7.864   6.371  0.9645  0.4593  0.4659
  546MOL0     C73635  11.729   7.727   6.386 -0.4716 -0.0453 -0.0939
  546MOL0     C73636  11.801   7.678   6.258 -0.3615 -1.1744  0.3221
  546MOL0     C73637  11.916   7.785   6.219  0.0162  0.5809 -0.9625
  546MOL0     C73638  11.904   7.834   6.074 -0.1557 -0.5787 -0.3412
  546MOL0     C73639  11.987   7.759   5.977  0.7245  0.5230  0.2393
  546MOL0     C73640  12.047   7.683   5.898  0.4300  0.7440 -0.4104
  546MOL0     C73641  11.540   7.854   6.575 -0.1734  0.8919 -0.9265
  546MOL0     C73642  11.429   7.915   6.639 -0.4794 -0.3169  0.1476
  546MOL0     H73643  11.058   8.342   6.553 -1.9850 -3.9131  0.2177
  546MOL0     H73644  10.847   8.462   6.654 -0.4548 -1.6962 -2.1332
  546MOL0     H73645  10.620   8.504   6.815 -0.9002  0.3763  1.2981
  546MOL0     H73646  10.681   8.343   6.785 -1.4382 -3.3119  2.3592
  546MOL0     H73647  10.650   8.278   7.032  1.7696 -0.0969  0.0842
  546MOL0     H73648  10.608   8.441   7.076  1.5986 -0.7073  0.7317
  546MOL0     H73649  10.416   8.447   6.951  2.1744 -0.2239 -0.5509
  546MOL0     H73650  10.434   8.276   6.886 -1.2395  0.9061 -0.6675
  546MOL0     H73651  10.417   8.190   7.113 -0.5182  0.1909  1.2664
  546MOL0     H73652  10.399   8.339   7.188  0.6582 -0.4117 -0.0892
  546MOL0     H73653  10.215   8.258   6.946  0.5326  1.2781  0.2867
  546MOL0     H73654  10.188   8.193   7.115  0.0264  1.7386  1.3499
  546MOL0     H73655  10.059   8.365   7.131  0.1393  1.3737  0.4866
  546MOL0     H73656  10.206   8.456   7.163  1.7796 -1.6179  0.8810
  546MOL0     H73657  10.208   8.501   6.891  2.1126  0.8745  1.3506
  546MOL0     H73658  10.055   8.425   6.898  0.3926 -0.0185 -0.6774
  546MOL0     H73659  10.076   8.686   6.891  1.0307 -2.0737 -1.2683
  546MOL0     H73660  10.132   8.674   7.056 -1.8640  2.0622 -0.1925
  546MOL0     H73661   9.806   8.641   6.862  1.8893  0.4055 -0.8558
  546MOL0     H73662   9.542   8.779   7.151 -1.0310 -0.9674  0.3829
  546MOL0     H73663   9.586   8.840   6.991 -0.9605  2.8089  2.6713
  546MOL0     H73664   9.470   8.556   7.044 -1.1571 -2.5783 -3.0055
  546MOL0     H73665   9.543   8.606   6.902  1.6589  0.8030  1.1249
  546MOL0     H73666   9.373   8.742   6.839  0.1500 -0.5037 -0.6527
  546MOL0     H73667   9.333   8.784   7.012  1.2491 -1.7446  1.7293
  546MOL0     H73668   9.220   8.574   7.044  0.6334  0.4729  0.3629
  546MOL0     H73669   9.281   8.508   6.888  4.5801  2.4791 -1.2039
  546MOL0     H73670   9.051   8.403   6.944  0.9512  0.8772 -3.3049
  546MOL0     H73671   8.733   8.300   7.050  1.6598  0.0507  1.0457
  546MOL0     H73672   8.781   8.227   6.890  0.7536 -0.1444 -0.1971
  546MOL0     H73673   8.900   8.256   7.021 -0.7911  0.5893  1.4711
  546MOL0     H73674   8.376   8.757   6.726  0.0031  0.2882 -0.6188
  546MOL0     H73675   8.120   8.758   6.697 -1.1142 -0.7980 -1.2371
  546MOL0     H73676   7.906   8.752   6.738  1.5081 -1.3954  2.0282
  546MOL0     H73677   7.892   8.650   6.591  1.4241  0.4343  0.0689
  546MOL0     H73678   7.705   8.551   6.658 -0.2489  0.8236 -0.2303
  546MOL0     H73679   7.732   8.581   6.837  1.1887  1.2828  0.3642
  546MOL0     H73680   7.594   8.746   6.626 -1.4591  0.2228  1.5432
  546MOL0     H73681   7.701   8.835   6.732 -1.2837  0.7076  1.6265
  546MOL0     H73682   7.493   8.637   6.855 -3.2354  1.6598  0.3618
  546MOL0     H73683   7.603   8.746   6.941  0.5034  1.2498 -0.9883
  546MOL0     H73684   7.479   8.937   6.816  1.0869  1.4444  1.7084
  546MOL0     H73685   7.424   8.865   6.970 -1.0616  0.8500 -1.5519
  546MOL0     H73686   7.333   8.765   6.698  1.1848  4.3677 -1.0644
  546MOL0     H73687   7.279   8.715   6.860 -0.1701  0.5354  0.0852
  546MOL0     H73688   7.223   8.949   6.677  4.3826 -0.4275  0.7306
  546MOL0     H73689   7.236   8.991   6.852 -0.1134 -0.1042  1.2131
  546MOL0     H73690   7.049   8.841   6.900 -0.4294 -0.1954 -0.6841
  546MOL0     H73691   7.067   8.763   6.744 -1.9852 -1.7353  2.0833
  546MOL0     H73692   8.120   8.336   6.809  0.6185 -0.0050 -1.8100
  546MOL0     H73693   8.349   8.350   6.864 -2.8770 -1.0293 -0.2208
  546MOL0     H73694   8.706   8.686   6.745  1.7695  3.1515  1.2241
  546MOL0     H73695   8.933   8.768   6.744  0.7924  0.1090  0.5114
  546MOL0     H73696  11.015   8.378   7.041 -1.2739  0.0915  0.4692
  546MOL0     H73697  11.197   8.261   6.952 -1.5194  0.0140  1.8283
  546MOL0     H73698  11.415   8.209   6.468  2.0225 -0.0179  1.1784
  546MOL0     H73699  11.598   8.082   6.344 -2.0192 -0.3188 -1.0097
  546MOL0     H73700  11.784   7.718   6.480  0.5218  1.1345 -0.5405
  546MOL0     H73701  11.638   7.666   6.391 -0.8285  0.5273  0.8714
  546MOL0     H73702  11.720   7.670   6.185 -2.8400  0.9452  2.6300
  546MOL0     H73703  11.850   7.580   6.266 -0.5873 -1.3682 -0.5595
  546MOL0     H73704  12.017   7.744   6.230 -0.1177  0.2664 -0.8934
  546MOL0     H73705  11.912   7.869   6.289 -0.2448 -1.4807  1.6845
  546MOL0     H73706  11.927   7.940   6.066  1.3289 -0.7199  1.3645
  546MOL0     H73707  11.798   7.827   6.048 -0.2402  2.2709 -1.0418
  546MOL0     H73708  12.099   7.607   5.844  0.2192 -1.1875  1.9532
  546MOL0     H73709  11.573   7.759   6.616 -1.1944  0.6560 -0.6114
  546MOL0     H73710  11.389   7.848   6.716  3.3359 -1.4138  1.4033
  547MOL0     O73711   5.999   1.175   2.286  1.1169 -0.5646 -0.3695
  547MOL0     C73712   6.027   1.143   2.174 -0.1041 -0.3843  0.0187
  547MOL0     O73713   5.943   1.087   2.080  0.1797  0.6153 -0.0857
  547MOL0     C73714   5.806   1.068   2.111 -0.6338  1.0968 -0.1067
  547MOL0     C73715   5.721   1.106   2.014  0.5239  0.3654 -0.2219
  547MOL0     C73716   5.585   1.082   2.037 -0.0813  0.4676 -0.1504
  547MOL0     C73717   5.537   1.021   2.153  0.2169 -0.4333 -0.7790
  547MOL0     O73718   5.400   0.993   2.165 -0.5059 -0.2205  0.0952
  547MOL0     C73719   5.375   0.869   2.100 -0.4053 -0.2674 -0.2170
  547MOL0     C73720   5.339   0.777   2.209 -0.8858  0.5475  0.0281
  547MOL0     C73721   5.199   0.794   2.264  0.3299 -0.6155 -0.0327
  547MOL0     C73722   5.176   0.710   2.385 -0.3792  0.5089 -0.1481
  547MOL0     C73723   5.034   0.740   2.431 -0.7251 -0.4094  1.4378
  547MOL0     C73724   4.996   0.640   2.534  0.7768 -0.3360 -0.1809
  547MOL0     C73725   4.853   0.626   2.578  0.2933  0.6714  0.1927
  547MOL0     C73726   4.796   0.748   2.658  0.2354 -0.2721  0.1516
  547MOL0     N73727   4.650   0.755   2.644 -0.1062  1.0955 -0.4925
  547MOL0     C73728   4.567   0.853   2.584 -0.2372  0.3876  0.1592
  547MOL0     C73729   4.441   0.806   2.599 -0.2699 -1.0601 -0.4753
  547MOL0     C73730   4.322   0.896   2.575  0.8111 -0.3051  0.5788
  547MOL0     C73731   4.250   0.870   2.438  0.0825 -0.3177 -0.7915
  547MOL0     C73732   4.171   0.741   2.436 -0.4123 -0.0385 -0.6829
  547MOL0     C73733   4.092   0.710   2.558 -0.9068 -0.2657 -0.0436
  547MOL0     O73734   4.010   0.822   2.593 -0.0845 -0.0226  0.3843
  547MOL0     C73735   3.872   0.819   2.590 -0.5367 -0.5405  0.7821
  547MOL0     C73736   3.805   0.740   2.493  0.2898 -0.3944 -0.0099
  547MOL0     C73737   3.660   0.741   2.499 -0.3871 -0.2574  0.0981
  547MOL0     C73738   3.587   0.650   2.395  0.5181 -0.0866  0.3655
  547MOL0     C73739   3.591   0.823   2.590 -1.2040 -0.2295  0.7771
  547MOL0     C73740   3.441   0.850   2.574  0.0694 -0.3636  0.5068
  547MOL0     O73741   3.398   0.961   2.637 -1.0912 -0.7317 -0.1454
  547MOL0     C73742   3.272   0.996   2.620 -0.3024  0.0065 -0.5226
  547MOL0     C73743   3.235   1.051   2.502  0.5372 -0.3558  0.1172
  547MOL0     C73744   3.104   1.091   2.488 -0.8722 -0.2084 -0.5471
  547MOL0     C73745   3.010   1.071   2.587 -0.1650  0.4028  0.0244
  547MOL0     O73746   2.884   1.118   2.568  0.0780 -0.6543  0.1418
  547MOL0     C73747   2.766   1.039   2.590 -0.0481 -0.1207 -0.6768
  547MOL0     C73748   2.644   1.108   2.526 -0.5746  0.3732 -0.1318
  547MOL0     C73749   2.620   1.219   2.612 -0.0714  0.1539 -0.0290
  547MOL0     C73750   2.523   1.309   2.542 -0.4177 -0.3436 -0.7340
  547MOL0     C73751   2.409   1.332   2.642  0.9075  0.1624 -0.1638
  547MOL0     C73752   2.432   1.446   2.742  0.4092 -0.6175  0.2289
  547MOL0     C73753   2.327   1.463   2.848 -0.6745  0.0751 -0.5286
  547MOL0     C73754   2.360   1.361   2.961 -0.5973  0.4511  0.4462
  547MOL0    Cl73755   2.233   1.364   3.080 -0.1036  0.0787  0.0880
  547MOL0     C73756   3.045   1.006   2.701  0.7478  0.3806  0.7233
  547MOL0     C73757   3.175   0.969   2.724 -0.6054  0.4580  0.2855
  547MOL0     O73758   3.367   0.785   2.499  0.6771  0.8528 -0.1124
  547MOL0     C73759   3.662   0.893   2.689  0.9768 -0.5605 -0.0594
  547MOL0     C73760   3.800   0.892   2.684 -0.5886 -0.1129 -0.3469
  547MOL0     N73761   4.439   0.690   2.666 -0.2636 -0.2311 -0.2235
  547MOL0     N73762   4.560   0.659   2.682  0.1363  0.3889  0.1183
  547MOL0     C73763   5.623   0.995   2.254  0.3276 -0.0749 -0.6985
  547MOL0     C73764   5.757   1.016   2.236 -0.4082 -0.2708  0.6342
  547MOL0     C73765   6.172   1.160   2.136 -0.3506  0.9875  0.0593
  547MOL0     C73766   6.262   1.237   2.217 -0.2215 -0.3906 -0.1537
  547MOL0     C73767   6.395   1.243   2.183  0.0549 -0.1850  0.1919
  547MOL0     C73768   6.441   1.185   2.066  0.1939 -0.4979 -0.3711
  547MOL0     O73769   6.575   1.207   2.037  0.3153 -0.4815  0.3739
  547MOL0     C73770   6.650   1.131   1.941  0.0274  0.3157 -0.2879
  547MOL0     C73771   6.768   1.227   1.899  0.5044  0.4627  0.1089
  547MOL0     C73772   6.706   1.352   1.826 -0.9484  0.3653 -0.2002
  547MOL0     C73773   6.806   1.460   1.827 -0.3762  0.0187  0.7414
  547MOL0     C73774   6.908   1.453   1.723  0.4997 -0.0712  0.0317
  547MOL0     C73775   6.992   1.481   1.638  0.1149 -0.1410  0.6980
  547MOL0     C73776   6.354   1.115   1.982 -0.1287  0.5853 -0.8234
  547MOL0     C73777   6.221   1.091   2.023 -0.3634  0.3288  0.3876
  547MOL0     H73778   5.773   1.145   1.928  3.2996  0.7442  1.5092
  547MOL0     H73779   5.510   1.126   1.972 -1.1295 -0.4696  0.3931
  547MOL0     H73780   5.287   0.890   2.039 -0.3417  2.1820  0.4259
  547MOL0     H73781   5.458   0.829   2.040  2.3735  1.7179  2.0084
  547MOL0     H73782   5.347   0.674   2.174 -3.8962 -0.1535  1.0249
  547MOL0     H73783   5.415   0.789   2.287 -0.0116  1.0600 -0.8771
  547MOL0     H73784   5.176   0.898   2.288  2.1773 -0.4350  1.1985
  547MOL0     H73785   5.130   0.763   2.185  1.5731 -0.9398 -1.0311
  547MOL0     H73786   5.201   0.606   2.361  2.7814  1.6226 -2.3925
  547MOL0     H73787   5.249   0.744   2.458  1.2212 -1.0916 -0.9316
  547MOL0     H73788   5.029   0.836   2.483 -2.2450  1.8770 -2.4930
  547MOL0     H73789   4.959   0.746   2.352 -1.4282  1.4812  2.1975
  547MOL0     H73790   5.018   0.536   2.506 -3.6209 -2.0197  1.6533
  547MOL0     H73791   5.059   0.648   2.623  0.6742 -3.6014  0.3141
  547MOL0     H73792   4.792   0.612   2.488  1.2176 -2.0322 -0.1060
  547MOL0     H73793   4.850   0.537   2.641 -1.6435  0.1669 -0.5116
  547MOL0     H73794   4.835   0.845   2.627 -1.4180  0.6839  0.9288
  547MOL0     H73795   4.815   0.730   2.765 -0.7904 -3.7962 -0.1318
  547MOL0     H73796   4.599   0.948   2.542  1.4079 -1.0559 -2.0398
  547MOL0     H73797   4.240   0.892   2.647 -1.9123  0.5194 -2.2615
  547MOL0     H73798   4.353   1.001   2.576 -3.5911  1.2350 -0.4963
  547MOL0     H73799   4.316   0.870   2.351 -0.2744  3.0089 -1.2133
  547MOL0     H73800   4.177   0.951   2.425  0.2631 -0.0760 -0.3297
  547MOL0     H73801   4.245   0.662   2.420  0.3711  0.3758  0.7108
  547MOL0     H73802   4.110   0.735   2.345  0.3638  1.0994 -1.3126
  547MOL0     H73803   4.149   0.682   2.647 -0.1762 -0.3044 -0.5244
  547MOL0     H73804   4.032   0.620   2.541 -0.4096 -0.7394  0.6712
  547MOL0     H73805   3.855   0.677   2.420 -1.0932 -2.4649  0.7295
  547MOL0     H73806   3.509   0.590   2.442 -2.3468  3.0855  0.0709
  547MOL0     H73807   3.529   0.705   2.319 -0.9906  1.3541  2.4437
  547MOL0     H73808   3.657   0.579   2.351 -0.2131 -0.6709  0.1334
  547MOL0     H73809   3.302   1.064   2.418 -0.3049  1.9977 -0.2867
  547MOL0     H73810   3.075   1.152   2.403  0.7079 -0.1458 -1.0735
  547MOL0     H73811   2.782   0.943   2.540 -2.0457 -0.2538 -1.1240
  547MOL0     H73812   2.744   1.017   2.695  2.1415  0.0863 -0.1153
  547MOL0     H73813   2.670   1.138   2.424  1.7547  2.0556  0.8492
  547MOL0     H73814   2.560   1.039   2.517 -0.4729  0.2379 -0.0376
  547MOL0     H73815   2.715   1.272   2.628 -0.3204  1.5902 -2.7104
  547MOL0     H73816   2.581   1.178   2.705 -2.8391 -4.1981 -2.7326
  547MOL0     H73817   2.563   1.407   2.517  1.8860 -0.9335  0.3742
  547MOL0     H73818   2.484   1.258   2.453  0.7010  1.9068 -2.6133
  547MOL0     H73819   2.379   1.249   2.707  0.0240  3.2957  3.8890
  547MOL0     H73820   2.322   1.348   2.577  0.5950 -1.6867 -0.2548
  547MOL0     H73821   2.532   1.433   2.784  0.8617 -2.1868 -1.2357
  547MOL0     H73822   2.440   1.538   2.684  1.5957 -0.5642  0.4435
  547MOL0     H73823   2.225   1.445   2.812 -1.1338  0.4425  0.5406
  547MOL0     H73824   2.343   1.563   2.891 -1.5825 -0.3535  0.8958
  547MOL0     H73825   2.452   1.383   3.016 -1.5230 -0.4416  2.4519
  547MOL0     H73826   2.367   1.261   2.917 -1.0668 -0.0201  1.4112
  547MOL0     H73827   2.989   0.992   2.792  2.3283 -1.6026  1.4687
  547MOL0     H73828   3.199   0.912   2.813  1.2633  0.6459 -0.0768
  547MOL0     H73829   3.633   0.960   2.769  1.0567  0.6953 -1.0547
  547MOL0     H73830   3.853   0.941   2.765  1.4842  0.5256 -2.0149
  547MOL0     H73831   5.584   0.954   2.347 -0.2730  2.6684  0.3582
  547MOL0     H73832   5.823   0.993   2.320  0.5292 -2.5998 -0.6400
  547MOL0     H73833   6.228   1.284   2.308 -3.9050  0.2884 -1.7023
  547MOL0     H73834   6.463   1.289   2.253 -0.8651 -1.4449  2.0169
  547MOL0     H73835   6.689   1.042   1.991 -2.2035 -0.7170 -0.2615
  547MOL0     H73836   6.596   1.104   1.849 -0.6682 -1.8067  0.6631
  547MOL0     H73837   6.840   1.168   1.842  1.0867  1.6608 -0.4272
  547MOL0     H73838   6.825   1.258   1.987  0.1007 -1.1653  0.9788
  547MOL0     H73839   6.618   1.390   1.878 -0.6163  2.2620 -0.9113
  547MOL0     H73840   6.687   1.330   1.720  2.3642 -1.2292 -0.5869
  547MOL0     H73841   6.857   1.467   1.923  3.8246  1.2953 -1.3209
  547MOL0     H73842   6.744   1.550   1.820  0.8810  1.0976  2.5997
  547MOL0     H73843   7.053   1.489   1.551 -2.2479 -2.2336 -1.2916
  547MOL0     H73844   6.395   1.078   1.888 -2.9831 -2.1160 -1.1794
  547MOL0     H73845   6.161   1.031   1.955 -2.2761  0.2357  2.0659
  548MOL0     O73846   3.869   2.668  10.399  1.0916 -0.5546 -0.1078
  548MOL0     C73847   3.876   2.579  10.487 -0.3276  0.4518  0.7839
  548MOL0     O73848   3.774   2.507  10.535  0.5236 -0.4174 -0.0110
  548MOL0     C73849   3.653   2.555  10.568 -0.0986  1.1464  0.0116
  548MOL0     C73850   3.606   2.680  10.548 -0.6307  0.2374 -0.3886
  548MOL0     C73851   3.474   2.698  10.565  1.6219 -0.6930 -0.6492
  548MOL0     C73852   3.379   2.601  10.612 -0.3444  0.5430  0.0681
  548MOL0     O73853   3.251   2.639  10.636  0.1578  0.5087  0.1533
  548MOL0     C73854   3.158   2.536  10.652  0.1090 -0.5030 -0.5661
  548MOL0     C73855   3.012   2.592  10.630 -0.3706  1.3591 -0.4717
  548MOL0     C73856   2.919   2.471  10.640  0.3822 -0.5788 -0.0330
  548MOL0     C73857   2.775   2.507  10.593  0.1792  0.1871  0.1342
  548MOL0     C73858   2.661   2.410  10.652 -0.4590  0.0957  0.0583
  548MOL0     C73859   2.708   2.265  10.659 -0.4120  0.2512  0.3569
  548MOL0     C73860   2.586   2.174  10.690 -0.6336 -0.8658  0.1111
  548MOL0     C73861   2.620   2.041  10.743  0.4136  0.0007 -0.5837
  548MOL0     N73862   2.489   1.988  10.793  0.1095  0.0847  0.0840
  548MOL0     C73863   2.437   1.990  10.920  0.5149  0.2139 -0.1001
  548MOL0     C73864   2.313   1.938  10.909  1.3955  0.0749 -0.4611
  548MOL0     C73865   2.214   1.919  11.025  0.0661 -0.2682  0.4144
  548MOL0     C73866   2.278   1.823  11.127  0.1574  0.1388 -0.3138
  548MOL0     C73867   2.299   1.676  11.079 -0.0218 -0.2471  0.4226
  548MOL0     C73868   2.180   1.590  11.035  0.0588  0.3867  0.1132
  548MOL0     O73869   2.063   1.605  11.120 -0.0180 -0.3545 -0.3164
  548MOL0     C73870   1.938   1.539  11.078 -0.0247 -0.2060  0.3252
  548MOL0     C73871   1.926   1.469  10.960  0.1869 -0.0715  0.8182
  548MOL0     C73872   1.801   1.408  10.926 -0.1366 -0.5049  1.4594
  548MOL0     C73873   1.791   1.331  10.798  0.9561 -0.6523 -1.1278
  548MOL0     C73874   1.683   1.435  11.013 -1.0709  0.6044 -0.3932
  548MOL0     C73875   1.546   1.392  10.992 -0.4072  0.4517  0.4318
  548MOL0     O73876   1.521   1.341  10.868  0.8323  0.0538 -0.0234
  548MOL0     C73877   1.400   1.334  10.823  0.7195  0.6477 -0.1718
  548MOL0     C73878   1.332   1.218  10.846 -0.0808 -0.1517 -0.0055
  548MOL0     C73879   1.198   1.206  10.801 -0.3678 -0.3617  0.6995
  548MOL0     C73880   1.132   1.310  10.735  0.3885  0.3594 -0.2406
  548MOL0     O73881   1.005   1.282  10.694  0.1849  0.2329 -0.1932
  548MOL0     C73882   0.926   1.364  10.613  0.4173 -0.1178  0.6514
  548MOL0     C73883   0.980   1.377  10.476 -0.1088 -0.5516  0.0427
  548MOL0     C73884   0.965   1.262  10.381 -0.0083  0.0999 -0.8594
  548MOL0     C73885   0.820   1.225  10.362  0.9738 -0.9290 -0.0138
  548MOL0     C73886   0.802   1.138  10.229 -0.5042 -0.1410 -0.4172
  548MOL0     C73887   0.667   1.070  10.226  0.2519  0.0263 -0.0647
  548MOL0     C73888   0.547   1.175  10.226 -1.0378 -0.3207  0.1618
  548MOL0     C73889   0.439   1.151  10.135  0.2771  0.1864  0.0717
  548MOL0    Cl73890   0.330   1.018  10.171  0.1859 -0.2521 -0.1688
  548MOL0     C73891   1.192   1.433  10.725 -0.7490  0.1832  0.4184
  548MOL0     C73892   1.333   1.440  10.760 -0.3563 -0.5084  0.8696
  548MOL0     O73893   1.460   1.411  11.075  0.6131  0.8477 -0.3867
  548MOL0     C73894   1.709   1.512  11.127  0.9261 -0.1317  0.2770
  548MOL0     C73895   1.830   1.553  11.163 -0.6573 -0.6748 -0.6927
  548MOL0     N73896   2.293   1.917  10.773 -0.2482  0.3055 -0.4038
  548MOL0     N73897   2.397   1.944  10.703  0.7382  0.4722  0.1183
  548MOL0     C73898   3.437   2.481  10.651 -0.1322  0.0554  1.3654
  548MOL0     C73899   3.571   2.451  10.620  0.3357 -0.3539 -0.1722
  548MOL0     C73900   4.011   2.529  10.532 -0.0765  0.3287  0.9928
  548MOL0     C73901   4.128   2.567  10.467 -0.5102 -0.2496  0.4109
  548MOL0     C73902   4.254   2.511  10.505 -0.3476 -0.2030  0.1416
  548MOL0     C73903   4.265   2.432  10.623  0.0762  0.2012  0.2084
  548MOL0     O73904   4.385   2.380  10.673  0.2181  0.2578 -0.3049
  548MOL0     C73905   4.424   2.241  10.648 -0.1289  0.4256 -0.2763
  548MOL0     C73906   4.571   2.224  10.665  0.2002  0.9226 -0.3054
  548MOL0     C73907   4.667   2.309  10.577 -0.3310 -0.5857  0.5360
  548MOL0     C73908   4.693   2.447  10.644  0.4467 -0.2429 -0.4412
  548MOL0     C73909   4.783   2.436  10.761 -0.2053 -0.5195  1.3556
  548MOL0     C73910   4.866   2.429  10.848 -0.3919  0.8637 -0.1449
  548MOL0     C73911   4.151   2.402  10.682 -0.1833  0.1171  0.5071
  548MOL0     C73912   4.021   2.439  10.640 -0.9445 -0.4743 -1.1064
  548MOL0     H73913   3.667   2.763  10.513 -1.6400  0.4385 -1.7271
  548MOL0     H73914   3.433   2.797  10.550  1.5926 -0.5262  0.4719
  548MOL0     H73915   3.172   2.451  10.585 -0.9529 -0.9107 -0.3040
  548MOL0     H73916   3.168   2.506  10.757  1.0762  1.8801  0.0731
  548MOL0     H73917   2.998   2.669  10.707  1.5635  0.5201  0.8018
  548MOL0     H73918   2.987   2.638  10.534 -1.6523  3.4788  0.8107
  548MOL0     H73919   2.953   2.386  10.579 -2.2878 -0.6744 -1.5676
  548MOL0     H73920   2.916   2.444  10.746 -0.0679  0.8493  0.3348
  548MOL0     H73921   2.734   2.604  10.623 -2.3340 -1.3027  1.9749
  548MOL0     H73922   2.774   2.511  10.484 -1.2665  1.3367  0.1541
  548MOL0     H73923   2.629   2.441  10.752 -0.8383 -0.3543  0.0841
  548MOL0     H73924   2.574   2.423  10.587  1.7791  2.2360 -2.8123
  548MOL0     H73925   2.746   2.244  10.559 -1.0298 -0.5506  0.2804
  548MOL0     H73926   2.791   2.258  10.731 -0.3415  0.6725  0.3218
  548MOL0     H73927   2.518   2.226  10.758  0.7678 -1.0812  1.7605
  548MOL0     H73928   2.534   2.166  10.595  1.6058 -1.6788 -1.1232
  548MOL0     H73929   2.686   2.045  10.830 -1.8627  0.1783  1.2166
  548MOL0     H73930   2.656   1.975  10.664  2.4008  0.9410 -0.5136
  548MOL0     H73931   2.481   2.031  11.010 -0.0651 -0.7842  0.6573
  548MOL0     H73932   2.198   2.014  11.077 -0.3896 -0.1070 -0.0059
  548MOL0     H73933   2.122   1.870  10.992  0.7149 -1.3887  0.2136
  548MOL0     H73934   2.227   1.829  11.223  0.1707 -2.2798 -0.0876
  548MOL0     H73935   2.374   1.861  11.162  0.1491 -1.3457  1.4411
  548MOL0     H73936   2.352   1.628  11.163  0.1007 -2.3352 -0.7743
  548MOL0     H73937   2.375   1.680  11.000  2.8705  4.4025  2.9779
  548MOL0     H73938   2.212   1.486  11.034 -0.1376  0.3269  0.0346
  548MOL0     H73939   2.158   1.629  10.935  2.2882 -1.4120 -1.1722
  548MOL0     H73940   2.011   1.455  10.894 -0.2005  3.0721 -0.4816
  548MOL0     H73941   1.747   1.235  10.830 -2.5728  2.2808  4.5280
  548MOL0     H73942   1.735   1.375  10.715 -2.1651 -0.7351  0.7640
  548MOL0     H73943   1.885   1.331  10.742  0.3682 -0.3519 -2.1330
  548MOL0     H73944   1.382   1.138  10.901 -2.2222 -2.3467 -1.0600
  548MOL0     H73945   1.149   1.112  10.823 -1.2174  0.2232  1.3735
  548MOL0     H73946   0.828   1.318  10.625  0.1882  0.9364  3.3060
  548MOL0     H73947   0.926   1.464  10.656  1.4514 -0.1650  0.7836
  548MOL0     H73948   0.916   1.455  10.433  1.6432  0.5108 -0.7969
  548MOL0     H73949   1.082   1.418  10.480  0.1108 -1.0147 -0.6345
  548MOL0     H73950   1.028   1.178  10.411  0.7421  1.2739  1.0767
  548MOL0     H73951   0.999   1.293  10.282  3.2277  4.5614  1.2997
  548MOL0     H73952   0.773   1.173  10.447  0.8306 -0.4086  0.2277
  548MOL0     H73953   0.754   1.312  10.357  0.3051 -1.4954 -2.0268
  548MOL0     H73954   0.877   1.059  10.238 -1.4990 -1.2702 -1.6001
  548MOL0     H73955   0.813   1.203  10.142 -1.2329  0.8346  0.2087
  548MOL0     H73956   0.650   1.008  10.138 -0.1541 -0.5870  0.4373
  548MOL0     H73957   0.654   1.005  10.313 -0.6820 -0.6914 -0.7264
  548MOL0     H73958   0.588   1.274  10.205  3.7240 -1.8377  1.0656
  548MOL0     H73959   0.507   1.195  10.326  1.0201  0.8489  0.8026
  548MOL0     H73960   0.477   1.143  10.032 -0.0653  1.6790 -0.1871
  548MOL0     H73961   0.379   1.242  10.128  1.0282  0.6581 -0.3614
  548MOL0     H73962   1.156   1.518  10.668  0.8208 -0.3956 -1.5452
  548MOL0     H73963   1.381   1.535  10.736 -0.0688 -0.8279  0.1842
  548MOL0     H73964   1.624   1.541  11.187 -0.6059 -2.7705 -0.4260
  548MOL0     H73965   1.837   1.595  11.263  0.5762 -2.1480 -0.1135
  548MOL0     H73966   3.378   2.400  10.690 -0.2756 -0.1494  0.7419
  548MOL0     H73967   3.602   2.352  10.649 -0.6233  0.1644  2.9728
  548MOL0     H73968   4.124   2.619  10.372 -2.8643 -0.7756  0.1431
  548MOL0     H73969   4.342   2.539  10.448 -0.2657 -0.9162 -0.0918
  548MOL0     H73970   4.363   2.181  10.716  0.9871 -1.1591 -0.6189
  548MOL0     H73971   4.408   2.212  10.544 -1.0721 -0.6644  0.1486
  548MOL0     H73972   4.592   2.120  10.640 -1.1816  0.8658 -1.3725
  548MOL0     H73973   4.598   2.233  10.770 -0.7277 -1.2702  0.1733
  548MOL0     H73974   4.622   2.319  10.478 -1.0081 -1.5604  0.7248
  548MOL0     H73975   4.765   2.263  10.561 -0.4386 -0.5069 -0.4229
  548MOL0     H73976   4.593   2.487  10.664 -0.2525 -1.2045 -1.7969
  548MOL0     H73977   4.725   2.518  10.567  1.1965  0.4973  0.5243
  548MOL0     H73978   4.943   2.421  10.922 -0.6419 -2.9080 -0.0542
  548MOL0     H73979   4.155   2.336  10.768 -1.5302 -3.0428 -1.6558
  548MOL0     H73980   3.933   2.416  10.700 -1.3081  2.1083 -0.5518
  549MOL0     O73981   1.175   4.612   0.710 -0.1424  0.2618 -0.3233
  549MOL0     C73982   1.226   4.521   0.642 -0.7280 -0.3024  0.7204
  549MOL0     O73983   1.168   4.457   0.539 -0.6116 -0.4635  0.5364
  549MOL0     C73984   1.037   4.480   0.528 -0.3335 -0.2688  0.0430
  549MOL0     C73985   0.996   4.600   0.488 -0.3831 -0.1645  0.6116
  549MOL0     C73986   0.855   4.622   0.465 -0.1298 -0.2700 -1.0037
  549MOL0     C73987   0.760   4.527   0.509  0.0295 -0.4349  0.3928
  549MOL0     O73988   0.627   4.547   0.505 -0.2174 -0.3603  0.3045
  549MOL0     C73989   0.553   4.619   0.408  0.1101  0.6814  0.4182
  549MOL0     C73990   0.412   4.623   0.434  0.6967  0.0218 -0.3419
  549MOL0     C73991   0.347   4.486   0.419 -0.3130  1.3254  0.5224
  549MOL0     C73992   0.202   4.491   0.468 -1.0060 -1.2140 -0.0671
  549MOL0     C73993   0.132   4.352   0.440  0.2017  0.7566  0.1519
  549MOL0     C73994   0.008   4.330   0.520  0.1748  0.0089 -1.2149
  549MOL0     C73995  -0.072   4.206   0.469  0.2613 -0.6855 -0.1405
  549MOL0     C73996  -0.183   4.164   0.565 -0.7164  0.0767 -0.1624
  549MOL0     N73997  -0.275   4.283   0.593 -0.4741 -0.5386 -0.1895
  549MOL0     C73998  -0.287   4.355   0.708  0.4460  0.0500 -0.1861
  549MOL0     C73999  -0.401   4.434   0.686  0.7544  0.2467 -0.1473
  549MOL0     C74000  -0.456   4.511   0.792 -0.4415 -0.2286 -0.0240
  549MOL0     C74001  -0.445   4.665   0.763 -0.2842  0.6806  0.2732
  549MOL0     C74002  -0.527   4.754   0.864 -0.0705  0.0219 -0.1704
  549MOL0     C74003  -0.488   4.898   0.832 -0.3317  0.3541  0.0896
  549MOL0     O74004  -0.535   4.982   0.931 -0.3531 -0.6130  0.2778
  549MOL0     C74005  -0.672   4.997   0.950 -0.0187  0.4605 -0.3128
  549MOL0     C74006  -0.710   5.068   1.062 -0.5507  0.0700 -0.4413
  549MOL0     C74007  -0.841   5.081   1.103  0.0158  1.1545  0.3527
  549MOL0     C74008  -0.862   5.144   1.238  0.4081 -0.2313 -0.1048
  549MOL0     C74009  -0.946   5.047   1.017 -0.4692 -0.1947 -0.6354
  549MOL0     C74010  -1.090   5.066   1.036 -1.0426  0.1457  0.0646
  549MOL0     O74011  -1.173   5.063   0.928  0.2092  0.5937 -0.0705
  549MOL0     C74012  -1.301   5.104   0.950  0.4430  0.0218 -0.5669
  549MOL0     C74013  -1.334   5.213   0.880  0.0875  0.5356 -0.4632
  549MOL0     C74014  -1.458   5.269   0.898  0.0189 -0.0608  0.4494
  549MOL0     C74015  -1.556   5.215   0.983 -0.0860 -0.6587 -0.5616
  549MOL0     O74016  -1.677   5.270   0.990 -0.5376 -0.3575  0.7280
  549MOL0     C74017  -1.791   5.183   0.970 -0.5152  0.4515  0.8754
  549MOL0     C74018  -1.914   5.261   0.938  0.0859 -0.4150 -0.3336
  549MOL0     C74019  -1.980   5.329   1.058 -0.1614 -0.2268 -0.8892
  549MOL0     C74020  -2.077   5.441   1.029 -0.0871 -0.0853  0.1071
  549MOL0     C74021  -2.203   5.385   0.967  0.6032  0.2746 -0.3577
  549MOL0     C74022  -2.317   5.493   0.962  0.3620 -0.0506 -0.1162
  549MOL0     C74023  -2.279   5.606   0.875  0.8870 -0.5538  0.0530
  549MOL0     C74024  -2.392   5.715   0.898 -0.3179 -0.1685  0.1680
  549MOL0    Cl74025  -2.373   5.849   0.787 -0.1646  0.0813  0.2310
  549MOL0     C74026  -1.525   5.098   1.044  0.0724 -0.3219 -0.5123
  549MOL0     C74027  -1.400   5.041   1.024 -0.0251 -0.7684  0.0030
  549MOL0     O74028  -1.126   5.074   1.158  0.7739  0.5442  0.0746
  549MOL0     C74029  -0.917   4.992   0.890 -0.0369 -0.6241  0.1607
  549MOL0     C74030  -0.782   4.973   0.858 -0.2783 -0.2884 -0.3131
  549MOL0     N74031  -0.449   4.416   0.562  0.1207  0.0613  0.1831
  549MOL0     N74032  -0.376   4.326   0.507 -0.5516 -0.3211  0.2077
  549MOL0     C74033   0.807   4.396   0.531  0.3715 -0.7346  0.2831
  549MOL0     C74034   0.943   4.378   0.536 -0.4629  0.2053  0.3134
  549MOL0     C74035   1.367   4.497   0.671 -0.3980  0.0382 -0.4875
  549MOL0     C74036   1.442   4.599   0.744 -0.5814  0.1012 -0.0976
  549MOL0     C74037   1.576   4.580   0.762 -1.0342  0.1139  0.7366
  549MOL0     C74038   1.638   4.457   0.742  0.3323  0.5365  0.3089
  549MOL0     O74039   1.761   4.429   0.780  0.6621 -0.6458 -1.0181
  549MOL0     C74040   1.853   4.497   0.689 -0.1917 -0.1357 -0.5034
  549MOL0     C74041   1.983   4.420   0.664  0.0273  0.2250 -1.2567
  549MOL0     C74042   1.965   4.320   0.540  0.2580 -0.1716  0.3093
  549MOL0     C74043   2.103   4.258   0.516  0.0634 -0.3794 -0.2520
  549MOL0     C74044   2.176   4.204   0.638  0.0129  0.0133 -1.2071
  549MOL0     C74045   2.231   4.184   0.746 -0.3296 -0.1503 -0.2048
  549MOL0     C74046   1.558   4.355   0.680  0.1527 -1.1456  0.1850
  549MOL0     C74047   1.433   4.378   0.633  0.7345 -0.3037 -0.5622
  549MOL0     H74048   1.065   4.681   0.465 -1.8740  1.1890  0.7698
  549MOL0     H74049   0.826   4.715   0.418  2.1826  1.4804  0.7891
  549MOL0     H74050   0.578   4.723   0.385  0.8602 -0.2602 -3.8969
  549MOL0     H74051   0.578   4.564   0.316 -2.0669 -2.6727  1.6540
  549MOL0     H74052   0.397   4.669   0.532  1.2943  0.0314 -0.2543
  549MOL0     H74053   0.369   4.691   0.361  0.6121 -0.2299 -0.5271
  549MOL0     H74054   0.335   4.458   0.314 -4.2579  1.5935  0.7827
  549MOL0     H74055   0.393   4.407   0.480 -0.3844  2.4079  2.0386
  549MOL0     H74056   0.201   4.494   0.578 -3.9930  0.1178 -0.0269
  549MOL0     H74057   0.149   4.578   0.429  1.8593  1.0377  0.7169
  549MOL0     H74058   0.108   4.354   0.333  2.9224 -2.0501 -0.6844
  549MOL0     H74059   0.199   4.267   0.459 -0.0280  0.4544 -0.3592
  549MOL0     H74060   0.026   4.318   0.627 -0.3922  0.0207 -1.1125
  549MOL0     H74061  -0.057   4.415   0.498 -0.4301 -0.8561 -3.0088
  549MOL0     H74062  -0.117   4.241   0.376  0.6658 -1.0528 -0.4793
  549MOL0     H74063  -0.003   4.122   0.455 -0.1098 -0.7525 -1.7964
  549MOL0     H74064  -0.134   4.116   0.650  0.5942  0.4762 -0.6484
  549MOL0     H74065  -0.243   4.091   0.512 -0.9353  1.0436 -1.3027
  549MOL0     H74066  -0.234   4.349   0.802 -0.7491 -0.1672  0.4879
  549MOL0     H74067  -0.560   4.476   0.793  0.0302 -1.7152  1.5953
  549MOL0     H74068  -0.418   4.486   0.891 -3.6732 -3.5854  0.5867
  549MOL0     H74069  -0.495   4.683   0.668  0.6424 -1.0786 -0.5963
  549MOL0     H74070  -0.340   4.696   0.756  0.0643 -0.2433  1.0799
  549MOL0     H74071  -0.491   4.736   0.966 -0.2151  0.1327 -0.1015
  549MOL0     H74072  -0.631   4.722   0.855 -0.1780  0.0732  0.8250
  549MOL0     H74073  -0.520   4.935   0.734  0.6223  0.5540 -0.1568
  549MOL0     H74074  -0.379   4.903   0.831  0.1097 -4.3686 -1.7358
  549MOL0     H74075  -0.631   5.104   1.127  0.8450  0.3965 -2.2555
  549MOL0     H74076  -0.767   5.167   1.286  0.8948  0.8896 -1.5603
  549MOL0     H74077  -0.925   5.234   1.235 -3.2114 -2.5980 -2.3283
  549MOL0     H74078  -0.919   5.068   1.293  0.0809  1.1102  1.5030
  549MOL0     H74079  -1.259   5.268   0.824 -0.6791  3.0303  0.7951
  549MOL0     H74080  -1.482   5.355   0.837 -0.0129 -0.4538 -0.1014
  549MOL0     H74081  -1.776   5.117   0.884  0.9918  0.2872  1.2278
  549MOL0     H74082  -1.807   5.114   1.054 -0.1248 -2.1027 -1.0183
  549MOL0     H74083  -1.892   5.345   0.872 -0.1239 -2.9785 -4.0085
  549MOL0     H74084  -1.986   5.197   0.884 -1.4320  1.9328 -1.2493
  549MOL0     H74085  -1.906   5.365   1.130 -0.7317 -2.6535  1.0109
  549MOL0     H74086  -2.035   5.254   1.115  0.4462 -0.3184 -0.4203
  549MOL0     H74087  -2.107   5.491   1.122 -0.2851  0.6244 -0.3271
  549MOL0     H74088  -2.028   5.511   0.960 -1.7941 -1.3936 -2.5861
  549MOL0     H74089  -2.238   5.300   1.028  3.1266 -0.1088  0.6840
  549MOL0     H74090  -2.190   5.346   0.866 -1.6289  1.3123 -1.1153
  549MOL0     H74091  -2.408   5.449   0.922  0.4173 -1.1254  0.9042
  549MOL0     H74092  -2.351   5.524   1.062 -0.1448  0.4802 -0.4458
  549MOL0     H74093  -2.277   5.569   0.772 -0.4383  0.7918 -0.4902
  549MOL0     H74094  -2.191   5.658   0.914  0.7382  0.0823 -0.4443
  549MOL0     H74095  -2.368   5.760   0.995  2.2770 -0.4574 -0.2711
  549MOL0     H74096  -2.498   5.689   0.894 -0.4471  0.4681 -1.1682
  549MOL0     H74097  -1.602   5.044   1.097  0.7174 -1.9118 -1.1510
  549MOL0     H74098  -1.366   4.954   1.078  0.3353 -0.1240  0.8421
  549MOL0     H74099  -0.994   4.962   0.820 -1.6230 -1.1434  2.0375
  549MOL0     H74100  -0.761   4.934   0.759 -0.9548 -0.1789 -0.5069
  549MOL0     H74101   0.743   4.312   0.555 -0.1300 -1.1078 -2.0936
  549MOL0     H74102   0.985   4.282   0.565 -0.2897  0.0581 -0.4184
  549MOL0     H74103   1.396   4.691   0.776  0.5719  0.3141  1.0451
  549MOL0     H74104   1.625   4.657   0.820 -1.6961  0.4286  0.8950
  549MOL0     H74105   1.799   4.525   0.598  0.0665  2.4589  0.0693
  549MOL0     H74106   1.883   4.598   0.719  1.1517 -0.7223  0.2128
  549MOL0     H74107   2.017   4.376   0.759 -0.5159  3.1629  0.4209
  549MOL0     H74108   2.069   4.485   0.646 -0.7577  1.4832 -0.6221
  549MOL0     H74109   1.937   4.365   0.444 -0.4251 -3.1418 -1.0205
  549MOL0     H74110   1.881   4.251   0.554  0.8111 -0.9959 -0.3314
  549MOL0     H74111   2.164   4.336   0.470 -1.7632  2.1545  1.3600
  549MOL0     H74112   2.089   4.172   0.450  1.6837 -0.9255  0.0680
  549MOL0     H74113   2.267   4.148   0.840  0.9882  1.0958 -0.2005
  549MOL0     H74114   1.603   4.259   0.660  1.1386 -0.5148 -0.7416
  549MOL0     H74115   1.380   4.296   0.584  1.3652 -1.0616 -0.0010
  550MOL0     O74116   4.865   5.598   8.167  0.1119 -0.1256  0.1883
  550MOL0     C74117   4.891   5.486   8.209 -0.7003 -0.0519 -0.3192
  550MOL0     O74118   4.800   5.403   8.274  0.4900 -0.2940  0.5661
  550MOL0     C74119   4.674   5.451   8.311 -1.2587  0.4036 -0.4224
  550MOL0     C74120   4.658   5.483   8.444  0.2694 -0.3218 -0.9881
  550MOL0     C74121   4.549   5.558   8.495 -0.3535 -0.0809  1.0487
  550MOL0     C74122   4.442   5.585   8.407 -0.6715 -0.0467 -0.1915
  550MOL0     O74123   4.322   5.642   8.444 -0.4593 -0.8110  0.0979
  550MOL0     C74124   4.294   5.688   8.576 -0.6696  0.4031  0.3371
  550MOL0     C74125   4.145   5.734   8.581  0.1625 -0.3959 -0.0752
  550MOL0     C74126   4.151   5.869   8.506 -0.9037  0.1195  0.9198
  550MOL0     C74127   4.028   5.953   8.530  0.3400  0.0083  0.3159
  550MOL0     C74128   4.009   6.065   8.422  0.2437  0.0094  0.9258
  550MOL0     C74129   3.896   6.155   8.463  0.3027  0.3350  0.1385
  550MOL0     C74130   3.878   6.246   8.340 -0.3723  0.0451 -0.8896
  550MOL0     C74131   3.805   6.379   8.390 -0.5971  0.6188  0.1345
  550MOL0     N74132   3.684   6.371   8.473  0.6191  0.6060  0.5035
  550MOL0     C74133   3.561   6.345   8.420 -0.0084  0.1610  0.5002
  550MOL0     C74134   3.473   6.334   8.524 -0.6023 -1.1563 -0.7332
  550MOL0     C74135   3.324   6.295   8.508  0.5780 -0.0549  0.1708
  550MOL0     C74136   3.233   6.318   8.627 -0.5800 -0.0187 -0.9247
  550MOL0     C74137   3.272   6.209   8.728  0.8476  0.1706 -0.5069
  550MOL0     C74138   3.211   6.259   8.867 -0.6974 -0.0634 -0.1723
  550MOL0     O74139   3.068   6.293   8.867  0.7035  1.0774  0.2254
  550MOL0     C74140   2.975   6.185   8.883 -0.4186  1.1642 -0.2158
  550MOL0     C74141   2.985   6.088   8.979  0.1843 -0.2477 -0.1186
  550MOL0     C74142   2.892   5.985   9.002  0.2839 -0.1043  0.4302
  550MOL0     C74143   2.909   5.895   9.127 -0.5930 -0.2697 -0.0417
  550MOL0     C74144   2.788   5.977   8.904 -0.3774  0.0976 -0.1117
  550MOL0     C74145   2.675   5.877   8.906 -0.5038 -0.4070  0.0728
  550MOL0     O74146   2.573   5.903   8.820  0.7597 -0.9622  0.0925
  550MOL0     C74147   2.455   5.832   8.816  0.2969  0.2173  0.5710
  550MOL0     C74148   2.396   5.760   8.929 -0.4011  0.2440 -0.0646
  550MOL0     C74149   2.273   5.698   8.916  0.3999  0.4487  0.9651
  550MOL0     C74150   2.197   5.697   8.796  0.1934 -0.8415  0.8556
  550MOL0     O74151   2.078   5.630   8.807 -0.0491 -0.0327 -0.3497
  550MOL0     C74152   1.995   5.649   8.693 -0.0573  0.6724 -0.6673
  550MOL0     C74153   1.852   5.578   8.712  0.3002 -0.6792 -0.0954
  550MOL0     C74154   1.760   5.653   8.807 -0.6589 -0.8510 -0.7283
  550MOL0     C74155   1.608   5.618   8.787 -0.5780  0.3330  0.6290
  550MOL0     C74156   1.537   5.670   8.910 -0.2528 -0.2198 -0.9320
  550MOL0     C74157   1.391   5.619   8.934 -0.2931 -0.5051  0.5047
  550MOL0     C74158   1.338   5.661   9.070  0.1788  0.0682  0.0796
  550MOL0     C74159   1.306   5.818   9.060  0.7779 -0.4518 -0.2057
  550MOL0    Cl74160   1.221   5.890   9.204  0.0258 -0.7589  0.2179
  550MOL0     C74161   2.250   5.777   8.688  0.6485 -0.3947 -0.5391
  550MOL0     C74162   2.373   5.837   8.702  0.5024  0.0747  0.7722
  550MOL0     O74163   2.689   5.776   8.974  0.1177  0.8291 -0.1129
  550MOL0     C74164   2.783   6.071   8.799  0.1703  0.8306  0.5405
  550MOL0     C74165   2.870   6.181   8.794  0.9809  0.2930  0.3980
  550MOL0     N74166   3.546   6.353   8.638 -0.8935  0.2632 -1.0188
  550MOL0     N74167   3.678   6.378   8.605  0.1499 -0.0048 -0.4075
  550MOL0     C74168   4.457   5.551   8.271  0.4134  0.3790 -0.2834
  550MOL0     C74169   4.573   5.484   8.225 -0.1485 -0.3784 -0.2981
  550MOL0     C74170   5.028   5.430   8.193  0.9623  0.9064 -0.4266
  550MOL0     C74171   5.055   5.301   8.232 -0.2024  0.2774 -0.1008
  550MOL0     C74172   5.185   5.250   8.246 -0.8593 -0.0340 -0.0569
  550MOL0     C74173   5.291   5.339   8.204 -0.3090 -0.0704  0.0381
  550MOL0     O74174   5.430   5.311   8.199 -0.1387 -0.2375 -0.3659
  550MOL0     C74175   5.473   5.192   8.261  0.3303  0.2666 -0.3464
  550MOL0     C74176   5.618   5.155   8.207 -0.9586  0.1548  0.1652
  550MOL0     C74177   5.719   5.146   8.315 -0.3197  0.2055 -0.8088
  550MOL0     C74178   5.844   5.091   8.264 -0.7926  0.4472  0.7351
  550MOL0     C74179   5.962   5.155   8.322 -0.3569  0.6844 -1.3456
  550MOL0     C74180   6.058   5.207   8.369 -0.3131 -0.4772  0.3274
  550MOL0     C74181   5.260   5.468   8.151 -0.3551  0.3962 -0.2335
  550MOL0     C74182   5.129   5.517   8.146  0.0698  0.3637 -1.1837
  550MOL0     H74183   4.742   5.466   8.511  0.9066  0.1502 -1.6461
  550MOL0     H74184   4.532   5.602   8.593 -1.8287  0.9836  0.3544
  550MOL0     H74185   4.310   5.608   8.648  0.3415  1.7218  1.6524
  550MOL0     H74186   4.363   5.770   8.599  1.9043 -0.8386 -2.2276
  550MOL0     H74187   4.074   5.663   8.538 -4.3633  2.6929  1.5672
  550MOL0     H74188   4.119   5.761   8.684  0.9089  1.1192 -0.2533
  550MOL0     H74189   4.242   5.922   8.537  1.1418 -3.1158  0.9559
  550MOL0     H74190   4.165   5.849   8.399 -0.0410  0.7214  0.9088
  550MOL0     H74191   3.938   5.892   8.542 -1.6859  2.8199  0.4178
  550MOL0     H74192   4.044   6.012   8.620 -3.1392  0.1237  0.9867
  550MOL0     H74193   4.099   6.123   8.401  0.2027  0.2251  1.3271
  550MOL0     H74194   4.000   6.020   8.322 -0.0814 -0.9473  1.3732
  550MOL0     H74195   3.800   6.107   8.484  0.1488 -0.6440 -2.4323
  550MOL0     H74196   3.927   6.208   8.554  2.0533 -0.1217 -0.1528
  550MOL0     H74197   3.972   6.264   8.286  0.3228 -1.0160 -0.0730
  550MOL0     H74198   3.814   6.203   8.263  0.0696  0.7743 -1.6790
  550MOL0     H74199   3.786   6.429   8.295 -0.7598 -1.7778 -1.1577
  550MOL0     H74200   3.878   6.438   8.446 -0.6443 -2.2570  3.5551
  550MOL0     H74201   3.534   6.339   8.315 -1.3554 -0.2061  0.8472
  550MOL0     H74202   3.283   6.343   8.419  5.9614  1.4093 -1.9092
  550MOL0     H74203   3.321   6.189   8.481 -0.2031  0.3327 -1.3069
  550MOL0     H74204   3.127   6.307   8.601 -0.4646  0.8391 -1.8125
  550MOL0     H74205   3.263   6.416   8.663  3.1767 -1.3277 -0.0563
  550MOL0     H74206   3.379   6.201   8.750  0.4785  1.1069  2.0343
  550MOL0     H74207   3.229   6.111   8.704 -0.7237  0.7401 -0.1302
  550MOL0     H74208   3.267   6.343   8.907 -0.2777  0.3293 -1.5100
  550MOL0     H74209   3.232   6.174   8.933 -2.3337 -0.8594 -0.6100
  550MOL0     H74210   3.073   6.084   9.042  0.6454 -1.0344 -0.7811
  550MOL0     H74211   2.985   5.923   9.201 -1.1343  2.2287 -0.3538
  550MOL0     H74212   2.821   5.896   9.191 -0.3982 -3.2484  0.4462
  550MOL0     H74213   2.935   5.792   9.100 -3.1105 -1.1380  0.6276
  550MOL0     H74214   2.451   5.754   9.022  1.8264  1.5757 -1.2147
  550MOL0     H74215   2.231   5.646   9.002  0.5621  0.8103  1.2625
  550MOL0     H74216   1.969   5.755   8.686  0.2789  0.9267  1.3120
  550MOL0     H74217   2.040   5.608   8.601  2.9592  0.4457  0.7794
  550MOL0     H74218   1.816   5.555   8.611 -0.5262 -1.2151  0.3131
  550MOL0     H74219   1.877   5.481   8.756 -0.4146 -0.5964  0.5011
  550MOL0     H74220   1.773   5.761   8.798  0.9596 -0.8188  1.1522
  550MOL0     H74221   1.790   5.622   8.908  1.2225 -2.9017 -1.8608
  550MOL0     H74222   1.569   5.658   8.693  1.1485  0.6368  0.0035
  550MOL0     H74223   1.589   5.510   8.792 -0.6520  0.4078  3.3912
  550MOL0     H74224   1.531   5.779   8.901 -0.9567 -0.0177  1.3268
  550MOL0     H74225   1.593   5.652   9.002  0.1211 -0.3178 -1.1738
  550MOL0     H74226   1.343   5.657   8.844  2.1046 -0.4139 -0.8171
  550MOL0     H74227   1.399   5.510   8.938  3.9344 -0.4813 -1.3580
  550MOL0     H74228   1.409   5.636   9.150  2.8330  2.8459 -1.2056
  550MOL0     H74229   1.250   5.599   9.091  0.8963 -2.0708 -2.5814
  550MOL0     H74230   1.242   5.840   8.975 -2.7870 -1.1774  2.0608
  550MOL0     H74231   1.405   5.861   9.043  1.2523 -1.0083  1.0033
  550MOL0     H74232   2.192   5.800   8.599 -1.6233  2.2335  1.4462
  550MOL0     H74233   2.419   5.889   8.618  1.9076  0.5962  1.8106
  550MOL0     H74234   2.711   6.068   8.718  0.1008  1.9610  0.5529
  550MOL0     H74235   2.853   6.261   8.723 -1.4669  0.9468  1.6179
  550MOL0     H74236   4.373   5.567   8.204 -0.8714 -1.3477  0.8215
  550MOL0     H74237   4.584   5.455   8.120 -0.6604  2.3270 -1.1733
  550MOL0     H74238   4.980   5.225   8.254  1.7735 -2.2730 -1.5400
  550MOL0     H74239   5.204   5.152   8.288  0.3200  0.2442  0.0976
  550MOL0     H74240   5.478   5.207   8.369 -0.9796  0.7027 -0.3317
  550MOL0     H74241   5.409   5.104   8.246  1.0240 -0.5041  0.9778
  550MOL0     H74242   5.645   5.222   8.125 -1.3368  1.0093  0.7197
  550MOL0     H74243   5.602   5.056   8.163 -1.0467  0.2382  0.0098
  550MOL0     H74244   5.684   5.072   8.388 -0.8287 -1.2026 -2.4244
  550MOL0     H74245   5.735   5.247   8.355 -0.3411 -0.4109  0.8564
  550MOL0     H74246   5.861   5.129   8.164 -0.3159 -0.1203  0.5910
  550MOL0     H74247   5.840   4.982   8.274 -2.5652  0.5962  2.3811
  550MOL0     H74248   6.131   5.265   8.421 -0.5814  0.7609 -0.6403
  550MOL0     H74249   5.343   5.532   8.122  0.6349 -0.8827 -0.2759
  550MOL0     H74250   5.099   5.614   8.109 -1.0192  0.4936 -0.0223
  551MOL0     O74251   9.035   3.329   4.230  0.1324  0.7225  0.5339
  551MOL0     C74252   9.039   3.451   4.207 -0.2375  0.0008 -0.4338
  551MOL0     O74253   8.932   3.539   4.224 -0.2056 -0.3245 -0.0013
  551MOL0     C74254   8.834   3.511   4.320 -0.1357  1.2892  0.6400
  551MOL0     C74255   8.710   3.568   4.293  0.4660 -0.0544  0.2506
  551MOL0     C74256   8.606   3.536   4.376  0.6031 -0.0877 -0.0258
  551MOL0     C74257   8.619   3.452   4.490 -0.4342 -0.0968  0.2173
  551MOL0     O74258   8.514   3.415   4.570  0.1500 -0.4323  0.2358
  551MOL0     C74259   8.433   3.513   4.633  0.3642 -2.0174  0.2797
  551MOL0     C74260   8.287   3.500   4.592  0.7337 -0.1969  0.8551
  551MOL0     C74261   8.222   3.367   4.631 -0.5351 -0.6267 -0.4191
  551MOL0     C74262   8.082   3.365   4.585  0.4617 -0.1533  0.2872
  551MOL0     C74263   8.002   3.234   4.623  0.4206  0.0469 -0.0219
  551MOL0     C74264   7.849   3.252   4.586  0.1244 -0.5305  0.4057
  551MOL0     C74265   7.826   3.306   4.437  0.6194  0.3892  0.0761
  551MOL0     C74266   7.676   3.286   4.403  0.4420  0.3035  0.1351
  551MOL0     N74267   7.585   3.357   4.494 -0.5365 -0.1471 -0.2031
  551MOL0     C74268   7.573   3.493   4.504 -0.5462  0.1889 -0.5183
  551MOL0     C74269   7.478   3.507   4.593  0.5103  0.4292 -0.3497
  551MOL0     C74270   7.415   3.629   4.638 -0.1294  0.1378  0.3990
  551MOL0     C74271   7.280   3.655   4.571  0.2040  0.0361  0.5541
  551MOL0     C74272   7.221   3.788   4.606  1.8434 -0.0799 -0.2592
  551MOL0     C74273   7.081   3.805   4.544 -0.1688  0.2764 -0.5571
  551MOL0     O74274   7.098   3.769   4.410 -0.2862 -0.0699 -0.1347
  551MOL0     C74275   6.988   3.728   4.338 -0.4787  0.6292  0.1271
  551MOL0     C74276   6.859   3.729   4.378 -0.2177  0.7523 -0.5823
  551MOL0     C74277   6.759   3.668   4.306 -0.1007  0.6014  0.8126
  551MOL0     C74278   6.616   3.649   4.362  0.0594 -0.3351 -0.6124
  551MOL0     C74279   6.792   3.616   4.179  0.3839 -0.4760 -0.2035
  551MOL0     C74280   6.684   3.571   4.088 -0.0588 -0.0357  0.5696
  551MOL0     O74281   6.550   3.615   4.096 -0.2924 -0.0217  0.3286
  551MOL0     C74282   6.460   3.596   3.986 -0.2299 -0.1049  0.1501
  551MOL0     C74283   6.496   3.564   3.852  0.0984 -0.3329  0.0025
  551MOL0     C74284   6.400   3.552   3.762  0.0717  0.0233  0.6013
  551MOL0     C74285   6.262   3.577   3.787  0.2928  0.3985 -0.2851
  551MOL0     O74286   6.164   3.591   3.693  0.3445  0.4159  0.0776
  551MOL0     C74287   6.180   3.489   3.582  0.0464 -0.1243 -0.5682
  551MOL0     C74288   6.054   3.509   3.497 -0.3276  0.0187  0.3083
  551MOL0     C74289   5.932   3.479   3.584 -0.6094 -0.1146  0.0952
  551MOL0     C74290   5.796   3.468   3.505  0.6918  0.0816 -0.6983
  551MOL0     C74291   5.686   3.425   3.606 -0.3507 -1.2230  0.4666
  551MOL0     C74292   5.543   3.438   3.550 -0.1102  0.1925  0.2856
  551MOL0     C74293   5.437   3.350   3.630 -0.0555 -0.9579  0.5519
  551MOL0     C74294   5.462   3.199   3.620  0.3109  0.1649  0.1589
  551MOL0    Cl74295   5.358   3.102   3.728  0.3044  0.3524 -0.5962
  551MOL0     C74296   6.229   3.607   3.920 -0.2649 -0.8146  0.2866
  551MOL0     C74297   6.330   3.623   4.015 -0.1896  0.3279 -0.2805
  551MOL0     O74298   6.729   3.480   4.013 -0.7071 -0.1363  0.5092
  551MOL0     C74299   6.927   3.624   4.136 -0.3487  0.4950 -0.1748
  551MOL0     C74300   7.022   3.681   4.216  0.4808 -0.0569  0.6927
  551MOL0     N74301   7.434   3.387   4.640 -0.2372 -0.4467  1.2717
  551MOL0     N74302   7.502   3.298   4.577  0.3722 -0.3473 -0.2809
  551MOL0     C74303   8.746   3.400   4.519  0.0999  0.7616 -0.2363
  551MOL0     C74304   8.853   3.423   4.425 -0.3784 -0.2910 -0.3384
  551MOL0     C74305   9.156   3.507   4.150 -0.8095 -0.2051 -0.1877
  551MOL0     C74306   9.175   3.648   4.140 -0.1548 -0.1618 -0.0313
  551MOL0     C74307   9.278   3.708   4.068 -0.0871 -0.2263  0.1582
  551MOL0     C74308   9.362   3.621   3.999  0.0763  0.1327  0.6968
  551MOL0     O74309   9.470   3.675   3.926 -0.4851 -0.0910 -0.2820
  551MOL0     C74310   9.448   3.791   3.846  0.4852  0.0373  0.3012
  551MOL0     C74311   9.501   3.769   3.704 -0.0441 -0.8170 -1.1163
  551MOL0     C74312   9.463   3.881   3.615 -0.0158 -0.0075 -0.1199
  551MOL0     C74313   9.499   3.867   3.467  0.2754  0.5910 -0.1983
  551MOL0     C74314   9.415   3.959   3.389  0.1190 -0.6348  0.3347
  551MOL0     C74315   9.354   4.038   3.320 -0.3741  1.3594 -0.0690
  551MOL0     C74316   9.346   3.485   4.014 -0.3674 -0.3291  0.6964
  551MOL0     C74317   9.249   3.422   4.086  0.1389  0.4869  0.3259
  551MOL0     H74318   8.713   3.640   4.212 -1.0368  2.2414  2.1104
  551MOL0     H74319   8.505   3.572   4.359  1.3762  1.3637 -1.9929
  551MOL0     H74320   8.440   3.504   4.742  1.2891  2.8519  0.8230
  551MOL0     H74321   8.478   3.610   4.610  1.1424 -2.2179  0.8957
  551MOL0     H74322   8.226   3.581   4.633  4.4175  3.0460  0.5836
  551MOL0     H74323   8.282   3.501   4.483 -0.2138 -3.0118  0.7900
  551MOL0     H74324   8.274   3.283   4.584  0.0011 -0.2336 -0.5447
  551MOL0     H74325   8.226   3.358   4.740  2.7975  1.5467 -0.1960
  551MOL0     H74326   8.030   3.443   4.642  1.6405  0.9528 -0.1040
  551MOL0     H74327   8.083   3.393   4.480  2.6341 -0.2331  0.2357
  551MOL0     H74328   8.050   3.159   4.559 -0.0099 -2.7749  2.7282
  551MOL0     H74329   8.021   3.201   4.725  0.0437  1.9743  0.7088
  551MOL0     H74330   7.786   3.164   4.603 -1.4608  0.4735 -0.1832
  551MOL0     H74331   7.822   3.335   4.652  0.3424 -0.7344  0.7572
  551MOL0     H74332   7.860   3.409   4.430  2.3531 -0.1966 -0.5281
  551MOL0     H74333   7.881   3.247   4.363 -0.2963  1.4982 -1.5680
  551MOL0     H74334   7.661   3.178   4.415  3.3523 -0.0497  1.5240
  551MOL0     H74335   7.660   3.314   4.298  3.5643  1.2424 -0.2068
  551MOL0     H74336   7.639   3.574   4.473  0.6763  0.1308  1.6642
  551MOL0     H74337   7.399   3.623   4.747 -0.5404 -0.2778  0.3222
  551MOL0     H74338   7.485   3.707   4.611 -1.3272  1.3860  0.7677
  551MOL0     H74339   7.208   3.576   4.595 -1.4934  1.4993  0.5314
  551MOL0     H74340   7.294   3.636   4.464 -3.6498 -1.6149  0.1666
  551MOL0     H74341   7.284   3.872   4.576  2.5502 -0.0638  1.1620
  551MOL0     H74342   7.210   3.793   4.715 -0.5425  0.9039 -0.4774
  551MOL0     H74343   7.042   3.907   4.548 -0.6484  0.0506  0.9553
  551MOL0     H74344   7.005   3.742   4.590 -1.0138  0.6864 -1.3598
  551MOL0     H74345   6.844   3.772   4.476 -1.6502 -0.5919 -0.1708
  551MOL0     H74346   6.617   3.674   4.469 -0.9859  3.6745 -1.3780
  551MOL0     H74347   6.550   3.721   4.314  0.1435 -0.7696 -1.3862
  551MOL0     H74348   6.573   3.551   4.338  1.9007 -1.1344 -0.7988
  551MOL0     H74349   6.600   3.579   3.824 -0.3122  2.4903 -0.3042
  551MOL0     H74350   6.444   3.546   3.663  2.9920  1.9692  1.6319
  551MOL0     H74351   6.268   3.514   3.523  2.2527  2.9472  3.5160
  551MOL0     H74352   6.178   3.384   3.612  1.2166  0.0397  0.1387
  551MOL0     H74353   6.038   3.614   3.472 -2.4171 -0.6386 -1.3990
  551MOL0     H74354   6.062   3.451   3.405 -1.0901 -0.2215  0.3834
  551MOL0     H74355   5.928   3.551   3.666 -1.7286  1.0941 -0.9513
  551MOL0     H74356   5.946   3.379   3.625  2.9833 -0.6968 -2.1625
  551MOL0     H74357   5.760   3.561   3.459 -1.3422 -0.4096 -0.1700
  551MOL0     H74358   5.811   3.398   3.423 -0.1076  0.5038 -1.2157
  551MOL0     H74359   5.683   3.497   3.688  2.0804  0.0681 -0.4730
  551MOL0     H74360   5.708   3.325   3.644 -0.8045 -1.2732  0.5952
  551MOL0     H74361   5.510   3.542   3.547 -2.7663 -0.5256  1.2150
  551MOL0     H74362   5.538   3.398   3.448  0.1681  1.1809 -0.1265
  551MOL0     H74363   5.336   3.370   3.593 -0.7251 -1.7640  1.8766
  551MOL0     H74364   5.444   3.384   3.734 -0.6827  0.0185  0.2910
  551MOL0     H74365   5.568   3.175   3.630  0.4589  1.1553  1.2798
  551MOL0     H74366   5.444   3.161   3.519  0.5054 -2.4612  1.0408
  551MOL0     H74367   6.126   3.633   3.942 -0.2909 -0.5554 -0.1213
  551MOL0     H74368   6.297   3.660   4.112 -1.9584 -1.9097  0.0770
  551MOL0     H74369   6.962   3.575   4.046  3.5940  2.7452 -0.0993
  551MOL0     H74370   7.124   3.670   4.181  1.6159 -2.5006  4.2380
  551MOL0     H74371   8.761   3.325   4.595 -0.7601  1.0778  0.2578
  551MOL0     H74372   8.947   3.371   4.441 -0.5628 -0.3293  0.7330
  551MOL0     H74373   9.111   3.714   4.197  0.1578 -1.3579  1.7801
  551MOL0     H74374   9.288   3.815   4.056  0.1702 -0.2938 -0.2610
  551MOL0     H74375   9.343   3.820   3.843  0.1240 -1.1380  0.8343
  551MOL0     H74376   9.497   3.879   3.887 -1.2171  0.9269  0.5254
  551MOL0     H74377   9.450   3.678   3.674 -0.7518 -0.9943  0.4820
  551MOL0     H74378   9.610   3.760   3.708  0.2302  1.4106 -1.7814
  551MOL0     H74379   9.517   3.969   3.651  2.1469 -0.6752 -1.5138
  551MOL0     H74380   9.354   3.883   3.624 -0.0776  0.7041 -0.9566
  551MOL0     H74381   9.471   3.768   3.431  2.8650  0.3181 -1.6646
  551MOL0     H74382   9.603   3.877   3.438  0.1360  1.3526 -0.4514
  551MOL0     H74383   9.290   4.099   3.259 -0.2921  0.8748 -0.6409
  551MOL0     H74384   9.429   3.423   3.979  2.2045  0.8769  4.0118
  551MOL0     H74385   9.250   3.313   4.090 -1.0059  0.4797  0.7576
  552MOL0     O74386  10.682   5.049   4.747 -0.2241 -0.1346  0.2882
  552MOL0     C74387  10.679   4.964   4.834  0.2327 -0.8974 -0.3140
  552MOL0     O74388  10.567   4.913   4.886  0.3647 -0.2628  0.1789
  552MOL0     C74389  10.442   4.967   4.850 -1.2726  0.4074 -0.5790
  552MOL0     C74390  10.394   5.073   4.919 -0.1543 -0.0889  0.6947
  552MOL0     C74391  10.276   5.127   4.885 -0.1462  0.1368 -0.0004
  552MOL0     C74392  10.196   5.085   4.780  0.0839  0.6784  0.0317
  552MOL0     O74393  10.070   5.133   4.749  0.1880 -0.0126  0.4218
  552MOL0     C74394  10.025   5.256   4.800  0.2160 -1.0595 -0.3953
  552MOL0     C74395   9.943   5.322   4.687  0.4257 -0.4847  0.4575
  552MOL0     C74396   9.850   5.220   4.628  0.3157  0.1725  0.1958
  552MOL0     C74397   9.738   5.293   4.554  0.5908  0.3522  0.0354
  552MOL0     C74398   9.615   5.209   4.510 -0.1969  0.6670 -0.6086
  552MOL0     C74399   9.486   5.285   4.478 -0.1524 -0.4444 -0.5359
  552MOL0     C74400   9.371   5.188   4.490  0.2896  0.1344  0.6415
  552MOL0     C74401   9.250   5.263   4.439  0.0648  0.0186  0.1309
  552MOL0     N74402   9.125   5.179   4.440 -0.0523  0.4163 -0.0962
  552MOL0     C74403   9.123   5.049   4.398 -0.1253 -0.2520 -0.0030
  552MOL0     C74404   8.994   5.025   4.384 -0.2293  0.1949  0.6821
  552MOL0     C74405   8.938   4.906   4.316 -0.0632 -0.1587  0.2533
  552MOL0     C74406   8.870   4.811   4.417 -0.1551  0.1588  0.2574
  552MOL0     C74407   8.732   4.871   4.468 -0.1197  0.2939 -1.1548
  552MOL0     C74408   8.670   4.775   4.563  0.8380 -0.1430  0.0258
  552MOL0     O74409   8.529   4.791   4.559 -0.6199  0.3919  0.7078
  552MOL0     C74410   8.456   4.712   4.647 -0.1912  0.1987  0.7442
  552MOL0     C74411   8.506   4.634   4.750  0.9658 -0.1504 -0.6314
  552MOL0     C74412   8.414   4.554   4.817 -0.1113  0.0165  0.4266
  552MOL0     C74413   8.468   4.453   4.923  0.0975 -0.0129  0.2865
  552MOL0     C74414   8.277   4.550   4.791  0.1196 -0.2877 -0.1545
  552MOL0     C74415   8.186   4.459   4.857 -0.4332  0.4377  0.5316
  552MOL0     O74416   8.086   4.510   4.930  0.8409  0.3029 -0.0691
  552MOL0     C74417   7.990   4.426   4.969  0.2973  0.8278  0.3218
  552MOL0     C74418   8.000   4.333   5.074  0.5020  1.1232  0.2593
  552MOL0     C74419   7.890   4.264   5.115  0.3072 -0.6887  0.4575
  552MOL0     C74420   7.767   4.282   5.048 -0.0988 -0.2075 -0.4719
  552MOL0     O74421   7.645   4.222   5.075 -0.0555  0.1931 -0.9163
  552MOL0     C74422   7.624   4.199   5.216 -0.3767  0.5065  0.1252
  552MOL0     C74423   7.488   4.152   5.259 -0.1115  0.4326 -0.0303
  552MOL0     C74424   7.387   4.269   5.238 -0.0249  0.1558 -0.0248
  552MOL0     C74425   7.246   4.216   5.267 -0.5595 -0.1083  0.1620
  552MOL0     C74426   7.144   4.333   5.257  0.0385  0.4350 -0.2890
  552MOL0     C74427   6.998   4.292   5.287 -0.4382  0.3784 -0.3744
  552MOL0     C74428   6.890   4.403   5.282  0.6713 -0.6787  0.3270
  552MOL0     C74429   6.778   4.358   5.374  0.4564  0.2972  0.5527
  552MOL0    Cl74430   6.657   4.491   5.376  0.3524 -0.4199 -0.2499
  552MOL0     C74431   7.762   4.369   4.942 -0.5050  0.1606  0.1225
  552MOL0     C74432   7.871   4.442   4.901  0.8587  0.1123  0.2405
  552MOL0     O74433   8.211   4.344   4.831  0.0423  0.0333  0.4698
  552MOL0     C74434   8.227   4.626   4.689 -0.3586  0.2703 -0.6406
  552MOL0     C74435   8.318   4.708   4.616  1.3710 -1.3743  0.5702
  552MOL0     N74436   8.916   5.129   4.415  0.3198  0.1008 -0.6283
  552MOL0     N74437   8.995   5.226   4.451 -1.1866  0.4638  0.5678
  552MOL0     C74438  10.240   4.978   4.698 -0.7219 -0.9169  0.2201
  552MOL0     C74439  10.369   4.921   4.734  0.0185 -0.5299 -0.6611
  552MOL0     C74440  10.812   4.903   4.868  0.2204  0.7610  0.0170
  552MOL0     C74441  10.925   4.921   4.782 -0.0598  0.0758  0.1343
  552MOL0     C74442  11.042   4.847   4.794 -0.1378  0.6788 -0.3378
  552MOL0     C74443  11.036   4.740   4.886  0.1007 -0.8044 -0.0505
  552MOL0     O74444  11.146   4.661   4.877 -0.6644  0.4851  0.3918
  552MOL0     C74445  11.261   4.694   4.952  0.2583 -0.0225 -0.2354
  552MOL0     C74446  11.331   4.587   5.022 -0.9926  0.0274 -0.2547
  552MOL0     C74447  11.251   4.536   5.133 -0.3625  0.0936  0.3783
  552MOL0     C74448  11.296   4.394   5.174  0.4349  0.1120 -0.6085
  552MOL0     C74449  11.198   4.322   5.258 -0.2745  0.1874 -0.0459
  552MOL0     C74450  11.123   4.264   5.330 -0.2687 -0.1224 -0.5466
  552MOL0     C74451  10.928   4.720   4.971  0.1921  0.1356 -0.4935
  552MOL0     C74452  10.814   4.796   4.955  1.0055  0.4249  1.1121
  552MOL0     H74453  10.452   5.109   5.003  0.9836 -0.8435  0.2579
  552MOL0     H74454  10.241   5.214   4.939 -0.6056  0.3923 -0.6892
  552MOL0     H74455   9.948   5.243   4.876  0.9116 -0.0032  0.5290
  552MOL0     H74456  10.095   5.332   4.836 -1.4842  0.4023 -0.0322
  552MOL0     H74457   9.882   5.404   4.727 -1.1870 -0.0799 -2.5195
  552MOL0     H74458  10.009   5.350   4.605 -1.0847  1.5617 -0.1412
  552MOL0     H74459   9.904   5.159   4.555 -2.0809 -0.7726 -0.9120
  552MOL0     H74460   9.793   5.159   4.699  0.4351  0.0107  0.1552
  552MOL0     H74461   9.703   5.367   4.626 -0.5233  2.5830 -2.6308
  552MOL0     H74462   9.782   5.339   4.466 -0.3898  0.4100 -0.4402
  552MOL0     H74463   9.642   5.134   4.435 -2.4937 -0.4375 -0.3938
  552MOL0     H74464   9.600   5.148   4.599  1.9979  0.4171 -0.3353
  552MOL0     H74465   9.467   5.363   4.552 -2.6146 -0.3497 -1.1813
  552MOL0     H74466   9.490   5.335   4.381  1.7139  0.5741  0.0251
  552MOL0     H74467   9.384   5.099   4.428 -2.3581  0.6409 -0.7848
  552MOL0     H74468   9.351   5.160   4.594  1.4882 -1.2005  0.5475
  552MOL0     H74469   9.270   5.305   4.340  1.9817  2.8161  1.5463
  552MOL0     H74470   9.238   5.349   4.505  1.3498  0.1306  0.2563
  552MOL0     H74471   9.201   4.995   4.345 -2.4145  0.1435 -4.2078
  552MOL0     H74472   8.862   4.941   4.245  0.7930  0.9145 -0.1502
  552MOL0     H74473   9.027   4.869   4.265 -0.5979 -2.1137  0.6319
  552MOL0     H74474   8.933   4.779   4.501  1.1655  1.6250 -0.1383
  552MOL0     H74475   8.856   4.720   4.359  1.8083 -0.3896  0.5614
  552MOL0     H74476   8.668   4.874   4.379  1.1720 -0.0218 -2.1163
  552MOL0     H74477   8.743   4.968   4.517  0.9545 -0.5027  0.2565
  552MOL0     H74478   8.716   4.800   4.659  0.4440  0.6821  0.0007
  552MOL0     H74479   8.692   4.669   4.542 -2.3565 -0.9547  0.2360
  552MOL0     H74480   8.607   4.643   4.789  0.4593  1.1383  0.4724
  552MOL0     H74481   8.406   4.470   5.011 -0.6805  2.7239 -0.6928
  552MOL0     H74482   8.477   4.353   4.879  0.0462 -0.4966  1.3668
  552MOL0     H74483   8.570   4.481   4.949 -0.2575  1.4606  0.1963
  552MOL0     H74484   8.092   4.316   5.130  1.5248  2.4003 -0.9549
  552MOL0     H74485   7.889   4.206   5.207 -0.1484 -1.3560  0.0455
  552MOL0     H74486   7.688   4.116   5.249 -0.7127  0.4215  0.5706
  552MOL0     H74487   7.647   4.290   5.272 -1.6720  0.6531  0.4397
  552MOL0     H74488   7.459   4.066   5.197  1.6757  1.5130 -2.5192
  552MOL0     H74489   7.490   4.123   5.365 -0.2710 -0.2966 -0.2186
  552MOL0     H74490   7.398   4.311   5.137  2.1091  1.1737  0.5668
  552MOL0     H74491   7.405   4.347   5.313 -0.8202 -0.8716  1.2537
  552MOL0     H74492   7.213   4.135   5.202  0.5510 -0.3893 -0.0768
  552MOL0     H74493   7.251   4.161   5.362  1.0326 -1.1351 -0.4720
  552MOL0     H74494   7.149   4.376   5.157  2.5037  0.1244 -0.3647
  552MOL0     H74495   7.177   4.412   5.326  0.6378  2.9322 -3.2375
  552MOL0     H74496   6.960   4.212   5.224 -0.7522 -0.9302  1.3924
  552MOL0     H74497   6.995   4.253   5.389 -1.9700  0.9698 -0.1793
  552MOL0     H74498   6.861   4.426   5.179  1.6690 -0.6809  0.0356
  552MOL0     H74499   6.937   4.494   5.320  1.8383 -0.4349 -1.5602
  552MOL0     H74500   6.817   4.340   5.474  0.8505  1.5342  0.6394
  552MOL0     H74501   6.738   4.266   5.332 -1.2282  1.1595  0.1915
  552MOL0     H74502   7.672   4.364   4.882 -1.2491 -3.5998  1.3051
  552MOL0     H74503   7.878   4.503   4.812  1.4711  1.9009  1.4547
  552MOL0     H74504   8.120   4.626   4.672 -0.0731  1.6108 -2.6994
  552MOL0     H74505   8.279   4.751   4.524  0.3529  0.2920  1.7167
  552MOL0     H74506  10.185   4.959   4.606  1.7816  0.4548 -1.6973
  552MOL0     H74507  10.420   4.846   4.674 -0.4891 -1.3700 -0.0640
  552MOL0     H74508  10.923   4.998   4.706 -0.1533  0.9947  1.0513
  552MOL0     H74509  11.120   4.884   4.729 -1.4455  4.0002 -0.2017
  552MOL0     H74510  11.334   4.740   4.885  0.2912  0.7192  0.2979
  552MOL0     H74511  11.235   4.768   5.028  0.4462  0.6553 -0.8180
  552MOL0     H74512  11.422   4.625   5.069 -2.2371 -0.8838  3.2281
  552MOL0     H74513  11.356   4.508   4.951 -0.2473 -0.6993  0.7885
  552MOL0     H74514  11.147   4.523   5.102 -0.6824  1.2129  0.9397
  552MOL0     H74515  11.256   4.596   5.224 -0.3124 -0.3137  0.6464
  552MOL0     H74516  11.390   4.412   5.227 -0.7490  3.2370  0.6556
  552MOL0     H74517  11.296   4.333   5.083  0.4586  0.7925 -1.0721
  552MOL0     H74518  11.063   4.215   5.404  1.9273 -0.0009  1.4198
  552MOL0     H74519  10.926   4.639   5.043  0.3479 -2.5042 -3.2744
  552MOL0     H74520  10.725   4.764   5.009  0.3512  0.5265  0.1214
  553MOL0     O74521   3.119   5.377   5.899 -0.2444 -0.1890 -0.7412
  553MOL0     C74522   3.169   5.385   5.788  0.3107  0.6171  0.0960
  553MOL0     O74523   3.146   5.478   5.698 -0.1893 -0.1859 -0.0785
  553MOL0     C74524   3.066   5.583   5.742 -0.4540  0.1929  0.0195
  553MOL0     C74525   2.926   5.593   5.723 -0.2296 -0.3831  0.4173
  553MOL0     C74526   2.850   5.702   5.753  0.1632 -0.1640  0.3019
  553MOL0     C74527   2.914   5.813   5.816 -0.8519  0.0814 -0.1693
  553MOL0     O74528   2.817   5.912   5.843  0.3812 -1.0010  0.2856
  553MOL0     C74529   2.844   6.022   5.922  0.1573 -0.2295  0.5404
  553MOL0     C74530   2.917   6.130   5.843  0.2965 -0.3305  0.2425
  553MOL0     C74531   2.921   6.254   5.929 -0.1508 -0.3566 -0.0148
  553MOL0     C74532   2.980   6.381   5.856  0.7283  0.4545  0.5049
  553MOL0     C74533   2.864   6.442   5.769 -0.4743 -0.3176  0.1377
  553MOL0     C74534   2.907   6.578   5.703 -0.0735  0.4135  0.5848
  553MOL0     C74535   2.916   6.691   5.807 -0.2814 -0.2870  0.5528
  553MOL0     C74536   2.775   6.744   5.849  0.0510  0.4085  0.1894
  553MOL0     N74537   2.686   6.788   5.749  0.3033 -0.5414 -0.3499
  553MOL0     C74538   2.690   6.907   5.678 -0.5352  0.0303  0.5332
  553MOL0     C74539   2.585   6.885   5.589 -0.1577  1.2646 -0.1812
  553MOL0     C74540   2.533   6.971   5.476  0.4666  0.1008  0.2811
  553MOL0     C74541   2.538   7.117   5.498 -0.6207  0.5557 -0.5136
  553MOL0     C74542   2.475   7.200   5.389  1.0078 -0.0953 -0.0114
  553MOL0     C74543   2.325   7.186   5.363  0.0708 -0.0503  0.4240
  553MOL0     O74544   2.249   7.293   5.421  0.4693 -0.1316 -0.6592
  553MOL0     C74545   2.112   7.309   5.398 -0.5157  0.6704 -0.2194
  553MOL0     C74546   2.050   7.437   5.414 -0.9059  0.1308  0.6856
  553MOL0     C74547   1.910   7.456   5.398  0.2260  0.5436 -0.8659
  553MOL0     C74548   1.855   7.590   5.389 -0.6823 -0.7300  0.4039
  553MOL0     C74549   1.821   7.349   5.383  0.5726  0.2586  0.8613
  553MOL0     C74550   1.672   7.349   5.362 -0.1285 -0.2349 -0.2332
  553MOL0     O74551   1.601   7.464   5.398  0.6163 -0.0512  0.2169
  553MOL0     C74552   1.484   7.496   5.337  0.5509 -0.7734  0.3037
  553MOL0     C74553   1.425   7.440   5.217  0.3624  1.0829  0.0389
  553MOL0     C74554   1.300   7.466   5.170 -0.0710  0.0067  0.2218
  553MOL0     C74555   1.239   7.573   5.236  0.3593  0.1876 -0.4251
  553MOL0     O74556   1.120   7.633   5.187  0.6066  0.0710 -0.7957
  553MOL0     C74557   1.084   7.620   5.049 -0.3029 -0.0310 -0.2400
  553MOL0     C74558   0.992   7.500   5.030 -0.8684 -0.8216 -0.0461
  553MOL0     C74559   0.845   7.520   5.048  0.0655 -0.2914 -0.0560
  553MOL0     C74560   0.757   7.408   4.998  0.7210  0.0731  0.0831
  553MOL0     C74561   0.605   7.438   4.999  0.7806  0.5973  0.0639
  553MOL0     C74562   0.556   7.470   5.140  0.4541  0.6994  0.3159
  553MOL0     C74563   0.410   7.503   5.135 -1.1140  0.2787 -0.5528
  553MOL0     C74564   0.365   7.512   5.283 -0.2889 -0.0495 -0.5843
  553MOL0    Cl74565   0.200   7.586   5.287 -0.2554  0.4991 -0.0422
  553MOL0     C74566   1.289   7.636   5.351  0.3588  0.4633  0.7585
  553MOL0     C74567   1.406   7.584   5.406  0.7730  0.0521  0.1626
  553MOL0     O74568   1.618   7.253   5.307 -0.3825  0.0255  0.0394
  553MOL0     C74569   1.885   7.225   5.371  0.5948 -0.8381  0.6638
  553MOL0     C74570   2.029   7.202   5.374  0.3609 -0.0145 -0.5984
  553MOL0     N74571   2.531   6.755   5.611  0.9469  0.1435  0.1464
  553MOL0     N74572   2.577   6.712   5.720 -0.5724 -0.7893 -0.4161
  553MOL0     C74573   3.057   5.813   5.837 -0.0019  0.7447 -0.2060
  553MOL0     C74574   3.133   5.702   5.796  0.2708  0.2685  0.2025
  553MOL0     C74575   3.244   5.267   5.735  0.1617 -0.7009 -0.2116
  553MOL0     C74576   3.318   5.190   5.819  0.3663  0.4838  0.1757
  553MOL0     C74577   3.365   5.068   5.771  0.1435 -0.3121  0.3966
  553MOL0     C74578   3.349   5.028   5.636  0.2475 -0.1376 -0.1876
  553MOL0     O74579   3.404   4.913   5.588  0.6704 -0.3689  0.3294
  553MOL0     C74580   3.374   4.788   5.641 -0.3478 -0.4004 -0.7518
  553MOL0     C74581   3.485   4.693   5.591 -0.1135 -0.3485  0.6150
  553MOL0     C74582   3.626   4.728   5.641  0.5184  0.2316  0.3148
  553MOL0     C74583   3.739   4.625   5.626  0.7485  0.2335 -0.3758
  553MOL0     C74584   3.757   4.572   5.492  0.2870 -0.0677  0.3833
  553MOL0     C74585   3.776   4.543   5.371 -0.4490  0.5897 -0.0783
  553MOL0     C74586   3.263   5.111   5.555  0.0346 -0.1632 -0.3178
  553MOL0     C74587   3.211   5.228   5.610  0.4021 -0.2926  0.1364
  553MOL0     H74588   2.882   5.497   5.698 -1.5510 -0.1805  1.8188
  553MOL0     H74589   2.746   5.706   5.721 -0.1888 -0.2468  1.4220
  553MOL0     H74590   2.748   6.058   5.958  1.6837  1.7530  2.9828
  553MOL0     H74591   2.889   5.998   6.019  1.0288  2.5044  0.8985
  553MOL0     H74592   3.017   6.090   5.826  0.6289 -0.5248  2.3069
  553MOL0     H74593   2.863   6.147   5.749 -2.9840 -1.6077  1.7138
  553MOL0     H74594   2.822   6.271   5.974  1.8402  1.0499  4.4344
  553MOL0     H74595   2.990   6.224   6.009 -0.2586 -0.2549  0.1175
  553MOL0     H74596   3.010   6.453   5.933  0.4925  0.7699  0.3079
  553MOL0     H74597   3.074   6.360   5.804  0.2868  1.1490 -0.5995
  553MOL0     H74598   2.840   6.371   5.690 -1.1909  0.8765 -0.7636
  553MOL0     H74599   2.767   6.459   5.817 -2.1403 -0.5296 -2.9155
  553MOL0     H74600   3.011   6.575   5.670  0.1604  4.2545  0.6082
  553MOL0     H74601   2.835   6.602   5.624 -0.1997 -1.6951 -0.0095
  553MOL0     H74602   2.977   6.654   5.889  1.7369  1.3327 -0.1297
  553MOL0     H74603   2.977   6.774   5.771  1.1787 -1.6293 -0.2226
  553MOL0     H74604   2.793   6.825   5.919  2.4543 -0.5307  0.7410
  553MOL0     H74605   2.719   6.667   5.903  0.7135 -0.3400 -0.1790
  553MOL0     H74606   2.753   6.995   5.672 -1.2820  0.4985 -1.7660
  553MOL0     H74607   2.590   6.940   5.388  0.4050 -1.8515  0.8803
  553MOL0     H74608   2.427   6.942   5.472  0.5586 -0.3240  0.7797
  553MOL0     H74609   2.641   7.153   5.497 -0.2514 -0.4498  0.0383
  553MOL0     H74610   2.493   7.150   5.592  0.7383 -0.5356  0.5560
  553MOL0     H74611   2.527   7.172   5.297  3.3467  0.2474  1.1141
  553MOL0     H74612   2.497   7.304   5.415  1.6404 -0.6407  1.8588
  553MOL0     H74613   2.287   7.095   5.410 -0.1715  0.1907  0.6988
  553MOL0     H74614   2.303   7.189   5.256 -0.3223 -1.3147  0.4614
  553MOL0     H74615   2.112   7.522   5.439  3.2110 -2.1386 -0.7959
  553MOL0     H74616   1.814   7.601   5.288  0.0250 -0.7990  0.1042
  553MOL0     H74617   1.772   7.615   5.456 -0.5172 -0.3691  0.4782
  553MOL0     H74618   1.928   7.671   5.398 -2.2373  0.6731  0.9802
  553MOL0     H74619   1.475   7.369   5.153 -2.0228 -0.5574 -0.1402
  553MOL0     H74620   1.269   7.441   5.069  2.1298  0.4173 -0.6201
  553MOL0     H74621   1.026   7.699   5.001  0.9848 -0.1503 -2.1174
  553MOL0     H74622   1.180   7.608   4.998 -0.2848 -3.2682  0.3227
  553MOL0     H74623   1.015   7.459   4.931  1.0159 -0.3330  0.1531
  553MOL0     H74624   1.030   7.422   5.096  1.5167  1.4873  1.5022
  553MOL0     H74625   0.814   7.603   4.984 -2.1874 -3.2353 -3.1079
  553MOL0     H74626   0.839   7.548   5.154  0.4582  0.8022 -0.3063
  553MOL0     H74627   0.790   7.400   4.894  0.7295  0.7935  0.0210
  553MOL0     H74628   0.778   7.317   5.053 -2.4775 -0.4203  0.6626
  553MOL0     H74629   0.559   7.357   4.943 -2.0373  2.0156  0.1246
  553MOL0     H74630   0.589   7.527   4.937  3.5529  0.9048 -0.3332
  553MOL0     H74631   0.567   7.380   5.203  1.3328  0.5062 -0.1043
  553MOL0     H74632   0.621   7.550   5.177 -0.9991  3.1496 -2.0879
  553MOL0     H74633   0.350   7.434   5.076 -2.8317  2.2797 -1.2689
  553MOL0     H74634   0.395   7.596   5.080 -0.1032  0.9061  0.1710
  553MOL0     H74635   0.435   7.583   5.328 -1.2243 -0.2014  1.2241
  553MOL0     H74636   0.365   7.414   5.332  0.6078  0.8667  1.3829
  553MOL0     H74637   1.234   7.721   5.390  0.2315  0.4424  0.6255
  553MOL0     H74638   1.436   7.616   5.506  1.4545 -0.2683  0.0699
  553MOL0     H74639   1.829   7.133   5.356 -1.7537  0.5009  0.8191
  553MOL0     H74640   2.070   7.101   5.385  0.1052 -0.1382 -0.7703
  553MOL0     H74641   3.114   5.890   5.887 -2.4605  2.1973  0.5295
  553MOL0     H74642   3.241   5.705   5.808  0.0510  0.6284  2.3923
  553MOL0     H74643   3.333   5.216   5.924 -0.6163  2.3729 -0.1140
  553MOL0     H74644   3.405   5.005   5.851 -0.1676 -0.2235  0.6258
  553MOL0     H74645   3.390   4.786   5.749  0.7680 -0.3779 -0.9014
  553MOL0     H74646   3.270   4.756   5.630 -1.0462  1.1884  0.7234
  553MOL0     H74647   3.487   4.696   5.482  1.6770 -3.0286  0.5037
  553MOL0     H74648   3.455   4.589   5.603 -0.4254 -0.3920 -0.4840
  553MOL0     H74649   3.617   4.750   5.747  1.6070 -0.1399  0.4966
  553MOL0     H74650   3.663   4.821   5.597  1.5879  0.4274  1.5705
  553MOL0     H74651   3.714   4.543   5.695 -3.7541  1.9531  0.3837
  553MOL0     H74652   3.832   4.671   5.661  0.8807  1.2143 -1.9336
  553MOL0     H74653   3.807   4.511   5.273  0.8909 -1.1017  0.8401
  553MOL0     H74654   3.235   5.086   5.453 -0.3030  2.7713 -1.0478
  553MOL0     H74655   3.155   5.302   5.553  0.6598 -0.0569  0.1848
  554MOL0     O74656   9.751   9.368   2.813 -0.7570 -0.1881 -0.3492
  554MOL0     C74657   9.799   9.471   2.867  0.3550 -0.3003  0.3269
  554MOL0     O74658   9.728   9.581   2.897  0.6152 -0.0649 -0.3394
  554MOL0     C74659   9.585   9.591   2.876  0.7041  0.5187  0.2408
  554MOL0     C74660   9.518   9.668   2.970 -0.9712  0.0295 -0.6256
  554MOL0     C74661   9.380   9.694   2.967  0.0100  0.3183  0.0250
  554MOL0     C74662   9.299   9.630   2.869 -0.4833 -0.3858 -0.9352
  554MOL0     O74663   9.166   9.655   2.858  0.1935 -0.1309  0.3470
  554MOL0     C74664   9.095   9.757   2.927  0.1629  0.3135 -0.3311
  554MOL0     C74665   8.945   9.727   2.927 -0.4011  1.0905  0.2875
  554MOL0     C74666   8.888   9.761   2.794  0.9527 -0.3336 -0.0932
  554MOL0     C74667   8.740   9.704   2.805 -0.9143  0.2099  0.4334
  554MOL0     C74668   8.647   9.746   2.693 -0.1181 -0.3004 -0.4742
  554MOL0     C74669   8.560   9.868   2.734 -0.0218 -0.9714 -0.1377
  554MOL0     C74670   8.467   9.898   2.614  0.1969  0.1395  0.0599
  554MOL0     C74671   8.524  10.004   2.518 -0.7610  0.9796 -0.5528
  554MOL0     N74672   8.443  10.035   2.394 -0.6379 -0.1839 -0.3230
  554MOL0     C74673   8.405   9.948   2.294  0.0722 -0.1879  0.1942
  554MOL0     C74674   8.324  10.021   2.219  0.2936  0.5634  0.3597
  554MOL0     C74675   8.241   9.968   2.110  0.5836  0.6874 -0.5875
  554MOL0     C74676   8.095  10.015   2.116  0.7918  0.2042 -0.0549
  554MOL0     C74677   8.014   9.945   2.005  0.3708  0.0948 -0.2638
  554MOL0     C74678   7.865   9.976   2.020 -0.3192 -0.4174 -0.5870
  554MOL0     O74679   7.800   9.947   2.150  0.4511  0.9570 -0.0646
  554MOL0     C74680   7.667   9.931   2.145  0.4781 -0.7656 -0.1437
  554MOL0     C74681   7.582   9.989   2.047  0.7493 -0.9302  0.5148
  554MOL0     C74682   7.442   9.968   2.039  0.1525  0.0166 -0.4539
  554MOL0     C74683   7.364  10.036   1.924 -0.5620 -0.2926 -0.6559
  554MOL0     C74684   7.376   9.891   2.142 -0.4506 -0.2093  0.8471
  554MOL0     C74685   7.229   9.863   2.150  1.1717 -0.3763 -0.6191
  554MOL0     O74686   7.189   9.786   2.251 -0.4862 -0.2124  0.0963
  554MOL0     C74687   7.056   9.743   2.255  0.2309  0.5930 -0.3029
  554MOL0     C74688   6.963   9.839   2.298 -0.2648 -0.3495 -0.4704
  554MOL0     C74689   6.834   9.793   2.322  0.4776  0.0144 -0.0122
  554MOL0     C74690   6.784   9.663   2.297 -0.3291 -1.3275  0.2682
  554MOL0     O74691   6.654   9.623   2.319  0.5835 -0.2131  0.6769
  554MOL0     C74692   6.646   9.553   2.448 -0.3900  0.1156  0.9489
  554MOL0     C74693   6.533   9.454   2.439  0.1925  0.7978  1.1080
  554MOL0     C74694   6.581   9.320   2.373 -0.0217  0.6580 -0.3812
  554MOL0     C74695   6.567   9.325   2.218  0.6069 -0.3659  0.0855
  554MOL0     C74696   6.550   9.182   2.154  0.1319  0.1535  0.0083
  554MOL0     C74697   6.667   9.089   2.198  0.5291  0.2076  0.7100
  554MOL0     C74698   6.640   8.941   2.135 -0.5449 -0.0938  0.1535
  554MOL0     C74699   6.679   8.832   2.239 -0.9657  0.0415 -0.3951
  554MOL0    Cl74700   6.555   8.794   2.365  0.0584 -0.0648  0.3395
  554MOL0     C74701   6.885   9.574   2.254 -0.3367  0.1187  0.1446
  554MOL0     C74702   7.020   9.610   2.233  0.0852 -0.3674  0.1367
  554MOL0     O74703   7.153   9.916   2.072  0.4834 -0.3505 -0.4232
  554MOL0     C74704   7.458   9.840   2.240  0.1074 -0.6166 -0.0719
  554MOL0     C74705   7.600   9.860   2.248 -0.1472  0.0597  0.2011
  554MOL0     N74706   8.315  10.148   2.269  0.0768 -0.5933 -0.1583
  554MOL0     N74707   8.392  10.158   2.367 -0.2619  0.6825  0.2822
  554MOL0     C74708   9.361   9.541   2.784 -0.6001 -0.1749  0.2469
  554MOL0     C74709   9.507   9.526   2.779 -0.2896 -0.6126  0.5512
  554MOL0     C74710   9.937   9.475   2.901 -0.5726 -0.0528  1.0587
  554MOL0     C74711   9.991   9.566   2.997 -0.5325 -1.2295  0.3444
  554MOL0     C74712  10.133   9.565   3.031  0.1538  0.1819 -0.3099
  554MOL0     C74713  10.224   9.477   2.960  0.3747 -0.3423  0.2557
  554MOL0     O74714  10.360   9.462   2.982  0.2598 -0.0929  0.7266
  554MOL0     C74715  10.422   9.539   3.094 -0.4357  0.1659  0.9704
  554MOL0     C74716  10.562   9.496   3.134 -0.2720 -0.0456  0.5845
  554MOL0     C74717  10.622   9.583   3.240 -1.2087 -0.6157  0.3266
  554MOL0     C74718  10.769   9.545   3.271  0.2690  0.8211 -0.6248
  554MOL0     C74719  10.777   9.405   3.312 -0.1775  0.0685  0.5664
  554MOL0     C74720  10.767   9.287   3.343 -0.0913  0.5539  0.0570
  554MOL0     C74721  10.170   9.387   2.869  0.1080  0.1269 -0.4370
  554MOL0     C74722  10.031   9.389   2.835  0.7521  0.3284 -0.2515
  554MOL0     H74723   9.570   9.713   3.053 -0.6764  1.2888 -1.4586
  554MOL0     H74724   9.338   9.765   3.038  0.0041 -1.2281  1.6251
  554MOL0     H74725   9.128   9.772   3.030  1.3764 -1.6543 -0.3852
  554MOL0     H74726   9.108   9.848   2.867 -0.9031 -0.1090 -1.2596
  554MOL0     H74727   8.940   9.619   2.945  1.8662  0.7749 -0.6298
  554MOL0     H74728   8.896   9.779   3.010 -0.8012  2.2880 -0.6689
  554MOL0     H74729   8.876   9.868   2.780  1.5398 -0.1049  1.0737
  554MOL0     H74730   8.938   9.706   2.714 -1.7039  0.3034 -2.3335
  554MOL0     H74731   8.747   9.595   2.797  0.7229  0.3167  0.0635
  554MOL0     H74732   8.696   9.734   2.901 -0.5350 -1.2270  1.0760
  554MOL0     H74733   8.696   9.763   2.596  1.6055  0.2021  0.4385
  554MOL0     H74734   8.581   9.660   2.680  0.1382 -0.6768  0.6074
  554MOL0     H74735   8.504   9.850   2.827  2.3308  0.3689  1.6560
  554MOL0     H74736   8.622   9.955   2.757  1.2982 -1.5053 -1.5229
  554MOL0     H74737   8.443   9.804   2.564  0.6180 -0.8955  1.7342
  554MOL0     H74738   8.371   9.931   2.655  1.7213  2.3673  2.1029
  554MOL0     H74739   8.619   9.968   2.477 -0.3198  1.1291  0.3264
  554MOL0     H74740   8.541  10.097   2.574 -1.7844  1.6330 -1.2878
  554MOL0     H74741   8.423   9.841   2.298  2.5048  0.1955  2.4325
  554MOL0     H74742   8.277  10.005   2.014  0.5770 -1.0003 -1.2756
  554MOL0     H74743   8.238   9.859   2.107 -2.8026  0.6994 -3.1268
  554MOL0     H74744   8.092  10.124   2.103 -1.0911  0.9466  4.5458
  554MOL0     H74745   8.057   9.994   2.217  0.3893 -1.5980 -0.5513
  554MOL0     H74746   8.021   9.837   2.023 -2.5857  0.2435  2.5496
  554MOL0     H74747   8.051   9.972   1.906  1.1657  3.2136  0.7773
  554MOL0     H74748   7.816   9.920   1.939 -2.5637 -0.0680  0.4664
  554MOL0     H74749   7.851  10.083   2.004  0.7080 -0.0759  0.6103
  554MOL0     H74750   7.622  10.048   1.965  1.4120  1.5491  2.5194
  554MOL0     H74751   7.281  10.088   1.972 -0.3113 -2.1189  1.9870
  554MOL0     H74752   7.424  10.108   1.868 -1.4953  1.8119  0.9149
  554MOL0     H74753   7.335   9.963   1.847 -0.4051 -0.7800 -0.2635
  554MOL0     H74754   6.996   9.942   2.307  2.9368 -1.4424  2.5716
  554MOL0     H74755   6.769   9.865   2.372 -1.2096 -1.3936 -0.0811
  554MOL0     H74756   6.740   9.501   2.472  0.5584  0.5650 -1.4765
  554MOL0     H74757   6.627   9.625   2.528  0.7101 -0.8524  2.1387
  554MOL0     H74758   6.505   9.431   2.543  0.7089 -1.7844  0.7499
  554MOL0     H74759   6.443   9.494   2.393  3.2534  4.4933 -2.3482
  554MOL0     H74760   6.516   9.243   2.416 -0.5876 -1.1472 -4.1242
  554MOL0     H74761   6.684   9.291   2.394 -0.0953  0.6853  0.0263
  554MOL0     H74762   6.482   9.386   2.185  2.2817  1.7678 -0.4944
  554MOL0     H74763   6.654   9.375   2.174 -0.7150 -0.9644 -3.5425
  554MOL0     H74764   6.537   9.187   2.046 -1.4999  0.9320  0.2036
  554MOL0     H74765   6.456   9.139   2.190 -0.4870  1.2462 -0.2577
  554MOL0     H74766   6.752   9.138   2.149  0.5311 -0.5807 -0.0903
  554MOL0     H74767   6.676   9.082   2.307 -3.6245  0.2040  1.1789
  554MOL0     H74768   6.694   8.931   2.041 -2.3513  0.7317 -1.0053
  554MOL0     H74769   6.535   8.923   2.111 -0.0838 -0.8920 -1.4104
  554MOL0     H74770   6.769   8.852   2.296 -0.8067 -3.1309  0.6272
  554MOL0     H74771   6.695   8.734   2.192 -2.1124 -0.7421  0.7611
  554MOL0     H74772   6.862   9.468   2.254  0.3330 -0.0402 -0.9379
  554MOL0     H74773   7.093   9.533   2.210 -0.9499 -1.1890 -0.5386
  554MOL0     H74774   7.408   9.780   2.315  0.3582  1.6146  1.9879
  554MOL0     H74775   7.654   9.796   2.317  0.2546 -1.5187 -1.5006
  554MOL0     H74776   9.298   9.488   2.714 -1.5000 -1.7051  2.0971
  554MOL0     H74777   9.553   9.467   2.701  0.0219 -1.2625  1.2127
  554MOL0     H74778   9.926   9.645   3.032 -0.3835 -0.3823 -1.2028
  554MOL0     H74779  10.186   9.629   3.100 -1.0882  0.3271  0.5308
  554MOL0     H74780  10.425   9.643   3.059 -1.7008 -0.3635 -0.8276
  554MOL0     H74781  10.355   9.525   3.179  1.0020  0.4530  2.2019
  554MOL0     H74782  10.617   9.492   3.040  1.2232 -2.7381  1.4749
  554MOL0     H74783  10.556   9.392   3.166  1.6918  0.0034  1.2620
  554MOL0     H74784  10.555   9.595   3.326 -0.7550 -1.5686  0.8215
  554MOL0     H74785  10.627   9.685   3.199  2.3787 -0.4314  0.8587
  554MOL0     H74786  10.817   9.609   3.346  2.2083 -0.6793 -0.5235
  554MOL0     H74787  10.825   9.570   3.180 -0.1838  0.7755 -0.9208
  554MOL0     H74788  10.766   9.187   3.382 -1.9506 -0.0195 -1.3067
  554MOL0     H74789  10.232   9.321   2.810  0.3293  1.1690 -1.4183
  554MOL0     H74790   9.987   9.322   2.761  0.6024 -0.4384  0.5108
  555MOL0     O74791   4.346   8.327   1.466  0.0010  0.5039 -0.1131
  555MOL0     C74792   4.360   8.447   1.443 -1.3690  0.6342 -0.2581
  555MOL0     O74793   4.275   8.549   1.470  0.2302 -0.0346 -0.2387
  555MOL0     C74794   4.157   8.528   1.535 -0.1880 -0.7082  0.0034
  555MOL0     C74795   4.129   8.424   1.625  0.5473  1.0124  0.0408
  555MOL0     C74796   4.006   8.403   1.682 -0.5918 -0.2234 -0.1003
  555MOL0     C74797   3.915   8.504   1.660  0.1716  0.0137  0.4370
  555MOL0     O74798   3.801   8.487   1.726  0.2440 -0.2537 -0.7409
  555MOL0     C74799   3.760   8.598   1.806 -0.3995  0.6621 -0.3410
  555MOL0     C74800   3.649   8.553   1.904 -0.1258 -0.3885 -0.0463
  555MOL0     C74801   3.513   8.549   1.829  0.1382 -0.2416  0.2044
  555MOL0     C74802   3.399   8.544   1.935  0.0392 -0.0031  0.4222
  555MOL0     C74803   3.264   8.511   1.877  0.3532 -0.3928  0.2926
  555MOL0     C74804   3.195   8.636   1.823 -0.9134  0.1282 -0.5133
  555MOL0     C74805   3.066   8.603   1.771  1.1378  0.0993  0.2390
  555MOL0     C74806   2.986   8.721   1.718  0.0035 -0.5462  0.0866
  555MOL0     N74807   2.855   8.672   1.654 -0.2843  0.0898 -0.5132
  555MOL0     C74808   2.761   8.760   1.608 -0.2339 -0.6715  0.9092
  555MOL0     C74809   2.659   8.687   1.578 -0.1004 -0.8835 -0.7303
  555MOL0     C74810   2.522   8.727   1.534 -0.6353  0.4607  0.1602
  555MOL0     C74811   2.417   8.621   1.539  0.0310  0.7319 -0.1885
  555MOL0     C74812   2.303   8.638   1.439 -0.5526  0.1348 -0.3185
  555MOL0     C74813   2.231   8.765   1.450  0.7630  0.0608  0.3177
  555MOL0     O74814   2.107   8.761   1.382  0.2648 -0.0806  0.0717
  555MOL0     C74815   1.990   8.726   1.437 -0.1100  1.4174  0.5336
  555MOL0     C74816   1.981   8.664   1.564  0.9212  1.0583 -0.5758
  555MOL0     C74817   1.847   8.625   1.607 -0.5698 -0.5338 -1.0009
  555MOL0     C74818   1.837   8.573   1.749  0.6977  0.4505 -0.2053
  555MOL0     C74819   1.732   8.637   1.524 -0.1621 -0.4402 -0.3860
  555MOL0     C74820   1.593   8.599   1.561  0.0873  0.5465 -0.0700
  555MOL0     O74821   1.501   8.616   1.459 -0.4374 -0.0572 -0.4669
  555MOL0     C74822   1.368   8.599   1.483 -0.2732  0.3864  0.1196
  555MOL0     C74823   1.296   8.633   1.593  0.6175  0.1370 -0.1109
  555MOL0     C74824   1.152   8.633   1.595 -1.1887 -0.4426  0.1560
  555MOL0     C74825   1.081   8.591   1.479  0.3229 -0.1152  0.6153
  555MOL0     O74826   0.942   8.602   1.491  0.6656 -0.0293 -0.0448
  555MOL0     C74827   0.865   8.542   1.380 -0.6235  0.2239  0.2821
  555MOL0     C74828   0.813   8.651   1.293  0.0310 -0.3810  0.3670
  555MOL0     C74829   0.765   8.776   1.368  0.4469  0.0467  0.1227
  555MOL0     C74830   0.643   8.735   1.456  0.1540 -0.1911  0.4027
  555MOL0     C74831   0.590   8.867   1.527 -0.2430 -0.1981  0.9120
  555MOL0     C74832   0.677   8.914   1.649  0.1101 -0.1910 -0.4705
  555MOL0     C74833   0.761   9.043   1.639 -0.3534  0.1527 -0.2149
  555MOL0     C74834   0.869   9.066   1.750  0.0782 -0.7894  0.2337
  555MOL0    Cl74835   0.789   9.101   1.904  0.2814  0.1906 -0.3779
  555MOL0     C74836   1.156   8.543   1.366  1.0806 -0.1402 -0.4976
  555MOL0     C74837   1.288   8.556   1.369 -0.0149 -0.6037 -0.0817
  555MOL0     O74838   1.573   8.546   1.674 -0.0936  0.2868  0.7581
  555MOL0     C74839   1.752   8.698   1.397 -0.2584  1.0088  0.5567
  555MOL0     C74840   1.882   8.741   1.351  0.0645  0.6972  0.1040
  555MOL0     N74841   2.705   8.552   1.580  0.1409 -0.1508  0.1585
  555MOL0     N74842   2.827   8.550   1.618 -0.0474  0.6291 -0.4963
  555MOL0     C74843   3.940   8.616   1.575 -0.6457  0.6908 -0.6460
  555MOL0     C74844   4.063   8.614   1.506  0.6617 -1.0158 -0.2499
  555MOL0     C74845   4.476   8.482   1.358 -0.3085 -0.7231  0.0716
  555MOL0     C74846   4.550   8.383   1.288  0.3776 -0.0375 -0.5586
  555MOL0     C74847   4.664   8.414   1.212  0.6088  0.2104 -0.4394
  555MOL0     C74848   4.718   8.545   1.218  0.4816  0.5470  0.5752
  555MOL0     O74849   4.841   8.562   1.159  0.3219 -0.4490 -0.2815
  555MOL0     C74850   4.941   8.642   1.226  0.2488 -0.4789  0.2420
  555MOL0     C74851   5.064   8.683   1.142 -0.9772 -0.3479 -0.1274
  555MOL0     C74852   5.020   8.785   1.035 -0.2879 -0.5905  0.2736
  555MOL0     C74853   5.144   8.837   0.951 -0.7435  0.5706 -0.3538
  555MOL0     C74854   5.214   8.726   0.882 -0.7098 -0.6334 -0.3629
  555MOL0     C74855   5.260   8.629   0.830 -0.2174  0.0113 -0.3379
  555MOL0     C74856   4.651   8.648   1.288  0.4177  0.2140 -0.0340
  555MOL0     C74857   4.534   8.618   1.365  0.9009 -0.1166  0.2537
  555MOL0     H74858   4.207   8.354   1.652 -0.1689 -0.4390 -1.5339
  555MOL0     H74859   3.986   8.325   1.754  0.0387  2.4045  3.1915
  555MOL0     H74860   3.847   8.620   1.868 -0.5039  0.4038 -0.1008
  555MOL0     H74861   3.734   8.687   1.747  3.6259  2.7589  0.7433
  555MOL0     H74862   3.673   8.462   1.959  1.4260 -0.3034 -0.5390
  555MOL0     H74863   3.640   8.626   1.985  0.2710 -0.6965  0.2820
  555MOL0     H74864   3.495   8.638   1.768 -0.4528  1.0115  2.1039
  555MOL0     H74865   3.518   8.455   1.773 -1.6758 -1.3673  1.7818
  555MOL0     H74866   3.415   8.470   2.014  0.8391  0.3641  0.6070
  555MOL0     H74867   3.391   8.633   1.997 -0.7317 -1.0232  1.8424
  555MOL0     H74868   3.258   8.438   1.795 -3.3834 -1.9941  1.7258
  555MOL0     H74869   3.198   8.480   1.959 -0.9304 -0.6261 -0.7956
  555MOL0     H74870   3.181   8.702   1.909  1.3807 -0.2407  0.2183
  555MOL0     H74871   3.254   8.685   1.744 -0.8092  0.8315 -0.0061
  555MOL0     H74872   3.066   8.528   1.691 -1.7802 -0.3791  0.5698
  555MOL0     H74873   3.004   8.561   1.851 -1.8089  0.8956 -1.4861
  555MOL0     H74874   3.035   8.769   1.633 -0.2427  0.2919  0.3982
  555MOL0     H74875   2.969   8.791   1.801  3.4429 -1.3332  1.6424
  555MOL0     H74876   2.752   8.867   1.619 -1.3471 -0.6723  0.2104
  555MOL0     H74877   2.493   8.809   1.601 -2.9215 -1.2865  1.4566
  555MOL0     H74878   2.526   8.768   1.433 -3.5584  2.0054  0.5576
  555MOL0     H74879   2.376   8.617   1.640  0.1591 -0.9639 -0.1814
  555MOL0     H74880   2.457   8.519   1.533  1.2580  1.2412 -1.0743
  555MOL0     H74881   2.231   8.556   1.451 -1.7926  1.2389  0.0250
  555MOL0     H74882   2.349   8.618   1.342 -1.8249 -0.5330 -0.8097
  555MOL0     H74883   2.285   8.850   1.409 -0.0123 -0.5668 -2.1814
  555MOL0     H74884   2.216   8.769   1.559 -2.6210 -4.4026  0.3266
  555MOL0     H74885   2.060   8.650   1.636  0.1578  1.0250  0.2809
  555MOL0     H74886   1.790   8.474   1.755  0.5235  0.4311 -1.6323
  555MOL0     H74887   1.939   8.542   1.771  2.0923  1.8905 -3.9766
  555MOL0     H74888   1.792   8.647   1.816  1.8648 -0.0271  1.1461
  555MOL0     H74889   1.341   8.683   1.678 -1.7260 -0.5694  1.6655
  555MOL0     H74890   1.108   8.692   1.674  0.8809  3.1777 -1.1317
  555MOL0     H74891   0.919   8.458   1.336 -1.2551 -1.0996  1.9188
  555MOL0     H74892   0.773   8.503   1.424  0.1477  1.8844  3.6345
  555MOL0     H74893   0.894   8.686   1.228 -0.2961 -0.3044 -0.0070
  555MOL0     H74894   0.730   8.617   1.230 -1.3983  0.8298  1.5439
  555MOL0     H74895   0.734   8.846   1.290  3.0517  0.2360 -0.8378
  555MOL0     H74896   0.840   8.822   1.434 -2.0014  1.7875  1.8631
  555MOL0     H74897   0.567   8.690   1.392  0.9863  2.1338 -2.3948
  555MOL0     H74898   0.675   8.672   1.540  1.7711  0.7078  0.5094
  555MOL0     H74899   0.493   8.860   1.576  1.0984 -0.4704  3.7919
  555MOL0     H74900   0.594   8.954   1.462  1.7118 -2.3648 -2.1137
  555MOL0     H74901   0.601   8.933   1.726  0.9243 -0.2996  0.3731
  555MOL0     H74902   0.736   8.831   1.687  0.2092 -0.3392 -0.9420
  555MOL0     H74903   0.685   9.120   1.623 -0.8755 -0.3117 -0.0028
  555MOL0     H74904   0.823   9.024   1.551 -0.3517 -2.3772  0.2820
  555MOL0     H74905   0.922   9.157   1.721  0.3251 -1.6620 -2.3543
  555MOL0     H74906   0.937   8.980   1.750  0.8481 -0.4538 -4.5659
  555MOL0     H74907   1.122   8.506   1.270 -2.9932 -1.2136  1.1660
  555MOL0     H74908   1.335   8.509   1.283 -4.7882 -2.5424 -1.9439
  555MOL0     H74909   1.667   8.708   1.331 -0.4766  0.4056  0.7389
  555MOL0     H74910   1.897   8.798   1.260  1.9820 -1.8285 -1.2655
  555MOL0     H74911   3.866   8.692   1.554 -1.3371 -0.1028 -1.1533
  555MOL0     H74912   4.069   8.699   1.438 -2.5165  0.6893  1.4186
  555MOL0     H74913   4.510   8.283   1.298  1.5698 -0.4905 -0.1394
  555MOL0     H74914   4.699   8.329   1.156 -1.1632 -1.4463  0.8241
  555MOL0     H74915   4.903   8.737   1.263 -0.2892 -0.7094  0.2904
  555MOL0     H74916   4.972   8.585   1.315 -2.6091  0.7908  2.1785
  555MOL0     H74917   5.111   8.596   1.096 -0.4827 -1.5703  2.4860
  555MOL0     H74918   5.143   8.729   1.203 -0.1988  0.0312 -1.3936
  555MOL0     H74919   4.970   8.873   1.076  4.2546  2.4570  0.0410
  555MOL0     H74920   4.952   8.734   0.967 -0.7733  0.7312 -0.2540
  555MOL0     H74921   5.215   8.896   1.009 -0.2610  0.3423 -0.6994
  555MOL0     H74922   5.113   8.905   0.872  0.5529  2.3399  0.5924
  555MOL0     H74923   5.298   8.542   0.780 -0.7774  0.8399 -2.3076
  555MOL0     H74924   4.684   8.751   1.301 -0.6686  0.3963  1.5696
  555MOL0     H74925   4.500   8.704   1.422  3.4967  0.5351  0.9526
  556MOL0     O74926   3.710   1.515   6.269  0.3654  0.4246 -0.1371
  556MOL0     C74927   3.768   1.483   6.369 -0.1451 -0.3441 -0.6361
  556MOL0     O74928   3.711   1.447   6.496  0.4710  0.2936 -0.4448
  556MOL0     C74929   3.575   1.420   6.506 -0.8100 -0.4740 -0.0196
  556MOL0     C74930   3.516   1.465   6.631  0.7708 -0.2653  0.8620
  556MOL0     C74931   3.383   1.445   6.652  1.1552  0.6657  0.2879
  556MOL0     C74932   3.307   1.374   6.554 -0.2370  0.0094  0.8766
  556MOL0     O74933   3.174   1.359   6.583 -0.4351 -0.1813  0.7922
  556MOL0     C74934   3.084   1.331   6.473  0.0399  0.0128 -0.1202
  556MOL0     C74935   2.937   1.338   6.536 -1.0999 -1.0721  0.6932
  556MOL0     C74936   2.853   1.213   6.579 -0.5630 -0.3508  0.7363
  556MOL0     C74937   2.722   1.239   6.651 -0.2169  0.0804  0.0095
  556MOL0     C74938   2.623   1.127   6.637  0.0100  0.0867  0.5671
  556MOL0     C74939   2.485   1.174   6.694 -0.7475  0.5277 -0.0196
  556MOL0     C74940   2.377   1.069   6.713  0.5109 -0.1780 -0.2178
  556MOL0     C74941   2.264   1.108   6.810  0.3701 -0.0405 -0.0472
  556MOL0     N74942   2.161   1.003   6.811 -0.2545  0.1798  0.3201
  556MOL0     C74943   2.152   0.893   6.897 -0.4315 -0.3172 -0.0920
  556MOL0     C74944   2.034   0.830   6.870  0.4287 -0.9093  0.9827
  556MOL0     C74945   1.984   0.710   6.943  0.5867 -0.0159  0.5060
  556MOL0     C74946   1.965   0.721   7.092 -0.4128 -0.7412  0.0838
  556MOL0     C74947   1.869   0.844   7.129 -0.1840  0.6180  0.7732
  556MOL0     C74948   1.726   0.799   7.112 -0.5977  0.4615  0.2136
  556MOL0     O74949   1.648   0.892   7.182  0.1982 -0.7929  0.0875
  556MOL0     C74950   1.514   0.904   7.132 -0.2010 -0.4752  0.0492
  556MOL0     C74951   1.441   1.006   7.184  0.8260  0.4576  0.1499
  556MOL0     C74952   1.302   1.018   7.146 -0.1607  0.1107 -0.7377
  556MOL0     C74953   1.233   1.130   7.221  0.0225  0.1856 -0.0263
  556MOL0     C74954   1.243   0.925   7.061 -0.7496 -0.1646  0.3512
  556MOL0     C74955   1.103   0.938   7.013  0.3869  0.2849 -0.1842
  556MOL0     O74956   1.071   0.865   6.900 -0.5270  0.0633 -1.2605
  556MOL0     C74957   0.957   0.911   6.833 -0.3506 -0.3345 -0.8818
  556MOL0     C74958   0.827   0.865   6.855 -0.6176  0.6615  0.7820
  556MOL0     C74959   0.730   0.898   6.762 -0.2968 -0.8390 -0.3792
  556MOL0     C74960   0.760   0.970   6.644 -0.9118 -0.0975  0.5832
  556MOL0     O74961   0.667   0.978   6.552 -0.1955  0.2665  0.3141
  556MOL0     C74962   0.578   0.873   6.525  1.1956  0.5145  0.5293
  556MOL0     C74963   0.443   0.940   6.513 -0.4492  0.5828  0.0663
  556MOL0     C74964   0.331   0.839   6.474  0.3940  0.3682 -0.5039
  556MOL0     C74965   0.283   0.747   6.593  0.7077  0.6026 -0.8072
  556MOL0     C74966   0.202   0.632   6.536  0.5356  0.9618 -0.6320
  556MOL0     C74967   0.067   0.663   6.472 -0.2219 -1.0759  0.5377
  556MOL0     C74968  -0.020   0.543   6.435  0.0872  0.5019  0.4064
  556MOL0     C74969  -0.050   0.449   6.551  0.0004  0.2591 -0.0743
  556MOL0    Cl74970   0.088   0.335   6.580  0.4797  0.1488  0.3330
  556MOL0     C74971   0.896   1.016   6.625  0.0152  0.3552  0.6040
  556MOL0     C74972   0.994   0.984   6.719 -0.1718 -0.5064  0.5835
  556MOL0     O74973   1.028   1.018   7.071  0.1333  0.1857 -0.1234
  556MOL0     C74974   1.319   0.824   7.012 -0.6670 -0.4774  0.1072
  556MOL0     C74975   1.451   0.806   7.056  0.1490 -0.2773  0.4941
  556MOL0     N74976   1.970   0.909   6.779 -0.3117 -0.1150  0.2542
  556MOL0     N74977   2.045   1.004   6.737  0.1115 -0.0800  0.8584
  556MOL0     C74978   3.362   1.329   6.435  0.8264 -0.8674  0.0276
  556MOL0     C74979   3.498   1.353   6.411 -0.4693  0.1750 -0.4173
  556MOL0     C74980   3.905   1.470   6.347 -0.1462  1.5763  0.4019
  556MOL0     C74981   3.990   1.474   6.458 -0.0751 -0.2334 -0.2197
  556MOL0     C74982   4.124   1.437   6.442 -0.2860 -0.2524  0.0616
  556MOL0     C74983   4.179   1.400   6.315 -0.2898  0.1710  0.4767
  556MOL0     O74984   4.302   1.360   6.284  0.6723 -0.4132  0.2010
  556MOL0     C74985   4.408   1.378   6.381  0.2213  0.3357 -0.8134
  556MOL0     C74986   4.530   1.326   6.306  0.3100 -0.4667 -0.2123
  556MOL0     C74987   4.553   1.170   6.310  0.7674 -0.2507 -0.0485
  556MOL0     C74988   4.612   1.118   6.179  0.5063 -0.0274  0.0950
  556MOL0     C74989   4.744   1.171   6.151  0.9596  0.4396 -0.6637
  556MOL0     C74990   4.854   1.207   6.127 -1.1423  0.1411 -0.0120
  556MOL0     C74991   4.090   1.411   6.206  0.2970 -0.8746  0.7009
  556MOL0     C74992   3.960   1.446   6.224  0.4179  0.0291  0.0164
  556MOL0     H74993   3.568   1.519   6.709 -0.0882  4.2445 -1.3681
  556MOL0     H74994   3.333   1.479   6.742 -3.3729  2.4746 -2.5720
  556MOL0     H74995   3.095   1.408   6.396 -2.2665  0.9852  0.4260
  556MOL0     H74996   3.113   1.230   6.444  4.5536  0.7273  1.1094
  556MOL0     H74997   2.954   1.397   6.626 -1.3494 -2.4411  1.6685
  556MOL0     H74998   2.873   1.392   6.466 -1.8386 -1.5904  0.9551
  556MOL0     H74999   2.842   1.146   6.494  1.7956 -0.0415  0.1025
  556MOL0     H75000   2.911   1.152   6.649 -2.8810 -2.9813  0.5295
  556MOL0     H75001   2.731   1.264   6.757  1.5782  0.3307 -0.1743
  556MOL0     H75002   2.682   1.333   6.610 -0.6802 -0.1487 -0.0670
  556MOL0     H75003   2.611   1.091   6.534  2.4907 -0.3215  0.3540
  556MOL0     H75004   2.648   1.034   6.688  0.7556 -0.1893 -0.2737
  556MOL0     H75005   2.511   1.217   6.791  0.1569 -0.0130 -0.0104
  556MOL0     H75006   2.457   1.261   6.634  1.3331  2.3524  1.5042
  556MOL0     H75007   2.336   1.043   6.615  2.3150 -0.2456 -0.9912
  556MOL0     H75008   2.432   0.983   6.752  3.5138  1.9946  0.7021
  556MOL0     H75009   2.213   1.200   6.779 -1.7524 -1.9948 -2.9385
  556MOL0     H75010   2.302   1.119   6.911 -0.9325 -0.5346  0.5227
  556MOL0     H75011   2.227   0.861   6.969  1.1634  1.6712 -0.7637
  556MOL0     H75012   1.889   0.675   6.901 -1.0465  1.3305  2.8723
  556MOL0     H75013   2.053   0.632   6.910  1.7291  1.9885 -2.2876
  556MOL0     H75014   2.058   0.737   7.148 -2.0636  3.4439  2.1188
  556MOL0     H75015   1.920   0.625   7.117 -1.6070 -0.4953 -0.9957
  556MOL0     H75016   1.887   0.930   7.064 -2.2880 -1.5804 -3.0485
  556MOL0     H75017   1.893   0.869   7.233 -2.5551  0.6570  1.3576
  556MOL0     H75018   1.701   0.698   7.147  1.9113 -0.3033  0.0168
  556MOL0     H75019   1.711   0.802   7.003 -3.2906  2.2216  0.5681
  556MOL0     H75020   1.493   1.077   7.247  0.9629 -1.1121  1.8940
  556MOL0     H75021   1.189   1.201   7.151  0.2246 -0.4108 -0.7717
  556MOL0     H75022   1.153   1.096   7.288 -0.0718  0.8910  0.2209
  556MOL0     H75023   1.306   1.186   7.279 -1.4194  1.3630  0.7238
  556MOL0     H75024   0.797   0.804   6.939 -1.1406 -0.5808 -0.2683
  556MOL0     H75025   0.627   0.877   6.788  0.3825 -1.6091  1.9593
  556MOL0     H75026   0.609   0.833   6.428  2.1832  0.6863  0.7681
  556MOL0     H75027   0.571   0.786   6.590 -0.9562 -1.8038 -2.5171
  556MOL0     H75028   0.416   0.982   6.611 -1.0737 -0.9056  0.5656
  556MOL0     H75029   0.441   1.016   6.435 -0.2045 -0.2492 -0.7747
  556MOL0     H75030   0.366   0.773   6.394 -2.3862  0.6860 -2.1204
  556MOL0     H75031   0.249   0.890   6.422 -0.0502  0.3983  0.2174
  556MOL0     H75032   0.363   0.706   6.655  1.6508  0.2120 -2.2452
  556MOL0     H75033   0.218   0.803   6.661 -1.8664 -0.0003 -2.6009
  556MOL0     H75034   0.192   0.561   6.618  3.5370 -0.2155 -1.1606
  556MOL0     H75035   0.263   0.582   6.460 -0.5563  1.0200 -1.5813
  556MOL0     H75036   0.008   0.722   6.543 -1.6493  0.1259 -1.5152
  556MOL0     H75037   0.084   0.737   6.393 -1.0919  1.3910  2.5296
  556MOL0     H75038   0.027   0.478   6.360 -1.6659  0.7957 -1.0222
  556MOL0     H75039  -0.116   0.579   6.396 -0.1188  0.4336  0.8409
  556MOL0     H75040  -0.138   0.388   6.532 -0.3984  0.6683  0.3958
  556MOL0     H75041  -0.074   0.513   6.637  0.3970 -0.1678  0.3640
  556MOL0     H75042   0.931   1.062   6.533  1.7496  0.1651  1.1184
  556MOL0     H75043   1.094   1.024   6.708 -1.4689  3.3084  1.4262
  556MOL0     H75044   1.267   0.745   6.958 -2.8986  1.6079 -1.0210
  556MOL0     H75045   1.504   0.718   7.021 -0.8128 -0.0017 -1.8208
  556MOL0     H75046   3.299   1.296   6.353  0.8050  1.2709 -0.8985
  556MOL0     H75047   3.558   1.326   6.325  0.8463  0.0800  0.5084
  556MOL0     H75048   3.942   1.492   6.554 -2.7527  0.5313 -1.5899
  556MOL0     H75049   4.187   1.420   6.530 -0.0705  1.5015  0.2789
  556MOL0     H75050   4.418   1.485   6.398 -0.8701  0.4671 -0.9297
  556MOL0     H75051   4.392   1.315   6.469  0.2347 -2.0135 -2.3879
  556MOL0     H75052   4.615   1.363   6.364  1.5512 -0.9135 -1.6879
  556MOL0     H75053   4.528   1.367   6.204 -1.5728  1.6019  0.5767
  556MOL0     H75054   4.469   1.115   6.352 -1.0297  0.5891 -2.3336
  556MOL0     H75055   4.629   1.149   6.386  2.4737 -2.8967 -2.2782
  556MOL0     H75056   4.545   1.148   6.097  2.3444 -1.5582 -2.0726
  556MOL0     H75057   4.612   1.009   6.185  1.9390  0.0157  1.3943
  556MOL0     H75058   4.943   1.255   6.094 -2.6000  2.3761 -0.9001
  556MOL0     H75059   4.119   1.399   6.102 -0.9368 -3.8673  0.6029
  556MOL0     H75060   3.898   1.447   6.135  2.1759 -0.2108 -1.2605
  557MOL0     O75061   3.188   6.368   0.270 -0.5245  0.7116 -0.2794
  557MOL0     C75062   3.237   6.283   0.344 -0.5741 -0.9387 -0.5601
  557MOL0     O75063   3.164   6.184   0.407 -0.1953  0.3125  0.3776
  557MOL0     C75064   3.028   6.176   0.415 -1.1140 -0.0059  0.7581
  557MOL0     C75065   2.949   6.298   0.423  0.2056  0.6215  0.2116
  557MOL0     C75066   2.815   6.275   0.413  0.1446 -0.5674  0.2887
  557MOL0     C75067   2.757   6.152   0.424 -0.5235 -0.1980  0.1812
  557MOL0     O75068   2.629   6.129   0.452 -0.1615  0.0027  0.0178
  557MOL0     C75069   2.526   6.200   0.376 -0.8689 -0.1945 -0.0957
  557MOL0     C75070   2.393   6.139   0.415 -0.1986 -0.3331 -0.3793
  557MOL0     C75071   2.266   6.203   0.367 -0.4013  0.0560 -0.5471
  557MOL0     C75072   2.140   6.143   0.434  0.1269  0.4656  0.1749
  557MOL0     C75073   2.001   6.193   0.385  0.2660  0.6347  0.2444
  557MOL0     C75074   1.987   6.340   0.411  0.4240 -1.1125 -0.2433
  557MOL0     C75075   1.846   6.401   0.367 -0.0143  0.2609 -0.3670
  557MOL0     C75076   1.856   6.548   0.382 -0.8521 -0.0696 -0.7928
  557MOL0     N75077   1.726   6.613   0.356  0.1205  0.1883 -0.2639
  557MOL0     C75078   1.628   6.663   0.442 -0.4754  0.6463  0.1219
  557MOL0     C75079   1.542   6.739   0.377  0.2729 -0.4700  0.2441
  557MOL0     C75080   1.430   6.814   0.438 -0.3534 -1.0207  0.0232
  557MOL0     C75081   1.300   6.742   0.440 -0.4973 -0.5857  0.4763
  557MOL0     C75082   1.259   6.732   0.297  0.5563  0.5541  0.8359
  557MOL0     C75083   1.112   6.714   0.281 -0.4313 -0.6708 -0.2513
  557MOL0     O75084   1.051   6.844   0.316  1.0711  0.0581 -0.4350
  557MOL0     C75085   0.913   6.851   0.296 -0.5838  0.2627  0.7733
  557MOL0     C75086   0.865   6.979   0.315 -0.2365  0.3516  0.3954
  557MOL0     C75087   0.733   7.010   0.291  1.0022 -0.5381 -0.2780
  557MOL0     C75088   0.695   7.148   0.329  0.5573  1.5995  1.1129
  557MOL0     C75089   0.645   6.918   0.233  0.5243  0.0616 -0.1662
  557MOL0     C75090   0.499   6.935   0.194 -0.2585 -0.3057  0.4118
  557MOL0     O75091   0.412   6.833   0.176  0.4527  0.0229  0.4727
  557MOL0     C75092   0.280   6.876   0.158 -0.6933  0.2709  0.8975
  557MOL0     C75093   0.216   6.924   0.034 -0.7145  0.8752  0.0955
  557MOL0     C75094   0.084   6.971   0.031 -1.2844  0.1748 -0.1574
  557MOL0     C75095   0.009   6.963   0.150  0.0540 -0.4067  0.7895
  557MOL0     O75096  -0.124   6.998   0.123  0.4815 -0.1498 -0.5000
  557MOL0     C75097  -0.204   7.047   0.232  0.3584  0.0619  0.6056
  557MOL0     C75098  -0.349   7.073   0.179  0.8290 -0.1372 -0.0489
  557MOL0     C75099  -0.351   7.167   0.061  0.1591  0.1758 -0.2964
  557MOL0     C75100  -0.486   7.215   0.028 -0.1158 -1.2506 -0.0120
  557MOL0     C75101  -0.488   7.299  -0.102  0.3570 -0.3598  0.6270
  557MOL0     C75102  -0.626   7.351  -0.131 -0.5326 -0.4768 -0.2953
  557MOL0     C75103  -0.613   7.450  -0.254  0.3533  0.7070  0.1230
  557MOL0     C75104  -0.757   7.489  -0.296  0.0000 -0.1908  0.6734
  557MOL0    Cl75105  -0.828   7.349  -0.383  0.5619 -0.7990 -0.2987
  557MOL0     C75106   0.070   6.927   0.274  0.1341  0.0554 -0.5046
  557MOL0     C75107   0.205   6.881   0.272 -0.2329  0.1755 -0.2494
  557MOL0     O75108   0.480   7.048   0.158 -0.4998  0.5459  0.1449
  557MOL0     C75109   0.689   6.788   0.207 -0.9757  0.0537 -1.0528
  557MOL0     C75110   0.822   6.753   0.240  0.2764 -0.2834 -0.3481
  557MOL0     N75111   1.580   6.734   0.244 -0.2261  0.0861 -0.0229
  557MOL0     N75112   1.692   6.668   0.234  0.2107  0.0082 -0.4218
  557MOL0     C75113   2.836   6.037   0.403  0.3889 -0.3988 -0.5690
  557MOL0     C75114   2.972   6.050   0.396  0.6606  0.0394 -0.1243
  557MOL0     C75115   3.384   6.298   0.376 -0.4879 -1.0605  0.0563
  557MOL0     C75116   3.449   6.192   0.434 -0.1238  0.4665  0.4161
  557MOL0     C75117   3.589   6.201   0.451  1.1993  0.9589 -0.0026
  557MOL0     C75118   3.657   6.317   0.417 -0.7184  0.0053 -0.9149
  557MOL0     O75119   3.795   6.332   0.441  0.0074  0.2091 -0.0412
  557MOL0     C75120   3.820   6.335   0.584 -1.1688  0.2510 -0.2009
  557MOL0     C75121   3.972   6.296   0.603  0.7881  0.2446  0.1197
  557MOL0     C75122   4.004   6.140   0.619  0.2280 -0.7451  0.4766
  557MOL0     C75123   3.954   6.040   0.504 -0.3530 -0.9312 -0.1827
  557MOL0     C75124   4.025   6.070   0.381 -0.6040 -0.5693  0.8430
  557MOL0     C75125   4.091   6.118   0.291  0.5570 -0.5959 -0.3269
  557MOL0     C75126   3.588   6.424   0.363 -0.1581  0.0235  0.1120
  557MOL0     C75127   3.457   6.416   0.343 -0.3942 -0.3678 -0.8043
  557MOL0     H75128   3.000   6.393   0.429 -0.8961  1.2826 -0.5209
  557MOL0     H75129   2.747   6.360   0.419 -0.2184 -0.7755 -0.7590
  557MOL0     H75130   2.532   6.307   0.397 -0.5804 -0.2600  0.1647
  557MOL0     H75131   2.538   6.193   0.267 -0.8447 -0.4076 -0.0796
  557MOL0     H75132   2.392   6.034   0.387  0.5409 -0.3802 -0.2588
  557MOL0     H75133   2.368   6.134   0.521 -3.8704  1.0584 -1.0203
  557MOL0     H75134   2.269   6.312   0.376  1.1392  0.1118 -1.4198
  557MOL0     H75135   2.263   6.186   0.259 -0.4434  0.0273 -0.5416
  557MOL0     H75136   2.143   6.036   0.415 -0.0744  0.2979  1.0799
  557MOL0     H75137   2.139   6.158   0.542 -3.2311  0.9804  0.1767
  557MOL0     H75138   1.987   6.168   0.279 -1.6065  1.4946  0.2388
  557MOL0     H75139   1.923   6.136   0.437 -0.3028 -0.6050 -1.8239
  557MOL0     H75140   1.996   6.372   0.515 -4.3270 -1.5267  0.5021
  557MOL0     H75141   2.064   6.390   0.351 -0.1211  0.3924  0.2653
  557MOL0     H75142   1.816   6.371   0.266 -1.3913  1.2269 -0.2665
  557MOL0     H75143   1.771   6.369   0.440  1.3414 -2.0045  0.1507
  557MOL0     H75144   1.929   6.584   0.308  0.1952 -0.4662  0.0288
  557MOL0     H75145   1.899   6.560   0.482 -0.2322 -3.6252 -0.5065
  557MOL0     H75146   1.619   6.644   0.549 -1.3623 -0.1877 -0.0801
  557MOL0     H75147   1.455   6.837   0.542 -0.2779  0.9109 -0.3879
  557MOL0     H75148   1.425   6.914   0.393  0.6600 -0.7523  0.4888
  557MOL0     H75149   1.232   6.792   0.510  1.7742  1.4029  1.3885
  557MOL0     H75150   1.316   6.636   0.462  1.1517 -0.5782 -0.5374
  557MOL0     H75151   1.303   6.641   0.255  0.7727  0.3343  1.5351
  557MOL0     H75152   1.289   6.819   0.238  1.8267 -0.5926 -0.2883
  557MOL0     H75153   1.075   6.630   0.340  0.6963 -0.6309  0.5319
  557MOL0     H75154   1.092   6.696   0.175  1.7926  0.6846 -0.9726
  557MOL0     H75155   0.930   7.052   0.362 -1.3656  0.6339  1.5852
  557MOL0     H75156   0.594   7.160   0.368 -0.5108  1.0342 -1.3319
  557MOL0     H75157   0.756   7.189   0.410  2.6392  1.7197 -0.4472
  557MOL0     H75158   0.705   7.214   0.243 -2.2227 -0.1888 -0.7733
  557MOL0     H75159   0.274   6.915  -0.058  1.2759 -2.3689  1.4808
  557MOL0     H75160   0.042   6.998  -0.066 -2.4076  0.0676  0.2834
  557MOL0     H75161  -0.213   6.967   0.306 -0.7164  0.1036  0.5277
  557MOL0     H75162  -0.169   7.138   0.280 -2.4889  0.0719  2.8847
  557MOL0     H75163  -0.395   6.978   0.150 -0.4934  0.1751  0.9726
  557MOL0     H75164  -0.408   7.115   0.261  0.4588 -0.7000 -0.0243
  557MOL0     H75165  -0.302   7.124  -0.027  1.6172  1.1453  0.0139
  557MOL0     H75166  -0.293   7.251   0.098 -1.3754  0.4418  1.6761
  557MOL0     H75167  -0.552   7.128   0.023 -2.8339  0.6320  1.4072
  557MOL0     H75168  -0.526   7.259   0.119 -0.0558  0.9559 -0.9924
  557MOL0     H75169  -0.453   7.236  -0.184 -1.0399 -0.2799 -0.0700
  557MOL0     H75170  -0.425   7.387  -0.090 -0.5870  0.4713 -0.2344
  557MOL0     H75171  -0.696   7.270  -0.152 -0.3192 -1.9461  3.8540
  557MOL0     H75172  -0.657   7.417  -0.050  3.1533 -1.2936  2.0435
  557MOL0     H75173  -0.561   7.398  -0.334  1.4357 -1.4204  2.0776
  557MOL0     H75174  -0.565   7.545  -0.227  1.4944  0.3246 -0.5064
  557MOL0     H75175  -0.745   7.566  -0.373  1.3894 -2.1111 -1.1458
  557MOL0     H75176  -0.823   7.525  -0.217 -0.5856  0.8436 -0.2512
  557MOL0     H75177   0.005   6.923   0.361  0.7730 -2.6800 -0.0772
  557MOL0     H75178   0.239   6.850   0.370 -2.2813  1.3228  0.8826
  557MOL0     H75179   0.625   6.705   0.178 -0.4398 -0.3899 -0.9852
  557MOL0     H75180   0.849   6.652   0.212  0.9980  0.1809 -1.4050
  557MOL0     H75181   2.791   5.938   0.408  3.3981 -2.0641 -3.0990
  557MOL0     H75182   3.007   5.950   0.376 -1.5459 -0.8194  0.0483
  557MOL0     H75183   3.394   6.103   0.464  0.2669  0.8574  2.4453
  557MOL0     H75184   3.641   6.114   0.490 -0.4343 -0.2458 -0.3954
  557MOL0     H75185   3.807   6.425   0.645  2.2298 -0.1047  1.3005
  557MOL0     H75186   3.759   6.259   0.633 -1.0053  0.2829  0.0529
  557MOL0     H75187   4.012   6.356   0.685  1.0160  0.5178 -0.1916
  557MOL0     H75188   4.028   6.344   0.523 -0.4959  1.1799 -0.2566
  557MOL0     H75189   3.968   6.113   0.719  0.2013  0.4242  0.8035
  557MOL0     H75190   4.113   6.135   0.626  0.1883 -1.2479  0.7804
  557MOL0     H75191   3.847   6.063   0.494  0.3592  1.9768 -2.5699
  557MOL0     H75192   3.975   5.939   0.539 -1.5591 -1.5111 -1.0692
  557MOL0     H75193   4.167   6.169   0.235  0.8382 -1.8507 -1.1256
  557MOL0     H75194   3.636   6.516   0.332 -2.1043  1.0249 -0.0590
  557MOL0     H75195   3.401   6.484   0.279 -0.9367 -2.3097 -2.5138
  558MOL0     O75196  10.589   0.932  10.347 -0.6779 -0.5353  0.3417
  558MOL0     C75197  10.620   1.013  10.428 -0.3280 -0.1413  0.7260
  558MOL0     O75198  10.549   1.120  10.472 -0.4556  0.5404  0.4449
  558MOL0     C75199  10.431   1.156  10.403  0.3995  0.3419  0.0790
  558MOL0     C75200  10.360   1.095  10.303  0.0216  0.0760  0.1157
  558MOL0     C75201  10.240   1.151  10.256  0.3501  0.0148 -0.2354
  558MOL0     C75202  10.177   1.252  10.320 -0.2066 -0.4756  0.8564
  558MOL0     O75203  10.049   1.295  10.295 -0.9297 -0.1667 -0.2189
  558MOL0     C75204   9.956   1.195  10.256 -0.8381  0.8023 -0.3480
  558MOL0     C75205   9.825   1.265  10.223  0.9900 -0.3752  0.6433
  558MOL0     C75206   9.806   1.330  10.084 -0.7060  0.1757  0.0880
  558MOL0     C75207   9.879   1.457  10.079  0.0697 -0.0832 -0.1707
  558MOL0     C75208   9.826   1.565  10.166 -0.4188  0.7755  0.5553
  558MOL0     C75209   9.823   1.702  10.083 -0.3768  0.4191  0.0691
  558MOL0     C75210   9.732   1.716   9.966 -0.3726  0.2141 -0.9303
  558MOL0     C75211   9.580   1.708  10.009 -0.1006  0.6434 -0.1234
  558MOL0     N75212   9.499   1.774   9.903 -0.5142  0.2425 -0.6657
  558MOL0     C75213   9.473   1.908   9.895 -1.1676 -0.1608  0.4154
  558MOL0     C75214   9.360   1.908   9.823 -0.2977  0.0739 -1.0123
  558MOL0     C75215   9.279   2.023   9.779 -0.5157  0.2760 -0.4060
  558MOL0     C75216   9.132   2.003   9.830  0.4560  0.4319 -0.5417
  558MOL0     C75217   9.038   2.125   9.817 -0.3803 -0.1679 -0.0525
  558MOL0     C75218   9.019   2.184   9.671 -0.1466  0.1586 -0.1363
  558MOL0     O75219   8.948   2.099   9.589  0.1188 -0.2162  0.1429
  558MOL0     C75220   8.817   2.140   9.562 -0.0701  0.2484  1.0277
  558MOL0     C75221   8.752   2.064   9.467 -0.2927  0.2692  0.7799
  558MOL0     C75222   8.625   2.085   9.430  0.6229  0.3074 -0.6452
  558MOL0     C75223   8.578   1.997   9.316 -0.0652 -0.1387  0.1656
  558MOL0     C75224   8.544   2.191   9.494 -0.3326  0.5077 -1.0892
  558MOL0     C75225   8.404   2.228   9.469 -0.4225 -0.5001 -0.4928
  558MOL0     O75226   8.345   2.320   9.558  0.2018  0.4865  0.1848
  558MOL0     C75227   8.217   2.349   9.519  0.5758 -0.7357  0.2454
  558MOL0     C75228   8.109   2.282   9.567  0.7784 -0.2898  0.4138
  558MOL0     C75229   7.986   2.317   9.517 -0.2283  0.2818 -0.4316
  558MOL0     C75230   7.965   2.430   9.431  0.0053  0.2049  0.1082
  558MOL0     O75231   7.831   2.454   9.394  0.5346  0.1791  0.2603
  558MOL0     C75232   7.789   2.546   9.293 -1.1393  0.1720  0.4213
  558MOL0     C75233   7.640   2.553   9.280 -0.1167 -0.2080  0.4988
  558MOL0     C75234   7.579   2.409   9.267 -0.2464  0.5182 -0.4954
  558MOL0     C75235   7.436   2.413   9.223  0.7402  0.8482  0.8433
  558MOL0     C75236   7.378   2.290   9.162 -0.0104 -0.5803  0.2145
  558MOL0     C75237   7.249   2.326   9.093 -0.2850 -0.6428 -0.2325
  558MOL0     C75238   7.193   2.198   9.020  0.8207 -0.1149  0.6755
  558MOL0     C75239   7.129   2.096   9.112  0.5470 -0.1255 -0.2178
  558MOL0    Cl75240   6.977   2.137   9.174 -0.2742  0.2737  0.4220
  558MOL0     C75241   8.072   2.512   9.394 -0.6407  0.4555 -0.0363
  558MOL0     C75242   8.196   2.464   9.432  0.7393 -1.6987  0.5627
  558MOL0     O75243   8.348   2.183   9.373 -0.4030  0.1039  0.5287
  558MOL0     C75244   8.607   2.265   9.592 -0.7939 -0.7900  0.1408
  558MOL0     C75245   8.745   2.240   9.623 -0.4102 -0.7752  0.6000
  558MOL0     N75246   9.323   1.774   9.795  0.1773 -0.3676  0.0250
  558MOL0     N75247   9.410   1.693   9.828  0.0266 -0.3324 -0.4904
  558MOL0     C75248  10.245   1.319  10.421  0.2791  0.4859 -0.3154
  558MOL0     C75249  10.374   1.271  10.468 -0.3029  0.5690 -0.4405
  558MOL0     C75250  10.757   1.004  10.489 -0.4887  0.1315  0.3393
  558MOL0     C75251  10.790   1.085  10.598  0.0358 -0.4090 -0.1797
  558MOL0     C75252  10.912   1.081  10.667  1.1106  0.2520  0.1899
  558MOL0     C75253  11.013   0.994  10.623  0.3941  0.1041 -1.0037
  558MOL0     O75254  11.131   0.984  10.684 -0.6669 -1.1744  0.5475
  558MOL0     C75255  11.133   0.976  10.831 -0.5483 -0.5250  0.2207
  558MOL0     C75256  11.270   0.938  10.899 -0.1270 -0.2397  0.6395
  558MOL0     C75257  11.306   0.789  10.887  0.9364  0.6361 -0.0077
  558MOL0     C75258  11.354   0.758  10.749 -0.7553 -0.8620  0.4271
  558MOL0     C75259  11.391   0.614  10.737  0.0974  1.2772 -0.8311
  558MOL0     C75260  11.429   0.489  10.739  0.1781 -1.1336  0.0012
  558MOL0     C75261  10.993   0.912  10.516  0.2859 -0.6074  0.8095
  558MOL0     C75262  10.867   0.914  10.443  0.7721  0.4088 -0.2256
  558MOL0     H75263  10.399   1.010  10.249 -0.0735 -0.9504  1.5811
  558MOL0     H75264  10.187   1.104  10.174 -1.7307  0.4822  0.7939
  558MOL0     H75265   9.984   1.136  10.169  2.2683  0.1879  0.9507
  558MOL0     H75266   9.943   1.126  10.340  3.1997  0.3622  0.1206
  558MOL0     H75267   9.746   1.191  10.205  0.6647  0.1124  0.0409
  558MOL0     H75268   9.799   1.342  10.297 -1.7410  1.3931 -1.9105
  558MOL0     H75269   9.841   1.274   9.996  1.4728  2.7751 -0.8563
  558MOL0     H75270   9.703   1.363  10.072 -0.8724 -0.4992 -0.3886
  558MOL0     H75271   9.981   1.432  10.110  0.3750  2.6376  1.3472
  558MOL0     H75272   9.891   1.485   9.973  1.8938 -2.4139 -0.6629
  558MOL0     H75273   9.729   1.536  10.205  0.1868 -0.5125  1.1650
  558MOL0     H75274   9.895   1.574  10.251 -0.0904 -0.9148  0.5103
  558MOL0     H75275   9.796   1.777  10.158 -1.7324  0.8612 -0.8060
  558MOL0     H75276   9.925   1.726  10.052  0.6822 -2.6929  0.8123
  558MOL0     H75277   9.737   1.815   9.920 -0.4929  1.3870  1.4443
  558MOL0     H75278   9.762   1.642   9.892 -3.3482 -1.7426 -0.3599
  558MOL0     H75279   9.558   1.764  10.100 -1.1558  1.2735 -0.7467
  558MOL0     H75280   9.548   1.606  10.032  0.7398  0.4630  0.3068
  558MOL0     H75281   9.529   1.979   9.956 -0.0143  0.1564 -0.9551
  558MOL0     H75282   9.326   2.111   9.823 -0.0351  1.2525 -2.7063
  558MOL0     H75283   9.286   2.029   9.669 -0.2721 -2.4938 -0.6128
  558MOL0     H75284   9.147   1.976   9.935  0.2237  1.2608 -0.2840
  558MOL0     H75285   9.096   1.918   9.771  0.0761  0.3950 -0.2580
  558MOL0     H75286   9.073   2.202   9.886  1.0679 -2.0061  1.3708
  558MOL0     H75287   8.940   2.091   9.851 -0.1374 -2.2758 -1.2883
  558MOL0     H75288   9.121   2.200   9.634  0.2291  0.7739  1.0984
  558MOL0     H75289   8.980   2.286   9.678  1.4376  0.6902  4.7998
  558MOL0     H75290   8.808   1.983   9.419 -0.4527  1.0302 -0.7355
  558MOL0     H75291   8.624   1.898   9.323  0.4261  0.1725  1.6709
  558MOL0     H75292   8.469   1.992   9.320 -0.1514  1.6823  1.1060
  558MOL0     H75293   8.604   2.038   9.218 -0.4088 -1.0977 -0.3445
  558MOL0     H75294   8.123   2.199   9.636 -2.9791 -1.3625  0.1260
  558MOL0     H75295   7.898   2.262   9.549 -0.0783 -0.0979 -0.6607
  558MOL0     H75296   7.836   2.642   9.316  0.7345 -1.1268  2.5172
  558MOL0     H75297   7.832   2.506   9.201 -0.8989  1.1025  0.1183
  558MOL0     H75298   7.599   2.606   9.367 -0.5249  1.3237 -0.5943
  558MOL0     H75299   7.613   2.603   9.187 -1.7417 -1.4437  0.2616
  558MOL0     H75300   7.563   2.356   9.362  0.3380  0.2946 -0.5168
  558MOL0     H75301   7.633   2.341   9.201 -2.6414 -3.5185  1.2879
  558MOL0     H75302   7.380   2.453   9.308 -0.0339  0.2001  0.6439
  558MOL0     H75303   7.439   2.497   9.154  1.6268  0.9382  0.9804
  558MOL0     H75304   7.353   2.234   9.252 -0.1756  0.7322  1.0179
  558MOL0     H75305   7.446   2.238   9.094 -1.9962 -1.7557 -0.9493
  558MOL0     H75306   7.172   2.360   9.163  0.2419 -0.4256  0.2479
  558MOL0     H75307   7.278   2.396   9.014  0.2488 -1.0643 -0.4194
  558MOL0     H75308   7.272   2.154   8.959 -0.7399 -1.3489 -0.5488
  558MOL0     H75309   7.120   2.226   8.943 -1.2296  3.2249  3.5288
  558MOL0     H75310   7.199   2.066   9.191 -0.5621 -0.3149  0.7299
  558MOL0     H75311   7.124   1.999   9.062  0.2226 -0.4083  0.3503
  558MOL0     H75312   8.067   2.599   9.329 -1.1438 -0.7880 -1.7087
  558MOL0     H75313   8.282   2.516   9.390 -1.4029  1.8543  0.1406
  558MOL0     H75314   8.564   2.345   9.652  0.3258 -0.8931  1.1395
  558MOL0     H75315   8.784   2.292   9.710 -0.0843 -1.1363  0.6710
  558MOL0     H75316  10.195   1.401  10.472 -0.8679  0.9437 -2.0997
  558MOL0     H75317  10.425   1.328  10.545 -0.1296  1.3149 -1.0900
  558MOL0     H75318  10.717   1.157  10.631  0.8560  0.6844 -0.7053
  558MOL0     H75319  10.934   1.146  10.751 -0.1311  0.3212  0.4728
  558MOL0     H75320  11.104   1.074  10.868 -2.0298 -0.9104  0.1370
  558MOL0     H75321  11.059   0.902  10.862 -0.7035  0.3735  2.1044
  558MOL0     H75322  11.264   0.963  11.005  1.8573 -1.4901  1.0948
  558MOL0     H75323  11.354   0.994  10.857  2.1070 -3.8844 -0.2212
  558MOL0     H75324  11.220   0.729  10.919  1.4163  1.3230  2.8903
  558MOL0     H75325  11.388   0.766  10.956  1.0666  0.9651 -0.0559
  558MOL0     H75326  11.447   0.812  10.731 -0.6288 -1.2039  0.0260
  558MOL0     H75327  11.295   0.789  10.662  1.8028 -0.7106 -1.3722
  558MOL0     H75328  11.463   0.388  10.752  3.3105 -0.6952 -3.1189
  558MOL0     H75329  11.061   0.839  10.475  1.0779  0.9293 -0.7467
  558MOL0     H75330  10.854   0.862  10.349  0.8544 -1.1239  0.5883
  559MOL0     O75331   4.284   8.633   4.050 -0.5023 -0.6991  0.4994
  559MOL0     C75332   4.365   8.682   4.122  0.0092 -0.7611 -0.5878
  559MOL0     O75333   4.364   8.661   4.258  0.6161  0.1096 -1.0371
  559MOL0     C75334   4.246   8.606   4.303 -0.0273  1.5115  0.4005
  559MOL0     C75335   4.135   8.691   4.326 -0.4528  0.4876  0.2390
  559MOL0     C75336   4.021   8.640   4.376 -0.2839 -0.1150  0.3792
  559MOL0     C75337   4.008   8.507   4.409  0.5277 -0.2028  0.2109
  559MOL0     O75338   3.896   8.450   4.454 -0.5871  0.0128  1.0401
  559MOL0     C75339   3.770   8.502   4.427 -0.0516  0.1538 -0.3384
  559MOL0     C75340   3.660   8.422   4.481 -0.0653 -0.5395 -0.3769
  559MOL0     C75341   3.511   8.482   4.467  0.5769  0.5647 -0.7412
  559MOL0     C75342   3.478   8.473   4.314 -0.1789  0.4565  0.0461
  559MOL0     C75343   3.323   8.492   4.285 -0.1318  0.5220  0.8403
  559MOL0     C75344   3.235   8.384   4.353 -0.2604  0.1851 -0.1866
  559MOL0     C75345   3.095   8.385   4.290  0.0086 -0.2519 -0.2449
  559MOL0     C75346   3.006   8.271   4.338  0.3659 -0.4858  0.4429
  559MOL0     N75347   2.868   8.300   4.280 -0.3829  0.6602  0.7252
  559MOL0     C75348   2.782   8.397   4.309  0.7854 -1.0738 -0.8154
  559MOL0     C75349   2.679   8.372   4.222 -0.6324 -0.0615 -0.4657
  559MOL0     C75350   2.549   8.450   4.241  0.6810  0.6057  0.4202
  559MOL0     C75351   2.486   8.495   4.108 -0.2505 -0.3459  0.4762
  559MOL0     C75352   2.357   8.580   4.115  0.8582  0.0514  0.1309
  559MOL0     C75353   2.238   8.527   4.192 -0.8435  0.1394  0.1148
  559MOL0     O75354   2.122   8.601   4.164 -0.2229 -0.4844  0.0983
  559MOL0     C75355   2.001   8.554   4.212 -0.5970 -0.5120 -0.0422
  559MOL0     C75356   1.991   8.447   4.301  0.5325  0.5139 -0.4996
  559MOL0     C75357   1.862   8.394   4.334 -0.3243  0.2766  0.7521
  559MOL0     C75358   1.863   8.293   4.455 -0.0412  0.5211 -0.0717
  559MOL0     C75359   1.746   8.460   4.293  0.4729 -1.4361 -0.2992
  559MOL0     C75360   1.609   8.429   4.343  0.3072 -0.1021  0.5840
  559MOL0     O75361   1.515   8.525   4.321 -0.5403  0.1633  0.0234
  559MOL0     C75362   1.398   8.515   4.386  0.6881 -0.5170  0.6369
  559MOL0     C75363   1.390   8.521   4.525  0.5726 -0.4694  0.1853
  559MOL0     C75364   1.270   8.539   4.587 -0.4693  0.1989  0.0254
  559MOL0     C75365   1.147   8.527   4.520 -0.5426 -0.4037  0.2272
  559MOL0     O75366   1.039   8.530   4.602  0.0436 -0.1705 -0.3505
  559MOL0     C75367   0.907   8.493   4.544 -0.0841  0.5645 -0.3579
  559MOL0     C75368   0.813   8.459   4.661 -0.2024  0.2143  0.6487
  559MOL0     C75369   0.680   8.390   4.612 -0.6246 -0.2894 -1.3720
  559MOL0     C75370   0.588   8.352   4.731 -0.3562 -0.4627  0.0996
  559MOL0     C75371   0.451   8.286   4.684  0.3887 -1.4352  0.3320
  559MOL0     C75372   0.379   8.221   4.794  0.9746 -0.3119  0.1308
  559MOL0     C75373   0.324   8.310   4.913 -0.8593  0.8371  0.7727
  559MOL0     C75374   0.243   8.229   5.019 -0.2707 -0.1206  0.4527
  559MOL0    Cl75375   0.080   8.190   4.958 -0.1732 -0.3050 -0.3699
  559MOL0     C75376   1.156   8.526   4.382  0.5929  0.2454  0.0182
  559MOL0     C75377   1.281   8.520   4.315  0.6480  0.7119  0.2232
  559MOL0     O75378   1.577   8.323   4.395 -0.1472  0.4626  0.8083
  559MOL0     C75379   1.763   8.572   4.201  0.6061  0.2294 -0.7975
  559MOL0     C75380   1.887   8.615   4.168 -0.4808 -0.5398  0.6272
  559MOL0     N75381   2.715   8.281   4.128  0.9177 -1.2200 -0.8167
  559MOL0     N75382   2.834   8.245   4.156  0.1870  0.2801  0.5698
  559MOL0     C75383   4.120   8.422   4.388 -1.4778  0.2867 -0.4549
  559MOL0     C75384   4.236   8.474   4.338 -0.0602 -0.6642  0.2144
  559MOL0     C75385   4.466   8.770   4.064 -0.5396 -0.2706  0.6789
  559MOL0     C75386   4.520   8.744   3.933 -0.2063 -0.3265 -0.0586
  559MOL0     C75387   4.632   8.813   3.885 -0.6604  0.7047 -0.4881
  559MOL0     C75388   4.700   8.909   3.965  0.6803  0.0643 -0.1989
  559MOL0     O75389   4.810   8.986   3.919  0.3616 -0.6769  0.5643
  559MOL0     C75390   4.899   8.920   3.830  1.0178 -0.2515 -0.0529
  559MOL0     C75391   5.023   8.996   3.800 -0.9040 -0.4106 -0.0624
  559MOL0     C75392   5.121   8.998   3.917 -0.9502 -0.2148  0.0800
  559MOL0     C75393   5.237   9.088   3.891  0.1233 -0.0738  1.1223
  559MOL0     C75394   5.347   9.063   3.985 -0.4017  0.2529 -0.4868
  559MOL0     C75395   5.434   9.037   4.071 -0.8412  0.0948  0.2891
  559MOL0     C75396   4.652   8.930   4.095  0.5343 -0.0295  0.1112
  559MOL0     C75397   4.536   8.867   4.139  0.2561  0.4074  0.4290
  559MOL0     H75398   4.149   8.795   4.298  1.3002  0.0197 -0.8078
  559MOL0     H75399   3.939   8.710   4.380  0.7740  1.1075  2.1097
  559MOL0     H75400   3.778   8.592   4.488  1.8712 -0.5398  0.5193
  559MOL0     H75401   3.751   8.540   4.326  2.1014 -0.0480 -0.8626
  559MOL0     H75402   3.659   8.315   4.463  0.3555 -0.9358  1.6774
  559MOL0     H75403   3.686   8.416   4.587 -2.2998 -2.3362  0.1482
  559MOL0     H75404   3.441   8.422   4.526  2.2516 -1.8176 -1.0664
  559MOL0     H75405   3.506   8.588   4.497 -0.8436  1.0837 -2.6140
  559MOL0     H75406   3.528   8.554   4.260 -0.3711  1.9463  1.9756
  559MOL0     H75407   3.514   8.374   4.286 -2.6151 -2.3104  5.2585
  559MOL0     H75408   3.288   8.591   4.317  2.2012  1.9990 -0.8341
  559MOL0     H75409   3.306   8.488   4.177 -2.1529 -2.1054  1.1611
  559MOL0     H75410   3.277   8.284   4.338 -2.5545 -0.7925 -0.5090
  559MOL0     H75411   3.238   8.406   4.460 -0.8776  3.7868 -0.7904
  559MOL0     H75412   3.049   8.480   4.320  1.4324  0.7032 -0.9802
  559MOL0     H75413   3.105   8.384   4.181  0.2145 -1.4966 -0.2314
  559MOL0     H75414   2.981   8.274   4.445  0.5584  0.7574  0.4600
  559MOL0     H75415   3.053   8.179   4.301  0.0356  0.0807 -1.4670
  559MOL0     H75416   2.785   8.470   4.389 -3.0053 -1.7986  0.1874
  559MOL0     H75417   2.479   8.386   4.296  0.2432  1.5295  0.9514
  559MOL0     H75418   2.574   8.541   4.297  1.5175  0.3066  0.5485
  559MOL0     H75419   2.458   8.407   4.050 -2.3009 -1.7987  3.4254
  559MOL0     H75420   2.561   8.554   4.053 -1.1632  0.2466 -0.1655
  559MOL0     H75421   2.314   8.611   4.019 -2.4246  2.0901  2.1170
  559MOL0     H75422   2.376   8.675   4.164  0.1462  2.0359 -3.1130
  559MOL0     H75423   2.260   8.533   4.299  0.7353 -0.3271 -0.1587
  559MOL0     H75424   2.201   8.429   4.159 -1.5117  1.0235 -1.9603
  559MOL0     H75425   2.072   8.390   4.344 -3.3688 -2.6616  3.5738
  559MOL0     H75426   1.839   8.356   4.542  2.5344  3.0728 -1.0615
  559MOL0     H75427   1.793   8.211   4.437  0.0453  1.1837 -4.5485
  559MOL0     H75428   1.961   8.246   4.460 -0.9194 -1.9784 -3.1253
  559MOL0     H75429   1.480   8.539   4.584  0.6933  0.1368 -0.1679
  559MOL0     H75430   1.259   8.551   4.694  0.0229  0.7029  0.0212
  559MOL0     H75431   0.876   8.576   4.480 -4.4350 -1.6179 -1.4411
  559MOL0     H75432   0.911   8.417   4.465 -0.8680  0.6211 -0.4585
  559MOL0     H75433   0.864   8.386   4.724 -1.0477  0.9977  2.3153
  559MOL0     H75434   0.787   8.553   4.711 -1.5166  0.4652 -0.4446
  559MOL0     H75435   0.695   8.293   4.563  0.5011 -0.8091 -0.0456
  559MOL0     H75436   0.631   8.460   4.543 -0.6148 -1.0027 -2.1268
  559MOL0     H75437   0.652   8.282   4.786  0.6412  1.0936  1.0115
  559MOL0     H75438   0.562   8.446   4.781  0.6506  1.3872 -2.6057
  559MOL0     H75439   0.469   8.208   4.609  1.8605  0.2240 -1.1105
  559MOL0     H75440   0.393   8.366   4.637 -0.1253 -3.1634 -2.2297
  559MOL0     H75441   0.289   8.179   4.748  0.1819  0.8237  0.5941
  559MOL0     H75442   0.444   8.140   4.829 -1.9549 -2.7992  0.2912
  559MOL0     H75443   0.258   8.386   4.871  0.2494  1.0876 -0.6095
  559MOL0     H75444   0.413   8.355   4.960 -0.2462  2.5258 -1.7932
  559MOL0     H75445   0.233   8.276   5.118 -3.3729 -0.2397  0.3049
  559MOL0     H75446   0.303   8.138   5.033  2.0964  0.9785 -1.8384
  559MOL0     H75447   1.068   8.539   4.320 -1.0940  1.8831  2.5552
  559MOL0     H75448   1.296   8.530   4.208  1.3660 -2.0130 -0.0154
  559MOL0     H75449   1.678   8.613   4.148  0.0763  0.6211  0.3398
  559MOL0     H75450   1.905   8.694   4.096 -2.7254  1.1765  1.8019
  559MOL0     H75451   4.110   8.316   4.408  0.6851  0.3645  1.4957
  559MOL0     H75452   4.317   8.404   4.318  1.7537  1.7112 -1.4535
  559MOL0     H75453   4.470   8.668   3.874 -0.5712 -1.2475  1.3992
  559MOL0     H75454   4.673   8.806   3.784  1.0742  2.7041 -0.0083
  559MOL0     H75455   4.927   8.820   3.865  0.3904  0.1020  1.5640
  559MOL0     H75456   4.834   8.916   3.742  0.6033 -0.9205  0.2656
  559MOL0     H75457   4.999   9.098   3.767  1.1437  0.0381 -0.2880
  559MOL0     H75458   5.065   8.945   3.712  0.5930 -0.7782  0.8431
  559MOL0     H75459   5.154   8.895   3.936 -1.4894 -0.6610 -1.2440
  559MOL0     H75460   5.072   9.029   4.010  2.4632 -0.1295  1.9810
  559MOL0     H75461   5.200   9.191   3.894  0.3746  0.0188  1.0105
  559MOL0     H75462   5.282   9.073   3.793  1.2032  2.1332  1.2256
  559MOL0     H75463   5.517   9.027   4.138 -0.5104 -0.1987 -0.1563
  559MOL0     H75464   4.680   9.015   4.157 -2.4223  0.9371  0.3060
  559MOL0     H75465   4.491   8.881   4.236 -0.2677  0.9412  0.1115
  560MOL0     O75466  10.693   6.605   8.902  0.0177  0.2489 -0.4481
  560MOL0     C75467  10.697   6.726   8.918 -0.3185  0.1247 -0.0338
  560MOL0     O75468  10.605   6.817   8.863 -0.0292 -0.2987 -0.2277
  560MOL0     C75469  10.472   6.776   8.845  0.0021 -0.1772  1.0492
  560MOL0     C75470  10.402   6.714   8.950 -0.6771  0.2196 -0.4130
  560MOL0     C75471  10.263   6.703   8.945 -0.1667 -0.8860 -0.2966
  560MOL0     C75472  10.186   6.749   8.840 -0.6209 -0.0766 -0.4034
  560MOL0     O75473  10.049   6.748   8.845  0.3174  0.2657  0.3696
  560MOL0     C75474   9.986   6.734   8.973  1.2498  0.1041  0.0433
  560MOL0     C75475   9.832   6.731   8.953  1.0415 -0.9525  0.4885
  560MOL0     C75476   9.770   6.872   8.949  0.3359  0.2444  0.1256
  560MOL0     C75477   9.812   6.932   8.811 -0.0642  0.0400  0.0724
  560MOL0     C75478   9.715   7.057   8.795  0.7208  0.3384 -0.1634
  560MOL0     C75479   9.764   7.159   8.699  0.0425 -0.5466 -0.7034
  560MOL0     C75480   9.696   7.293   8.730  0.0617 -0.0682  0.1799
  560MOL0     C75481   9.772   7.415   8.692  0.4450  1.0732 -0.2155
  560MOL0     N75482   9.896   7.431   8.766 -0.3349 -0.1699 -0.2870
  560MOL0     C75483   9.915   7.404   8.897  0.1048 -0.2967 -0.5946
  560MOL0     C75484  10.043   7.421   8.918 -0.1411 -0.5712  0.6087
  560MOL0     C75485  10.112   7.411   9.064  0.2347  0.4435  0.4350
  560MOL0     C75486  10.077   7.276   9.131  0.7709 -0.1675 -1.3935
  560MOL0     C75487  10.122   7.156   9.045 -0.2511 -0.1968 -0.4384
  560MOL0     C75488  10.259   7.165   8.983  0.9665  0.0744  0.0056
  560MOL0     O75489  10.361   7.205   9.079  0.4165 -0.2327  0.4260
  560MOL0     C75490  10.495   7.216   9.030 -0.8847  0.0848  0.2103
  560MOL0     C75491  10.555   7.172   8.908  0.5088  0.1227 -0.4684
  560MOL0     C75492  10.673   7.229   8.862  0.1761 -0.0836  0.1389
  560MOL0     C75493  10.723   7.194   8.726 -0.5178  0.2938  0.0994
  560MOL0     C75494  10.750   7.314   8.943  0.0528  0.7536 -0.2462
  560MOL0     C75495  10.875   7.378   8.905 -0.1688 -0.5546  1.0746
  560MOL0     O75496  10.981   7.288   8.890 -0.5897 -0.1028  0.4861
  560MOL0     C75497  11.104   7.335   8.934 -0.3892  0.9257 -0.8565
  560MOL0     C75498  11.205   7.338   8.838 -0.0904 -0.6875 -0.2078
  560MOL0     C75499  11.327   7.399   8.873 -0.6768 -0.4997 -0.3265
  560MOL0     C75500  11.358   7.435   9.008 -0.1137 -0.0762  0.3472
  560MOL0     O75501  11.476   7.506   9.041  0.3048  0.5736  0.3196
  560MOL0     C75502  11.518   7.490   9.175  0.1052 -0.4729  0.2323
  560MOL0     C75503  11.670   7.523   9.187 -0.2462 -0.2266  0.1108
  560MOL0     C75504  11.768   7.454   9.095  0.2474 -0.2478  1.1514
  560MOL0     C75505  11.900   7.527   9.101 -0.1939  0.0248  0.6994
  560MOL0     C75506  12.006   7.448   9.025  0.1036 -0.2628 -0.6054
  560MOL0     C75507  12.135   7.528   9.025 -0.5524 -0.0095  0.3988
  560MOL0     C75508  12.270   7.448   8.999  0.3616  0.3507 -1.0333
  560MOL0     C75509  12.399   7.531   9.016  0.3602 -0.1399  0.1989
  560MOL0    Cl75510  12.427   7.665   8.891 -0.1393 -0.1694  0.3369
  560MOL0     C75511  11.260   7.411   9.109  0.8957 -1.1342  0.5835
  560MOL0     C75512  11.130   7.368   9.069  0.2979  0.3643  0.4508
  560MOL0     O75513  10.889   7.498   8.917  0.4920 -0.1709 -0.0036
  560MOL0     C75514  10.696   7.342   9.068 -0.2295 -1.1647 -0.5405
  560MOL0     C75515  10.575   7.294   9.115  0.3828 -0.3098  0.1108
  560MOL0     N75516  10.104   7.450   8.797 -0.1431  0.3328  0.5939
  560MOL0     N75517  10.016   7.451   8.707 -0.5424  0.6761 -0.4696
  560MOL0     C75518  10.258   6.809   8.728  0.3130 -0.2633 -0.6148
  560MOL0     C75519  10.398   6.817   8.736  0.1300 -0.7173 -0.1415
  560MOL0     C75520  10.824   6.790   8.959  0.3525  0.2466  0.0583
  560MOL0     C75521  10.946   6.715   8.964 -0.1422 -0.0616  1.0869
  560MOL0     C75522  11.064   6.775   9.007 -0.5826 -0.2891  0.5989
  560MOL0     C75523  11.066   6.911   9.040 -0.7433 -0.5174 -0.0007
  560MOL0     O75524  11.177   6.972   9.094  0.2094 -0.7560  0.4348
  560MOL0     C75525  11.311   6.940   9.045  0.8722  0.0063  1.1144
  560MOL0     C75526  11.390   7.070   9.029  0.4888 -0.1689  0.2462
  560MOL0     C75527  11.537   7.037   8.997  0.8440 -0.0069  0.6251
  560MOL0     C75528  11.607   7.165   8.973  0.1176  0.1627  0.4340
  560MOL0     C75529  11.749   7.158   8.935 -0.1131 -0.2253 -0.1254
  560MOL0     C75530  11.868   7.148   8.922  0.0776 -1.0077 -0.3598
  560MOL0     C75531  10.951   6.979   9.037  1.0061 -0.4914  0.6995
  560MOL0     C75532  10.829   6.927   8.992 -0.4984  0.7069 -0.2778
  560MOL0     H75533  10.460   6.674   9.033 -2.0210 -0.9045  0.0144
  560MOL0     H75534  10.211   6.648   9.023 -1.8975 -1.5302 -1.8158
  560MOL0     H75535  10.011   6.633   9.005 -0.1651 -0.6162 -0.9802
  560MOL0     H75536  10.023   6.807   9.046  1.3082 -0.1432  0.2604
  560MOL0     H75537   9.796   6.678   8.864 -1.1722  0.6394  0.3606
  560MOL0     H75538   9.784   6.686   9.040 -0.0169 -0.2356  0.2994
  560MOL0     H75539   9.661   6.862   8.949  0.2217  1.3299 -1.0034
  560MOL0     H75540   9.797   6.926   9.040  0.1539 -0.2741  0.4982
  560MOL0     H75541   9.920   6.948   8.806  0.4204 -2.6516  0.3531
  560MOL0     H75542   9.794   6.859   8.732 -1.1159  0.0183  0.3182
  560MOL0     H75543   9.616   7.028   8.760  1.2185 -1.4874 -0.1658
  560MOL0     H75544   9.711   7.113   8.889 -1.5588 -0.8912  0.5290
  560MOL0     H75545   9.873   7.160   8.693 -0.0227  0.8099 -2.4582
  560MOL0     H75546   9.741   7.128   8.597  4.7575  1.2045 -2.5670
  560MOL0     H75547   9.597   7.303   8.684  0.9550  1.2253 -1.5677
  560MOL0     H75548   9.673   7.296   8.837 -0.9394 -3.6485  0.2144
  560MOL0     H75549   9.719   7.509   8.708  2.9504  2.3956  0.9826
  560MOL0     H75550   9.796   7.398   8.587  2.2589  0.8598  0.1991
  560MOL0     H75551   9.840   7.385   8.973  0.5194 -1.3270 -0.4257
  560MOL0     H75552  10.222   7.407   9.060  0.2218  0.6108 -0.1758
  560MOL0     H75553  10.087   7.498   9.125  0.6002  0.7766  0.1171
  560MOL0     H75554   9.968   7.283   9.142  0.8946  1.2256 -0.7877
  560MOL0     H75555  10.123   7.268   9.230 -0.9282  0.7920 -0.4562
  560MOL0     H75556  10.048   7.157   8.964 -0.4656  0.0039 -0.2426
  560MOL0     H75557  10.123   7.068   9.111  1.8598 -0.5405 -0.8655
  560MOL0     H75558  10.247   7.231   8.896  1.9328 -0.0891 -0.2639
  560MOL0     H75559  10.283   7.063   8.950  2.3347 -0.0949  1.4505
  560MOL0     H75560  10.498   7.098   8.854 -0.6655  0.8074 -0.1904
  560MOL0     H75561  10.723   7.282   8.661 -0.6997 -0.1817 -0.5525
  560MOL0     H75562  10.825   7.154   8.725 -1.4121 -2.2870 -2.4968
  560MOL0     H75563  10.657   7.126   8.671 -3.3166  1.4843  1.7734
  560MOL0     H75564  11.194   7.308   8.735 -2.2761  1.0778 -0.5731
  560MOL0     H75565  11.397   7.403   8.790 -0.1981  1.1200  0.1025
  560MOL0     H75566  11.463   7.558   9.241  1.0395  2.1806 -1.5415
  560MOL0     H75567  11.505   7.385   9.205 -0.0217  0.5068  4.1095
  560MOL0     H75568  11.677   7.632   9.184  0.8402 -0.1369  2.8268
  560MOL0     H75569  11.694   7.505   9.292  0.0232  0.7474  0.2293
  560MOL0     H75570  11.722   7.457   8.996 -0.5919 -1.4129  1.4914
  560MOL0     H75571  11.762   7.351   9.132 -2.1120 -0.3512  0.6347
  560MOL0     H75572  11.891   7.627   9.057 -3.3601 -0.0057  1.0053
  560MOL0     H75573  11.927   7.541   9.206  1.6568  1.6701  0.0653
  560MOL0     H75574  11.976   7.416   8.925  1.7160 -1.1815 -0.8349
  560MOL0     H75575  12.026   7.358   9.084 -1.1933  1.4583  2.7081
  560MOL0     H75576  12.131   7.608   8.951  0.8630  1.3643  1.7347
  560MOL0     H75577  12.150   7.569   9.125 -1.0660 -1.6591  1.1777
  560MOL0     H75578  12.278   7.419   8.894  2.1259  3.2393 -1.7992
  560MOL0     H75579  12.262   7.356   9.058 -2.2922  1.1676  0.0285
  560MOL0     H75580  12.480   7.460   8.996 -0.3526 -1.5941  2.1294
  560MOL0     H75581  12.409   7.575   9.116 -0.2670 -1.7675  1.0111
  560MOL0     H75582  11.277   7.455   9.207  0.9010  1.5871 -0.5519
  560MOL0     H75583  11.047   7.363   9.139 -0.8410  0.6656 -0.8375
  560MOL0     H75584  10.758   7.399   9.137 -2.1323  1.3625 -0.8053
  560MOL0     H75585  10.544   7.317   9.217 -0.8927 -3.4426  0.5221
  560MOL0     H75586  10.197   6.840   8.643  0.1543  0.8348 -0.1114
  560MOL0     H75587  10.449   6.865   8.653  0.3137 -0.3926  0.1570
  560MOL0     H75588  10.945   6.610   8.940 -1.8128 -0.1105  1.2490
  560MOL0     H75589  11.151   6.710   9.011 -1.9656 -2.2869 -0.2711
  560MOL0     H75590  11.355   6.870   9.115 -0.4495 -2.3271 -0.2470
  560MOL0     H75591  11.291   6.879   8.956 -0.9839 -0.8965  2.0856
  560MOL0     H75592  11.394   7.115   9.129  1.9838 -3.2032  1.6596
  560MOL0     H75593  11.344   7.140   8.959  0.7312  0.9353  1.1459
  560MOL0     H75594  11.544   6.978   8.905 -2.9203 -1.8180  1.2848
  560MOL0     H75595  11.588   6.990   9.082  1.2656 -2.2134 -0.7433
  560MOL0     H75596  11.597   7.237   9.055  2.4245  0.7687  0.2688
  560MOL0     H75597  11.562   7.206   8.883  1.5280  0.5389 -0.1260
  560MOL0     H75598  11.971   7.124   8.902  0.0350 -1.4908 -0.0025
  560MOL0     H75599  10.963   7.077   9.081  1.3547 -0.7009  1.0878
  560MOL0     H75600  10.745   6.996   8.987  0.4779  1.8173 -2.3601
  561MOL0     O75601   0.978   0.169   4.771  0.6055 -0.4325  0.3552
  561MOL0     C75602   1.099   0.159   4.735 -0.2968  0.1236  0.3298
  561MOL0     O75603   1.157   0.242   4.646  0.2409 -0.6282 -0.3345
  561MOL0     C75604   1.077   0.331   4.588 -0.1784 -0.7774 -0.0089
  561MOL0     C75605   1.095   0.459   4.625 -0.0180  0.2198  0.3503
  561MOL0     C75606   1.013   0.564   4.563  0.5542  0.2220  0.4588
  561MOL0     C75607   0.909   0.531   4.473  0.2200 -0.1180  0.4696
  561MOL0     O75608   0.850   0.641   4.409  0.6198 -0.3261  0.5043
  561MOL0     C75609   0.763   0.613   4.296  0.3897  1.0476 -0.0757
  561MOL0     C75610   0.710   0.736   4.232  0.7155 -0.2859 -0.4625
  561MOL0     C75611   0.627   0.815   4.335  0.4563 -0.5830 -0.4989
  561MOL0     C75612   0.607   0.949   4.274  0.5323 -0.9178  0.5544
  561MOL0     C75613   0.487   1.042   4.326 -0.2026 -0.1635  0.1123
  561MOL0     C75614   0.498   1.073   4.475  0.3841  0.0499  0.1322
  561MOL0     C75615   0.379   1.163   4.512  0.4152  0.7282  0.1081
  561MOL0     C75616   0.246   1.079   4.517 -0.6849 -0.2796  0.8152
  561MOL0     N75617   0.133   1.173   4.538 -0.4339  0.8288 -0.6594
  561MOL0     C75618   0.076   1.200   4.663 -0.1122 -0.5415 -0.7079
  561MOL0     C75619  -0.019   1.285   4.635  0.7898 -1.4683 -0.5387
  561MOL0     C75620  -0.122   1.353   4.738  0.6002 -0.2514 -0.2837
  561MOL0     C75621  -0.221   1.452   4.673 -0.1864 -0.0241  0.2521
  561MOL0     C75622  -0.290   1.531   4.792 -0.2189  0.3997 -0.1275
  561MOL0     C75623  -0.379   1.639   4.738  0.1445  0.1110 -0.1917
  561MOL0     O75624  -0.459   1.696   4.846  0.0654 -0.3011  0.2232
  561MOL0     C75625  -0.584   1.643   4.872 -0.0162  0.0244  0.4212
  561MOL0     C75626  -0.679   1.617   4.778 -0.4558  0.4753 -0.1407
  561MOL0     C75627  -0.804   1.561   4.803 -0.5728  0.9100 -0.1115
  561MOL0     C75628  -0.890   1.556   4.681 -0.4097  0.1873  0.1058
  561MOL0     C75629  -0.834   1.510   4.925 -0.3525 -0.2671 -0.6693
  561MOL0     C75630  -0.967   1.434   4.954  0.1811  0.1521 -0.2862
  561MOL0     O75631  -1.032   1.379   4.853  0.4627  0.4679  0.3889
  561MOL0     C75632  -1.171   1.362   4.842 -0.1716 -0.1580  0.1192
  561MOL0     C75633  -1.214   1.270   4.745  0.4305 -0.3603 -0.9988
  561MOL0     C75634  -1.354   1.260   4.718  0.1170  0.2022  0.0398
  561MOL0     C75635  -1.454   1.331   4.793 -0.6640  0.3570 -0.1017
  561MOL0     O75636  -1.588   1.306   4.796 -0.7212  0.0745 -0.0416
  561MOL0     C75637  -1.654   1.261   4.675 -0.9307 -0.7495 -0.3099
  561MOL0     C75638  -1.790   1.227   4.715  0.7187  0.3587  0.3058
  561MOL0     C75639  -1.781   1.092   4.793 -0.8460  0.5528  0.1666
  561MOL0     C75640  -1.919   1.061   4.842 -0.1850 -0.8030 -0.0400
  561MOL0     C75641  -1.998   0.971   4.747  0.5646 -0.5054 -0.3354
  561MOL0     C75642  -2.145   0.982   4.766 -0.3144 -0.4042  0.1927
  561MOL0     C75643  -2.182   0.936   4.909  0.1376  0.3355  0.2081
  561MOL0     C75644  -2.335   0.903   4.910 -0.2386  0.7405  0.7775
  561MOL0    Cl75645  -2.431   1.049   4.889 -0.4730  0.0953 -0.3428
  561MOL0     C75646  -1.404   1.424   4.884  0.0614 -0.3353 -0.9687
  561MOL0     C75647  -1.269   1.436   4.916  0.1122 -0.4469 -0.0956
  561MOL0     O75648  -0.997   1.427   5.067 -0.3711  0.1332  0.3073
  561MOL0     C75649  -0.739   1.539   5.026 -0.2175 -0.7057  1.0375
  561MOL0     C75650  -0.622   1.611   5.003 -0.3270  0.1025 -0.0683
  561MOL0     N75651  -0.025   1.305   4.500  0.7849 -0.7556 -0.4544
  561MOL0     N75652   0.054   1.224   4.439  0.0221 -0.5622 -0.0287
  561MOL0     C75653   0.886   0.396   4.443  0.0773  0.5277 -0.0759
  561MOL0     C75654   0.967   0.297   4.504 -0.4541  0.8230  0.1029
  561MOL0     C75655   1.175   0.043   4.782 -0.2425  0.2234  0.3100
  561MOL0     C75656   1.300   0.014   4.731 -0.1398 -0.5875  0.6436
  561MOL0     C75657   1.370  -0.105   4.772  0.1126  0.2853  0.2618
  561MOL0     C75658   1.320  -0.178   4.866 -0.8760  1.2211  0.2134
  561MOL0     O75659   1.391  -0.292   4.915 -0.0128  0.4750  0.6543
  561MOL0     C75660   1.534  -0.286   4.947  0.5906  0.4856 -0.2644
  561MOL0     C75661   1.597  -0.407   4.872 -0.1670  0.4452 -0.5492
  561MOL0     C75662   1.750  -0.404   4.888 -0.4552 -0.4654  0.7476
  561MOL0     C75663   1.818  -0.265   4.872 -0.6670 -0.2420  0.1155
  561MOL0     C75664   1.956  -0.311   4.833  0.5010  0.2061 -0.6698
  561MOL0     C75665   2.068  -0.348   4.804 -0.4754 -0.5333 -0.7861
  561MOL0     C75666   1.205  -0.142   4.931  0.9275  0.7630  0.3697
  561MOL0     C75667   1.122  -0.033   4.887  0.3247  0.1463  0.5394
  561MOL0     H75668   1.169   0.485   4.699 -0.6670 -1.0963  1.5180
  561MOL0     H75669   1.041   0.667   4.584  0.9282  0.4841 -1.2028
  561MOL0     H75670   0.816   0.555   4.220 -0.4163 -0.1089  0.2183
  561MOL0     H75671   0.680   0.554   4.335  1.2692  1.1383  2.0921
  561MOL0     H75672   0.797   0.791   4.196 -1.1488  5.5073  2.5553
  561MOL0     H75673   0.650   0.723   4.141  0.0016 -0.3664  0.0121
  561MOL0     H75674   0.526   0.773   4.331 -0.7686  2.0329  0.4905
  561MOL0     H75675   0.675   0.815   4.433  2.1345 -1.4627 -1.2882
  561MOL0     H75676   0.702   1.003   4.279  0.3769  0.0123 -3.1017
  561MOL0     H75677   0.594   0.942   4.165  0.9835  0.3621  0.3941
  561MOL0     H75678   0.497   1.137   4.272  1.7249 -0.3022  0.1669
  561MOL0     H75679   0.399   0.984   4.295 -0.4696 -0.8456  2.0392
  561MOL0     H75680   0.502   0.979   4.531 -1.8239 -0.7250 -0.8939
  561MOL0     H75681   0.590   1.124   4.504 -0.2828 -0.4946  3.6147
  561MOL0     H75682   0.395   1.213   4.608  2.9099  2.0845 -0.9172
  561MOL0     H75683   0.367   1.240   4.435 -1.1298  0.4581  0.0345
  561MOL0     H75684   0.262   1.006   4.596  0.4839 -0.1874  0.6833
  561MOL0     H75685   0.221   1.018   4.429  0.0028 -0.6011  0.8391
  561MOL0     H75686   0.118   1.158   4.754  0.7924  0.6593 -0.5434
  561MOL0     H75687  -0.173   1.277   4.798  1.8625 -0.3980  0.6537
  561MOL0     H75688  -0.060   1.402   4.814  1.0507 -0.3987 -0.5482
  561MOL0     H75689  -0.298   1.401   4.615 -0.4466  1.7097 -1.0199
  561MOL0     H75690  -0.164   1.523   4.612  1.7325  1.1405  3.2012
  561MOL0     H75691  -0.209   1.567   4.857 -2.3093  1.3828  2.0654
  561MOL0     H75692  -0.343   1.454   4.848  0.8654  0.8369  1.5528
  561MOL0     H75693  -0.445   1.588   4.667 -2.9157  1.3307  1.5365
  561MOL0     H75694  -0.327   1.725   4.695  0.3887  1.3210  2.3117
  561MOL0     H75695  -0.654   1.659   4.681  1.2183  2.3066  1.0158
  561MOL0     H75696  -0.862   1.628   4.604  1.0315  0.0674  0.4901
  561MOL0     H75697  -0.892   1.456   4.637 -1.3844  0.1607  0.1895
  561MOL0     H75698  -0.991   1.581   4.712 -0.3332 -1.0984  1.5129
  561MOL0     H75699  -1.151   1.205   4.685  1.9020  0.8818 -0.8697
  561MOL0     H75700  -1.386   1.194   4.637 -0.5749 -0.9122  1.1753
  561MOL0     H75701  -1.669   1.340   4.601 -0.5304 -0.3896 -0.0109
  561MOL0     H75702  -1.597   1.178   4.633  0.9918 -0.6719  1.9754
  561MOL0     H75703  -1.830   1.302   4.783  0.3963 -2.0645  3.0108
  561MOL0     H75704  -1.852   1.218   4.626  3.2018  1.4546 -1.6487
  561MOL0     H75705  -1.721   1.092   4.884  2.2295 -1.3035 -1.6415
  561MOL0     H75706  -1.750   1.007   4.731  1.7052  1.9352 -0.6060
  561MOL0     H75707  -1.917   1.015   4.941  2.7528 -1.9814 -0.5555
  561MOL0     H75708  -1.973   1.153   4.865 -0.8127 -1.4723  1.2408
  561MOL0     H75709  -1.962   0.868   4.749  0.2844 -0.5996  0.0834
  561MOL0     H75710  -1.990   1.002   4.643 -0.0647  2.4878  0.4180
  561MOL0     H75711  -2.164   1.089   4.751  1.0015 -0.1044  0.5314
  561MOL0     H75712  -2.196   0.928   4.687  3.4595  0.0134 -2.8064
  561MOL0     H75713  -2.166   1.013   4.986 -1.3519 -0.9497  1.8964
  561MOL0     H75714  -2.119   0.850   4.931 -1.4202 -0.7006  0.7750
  561MOL0     H75715  -2.372   0.858   5.002 -0.3530 -3.0507 -0.9342
  561MOL0     H75716  -2.367   0.831   4.834 -2.8956  2.2858  0.2968
  561MOL0     H75717  -1.481   1.471   4.945 -1.6865 -1.8933 -1.8565
  561MOL0     H75718  -1.237   1.509   4.989  0.0905  3.1934 -3.3897
  561MOL0     H75719  -0.746   1.498   5.126  0.9576 -1.1125  0.9784
  561MOL0     H75720  -0.560   1.630   5.091  0.8922 -1.3428 -0.5674
  561MOL0     H75721   0.804   0.363   4.379  2.5924 -2.6080 -1.9457
  561MOL0     H75722   0.958   0.195   4.469  0.3955  1.3829 -1.9322
  561MOL0     H75723   1.344   0.080   4.657  0.4486 -1.6117  0.0461
  561MOL0     H75724   1.461  -0.125   4.716  0.9710  1.2562  1.2532
  561MOL0     H75725   1.578  -0.189   4.922  0.5170 -0.1134 -3.0933
  561MOL0     H75726   1.535  -0.299   5.055 -2.1224  3.9481  0.3368
  561MOL0     H75727   1.580  -0.395   4.764  2.2304  0.5579 -0.9723
  561MOL0     H75728   1.558  -0.503   4.905  0.4616  1.2760  3.0200
  561MOL0     H75729   1.780  -0.478   4.814 -4.8040 -0.2657 -1.5573
  561MOL0     H75730   1.794  -0.457   4.973  1.8110  0.5049  0.2409
  561MOL0     H75731   1.826  -0.211   4.966 -0.2735 -1.8481  1.0460
  561MOL0     H75732   1.776  -0.200   4.795  0.9449  1.8564  0.9245
  561MOL0     H75733   2.165  -0.386   4.778  0.1653  2.0664 -2.5399
  561MOL0     H75734   1.168  -0.202   5.013 -1.5441 -0.2065 -1.3339
  561MOL0     H75735   1.026  -0.016   4.935 -0.2292  0.0592 -0.5307
  562MOL0     O75736   1.842   9.259   5.703  0.3308 -0.5493  0.0053
  562MOL0     C75737   1.925   9.350   5.697 -0.1424 -0.0787 -0.2753
  562MOL0     O75738   1.933   9.459   5.616 -0.1312 -0.9804 -0.0873
  562MOL0     C75739   1.826   9.498   5.537 -0.5313 -0.3677 -0.4367
  562MOL0     C75740   1.861   9.606   5.455  0.1343  0.4808  0.4987
  562MOL0     C75741   1.771   9.650   5.356  0.0028  0.6280 -0.4548
  562MOL0     C75742   1.648   9.579   5.329  0.3264  0.3569  0.4082
  562MOL0     O75743   1.563   9.606   5.216 -0.5127 -0.4080 -0.1804
  562MOL0     C75744   1.602   9.703   5.114  0.4753 -0.6333 -0.6098
  562MOL0     C75745   1.487   9.696   5.006 -0.1518  1.2121 -0.1831
  562MOL0     C75746   1.346   9.727   5.047  0.4288 -0.9270 -0.1337
  562MOL0     C75747   1.238   9.664   4.949 -0.9850 -0.4663 -0.3258
  562MOL0     C75748   1.096   9.732   4.981 -0.3610  0.0181 -0.6272
  562MOL0     C75749   1.065   9.851   4.888  0.4083 -0.0986  0.0038
  562MOL0     C75750   0.926   9.906   4.907  0.3015  0.4036  0.2573
  562MOL0     C75751   0.857   9.978   4.784 -0.1360 -0.2180  0.7316
  562MOL0     N75752   0.706   9.983   4.793 -0.3307 -0.3616  0.2628
  562MOL0     C75753   0.637  10.059   4.887 -0.3676  0.2675  0.1102
  562MOL0     C75754   0.507  10.016   4.884 -0.3004 -0.1326  0.3378
  562MOL0     C75755   0.402  10.079   4.962 -0.1802  0.1615  0.3886
  562MOL0     C75756   0.254  10.062   4.917  0.6482  0.4940  0.7631
  562MOL0     C75757   0.199   9.926   4.967 -0.4543  0.6231 -0.3425
  562MOL0     C75758   0.057   9.943   5.018 -0.7376  0.0080  0.5093
  562MOL0     O75759   0.029   9.815   5.070  0.7590  0.0859 -0.7263
  562MOL0     C75760  -0.101   9.800   5.124 -0.2548  0.4936  0.2510
  562MOL0     C75761  -0.126   9.703   5.227 -0.4291  0.1457  0.5297
  562MOL0     C75762  -0.252   9.692   5.283 -1.1174 -0.0009  0.1363
  562MOL0     C75763  -0.269   9.588   5.387  0.3579 -0.1476  0.5873
  562MOL0     C75764  -0.361   9.765   5.234 -0.3976  0.0943  0.4683
  562MOL0     C75765  -0.499   9.745   5.280 -0.3698 -0.4313  0.7656
  562MOL0     O75766  -0.590   9.807   5.202  0.0263 -0.5255  0.0262
  562MOL0     C75767  -0.723   9.812   5.240  0.6083 -0.5769 -0.2463
  562MOL0     C75768  -0.805   9.696   5.245 -0.0400 -0.0100  1.2136
  562MOL0     C75769  -0.934   9.690   5.303  0.9005  0.1386  0.2572
  562MOL0     C75770  -0.985   9.808   5.349 -0.2848  0.0497  0.5719
  562MOL0     O75771  -1.109   9.824   5.407 -0.0978 -0.5423  0.2243
  562MOL0     C75772  -1.196   9.712   5.390  0.4956 -0.1837 -0.0199
  562MOL0     C75773  -1.343   9.742   5.430  0.1351 -0.2473  0.6558
  562MOL0     C75774  -1.433   9.814   5.333 -0.0074 -0.4947  0.5852
  562MOL0     C75775  -1.569   9.841   5.385  0.4565  0.3922 -0.2911
  562MOL0     C75776  -1.645   9.945   5.314 -0.2483 -0.4015  0.8956
  562MOL0     C75777  -1.784   9.974   5.356 -0.2927  0.9082  0.6058
  562MOL0     C75778  -1.890   9.858   5.348  0.3553 -0.2608  0.6532
  562MOL0     C75779  -1.910   9.818   5.204  0.2071  0.2678 -0.2447
  562MOL0    Cl75780  -2.079   9.740   5.198  0.4584  0.2646  0.2105
  562MOL0     C75781  -0.908   9.928   5.346 -0.0920 -0.3609 -0.1588
  562MOL0     C75782  -0.785   9.933   5.286 -0.2299 -0.3778  0.3337
  562MOL0     O75783  -0.522   9.708   5.396 -0.0051 -0.0553  0.1185
  562MOL0     C75784  -0.336   9.859   5.131 -0.5504 -0.0466 -0.5668
  562MOL0     C75785  -0.212   9.877   5.074  0.3158  0.0633  0.1408
  562MOL0     N75786   0.496   9.914   4.793 -0.5061 -0.2648 -0.7587
  562MOL0     N75787   0.612   9.894   4.743 -0.4186  0.5844  0.4928
  562MOL0     C75788   1.618   9.474   5.416  0.2184 -0.3685  0.7923
  562MOL0     C75789   1.704   9.439   5.517  0.3826 -0.4881  0.2518
  562MOL0     C75790   2.057   9.329   5.768 -1.3560  0.5101 -0.0420
  562MOL0     C75791   2.161   9.424   5.774  1.1475  0.4794  0.3380
  562MOL0     C75792   2.273   9.411   5.856  0.0225  0.0990 -0.3800
  562MOL0     C75793   2.292   9.296   5.935 -0.6071  0.4937  0.1277
  562MOL0     O75794   2.397   9.270   6.015  0.6055  0.1900  0.0788
  562MOL0     C75795   2.482   9.373   6.066  0.2020  0.4283  0.0167
  562MOL0     C75796   2.596   9.413   5.972 -0.2343 -0.5006 -0.2676
  562MOL0     C75797   2.656   9.280   5.922  0.6968  0.0702 -0.0625
  562MOL0     C75798   2.733   9.209   6.031  0.5332  0.6295 -0.6272
  562MOL0     C75799   2.869   9.250   6.027  0.1288 -0.8651 -0.6853
  562MOL0     C75800   2.985   9.289   6.026 -0.4427 -0.3989  1.0880
  562MOL0     C75801   2.201   9.194   5.927  1.3671 -0.3622  0.8229
  562MOL0     C75802   2.081   9.219   5.856  0.2358 -0.5029 -0.4856
  562MOL0     H75803   1.960   9.648   5.470  0.5735 -0.6800  0.9087
  562MOL0     H75804   1.802   9.727   5.286 -1.1050  1.3250 -0.2018
  562MOL0     H75805   1.612   9.799   5.165 -0.0466 -1.3238  0.8564
  562MOL0     H75806   1.699   9.675   5.074  0.8744 -0.7306  0.4090
  562MOL0     H75807   1.523   9.743   4.914  0.1675 -1.2844 -1.4041
  562MOL0     H75808   1.494   9.589   4.988  2.7351  1.1817  0.6533
  562MOL0     H75809   1.322   9.692   5.148  0.6460  2.1446  1.0892
  562MOL0     H75810   1.340   9.836   5.041  2.5858 -0.8427 -2.0766
  562MOL0     H75811   1.263   9.668   4.843  4.2457  1.8272  0.6804
  562MOL0     H75812   1.224   9.558   4.973  1.4938 -0.8486 -0.3034
  562MOL0     H75813   1.022   9.655   4.958 -1.2798  0.0926  1.7542
  562MOL0     H75814   1.078   9.757   5.086  0.9955  2.7275 -0.9568
  562MOL0     H75815   1.138   9.930   4.907 -1.8373  1.9615  0.5058
  562MOL0     H75816   1.074   9.806   4.788  0.1406 -3.6490  1.4367
  562MOL0     H75817   0.854   9.825   4.927 -0.4901  1.3404  1.3612
  562MOL0     H75818   0.919   9.974   4.992 -1.9560  0.4057  0.1430
  562MOL0     H75819   0.875   9.926   4.690 -0.7574  2.0021 -0.6710
  562MOL0     H75820   0.900  10.078   4.775  0.6402 -0.6537 -0.7292
  562MOL0     H75821   0.662  10.149   4.941 -1.3918 -0.2951  1.5812
  562MOL0     H75822   0.406  10.027   5.058 -0.9521  0.9409  0.8535
  562MOL0     H75823   0.418  10.186   4.975 -0.6959  0.3871 -0.7232
  562MOL0     H75824   0.242  10.068   4.809 -1.4213 -0.2670  0.9226
  562MOL0     H75825   0.201  10.150   4.955  1.4242  0.5668  1.7456
  562MOL0     H75826   0.261   9.895   5.051 -1.2436  1.1306  0.4471
  562MOL0     H75827   0.207   9.853   4.887  0.9712 -0.1234  0.4493
  562MOL0     H75828  -0.006   9.956   4.929  1.4610 -2.4521 -1.6043
  562MOL0     H75829   0.050  10.022   5.093 -1.1145 -0.8775  1.4243
  562MOL0     H75830  -0.038   9.648   5.257 -0.3931 -0.2793 -0.3453
  562MOL0     H75831  -0.174   9.543   5.414  0.2745 -1.8510 -1.6662
  562MOL0     H75832  -0.308   9.637   5.477 -1.8457 -0.3159 -0.2004
  562MOL0     H75833  -0.345   9.515   5.357  3.0203 -2.7540 -0.2946
  562MOL0     H75834  -0.773   9.596   5.219  0.6732  0.0778  1.7335
  562MOL0     H75835  -0.993   9.599   5.306  0.9478  0.0010 -1.7799
  562MOL0     H75836  -1.199   9.680   5.286  0.4376 -0.8842  0.1900
  562MOL0     H75837  -1.162   9.624   5.444 -0.4426 -0.9401 -0.6290
  562MOL0     H75838  -1.390   9.644   5.444 -1.1875  0.4593  1.2863
  562MOL0     H75839  -1.353   9.793   5.526 -4.4641  1.0450 -0.2733
  562MOL0     H75840  -1.437   9.760   5.239  0.6842  2.2314 -1.1347
  562MOL0     H75841  -1.398   9.914   5.306 -1.0581 -0.7253 -1.8893
  562MOL0     H75842  -1.628   9.749   5.378 -0.2379  0.7733  0.3324
  562MOL0     H75843  -1.558   9.869   5.490  1.1848 -1.4963  0.1833
  562MOL0     H75844  -1.641   9.928   5.206  2.5733  0.0218  0.8634
  562MOL0     H75845  -1.593  10.040   5.330 -1.2052 -0.0800  2.1868
  562MOL0     H75846  -1.783  10.019   5.455  0.2439 -0.1253  1.0755
  562MOL0     H75847  -1.823  10.057   5.295  2.5956  1.5199 -0.5475
  562MOL0     H75848  -1.985   9.899   5.382 -0.3012 -0.5550 -0.7327
  562MOL0     H75849  -1.861   9.772   5.410  2.8651 -0.2781 -0.4377
  562MOL0     H75850  -1.828   9.753   5.171  0.2145  0.1244  0.0547
  562MOL0     H75851  -1.912   9.904   5.136  3.1601  0.5631 -0.0668
  562MOL0     H75852  -0.953  10.017   5.389  0.8814  0.1630 -0.1974
  562MOL0     H75853  -0.730  10.025   5.306 -1.2814  0.4351 -0.4495
  562MOL0     H75854  -0.416   9.924   5.098 -0.4226  0.2195 -0.3547
  562MOL0     H75855  -0.208   9.954   4.997 -4.2214  1.8390  1.3689
  562MOL0     H75856   1.532   9.409   5.404  2.3853 -3.6965  1.5449
  562MOL0     H75857   1.681   9.352   5.578 -1.4463 -2.2072 -2.6395
  562MOL0     H75858   2.153   9.514   5.715  1.0004  2.8942  3.7395
  562MOL0     H75859   2.347   9.490   5.861 -0.8070  1.0098 -1.6387
  562MOL0     H75860   2.414   9.458   6.075 -1.4233 -0.9014  1.0450
  562MOL0     H75861   2.518   9.354   6.168  1.6788 -2.4342 -0.9417
  562MOL0     H75862   2.661   9.475   6.035 -2.4708  0.1571  1.5166
  562MOL0     H75863   2.548   9.469   5.892  0.6513  1.3088  0.4202
  562MOL0     H75864   2.730   9.314   5.849  2.6588 -1.7404  0.9812
  562MOL0     H75865   2.584   9.217   5.869  1.7798 -1.0497 -0.2345
  562MOL0     H75866   2.738   9.100   6.017 -0.8086  0.5724 -0.7536
  562MOL0     H75867   2.692   9.229   6.130  2.6790 -1.6064  0.8527
  562MOL0     H75868   3.086   9.323   6.020 -1.4036  2.4957 -0.6562
  562MOL0     H75869   2.217   9.104   5.985  0.9618  0.4642  2.2918
  562MOL0     H75870   2.013   9.134   5.863 -0.1794 -0.0273  3.3735
  563MOL0     O75871   9.360   7.138   5.126 -0.1570  0.0775  0.1900
  563MOL0     C75872   9.375   7.226   5.039  0.0435  0.6163  0.1200
  563MOL0     O75873   9.282   7.254   4.936 -0.2780 -0.0221  0.5520
  563MOL0     C75874   9.165   7.184   4.909  0.5548  0.1321 -0.6076
  563MOL0     C75875   9.084   7.247   4.814  0.3419  0.4299 -0.3364
  563MOL0     C75876   8.961   7.197   4.773 -0.4235  0.4164  0.1230
  563MOL0     C75877   8.917   7.075   4.838  0.7216 -0.4965 -0.0679
  563MOL0     O75878   8.799   7.019   4.800 -0.1649  0.0232 -0.2032
  563MOL0     C75879   8.699   7.052   4.892  0.6836  0.5172 -0.0725
  563MOL0     C75880   8.574   6.986   4.850  0.5888  1.0183 -0.8522
  563MOL0     C75881   8.535   7.007   4.700 -0.5218  0.1400 -0.2213
  563MOL0     C75882   8.503   7.158   4.676  0.2171 -0.0658  0.0079
  563MOL0     C75883   8.464   7.181   4.524 -0.5853 -0.2608 -0.0344
  563MOL0     C75884   8.559   7.128   4.417 -0.3831 -0.3676  0.7809
  563MOL0     C75885   8.696   7.204   4.418  0.5127 -0.5362  0.9375
  563MOL0     C75886   8.785   7.147   4.313 -0.0020 -0.5884  0.1151
  563MOL0     N75887   8.925   7.192   4.320 -0.3442  0.3042  0.0138
  563MOL0     C75888   8.970   7.307   4.370 -0.2197 -0.2899  0.7446
  563MOL0     C75889   9.099   7.314   4.340 -0.3049  0.0898  0.0313
  563MOL0     C75890   9.198   7.414   4.393  0.2250  0.5492  0.5392
  563MOL0     C75891   9.275   7.344   4.503 -0.4462  0.1121 -0.0087
  563MOL0     C75892   9.375   7.433   4.574 -0.1655  0.4369 -0.3036
  563MOL0     C75893   9.486   7.458   4.474 -0.5738 -0.4313  0.0783
  563MOL0     O75894   9.585   7.534   4.541 -0.2267 -0.8017 -0.7387
  563MOL0     C75895   9.696   7.546   4.466 -0.6527 -0.7574  0.1695
  563MOL0     C75896   9.720   7.509   4.329 -0.0510  0.5949 -0.7966
  563MOL0     C75897   9.848   7.501   4.274 -0.7916  0.1852  0.2894
  563MOL0     C75898   9.858   7.474   4.122  0.0674  0.9048  0.3135
  563MOL0     C75899   9.960   7.544   4.354 -0.1969 -0.4659 -0.6089
  563MOL0     C75900  10.101   7.538   4.311  0.0820 -0.6276 -0.6075
  563MOL0     O75901  10.202   7.579   4.404  0.0051  0.4272 -0.4444
  563MOL0     C75902  10.329   7.550   4.362 -0.4492  0.3232 -0.7397
  563MOL0     C75903  10.385   7.637   4.269 -0.3346 -0.5827 -0.3385
  563MOL0     C75904  10.516   7.617   4.220  0.6772 -0.2132 -0.0621
  563MOL0     C75905  10.595   7.523   4.282 -0.2701  0.2926 -0.8074
  563MOL0     O75906  10.725   7.500   4.251 -0.2280  0.5762 -0.1756
  563MOL0     C75907  10.792   7.585   4.153 -0.6556  0.6804 -0.3814
  563MOL0     C75908  10.943   7.562   4.163 -0.8430 -0.4544  0.9362
  563MOL0     C75909  11.030   7.623   4.048  0.0829 -0.8759  0.1326
  563MOL0     C75910  11.160   7.551   4.028  1.3312 -0.7157  0.1044
  563MOL0     C75911  11.255   7.623   3.927  1.3123  0.0439  0.6659
  563MOL0     C75912  11.403   7.596   3.956  0.2854 -0.4190  0.1986
  563MOL0     C75913  11.485   7.668   3.849 -0.1988 -1.0177 -0.3921
  563MOL0     C75914  11.643   7.643   3.859 -0.1427  0.5399 -0.3319
  563MOL0    Cl75915  11.727   7.701   3.694  0.0267 -0.2036 -0.0902
  563MOL0     C75916  10.543   7.449   4.390 -0.1592  0.3216  0.9976
  563MOL0     C75917  10.414   7.456   4.426  0.9448  0.0046 -0.8054
  563MOL0     O75918  10.132   7.512   4.195 -0.1408  0.1835  0.1202
  563MOL0     C75919   9.929   7.586   4.482 -0.2309  0.6282  0.3472
  563MOL0     C75920   9.811   7.582   4.541  0.9007 -0.1646 -0.0944
  563MOL0     N75921   9.133   7.191   4.289 -0.5454  0.3246 -0.1123
  563MOL0     N75922   9.025   7.120   4.274 -0.3927 -0.5418  0.3946
  563MOL0     C75923   8.990   7.013   4.938  0.2657 -0.7161  0.2049
  563MOL0     C75924   9.113   7.070   4.972  0.0930 -0.4743 -0.4184
  563MOL0     C75925   9.510   7.282   5.012 -0.0448  0.4525 -0.3715
  563MOL0     C75926   9.632   7.241   5.077 -0.2408 -0.2178 -0.1196
  563MOL0     C75927   9.761   7.284   5.041 -0.2275 -0.4414  0.6923
  563MOL0     C75928   9.775   7.392   4.947 -0.1242 -0.2282 -0.7372
  563MOL0     O75929   9.889   7.455   4.913  0.4217  0.5538 -0.3751
  563MOL0     C75930  10.017   7.412   4.967 -0.8584 -0.6837  0.5264
  563MOL0     C75931  10.127   7.481   4.880  0.6991  0.1716 -0.6919
  563MOL0     C75932  10.263   7.434   4.929  0.2295  0.0672  0.9642
  563MOL0     C75933  10.371   7.496   4.841  0.1545  0.1854  0.3024
  563MOL0     C75934  10.504   7.445   4.880 -0.3728  0.0994 -0.2874
  563MOL0     C75935  10.620   7.421   4.906 -0.3465 -0.0269  0.2454
  563MOL0     C75936   9.652   7.439   4.890 -0.8737 -0.7494 -0.5032
  563MOL0     C75937   9.529   7.387   4.921 -0.0713 -0.0667 -0.4566
  563MOL0     H75938   9.116   7.346   4.783 -2.0127  1.1287 -0.6970
  563MOL0     H75939   8.896   7.247   4.701  0.6258  2.9787  0.8318
  563MOL0     H75940   8.731   7.008   4.988 -0.7566 -0.3970  0.0091
  563MOL0     H75941   8.681   7.159   4.901  1.5011  0.5963  0.9549
  563MOL0     H75942   8.571   6.879   4.873  0.7840  1.2405  0.2722
  563MOL0     H75943   8.503   7.042   4.912 -1.7687  0.9697 -3.3275
  563MOL0     H75944   8.610   6.972   4.629 -0.6428  0.0528 -0.3070
  563MOL0     H75945   8.444   6.949   4.686 -2.4034  2.2898  2.0381
  563MOL0     H75946   8.424   7.199   4.739 -0.2938 -1.0349  0.0010
  563MOL0     H75947   8.595   7.215   4.693 -0.1693  0.7023 -0.3945
  563MOL0     H75948   8.365   7.136   4.511 -0.8010  0.1848  0.0323
  563MOL0     H75949   8.446   7.287   4.501 -0.5036 -0.2601 -0.0962
  563MOL0     H75950   8.580   7.021   4.427 -0.5077 -0.3343  1.4384
  563MOL0     H75951   8.513   7.144   4.319  1.5738 -2.6336 -0.6171
  563MOL0     H75952   8.679   7.308   4.390 -4.0641 -1.9713 -3.0375
  563MOL0     H75953   8.748   7.190   4.513  0.8992 -1.1444  0.6455
  563MOL0     H75954   8.750   7.176   4.214  0.3714  0.9161  0.3903
  563MOL0     H75955   8.779   7.038   4.318 -0.4908 -0.5508  0.4012
  563MOL0     H75956   8.928   7.376   4.443  0.8448 -1.7691  2.8623
  563MOL0     H75957   9.244   7.444   4.299  0.2103 -2.5141 -0.5456
  563MOL0     H75958   9.145   7.498   4.439 -1.6762  0.8429 -2.0080
  563MOL0     H75959   9.319   7.256   4.454 -2.6714 -1.2673  0.3269
  563MOL0     H75960   9.199   7.319   4.578  0.7407 -0.5274  1.0123
  563MOL0     H75961   9.417   7.380   4.660 -0.5192 -0.2929 -0.5753
  563MOL0     H75962   9.324   7.522   4.611 -1.5414 -1.5807  3.0760
  563MOL0     H75963   9.448   7.500   4.381  0.9269  1.6015  0.3204
  563MOL0     H75964   9.525   7.360   4.447  1.2406  0.4669 -0.7225
  563MOL0     H75965   9.633   7.493   4.267 -1.4789 -1.9208  1.6913
  563MOL0     H75966   9.924   7.391   4.097  1.0663  2.2938 -1.9981
  563MOL0     H75967   9.759   7.460   4.078  0.4287  0.8588 -0.5077
  563MOL0     H75968   9.905   7.555   4.065  2.0247  0.8352  1.7106
  563MOL0     H75969  10.318   7.708   4.223  1.6719  1.5547 -0.1635
  563MOL0     H75970  10.549   7.683   4.140  0.1427 -1.2485 -1.1677
  563MOL0     H75971  10.750   7.561   4.055 -0.8079  0.3434 -0.2364
  563MOL0     H75972  10.763   7.689   4.173 -3.5946 -0.5425  2.7441
  563MOL0     H75973  10.977   7.605   4.257  1.0246  0.1565  0.0155
  563MOL0     H75974  10.955   7.453   4.170 -0.9382 -0.5868 -0.5421
  563MOL0     H75975  11.048   7.728   4.073 -3.2860 -0.0048 -0.6326
  563MOL0     H75976  10.974   7.620   3.954 -2.0389  1.4455  1.1797
  563MOL0     H75977  11.214   7.547   4.123  0.9610  1.9175  0.4898
  563MOL0     H75978  11.146   7.448   3.995  1.3492 -1.3681  2.0148
  563MOL0     H75979  11.227   7.729   3.927 -0.6412 -0.4409  1.0429
  563MOL0     H75980  11.228   7.592   3.826  0.6105 -0.8173  1.1057
  563MOL0     H75981  11.419   7.643   4.054 -3.1948 -0.5042  0.9384
  563MOL0     H75982  11.436   7.492   3.957  0.6174 -0.3148  0.9343
  563MOL0     H75983  11.463   7.775   3.851 -2.1601 -1.3737 -0.2100
  563MOL0     H75984  11.462   7.633   3.748 -0.4231  2.2120 -1.5813
  563MOL0     H75985  11.675   7.540   3.873  0.2436  0.6462 -0.4165
  563MOL0     H75986  11.673   7.703   3.946 -3.2442  1.7846  0.0335
  563MOL0     H75987  10.608   7.371   4.429 -0.9779 -1.0925 -0.3904
  563MOL0     H75988  10.371   7.398   4.507 -0.5964  0.9277 -0.9098
  563MOL0     H75989  10.009   7.616   4.550 -0.2659 -0.3541  0.8418
  563MOL0     H75990   9.795   7.606   4.645 -0.8456 -2.2673  0.2064
  563MOL0     H75991   8.949   6.924   4.985 -4.3304  2.1770  2.3475
  563MOL0     H75992   9.170   7.022   5.050 -0.9811  0.8313  1.2307
  563MOL0     H75993   9.634   7.165   5.156  0.8357  0.0040  0.0819
  563MOL0     H75994   9.851   7.262   5.098  1.3211  2.7165 -0.3246
  563MOL0     H75995  10.019   7.468   5.061  2.3026  2.4668 -1.1473
  563MOL0     H75996  10.028   7.305   4.983  0.0267 -0.2557  3.4921
  563MOL0     H75997  10.120   7.588   4.897  0.4101 -0.0375  0.6725
  563MOL0     H75998  10.100   7.452   4.778 -0.6797  0.9860 -0.5856
  563MOL0     H75999  10.273   7.326   4.914  3.0260  0.3271  0.2894
  563MOL0     H76000  10.275   7.469   5.032  1.0642 -0.7911  1.1731
  563MOL0     H76001  10.370   7.605   4.849  2.7779  0.3962 -1.0660
  563MOL0     H76002  10.356   7.476   4.735  3.1926  1.7535 -0.5493
  563MOL0     H76003  10.715   7.375   4.925 -0.1345 -0.1842 -1.1073
  563MOL0     H76004   9.650   7.526   4.826 -0.2980  1.6796  2.5255
  563MOL0     H76005   9.447   7.443   4.879  0.5206  0.9325 -0.3245
  564MOL0     O76006   5.828   5.496   3.972 -0.5735 -0.1530  0.1541
  564MOL0     C76007   5.905   5.425   3.912  0.9364  0.3670 -0.1972
  564MOL0     O76008   5.871   5.339   3.816 -0.2411  0.6640 -0.1182
  564MOL0     C76009   5.739   5.338   3.786 -0.6332 -0.4365 -0.6241
  564MOL0     C76010   5.689   5.389   3.666  0.9263  0.7435 -0.0832
  564MOL0     C76011   5.550   5.378   3.633 -0.3095 -0.0195  0.1145
  564MOL0     C76012   5.471   5.312   3.731  0.8961  0.1734 -0.6242
  564MOL0     O76013   5.336   5.316   3.715  0.1629 -0.0594 -0.2058
  564MOL0     C76014   5.245   5.274   3.819 -0.7323  1.1556  0.1996
  564MOL0     C76015   5.104   5.299   3.764  0.9610 -0.4690 -0.6977
  564MOL0     C76016   5.055   5.189   3.661 -0.1527  0.2286  0.6526
  564MOL0     C76017   4.906   5.197   3.618  0.3252 -0.1996 -0.2080
  564MOL0     C76018   4.855   5.334   3.589 -0.1637  0.1455  0.3530
  564MOL0     C76019   4.709   5.320   3.541 -0.0821  0.4373 -0.2483
  564MOL0     C76020   4.636   5.451   3.503  0.3135 -0.0649  0.3629
  564MOL0     C76021   4.518   5.422   3.404 -0.2854 -0.1530 -0.0881
  564MOL0     N76022   4.422   5.539   3.423 -0.1907  0.0102 -0.0825
  564MOL0     C76023   4.337   5.550   3.519  1.0715 -0.6458 -0.7178
  564MOL0     C76024   4.272   5.664   3.501 -0.2630 -0.1774  0.1707
  564MOL0     C76025   4.155   5.722   3.574  1.1097  0.1659  0.6140
  564MOL0     C76026   4.037   5.727   3.467 -0.7546  0.8557 -0.3718
  564MOL0     C76027   3.917   5.797   3.528 -0.4905 -0.6299  0.1289
  564MOL0     C76028   3.811   5.823   3.422 -0.5920  0.3817 -0.2491
  564MOL0     O76029   3.733   5.708   3.390 -0.3257 -0.1809 -0.4586
  564MOL0     C76030   3.614   5.730   3.329  0.0463  0.1770 -0.0596
  564MOL0     C76031   3.556   5.857   3.306  0.2307  0.6976  0.5824
  564MOL0     C76032   3.438   5.870   3.226 -0.0758  0.3432 -0.2271
  564MOL0     C76033   3.380   6.003   3.205  0.1943 -0.1711 -0.1779
  564MOL0     C76034   3.368   5.751   3.179  0.4743 -0.4930  0.1751
  564MOL0     C76035   3.240   5.741   3.104  1.5638 -0.1638 -0.4593
  564MOL0     O76036   3.208   5.623   3.039  0.0650 -0.0529 -0.1083
  564MOL0     C76037   3.081   5.601   3.004  0.4176  0.2529 -0.6266
  564MOL0     C76038   2.963   5.619   3.077 -0.2279  0.4816 -0.2036
  564MOL0     C76039   2.836   5.585   3.022  0.0328 -0.5184  0.6572
  564MOL0     C76040   2.821   5.560   2.880 -0.6231 -0.0851 -0.1166
  564MOL0     O76041   2.705   5.553   2.816 -0.6016  0.3227 -0.1026
  564MOL0     C76042   2.584   5.607   2.871 -0.4431  0.1638 -0.0077
  564MOL0     C76043   2.474   5.606   2.766  0.2269 -0.2822 -0.3256
  564MOL0     C76044   2.338   5.645   2.835 -0.1776  0.0195 -0.5525
  564MOL0     C76045   2.229   5.647   2.737 -0.3000 -0.8413  0.3654
  564MOL0     C76046   2.098   5.705   2.786  0.1723  0.2296  0.6883
  564MOL0     C76047   1.993   5.728   2.682  0.3420  0.5147 -0.3292
  564MOL0     C76048   1.856   5.781   2.742  0.3211 -0.7725  0.2863
  564MOL0     C76049   1.779   5.695   2.835  0.3497  0.0529 -0.1749
  564MOL0    Cl76050   1.705   5.562   2.738 -0.3477 -0.1466 -0.0727
  564MOL0     C76051   2.940   5.540   2.806  1.1446 -0.2067  0.3595
  564MOL0     C76052   3.066   5.558   2.870 -0.7338  0.1746  1.4517
  564MOL0     O76053   3.169   5.846   3.102 -0.1382  0.3476 -0.0136
  564MOL0     C76054   3.428   5.625   3.205  0.8021  0.4104 -0.1738
  564MOL0     C76055   3.542   5.612   3.285 -0.0516  0.0561 -0.0341
  564MOL0     N76056   4.325   5.725   3.391  0.7628  0.6069  0.1307
  564MOL0     N76057   4.415   5.646   3.341  0.1913  0.7303 -0.4567
  564MOL0     C76058   5.526   5.249   3.843 -0.5392  0.3759  0.3709
  564MOL0     C76059   5.663   5.267   3.872 -0.4225  0.3867  0.1365
  564MOL0     C76060   6.050   5.418   3.952  0.4065  0.4720  0.3344
  564MOL0     C76061   6.094   5.482   4.068  0.2171  0.5477 -1.0934
  564MOL0     C76062   6.232   5.472   4.105  0.8737  0.4868  0.2312
  564MOL0     C76063   6.320   5.401   4.032 -0.2328  0.0033  0.4862
  564MOL0     O76064   6.445   5.384   4.076  0.0508  0.2052 -0.0424
  564MOL0     C76065   6.537   5.471   4.006  0.2299 -0.6456 -0.0223
  564MOL0     C76066   6.675   5.440   4.062  0.0094  0.3235  0.4831
  564MOL0     C76067   6.710   5.495   4.205  0.2069  0.3767  0.0932
  564MOL0     C76068   6.838   5.443   4.252 -0.0256  0.7077 -0.0737
  564MOL0     C76069   6.943   5.477   4.152 -0.3483  0.2956  0.3092
  564MOL0     C76070   7.027   5.506   4.069  0.0799  0.1926 -0.5750
  564MOL0     C76071   6.280   5.343   3.921  0.2066  0.4172  0.4849
  564MOL0     C76072   6.146   5.343   3.876  0.1111 -0.4795 -0.5708
  564MOL0     H76073   5.749   5.431   3.586 -0.7999  0.8971 -1.3472
  564MOL0     H76074   5.508   5.423   3.543 -1.1924  0.8172  0.9246
  564MOL0     H76075   5.268   5.168   3.833 -1.5546  1.2680  3.0042
  564MOL0     H76076   5.264   5.326   3.913 -2.0142  0.4185  0.8953
  564MOL0     H76077   5.033   5.295   3.847 -0.1653 -3.9985 -1.6611
  564MOL0     H76078   5.097   5.393   3.709 -1.5374 -0.7168 -0.9423
  564MOL0     H76079   5.110   5.190   3.566 -0.4670 -1.4884  0.4202
  564MOL0     H76080   5.069   5.090   3.703 -1.4103  0.8821  2.7710
  564MOL0     H76081   4.883   5.128   3.536 -4.3573  0.0291  0.6501
  564MOL0     H76082   4.847   5.147   3.695 -1.5763  2.0080 -0.1314
  564MOL0     H76083   4.863   5.395   3.680 -0.0513  0.8614 -0.1259
  564MOL0     H76084   4.921   5.392   3.524  0.9358 -1.3595  0.0749
  564MOL0     H76085   4.716   5.257   3.452  3.6948 -0.6091  0.6389
  564MOL0     H76086   4.653   5.263   3.616  0.5985  1.0496  0.7414
  564MOL0     H76087   4.598   5.499   3.594  0.5353 -1.0646  0.9895
  564MOL0     H76088   4.697   5.528   3.455 -1.1434  1.4492  0.8090
  564MOL0     H76089   4.469   5.326   3.423  0.5829 -0.7167 -0.6224
  564MOL0     H76090   4.560   5.405   3.304  0.4727  0.9429  0.0289
  564MOL0     H76091   4.323   5.475   3.596  3.5708 -0.0202  0.4822
  564MOL0     H76092   4.131   5.657   3.659  1.7194  1.2931  1.6826
  564MOL0     H76093   4.178   5.823   3.609 -1.1385  0.0886  2.5688
  564MOL0     H76094   4.017   5.629   3.421 -2.2357  0.8631  0.1933
  564MOL0     H76095   4.068   5.792   3.384  1.1071  0.8928  0.3114
  564MOL0     H76096   3.950   5.898   3.554  0.3831  0.2225 -3.6562
  564MOL0     H76097   3.877   5.739   3.612 -0.2084  2.1311  2.3180
  564MOL0     H76098   3.840   5.857   3.322  1.0692 -0.3184 -0.0354
  564MOL0     H76099   3.753   5.907   3.462 -0.4364  1.6113 -2.4425
  564MOL0     H76100   3.605   5.949   3.334  1.2238  0.9789 -1.8700
  564MOL0     H76101   3.382   6.036   3.101 -0.6029 -2.2325 -0.9096
  564MOL0     H76102   3.286   6.017   3.259  1.4172 -1.6928  2.5463
  564MOL0     H76103   3.443   6.076   3.255 -0.9755  0.7867 -0.0581
  564MOL0     H76104   2.972   5.643   3.183  0.7342  2.0242 -0.5924
  564MOL0     H76105   2.748   5.603   3.084  0.0619 -1.8606  1.1319
  564MOL0     H76106   2.536   5.553   2.953  0.4563 -2.6875 -1.2381
  564MOL0     H76107   2.593   5.706   2.916  1.6248  0.8518 -1.7583
  564MOL0     H76108   2.488   5.694   2.702  1.7104 -0.4321 -0.2218
  564MOL0     H76109   2.468   5.514   2.707 -0.4163 -0.3028 -0.2381
  564MOL0     H76110   2.337   5.744   2.882 -2.1738  0.3131 -1.1065
  564MOL0     H76111   2.316   5.565   2.906  1.0512 -0.2792 -0.4937
  564MOL0     H76112   2.267   5.711   2.656  0.1711  0.2045  1.3955
  564MOL0     H76113   2.208   5.550   2.690 -1.6967 -0.6056  0.4769
  564MOL0     H76114   2.118   5.809   2.814  0.0740  0.4304  0.0206
  564MOL0     H76115   2.064   5.656   2.878 -1.3318 -0.0952 -0.0265
  564MOL0     H76116   2.022   5.795   2.600  0.2749  1.6748  0.5693
  564MOL0     H76117   1.976   5.629   2.639 -0.9672  0.0652  1.1320
  564MOL0     H76118   1.778   5.812   2.672 -0.3385 -2.1719  0.3594
  564MOL0     H76119   1.885   5.869   2.801 -0.6515 -2.9096  4.3768
  564MOL0     H76120   1.704   5.756   2.886 -1.3884 -2.0242 -0.1006
  564MOL0     H76121   1.849   5.652   2.907  0.7175 -1.5169 -1.4031
  564MOL0     H76122   2.944   5.513   2.701  0.8369 -0.0359  0.3048
  564MOL0     H76123   3.160   5.541   2.819  0.4365  1.5348  3.0228
  564MOL0     H76124   3.397   5.535   3.154  0.1466  1.3964 -1.5860
  564MOL0     H76125   3.575   5.510   3.298  0.8799  0.5277  1.5692
  564MOL0     H76126   5.472   5.170   3.894  2.1095 -0.8399  1.5048
  564MOL0     H76127   5.707   5.214   3.957 -1.5396 -2.1501 -0.7668
  564MOL0     H76128   6.023   5.542   4.124 -0.4212  1.6245 -2.9627
  564MOL0     H76129   6.264   5.515   4.199 -1.0563  1.1382  0.6472
  564MOL0     H76130   6.529   5.481   3.898 -0.2765  1.7100  0.1820
  564MOL0     H76131   6.510   5.571   4.043 -0.3163 -0.1673 -1.6266
  564MOL0     H76132   6.744   5.473   3.984 -0.0764  2.7556  1.3596
  564MOL0     H76133   6.693   5.332   4.074 -0.4461  0.1721 -0.1534
  564MOL0     H76134   6.625   5.470   4.270  0.5930 -1.4008 -0.0385
  564MOL0     H76135   6.727   5.603   4.207  0.8477  0.3136  3.1896
  564MOL0     H76136   6.814   5.336   4.253 -0.0771  0.6762 -1.9298
  564MOL0     H76137   6.873   5.473   4.352 -0.1524 -1.1714  0.5735
  564MOL0     H76138   7.091   5.555   3.999  0.0959  1.2032  0.1379
  564MOL0     H76139   6.352   5.279   3.871 -0.2479  0.4176 -0.1987
  564MOL0     H76140   6.112   5.287   3.790  0.4504 -0.3700 -0.7785
  565MOL0     O76141   0.998   3.458   6.910 -0.3838 -0.2728 -0.5722
  565MOL0     C76142   1.045   3.344   6.917 -0.6142  0.6079  0.0451
  565MOL0     O76143   1.003   3.241   6.995  0.5088 -0.7147 -0.0182
  565MOL0     C76144   0.875   3.220   7.045 -0.0608 -0.8687 -0.6253
  565MOL0     C76145   0.871   3.117   7.132  0.2493  0.9755  0.2538
  565MOL0     C76146   0.750   3.056   7.164  0.2093  0.2545 -0.5234
  565MOL0     C76147   0.631   3.114   7.122  0.5041  0.1134 -0.1210
  565MOL0     O76148   0.506   3.068   7.171 -0.3746  0.1116  1.0326
  565MOL0     C76149   0.440   3.163   7.250  0.2567  0.0527  1.2277
  565MOL0     C76150   0.334   3.109   7.338  1.1498 -0.5307  0.2946
  565MOL0     C76151   0.206   3.061   7.267 -0.0581 -0.3151  0.4786
  565MOL0     C76152   0.124   2.968   7.356 -0.0843  0.0411  0.6189
  565MOL0     C76153  -0.021   3.004   7.351  0.9735 -0.3970 -0.8263
  565MOL0     C76154  -0.075   2.973   7.212  0.3441  0.5326  0.1325
  565MOL0     C76155  -0.226   3.003   7.213 -0.0743 -0.4332  0.4216
  565MOL0     C76156  -0.304   2.942   7.098 -0.7108 -0.0941 -0.0800
  565MOL0     N76157  -0.445   2.989   7.071 -0.2614  0.2738 -0.5937
  565MOL0     C76158  -0.541   3.010   7.162 -0.0822 -0.2653  0.3750
  565MOL0     C76159  -0.650   3.056   7.097  0.0912 -0.2919  0.1492
  565MOL0     C76160  -0.788   3.094   7.149  0.2315  0.2554 -0.2740
  565MOL0     C76161  -0.909   3.026   7.076  0.5755  0.8655  0.0424
  565MOL0     C76162  -1.004   3.131   7.015  0.0348 -0.4039  0.1883
  565MOL0     C76163  -1.116   3.065   6.937  0.4711 -0.5615  0.3100
  565MOL0     O76164  -1.215   3.166   6.870  0.2447 -0.4059 -0.0890
  565MOL0     C76165  -1.306   3.126   6.779  0.5202 -0.1662 -0.0683
  565MOL0     C76166  -1.422   3.205   6.760 -0.3061  0.1972  0.1793
  565MOL0     C76167  -1.534   3.158   6.691  1.1902 -0.1166  0.1005
  565MOL0     C76168  -1.661   3.250   6.695 -0.1548  0.0792 -0.3102
  565MOL0     C76169  -1.531   3.030   6.631 -0.4241 -0.2611  0.2896
  565MOL0     C76170  -1.644   2.971   6.552 -0.7078  0.4347  0.1532
  565MOL0     O76171  -1.765   3.018   6.563  0.1961 -0.4659 -0.0547
  565MOL0     C76172  -1.866   2.968   6.480  0.1480  0.1724 -0.2600
  565MOL0     C76173  -1.997   2.948   6.540 -0.1331  0.1988 -0.0421
  565MOL0     C76174  -2.111   2.925   6.465  0.3207  0.2689  0.4307
  565MOL0     C76175  -2.106   2.919   6.325  0.5438  0.1945  0.1777
  565MOL0     O76176  -2.210   2.919   6.239 -0.4308 -0.3756 -0.1468
  565MOL0     C76177  -2.348   2.943   6.277 -0.5047 -0.9915  0.3994
  565MOL0     C76178  -2.435   2.898   6.169  0.5841 -0.7133  0.2439
  565MOL0     C76179  -2.578   2.913   6.217 -0.1810 -1.0329 -0.7697
  565MOL0     C76180  -2.675   2.874   6.108  0.2912 -0.0130  0.5525
  565MOL0     C76181  -2.818   2.863   6.161  0.0878  0.2298 -0.7672
  565MOL0     C76182  -2.910   2.805   6.050  0.8323 -0.2342 -0.4489
  565MOL0     C76183  -3.049   2.811   6.104  0.0053 -0.0951  0.9050
  565MOL0     C76184  -3.152   2.758   5.999  0.1625 -0.8255 -0.0784
  565MOL0    Cl76185  -3.319   2.771   6.062 -0.2927  0.0696  0.3286
  565MOL0     C76186  -1.978   2.908   6.268 -0.8911  0.0256 -0.0456
  565MOL0     C76187  -1.859   2.924   6.343 -0.0511 -0.1178 -1.4410
  565MOL0     O76188  -1.613   2.878   6.478  0.4645 -0.7683  0.2232
  565MOL0     C76189  -1.398   2.971   6.628 -0.1924  0.5328  1.0563
  565MOL0     C76190  -1.290   3.015   6.703  0.0279  0.4805  0.5492
  565MOL0     N76191  -0.613   3.062   6.961  0.1565 -0.8548  0.6485
  565MOL0     N76192  -0.488   3.023   6.946 -0.0702 -0.0287 -0.1868
  565MOL0     C76193   0.637   3.229   7.047  0.5856 -0.1091  0.6435
  565MOL0     C76194   0.757   3.278   7.002 -1.3308  0.4207  0.2366
  565MOL0     C76195   1.174   3.339   6.847  0.6846 -0.3920 -0.2118
  565MOL0     C76196   1.254   3.217   6.852  0.7259 -0.1632  0.4931
  565MOL0     C76197   1.381   3.217   6.793  0.4555  0.3272 -0.6281
  565MOL0     C76198   1.430   3.323   6.714 -0.4760 -0.4760 -0.6864
  565MOL0     O76199   1.549   3.330   6.640  0.0619  0.5942  0.0002
  565MOL0     C76200   1.645   3.224   6.658  1.0926  0.1076 -0.0311
  565MOL0     C76201   1.773   3.277   6.595 -0.1260  0.5321  0.5125
  565MOL0     C76202   1.764   3.299   6.438  0.1392 -0.3410  0.2153
  565MOL0     C76203   1.749   3.168   6.349 -0.1084  0.1319 -0.7888
  565MOL0     C76204   1.854   3.078   6.388 -0.5674  0.6361  0.6716
  565MOL0     C76205   1.955   3.018   6.409 -0.0679 -0.5870 -0.3308
  565MOL0     C76206   1.348   3.434   6.703 -0.4026 -0.8175  0.0764
  565MOL0     C76207   1.226   3.444   6.767  0.1159  0.2845 -0.7423
  565MOL0     H76208   0.963   3.076   7.172  0.6882  1.5111 -0.1924
  565MOL0     H76209   0.744   2.971   7.232  3.8634  0.3382  0.1000
  565MOL0     H76210   0.518   3.220   7.302  0.4309 -0.0352  1.0642
  565MOL0     H76211   0.391   3.232   7.181  0.2999 -2.8183 -1.9129
  565MOL0     H76212   0.371   3.030   7.405 -0.1216 -0.3110  1.2812
  565MOL0     H76213   0.303   3.186   7.409  1.6400 -2.8868  3.2475
  565MOL0     H76214   0.154   3.154   7.242 -3.5107 -1.3880  2.9293
  565MOL0     H76215   0.229   3.014   7.170  3.0397 -0.5659  1.2413
  565MOL0     H76216   0.144   2.868   7.315  2.8815  0.3804  1.0672
  565MOL0     H76217   0.168   2.971   7.456 -2.4341  1.5074  1.6919
  565MOL0     H76218  -0.067   2.951   7.436  1.8109 -1.5504 -1.0648
  565MOL0     H76219  -0.031   3.111   7.371 -0.0088 -0.6382  0.0833
  565MOL0     H76220  -0.021   3.036   7.140  0.0356 -0.2016 -0.7544
  565MOL0     H76221  -0.054   2.869   7.187 -2.2216 -0.1551  0.5976
  565MOL0     H76222  -0.272   2.970   7.307  2.5552 -1.8848  1.3140
  565MOL0     H76223  -0.238   3.112   7.213 -2.4680 -0.6233 -1.5450
  565MOL0     H76224  -0.310   2.834   7.111  0.4804 -0.2777 -0.9087
  565MOL0     H76225  -0.245   2.954   7.006  0.1749  0.6255  0.5648
  565MOL0     H76226  -0.529   2.998   7.270 -0.9095  0.7173  0.5885
  565MOL0     H76227  -0.802   3.061   7.253 -0.6263  0.1240 -0.4229
  565MOL0     H76228  -0.785   3.203   7.140 -0.1312  0.4561  1.6045
  565MOL0     H76229  -0.973   2.956   7.130 -0.4617  0.0075 -2.1790
  565MOL0     H76230  -0.863   2.966   6.996 -0.4049  0.2077 -0.0432
  565MOL0     H76231  -0.947   3.204   6.956  1.6338  0.0928  2.2249
  565MOL0     H76232  -1.051   3.192   7.094 -1.3998  3.0604 -3.0046
  565MOL0     H76233  -1.166   2.997   7.006  0.1066  2.4648  3.3069
  565MOL0     H76234  -1.084   3.007   6.850 -4.0758 -0.9558 -1.4065
  565MOL0     H76235  -1.435   3.299   6.813 -3.2050  0.4527 -0.7975
  565MOL0     H76236  -1.681   3.302   6.601  1.5402  1.8473  0.2325
  565MOL0     H76237  -1.746   3.185   6.718  1.5952 -2.4783 -0.7491
  565MOL0     H76238  -1.662   3.335   6.764 -1.1423  0.2857 -0.5481
  565MOL0     H76239  -2.020   2.962   6.645 -1.6017  0.3875 -0.3673
  565MOL0     H76240  -2.207   2.922   6.517 -0.7927 -0.5711 -1.5670
  565MOL0     H76241  -2.371   2.892   6.370  0.5805  0.3530  1.4526
  565MOL0     H76242  -2.348   3.052   6.290  3.5727 -0.2667 -3.1274
  565MOL0     H76243  -2.432   2.957   6.076  0.7611 -2.7225 -1.0986
  565MOL0     H76244  -2.414   2.793   6.149 -0.8558 -1.3306  1.7352
  565MOL0     H76245  -2.589   3.017   6.248 -0.0080 -1.2711  0.0942
  565MOL0     H76246  -2.595   2.851   6.305  1.1035  1.2143  1.1545
  565MOL0     H76247  -2.676   2.942   6.023  0.0488  3.6798  3.2419
  565MOL0     H76248  -2.643   2.780   6.063 -0.8489  0.3494 -1.1200
  565MOL0     H76249  -2.854   2.962   6.190  0.2995 -0.5682  2.6079
  565MOL0     H76250  -2.809   2.799   6.249  2.1698  0.0028 -1.0931
  565MOL0     H76251  -2.889   2.864   5.960  1.6913  1.0072  0.5244
  565MOL0     H76252  -2.878   2.703   6.027  1.4319  0.4495 -2.9120
  565MOL0     H76253  -3.072   2.917   6.122 -0.1195  0.0304  0.0287
  565MOL0     H76254  -3.056   2.761   6.201 -0.9830  1.2185  1.5509
  565MOL0     H76255  -3.124   2.654   5.976 -0.0349 -1.3011  1.6720
  565MOL0     H76256  -3.145   2.821   5.910  1.8089  0.4215  0.8664
  565MOL0     H76257  -1.981   2.911   6.160  0.9347  0.7361 -0.1156
  565MOL0     H76258  -1.768   2.919   6.284 -1.0596  2.5100 -3.4480
  565MOL0     H76259  -1.374   2.887   6.564 -0.0272  1.0504  0.4323
  565MOL0     H76260  -1.198   2.958   6.699 -0.9701 -1.1705  0.4726
  565MOL0     H76261   0.538   3.259   7.015  0.5893  0.1411  0.8661
  565MOL0     H76262   0.759   3.347   6.918  3.5444  0.4653  0.1029
  565MOL0     H76263   1.221   3.129   6.907 -1.7196 -1.0813 -2.2255
  565MOL0     H76264   1.445   3.130   6.801  0.1964  0.2757  1.1077
  565MOL0     H76265   1.664   3.220   6.766  2.1451 -0.6724 -0.2201
  565MOL0     H76266   1.608   3.127   6.624  0.4963  0.0751  0.7029
  565MOL0     H76267   1.851   3.210   6.632 -1.9403 -3.3259 -2.0120
  565MOL0     H76268   1.791   3.380   6.627 -4.0276  1.4214  0.3356
  565MOL0     H76269   1.854   3.354   6.409 -0.6960  0.2365 -1.3833
  565MOL0     H76270   1.683   3.370   6.418  1.1317  0.2671 -1.9171
  565MOL0     H76271   1.747   3.198   6.244 -2.2671  1.6605 -0.3691
  565MOL0     H76272   1.651   3.121   6.363  0.0061 -0.1493 -0.9187
  565MOL0     H76273   2.049   2.985   6.450  0.1823  1.1112  0.5651
  565MOL0     H76274   1.382   3.510   6.633  0.3953  1.3456  2.6670
  565MOL0     H76275   1.162   3.530   6.753  1.6195  1.9390  1.7727
  566MOL0     O76276   9.856  10.552   1.277  0.0301  0.2475  0.4155
  566MOL0     C76277   9.973  10.583   1.261  0.6472  0.7363  0.0228
  566MOL0     O76278  10.011  10.695   1.192 -0.2148 -0.0060 -0.1613
  566MOL0     C76279   9.925  10.782   1.125  0.2077  0.0502  0.2269
  566MOL0     C76280   9.800  10.819   1.179 -0.4029 -1.0039  0.2320
  566MOL0     C76281   9.715  10.910   1.104  0.2826 -0.2647  0.8373
  566MOL0     C76282   9.758  10.969   0.986 -0.6685 -0.3082  0.1314
  566MOL0     O76283   9.665  11.047   0.913  0.8941  0.4940  0.0382
  566MOL0     C76284   9.717  11.124   0.803  0.0894 -0.4660 -0.0110
  566MOL0     C76285   9.599  11.222   0.761  0.2278 -0.6740  0.0542
  566MOL0     C76286   9.642  11.313   0.652  0.8134 -0.0833 -0.0727
  566MOL0     C76287   9.540  11.416   0.606 -0.0486  0.8623  0.1501
  566MOL0     C76288   9.580  11.509   0.501 -0.3250 -0.0493  0.5853
  566MOL0     C76289   9.717  11.587   0.525 -0.3900  0.6038  0.6844
  566MOL0     C76290   9.750  11.680   0.413 -0.0702  0.0445 -0.0372
  566MOL0     C76291   9.891  11.718   0.379  0.5475  0.6011 -0.0271
  566MOL0     N76292   9.966  11.749   0.498 -0.5484  0.2667  0.0370
  566MOL0     C76293   9.973  11.863   0.562 -0.2698  0.0311 -0.3554
  566MOL0     C76294  10.069  11.850   0.652  0.1213 -0.1036 -0.1508
  566MOL0     C76295  10.138  11.941   0.741  0.5947 -0.0802  0.4385
  566MOL0     C76296  10.220  12.039   0.662  0.3644  0.1962 -0.0789
  566MOL0     C76297  10.308  11.971   0.557 -0.3356 -0.2525 -0.8438
  566MOL0     C76298  10.409  11.871   0.619 -0.1353  0.3880  0.6582
  566MOL0     O76299  10.517  11.953   0.688  0.0207  0.2719 -0.3609
  566MOL0     C76300  10.585  11.883   0.793 -0.2545 -0.0894 -0.3361
  566MOL0     C76301  10.582  11.928   0.918 -0.0528  0.7317  0.8713
  566MOL0     C76302  10.644  11.867   1.022 -0.5433  0.1515  0.0732
  566MOL0     C76303  10.616  11.932   1.152 -0.6840 -0.2188  0.4737
  566MOL0     C76304  10.734  11.755   1.001  0.3286 -1.2584 -0.2586
  566MOL0     C76305  10.809  11.696   1.111 -0.0023  0.2565  0.1972
  566MOL0     O76306  10.828  11.561   1.098 -0.4432  0.2007  0.4803
  566MOL0     C76307  10.911  11.508   1.194  0.4603 -0.0426  0.3162
  566MOL0     C76308  10.854  11.441   1.298 -0.0942 -0.0513  0.0664
  566MOL0     C76309  10.935  11.370   1.384 -0.0534 -0.2108  0.6186
  566MOL0     C76310  11.074  11.365   1.371 -0.2921  0.0329 -0.5369
  566MOL0     O76311  11.145  11.310   1.468 -0.9052  0.2242 -0.7710
  566MOL0     C76312  11.242  11.206   1.440  0.0880 -0.1750 -0.5701
  566MOL0     C76313  11.315  11.186   1.570 -0.0913 -0.1503  0.4275
  566MOL0     C76314  11.410  11.308   1.588 -0.2914 -0.0580  0.0342
  566MOL0     C76315  11.444  11.319   1.739 -0.1162 -0.1210  0.1958
  566MOL0     C76316  11.520  11.451   1.787 -0.4056 -0.2576  1.4397
  566MOL0     C76317  11.638  11.486   1.690 -0.2978 -0.3750 -0.2009
  566MOL0     C76318  11.751  11.388   1.672 -0.9690 -1.1669 -0.9957
  566MOL0     C76319  11.855  11.401   1.792  0.6396  1.1072 -0.2802
  566MOL0    Cl76320  11.974  11.524   1.765  0.0565  0.5040  0.3130
  566MOL0     C76321  11.128  11.422   1.250  1.0805  0.2470  0.1151
  566MOL0     C76322  11.045  11.499   1.162 -0.2405  0.2317 -0.2242
  566MOL0     O76323  10.870  11.767   1.194 -0.0841 -0.5000  1.2184
  566MOL0     C76324  10.744  11.706   0.865  0.4950 -0.1304 -0.1027
  566MOL0     C76325  10.670  11.769   0.766  0.5222 -0.0843 -0.4352
  566MOL0     N76326  10.108  11.719   0.663 -0.2440  0.9511  0.7436
  566MOL0     N76327  10.036  11.655   0.572  0.1056  0.1292 -0.0110
  566MOL0     C76328   9.890  10.935   0.942 -0.4151 -0.1871 -0.0766
  566MOL0     C76329   9.963  10.836   1.003 -0.2294  0.1335  0.1022
  566MOL0     C76330  10.072  10.482   1.302  1.3755 -0.3850 -0.2631
  566MOL0     C76331  10.033  10.347   1.353  0.0825 -0.3278 -0.2674
  566MOL0     C76332  10.127  10.251   1.376 -0.7531 -0.2392  0.4781
  566MOL0     C76333  10.262  10.282   1.365  0.0961 -0.0741  0.0055
  566MOL0     O76334  10.365  10.201   1.402 -0.2468  0.1438  0.0084
  566MOL0     C76335  10.347  10.065   1.429 -0.6386  0.4852  0.9025
  566MOL0     C76336  10.480   9.990   1.446  0.0621  0.0203  0.1543
  566MOL0     C76337  10.565   9.964   1.324  0.9535  0.0406 -0.0384
  566MOL0     C76338  10.661  10.077   1.290  0.3040 -0.4944  0.6282
  566MOL0     C76339  10.716  10.046   1.156 -0.1746  0.2141 -0.7530
  566MOL0     C76340  10.765  10.022   1.049  0.2000 -0.4503  0.6390
  566MOL0     C76341  10.299  10.408   1.304 -0.0689 -0.2944 -0.2560
  566MOL0     C76342  10.208  10.507   1.270  1.0409 -0.4628  0.2206
  566MOL0     H76343   9.764  10.789   1.277 -0.7676  0.6619  0.6372
  566MOL0     H76344   9.623  10.941   1.152 -0.2021  0.3726 -0.4847
  566MOL0     H76345   9.811  11.172   0.832  0.6058 -2.4329  1.7645
  566MOL0     H76346   9.744  11.056   0.722  0.5881 -1.4761  0.9781
  566MOL0     H76347   9.514  11.158   0.736 -0.6617 -0.1435  1.6024
  566MOL0     H76348   9.578  11.272   0.857  0.0856 -3.2719  1.4622
  566MOL0     H76349   9.731  11.358   0.697 -0.2376 -0.2013  2.2401
  566MOL0     H76350   9.674  11.262   0.561 -2.0428  1.5927 -2.1808
  566MOL0     H76351   9.457  11.359   0.563  1.0638 -1.6764  1.1794
  566MOL0     H76352   9.499  11.470   0.692  1.4743  0.1538  1.3696
  566MOL0     H76353   9.592  11.453   0.408  1.2515  0.7817  0.2437
  566MOL0     H76354   9.490  11.571   0.497 -0.6490 -0.3727  2.1334
  566MOL0     H76355   9.711  11.634   0.624 -0.8027  0.9480  0.5026
  566MOL0     H76356   9.803  11.520   0.533  0.0416  1.3382  2.8283
  566MOL0     H76357   9.707  11.642   0.320  2.4073  0.7018 -1.5678
  566MOL0     H76358   9.694  11.772   0.432  0.3399 -0.2100  2.7834
  566MOL0     H76359   9.883  11.798   0.305  1.3350  0.7670  0.0583
  566MOL0     H76360   9.953  11.644   0.326  1.6975  0.2904  1.6786
  566MOL0     H76361   9.931  11.957   0.526  1.8583  0.4321 -2.0453
  566MOL0     H76362  10.063  12.001   0.794  1.0529 -0.3665  1.4245
  566MOL0     H76363  10.208  11.891   0.808 -0.3852 -2.8847 -0.5074
  566MOL0     H76364  10.271  12.105   0.734  2.1104 -1.0001 -0.1695
  566MOL0     H76365  10.159  12.110   0.605  0.3212 -0.5829 -1.0123
  566MOL0     H76366  10.365  12.055   0.517 -0.5782  1.0632  1.4173
  566MOL0     H76367  10.244  11.915   0.488  2.7355 -3.3778 -1.4419
  566MOL0     H76368  10.449  11.821   0.530  4.1875  1.2907  1.8267
  566MOL0     H76369  10.369  11.792   0.683 -1.7731  0.5237 -0.1565
  566MOL0     H76370  10.522  12.018   0.920  0.0716  0.8327  0.2382
  566MOL0     H76371  10.692  12.009   1.166 -0.1066 -0.8910  1.1741
  566MOL0     H76372  10.519  11.981   1.140 -0.0405  1.0745  0.4028
  566MOL0     H76373  10.618  11.858   1.232 -0.2179 -0.5974  0.1161
  566MOL0     H76374  10.748  11.440   1.321 -0.4794  1.6360 -1.3342
  566MOL0     H76375  10.884  11.323   1.468 -1.6586  0.9106  0.3153
  566MOL0     H76376  11.190  11.113   1.414 -1.2603  0.9519 -2.1347
  566MOL0     H76377  11.311  11.242   1.363  1.4929  2.1374  1.6165
  566MOL0     H76378  11.243  11.182   1.652  1.0156 -0.0421  1.4204
  566MOL0     H76379  11.378  11.096   1.567  1.6688  0.8914 -4.4210
  566MOL0     H76380  11.365  11.398   1.544 -2.8694 -1.0271  0.5346
  566MOL0     H76381  11.498  11.305   1.522 -1.7399  1.5351 -2.1158
  566MOL0     H76382  11.353  11.305   1.799 -0.7700 -3.3747 -1.3214
  566MOL0     H76383  11.513  11.236   1.753  2.1622  2.1160  3.3896
  566MOL0     H76384  11.564  11.448   1.887  1.6402 -1.1254  0.5784
  566MOL0     H76385  11.453  11.536   1.770  2.2241  1.3880 -2.2125
  566MOL0     H76386  11.602  11.503   1.588  1.8161 -1.0580 -1.1203
  566MOL0     H76387  11.690  11.579   1.711  1.3381 -0.7124 -2.3745
  566MOL0     H76388  11.801  11.400   1.576  1.0215 -1.6555 -0.0878
  566MOL0     H76389  11.715  11.285   1.683  1.3087 -1.8998  0.3940
  566MOL0     H76390  11.896  11.302   1.814 -2.2174  0.1386  1.2059
  566MOL0     H76391  11.800  11.426   1.883 -2.8876 -0.7757 -1.7000
  566MOL0     H76392  11.237  11.422   1.244  1.2414 -0.8326  2.1749
  566MOL0     H76393  11.100  11.549   1.083  1.2975 -1.4556 -0.2825
  566MOL0     H76394  10.817  11.628   0.848  0.4123  0.3802 -3.3755
  566MOL0     H76395  10.683  11.728   0.667  1.6343  1.4891 -0.9684
  566MOL0     H76396   9.918  10.972   0.844 -4.2047  1.7161 -0.6167
  566MOL0     H76397  10.060  10.801   0.970  0.2558  2.6628 -1.3413
  566MOL0     H76398   9.929  10.329   1.376 -0.2457  0.2355 -1.2543
  566MOL0     H76399  10.090  10.158   1.419  1.3645 -0.4806  1.9057
  566MOL0     H76400  10.282  10.050   1.516  0.5861 -2.9821  1.3794
  566MOL0     H76401  10.293  10.016   1.347  0.7985  0.8967 -0.3482
  566MOL0     H76402  10.464   9.896   1.499 -0.5414  0.6416  1.1042
  566MOL0     H76403  10.528  10.049   1.525 -1.3037 -1.4559  2.1834
  566MOL0     H76404  10.498   9.946   1.240 -0.8123 -2.3487  1.7728
  566MOL0     H76405  10.629   9.876   1.336  0.5529 -0.5958 -2.2818
  566MOL0     H76406  10.747  10.081   1.358  0.7724 -0.0247  0.0169
  566MOL0     H76407  10.615  10.175   1.286  0.4255 -0.4662 -0.5742
  566MOL0     H76408  10.802   9.999   0.951  1.8269 -1.1788  1.3909
  566MOL0     H76409  10.403  10.422   1.278  0.5014 -1.0271  1.4509
  566MOL0     H76410  10.240  10.601   1.227  0.0013 -0.4090 -0.4769
  567MOL0     O76411   8.442   4.776   1.097 -0.1371 -0.8328 -0.4806
  567MOL0     C76412   8.538   4.832   1.147 -0.4018  0.3393  0.2810
  567MOL0     O76413   8.556   4.961   1.173 -0.8690  0.4809  0.5531
  567MOL0     C76414   8.460   5.050   1.180 -0.5663  0.1710  0.6871
  567MOL0     C76415   8.339   5.050   1.113  0.7956 -0.4979 -0.0140
  567MOL0     C76416   8.260   5.166   1.120 -0.2039 -0.0998  0.5691
  567MOL0     C76417   8.295   5.274   1.191 -0.7862 -0.0800  0.0994
  567MOL0     O76418   8.222   5.382   1.216  0.9459  0.1383 -0.0473
  567MOL0     C76419   8.071   5.367   1.236 -0.6423 -0.0099  0.5298
  567MOL0     C76420   8.022   5.360   1.381  0.1792 -0.1314  0.6459
  567MOL0     C76421   8.055   5.500   1.455 -0.0573 -0.2149  0.2952
  567MOL0     C76422   7.990   5.521   1.595 -0.9759  0.0704 -0.4421
  567MOL0     C76423   8.034   5.421   1.708  0.1438  0.2780 -0.6527
  567MOL0     C76424   7.980   5.450   1.843  0.0794 -0.5824 -0.5291
  567MOL0     C76425   8.040   5.362   1.956 -0.4517 -0.6015 -0.2532
  567MOL0     C76426   7.983   5.396   2.094  0.4400 -0.1145  0.7770
  567MOL0     N76427   7.835   5.387   2.108 -0.6341 -1.0451 -0.6640
  567MOL0     C76428   7.753   5.274   2.111 -0.8633  0.1793 -0.3917
  567MOL0     C76429   7.624   5.324   2.130 -0.9556 -0.4991  0.3145
  567MOL0     C76430   7.498   5.246   2.145 -0.7357  0.6255 -0.3683
  567MOL0     C76431   7.514   5.119   2.233  0.4426 -0.1789  0.0100
  567MOL0     C76432   7.398   5.019   2.229 -0.8016 -0.7358  0.2762
  567MOL0     C76433   7.275   5.076   2.300 -0.3070 -0.4000 -0.9280
  567MOL0     O76434   7.179   4.967   2.322 -0.4227 -0.3468 -0.1307
  567MOL0     C76435   7.067   4.960   2.239  0.4186 -0.1352 -0.1702
  567MOL0     C76436   7.062   5.007   2.107 -0.7067  0.4910  0.1500
  567MOL0     C76437   6.951   4.996   2.028 -0.0334  0.1248 -0.6596
  567MOL0     C76438   6.950   5.032   1.882 -0.3539 -0.4120  0.1232
  567MOL0     C76439   6.830   4.950   2.087 -0.5246 -0.3696  0.2091
  567MOL0     C76440   6.688   4.964   2.023  0.0019  0.4557 -0.2765
  567MOL0     O76441   6.592   4.885   2.078 -0.1541  0.4848  0.2984
  567MOL0     C76442   6.468   4.880   2.015 -0.6720  0.4929 -0.2787
  567MOL0     C76443   6.453   4.855   1.882 -0.1547 -0.3548  0.5982
  567MOL0     C76444   6.329   4.865   1.814 -0.0735 -0.1206 -0.4229
  567MOL0     C76445   6.218   4.898   1.890  1.0529  0.0648  0.6233
  567MOL0     O76446   6.096   4.914   1.826 -0.4591 -0.8340 -0.2087
  567MOL0     C76447   5.966   4.897   1.887 -0.0063 -0.4720 -0.2301
  567MOL0     C76448   5.870   4.849   1.770 -0.8349  0.1262 -0.4498
  567MOL0     C76449   5.724   4.839   1.815 -0.0207 -0.3815 -0.6034
  567MOL0     C76450   5.699   4.744   1.937  0.2020 -0.6427 -0.0763
  567MOL0     C76451   5.551   4.701   1.938  0.0766  0.6273  0.3107
  567MOL0     C76452   5.521   4.616   2.056 -0.2814  0.1215 -0.6990
  567MOL0     C76453   5.372   4.618   2.110 -0.7274  0.5849  0.0680
  567MOL0     C76454   5.329   4.754   2.162 -0.5718 -0.0025  0.1808
  567MOL0    Cl76455   5.406   4.824   2.310 -0.3746  0.0009 -0.0986
  567MOL0     C76456   6.230   4.914   2.027  0.3180 -0.6014 -0.0143
  567MOL0     C76457   6.352   4.908   2.090  0.6415  0.4238 -0.4813
  567MOL0     O76458   6.662   5.060   1.943 -0.7416 -0.5103  0.2646
  567MOL0     C76459   6.831   4.905   2.219 -0.0489 -0.5892 -0.1967
  567MOL0     C76460   6.949   4.905   2.294  0.1224  0.4091  0.1090
  567MOL0     N76461   7.636   5.461   2.156 -0.2665  0.5799  0.5760
  567MOL0     N76462   7.764   5.498   2.125  0.8554  0.2309  1.0636
  567MOL0     C76463   8.422   5.274   1.254 -0.7070 -0.3722  0.2782
  567MOL0     C76464   8.512   5.168   1.237  0.3272 -0.0940  0.5846
  567MOL0     C76465   8.650   4.740   1.188 -1.2411 -0.5342  0.6380
  567MOL0     C76466   8.660   4.604   1.143  0.4902  1.0786  0.3782
  567MOL0     C76467   8.754   4.513   1.198  1.2287  0.1068  0.3425
  567MOL0     C76468   8.849   4.560   1.291  0.2358 -0.7732 -0.1261
  567MOL0     O76469   8.947   4.481   1.353 -0.5310 -0.3001  0.2065
  567MOL0     C76470   9.031   4.397   1.273  0.3275 -0.6080 -0.2651
  567MOL0     C76471   9.160   4.468   1.256  0.1101  0.0741  0.5506
  567MOL0     C76472   9.149   4.597   1.179  0.8505 -0.4339 -0.1703
  567MOL0     C76473   9.292   4.645   1.152 -0.3657 -0.1518  0.1362
  567MOL0     C76474   9.289   4.764   1.072 -0.7022 -0.4275 -0.0212
  567MOL0     C76475   9.292   4.873   1.016 -0.2537  0.5585 -0.4380
  567MOL0     C76476   8.835   4.694   1.339  0.3089 -0.5632  0.9661
  567MOL0     C76477   8.742   4.782   1.285  0.6865 -0.0768 -0.1253
  567MOL0     H76478   8.299   4.967   1.055 -2.7215 -1.4047  3.3180
  567MOL0     H76479   8.175   5.165   1.053  2.2235  0.2532 -2.8378
  567MOL0     H76480   8.029   5.452   1.181  1.3954  1.3241  0.9313
  567MOL0     H76481   8.046   5.278   1.179  1.3527  0.4985 -1.2979
  567MOL0     H76482   7.914   5.342   1.370  0.4127 -1.0799 -0.2432
  567MOL0     H76483   8.066   5.274   1.432  0.8322 -1.4110 -1.9140
  567MOL0     H76484   8.163   5.500   1.473 -0.0365  0.5498  0.2341
  567MOL0     H76485   8.030   5.585   1.391  2.7898 -0.7725 -1.7798
  567MOL0     H76486   8.023   5.616   1.637 -0.9583 -0.3944  0.6558
  567MOL0     H76487   7.881   5.526   1.587 -0.8215  0.0053 -4.5410
  567MOL0     H76488   7.994   5.326   1.672 -3.4840  1.3397  0.1526
  567MOL0     H76489   8.143   5.424   1.712  0.1430  0.0265  2.6518
  567MOL0     H76490   8.000   5.551   1.880 -1.9027 -0.3792  0.0954
  567MOL0     H76491   7.871   5.447   1.832 -0.2756  0.0781  2.1115
  567MOL0     H76492   8.030   5.254   1.945  1.6113 -0.8466 -0.1018
  567MOL0     H76493   8.146   5.384   1.966 -0.4215 -1.7413  3.2933
  567MOL0     H76494   8.016   5.496   2.124  0.0427  0.4560 -0.6012
  567MOL0     H76495   8.023   5.326   2.167  2.4291  0.8967  0.7301
  567MOL0     H76496   7.782   5.171   2.092  0.0672  0.7997 -2.5830
  567MOL0     H76497   7.424   5.312   2.192  0.1365 -0.4033  2.6934
  567MOL0     H76498   7.467   5.213   2.046  1.8562  1.9818 -1.7395
  567MOL0     H76499   7.534   5.154   2.335 -0.5534  0.2251  0.0772
  567MOL0     H76500   7.605   5.070   2.197  0.8066  1.3775 -1.2664
  567MOL0     H76501   7.437   4.928   2.276  0.8875 -0.5155 -0.6134
  567MOL0     H76502   7.368   4.985   2.130 -2.1337  1.1444 -0.0104
  567MOL0     H76503   7.229   5.153   2.238 -4.4469 -0.0601  2.1537
  567MOL0     H76504   7.298   5.127   2.394 -1.5843  0.6119 -1.1477
  567MOL0     H76505   7.160   5.038   2.073 -0.3139 -2.6563 -1.9434
  567MOL0     H76506   6.935   5.140   1.875 -2.9973 -0.7290  0.0605
  567MOL0     H76507   7.043   5.006   1.831 -0.1384 -0.0135  0.3072
  567MOL0     H76508   6.872   4.981   1.826  0.7009 -0.2734 -1.5477
  567MOL0     H76509   6.541   4.842   1.819  0.6268  2.9740  0.8098
  567MOL0     H76510   6.321   4.845   1.708 -0.0649  1.3638 -0.7163
  567MOL0     H76511   5.959   4.825   1.969  2.0811 -0.6952 -0.2012
  567MOL0     H76512   5.944   4.997   1.926  0.5189  0.0560 -1.2237
  567MOL0     H76513   5.884   4.928   1.696  0.0711  2.1800  1.7937
  567MOL0     H76514   5.899   4.747   1.741  2.5777  0.7508  0.3506
  567MOL0     H76515   5.674   4.789   1.731  1.3714 -3.1850  0.1212
  567MOL0     H76516   5.693   4.942   1.834  0.9038 -0.5060  1.9434
  567MOL0     H76517   5.755   4.652   1.918 -0.3453 -0.9309 -0.3132
  567MOL0     H76518   5.728   4.782   2.036 -1.7301  0.4377  0.1195
  567MOL0     H76519   5.522   4.654   1.844  2.3122  0.2126 -0.2313
  567MOL0     H76520   5.487   4.790   1.940 -1.8962 -0.7442  1.6086
  567MOL0     H76521   5.535   4.513   2.023 -0.5468 -0.3881  0.7234
  567MOL0     H76522   5.588   4.633   2.141 -0.6859  3.0948 -0.8474
  567MOL0     H76523   5.358   4.532   2.177 -1.7659 -1.3253 -2.4264
  567MOL0     H76524   5.297   4.590   2.035  1.1053 -0.9881 -1.2493
  567MOL0     H76525   5.227   4.738   2.197 -0.5154 -1.8252 -0.4103
  567MOL0     H76526   5.320   4.820   2.075 -0.6868 -2.1835 -1.5553
  567MOL0     H76527   6.141   4.926   2.088 -0.6463  0.4737 -1.5832
  567MOL0     H76528   6.370   4.925   2.196 -1.6146  1.5686 -0.2292
  567MOL0     H76529   6.739   4.876   2.268  0.1768 -0.9458  0.0213
  567MOL0     H76530   6.943   4.870   2.397 -0.0897 -0.6594 -0.2578
  567MOL0     H76531   8.444   5.350   1.328 -0.7530 -0.4024  0.3234
  567MOL0     H76532   8.613   5.172   1.276  0.8698 -2.7772 -0.3703
  567MOL0     H76533   8.585   4.555   1.082 -1.2776  1.3652  2.2274
  567MOL0     H76534   8.756   4.407   1.179  2.6611  0.3635 -1.2051
  567MOL0     H76535   9.051   4.301   1.321 -1.9566 -0.1789  1.6813
  567MOL0     H76536   8.978   4.369   1.181 -1.4599 -2.1833  1.1872
  567MOL0     H76537   9.236   4.400   1.215  2.2029  2.9994 -0.7264
  567MOL0     H76538   9.198   4.490   1.356  0.2376  1.1165  0.2791
  567MOL0     H76539   9.091   4.666   1.242  3.1580  1.8372 -0.3366
  567MOL0     H76540   9.090   4.585   1.088  2.0072 -2.7529 -0.6779
  567MOL0     H76541   9.360   4.571   1.108  0.3509 -0.4645  1.7082
  567MOL0     H76542   9.326   4.674   1.252 -2.0513 -0.5158  0.8460
  567MOL0     H76543   9.307   4.969   0.970 -1.7355  1.2968  0.5758
  567MOL0     H76544   8.905   4.729   1.414  0.4429  1.8197 -0.1667
  567MOL0     H76545   8.739   4.883   1.324 -1.1526  0.2790 -1.0834
  568MOL0     O76546   2.391   9.371   3.976 -0.4107 -0.4448 -0.1863
  568MOL0     C76547   2.381   9.294   3.885 -0.1954  0.0210  0.2267
  568MOL0     O76548   2.266   9.242   3.826  0.1352  0.2733 -0.0494
  568MOL0     C76549   2.143   9.263   3.878  0.3133  0.5252 -0.0006
  568MOL0     C76550   2.113   9.286   4.015  0.4288 -0.0802  0.9793
  568MOL0     C76551   1.979   9.309   4.059  0.0468 -0.0134  0.2015
  568MOL0     C76552   1.867   9.301   3.973  0.0361 -0.1226 -0.4704
  568MOL0     O76553   1.737   9.313   4.007 -0.0571 -0.0482 -0.0702
  568MOL0     C76554   1.696   9.398   4.109 -0.4010  0.6026 -0.3735
  568MOL0     C76555   1.551   9.452   4.085  0.0935 -0.3934 -0.4020
  568MOL0     C76556   1.440   9.355   4.110  0.5405 -0.6549  0.2709
  568MOL0     C76557   1.302   9.419   4.099 -0.5466  0.3009  0.5245
  568MOL0     C76558   1.204   9.309   4.129  0.9250  0.3757  0.1871
  568MOL0     C76559   1.063   9.364   4.106  0.5017 -0.2888 -0.1224
  568MOL0     C76560   0.954   9.252   4.122 -0.0193  0.5124 -0.1348
  568MOL0     C76561   0.820   9.316   4.087 -0.0849 -1.2413 -0.0481
  568MOL0     N76562   0.700   9.241   4.091  0.7366  0.1456  0.3704
  568MOL0     C76563   0.672   9.126   4.032  0.1991  0.5638 -0.4198
  568MOL0     C76564   0.536   9.116   4.024  0.2288 -0.3086  0.2693
  568MOL0     C76565   0.466   9.003   3.965 -0.2846  0.3684  0.6285
  568MOL0     C76566   0.354   8.953   4.058 -0.0859 -0.7062  0.5871
  568MOL0     C76567   0.267   8.850   4.002  0.7449 -0.1558 -0.2820
  568MOL0     C76568   0.136   8.827   4.069  0.0976 -0.1295  0.6806
  568MOL0     O76569   0.040   8.935   4.038  0.4693  0.6398  0.3526
  568MOL0     C76570  -0.086   8.921   4.089 -0.2057 -0.4377  0.0214
  568MOL0     C76571  -0.178   9.020   4.052  0.7953  0.0534 -0.4271
  568MOL0     C76572  -0.309   9.021   4.100 -0.5098 -0.1813 -0.1251
  568MOL0     C76573  -0.399   9.130   4.056  1.3775  0.4220  0.0845
  568MOL0     C76574  -0.359   8.910   4.168 -0.3609 -0.0360 -1.4703
  568MOL0     C76575  -0.496   8.887   4.226  0.2167 -0.6676  0.1022
  568MOL0     O76576  -0.555   8.995   4.293 -0.5775 -0.3538 -0.6873
  568MOL0     C76577  -0.684   8.976   4.347  0.3546 -0.8562 -0.1367
  568MOL0     C76578  -0.771   9.087   4.351  0.6261 -0.2958 -0.3986
  568MOL0     C76579  -0.900   9.083   4.409 -1.0451  0.0548 -0.0106
  568MOL0     C76580  -0.945   8.961   4.464  0.0500 -0.4659 -0.0288
  568MOL0     O76581  -1.073   8.976   4.517 -0.4691 -0.0529 -0.1469
  568MOL0     C76582  -1.128   8.862   4.597  0.0943  1.1354  0.3792
  568MOL0     C76583  -1.244   8.918   4.680  0.1945  0.3469 -0.5992
  568MOL0     C76584  -1.331   8.810   4.753  0.1237  0.4837 -0.1233
  568MOL0     C76585  -1.458   8.872   4.813 -0.3651  0.1853  0.5286
  568MOL0     C76586  -1.575   8.771   4.836 -0.0171  0.5246 -0.4456
  568MOL0     C76587  -1.674   8.826   4.927 -0.8477 -1.0989 -1.0110
  568MOL0     C76588  -1.804   8.742   4.936 -0.1045  0.1919  0.1170
  568MOL0     C76589  -1.803   8.634   5.045 -0.1199  0.1196 -0.5296
  568MOL0    Cl76590  -1.951   8.544   5.038 -0.0287  0.1634  0.1311
  568MOL0     C76591  -0.859   8.854   4.469 -0.1872  0.0378  0.3473
  568MOL0     C76592  -0.727   8.859   4.416  0.6869  0.2293 -0.7223
  568MOL0     O76593  -0.549   8.773   4.206 -0.1880 -0.9489 -0.0361
  568MOL0     C76594  -0.271   8.807   4.205 -1.3713 -0.4480  0.4515
  568MOL0     C76595  -0.131   8.813   4.164 -0.0697 -0.1585 -0.2318
  568MOL0     N76596   0.483   9.228   4.087 -0.0792  0.3488  0.2481
  568MOL0     N76597   0.580   9.304   4.117  0.3631  0.2179  0.3442
  568MOL0     C76598   1.900   9.267   3.838  0.4192  0.2737 -0.2085
  568MOL0     C76599   2.031   9.250   3.797 -0.0304 -0.2480 -0.0126
  568MOL0     C76600   2.501   9.231   3.817  1.1053 -0.5482 -0.5325
  568MOL0     C76601   2.504   9.124   3.722  0.2073  0.3199 -0.4187
  568MOL0     C76602   2.622   9.089   3.652  0.1640  1.0012  0.0743
  568MOL0     C76603   2.746   9.147   3.687 -0.9290 -0.7022 -0.5812
  568MOL0     O76604   2.867   9.126   3.623 -0.4395  0.5102  0.1648
  568MOL0     C76605   2.879   9.027   3.514 -0.5134 -0.5558  0.9565
  568MOL0     C76606   2.940   8.893   3.559  1.1227 -0.0069 -0.6697
  568MOL0     C76607   3.092   8.897   3.591  0.2203 -0.4313  0.4574
  568MOL0     C76608   3.165   8.767   3.625 -0.7579 -0.0307  0.6440
  568MOL0     C76609   3.288   8.778   3.701  1.3146  0.0829 -0.2649
  568MOL0     C76610   3.391   8.779   3.772  0.4729 -0.5043  0.4038
  568MOL0     C76611   2.744   9.251   3.786  0.8087 -0.1446 -0.0984
  568MOL0     C76612   2.628   9.293   3.847  0.8024 -0.0349 -0.5291
  568MOL0     H76613   2.190   9.279   4.091  0.1916 -1.1005  1.1350
  568MOL0     H76614   1.962   9.327   4.165  0.0570 -0.8569  0.3514
  568MOL0     H76615   1.712   9.364   4.212  2.3944  1.3511 -0.4855
  568MOL0     H76616   1.768   9.479   4.125  0.1179 -0.1134  1.1077
  568MOL0     H76617   1.531   9.525   4.164 -0.1594 -0.9849  0.0913
  568MOL0     H76618   1.549   9.490   3.983  1.8853 -1.7512 -0.9944
  568MOL0     H76619   1.444   9.283   4.027 -1.5521 -0.7592  0.2124
  568MOL0     H76620   1.449   9.304   4.206 -1.2659 -2.9443 -0.6742
  568MOL0     H76621   1.294   9.498   4.175  0.9043  0.1949  0.8105
  568MOL0     H76622   1.294   9.465   4.001  0.8695  0.7633  0.6002
  568MOL0     H76623   1.224   9.217   4.072 -0.5092  1.0122 -1.4444
  568MOL0     H76624   1.207   9.289   4.236 -0.1908 -0.1407  0.1373
  568MOL0     H76625   1.048   9.444   4.179  2.7359  1.5954 -1.5681
  568MOL0     H76626   1.041   9.418   4.013 -2.2001 -0.1883  0.4901
  568MOL0     H76627   0.971   9.180   4.041  2.0733  1.4705 -0.6146
  568MOL0     H76628   0.947   9.217   4.225  2.5533 -2.3268 -0.7832
  568MOL0     H76629   0.835   9.360   3.989  2.5197 -1.0817  0.3637
  568MOL0     H76630   0.801   9.404   4.151  1.8886 -0.5787 -0.3142
  568MOL0     H76631   0.751   9.072   3.982  1.7790  2.4056 -0.0292
  568MOL0     H76632   0.418   9.036   3.873 -3.4872 -0.7573  1.7389
  568MOL0     H76633   0.540   8.929   3.934  1.5970  1.6059  1.9465
  568MOL0     H76634   0.300   9.036   4.104  0.3748 -0.4079  0.5947
  568MOL0     H76635   0.397   8.901   4.143 -0.0746  2.1345  2.4349
  568MOL0     H76636   0.332   8.761   4.007  1.1800  0.2081  2.2351
  568MOL0     H76637   0.241   8.884   3.902 -2.6346  0.8189  0.8018
  568MOL0     H76638   0.155   8.816   4.177  1.8840 -0.0027  0.4227
  568MOL0     H76639   0.093   8.732   4.035  2.5069 -1.3401  0.7378
  568MOL0     H76640  -0.144   9.105   3.993  0.3758 -0.9944 -2.2630
  568MOL0     H76641  -0.506   9.105   4.055  1.2585  0.9191  0.1193
  568MOL0     H76642  -0.395   9.218   4.122 -0.3849 -1.0659  2.3241
  568MOL0     H76643  -0.372   9.153   3.952 -0.2501 -1.2696 -0.7737
  568MOL0     H76644  -0.738   9.184   4.313  0.3889 -0.1046 -0.1198
  568MOL0     H76645  -0.960   9.173   4.413  1.1032  1.5855 -0.3069
  568MOL0     H76646  -1.174   8.781   4.539  1.5803  0.0541  0.6254
  568MOL0     H76647  -1.046   8.822   4.658  1.4413 -1.3457 -2.7297
  568MOL0     H76648  -1.203   8.992   4.750  0.1472  0.6439 -0.8819
  568MOL0     H76649  -1.310   8.980   4.618  0.3771  2.2973  1.0423
  568MOL0     H76650  -1.276   8.770   4.839  2.6265  2.5365 -0.6534
  568MOL0     H76651  -1.365   8.736   4.680  1.6047 -1.3155  0.9358
  568MOL0     H76652  -1.418   8.917   4.904 -0.1235  0.5979  0.2235
  568MOL0     H76653  -1.500   8.946   4.744 -1.2185 -0.5206  0.2792
  568MOL0     H76654  -1.530   8.683   4.882 -0.9951 -0.2558 -0.9478
  568MOL0     H76655  -1.616   8.732   4.742  0.4009 -1.1781  0.0391
  568MOL0     H76656  -1.640   8.854   5.027 -0.2619 -1.8194 -1.0017
  568MOL0     H76657  -1.707   8.918   4.877 -0.9687 -0.5109  0.1304
  568MOL0     H76658  -1.821   8.692   4.840  1.2871 -0.0238 -0.0348
  568MOL0     H76659  -1.886   8.813   4.949 -1.0844 -0.8626 -0.0908
  568MOL0     H76660  -1.793   8.683   5.142 -3.6787 -0.7464  0.4056
  568MOL0     H76661  -1.718   8.565   5.043  1.2833  1.5933  2.1513
  568MOL0     H76662  -0.896   8.772   4.530 -1.5092  0.0807 -0.3528
  568MOL0     H76663  -0.658   8.776   4.427 -0.2587 -0.5785 -0.6465
  568MOL0     H76664  -0.311   8.715   4.248 -0.8691  0.2264  2.4228
  568MOL0     H76665  -0.071   8.728   4.197  0.8225  0.5511  0.0221
  568MOL0     H76666   1.813   9.261   3.775  0.4109 -0.2640 -0.1494
  568MOL0     H76667   2.045   9.222   3.693  0.4419 -1.6691  0.4147
  568MOL0     H76668   2.409   9.074   3.706  0.4321 -0.4226  0.4853
  568MOL0     H76669   2.607   9.018   3.572  0.9846 -0.2262  0.9850
  568MOL0     H76670   2.786   9.010   3.460 -0.3388 -1.3493  0.8966
  568MOL0     H76671   2.947   9.075   3.442 -2.3362 -0.7836 -1.0203
  568MOL0     H76672   2.916   8.820   3.481  0.4278 -1.3671  0.7559
  568MOL0     H76673   2.881   8.860   3.645  3.2415  0.9744  1.2616
  568MOL0     H76674   3.085   8.971   3.672 -1.2300 -1.6308  1.4950
  568MOL0     H76675   3.150   8.930   3.504  0.1001 -2.0371 -0.2533
  568MOL0     H76676   3.187   8.716   3.531 -0.8981 -0.1722  0.6859
  568MOL0     H76677   3.105   8.698   3.686 -0.3457 -1.2550 -0.2900
  568MOL0     H76678   3.482   8.763   3.827  0.1322  0.7065  1.3504
  568MOL0     H76679   2.840   9.289   3.820  0.6243  2.3176 -2.0804
  568MOL0     H76680   2.636   9.364   3.929 -0.1704 -1.3768  0.7773
  569MOL0     O76681   7.435   1.693   4.046  0.0230 -1.0985  0.1147
  569MOL0     C76682   7.502   1.593   4.082 -0.1993 -0.1612  0.2060
  569MOL0     O76683   7.463   1.500   4.171  0.7521 -0.2427 -0.3379
  569MOL0     C76684   7.346   1.523   4.242  0.2130 -1.7186  0.4582
  569MOL0     C76685   7.224   1.487   4.190 -0.1571  0.8607 -0.2410
  569MOL0     C76686   7.110   1.509   4.262  0.3309 -1.0540 -0.1901
  569MOL0     C76687   7.110   1.564   4.390 -0.1012 -0.3283  0.2924
  569MOL0     O76688   6.997   1.594   4.460  0.2655 -0.0637 -0.7021
  569MOL0     C76689   6.864   1.589   4.411 -0.2592  0.3543 -0.3595
  569MOL0     C76690   6.772   1.681   4.494  0.1814 -0.5083 -0.3454
  569MOL0     C76691   6.623   1.641   4.495  0.1903 -0.1999  0.0871
  569MOL0     C76692   6.538   1.758   4.550 -0.5509  0.4079  0.5065
  569MOL0     C76693   6.390   1.713   4.559  0.4418  0.5923  0.5172
  569MOL0     C76694   6.318   1.795   4.660  0.9276 -0.4932 -0.7164
  569MOL0     C76695   6.167   1.803   4.655  0.5732  0.3681 -0.2657
  569MOL0     C76696   6.102   1.673   4.699 -0.2853 -0.1779 -0.5913
  569MOL0     N76697   5.960   1.677   4.646 -0.6843  0.0048  0.1823
  569MOL0     C76698   5.878   1.785   4.650  0.3462 -0.5953  0.4758
  569MOL0     C76699   5.762   1.745   4.603 -0.5295  0.1987  0.4784
  569MOL0     C76700   5.654   1.844   4.561 -0.4971  0.3377 -0.8353
  569MOL0     C76701   5.518   1.794   4.606 -0.5454 -0.2869  0.9849
  569MOL0     C76702   5.415   1.907   4.620  0.0449 -0.7510  0.0624
  569MOL0     C76703   5.271   1.867   4.659 -0.4195 -0.5038 -0.5033
  569MOL0     O76704   5.210   1.821   4.543  0.4643 -0.5631  0.0544
  569MOL0     C76705   5.071   1.802   4.541  0.2576  0.3775  0.4261
  569MOL0     C76706   5.008   1.753   4.653  0.3266 -0.6419 -0.4397
  569MOL0     C76707   4.868   1.730   4.654 -0.4005 -0.1597  0.0785
  569MOL0     C76708   4.811   1.685   4.773  0.4129  0.1513  0.0911
  569MOL0     C76709   4.792   1.747   4.535 -0.5280 -0.2279 -0.1526
  569MOL0     C76710   4.648   1.717   4.528  0.4183  0.0807 -0.4794
  569MOL0     O76711   4.565   1.760   4.626  0.1280 -0.3436  0.6625
  569MOL0     C76712   4.438   1.717   4.632  1.3408 -0.0894 -0.2604
  569MOL0     C76713   4.334   1.805   4.600  0.1937 -0.0805  0.1561
  569MOL0     C76714   4.203   1.755   4.622  0.2621 -0.5006  0.3896
  569MOL0     C76715   4.174   1.628   4.665 -0.3562 -0.2505  0.2232
  569MOL0     O76716   4.044   1.576   4.669  0.0885  0.2563  0.0778
  569MOL0     C76717   3.929   1.660   4.673 -0.4265 -0.8033  0.2583
  569MOL0     C76718   3.864   1.668   4.532  0.2241 -0.2208  0.1435
  569MOL0     C76719   3.750   1.768   4.518  0.0408 -0.6758 -0.6597
  569MOL0     C76720   3.630   1.752   4.614  0.8954 -0.5314  0.5150
  569MOL0     C76721   3.503   1.821   4.549 -0.1074 -0.0608 -0.1028
  569MOL0     C76722   3.369   1.808   4.619 -0.3665  0.5165  0.4256
  569MOL0     C76723   3.257   1.900   4.567 -0.6171 -0.2785  0.1358
  569MOL0     C76724   3.144   1.814   4.507  0.2944 -0.4064 -0.8974
  569MOL0    Cl76725   3.190   1.692   4.394  0.0620  0.0649  0.3042
  569MOL0     C76726   4.271   1.542   4.686  0.3060  0.1839 -0.1614
  569MOL0     C76727   4.405   1.590   4.674  0.2250  0.5971  0.7168
  569MOL0     O76728   4.614   1.648   4.427 -0.2929  0.1767  0.2353
  569MOL0     C76729   4.856   1.804   4.427 -0.1073  0.1919  0.8435
  569MOL0     C76730   4.999   1.827   4.426 -0.2407 -0.1395 -0.0057
  569MOL0     N76731   5.775   1.611   4.561 -0.0738 -0.4683  0.0706
  569MOL0     N76732   5.897   1.573   4.588 -0.2598 -0.0747 -0.5692
  569MOL0     C76733   7.227   1.604   4.438  0.0953  0.1985 -0.3342
  569MOL0     C76734   7.349   1.590   4.363 -1.0389 -0.2325  0.0283
  569MOL0     C76735   7.642   1.594   4.037 -0.0629 -0.9516  0.4525
  569MOL0     C76736   7.715   1.482   3.990  1.0805 -0.1370 -0.5987
  569MOL0     C76737   7.841   1.496   3.935 -0.3710 -0.4552 -1.0573
  569MOL0     C76738   7.907   1.620   3.931 -0.7367  0.7794 -0.7839
  569MOL0     O76739   8.034   1.614   3.869  0.2448  0.3040 -0.2278
  569MOL0     C76740   8.097   1.741   3.850  0.0748  0.3083 -0.5547
  569MOL0     C76741   8.224   1.717   3.777  0.5889 -0.4028 -0.1558
  569MOL0     C76742   8.314   1.851   3.787  0.6557 -0.8789  0.1223
  569MOL0     C76743   8.458   1.831   3.721 -0.4695 -1.0351 -0.0385
  569MOL0     C76744   8.546   1.746   3.802 -0.2168 -0.1166  0.2021
  569MOL0     C76745   8.627   1.680   3.864  0.3220  0.1045 -0.2798
  569MOL0     C76746   7.852   1.734   3.995  0.2084  0.3722  0.1338
  569MOL0     C76747   7.721   1.717   4.048  0.6903  0.2524  0.3213
  569MOL0     H76748   7.224   1.443   4.091 -0.2688  3.0931 -1.3015
  569MOL0     H76749   7.010   1.488   4.225 -0.5238  0.4627  1.1553
  569MOL0     H76750   6.853   1.606   4.304  1.1124 -3.0446 -1.1790
  569MOL0     H76751   6.835   1.484   4.425 -0.8201  0.7893  2.4154
  569MOL0     H76752   6.816   1.670   4.594  2.0092 -0.1918 -1.0702
  569MOL0     H76753   6.787   1.783   4.459  1.4889 -1.0681 -1.5428
  569MOL0     H76754   6.601   1.630   4.389  0.9228  0.9692 -0.1977
  569MOL0     H76755   6.615   1.552   4.559  1.9156  0.0431  0.7131
  569MOL0     H76756   6.563   1.788   4.652 -0.4028  1.2357  0.2292
  569MOL0     H76757   6.564   1.843   4.486  1.5725 -0.3966  0.2347
  569MOL0     H76758   6.337   1.725   4.464  1.5214  4.5946  0.2468
  569MOL0     H76759   6.385   1.606   4.583  0.2856 -0.1097 -2.3252
  569MOL0     H76760   6.341   1.760   4.761 -1.6250  1.2800  0.6013
  569MOL0     H76761   6.350   1.900   4.658 -0.8332  0.1073  0.2151
  569MOL0     H76762   6.138   1.885   4.722  0.3065  0.0428  0.0198
  569MOL0     H76763   6.125   1.826   4.557 -1.5393  0.0502  0.4974
  569MOL0     H76764   6.105   1.652   4.806 -0.0817 -0.3215 -0.6268
  569MOL0     H76765   6.161   1.592   4.655 -1.3480 -1.5053  0.3507
  569MOL0     H76766   5.901   1.889   4.672  0.1681 -1.0191  2.9002
  569MOL0     H76767   5.684   1.941   4.601  2.2193 -0.8932  0.4015
  569MOL0     H76768   5.662   1.856   4.452 -0.6787  2.8446 -0.6179
  569MOL0     H76769   5.515   1.737   4.699 -1.9009 -2.3705 -0.2414
  569MOL0     H76770   5.483   1.724   4.530 -1.6230 -0.5013  1.6618
  569MOL0     H76771   5.407   1.961   4.525 -0.0495  1.1228  1.0970
  569MOL0     H76772   5.450   1.972   4.701  1.1294  0.7248 -1.5176
  569MOL0     H76773   5.217   1.955   4.696  2.3372  1.2228 -0.2693
  569MOL0     H76774   5.275   1.788   4.734  0.9814 -0.3782 -0.4258
  569MOL0     H76775   5.063   1.715   4.739  1.1706  0.3334 -0.5221
  569MOL0     H76776   4.891   1.680   4.847  1.7194  1.7989 -1.1300
  569MOL0     H76777   4.746   1.762   4.815  0.1875 -1.0115  2.0242
  569MOL0     H76778   4.763   1.587   4.768 -0.4577  0.5441  0.6443
  569MOL0     H76779   4.348   1.902   4.552  1.8459 -1.4497 -2.3067
  569MOL0     H76780   4.116   1.815   4.597 -0.4515 -1.4131  0.6348
  569MOL0     H76781   3.865   1.624   4.754  2.5642 -1.1393  2.6969
  569MOL0     H76782   3.939   1.760   4.716 -0.7968 -1.0722  0.9795
  569MOL0     H76783   3.935   1.707   4.458 -0.2449 -0.9759 -0.7161
  569MOL0     H76784   3.827   1.571   4.499 -0.8665 -0.0999  0.9514
  569MOL0     H76785   3.722   1.771   4.412 -0.5328  1.3618 -0.4985
  569MOL0     H76786   3.800   1.864   4.537 -0.9036  0.0144 -1.5508
  569MOL0     H76787   3.617   1.644   4.621 -0.8979 -0.5026 -1.5984
  569MOL0     H76788   3.654   1.806   4.707  1.0595  1.6390 -0.7143
  569MOL0     H76789   3.494   1.780   4.448  1.7843  2.8905 -1.6107
  569MOL0     H76790   3.532   1.926   4.536  1.0824 -0.5217 -1.4220
  569MOL0     H76791   3.325   1.708   4.615 -0.5748  0.4562  2.8022
  569MOL0     H76792   3.385   1.821   4.726  2.5733 -0.8398  0.2317
  569MOL0     H76793   3.281   1.967   4.483 -4.4417 -1.8519 -2.4877
  569MOL0     H76794   3.226   1.964   4.649 -0.4917  1.4825 -1.1254
  569MOL0     H76795   3.082   1.881   4.447 -0.9193 -1.7696 -1.2245
  569MOL0     H76796   3.083   1.764   4.583 -0.0222  0.4939 -0.5427
  569MOL0     H76797   4.246   1.438   4.708 -3.1451  0.4348 -2.2391
  569MOL0     H76798   4.479   1.517   4.706 -0.2450  0.1973  0.8948
  569MOL0     H76799   4.806   1.833   4.334 -1.5264 -2.4056  0.6946
  569MOL0     H76800   5.049   1.860   4.335  2.7616 -2.0492  0.8017
  569MOL0     H76801   7.212   1.664   4.527 -0.3605  1.7470 -1.4076
  569MOL0     H76802   7.442   1.625   4.406 -0.3309 -0.7270 -1.0492
  569MOL0     H76803   7.671   1.383   3.985 -2.7683  1.3088  0.3805
  569MOL0     H76804   7.903   1.410   3.911  1.7497 -0.4122  3.2570
  569MOL0     H76805   8.030   1.802   3.789 -0.8582 -1.1413 -1.0482
  569MOL0     H76806   8.110   1.785   3.949 -2.0661  0.4904 -0.3009
  569MOL0     H76807   8.198   1.673   3.680  0.8563  0.4205 -0.6080
  569MOL0     H76808   8.275   1.629   3.816  0.1983 -1.3272 -1.6238
  569MOL0     H76809   8.318   1.876   3.893 -0.0869 -3.5316  0.8430
  569MOL0     H76810   8.266   1.937   3.738  1.2570  2.0259  4.1056
  569MOL0     H76811   8.512   1.926   3.718 -0.1769 -1.0006  2.9939
  569MOL0     H76812   8.449   1.796   3.618 -1.7642 -2.4660  0.5261
  569MOL0     H76813   8.695   1.617   3.919 -0.9756  1.1704  2.7937
  569MOL0     H76814   7.892   1.834   3.999 -2.0984  1.3222  1.0303
  569MOL0     H76815   7.671   1.804   4.088 -1.2311 -0.5168 -0.2603
  570MOL0     O76816   4.712  10.493   7.239 -0.2481 -0.2837  0.4486
  570MOL0     C76817   4.755  10.592   7.296  0.0067 -0.3000 -0.4412
  570MOL0     O76818   4.715  10.720   7.258  0.5572 -0.3079  0.0746
  570MOL0     C76819   4.645  10.747   7.143 -0.1756 -0.4858  0.2373
  570MOL0     C76820   4.658  10.669   7.023  0.5281  0.1305  0.8682
  570MOL0     C76821   4.570  10.689   6.916  0.1663 -0.1574 -0.0562
  570MOL0     C76822   4.470  10.790   6.921 -0.7278 -0.2064  0.8123
  570MOL0     O76823   4.386  10.798   6.816 -0.0794  0.3208 -0.2872
  570MOL0     C76824   4.285  10.903   6.797 -0.2251  0.0199 -0.5318
  570MOL0     C76825   4.242  10.911   6.652 -0.9889 -0.2068  0.2256
  570MOL0     C76826   4.117  11.004   6.619 -0.2187  0.3668  0.9077
  570MOL0     C76827   4.103  11.038   6.475  0.8447 -0.3079 -0.4138
  570MOL0     C76828   3.977  11.109   6.452  0.8249  0.3269  0.6205
  570MOL0     C76829   3.946  11.124   6.299  0.4305 -0.2142 -0.2746
  570MOL0     C76830   3.833  11.222   6.284 -0.2892 -0.0374 -0.5728
  570MOL0     C76831   3.832  11.270   6.141 -0.9781 -0.3489  0.3189
  570MOL0     N76832   3.749  11.387   6.121 -0.4010  0.7526  0.2447
  570MOL0     C76833   3.607  11.382   6.121 -0.5292 -0.4425 -0.1058
  570MOL0     C76834   3.569  11.512   6.084 -0.4073  0.4822 -0.1085
  570MOL0     C76835   3.428  11.554   6.042 -0.1822 -0.1268  0.4284
  570MOL0     C76836   3.305  11.517   6.129  0.3573 -0.3725 -0.8289
  570MOL0     C76837   3.330  11.561   6.271  0.0368 -0.6843 -0.5951
  570MOL0     C76838   3.198  11.568   6.349 -0.1055 -0.8384 -0.7671
  570MOL0     O76839   3.132  11.441   6.343  0.7545 -0.4472  0.6560
  570MOL0     C76840   2.996  11.432   6.367 -1.1055 -0.1016  0.1015
  570MOL0     C76841   2.919  11.328   6.319 -0.0706 -0.1572 -0.0059
  570MOL0     C76842   2.780  11.321   6.331 -0.0797 -0.2687  0.0443
  570MOL0     C76843   2.712  11.210   6.250 -0.9860  0.0433 -0.0425
  570MOL0     C76844   2.716  11.403   6.427  0.3326  0.5414 -0.0806
  570MOL0     C76845   2.578  11.382   6.466  0.0012  0.4322 -0.5381
  570MOL0     O76846   2.494  11.302   6.394 -0.2806  0.3495 -0.3593
  570MOL0     C76847   2.367  11.284   6.429 -0.2766 -1.0869 -0.8295
  570MOL0     C76848   2.325  11.178   6.510 -0.5193  0.4397  0.5788
  570MOL0     C76849   2.191  11.165   6.552 -0.0182  0.5149  0.2736
  570MOL0     C76850   2.099  11.262   6.522  0.1817 -0.0943 -1.2046
  570MOL0     O76851   1.974  11.257   6.585 -0.4025  0.4719  0.2064
  570MOL0     C76852   1.871  11.339   6.537 -0.0349 -0.0977 -0.0279
  570MOL0     C76853   1.736  11.306   6.599  0.7993  0.0179  0.5212
  570MOL0     C76854   1.645  11.435   6.577  0.4988  0.3303  0.2364
  570MOL0     C76855   1.503  11.425   6.618  0.2570 -0.1966  0.1209
  570MOL0     C76856   1.427  11.326   6.544  0.6794  1.1678  0.1973
  570MOL0     C76857   1.271  11.312   6.569 -0.6786 -0.5930  0.2534
  570MOL0     C76858   1.194  11.436   6.529 -0.6138  0.0536  0.2233
  570MOL0     C76859   1.041  11.419   6.541 -0.0914 -0.6551 -0.0975
  570MOL0    Cl76860   0.966  11.362   6.395  0.2580 -0.0108  0.0281
  570MOL0     C76861   2.132  11.365   6.437 -0.3461 -0.2532 -0.1514
  570MOL0     C76862   2.268  11.375   6.390 -0.1590  0.3917 -0.1578
  570MOL0     O76863   2.550  11.418   6.582 -0.6596  0.2801 -0.3279
  570MOL0     C76864   2.793  11.504   6.479  0.7635 -0.7732 -0.7678
  570MOL0     C76865   2.926  11.530   6.447  0.8701  1.1079 -0.1883
  570MOL0     N76866   3.681  11.588   6.080  0.5625 -0.0707  0.4860
  570MOL0     N76867   3.788  11.516   6.098  0.5496  0.8184 -0.0771
  570MOL0     C76868   4.478  10.879   7.033  0.1785 -0.0969 -0.3606
  570MOL0     C76869   4.559  10.861   7.139 -0.1673  0.4000  0.2072
  570MOL0     C76870   4.855  10.576   7.406 -0.1969  0.3384 -0.3717
  570MOL0     C76871   4.869  10.454   7.466 -0.2958  0.1854 -1.0002
  570MOL0     C76872   4.951  10.440   7.584 -0.9523  0.2240 -0.3760
  570MOL0     C76873   5.009  10.553   7.642  0.2368 -0.4216 -0.1913
  570MOL0     O76874   5.075  10.549   7.760 -0.0741  0.2735 -0.2884
  570MOL0     C76875   5.178  10.448   7.765  0.2886 -0.1902 -0.0861
  570MOL0     C76876   5.293  10.506   7.832  0.4770 -0.0284  0.1605
  570MOL0     C76877   5.356  10.632   7.765  0.1415  0.2791 -0.6183
  570MOL0     C76878   5.485  10.660   7.838 -0.1218  0.2483  0.2184
  570MOL0     C76879   5.508  10.800   7.847  1.1378  0.3896 -0.7602
  570MOL0     C76880   5.541  10.917   7.858  0.3934 -0.3176 -0.0080
  570MOL0     C76881   5.000  10.677   7.577  0.2109 -0.3226 -0.7219
  570MOL0     C76882   4.927  10.687   7.458  0.5562  0.5428  1.7021
  570MOL0     H76883   4.744  10.603   7.017 -1.4578 -2.4788 -2.7334
  570MOL0     H76884   4.582  10.629   6.827 -0.4122 -0.2971 -0.0447
  570MOL0     H76885   4.199  10.881   6.861 -0.8375 -0.3725 -1.4667
  570MOL0     H76886   4.330  10.997   6.829  0.7000 -0.0957 -1.4589
  570MOL0     H76887   4.332  10.952   6.605 -1.6164 -0.5661 -1.3269
  570MOL0     H76888   4.228  10.809   6.616 -1.3821  0.7228 -2.4655
  570MOL0     H76889   4.025  10.953   6.648  0.6540 -1.3900  0.7053
  570MOL0     H76890   4.130  11.098   6.673  3.6022  0.3436  0.2641
  570MOL0     H76891   4.188  11.093   6.435  2.5138 -1.6845  1.0403
  570MOL0     H76892   4.095  10.954   6.405 -3.1493 -0.5488  0.0790
  570MOL0     H76893   3.890  11.052   6.487 -0.0536  1.7806  0.9099
  570MOL0     H76894   3.987  11.204   6.505  0.9210  0.6092  0.1062
  570MOL0     H76895   4.032  11.154   6.238 -0.6803 -2.4826 -3.2069
  570MOL0     H76896   3.907  11.029   6.261 -0.8240  0.3812 -0.5226
  570MOL0     H76897   3.741  11.165   6.303 -0.5100  0.9030  1.4245
  570MOL0     H76898   3.827  11.307   6.352 -0.8640 -1.3085  1.0381
  570MOL0     H76899   3.801  11.189   6.074 -1.1452  1.1549 -1.4970
  570MOL0     H76900   3.932  11.302   6.112 -1.8488  1.1335 -1.2552
  570MOL0     H76901   3.547  11.294   6.144 -0.5101 -0.5834 -0.5833
  570MOL0     H76902   3.428  11.664   6.039  0.6678  0.0118  3.1363
  570MOL0     H76903   3.413  11.512   5.942  2.4197 -0.9149  0.3084
  570MOL0     H76904   3.299  11.408   6.124  2.0677 -0.5044 -0.5562
  570MOL0     H76905   3.219  11.565   6.080  1.3550  1.4195 -0.8905
  570MOL0     H76906   3.362  11.665   6.262 -0.6325 -0.5245 -1.2906
  570MOL0     H76907   3.406  11.501   6.322 -1.6102  0.8409  4.1774
  570MOL0     H76908   3.137  11.651   6.312 -0.2814 -0.0414  1.2011
  570MOL0     H76909   3.220  11.590   6.454 -0.1531  0.1222 -0.9446
  570MOL0     H76910   2.975  11.265   6.250 -1.9109  0.5733 -2.2660
  570MOL0     H76911   2.672  11.127   6.309 -2.3757  0.9651  0.3557
  570MOL0     H76912   2.634  11.258   6.191  0.9374  0.2561 -2.5764
  570MOL0     H76913   2.782  11.179   6.172 -2.1769  1.1358 -1.6161
  570MOL0     H76914   2.392  11.095   6.531 -0.2515  0.5605  0.2072
  570MOL0     H76915   2.167  11.075   6.606 -1.6256  0.8017  0.0868
  570MOL0     H76916   1.884  11.447   6.548 -0.7123  0.0517 -0.6250
  570MOL0     H76917   1.854  11.322   6.430 -0.6521  2.3125 -0.3691
  570MOL0     H76918   1.697  11.211   6.561  0.0174  0.9298 -1.0633
  570MOL0     H76919   1.749  11.301   6.707 -1.4434 -1.4993  0.7807
  570MOL0     H76920   1.653  11.452   6.469  1.1394 -2.9792 -0.3619
  570MOL0     H76921   1.683  11.517   6.637 -0.5387  2.5876 -2.0061
  570MOL0     H76922   1.498  11.411   6.727  2.2861 -3.7235 -0.0936
  570MOL0     H76923   1.456  11.521   6.595 -3.3325 -1.1918  2.5172
  570MOL0     H76924   1.462  11.226   6.573 -1.5430  0.7342  1.6665
  570MOL0     H76925   1.440  11.333   6.435  1.8314 -1.3416  0.0985
  570MOL0     H76926   1.249  11.232   6.498 -0.3352  0.1854 -0.7665
  570MOL0     H76927   1.240  11.283   6.670  0.5272  2.5699  1.6631
  570MOL0     H76928   1.234  11.483   6.439  2.2655  0.5271  1.6390
  570MOL0     H76929   1.216  11.504   6.611  1.0318 -0.6245  0.3798
  570MOL0     H76930   0.996  11.511   6.579 -0.5254 -0.4975 -0.9804
  570MOL0     H76931   1.014  11.343   6.615 -3.9370 -0.9905 -1.5998
  570MOL0     H76932   2.065  11.446   6.411 -0.9431 -0.6040  0.2900
  570MOL0     H76933   2.275  11.465   6.332 -0.5468  1.4042  1.3015
  570MOL0     H76934   2.750  11.588   6.532  2.1492  0.7603 -1.9594
  570MOL0     H76935   2.967  11.619   6.494  2.9995  0.4187 -0.6071
  570MOL0     H76936   4.406  10.960   7.037  0.5005  0.4045 -3.0095
  570MOL0     H76937   4.552  10.923   7.228  3.4228 -0.7356  1.4534
  570MOL0     H76938   4.809  10.367   7.443  1.3125 -1.9712  2.0594
  570MOL0     H76939   4.958  10.344   7.634  2.4885 -0.5374 -2.0549
  570MOL0     H76940   5.136  10.361   7.817 -0.1720  1.5850  2.7465
  570MOL0     H76941   5.214  10.408   7.670  0.7370 -0.9471  0.3857
  570MOL0     H76942   5.362  10.422   7.840 -1.0524 -1.6936 -2.5601
  570MOL0     H76943   5.260  10.540   7.931  2.5960  2.8575  0.0307
  570MOL0     H76944   5.287  10.716   7.757 -1.1617 -0.6888  0.1195
  570MOL0     H76945   5.369  10.604   7.660  2.4209  1.6145 -0.7551
  570MOL0     H76946   5.559  10.599   7.787 -3.5575 -3.3662 -0.9688
  570MOL0     H76947   5.475  10.623   7.941 -0.3939 -1.5446 -0.4214
  570MOL0     H76948   5.558  11.023   7.858 -1.8821  0.1683  2.6060
  570MOL0     H76949   5.053  10.762   7.620 -1.3258 -0.4624  1.6318
  570MOL0     H76950   4.915  10.782   7.408  1.0682  0.1879  0.8930
  571MOL0     O76951   7.435   9.500   4.060 -0.3856  0.4179  0.0536
  571MOL0     C76952   7.445   9.400   4.134  0.1190 -0.7295  0.1969
  571MOL0     O76953   7.361   9.381   4.247 -0.1877  0.3821  0.1298
  571MOL0     C76954   7.252   9.472   4.262 -0.1786  0.5358  0.6575
  571MOL0     C76955   7.176   9.517   4.154 -0.3659 -0.3960  0.8667
  571MOL0     C76956   7.081   9.611   4.169 -0.1282 -0.5421 -0.0463
  571MOL0     C76957   7.056   9.672   4.296  0.0572  0.8454 -1.3920
  571MOL0     O76958   6.960   9.775   4.285  0.2997 -0.0172 -0.9483
  571MOL0     C76959   6.991   9.872   4.388 -0.0007 -0.6420  0.3938
  571MOL0     C76960   6.918  10.002   4.355  0.3945  0.2174  0.5829
  571MOL0     C76961   6.764   9.974   4.370 -0.1988  0.4680  0.6669
  571MOL0     C76962   6.693  10.067   4.267 -0.3611 -0.0423 -0.2983
  571MOL0     C76963   6.542  10.053   4.296 -0.7920 -0.0777 -0.3595
  571MOL0     C76964   6.449  10.113   4.187 -0.3586  0.5235 -0.8138
  571MOL0     C76965   6.312  10.164   4.247 -0.1394  0.7756  0.2946
  571MOL0     C76966   6.237  10.233   4.134  0.7174 -0.2385 -0.4506
  571MOL0     N76967   6.109  10.257   4.193  1.2602 -0.8652  0.0299
  571MOL0     C76968   6.084  10.328   4.313 -0.2311  0.8549  0.5105
  571MOL0     C76969   5.955  10.309   4.338  0.4285 -0.6778  0.5720
  571MOL0     C76970   5.891  10.348   4.470  0.3812 -0.6809  0.2716
  571MOL0     C76971   5.812  10.480   4.473  0.3794 -0.4921  0.1857
  571MOL0     C76972   5.785  10.513   4.618 -0.5424 -0.2188 -0.2625
  571MOL0     C76973   5.674  10.610   4.634  0.5959  0.1601  0.1523
  571MOL0     O76974   5.639  10.632   4.776 -0.3110 -0.5542  0.5827
  571MOL0     C76975   5.525  10.711   4.790 -0.4946 -1.0883 -0.4047
  571MOL0     C76976   5.506  10.761   4.921  0.4809 -0.1853  0.2663
  571MOL0     C76977   5.382  10.826   4.952 -0.1032  0.8296  0.3692
  571MOL0     C76978   5.372  10.872   5.094 -0.4630 -0.3025 -0.4636
  571MOL0     C76979   5.293  10.859   4.851  0.7436 -0.4212  0.3668
  571MOL0     C76980   5.174  10.943   4.870 -0.7548  1.2908  0.5545
  571MOL0     O76981   5.176  11.034   4.968  0.2958  0.1925 -0.4664
  571MOL0     C76982   5.056  11.086   4.995  0.6714 -0.1181  0.1593
  571MOL0     C76983   4.982  11.063   5.113  0.0851 -0.3890 -0.6635
  571MOL0     C76984   4.863  11.133   5.135  0.1481 -0.2649 -0.0519
  571MOL0     C76985   4.816  11.226   5.044  0.0144 -0.1625  0.6785
  571MOL0     O76986   4.700  11.295   5.062  0.4847 -0.0530  0.1430
  571MOL0     C76987   4.659  11.313   5.199 -0.3495  1.1031  0.7784
  571MOL0     C76988   4.552  11.423   5.211 -0.9592 -0.2388 -0.2120
  571MOL0     C76989   4.414  11.367   5.197 -0.5042 -0.6013 -0.3279
  571MOL0     C76990   4.309  11.478   5.192  0.0750 -0.4944 -0.6605
  571MOL0     C76991   4.166  11.430   5.167  0.1244  0.0577  1.2342
  571MOL0     C76992   4.058  11.543   5.191 -0.5603  0.2437 -1.1102
  571MOL0     C76993   4.110  11.689   5.164  0.1561  0.3252 -0.7845
  571MOL0     C76994   3.993  11.781   5.148 -0.0738 -0.6516 -0.3676
  571MOL0    Cl76995   3.911  11.736   4.992  0.2499  0.1910  0.2527
  571MOL0     C76996   4.890  11.246   4.920 -0.3341 -0.4009 -0.4215
  571MOL0     C76997   5.006  11.176   4.898  0.1744 -0.0862 -0.5205
  571MOL0     O76998   5.074  10.904   4.809  0.1707  0.6980  0.0797
  571MOL0     C76999   5.322  10.817   4.720 -0.2351  0.7104 -0.0036
  571MOL0     C77000   5.434  10.741   4.694 -0.0216  0.2078 -0.1807
  571MOL0     N77001   5.893  10.268   4.219  0.6022 -0.4355  0.4797
  571MOL0     N77002   5.988  10.244   4.136 -0.1915 -0.0456  0.4982
  571MOL0     C77003   7.118   9.616   4.412  0.3554 -0.2658  0.1140
  571MOL0     C77004   7.222   9.520   4.391 -0.4252  0.7135  0.3764
  571MOL0     C77005   7.566   9.319   4.121 -0.4471  0.3245 -0.5546
  571MOL0     C77006   7.679   9.370   4.054 -0.5254  0.3915 -0.8486
  571MOL0     C77007   7.795   9.291   4.031 -1.1341 -0.7251 -0.3776
  571MOL0     C77008   7.804   9.168   4.089  0.1628  0.9589 -0.3613
  571MOL0     O77009   7.914   9.091   4.068  0.2594 -0.4690  0.0226
  571MOL0     C77010   8.020   9.108   4.163  0.3126 -0.2838 -0.6815
  571MOL0     C77011   8.033   8.997   4.266 -0.9500  0.3299  0.1568
  571MOL0     C77012   8.155   9.027   4.352 -0.7015 -0.3604  0.3085
  571MOL0     C77013   8.125   9.118   4.464  0.1279 -0.2911 -0.6770
  571MOL0     C77014   8.254   9.165   4.514  0.2909  0.1614  0.1997
  571MOL0     C77015   8.357   9.202   4.565 -0.9277 -0.7917  1.0302
  571MOL0     C77016   7.700   9.111   4.167  0.1888 -0.5647  0.4271
  571MOL0     C77017   7.577   9.187   4.173 -0.7807  0.2915  1.1981
  571MOL0     H77018   7.196   9.486   4.052 -1.5577  0.7928  0.2469
  571MOL0     H77019   7.028   9.652   4.084  2.4039  1.9392 -0.5811
  571MOL0     H77020   6.947   9.831   4.479  1.2829 -0.6090  1.0517
  571MOL0     H77021   7.097   9.893   4.404  0.2758 -2.3612  1.0209
  571MOL0     H77022   6.947  10.080   4.425  0.8771 -0.8521  1.6156
  571MOL0     H77023   6.945  10.027   4.252  2.8028  1.8502  1.5283
  571MOL0     H77024   6.737   9.869   4.361 -0.5176  0.5513  0.6481
  571MOL0     H77025   6.738  10.010   4.470 -0.4870 -0.0520  0.7848
  571MOL0     H77026   6.720  10.171   4.285 -1.0784  0.2916 -1.0942
  571MOL0     H77027   6.714  10.040   4.163 -1.8733 -2.4977 -0.0549
  571MOL0     H77028   6.506   9.952   4.320 -2.1341  0.2395 -0.9006
  571MOL0     H77029   6.533  10.119   4.383  0.7193 -2.3123  1.6119
  571MOL0     H77030   6.509  10.180   4.125  2.7284 -2.9837 -1.9740
  571MOL0     H77031   6.433  10.037   4.110 -1.2151 -0.6814  0.5005
  571MOL0     H77032   6.255  10.078   4.282 -0.3545  0.4366 -0.8352
  571MOL0     H77033   6.331  10.235   4.329  3.3764  0.8173 -0.3777
  571MOL0     H77034   6.231  10.167   4.047  0.0158 -0.0408 -0.5615
  571MOL0     H77035   6.281  10.326   4.095 -1.5709  0.8187 -0.6804
  571MOL0     H77036   6.151  10.375   4.383 -0.2378  1.7553 -0.0688
  571MOL0     H77037   5.821  10.265   4.488 -1.4645  0.3072 -1.8638
  571MOL0     H77038   5.971  10.352   4.544 -1.2220 -1.0203  2.1290
  571MOL0     H77039   5.718  10.471   4.417  0.8697  2.0153 -1.1691
  571MOL0     H77040   5.865  10.564   4.429 -0.6070  0.8973  1.5473
  571MOL0     H77041   5.872  10.556   4.669 -0.2332  0.3894 -1.2773
  571MOL0     H77042   5.758  10.424   4.675 -0.0296  0.1427  0.5678
  571MOL0     H77043   5.586  10.551   4.607  0.1992  0.1424  1.3814
  571MOL0     H77044   5.691  10.700   4.575  0.1781 -0.9198 -1.6953
  571MOL0     H77045   5.592  10.747   4.985 -1.1789 -2.6172  2.1300
  571MOL0     H77046   5.275  10.844   5.137 -1.4586  1.9335 -1.1052
  571MOL0     H77047   5.447  10.823   5.157 -0.7348  0.9597  0.8788
  571MOL0     H77048   5.380  10.977   5.121 -1.9328 -1.1292  4.2361
  571MOL0     H77049   5.009  10.991   5.189  1.2970  2.3481  1.6906
  571MOL0     H77050   4.815  11.095   5.225 -0.8465  2.0535  0.4494
  571MOL0     H77051   4.629  11.217   5.244  3.4935 -0.1414  1.0447
  571MOL0     H77052   4.748  11.355   5.247  0.8413  0.5339 -0.8284
  571MOL0     H77053   4.560  11.465   5.312 -2.2634  0.2445 -0.2971
  571MOL0     H77054   4.574  11.495   5.132 -2.5053 -0.3162 -0.7384
  571MOL0     H77055   4.391  11.296   5.277  0.0793 -1.6187 -1.0380
  571MOL0     H77056   4.409  11.324   5.096  1.1625  1.0973 -1.1905
  571MOL0     H77057   4.311  11.536   5.285  0.3173  0.9790 -1.5410
  571MOL0     H77058   4.339  11.548   5.113  4.3661 -0.3000  0.8619
  571MOL0     H77059   4.141  11.343   5.230 -2.1212 -0.6719 -0.5420
  571MOL0     H77060   4.157  11.393   5.065  1.7393  3.2891 -0.2054
  571MOL0     H77061   3.967  11.521   5.136  1.0821 -3.5229 -2.6183
  571MOL0     H77062   4.045  11.525   5.298  1.6950  3.0551 -0.2145
  571MOL0     H77063   4.167  11.684   5.070 -2.2436 -1.6950 -2.2703
  571MOL0     H77064   4.175  11.721   5.245 -0.5843 -0.3718  0.1089
  571MOL0     H77065   3.999  11.890   5.145 -1.1028 -0.5635  0.2619
  571MOL0     H77066   3.919  11.748   5.222  0.6965 -0.3322  0.5624
  571MOL0     H77067   4.855  11.305   4.836 -1.1581 -0.0166  0.1787
  571MOL0     H77068   5.052  11.186   4.801 -1.6907 -0.1867 -1.4587
  571MOL0     H77069   5.253  10.838   4.638  0.6333 -1.1048 -1.2696
  571MOL0     H77070   5.453  10.712   4.591 -1.4973  1.0364 -0.7189
  571MOL0     H77071   7.097   9.660   4.508  0.3119 -0.6641  0.2890
  571MOL0     H77072   7.267   9.494   4.485  1.0933  0.1853 -0.4649
  571MOL0     H77073   7.676   9.474   4.022  2.4031  1.4707  1.8101
  571MOL0     H77074   7.880   9.335   3.978 -0.1908 -0.0634  1.6016
  571MOL0     H77075   8.109   9.121   4.102  1.4177 -3.0098  0.1782
  571MOL0     H77076   8.010   9.202   4.219  0.1020 -0.6184 -0.1481
  571MOL0     H77077   8.050   8.904   4.210  0.3596  0.4808  0.2839
  571MOL0     H77078   7.946   8.975   4.329 -1.9103  1.6569 -0.6591
  571MOL0     H77079   8.234   9.075   4.294  0.4338  0.6500  2.5712
  571MOL0     H77080   8.199   8.934   4.392  1.7925 -0.6091 -2.6524
  571MOL0     H77081   8.062   9.061   4.533 -0.6477  1.2875 -0.0263
  571MOL0     H77082   8.071   9.207   4.432  3.2552  1.4334 -1.4527
  571MOL0     H77083   8.452   9.225   4.607 -2.1264  1.3033  2.8112
  571MOL0     H77084   7.722   9.015   4.211  2.2819 -0.0483  0.6017
  571MOL0     H77085   7.496   9.141   4.229 -0.4025 -0.2346  1.3269
  572MOL0     O77086  10.583   5.664   3.503 -0.0798  0.1985  0.3863
  572MOL0     C77087  10.572   5.540   3.510 -0.6131 -1.2630  0.2705
  572MOL0     O77088  10.462   5.462   3.503 -0.7486 -0.3564  0.0305
  572MOL0     C77089  10.341   5.529   3.478 -0.5638  0.0912 -0.0011
  572MOL0     C77090  10.258   5.454   3.404  0.2527 -0.0119 -0.3816
  572MOL0     C77091  10.125   5.499   3.386 -0.0571 -0.1451  0.1823
  572MOL0     C77092  10.075   5.614   3.444  0.5579  0.1993 -1.0432
  572MOL0     O77093   9.945   5.667   3.412  0.0669  0.5718 -0.6459
  572MOL0     C77094   9.871   5.706   3.527 -0.6974  0.4608 -0.4740
  572MOL0     C77095   9.741   5.748   3.467  0.1449 -0.1604 -0.5856
  572MOL0     C77096   9.651   5.619   3.440  0.1446 -1.0990  0.9972
  572MOL0     C77097   9.563   5.638   3.315  0.7842  0.4047 -0.0416
  572MOL0     C77098   9.486   5.506   3.305  0.3875 -0.9680 -0.3152
  572MOL0     C77099   9.373   5.504   3.196  0.7715 -1.4049 -0.3685
  572MOL0     C77100   9.334   5.364   3.164 -0.4564  0.6242  0.9960
  572MOL0     C77101   9.259   5.348   3.034 -0.0561 -0.0136  0.5552
  572MOL0     N77102   9.131   5.416   3.041 -1.1780 -0.0892 -0.3626
  572MOL0     C77103   9.101   5.539   2.991 -0.2159 -0.4094  0.6986
  572MOL0     C77104   8.972   5.560   3.037  0.0525  0.0903  0.2449
  572MOL0     C77105   8.894   5.686   3.022  0.0486 -0.7164  0.2081
  572MOL0     C77106   8.864   5.714   2.874  0.1316  0.9200  0.5026
  572MOL0     C77107   8.793   5.602   2.798  0.4524  0.0812 -0.3756
  572MOL0     C77108   8.653   5.578   2.850 -0.1731  0.3223 -0.9775
  572MOL0     O77109   8.574   5.513   2.750 -0.2395 -0.5209  0.5868
  572MOL0     C77110   8.458   5.441   2.789 -0.0252 -0.2340 -0.3465
  572MOL0     C77111   8.400   5.359   2.698  0.3479  0.2048 -0.0990
  572MOL0     C77112   8.286   5.282   2.721  0.1804  0.0218  0.4223
  572MOL0     C77113   8.223   5.217   2.591  0.1377 -0.4543  0.1704
  572MOL0     C77114   8.214   5.301   2.842  0.6045 -0.0117 -0.1514
  572MOL0     C77115   8.082   5.233   2.876  0.2651  0.3258 -0.8682
  572MOL0     O77116   8.024   5.260   3.002  0.3084  0.0227 -0.3546
  572MOL0     C77117   7.908   5.202   3.053  0.0375 -0.4716  0.3108
  572MOL0     C77118   7.813   5.279   3.123  0.6764 -0.2962  0.3242
  572MOL0     C77119   7.685   5.230   3.158 -0.1303  0.3363  0.3238
  572MOL0     C77120   7.656   5.096   3.141 -0.1918 -0.0195 -1.1787
  572MOL0     O77121   7.539   5.047   3.193 -0.2820  0.0778  0.4509
  572MOL0     C77122   7.525   4.906   3.214 -0.1301 -0.1362 -0.0807
  572MOL0     C77123   7.375   4.899   3.261 -0.8879  0.3888 -0.0164
  572MOL0     C77124   7.272   4.937   3.145  0.7031  0.4029  0.7448
  572MOL0     C77125   7.135   4.864   3.164 -0.7105 -0.4798 -0.3254
  572MOL0     C77126   7.027   4.899   3.063  0.0040  0.1583 -0.5793
  572MOL0     C77127   6.999   5.045   3.091 -0.5464 -0.5272 -0.7833
  572MOL0     C77128   6.892   5.111   3.001  0.2505 -0.0617 -0.8281
  572MOL0     C77129   6.755   5.060   3.033 -0.4030 -0.9877  0.2415
  572MOL0    Cl77130   6.650   5.166   2.925  0.0481  0.2786  0.2161
  572MOL0     C77131   7.743   5.023   3.054 -0.2140 -0.6885 -1.2117
  572MOL0     C77132   7.859   5.078   3.003 -0.3328  0.4814  0.0179
  572MOL0     O77133   8.040   5.155   2.793  0.6736 -0.2908  0.7635
  572MOL0     C77134   8.273   5.394   2.935 -0.3645  0.9681  0.2187
  572MOL0     C77135   8.394   5.458   2.911  0.8874 -0.1368  0.3294
  572MOL0     N77136   8.944   5.469   3.138 -0.0064  0.1732  0.0106
  572MOL0     N77137   9.038   5.379   3.130  0.2147  0.3772  0.1578
  572MOL0     C77138  10.170   5.693   3.522  0.0667  0.7889 -0.2313
  572MOL0     C77139  10.302   5.647   3.540  0.2033  0.0620 -0.2986
  572MOL0     C77140  10.700   5.467   3.494 -0.4748 -0.1830 -0.0542
  572MOL0     C77141  10.721   5.337   3.445  0.0540 -0.3718  0.0987
  572MOL0     C77142  10.849   5.282   3.436  0.0972 -0.3559  0.2162
  572MOL0     C77143  10.958   5.349   3.489 -0.1648 -0.0089 -0.0351
  572MOL0     O77144  11.076   5.280   3.469  0.1390 -0.0187  0.4779
  572MOL0     C77145  11.184   5.326   3.552  0.8506 -0.7208  0.7008
  572MOL0     C77146  11.306   5.237   3.561  0.3643 -0.1188  0.1738
  572MOL0     C77147  11.383   5.240   3.431  0.3803  0.7276 -0.6472
  572MOL0     C77148  11.506   5.142   3.438  1.3454  0.0390 -0.5235
  572MOL0     C77149  11.467   5.000   3.462  0.3926 -0.2663 -0.0303
  572MOL0     C77150  11.439   4.888   3.489 -0.0355  0.0613 -0.5311
  572MOL0     C77151  10.942   5.480   3.537 -0.8721  0.2160  0.3168
  572MOL0     C77152  10.814   5.532   3.544  0.2190 -0.2095  0.1032
  572MOL0     H77153  10.288   5.363   3.352 -2.4632  0.2774 -2.6993
  572MOL0     H77154  10.055   5.437   3.330 -1.6344  0.8038  1.0204
  572MOL0     H77155   9.859   5.621   3.595 -1.1377  0.2610 -0.7913
  572MOL0     H77156   9.920   5.785   3.585 -0.1644 -0.8798  0.9622
  572MOL0     H77157   9.680   5.804   3.538 -3.4975 -2.9190 -1.2261
  572MOL0     H77158   9.764   5.802   3.374  1.1801 -1.3672 -1.0615
  572MOL0     H77159   9.709   5.527   3.435  1.2798 -0.3570 -1.8059
  572MOL0     H77160   9.585   5.602   3.525  1.4177 -1.2125  2.0054
  572MOL0     H77161   9.492   5.721   3.324  0.9695  0.4456  1.1882
  572MOL0     H77162   9.622   5.658   3.225 -0.9240  1.6778 -0.9333
  572MOL0     H77163   9.559   5.435   3.265  1.4812  0.1277 -0.3486
  572MOL0     H77164   9.450   5.476   3.404  0.8156  0.0052  0.1551
  572MOL0     H77165   9.289   5.558   3.241  2.5751 -0.2618  1.8279
  572MOL0     H77166   9.403   5.563   3.109  0.7319  1.7731  1.6116
  572MOL0     H77167   9.414   5.289   3.169  0.2266  1.2502 -0.1497
  572MOL0     H77168   9.269   5.332   3.246 -0.0348  0.9283  1.4479
  572MOL0     H77169   9.243   5.243   3.010 -1.5998 -0.0507  1.5742
  572MOL0     H77170   9.326   5.389   2.958  0.6734  1.2940  1.8346
  572MOL0     H77171   9.155   5.601   2.921  0.8885 -2.3147 -0.2160
  572MOL0     H77172   8.796   5.670   3.068 -0.8129  0.4193 -1.1467
  572MOL0     H77173   8.949   5.776   3.051  0.0041  0.8397 -3.8784
  572MOL0     H77174   8.962   5.742   2.833  1.2802 -2.0957  0.9671
  572MOL0     H77175   8.802   5.804   2.865 -2.1515 -0.6522 -0.5728
  572MOL0     H77176   8.859   5.515   2.794 -0.4988 -0.6628 -0.3171
  572MOL0     H77177   8.785   5.637   2.695  1.9383 -0.8660 -0.8476
  572MOL0     H77178   8.606   5.673   2.878 -3.1436 -2.0223  3.1339
  572MOL0     H77179   8.662   5.526   2.946 -1.3196  3.9615  1.3150
  572MOL0     H77180   8.449   5.354   2.602 -1.2739  0.3662 -0.9779
  572MOL0     H77181   8.290   5.233   2.506 -0.5773  0.3660 -0.2515
  572MOL0     H77182   8.214   5.109   2.604  0.9837 -0.6703 -0.9314
  572MOL0     H77183   8.123   5.255   2.570  1.0799  1.2439 -1.5527
  572MOL0     H77184   7.836   5.380   3.154  0.4746  0.1653 -0.9972
  572MOL0     H77185   7.612   5.302   3.195  1.2347  1.8042  0.2437
  572MOL0     H77186   7.552   4.855   3.121  0.9485 -2.8100  1.5702
  572MOL0     H77187   7.591   4.885   3.299 -0.3039  0.7920  0.2886
  572MOL0     H77188   7.343   4.796   3.282 -0.2628  0.2727  0.4036
  572MOL0     H77189   7.360   4.954   3.354 -1.2630 -2.1035  1.5164
  572MOL0     H77190   7.305   4.911   3.045 -0.0637  1.4181  0.1982
  572MOL0     H77191   7.257   5.045   3.133  0.4025  0.0803 -2.7333
  572MOL0     H77192   7.148   4.757   3.149 -0.1733 -0.2132 -1.9661
  572MOL0     H77193   7.098   4.876   3.267 -2.1834 -1.5399 -0.6938
  572MOL0     H77194   6.940   4.834   3.074  0.5929 -0.4106  1.0601
  572MOL0     H77195   7.066   4.880   2.963 -0.1704 -2.0373 -0.2732
  572MOL0     H77196   6.960   5.046   3.193 -0.8466 -0.8927 -0.8931
  572MOL0     H77197   7.086   5.110   3.082 -0.1693 -0.7970  0.6158
  572MOL0     H77198   6.919   5.084   2.899  3.0375  0.1540 -0.2233
  572MOL0     H77199   6.884   5.218   3.020  1.9111 -0.3014  1.6410
  572MOL0     H77200   6.737   5.073   3.140  1.5053  0.0678  0.4645
  572MOL0     H77201   6.737   4.956   3.005 -2.8264  0.0511 -2.5673
  572MOL0     H77202   7.711   4.925   3.019 -1.0942 -0.4588 -1.0839
  572MOL0     H77203   7.931   5.018   2.948  1.1686  0.1080  2.2681
  572MOL0     H77204   8.214   5.401   3.026 -3.4799 -2.1725 -1.3043
  572MOL0     H77205   8.411   5.543   2.976  1.2680  0.3287 -0.3719
  572MOL0     H77206  10.139   5.792   3.553 -0.2281  0.7889 -0.5152
  572MOL0     H77207  10.370   5.706   3.602 -2.0177  1.7558  0.6757
  572MOL0     H77208  10.634   5.278   3.418 -2.0978  1.2066  2.9624
  572MOL0     H77209  10.852   5.176   3.411 -1.2409 -0.3908  0.1464
  572MOL0     H77210  11.198   5.433   3.534 -2.0674 -0.0707  1.7748
  572MOL0     H77211  11.145   5.330   3.654 -1.9360  1.1658 -0.3329
  572MOL0     H77212  11.266   5.139   3.589 -0.6894  0.3680  0.4003
  572MOL0     H77213  11.376   5.263   3.640  0.0684 -1.2551  0.8388
  572MOL0     H77214  11.417   5.342   3.411  0.3751  0.8139 -0.2267
  572MOL0     H77215  11.311   5.209   3.356  2.3787  0.3490 -2.5089
  572MOL0     H77216  11.578   5.170   3.515  0.2562 -1.8776  1.2971
  572MOL0     H77217  11.560   5.144   3.343  1.7580  1.8743 -0.2877
  572MOL0     H77218  11.407   4.787   3.505 -0.3388  0.3943  1.1518
  572MOL0     H77219  11.018   5.547   3.576 -0.0590 -0.8139  0.5391
  572MOL0     H77220  10.804   5.633   3.583 -1.0287  0.0046 -0.7226
  573MOL0     O77221   1.170   2.169   6.159  0.2207 -1.4035 -0.1286
  573MOL0     C77222   1.193   2.292   6.165 -0.8343 -0.0813  0.8119
  573MOL0     O77223   1.115   2.388   6.218 -0.2288 -0.3165  0.0676
  573MOL0     C77224   0.987   2.365   6.257  0.0064  0.0894  0.2690
  573MOL0     C77225   0.935   2.475   6.324  0.0219  0.8022 -0.3967
  573MOL0     C77226   0.801   2.473   6.369 -0.2269  0.3240 -0.4920
  573MOL0     C77227   0.720   2.363   6.346  0.4549 -0.0484 -0.2119
  573MOL0     O77228   0.585   2.367   6.399 -0.1296  0.1110  0.3692
  573MOL0     C77229   0.478   2.359   6.310  0.6169  0.1034  0.5132
  573MOL0     C77230   0.338   2.390   6.365 -0.7139 -0.0389 -0.0581
  573MOL0     C77231   0.311   2.538   6.395 -0.2228  0.3853 -0.3275
  573MOL0     C77232   0.203   2.562   6.508  0.4092  0.2234 -0.3343
  573MOL0     C77233   0.092   2.461   6.511  0.6087  0.6027  0.0030
  573MOL0     C77234   0.007   2.472   6.381  0.7157 -0.3980 -0.2626
  573MOL0     C77235  -0.119   2.381   6.364  0.3790  0.2242  0.3939
  573MOL0     C77236  -0.151   2.361   6.216 -0.0380  0.6420  0.2438
  573MOL0     N77237  -0.191   2.492   6.163 -0.2734 -0.3771  0.3452
  573MOL0     C77238  -0.104   2.579   6.109 -0.9731 -0.0222 -0.4118
  573MOL0     C77239  -0.175   2.681   6.059  0.4273 -0.9197 -0.1627
  573MOL0     C77240  -0.118   2.793   5.977 -0.4863 -0.2442  0.4722
  573MOL0     C77241   0.032   2.810   5.944 -0.0483  0.6353 -0.1880
  573MOL0     C77242   0.045   2.925   5.835  0.0715 -0.5024  1.0079
  573MOL0     C77243   0.153   2.901   5.726 -0.2110 -0.6236  0.4557
  573MOL0     O77244   0.278   2.885   5.800  0.1020  0.3767 -0.4761
  573MOL0     C77245   0.397   2.908   5.738  0.2679  0.5310 -0.6515
  573MOL0     C77246   0.517   2.892   5.813  0.2293  0.5427  0.1277
  573MOL0     C77247   0.644   2.882   5.754  0.2385 -0.1512  0.2725
  573MOL0     C77248   0.765   2.864   5.841  0.5662  0.1083  0.3777
  573MOL0     C77249   0.658   2.901   5.615  0.5090  0.4078  1.0408
  573MOL0     C77250   0.786   2.914   5.544  0.6046  0.1069  0.6108
  573MOL0     O77251   0.787   2.933   5.410  0.1784 -0.1096 -1.1729
  573MOL0     C77252   0.914   2.935   5.352 -0.0057 -0.2653 -0.2364
  573MOL0     C77253   0.976   3.053   5.309  0.0538  0.0638  0.6023
  573MOL0     C77254   1.095   3.043   5.236  0.5298  0.5172 -0.5099
  573MOL0     C77255   1.141   2.919   5.185  0.5360 -0.2797  0.3622
  573MOL0     O77256   1.255   2.892   5.107 -0.3285  0.3555  0.0258
  573MOL0     C77257   1.294   2.987   5.004 -0.8727  0.8331  0.8461
  573MOL0     C77258   1.438   2.965   4.956 -0.7446 -0.1650 -0.8862
  573MOL0     C77259   1.545   2.973   5.066  0.3461  0.3646 -0.1257
  573MOL0     C77260   1.670   2.912   5.014 -0.1304  0.0536  0.5028
  573MOL0     C77261   1.788   2.956   5.101  0.2931 -0.4359  0.3553
  573MOL0     C77262   1.927   2.913   5.054 -0.6005 -0.4873  0.4348
  573MOL0     C77263   1.958   2.762   5.062 -0.2160  0.1693  0.8704
  573MOL0     C77264   2.015   2.694   4.937 -0.1731 -0.5083 -0.3964
  573MOL0    Cl77265   2.170   2.766   4.902 -0.0751 -0.6035  0.0048
  573MOL0     C77266   1.069   2.806   5.231 -0.6535 -0.6250  0.1961
  573MOL0     C77267   0.954   2.810   5.306 -0.6882  0.0467 -0.5794
  573MOL0     O77268   0.891   2.909   5.607  0.6720 -0.4379 -0.0862
  573MOL0     C77269   0.534   2.927   5.543 -0.2275 -0.1276  1.2620
  573MOL0     C77270   0.412   2.928   5.600  0.3327 -0.1880  0.8912
  573MOL0     N77271  -0.301   2.667   6.099  0.0896  0.1668  0.2789
  573MOL0     N77272  -0.314   2.549   6.157 -1.0048  0.4281  0.2424
  573MOL0     C77273   0.772   2.247   6.282  0.0626  0.3966  0.6710
  573MOL0     C77274   0.905   2.249   6.228 -0.3885  0.4447 -0.8171
  573MOL0     C77275   1.326   2.328   6.110 -0.4085 -0.3739  0.4157
  573MOL0     C77276   1.412   2.228   6.060  0.5922 -1.3031 -0.1204
  573MOL0     C77277   1.539   2.263   6.015 -0.5455 -0.8932  0.3320
  573MOL0     C77278   1.599   2.387   6.043 -0.4932 -0.9301  0.1290
  573MOL0     O77279   1.729   2.427   6.015 -0.1685 -0.3946 -0.4772
  573MOL0     C77280   1.822   2.323   6.015 -0.2184 -0.7565  0.0990
  573MOL0     C77281   1.969   2.376   5.993 -0.3209 -0.1021 -0.2199
  573MOL0     C77282   1.990   2.472   5.875  0.0525  0.0623  0.1914
  573MOL0     C77283   2.126   2.539   5.877  0.0490 -0.3509  0.6941
  573MOL0     C77284   2.220   2.439   5.847 -0.2841  0.3593 -0.8960
  573MOL0     C77285   2.317   2.361   5.831  0.0606  0.0933 -0.1253
  573MOL0     C77286   1.513   2.486   6.096  0.1657  0.2047  0.3743
  573MOL0     C77287   1.382   2.455   6.129 -0.3580 -0.3913  0.1855
  573MOL0     H77288   1.003   2.560   6.331  1.5793 -0.1544 -2.7618
  573MOL0     H77289   0.756   2.564   6.408 -0.3272 -0.4319  1.2491
  573MOL0     H77290   0.502   2.427   6.227 -0.5264 -0.8433 -0.6476
  573MOL0     H77291   0.474   2.257   6.272  3.5645  1.3152 -3.7701
  573MOL0     H77292   0.269   2.351   6.289  0.5134 -0.1062 -1.1862
  573MOL0     H77293   0.329   2.328   6.455 -0.2497 -2.1222 -1.3643
  573MOL0     H77294   0.402   2.590   6.425 -0.8641  3.8313 -3.6356
  573MOL0     H77295   0.293   2.601   6.308  2.2749  1.6634  0.0010
  573MOL0     H77296   0.256   2.564   6.604  0.7637 -2.7727 -0.3816
  573MOL0     H77297   0.169   2.665   6.491  0.4154  0.1602 -0.7364
  573MOL0     H77298   0.127   2.359   6.528 -0.7406  0.2662  0.9495
  573MOL0     H77299   0.025   2.488   6.593 -1.6365 -0.9083 -1.2234
  573MOL0     H77300  -0.031   2.575   6.377 -0.0580 -0.4971  2.3128
  573MOL0     H77301   0.075   2.467   6.296  1.6640 -1.0188  0.5218
  573MOL0     H77302  -0.107   2.291   6.425 -0.8707  0.7867  1.5384
  573MOL0     H77303  -0.209   2.429   6.405 -2.5991 -3.2783 -1.5316
  573MOL0     H77304  -0.227   2.282   6.206 -1.8826  1.7179  4.0001
  573MOL0     H77305  -0.061   2.320   6.169 -2.1448 -2.2918 -1.5688
  573MOL0     H77306   0.002   2.569   6.092 -0.4448  2.0996  1.2612
  573MOL0     H77307  -0.165   2.793   5.878  2.4147 -0.5937 -1.0375
  573MOL0     H77308  -0.152   2.880   6.034  1.1553  0.6221  0.2022
  573MOL0     H77309   0.078   2.724   5.895  0.5346  0.7643  0.1373
  573MOL0     H77310   0.082   2.830   6.039  0.5582 -1.5516  0.0106
  573MOL0     H77311   0.070   3.022   5.879 -0.1800  0.6835 -1.3588
  573MOL0     H77312  -0.043   2.954   5.777  2.1201 -0.6704 -2.4444
  573MOL0     H77313   0.161   2.994   5.669 -0.8962  0.5219  2.1278
  573MOL0     H77314   0.140   2.816   5.658  2.2351 -0.6663 -0.0462
  573MOL0     H77315   0.502   2.861   5.916 -0.8695 -1.7919 -0.6550
  573MOL0     H77316   0.814   2.962   5.847 -1.8784  1.4679 -0.2619
  573MOL0     H77317   0.727   2.823   5.935  2.1791 -2.4768 -0.0020
  573MOL0     H77318   0.824   2.782   5.801 -0.4347  0.4373 -1.9457
  573MOL0     H77319   0.931   3.151   5.321 -0.8652 -0.3433  0.5137
  573MOL0     H77320   1.156   3.133   5.234  1.0765  0.1769  0.5897
  573MOL0     H77321   1.226   2.976   4.919  1.4320  1.4866 -1.1919
  573MOL0     H77322   1.294   3.095   5.023  2.6519  1.9633 -3.8200
  573MOL0     H77323   1.426   2.861   4.925  0.0368 -1.1799  1.9468
  573MOL0     H77324   1.479   3.031   4.878  3.5766  1.8255  2.6478
  573MOL0     H77325   1.513   2.909   5.149  0.1666 -2.5166 -2.2259
  573MOL0     H77326   1.562   3.075   5.100 -0.0985  0.7438 -0.9979
  573MOL0     H77327   1.662   2.803   5.011  2.2848 -0.2262  1.4920
  573MOL0     H77328   1.681   2.959   4.915 -1.3107  0.1240  0.3878
  573MOL0     H77329   1.760   2.924   5.202 -2.1220  0.5365  0.0379
  573MOL0     H77330   1.789   3.065   5.098 -1.7351 -0.3998 -0.1844
  573MOL0     H77331   1.942   2.954   4.954  0.7281  2.3828  1.6683
  573MOL0     H77332   2.000   2.969   5.114  0.3084 -1.0129 -0.1538
  573MOL0     H77333   1.870   2.704   5.091  0.3007 -0.5836  0.9422
  573MOL0     H77334   2.035   2.740   5.136  0.5126 -1.8493 -0.4160
  573MOL0     H77335   1.946   2.705   4.853 -0.7822  0.9678  0.2481
  573MOL0     H77336   2.033   2.587   4.950 -2.1662 -0.8849 -0.5015
  573MOL0     H77337   1.095   2.711   5.184  0.8905 -1.0636  1.8456
  573MOL0     H77338   0.897   2.721   5.331 -0.2962  0.2070  0.9848
  573MOL0     H77339   0.534   2.936   5.435 -0.8161  1.5147  1.3765
  573MOL0     H77340   0.333   2.947   5.529  1.4670 -1.5386 -0.8156
  573MOL0     H77341   0.703   2.163   6.277  1.2212 -0.5557  0.4301
  573MOL0     H77342   0.935   2.156   6.182 -0.2099 -1.1156  2.2030
  573MOL0     H77343   1.391   2.122   6.059  0.2615 -1.2375 -0.3380
  573MOL0     H77344   1.593   2.183   5.966  0.7039  1.0398 -1.6266
  573MOL0     H77345   1.808   2.264   6.106 -3.2695  0.0529  0.2607
  573MOL0     H77346   1.813   2.253   5.931  0.4206 -0.3193 -0.3385
  573MOL0     H77347   2.032   2.286   5.988 -1.3354 -0.8509  0.1682
  573MOL0     H77348   1.992   2.430   6.086  2.2137 -1.5093  0.0749
  573MOL0     H77349   1.914   2.551   5.877 -0.5097 -0.4232 -1.1637
  573MOL0     H77350   1.989   2.416   5.782  2.3261 -1.9984  1.2918
  573MOL0     H77351   2.148   2.589   5.971 -2.5951  2.2953  0.0750
  573MOL0     H77352   2.134   2.619   5.802  4.5480  0.4016  1.6818
  573MOL0     H77353   2.402   2.296   5.824  0.3529  0.5613 -1.1730
  573MOL0     H77354   1.535   2.590   6.118  0.2595  0.2543  0.0543
  573MOL0     H77355   1.330   2.544   6.162 -1.6993 -0.6168 -1.1892
  574MOL0     O77356   7.069   8.567   4.507 -0.7075 -0.1353 -0.1201
  574MOL0     C77357   7.118   8.472   4.439 -0.1642 -0.3183 -0.1026
  574MOL0     O77358   7.056   8.401   4.345 -0.0430 -0.5130  0.0656
  574MOL0     C77359   6.922   8.420   4.336  0.7673  0.2905  0.5340
  574MOL0     C77360   6.823   8.347   4.415  0.5359 -0.4489  0.4124
  574MOL0     C77361   6.687   8.378   4.403  0.1994  1.0910 -1.0219
  574MOL0     C77362   6.638   8.473   4.309  0.2834  0.6998  0.3431
  574MOL0     O77363   6.505   8.517   4.310 -0.1652 -0.6009 -0.3485
  574MOL0     C77364   6.444   8.568   4.188 -0.5012 -0.2147 -0.3484
  574MOL0     C77365   6.298   8.627   4.221 -0.7907  0.0395  0.5385
  574MOL0     C77366   6.313   8.719   4.339 -0.5276 -0.3098  0.0028
  574MOL0     C77367   6.187   8.794   4.377  0.1831 -0.2119 -0.3053
  574MOL0     C77368   6.218   8.929   4.436  0.2311 -0.8223  0.1999
  574MOL0     C77369   6.087   9.010   4.448 -0.0123  0.0583 -0.0402
  574MOL0     C77370   6.101   9.128   4.536 -0.7575  0.1681 -0.5533
  574MOL0     C77371   6.192   9.246   4.503 -0.1626 -0.6952  0.2181
  574MOL0     N77372   6.176   9.369   4.593  0.2083  0.0348  1.3160
  574MOL0     C77373   6.174   9.365   4.732 -0.0642  0.5832 -0.6865
  574MOL0     C77374   6.168   9.496   4.764 -0.3331  0.1167 -0.1443
  574MOL0     C77375   6.162   9.540   4.911 -0.2896  0.1144  0.1282
  574MOL0     C77376   6.025   9.508   4.988 -0.3972 -0.7025 -0.4954
  574MOL0     C77377   6.047   9.549   5.134 -0.1647 -1.2726 -0.0077
  574MOL0     C77378   5.942   9.480   5.225 -0.5227  0.1361 -0.2170
  574MOL0     O77379   5.962   9.516   5.365 -0.0525  0.9819 -0.3970
  574MOL0     C77380   5.887   9.446   5.458 -0.5284  0.3640  0.3260
  574MOL0     C77381   5.927   9.440   5.597 -0.2954  0.3511  0.1409
  574MOL0     C77382   5.861   9.357   5.692  0.1091 -0.9544 -0.0402
  574MOL0     C77383   5.929   9.354   5.827 -0.2029 -0.1859 -0.0244
  574MOL0     C77384   5.742   9.299   5.656  0.2205  0.7684  0.4683
  574MOL0     C77385   5.679   9.193   5.736 -0.2936  0.0056  0.0340
  574MOL0     O77386   5.739   9.119   5.832  0.9177  0.3118  0.1492
  574MOL0     C77387   5.670   9.058   5.935  0.2276 -0.1588 -0.2450
  574MOL0     C77388   5.695   8.928   5.975  0.3192  0.1377  0.2352
  574MOL0     C77389   5.615   8.872   6.074 -0.2709 -0.0696 -0.3983
  574MOL0     C77390   5.514   8.941   6.150 -0.5455  0.1182  0.3676
  574MOL0     O77391   5.454   8.874   6.246  0.0202  0.2833 -0.6955
  574MOL0     C77392   5.339   8.922   6.313  0.3511  0.5289  0.4695
  574MOL0     C77393   5.365   9.026   6.427 -0.7699 -0.2902  0.0730
  574MOL0     C77394   5.245   9.122   6.448  0.7064 -0.8221  0.5309
  574MOL0     C77395   5.120   9.053   6.477 -0.1212  1.1937 -0.3184
  574MOL0     C77396   4.995   9.143   6.471  0.3134  0.1568 -0.5904
  574MOL0     C77397   4.870   9.072   6.520  0.4313  0.2173 -0.4243
  574MOL0     C77398   4.833   8.953   6.429  0.4229  0.2224  0.3735
  574MOL0     C77399   4.681   8.943   6.430  0.4541  0.7057  0.1455
  574MOL0    Cl77400   4.599   9.083   6.353  0.1220  0.0832  0.0383
  574MOL0     C77401   5.502   9.078   6.116  0.7206 -1.1784 -0.2145
  574MOL0     C77402   5.574   9.134   6.001  1.0207  0.3859 -0.4637
  574MOL0     O77403   5.559   9.180   5.709 -0.1160 -0.1008 -0.3218
  574MOL0     C77404   5.699   9.310   5.522  0.9851 -0.0543  0.3766
  574MOL0     C77405   5.771   9.380   5.428 -0.2416  0.3392 -0.0127
  574MOL0     N77406   6.167   9.572   4.650  0.5008 -0.3907  0.1848
  574MOL0     N77407   6.159   9.497   4.553 -0.0656 -0.3803  0.2558
  574MOL0     C77408   6.736   8.542   4.237  0.9158  0.4781 -0.2821
  574MOL0     C77409   6.867   8.505   4.237  0.5120  0.1841 -0.1844
  574MOL0     C77410   7.264   8.448   4.455 -0.0671 -0.0079  0.7636
  574MOL0     C77411   7.325   8.328   4.403 -0.2799 -0.3498 -0.6471
  574MOL0     C77412   7.470   8.324   4.403  0.4286  0.3837 -0.3027
  574MOL0     C77413   7.550   8.422   4.463  0.4338 -0.2183  0.2901
  574MOL0     O77414   7.686   8.413   4.448  0.2249 -0.7013 -0.1858
  574MOL0     C77415   7.761   8.510   4.518 -0.3182  0.5217  0.4088
  574MOL0     C77416   7.911   8.492   4.501  0.1964 -0.2945  1.0433
  574MOL0     C77417   8.002   8.569   4.603  0.7089 -0.5302  0.2768
  574MOL0     C77418   8.008   8.720   4.571  0.4012  0.7861  1.2520
  574MOL0     C77419   8.119   8.772   4.642  0.3101  0.2314  0.2945
  574MOL0     C77420   8.213   8.813   4.695 -0.3357  0.5853 -0.7473
  574MOL0     C77421   7.482   8.528   4.519  0.6753 -0.3755 -0.6000
  574MOL0     C77422   7.344   8.545   4.520  0.3134  0.0504  0.2328
  574MOL0     H77423   6.870   8.273   4.480  0.2291  0.8087  2.1276
  574MOL0     H77424   6.611   8.328   4.462 -0.8435 -0.5372 -3.5564
  574MOL0     H77425   6.500   8.648   4.138  1.1712 -1.2222 -0.1430
  574MOL0     H77426   6.437   8.493   4.109  0.5206 -0.4466 -0.2359
  574MOL0     H77427   6.260   8.684   4.136 -1.0198  0.5271  0.9583
  574MOL0     H77428   6.222   8.551   4.242 -0.6995 -0.6985 -1.6187
  574MOL0     H77429   6.349   8.663   4.426 -1.0568 -1.8760 -0.7398
  574MOL0     H77430   6.389   8.791   4.309 -1.9702  1.7647  1.0629
  574MOL0     H77431   6.120   8.816   4.293 -3.1491 -2.6180  1.4751
  574MOL0     H77432   6.126   8.738   4.449 -0.7975  1.1742 -0.0216
  574MOL0     H77433   6.262   8.915   4.534  2.2279 -2.3885 -0.8510
  574MOL0     H77434   6.289   8.979   4.368 -0.7430  2.0698  1.1861
  574MOL0     H77435   6.083   9.048   4.345  0.7088  3.3575  1.0355
  574MOL0     H77436   6.004   8.946   4.478 -0.3972 -0.1726 -1.4853
  574MOL0     H77437   6.002   9.171   4.552 -0.3830  1.2601 -1.1005
  574MOL0     H77438   6.127   9.086   4.633  0.5830  0.4866 -0.7602
  574MOL0     H77439   6.170   9.277   4.400  0.3299 -3.0139 -0.6341
  574MOL0     H77440   6.298   9.219   4.502  0.2780  0.9238  0.2894
  574MOL0     H77441   6.158   9.279   4.795  1.6777 -1.2573 -2.5915
  574MOL0     H77442   6.237   9.488   4.972 -1.5840 -0.3847  1.3525
  574MOL0     H77443   6.168   9.650   4.910  0.3188  0.0869  0.4696
  574MOL0     H77444   5.998   9.402   4.990 -2.6607 -0.1827  1.8857
  574MOL0     H77445   5.944   9.570   4.948 -0.2628  0.3312  0.7649
  574MOL0     H77446   6.047   9.658   5.142 -1.1884 -1.1117 -1.7413
  574MOL0     H77447   6.146   9.517   5.169  0.2066 -2.5577 -2.0680
  574MOL0     H77448   5.957   9.372   5.213  1.0101 -0.1959  3.2748
  574MOL0     H77449   5.844   9.516   5.193 -1.2093 -1.2159  0.2950
  574MOL0     H77450   6.014   9.501   5.617  0.8831 -0.4013 -2.3286
  574MOL0     H77451   5.858   9.341   5.909 -0.3069  0.3383 -0.0242
  574MOL0     H77452   6.009   9.279   5.825  0.4179  0.4277  0.8867
  574MOL0     H77453   5.980   9.450   5.844  1.1564 -1.0378  0.9033
  574MOL0     H77454   5.773   8.866   5.932  0.2633 -1.3450  2.1767
  574MOL0     H77455   5.631   8.770   6.108  1.2773 -0.0921 -1.0714
  574MOL0     H77456   5.272   8.963   6.237 -0.2940 -1.2433  0.0157
  574MOL0     H77457   5.287   8.834   6.352 -2.0047  0.7967 -1.7712
  574MOL0     H77458   5.406   8.984   6.520 -1.0328 -0.5728  0.0628
  574MOL0     H77459   5.446   9.093   6.398 -0.8245  0.3984  1.4396
  574MOL0     H77460   5.224   9.174   6.354  0.5110 -1.6638  0.1013
  574MOL0     H77461   5.269   9.197   6.524 -0.6712 -1.6947  1.8891
  574MOL0     H77462   5.109   8.963   6.417  1.6011  0.4515  0.4068
  574MOL0     H77463   5.133   9.014   6.578  0.8484 -0.6960 -1.1282
  574MOL0     H77464   4.969   9.190   6.376 -3.5435 -0.1970  0.1237
  574MOL0     H77465   5.022   9.221   6.543  2.0432 -1.5164  0.6779
  574MOL0     H77466   4.881   9.034   6.622  0.1569  0.3655 -0.3374
  574MOL0     H77467   4.791   9.148   6.526  1.5277  1.3596  0.3080
  574MOL0     H77468   4.871   8.857   6.463 -0.9738 -0.2318  0.7335
  574MOL0     H77469   4.868   8.976   6.327  0.4245  1.8144  0.7033
  574MOL0     H77470   4.646   8.945   6.534 -4.4620 -0.1324 -1.2299
  574MOL0     H77471   4.652   8.848   6.385 -4.3335  0.7550  2.4495
  574MOL0     H77472   5.428   9.140   6.164 -0.8532 -0.2490 -3.4978
  574MOL0     H77473   5.563   9.239   5.978  0.5799  0.4029 -0.1895
  574MOL0     H77474   5.608   9.267   5.482  0.7095 -0.1466  1.0858
  574MOL0     H77475   5.732   9.382   5.327 -2.3096  0.4408  0.7361
  574MOL0     H77476   6.706   8.617   4.165  0.3582 -0.1567 -0.7227
  574MOL0     H77477   6.930   8.561   4.169 -0.8520 -0.7596 -2.3196
  574MOL0     H77478   7.268   8.256   4.346  0.6017 -0.2600 -1.6665
  574MOL0     H77479   7.522   8.244   4.351  1.5565  1.3182 -0.6630
  574MOL0     H77480   7.737   8.609   4.479 -2.2408 -0.3113 -0.6549
  574MOL0     H77481   7.734   8.509   4.624 -0.1165 -0.0233  0.4600
  574MOL0     H77482   7.935   8.531   4.402  1.1071  0.2778  1.4777
  574MOL0     H77483   7.934   8.385   4.497 -0.6701 -0.4461 -1.9675
  574MOL0     H77484   8.101   8.522   4.596  1.8831  1.4472  2.2995
  574MOL0     H77485   7.977   8.551   4.708 -0.0421 -2.4821 -0.1826
  574MOL0     H77486   7.915   8.778   4.568 -0.3696 -0.4130 -1.7482
  574MOL0     H77487   8.039   8.721   4.466  2.3386 -5.4552  1.3717
  574MOL0     H77488   8.294   8.840   4.759 -0.7139 -2.2350  1.1506
  574MOL0     H77489   7.536   8.614   4.556 -2.0257  1.0450  0.2823
  574MOL0     H77490   7.306   8.637   4.564 -1.1544 -0.0707 -0.6914
  575MOL0     O77491   4.746   6.640   9.055  0.0858 -0.1625 -0.2538
  575MOL0     C77492   4.652   6.649   8.973  0.2576  0.8110  0.4936
  575MOL0     O77493   4.660   6.616   8.833  0.3516  0.0749  0.0598
  575MOL0     C77494   4.776   6.561   8.783 -0.1988  0.8737  0.7737
  575MOL0     C77495   4.898   6.616   8.813 -0.2055  0.0768 -0.4298
  575MOL0     C77496   5.013   6.560   8.766 -0.1706 -0.3500  0.0377
  575MOL0     C77497   5.007   6.454   8.675 -0.2864 -1.3353  0.7494
  575MOL0     O77498   5.114   6.410   8.602  0.2347  0.6242  1.0480
  575MOL0     C77499   5.246   6.450   8.644 -0.6994 -0.2555 -0.1542
  575MOL0     C77500   5.348   6.382   8.545 -0.6364  0.1903 -0.5538
  575MOL0     C77501   5.321   6.392   8.395  0.3891  0.2648  0.8848
  575MOL0     C77502   5.442   6.363   8.305 -0.1740  0.5204 -0.8597
  575MOL0     C77503   5.412   6.349   8.155  0.4604  0.4550  0.0011
  575MOL0     C77504   5.545   6.320   8.083  0.6595 -0.2521  0.0276
  575MOL0     C77505   5.519   6.321   7.936 -0.6267 -0.3565 -0.8898
  575MOL0     C77506   5.465   6.186   7.887  0.2212  1.2929 -0.8702
  575MOL0     N77507   5.450   6.176   7.747 -0.0230 -0.1791  0.2099
  575MOL0     C77508   5.396   6.268   7.662 -0.1839  0.0633 -0.6592
  575MOL0     C77509   5.376   6.208   7.542  0.2555  0.2060 -0.0984
  575MOL0     C77510   5.304   6.256   7.415 -0.1322 -0.6988  0.3278
  575MOL0     C77511   5.146   6.249   7.433 -1.7141 -0.5914  0.3583
  575MOL0     C77512   5.067   6.309   7.311 -0.7088 -0.6443 -0.0355
  575MOL0     C77513   5.108   6.270   7.176  0.1119 -0.2270 -0.6942
  575MOL0     O77514   5.012   6.341   7.087  0.5522 -0.4092  0.4897
  575MOL0     C77515   5.004   6.305   6.951  0.1057  0.3032 -0.1233
  575MOL0     C77516   4.939   6.402   6.880 -0.9629 -0.0970 -0.1892
  575MOL0     C77517   4.894   6.391   6.747  0.2143 -0.7485 -0.6672
  575MOL0     C77518   4.830   6.506   6.681  0.0175 -0.0816  0.3230
  575MOL0     C77519   4.927   6.273   6.677 -0.2198 -0.7964 -0.5746
  575MOL0     C77520   4.886   6.245   6.535 -0.2637  0.5139 -0.0024
  575MOL0     O77521   4.838   6.339   6.453 -0.4499  1.0473  0.0150
  575MOL0     C77522   4.796   6.319   6.323 -0.3671  0.1408 -0.3538
  575MOL0     C77523   4.736   6.427   6.257 -0.2506 -0.2950 -0.1438
  575MOL0     C77524   4.710   6.424   6.124  0.3071  0.3730 -0.4553
  575MOL0     C77525   4.761   6.326   6.040 -0.3628 -0.2202 -0.9897
  575MOL0     O77526   4.738   6.340   5.903 -0.4247 -0.5908  0.2887
  575MOL0     C77527   4.850   6.299   5.816  0.2244  0.2586  0.3834
  575MOL0     C77528   4.833   6.357   5.680  0.2991 -0.4723  0.0760
  575MOL0     C77529   4.922   6.295   5.574  0.3833  0.0354 -0.0857
  575MOL0     C77530   4.953   6.385   5.464 -0.2132  0.7955  0.4953
  575MOL0     C77531   5.020   6.321   5.340 -1.5436 -0.1961 -0.6550
  575MOL0     C77532   5.170   6.291   5.357 -0.0811 -0.4508 -0.6214
  575MOL0     C77533   5.257   6.421   5.378 -0.0124 -0.2634  0.7607
  575MOL0     C77534   5.405   6.382   5.362 -0.8918 -0.0429 -0.0593
  575MOL0    Cl77535   5.473   6.306   5.512 -0.2017  0.3010 -0.1868
  575MOL0     C77536   4.830   6.220   6.096 -0.1447 -0.4160  0.0673
  575MOL0     C77537   4.849   6.214   6.237  0.5136  1.1989  0.3349
  575MOL0     O77538   4.891   6.125   6.504 -0.0786  0.3775  0.4082
  575MOL0     C77539   4.998   6.178   6.754  0.3269  0.0376  0.1392
  575MOL0     C77540   5.036   6.192   6.888 -0.7660  0.4413  0.6001
  575MOL0     N77541   5.427   6.079   7.556 -0.5269  0.6269 -0.3058
  575MOL0     N77542   5.462   6.058   7.672 -0.7765 -0.0554 -0.1841
  575MOL0     C77543   4.884   6.398   8.648 -0.1248 -0.0159  0.5073
  575MOL0     C77544   4.771   6.450   8.699  0.9164 -0.0540 -0.6011
  575MOL0     C77545   4.523   6.682   9.024 -0.0577  0.1589 -0.1579
  575MOL0     C77546   4.503   6.701   9.165  0.0253  0.3627  0.3990
  575MOL0     C77547   4.382   6.715   9.227 -0.0950  0.3663 -0.5250
  575MOL0     C77548   4.268   6.714   9.149  0.7053 -0.5223  0.6069
  575MOL0     O77549   4.156   6.735   9.226  0.2277  0.3161 -0.1501
  575MOL0     C77550   4.023   6.702   9.170  0.0333  0.0339  0.3623
  575MOL0     C77551   3.922   6.711   9.282 -0.1367  0.4372  0.1432
  575MOL0     C77552   3.774   6.679   9.248 -0.0609 -0.0902  0.7562
  575MOL0     C77553   3.686   6.666   9.366 -1.0344 -0.5388 -0.9623
  575MOL0     C77554   3.545   6.641   9.331  0.4612 -0.8482 -0.2642
  575MOL0     C77555   3.426   6.602   9.325 -0.0393 -0.2334  0.0647
  575MOL0     C77556   4.279   6.687   9.012 -1.8097 -0.5559  0.0581
  575MOL0     C77557   4.406   6.678   8.943 -0.9225 -0.3150  0.6910
  575MOL0     H77558   4.893   6.701   8.880 -0.4944  1.6581 -2.3611
  575MOL0     H77559   5.106   6.608   8.796 -0.9950 -0.4211  3.0391
  575MOL0     H77560   5.245   6.558   8.628 -0.0911 -0.4018 -1.2598
  575MOL0     H77561   5.275   6.420   8.745  0.5288 -0.2715 -0.4918
  575MOL0     H77562   5.442   6.433   8.569 -1.0785 -0.4965  3.3967
  575MOL0     H77563   5.358   6.277   8.573  0.9219  0.0360 -1.6057
  575MOL0     H77564   5.234   6.331   8.367  0.8849 -0.3149  0.5656
  575MOL0     H77565   5.286   6.495   8.385 -1.6714 -0.3341  1.4711
  575MOL0     H77566   5.530   6.422   8.330  0.5231 -0.3850 -1.1141
  575MOL0     H77567   5.470   6.262   8.336  0.3218  1.0505  0.5064
  575MOL0     H77568   5.348   6.262   8.140 -1.1426  1.5313  0.4343
  575MOL0     H77569   5.371   6.443   8.116  0.3565  0.1112 -0.7492
  575MOL0     H77570   5.621   6.396   8.105 -0.2634  1.4710 -2.3294
  575MOL0     H77571   5.586   6.227   8.124  0.7958 -0.4461 -0.5412
  575MOL0     H77572   5.442   6.395   7.915  1.3087  1.1403 -3.2283
  575MOL0     H77573   5.609   6.346   7.880 -0.2133 -1.6131 -0.8371
  575MOL0     H77574   5.372   6.162   7.939  0.3175  2.7708  0.0239
  575MOL0     H77575   5.545   6.119   7.921 -0.3400  1.4442  0.8258
  575MOL0     H77576   5.361   6.368   7.687 -0.8332 -0.1865 -0.5667
  575MOL0     H77577   5.333   6.361   7.398 -1.9961 -0.3676 -1.1792
  575MOL0     H77578   5.335   6.198   7.328  0.2326  0.1488 -0.1218
  575MOL0     H77579   5.117   6.303   7.524 -0.9748 -0.1822  0.3530
  575MOL0     H77580   5.113   6.145   7.445 -1.6496 -0.6254  0.2371
  575MOL0     H77581   5.078   6.418   7.314 -2.1374 -0.4966  1.0114
  575MOL0     H77582   4.961   6.285   7.323 -0.6776 -0.7816 -0.0323
  575MOL0     H77583   5.116   6.161   7.170 -1.2648 -0.6775  2.9362
  575MOL0     H77584   5.204   6.318   7.155  0.6002 -0.6053  0.5785
  575MOL0     H77585   4.902   6.490   6.933  0.6101 -0.0630  0.9043
  575MOL0     H77586   4.906   6.552   6.617 -0.8507  0.4092 -0.3959
  575MOL0     H77587   4.744   6.484   6.617 -0.0342 -2.3679  1.1054
  575MOL0     H77588   4.804   6.581   6.757 -1.9029 -0.2792 -0.0954
  575MOL0     H77589   4.717   6.516   6.317 -1.6966 -1.9119  1.9255
  575MOL0     H77590   4.659   6.506   6.074 -1.7744  1.3294  2.9487
  575MOL0     H77591   4.942   6.338   5.861  1.1896 -0.4922 -0.8623
  575MOL0     H77592   4.861   6.190   5.812 -1.1209  0.0964  0.7161
  575MOL0     H77593   4.729   6.348   5.647  0.2650  4.7057 -2.2713
  575MOL0     H77594   4.858   6.462   5.701  1.5976 -1.4380  4.3684
  575MOL0     H77595   4.881   6.200   5.538  3.2095 -2.3607  2.4909
  575MOL0     H77596   5.010   6.281   5.638  1.4498  1.2049 -1.2350
  575MOL0     H77597   4.856   6.426   5.432 -0.2182  1.2241  1.0404
  575MOL0     H77598   5.022   6.456   5.510  1.1940  0.5995 -1.2135
  575MOL0     H77599   5.012   6.398   5.263  0.9382 -2.4379 -3.3982
  575MOL0     H77600   4.965   6.235   5.299 -0.3962  0.0784 -2.9047
  575MOL0     H77601   5.186   6.203   5.420 -1.9955 -0.6806 -0.3835
  575MOL0     H77602   5.201   6.267   5.255 -0.3158 -0.1711 -0.7577
  575MOL0     H77603   5.234   6.464   5.475  0.6607  0.2355  0.7089
  575MOL0     H77604   5.240   6.493   5.298  1.5301 -0.2967  0.3754
  575MOL0     H77605   5.459   6.475   5.342  0.9952 -0.8640  0.9400
  575MOL0     H77606   5.418   6.311   5.280  2.3973 -0.8499  0.9778
  575MOL0     H77607   4.857   6.130   6.042 -0.6038 -0.1593 -0.5984
  575MOL0     H77608   4.918   6.135   6.265  1.0577  1.7240  0.4916
  575MOL0     H77609   5.021   6.092   6.692  1.3000  1.0103 -0.9002
  575MOL0     H77610   5.085   6.111   6.939 -3.0818  0.2287  2.6553
  575MOL0     H77611   4.870   6.313   8.583 -2.0026  0.1358  0.6520
  575MOL0     H77612   4.677   6.401   8.676  1.7861 -1.6161 -1.0170
  575MOL0     H77613   4.595   6.718   9.219 -0.2219 -0.5439  1.1393
  575MOL0     H77614   4.380   6.725   9.335  1.0398 -0.9660 -0.3541
  575MOL0     H77615   3.996   6.774   9.092  0.6446 -1.1291 -0.9928
  575MOL0     H77616   4.033   6.610   9.112  1.3734 -1.1885  2.4215
  575MOL0     H77617   3.932   6.812   9.323  1.1392  0.5003 -0.2879
  575MOL0     H77618   3.957   6.642   9.359 -0.8771 -0.5320 -0.3635
  575MOL0     H77619   3.760   6.582   9.201  0.3114 -0.6665  1.8068
  575MOL0     H77620   3.748   6.754   9.173 -1.1305 -1.8614 -0.7089
  575MOL0     H77621   3.699   6.760   9.420 -2.5741  0.4986 -2.3343
  575MOL0     H77622   3.731   6.590   9.431  1.8722  2.4216  0.8145
  575MOL0     H77623   3.323   6.573   9.330 -0.1029  0.0332  0.3485
  575MOL0     H77624   4.188   6.677   8.954 -0.5626 -1.4306 -1.8590
  575MOL0     H77625   4.408   6.659   8.837 -1.4110 -1.0322  0.8063
  576MOL0     O77626   0.156   3.498   4.568  0.2401  0.2512 -0.1752
  576MOL0     C77627   0.161   3.519   4.444 -0.5551  0.1934 -0.4471
  576MOL0     O77628   0.054   3.523   4.359  0.4310  0.8423 -0.0270
  576MOL0     C77629  -0.077   3.514   4.405  0.1457  0.1314  0.4283
  576MOL0     C77630  -0.115   3.433   4.514  0.1715  0.2002 -0.5688
  576MOL0     C77631  -0.243   3.422   4.549 -0.1114 -1.1484 -0.3584
  576MOL0     C77632  -0.344   3.474   4.464  0.0555  0.4927  0.6756
  576MOL0     O77633  -0.482   3.461   4.480 -0.1984  0.2163  0.0080
  576MOL0     C77634  -0.521   3.394   4.597 -0.1015  0.0003  1.3606
  576MOL0     C77635  -0.666   3.364   4.585 -0.3611 -0.3541  0.3057
  576MOL0     C77636  -0.759   3.485   4.576  0.3435 -0.3935 -1.1324
  576MOL0     C77637  -0.895   3.442   4.525  0.7889 -0.3735 -0.0799
  576MOL0     C77638  -0.998   3.542   4.558  0.0742 -0.4978  0.0313
  576MOL0     C77639  -1.137   3.505   4.502  0.3428 -0.3460  0.4565
  576MOL0     C77640  -1.240   3.614   4.550 -0.6726  0.1301 -0.2119
  576MOL0     C77641  -1.303   3.583   4.686 -0.0066  0.2100  0.5873
  576MOL0     N77642  -1.441   3.624   4.679 -0.5680 -0.5336  0.6118
  576MOL0     C77643  -1.475   3.741   4.738 -0.6267 -0.1591 -0.3218
  576MOL0     C77644  -1.607   3.754   4.723  0.8558  0.4363  0.4350
  576MOL0     C77645  -1.696   3.877   4.752 -0.1606 -0.2520  0.3861
  576MOL0     C77646  -1.838   3.851   4.708  0.3307  0.5509  0.3965
  576MOL0     C77647  -1.937   3.953   4.768 -1.3228 -0.3819 -0.3551
  576MOL0     C77648  -2.078   3.923   4.718 -0.2304 -0.3071 -0.4144
  576MOL0     O77649  -2.156   4.000   4.817  0.0769 -0.7832 -0.1292
  576MOL0     C77650  -2.291   3.973   4.824 -0.6427  0.1101  0.1426
  576MOL0     C77651  -2.356   3.861   4.768  0.3431  0.9732  0.2373
  576MOL0     C77652  -2.494   3.837   4.787 -0.3112 -0.0631  0.1352
  576MOL0     C77653  -2.569   3.721   4.735 -0.2159  0.5354 -0.5426
  576MOL0     C77654  -2.568   3.938   4.854  0.4622  0.5563  0.8517
  576MOL0     C77655  -2.713   3.925   4.874 -0.6791  0.9806  0.1729
  576MOL0     O77656  -2.789   3.927   4.768 -0.4919 -1.0527  0.3070
  576MOL0     C77657  -2.919   3.912   4.789 -0.3451 -0.2626 -0.7265
  576MOL0     C77658  -2.971   3.784   4.816 -0.8621 -0.9823  0.1399
  576MOL0     C77659  -3.112   3.762   4.848 -0.2866  0.2157  0.3592
  576MOL0     C77660  -3.202   3.865   4.848  0.3097  0.0475  0.9618
  576MOL0     O77661  -3.339   3.837   4.873  0.2320 -0.2826 -0.0159
  576MOL0     C77662  -3.376   3.841   5.013 -0.3215  0.3839 -0.2017
  576MOL0     C77663  -3.529   3.828   5.020 -0.4468 -0.1724  0.1528
  576MOL0     C77664  -3.611   3.892   4.905 -0.7277 -0.6873 -0.4518
  576MOL0     C77665  -3.761   3.868   4.943 -0.3008  0.3607  0.1441
  576MOL0     C77666  -3.851   3.968   4.875  0.3283 -0.0108  0.2779
  576MOL0     C77667  -3.997   3.967   4.936 -0.8558  0.5611  0.8804
  576MOL0     C77668  -4.082   4.063   4.852  0.0996  0.1001 -0.6988
  576MOL0     C77669  -4.221   4.087   4.912  0.5164 -0.5209  0.3539
  576MOL0    Cl77670  -4.335   3.977   4.825  0.0847 -0.1612  0.1868
  576MOL0     C77671  -3.154   3.992   4.827  0.4040  0.2394  0.4338
  576MOL0     C77672  -3.019   4.015   4.798  0.4289 -0.3760  0.6263
  576MOL0     O77673  -2.751   3.915   4.989  0.0790 -0.4752  0.4909
  576MOL0     C77674  -2.505   4.055   4.903 -0.1647  0.6440  0.5428
  576MOL0     C77675  -2.365   4.064   4.900 -0.5568 -0.1417  0.2199
  576MOL0     N77676  -1.659   3.638   4.656  0.3925  0.2348 -0.5851
  576MOL0     N77677  -1.547   3.567   4.623  1.3287  0.1997 -0.0206
  576MOL0     C77678  -0.304   3.559   4.358  0.6779 -0.0302 -0.0002
  576MOL0     C77679  -0.171   3.585   4.327 -0.5092  0.7280  0.4591
  576MOL0     C77680   0.291   3.529   4.376  0.0089  0.8572  0.0753
  576MOL0     C77681   0.405   3.543   4.452 -0.1107 -0.2857 -0.1005
  576MOL0     C77682   0.531   3.544   4.385 -0.6241 -0.1747  0.0884
  576MOL0     C77683   0.544   3.541   4.250  0.3979  0.1389 -0.2203
  576MOL0     O77684   0.664   3.547   4.176 -0.7555  0.8078  0.3982
  576MOL0     C77685   0.791   3.556   4.252  0.0974  0.3746 -0.0873
  576MOL0     C77686   0.905   3.528   4.152  0.4086  0.1173  0.2473
  576MOL0     C77687   0.916   3.380   4.127  0.5966  0.0817 -0.5537
  576MOL0     C77688   0.962   3.354   3.983 -0.2370  0.3057  0.3354
  576MOL0     C77689   1.097   3.409   3.969 -0.1036 -0.1391 -0.9529
  576MOL0     C77690   1.216   3.443   3.962  0.1311  0.0435 -0.3929
  576MOL0     C77691   0.428   3.536   4.176 -0.8783 -0.1513 -0.0315
  576MOL0     C77692   0.303   3.523   4.238 -0.4765  0.1306  0.1676
  576MOL0     H77693  -0.042   3.375   4.570 -1.8712 -0.8733  1.1053
  576MOL0     H77694  -0.270   3.369   4.639 -3.2310  2.4638  1.1269
  576MOL0     H77695  -0.473   3.296   4.607  0.1142  0.0371  0.7219
  576MOL0     H77696  -0.505   3.460   4.684 -0.1015  1.2642  0.4334
  576MOL0     H77697  -0.673   3.314   4.488 -0.5987 -1.5501  0.9192
  576MOL0     H77698  -0.696   3.289   4.658 -1.7760  0.0254  0.1489
  576MOL0     H77699  -0.774   3.519   4.679 -1.6443 -0.0958 -1.4775
  576MOL0     H77700  -0.710   3.567   4.522  2.3874  0.2684  1.5569
  576MOL0     H77701  -0.878   3.445   4.417  1.3221  0.3677  0.0200
  576MOL0     H77702  -0.933   3.346   4.562 -3.6892  1.9486  1.9463
  576MOL0     H77703  -1.010   3.534   4.666  3.0345 -1.4222  0.3782
  576MOL0     H77704  -0.966   3.644   4.532  0.4653 -1.1063 -2.0647
  576MOL0     H77705  -1.138   3.499   4.393 -0.7580 -1.7880  0.5331
  576MOL0     H77706  -1.174   3.408   4.535 -1.4476  0.2860  0.3798
  576MOL0     H77707  -1.202   3.716   4.554  1.1711 -0.5608  1.2736
  576MOL0     H77708  -1.313   3.609   4.469  0.7981  0.3931 -1.5935
  576MOL0     H77709  -1.247   3.631   4.766 -0.1266 -0.8899  1.3617
  576MOL0     H77710  -1.299   3.475   4.708 -1.5372  0.1324  0.5674
  576MOL0     H77711  -1.409   3.814   4.785 -0.0424 -0.9666  0.1479
  576MOL0     H77712  -1.689   3.883   4.861 -0.9942  1.8255  0.3749
  576MOL0     H77713  -1.660   3.969   4.705 -3.2490  1.2915  0.7610
  576MOL0     H77714  -1.882   3.753   4.732  0.1825  0.7812  1.0933
  576MOL0     H77715  -1.836   3.862   4.599  1.0156 -0.3324  0.3017
  576MOL0     H77716  -1.910   4.057   4.747  0.4772 -0.6150  0.6067
  576MOL0     H77717  -1.939   3.942   4.877 -1.6776  0.4145 -0.2775
  576MOL0     H77718  -2.100   3.817   4.732  2.3816 -1.2089 -2.2882
  576MOL0     H77719  -2.094   3.961   4.617  0.4626  2.3298  0.3698
  576MOL0     H77720  -2.299   3.786   4.714 -0.8841 -0.3843  0.7545
  576MOL0     H77721  -2.501   3.636   4.731  1.2567  1.7291 -2.0927
  576MOL0     H77722  -2.663   3.695   4.785  0.9180 -0.9816  0.8991
  576MOL0     H77723  -2.581   3.732   4.627  2.2620  0.1723 -0.9214
  576MOL0     H77724  -2.907   3.696   4.824  0.8582 -0.1242 -2.5628
  576MOL0     H77725  -3.135   3.659   4.874  1.2700 -0.1701  0.3172
  576MOL0     H77726  -3.332   3.756   5.066  2.5568  1.9751  0.1523
  576MOL0     H77727  -3.336   3.932   5.058  1.0006 -0.1462 -0.2627
  576MOL0     H77728  -3.557   3.722   5.024 -0.3023 -0.1756  2.0540
  576MOL0     H77729  -3.561   3.875   5.113 -0.3949  4.4647 -1.9068
  576MOL0     H77730  -3.580   3.854   4.807 -3.5623  0.4305 -1.8846
  576MOL0     H77731  -3.601   4.000   4.894 -2.7794 -0.6304 -2.5664
  576MOL0     H77732  -3.790   3.768   4.908  0.7880  0.3139 -0.6875
  576MOL0     H77733  -3.773   3.869   5.052  1.9107  2.0856  0.4360
  576MOL0     H77734  -3.847   3.955   4.767  0.2018  1.4822  0.0725
  576MOL0     H77735  -3.815   4.069   4.901 -1.0319 -0.6463  5.7934
  576MOL0     H77736  -4.042   3.872   4.964  0.1379  0.6627  2.9783
  576MOL0     H77737  -3.981   4.008   5.036 -0.4767 -0.3224  1.1971
  576MOL0     H77738  -4.077   4.030   4.748  2.3884 -1.0201 -0.3141
  576MOL0     H77739  -4.034   4.162   4.854  0.0378  0.1365  1.9062
  576MOL0     H77740  -4.254   4.191   4.903  2.3637  0.2219  1.5394
  576MOL0     H77741  -4.224   4.060   5.018  0.9880 -2.1177 -0.0189
  576MOL0     H77742  -3.227   4.072   4.826  0.8841  0.7255  1.8223
  576MOL0     H77743  -2.998   4.121   4.791 -3.2335  0.5459  1.3537
  576MOL0     H77744  -2.561   4.137   4.947 -1.1515  0.9924 -1.2790
  576MOL0     H77745  -2.306   4.148   4.935 -0.8613  1.0374 -1.9283
  576MOL0     H77746  -0.387   3.604   4.305 -1.1446 -1.3398  1.6301
  576MOL0     H77747  -0.128   3.649   4.251  0.5983 -0.4889  0.0015
  576MOL0     H77748   0.404   3.549   4.560  2.9470  1.7736 -0.0482
  576MOL0     H77749   0.620   3.554   4.446  0.6516 -2.4527 -1.2742
  576MOL0     H77750   0.796   3.652   4.302 -0.6389  0.5306 -0.3015
  576MOL0     H77751   0.780   3.482   4.332 -0.9528  2.2457  1.5779
  576MOL0     H77752   0.985   3.565   4.217 -0.1747 -0.2018  1.1665
  576MOL0     H77753   0.896   3.583   4.058 -0.7669  0.5366  0.5780
  576MOL0     H77754   0.814   3.343   4.121 -0.2082  1.9258  1.0630
  576MOL0     H77755   0.971   3.322   4.202 -1.7985 -0.0238  1.2039
  576MOL0     H77756   0.904   3.415   3.913  0.2833  0.9786  0.4819
  576MOL0     H77757   0.964   3.250   3.950  0.1210  0.4593 -0.1346
  576MOL0     H77758   1.320   3.465   3.974  0.7220 -2.3947 -0.6148
  576MOL0     H77759   0.429   3.539   4.068 -1.2038  2.0936 -0.0230
  576MOL0     H77760   0.216   3.507   4.174  3.1478 -2.6672 -4.7463
  577MOL0     O77761   4.331   6.492   3.809  0.2456 -0.5932 -0.3391
  577MOL0     C77762   4.380   6.478   3.922 -0.1910  0.5526  0.0676
  577MOL0     O77763   4.318   6.509   4.035 -0.6342  0.0544 -1.2107
  577MOL0     C77764   4.188   6.514   4.037  0.4190 -0.4867  0.2785
  577MOL0     C77765   4.127   6.642   4.024 -0.1593  0.4476 -0.3872
  577MOL0     C77766   3.985   6.649   4.039 -0.4010 -0.2773  0.2570
  577MOL0     C77767   3.904   6.539   4.063 -0.5873  0.1370 -0.5220
  577MOL0     O77768   3.771   6.577   4.087 -0.1445  0.0213 -0.5938
  577MOL0     C77769   3.679   6.476   4.117  0.6618  0.3001 -0.6136
  577MOL0     C77770   3.601   6.423   3.993  0.2849  0.7327 -0.1556
  577MOL0     C77771   3.467   6.501   3.975 -0.3044 -0.4775  0.9775
  577MOL0     C77772   3.394   6.444   3.838  0.6268 -0.7326 -0.0860
  577MOL0     C77773   3.243   6.485   3.833 -1.0081  0.0876  0.4798
  577MOL0     C77774   3.155   6.427   3.950  0.2333  0.7463  0.4728
  577MOL0     C77775   3.000   6.419   3.907 -0.3924  0.3046  0.0081
  577MOL0     C77776   2.927   6.556   3.933  0.0978 -0.2925  0.4357
  577MOL0     N77777   2.786   6.556   3.902  0.0645 -1.2876  0.1606
  577MOL0     C77778   2.722   6.665   3.851 -0.0426  0.4813 -0.2033
  577MOL0     C77779   2.603   6.625   3.810  0.0488  0.8196  0.2190
  577MOL0     C77780   2.502   6.707   3.732  0.3470 -1.0088  0.5835
  577MOL0     C77781   2.394   6.770   3.830 -0.4223  0.5072  0.1518
  577MOL0     C77782   2.459   6.883   3.924 -0.0485  0.4231 -0.1401
  577MOL0     C77783   2.356   6.934   4.026 -0.7940 -0.4641 -0.6234
  577MOL0     O77784   2.239   6.983   3.955 -0.3722  0.1558 -0.5839
  577MOL0     C77785   2.120   7.001   4.012 -0.2101 -0.3984  0.2520
  577MOL0     C77786   2.103   7.033   4.148  0.8443 -0.3249 -0.0538
  577MOL0     C77787   1.977   7.039   4.211  0.2688 -0.7311  0.3154
  577MOL0     C77788   1.976   7.040   4.364 -0.5302 -0.3557 -0.3923
  577MOL0     C77789   1.866   7.038   4.133 -0.2077  1.0083 -0.5189
  577MOL0     C77790   1.726   7.067   4.182  0.1949 -0.0552 -0.8943
  577MOL0     O77791   1.628   7.056   4.091  0.1545 -0.3508  0.0325
  577MOL0     C77792   1.498   7.075   4.133 -0.5656 -0.6449  0.0031
  577MOL0     C77793   1.443   7.028   4.250  0.1090  0.5516 -0.6451
  577MOL0     C77794   1.315   7.054   4.287 -0.3464 -0.5525  0.0156
  577MOL0     C77795   1.228   7.126   4.203  0.2912 -0.1500 -0.2633
  577MOL0     O77796   1.090   7.133   4.226  0.2237 -0.2545 -0.0623
  577MOL0     C77797   1.026   7.150   4.353 -0.3199  0.0476  0.0639
  577MOL0     C77798   0.880   7.212   4.324 -0.1263 -0.0290 -0.1626
  577MOL0     C77799   0.800   7.251   4.444  0.9498  0.7768 -0.0626
  577MOL0     C77800   0.653   7.207   4.426  0.1301 -0.5876  0.5668
  577MOL0     C77801   0.573   7.241   4.558 -0.5372 -0.2406 -0.0416
  577MOL0     C77802   0.423   7.223   4.555  0.4612  0.0413 -1.0810
  577MOL0     C77803   0.355   7.321   4.662  0.7120 -0.4263  0.8762
  577MOL0     C77804   0.252   7.251   4.751 -0.8216  0.0616 -0.2882
  577MOL0    Cl77805   0.216   7.376   4.874  0.1114  0.2084 -0.0777
  577MOL0     C77806   1.276   7.175   4.090 -0.7553  0.1668  0.0369
  577MOL0     C77807   1.412   7.151   4.052  0.2969 -0.5496 -0.7189
  577MOL0     O77808   1.713   7.128   4.285 -0.2700 -0.2575 -0.5830
  577MOL0     C77809   1.882   7.013   3.990  1.0845 -0.6865  0.3410
  577MOL0     C77810   2.004   6.984   3.938 -0.0089 -0.3787  0.0002
  577MOL0     N77811   2.585   6.496   3.845 -0.6417 -0.2540  0.3520
  577MOL0     N77812   2.696   6.457   3.902 -0.1699  0.4006 -0.6703
  577MOL0     C77813   3.962   6.409   4.060 -0.3784  0.1212 -0.1837
  577MOL0     C77814   4.104   6.399   4.052  0.3940  0.5654 -0.4108
  577MOL0     C77815   4.530   6.438   3.920  0.2648  0.5203 -0.2612
  577MOL0     C77816   4.593   6.409   3.799 -0.1909  0.9345  0.3551
  577MOL0     C77817   4.735   6.378   3.802  0.3485  0.0520 -1.0393
  577MOL0     C77818   4.809   6.369   3.921  0.3802 -0.9597 -1.0253
  577MOL0     O77819   4.942   6.342   3.910 -0.5665 -0.3140 -0.3203
  577MOL0     C77820   5.022   6.289   4.019  0.5134 -0.0638 -0.2569
  577MOL0     C77821   5.174   6.319   3.992 -0.2052  0.1233  0.3785
  577MOL0     C77822   5.224   6.201   3.905  0.3420  0.4507  0.3890
  577MOL0     C77823   5.355   6.236   3.832  0.5445 -0.3754 -0.2902
  577MOL0     C77824   5.470   6.215   3.923 -0.8180 -0.0510 -0.0981
  577MOL0     C77825   5.552   6.200   4.005 -0.5358  0.3778 -0.2090
  577MOL0     C77826   4.732   6.387   4.044 -0.2687 -0.4441  0.1172
  577MOL0     C77827   4.599   6.425   4.048  0.4334  0.1365  0.2152
  577MOL0     H77828   4.185   6.733   4.006  1.8468 -0.7103 -0.1011
  577MOL0     H77829   3.924   6.738   4.047  1.9882  1.4819 -0.3535
  577MOL0     H77830   3.716   6.392   4.176  3.1815  1.8229  0.1034
  577MOL0     H77831   3.604   6.527   4.179  0.6698 -1.1372  0.6324
  577MOL0     H77832   3.670   6.431   3.909  1.2473  2.0733  0.7285
  577MOL0     H77833   3.587   6.315   4.006 -0.3306  0.9192  0.9031
  577MOL0     H77834   3.401   6.495   4.062  0.4303  0.6506  1.6305
  577MOL0     H77835   3.485   6.607   3.957  1.8585 -1.1473 -1.4424
  577MOL0     H77836   3.443   6.487   3.750  0.9016  0.1847  0.5094
  577MOL0     H77837   3.417   6.338   3.822  1.2846 -0.4744 -0.9475
  577MOL0     H77838   3.227   6.593   3.838 -0.2819  0.2121  0.1746
  577MOL0     H77839   3.202   6.444   3.740 -1.9328 -0.8308  1.2728
  577MOL0     H77840   3.195   6.325   3.962  0.9556  0.9118 -0.4205
  577MOL0     H77841   3.160   6.483   4.044 -1.3638  0.8814  0.4960
  577MOL0     H77842   2.988   6.392   3.802 -3.8217 -2.6892  0.9572
  577MOL0     H77843   2.957   6.335   3.962 -1.0071 -0.7484 -1.9595
  577MOL0     H77844   2.969   6.641   3.878 -2.2431  0.7003  0.0501
  577MOL0     H77845   2.928   6.583   4.039  1.6562  1.6149  0.0064
  577MOL0     H77846   2.774   6.759   3.838 -0.5590  0.8377  0.2058
  577MOL0     H77847   2.544   6.785   3.668  1.2780 -1.0914  1.0856
  577MOL0     H77848   2.451   6.633   3.669  0.5337 -0.6275 -0.0224
  577MOL0     H77849   2.361   6.699   3.907  2.0509  0.0617  0.8759
  577MOL0     H77850   2.306   6.794   3.769 -1.4867  1.0771  1.8213
  577MOL0     H77851   2.475   6.975   3.867  1.8376  0.3390  0.2101
  577MOL0     H77852   2.553   6.842   3.962 -0.3780 -0.3477 -0.1397
  577MOL0     H77853   2.396   7.009   4.095 -3.7609 -0.2970  1.0510
  577MOL0     H77854   2.320   6.849   4.085 -0.6249 -0.1862 -0.1087
  577MOL0     H77855   2.187   7.038   4.216  1.3025 -1.5170 -0.4911
  577MOL0     H77856   1.950   7.142   4.395 -0.1139  0.3499 -2.2148
  577MOL0     H77857   1.911   6.965   4.409 -0.5384 -0.3525 -0.3988
  577MOL0     H77858   2.076   7.012   4.399 -1.2824 -1.9434  0.5981
  577MOL0     H77859   1.501   6.960   4.312 -0.3317  0.5646 -0.2161
  577MOL0     H77860   1.272   7.007   4.375  2.3888  0.9279  2.3173
  577MOL0     H77861   1.012   7.050   4.396 -1.6950  0.8867  1.7200
  577MOL0     H77862   1.080   7.212   4.425  0.2816  1.8364 -1.8366
  577MOL0     H77863   0.900   7.303   4.267  1.0255 -0.0427  0.2067
  577MOL0     H77864   0.817   7.148   4.261  0.7764 -0.0547 -1.0546
  577MOL0     H77865   0.809   7.356   4.474  0.5767  0.9798 -0.6459
  577MOL0     H77866   0.838   7.188   4.525  2.1143  0.4200 -0.8638
  577MOL0     H77867   0.609   7.253   4.337  0.3341 -0.4035  0.5600
  577MOL0     H77868   0.651   7.100   4.402 -2.4732 -0.2901 -0.9107
  577MOL0     H77869   0.595   7.345   4.584 -1.0196 -0.2170  0.2838
  577MOL0     H77870   0.609   7.178   4.640  3.4265 -0.3498 -1.6538
  577MOL0     H77871   0.384   7.255   4.457 -0.8331  1.7734 -0.0619
  577MOL0     H77872   0.402   7.116   4.560  1.4341 -0.1603 -1.2503
  577MOL0     H77873   0.308   7.407   4.614 -1.1244 -1.2533  1.1216
  577MOL0     H77874   0.427   7.369   4.730  1.9712 -0.2098 -0.5461
  577MOL0     H77875   0.295   7.165   4.803 -0.5222  0.1903 -0.3198
  577MOL0     H77876   0.160   7.220   4.699  0.6683 -2.2450 -1.7250
  577MOL0     H77877   1.222   7.235   4.018  0.2151 -0.7667 -1.5486
  577MOL0     H77878   1.448   7.192   3.959 -1.0460  1.2964 -0.4820
  577MOL0     H77879   1.797   7.008   3.922 -0.2758  3.9523  1.3440
  577MOL0     H77880   2.017   6.943   3.838  2.0099 -1.6271  0.7315
  577MOL0     H77881   3.902   6.319   4.068  1.6465 -1.3718 -1.1514
  577MOL0     H77882   4.154   6.305   4.071 -0.4090  0.0368 -0.8425
  577MOL0     H77883   4.536   6.424   3.708 -2.7657 -1.1047  1.4956
  577MOL0     H77884   4.789   6.363   3.709 -0.3548  1.9461 -1.8071
  577MOL0     H77885   4.994   6.343   4.110  1.4903  1.0297 -0.5942
  577MOL0     H77886   5.000   6.183   4.038  0.5371 -0.2835 -1.3873
  577MOL0     H77887   5.225   6.331   4.088  3.1139  0.9867 -1.3407
  577MOL0     H77888   5.195   6.414   3.942  1.3058 -0.3680  0.0491
  577MOL0     H77889   5.147   6.181   3.830 -0.2955  2.7318  0.3538
  577MOL0     H77890   5.228   6.107   3.961 -1.5165 -0.7494 -1.3614
  577MOL0     H77891   5.337   6.339   3.801 -2.3088 -0.9873 -1.0233
  577MOL0     H77892   5.367   6.176   3.741  0.5660 -1.1339  0.2058
  577MOL0     H77893   5.625   6.180   4.081 -0.7455 -1.3419 -0.4282
  577MOL0     H77894   4.777   6.386   4.142  0.9565  0.6408 -0.4059
  577MOL0     H77895   4.549   6.447   4.141  1.3909 -3.3476  1.7152
  578MOL0     O77896   0.370   0.787   5.906  0.0647 -0.2526 -0.3092
  578MOL0     C77897   0.400   0.809   6.022 -0.6801  0.1247 -0.3537
  578MOL0     O77898   0.326   0.797   6.127  0.8036  0.0424  0.2456
  578MOL0     C77899   0.194   0.757   6.109  0.5608 -0.1874  0.6002
  578MOL0     C77900   0.157   0.628   6.081  0.2541 -0.6319  0.3447
  578MOL0     C77901   0.020   0.598   6.081 -0.3968  0.6784 -0.2335
  578MOL0     C77902  -0.082   0.693   6.092 -0.1278  0.0426  0.2390
  578MOL0     O77903  -0.208   0.638   6.087 -0.7332 -0.3886 -0.3563
  578MOL0     C77904  -0.310   0.722   6.036 -0.3714  0.7995  0.2424
  578MOL0     C77905  -0.389   0.625   5.944 -0.2774 -0.1142 -0.6125
  578MOL0     C77906  -0.517   0.682   5.884  0.7523 -0.3773 -0.0497
  578MOL0     C77907  -0.629   0.694   5.991  0.6614 -0.1932  0.3155
  578MOL0     C77908  -0.763   0.724   5.919 -0.0256  0.2651 -0.3283
  578MOL0     C77909  -0.875   0.740   6.029 -0.1611  0.5929  1.1577
  578MOL0     C77910  -1.000   0.797   5.972 -0.3951 -0.3407 -0.0314
  578MOL0     C77911  -1.097   0.845   6.087  0.0144  0.3214 -0.0524
  578MOL0     N77912  -1.189   0.738   6.140 -0.3658  0.1388  0.2244
  578MOL0     C77913  -1.172   0.670   6.266 -0.3786  0.0458 -0.7642
  578MOL0     C77914  -1.287   0.588   6.270  0.2461 -0.5099 -0.3422
  578MOL0     C77915  -1.313   0.489   6.382 -0.1736 -0.3564  0.0010
  578MOL0     C77916  -1.457   0.463   6.400  0.3978 -0.3513  0.4315
  578MOL0     C77917  -1.491   0.366   6.512  0.2999 -0.6005  1.1682
  578MOL0     C77918  -1.639   0.358   6.532  0.6642  0.0263 -0.1643
  578MOL0     O77919  -1.657   0.297   6.661 -0.3650  0.4178  0.6006
  578MOL0     C77920  -1.772   0.236   6.689 -0.6262 -0.0520 -0.3297
  578MOL0     C77921  -1.774   0.128   6.783 -0.4311 -0.0118  0.6992
  578MOL0     C77922  -1.888   0.058   6.798 -0.4431 -0.3230 -0.2915
  578MOL0     C77923  -1.883  -0.049   6.901  0.8885 -0.3691  0.1683
  578MOL0     C77924  -2.006   0.082   6.716  0.3490  0.4838  0.5353
  578MOL0     C77925  -2.135   0.004   6.734 -0.0317  0.6807 -1.3523
  578MOL0     O77926  -2.248   0.074   6.686 -0.7931 -0.4065 -0.1024
  578MOL0     C77927  -2.375   0.032   6.709  0.4640  0.1142  0.4200
  578MOL0     C77928  -2.424  -0.098   6.673  0.9326 -0.7962  0.8639
  578MOL0     C77929  -2.565  -0.122   6.668 -1.4814  0.6417 -0.4960
  578MOL0     C77930  -2.651  -0.018   6.709 -0.5414  0.2245 -0.0662
  578MOL0     O77931  -2.785  -0.022   6.723 -0.1149 -0.4234  0.1753
  578MOL0     C77932  -2.851  -0.136   6.672 -0.8275  0.6827  0.1783
  578MOL0     C77933  -2.991  -0.092   6.675  0.3858  0.0801 -0.4836
  578MOL0     C77934  -3.084  -0.210   6.619 -0.1942 -0.3827  0.2161
  578MOL0     C77935  -3.229  -0.170   6.605  0.0619 -0.3663  0.0804
  578MOL0     C77936  -3.314  -0.263   6.517  0.0108 -0.9676 -0.0471
  578MOL0     C77937  -3.345  -0.395   6.589 -0.5351  0.4673  0.1091
  578MOL0     C77938  -3.482  -0.454   6.546 -0.2855  0.6464 -0.2003
  578MOL0     C77939  -3.506  -0.450   6.394 -1.3236  0.0464 -0.4611
  578MOL0    Cl77940  -3.641  -0.568   6.369  0.0683  0.0839 -0.1263
  578MOL0     C77941  -2.597   0.101   6.759  0.8439  1.0992  0.2894
  578MOL0     C77942  -2.461   0.127   6.755  0.3567  0.4245 -0.4923
  578MOL0     O77943  -2.138  -0.107   6.798 -0.0036  0.5165 -0.2960
  578MOL0     C77944  -2.002   0.185   6.628  0.1514  0.1831 -0.0229
  578MOL0     C77945  -1.890   0.273   6.621  0.5375  0.6107 -0.4061
  578MOL0     N77946  -1.358   0.622   6.159  0.2882  0.4136 -0.4293
  578MOL0     N77947  -1.297   0.698   6.078 -0.0781  0.0735 -0.4490
  578MOL0     C77948  -0.045   0.826   6.110 -1.2361 -0.4303 -0.3923
  578MOL0     C77949   0.093   0.851   6.123  0.3638 -0.5965 -0.9411
  578MOL0     C77950   0.537   0.860   6.050 -0.5421 -0.4972 -0.0177
  578MOL0     C77951   0.649   0.828   5.976  0.5159  0.3841  0.2669
  578MOL0     C77952   0.774   0.877   6.000 -0.0261 -0.3154 -0.2987
  578MOL0     C77953   0.792   0.956   6.119 -0.0309  1.0110  0.4261
  578MOL0     O77954   0.913   1.002   6.169  0.1962 -0.0723 -0.4035
  578MOL0     C77955   1.036   0.971   6.104  0.4897 -0.1061  0.3727
  578MOL0     C77956   1.154   1.042   6.172 -0.6114 -0.0856  0.2178
  578MOL0     C77957   1.157   0.988   6.317 -0.3651  0.0677  0.1932
  578MOL0     C77958   1.281   1.029   6.398 -0.0690  0.0192 -0.9404
  578MOL0     C77959   1.399   0.992   6.322 -0.4607  0.5661 -0.3476
  578MOL0     C77960   1.495   0.940   6.267 -0.7392  0.5121  0.7000
  578MOL0     C77961   0.680   1.004   6.182 -0.3636  0.5288  0.2161
  578MOL0     C77962   0.557   0.949   6.153  0.1819 -0.9506 -0.3513
  578MOL0     H77963   0.228   0.548   6.065 -0.3386 -1.2219  0.5748
  578MOL0     H77964  -0.023   0.499   6.071 -1.0439  0.8966  0.3467
  578MOL0     H77965  -0.366   0.757   6.124  1.3877  1.5274  1.1332
  578MOL0     H77966  -0.274   0.807   5.977 -0.1342 -0.2166 -1.1220
  578MOL0     H77967  -0.322   0.584   5.868 -0.1478 -0.5990 -0.2417
  578MOL0     H77968  -0.416   0.541   6.009 -0.7553  2.3369  2.6003
  578MOL0     H77969  -0.503   0.783   5.845 -1.3386 -0.1309 -0.3138
  578MOL0     H77970  -0.549   0.613   5.805 -0.5528  0.7246 -0.5124
  578MOL0     H77971  -0.644   0.607   6.055  1.7463  0.3890  1.3974
  578MOL0     H77972  -0.603   0.775   6.059  1.4852  0.4538 -0.7348
  578MOL0     H77973  -0.745   0.822   5.874 -0.6715  0.3137 -0.4819
  578MOL0     H77974  -0.777   0.651   5.839  0.9583 -0.4927  0.1573
  578MOL0     H77975  -0.895   0.645   6.079  0.5508 -1.4115 -2.1510
  578MOL0     H77976  -0.831   0.811   6.100  2.8663  0.5279 -0.4951
  578MOL0     H77977  -0.975   0.888   5.917  1.6306 -0.9335 -0.1932
  578MOL0     H77978  -1.058   0.730   5.907 -2.6325  2.1956 -0.8165
  578MOL0     H77979  -1.159   0.932   6.062 -1.3339  0.1573  2.3960
  578MOL0     H77980  -1.040   0.890   6.169 -0.3303  0.5884  0.0460
  578MOL0     H77981  -1.089   0.682   6.335 -0.4422  2.2701 -0.9864
  578MOL0     H77982  -1.259   0.397   6.358 -1.2398 -1.9005  3.0282
  578MOL0     H77983  -1.268   0.527   6.474 -0.8369 -3.1678  1.6037
  578MOL0     H77984  -1.503   0.430   6.306  1.5491  0.3846 -0.4195
  578MOL0     H77985  -1.512   0.554   6.426  1.1626  0.1781  0.2416
  578MOL0     H77986  -1.432   0.410   6.594 -0.5365  3.3806 -0.1382
  578MOL0     H77987  -1.454   0.266   6.487  1.9133  0.2673 -0.1346
  578MOL0     H77988  -1.674   0.288   6.456  2.4403 -0.8506 -0.2292
  578MOL0     H77989  -1.695   0.451   6.518 -0.3130 -0.8058 -2.1816
  578MOL0     H77990  -1.687   0.109   6.845  0.7828 -1.4429 -1.3292
  578MOL0     H77991  -1.949  -0.016   6.983  3.7714  1.4186  1.9328
  578MOL0     H77992  -1.918  -0.146   6.865  1.7574 -1.4225  2.0380
  578MOL0     H77993  -1.781  -0.061   6.939  0.4067  2.0067  2.5329
  578MOL0     H77994  -2.345  -0.164   6.637  1.1146  0.2085 -0.6942
  578MOL0     H77995  -2.595  -0.214   6.619 -1.9643  1.1805 -1.2325
  578MOL0     H77996  -2.819  -0.164   6.572 -0.7778 -1.3660  0.7251
  578MOL0     H77997  -2.818  -0.218   6.737 -0.7174 -1.6663 -2.6554
  578MOL0     H77998  -3.023  -0.056   6.772 -0.6380  5.2298 -2.4356
  578MOL0     H77999  -2.999  -0.010   6.604  1.4903  0.1717 -0.5233
  578MOL0     H78000  -3.074  -0.303   6.675  1.2415 -1.4699 -1.6977
  578MOL0     H78001  -3.054  -0.229   6.515 -0.4462 -1.2051  0.2906
  578MOL0     H78002  -3.277  -0.151   6.702 -0.2961  3.6845 -0.7236
  578MOL0     H78003  -3.241  -0.073   6.557 -1.8955 -2.0006 -3.0508
  578MOL0     H78004  -3.263  -0.283   6.422  0.1113 -1.4988  0.1143
  578MOL0     H78005  -3.407  -0.209   6.500  0.0176 -1.4501 -1.8341
  578MOL0     H78006  -3.270  -0.469   6.561 -0.4933  0.4543  0.2578
  578MOL0     H78007  -3.344  -0.383   6.698  0.8616  1.2956  0.0333
  578MOL0     H78008  -3.559  -0.396   6.598 -1.2257 -0.9824  0.2853
  578MOL0     H78009  -3.487  -0.550   6.598 -2.3891  0.7678 -0.1092
  578MOL0     H78010  -3.416  -0.493   6.348  0.5872 -0.2754  3.1815
  578MOL0     H78011  -3.528  -0.347   6.366  2.0402  1.9217  2.8049
  578MOL0     H78012  -2.666   0.178   6.792 -2.1303 -1.1483 -0.2157
  578MOL0     H78013  -2.422   0.225   6.781 -1.6461  0.7324  1.7120
  578MOL0     H78014  -2.090   0.206   6.568 -1.5166 -2.6289  1.1951
  578MOL0     H78015  -1.897   0.362   6.559  0.4728 -0.3912 -1.9181
  578MOL0     H78016  -0.110   0.912   6.122 -1.6375 -0.8242  0.2635
  578MOL0     H78017   0.124   0.947   6.164 -2.2796  0.3730 -1.0277
  578MOL0     H78018   0.638   0.766   5.887 -1.5377  1.6066 -0.4078
  578MOL0     H78019   0.855   0.838   5.938  1.1079  0.9342  0.3484
  578MOL0     H78020   1.054   0.863   6.110 -0.9221 -0.3494  0.4724
  578MOL0     H78021   1.037   1.006   6.000  3.3541 -1.1605 -0.0512
  578MOL0     H78022   1.144   1.151   6.178  1.9375  0.2388 -0.0924
  578MOL0     H78023   1.248   1.008   6.127 -0.5325 -2.4993  1.9959
  578MOL0     H78024   1.153   0.879   6.317  1.3538 -0.1413  3.7857
  578MOL0     H78025   1.070   1.024   6.374 -1.1480 -1.1296 -0.1924
  578MOL0     H78026   1.265   0.978   6.494 -3.1917  0.4182 -1.1238
  578MOL0     H78027   1.284   1.134   6.426 -2.1569 -0.7869  3.0207
  578MOL0     H78028   1.589   0.902   6.234 -0.5550  0.4033  1.3302
  578MOL0     H78029   0.678   1.070   6.268 -0.4090  0.6130  0.1507
  578MOL0     H78030   0.471   0.995   6.201  0.1906 -1.4307  0.1234
  579MOL0     O78031   1.668  10.277   6.956  0.3507 -0.2150 -0.6163
  579MOL0     C78032   1.762  10.202   6.949  0.2708 -0.5115  0.0294
  579MOL0     O78033   1.759  10.086   6.879 -0.3117 -0.2609  0.4571
  579MOL0     C78034   1.641  10.047   6.820 -1.1808 -0.1082  0.4662
  579MOL0     C78035   1.568   9.941   6.868  0.0943 -0.4511 -0.6994
  579MOL0     C78036   1.446   9.896   6.808  0.6996 -0.4935  0.9300
  579MOL0     C78037   1.400   9.966   6.698 -0.4823 -0.3831 -0.1363
  579MOL0     O78038   1.282   9.941   6.633  0.5308  0.0547 -0.0278
  579MOL0     C78039   1.164   9.946   6.719 -0.4011  0.1677  0.4762
  579MOL0     C78040   1.032   9.949   6.644  0.0556  0.8835 -0.3283
  579MOL0     C78041   0.916   9.951   6.741 -0.1143 -0.0548  0.4387
  579MOL0     C78042   0.783   9.963   6.658  0.6778 -1.2051 -0.2792
  579MOL0     C78043   0.656  10.001   6.734  0.3933  0.2959 -0.4795
  579MOL0     C78044   0.644  10.126   6.801  0.3488 -0.2189 -0.5830
  579MOL0     C78045   0.513  10.148   6.878 -0.0459  0.3957  1.1353
  579MOL0     C78046   0.394  10.177   6.773 -0.3532  0.6183 -0.7831
  579MOL0     N78047   0.283  10.243   6.848  0.4622  0.5406  0.3318
  579MOL0     C78048   0.187  10.170   6.915 -0.3291  0.0392  0.2336
  579MOL0     C78049   0.110  10.266   6.975 -0.1083  0.2284 -0.6228
  579MOL0     C78050  -0.015  10.239   7.054 -0.1710  0.0420 -0.1391
  579MOL0     C78051  -0.117  10.356   7.040 -0.7312  0.2363 -0.5296
  579MOL0     C78052  -0.196  10.344   6.913  0.2626  0.0053 -0.1817
  579MOL0     C78053  -0.303  10.459   6.910 -0.8583  0.6791 -0.2063
  579MOL0     O78054  -0.413  10.420   6.986  0.7489 -0.2978  0.2099
  579MOL0     C78055  -0.508  10.515   6.997  0.7185 -0.1398  0.3786
  579MOL0     C78056  -0.627  10.475   6.934  0.0678 -0.1248 -0.6570
  579MOL0     C78057  -0.738  10.561   6.943  0.3142 -0.0653  0.4534
  579MOL0     C78058  -0.858  10.528   6.860 -1.2416  0.3413 -0.5295
  579MOL0     C78059  -0.737  10.677   7.026  0.3014 -0.0140  0.6562
  579MOL0     C78060  -0.863  10.761   7.032 -0.2260 -0.8225  0.2077
  579MOL0     O78061  -0.972  10.707   7.089 -0.3238  0.1213  0.0050
  579MOL0     C78062  -1.090  10.773   7.077 -0.1626 -0.3538  0.0865
  579MOL0     C78063  -1.179  10.747   6.966 -0.5590  0.3174  0.3939
  579MOL0     C78064  -1.299  10.814   6.946  0.0981 -0.9014 -0.0648
  579MOL0     C78065  -1.337  10.916   7.036  1.1218 -0.3079  0.3717
  579MOL0     O78066  -1.454  10.991   7.022  0.4671  0.0898  0.3603
  579MOL0     C78067  -1.578  10.937   6.976  0.8571  0.4172 -0.3103
  579MOL0     C78068  -1.627  10.852   7.085 -0.2219 -0.2713  0.0315
  579MOL0     C78069  -1.780  10.826   7.067  0.2009 -0.0519 -0.7507
  579MOL0     C78070  -1.802  10.739   6.950  1.0666  0.3114  0.8239
  579MOL0     C78071  -1.952  10.707   6.941  0.8239  0.2809 -0.1678
  579MOL0     C78072  -2.032  10.835   6.900  0.4469 -0.2791  0.0195
  579MOL0     C78073  -2.188  10.802   6.914 -0.7500 -0.1849  0.6819
  579MOL0     C78074  -2.255  10.811   6.777 -0.7649  0.3673  0.4128
  579MOL0    Cl78075  -2.183  10.679   6.667  0.3602  0.0074  0.3748
  579MOL0     C78076  -1.255  10.937   7.147  0.4144 -0.2043  0.1369
  579MOL0     C78077  -1.128  10.879   7.158  0.3056 -0.5749  0.2333
  579MOL0     O78078  -0.856  10.866   6.964  0.5538  0.0844 -0.2835
  579MOL0     C78079  -0.622  10.704   7.095 -0.3466 -0.0997  0.4712
  579MOL0     C78080  -0.504  10.629   7.080  0.1434 -0.0120 -0.0714
  579MOL0     N78081   0.165  10.388   6.941  0.3013 -0.6180 -0.1862
  579MOL0     N78082   0.265  10.379   6.860 -0.1466 -0.3786 -1.0086
  579MOL0     C78083   1.481  10.064   6.640  0.6423  0.9092 -1.1629
  579MOL0     C78084   1.597  10.112   6.701  0.4701 -0.3640  0.1856
  579MOL0     C78085   1.882  10.221   7.031  0.0119  0.1036  0.9803
  579MOL0     C78086   1.920  10.356   7.089  0.6179 -0.2999 -0.3643
  579MOL0     C78087   2.034  10.369   7.165 -0.5419  0.3230 -0.5606
  579MOL0     C78088   2.109  10.257   7.194 -0.8467  0.6317  0.6291
  579MOL0     O78089   2.223  10.262   7.277  0.4988  0.0870 -0.0143
  579MOL0     C78090   2.265  10.382   7.342 -0.6306 -0.0187 -0.2951
  579MOL0     C78091   2.372  10.334   7.438 -0.6506  0.1972 -0.2230
  579MOL0     C78092   2.496  10.308   7.361 -0.6672 -0.3961 -0.0186
  579MOL0     C78093   2.614  10.269   7.450 -0.6166 -0.6577 -0.1957
  579MOL0     C78094   2.694  10.386   7.496  0.3060  0.8113 -0.1177
  579MOL0     C78095   2.759  10.472   7.552  0.0515 -0.3948  0.1027
  579MOL0     C78096   2.086  10.134   7.140  0.6567  0.2170 -0.3574
  579MOL0     C78097   1.973  10.118   7.055  0.9059  1.1503 -0.1789
  579MOL0     H78098   1.602   9.902   6.963 -0.5297  0.4042 -0.1032
  579MOL0     H78099   1.381   9.823   6.854 -0.4834 -0.2964 -0.3383
  579MOL0     H78100   1.173   9.868   6.796 -0.2154 -0.3378 -0.0512
  579MOL0     H78101   1.171  10.048   6.758  0.0009  0.5041 -0.4498
  579MOL0     H78102   1.025  10.038   6.582  1.1713  1.2319  0.0331
  579MOL0     H78103   1.027   9.859   6.583 -0.8783 -0.1402  1.1707
  579MOL0     H78104   0.910   9.856   6.795  0.3238 -2.2079 -2.9929
  579MOL0     H78105   0.915  10.033   6.813 -2.9198  0.2804  0.1537
  579MOL0     H78106   0.799  10.025   6.570 -0.2230  0.6548  0.7911
  579MOL0     H78107   0.758   9.866   6.614  0.2771 -0.4128 -1.8565
  579MOL0     H78108   0.572   9.994   6.663 -1.5244 -0.4959  1.7249
  579MOL0     H78109   0.639   9.926   6.812 -1.2253  1.5946  0.5111
  579MOL0     H78110   0.723  10.150   6.873 -1.4421  2.4983  0.6570
  579MOL0     H78111   0.645  10.211   6.733 -1.1286  3.3093  3.3302
  579MOL0     H78112   0.492  10.071   6.953 -0.9899  0.3892  0.8750
  579MOL0     H78113   0.534  10.241   6.931  1.0095  0.1721  1.1307
  579MOL0     H78114   0.366  10.084   6.723 -0.4809  0.1010  0.2129
  579MOL0     H78115   0.425  10.260   6.709 -1.2458 -0.0363 -2.1102
  579MOL0     H78116   0.163  10.065   6.927  0.2584  0.1379  2.7629
  579MOL0     H78117  -0.059  10.142   7.034 -1.3186  0.0638  2.0012
  579MOL0     H78118   0.020  10.233   7.158  0.9724  2.8522 -0.2720
  579MOL0     H78119  -0.065  10.451   7.057  2.9977 -0.7817 -4.4810
  579MOL0     H78120  -0.188  10.354   7.124  1.1597  1.7474  1.2247
  579MOL0     H78121  -0.238  10.246   6.891  2.0827 -1.2030  1.4190
  579MOL0     H78122  -0.123  10.369   6.837  0.9683 -1.2888  0.0508
  579MOL0     H78123  -0.341  10.476   6.808 -0.4468  0.3682 -0.4154
  579MOL0     H78124  -0.262  10.556   6.939 -3.2319  1.9504 -0.8123
  579MOL0     H78125  -0.628  10.387   6.870 -0.6906  0.9156 -2.1217
  579MOL0     H78126  -0.891  10.611   6.797 -1.1193  0.9540  0.2069
  579MOL0     H78127  -0.848  10.433   6.806 -1.3506 -0.0754  0.1784
  579MOL0     H78128  -0.951  10.522   6.917 -0.3496  0.8234  1.0372
  579MOL0     H78129  -1.147  10.675   6.891 -0.8549 -2.8143  3.0104
  579MOL0     H78130  -1.353  10.796   6.854 -1.4023  0.6759  0.4535
  579MOL0     H78131  -1.651  11.015   6.954 -1.1371 -0.9548  1.1238
  579MOL0     H78132  -1.566  10.870   6.890 -0.2709  1.6197 -1.4494
  579MOL0     H78133  -1.573  10.756   7.082 -1.9956 -1.3110 -2.6532
  579MOL0     H78134  -1.617  10.894   7.185  1.0249 -0.3890 -0.0225
  579MOL0     H78135  -1.830  10.923   7.062  0.5251  0.0988 -1.1150
  579MOL0     H78136  -1.812  10.773   7.157 -1.6949  2.6634  0.3406
  579MOL0     H78137  -1.768  10.795   6.862 -0.0034  0.0689  0.2439
  579MOL0     H78138  -1.746  10.645   6.958  1.4545  0.5385  0.8602
  579MOL0     H78139  -1.985  10.669   7.038 -2.7666  0.5696 -1.1011
  579MOL0     H78140  -1.971  10.631   6.865  0.4104 -0.6129  0.8158
  579MOL0     H78141  -2.004  10.921   6.961  0.8650 -0.1540 -0.3409
  579MOL0     H78142  -2.015  10.868   6.797  0.3568  1.6554  0.5882
  579MOL0     H78143  -2.233  10.869   6.987 -0.5303  1.1982 -0.3969
  579MOL0     H78144  -2.196  10.702   6.958  0.4195  0.9891  3.7995
  579MOL0     H78145  -2.265  10.908   6.728 -1.0954 -1.0774 -2.6042
  579MOL0     H78146  -2.359  10.783   6.793 -1.0588  0.3122 -1.3805
  579MOL0     H78147  -1.280  11.019   7.213 -4.0307  0.1286 -1.6233
  579MOL0     H78148  -1.056  10.916   7.230  1.7314  1.6831 -2.1372
  579MOL0     H78149  -0.620  10.782   7.170 -1.9930 -0.0656  0.5051
  579MOL0     H78150  -0.411  10.639   7.135  0.7884 -0.6449 -1.0105
  579MOL0     H78151   1.455  10.103   6.542  1.1032  0.9423 -1.2728
  579MOL0     H78152   1.655  10.190   6.653 -2.0683  0.6184 -1.4467
  579MOL0     H78153   1.862  10.446   7.075 -0.6123 -1.2323 -1.4831
  579MOL0     H78154   2.061  10.464   7.211 -3.1689  1.1138 -0.5125
  579MOL0     H78155   2.295  10.456   7.267  1.0913 -0.3961 -0.0260
  579MOL0     H78156   2.182  10.418   7.402 -0.2012 -2.5769  2.0558
  579MOL0     H78157   2.349  10.238   7.486 -1.3276  0.5032  0.0818
  579MOL0     H78158   2.398  10.404   7.518  0.3998 -1.8325  1.3175
  579MOL0     H78159   2.533  10.386   7.294  3.0133 -1.7888  0.1795
  579MOL0     H78160   2.484  10.222   7.295  1.1664 -0.7682  0.0739
  579MOL0     H78161   2.676  10.194   7.401  1.8988  0.1864  1.4939
  579MOL0     H78162   2.577  10.213   7.536 -4.4037  0.3687 -0.9749
  579MOL0     H78163   2.822  10.546   7.597 -1.5951  1.8220 -1.0822
  579MOL0     H78164   2.148  10.049   7.168  0.4295  0.4645  0.9905
  579MOL0     H78165   1.969  10.019   7.009  2.5504  0.8068  0.3595
  580MOL0     O78166   7.550  10.274   2.720 -0.1616  0.8414 -0.1945
  580MOL0     C78167   7.577  10.385   2.679 -0.7916 -0.0977 -0.3306
  580MOL0     O78168   7.524  10.443   2.568 -0.6711  0.7287 -0.1053
  580MOL0     C78169   7.427  10.381   2.495  0.2588 -0.2001  0.4685
  580MOL0     C78170   7.449  10.274   2.407  0.6903  0.4574  0.5749
  580MOL0     C78171   7.346  10.217   2.330 -0.1259 -0.1440 -0.5661
  580MOL0     C78172   7.217  10.267   2.347 -0.5762 -0.0978 -0.4393
  580MOL0     O78173   7.109  10.216   2.285 -0.6444  0.7249  0.5321
  580MOL0     C78174   7.095  10.288   2.161 -0.1663 -0.0768 -0.7047
  580MOL0     C78175   6.972  10.222   2.097  0.6676  0.7182  0.3002
  580MOL0     C78176   6.838  10.276   2.148 -0.2573  0.2829 -0.5285
  580MOL0     C78177   6.769  10.352   2.034  0.1795 -0.3002 -0.6113
  580MOL0     C78178   6.635  10.413   2.096 -0.5233  0.6585 -0.3248
  580MOL0     C78179   6.523  10.313   2.116 -0.3094  0.7717 -0.0583
  580MOL0     C78180   6.411  10.376   2.195  1.1969  0.8561 -0.1230
  580MOL0     C78181   6.288  10.294   2.221  0.0870 -0.6910 -0.2030
  580MOL0     N78182   6.163  10.346   2.167  0.2272  0.6621  1.6160
  580MOL0     C78183   6.135  10.390   2.040 -0.3006  0.3610 -1.2471
  580MOL0     C78184   6.006  10.437   2.046 -0.1127 -0.0404 -0.2166
  580MOL0     C78185   5.946  10.516   1.925  0.7817 -0.5245  0.0468
  580MOL0     C78186   5.799  10.515   1.904  0.6271 -0.1842  0.9886
  580MOL0     C78187   5.747  10.638   1.827 -0.3010  0.3548 -0.6200
  580MOL0     C78188   5.599  10.641   1.826  0.2652 -0.1156  0.1395
  580MOL0     O78189   5.543  10.576   1.709 -0.1144 -0.3115 -0.2432
  580MOL0     C78190   5.419  10.528   1.709  0.4753  0.2983  0.0463
  580MOL0     C78191   5.316  10.563   1.811 -0.1495  0.1911 -0.2967
  580MOL0     C78192   5.196  10.502   1.808  0.0899  0.6615  0.4351
  580MOL0     C78193   5.100  10.538   1.924 -0.0008 -0.1313 -0.3568
  580MOL0     C78194   5.154  10.417   1.705  0.4671  0.2862  0.3782
  580MOL0     C78195   5.014  10.374   1.681  0.4847  0.7062  0.0898
  580MOL0     O78196   5.002  10.279   1.589 -0.1171 -0.5818  0.1415
  580MOL0     C78197   4.878  10.222   1.550  0.9270 -0.7129  0.2734
  580MOL0     C78198   4.871  10.093   1.513  0.7126  0.6720  0.3839
  580MOL0     C78199   4.747  10.033   1.482  0.7949  0.6768 -0.0212
  580MOL0     C78200   4.631  10.110   1.457 -0.1526  0.1470 -0.1346
  580MOL0     O78201   4.508  10.071   1.405 -0.1801 -0.7814  0.6592
  580MOL0     C78202   4.509   9.949   1.329 -0.2956 -0.9846  0.4152
  580MOL0     C78203   4.366   9.899   1.331  0.2197 -0.6494 -0.2465
  580MOL0     C78204   4.288   9.960   1.217  0.4048 -0.0977 -0.3814
  580MOL0     C78205   4.165   9.876   1.188 -0.2001  0.0999 -0.0801
  580MOL0     C78206   4.065   9.952   1.097 -0.5105  0.3668  0.2885
  580MOL0     C78207   3.954  10.031   1.186 -1.1058 -0.6951  1.3512
  580MOL0     C78208   3.841  10.117   1.115  0.3026  0.3832  0.5207
  580MOL0     C78209   3.907  10.246   1.055  0.1407  0.1315  0.1976
  580MOL0    Cl78210   3.784  10.368   0.976 -0.4357 -0.2347 -0.3253
  580MOL0     C78211   4.640  10.244   1.485 -0.2122 -0.3923 -0.4979
  580MOL0     C78212   4.755  10.297   1.539 -0.8114 -1.3417 -0.0708
  580MOL0     O78213   4.926  10.425   1.749 -0.3335 -0.0355 -0.4650
  580MOL0     C78214   5.245  10.390   1.604  0.0475  0.2936 -0.3854
  580MOL0     C78215   5.376  10.442   1.601  0.2537 -0.7822  0.1095
  580MOL0     N78216   5.957  10.418   2.175  0.0462  0.6238 -0.9804
  580MOL0     N78217   6.051  10.357   2.245  0.9755  0.1004 -0.1248
  580MOL0     C78218   7.189  10.368   2.441 -0.2337 -0.2982 -0.5358
  580MOL0     C78219   7.298  10.427   2.514  0.3799  0.6771 -0.4008
  580MOL0     C78220   7.685  10.456   2.758 -0.5766 -0.7363  0.7124
  580MOL0     C78221   7.750  10.397   2.860 -0.3483  0.4836 -0.4832
  580MOL0     C78222   7.847  10.459   2.940 -0.0276 -0.4522 -0.6974
  580MOL0     C78223   7.880  10.589   2.908 -0.3951 -0.2749  0.7273
  580MOL0     O78224   7.963  10.668   2.980  0.2041  0.0809 -0.1183
  580MOL0     C78225   8.081  10.606   3.030  0.1494  0.6693  0.5863
  580MOL0     C78226   8.199  10.608   2.918 -0.2389  0.1084 -0.2132
  580MOL0     C78227   8.235  10.742   2.870 -0.1712 -0.1559  0.6993
  580MOL0     C78228   8.360  10.796   2.949 -1.3127 -1.1574  0.4161
  580MOL0     C78229   8.483  10.729   2.902 -0.3773 -0.5566  0.3622
  580MOL0     C78230   8.564  10.675   2.839 -0.2955  0.3366 -0.5135
  580MOL0     C78231   7.817  10.658   2.802  0.4333 -0.3184  0.7189
  580MOL0     C78232   7.723  10.589   2.726 -0.0238 -0.0996 -0.8149
  580MOL0     H78233   7.552  10.239   2.401 -0.8257 -4.8674  0.9550
  580MOL0     H78234   7.377  10.138   2.263 -0.7160  0.8229 -2.0266
  580MOL0     H78235   7.063  10.390   2.185  1.2794  0.1423  0.4614
  580MOL0     H78236   7.189  10.282   2.106  0.7553 -1.3253  0.9034
  580MOL0     H78237   6.980  10.241   1.989 -0.5188  0.6509  0.1806
  580MOL0     H78238   6.964  10.113   2.108 -0.8926  0.3081 -3.3221
  580MOL0     H78239   6.776  10.195   2.190  0.6567  0.6264  1.6533
  580MOL0     H78240   6.871  10.354   2.217  0.3023 -0.5005  0.1152
  580MOL0     H78241   6.843  10.425   1.998  2.3265 -1.7602  0.5923
  580MOL0     H78242   6.741  10.285   1.953 -0.2836 -2.2648  1.0926
  580MOL0     H78243   6.667  10.458   2.191  0.7545 -0.1030 -0.3665
  580MOL0     H78244   6.601  10.493   2.030  1.4440  1.5096 -0.3891
  580MOL0     H78245   6.488  10.270   2.022 -0.5709 -0.9490  0.7880
  580MOL0     H78246   6.567  10.238   2.182  0.3559  0.2558 -1.0543
  580MOL0     H78247   6.441  10.393   2.299 -1.2609 -1.1876  1.0274
  580MOL0     H78248   6.384  10.466   2.140  1.3251  0.0655 -1.5196
  580MOL0     H78249   6.266  10.287   2.327  1.6294  1.2942  0.3041
  580MOL0     H78250   6.299  10.199   2.167  0.4715  0.1021 -1.5940
  580MOL0     H78251   6.211  10.391   1.963  2.2183 -4.7697  0.6683
  580MOL0     H78252   5.985  10.619   1.923  2.6978 -1.1882  0.7189
  580MOL0     H78253   6.003  10.474   1.842  0.6056 -1.1300  0.2311
  580MOL0     H78254   5.754  10.505   2.004  1.2161 -2.2476  1.0898
  580MOL0     H78255   5.782  10.421   1.852  2.8817 -1.7083  2.7845
  580MOL0     H78256   5.791  10.627   1.728 -1.3471 -5.2571 -0.8006
  580MOL0     H78257   5.778  10.720   1.893  0.0242 -0.0817 -0.2213
  580MOL0     H78258   5.581  10.749   1.823  2.3789  0.3144  0.8007
  580MOL0     H78259   5.561  10.600   1.919  0.6810  0.6462  0.6595
  580MOL0     H78260   5.352  10.612   1.901  0.6001 -2.4736  0.9558
  580MOL0     H78261   5.158  10.574   2.009  0.4726 -1.1339 -0.2453
  580MOL0     H78262   5.039  10.619   1.881  1.3231  1.4351  0.5884
  580MOL0     H78263   5.038  10.456   1.962  2.3421 -1.8039  0.0341
  580MOL0     H78264   4.962  10.034   1.518  0.8621  0.6879 -1.4600
  580MOL0     H78265   4.734   9.927   1.469 -0.5033  0.5307  2.0498
  580MOL0     H78266   4.543   9.974   1.228  0.8226  1.4520  1.3078
  580MOL0     H78267   4.568   9.866   1.369  1.3923  1.1474  2.6220
  580MOL0     H78268   4.375   9.790   1.327  3.5613 -0.4488 -0.7349
  580MOL0     H78269   4.319   9.922   1.427 -1.1153 -1.5882 -0.6483
  580MOL0     H78270   4.350   9.964   1.128 -0.7386  1.0310 -1.1710
  580MOL0     H78271   4.268  10.064   1.247 -1.7128 -1.6272  4.6260
  580MOL0     H78272   4.201   9.783   1.144  0.3857 -1.3198  3.1601
  580MOL0     H78273   4.122   9.863   1.287 -3.7445  1.7959 -1.2139
  580MOL0     H78274   4.002   9.887   1.036 -0.4675  1.6881 -1.2404
  580MOL0     H78275   4.127  10.005   1.024  2.5553 -1.6800  1.2078
  580MOL0     H78276   3.921   9.962   1.264  3.6250 -3.2463  1.4669
  580MOL0     H78277   4.014  10.109   1.234 -3.2707  2.7230 -1.0280
  580MOL0     H78278   3.757  10.145   1.179 -1.0972  1.7785 -1.7774
  580MOL0     H78279   3.794  10.055   1.038 -0.6716 -0.7089  1.9439
  580MOL0     H78280   4.002  10.240   1.002  0.9006 -2.4988  1.7179
  580MOL0     H78281   3.926  10.304   1.146 -0.7316  1.9823 -0.7417
  580MOL0     H78282   4.553  10.306   1.471  1.6296  2.0158 -1.9981
  580MOL0     H78283   4.751  10.404   1.552 -0.5832 -1.4464  0.9339
  580MOL0     H78284   5.222  10.321   1.523  2.3915 -2.1841  0.8689
  580MOL0     H78285   5.439  10.421   1.516  0.9734  1.1735  0.1108
  580MOL0     H78286   7.085  10.397   2.455  0.0633  2.2843 -2.7971
  580MOL0     H78287   7.280  10.502   2.591  2.2674  0.1428  0.6357
  580MOL0     H78288   7.729  10.295   2.889  1.4777  1.2076  4.1329
  580MOL0     H78289   7.873  10.403   3.029  1.4926  0.4581 -0.5383
  580MOL0     H78290   8.124  10.661   3.114  1.8434 -2.0593  1.6564
  580MOL0     H78291   8.061  10.503   3.062 -1.3168  0.7857  0.1145
  580MOL0     H78292   8.168  10.551   2.830 -3.3777 -0.6146  1.2148
  580MOL0     H78293   8.293  10.560   2.948  0.8365  3.7257  3.0336
  580MOL0     H78294   8.162  10.815   2.907  0.3902  0.8838 -0.1940
  580MOL0     H78295   8.241  10.743   2.760  2.1265 -1.2322  0.7603
  580MOL0     H78296   8.342  10.773   3.055 -2.6659 -0.9628  0.2442
  580MOL0     H78297   8.367  10.905   2.945  2.0799 -1.2955 -1.4703
  580MOL0     H78298   8.645  10.627   2.788 -1.0422 -2.3098  0.6464
  580MOL0     H78299   7.846  10.759   2.776 -1.0915 -0.1890 -0.5823
  580MOL0     H78300   7.670  10.638   2.646  0.0506  0.7731 -0.3421
  581MOL0     O78301  11.106   7.287  10.401 -0.3113 -0.1959 -0.0597
  581MOL0     C78302  11.157   7.213  10.484  1.0692  0.2472  1.0249
  581MOL0     O78303  11.094   7.106  10.528  0.1624 -0.6147  0.2975
  581MOL0     C78304  11.013   7.027  10.448 -0.4854  0.4262 -0.4723
  581MOL0     C78305  10.995   6.901  10.499  0.8415  0.0809 -0.6508
  581MOL0     C78306  10.895   6.823  10.451 -0.5816 -0.5650  0.5974
  581MOL0     C78307  10.814   6.855  10.341 -0.5495 -0.3673  0.0230
  581MOL0     O78308  10.731   6.757  10.296  0.0770 -0.2343  0.1067
  581MOL0     C78309  10.688   6.652  10.384  0.7600  0.0682 -0.4995
  581MOL0     C78310  10.575   6.572  10.316 -0.7767  0.3901 -0.2433
  581MOL0     C78311  10.445   6.640  10.292 -0.0795  0.4566  0.8787
  581MOL0     C78312  10.349   6.549  10.214  0.4601 -0.4595  0.2449
  581MOL0     C78313  10.219   6.625  10.197  0.2903 -0.0600 -0.4386
  581MOL0     C78314  10.136   6.577  10.082 -0.1202 -0.1702 -0.0001
  581MOL0     C78315  10.094   6.432  10.084  0.8579 -0.1369  0.1472
  581MOL0     C78316  10.023   6.398   9.946  0.8619  0.0471 -0.3892
  581MOL0     N78317   9.892   6.333   9.973  0.2306 -0.2526 -0.2028
  581MOL0     C78318   9.871   6.201   9.934  0.0619 -0.2480 -0.6499
  581MOL0     C78319   9.746   6.178   9.980 -0.2504  0.4183  0.4456
  581MOL0     C78320   9.663   6.056   9.946 -0.3558  0.0062  0.3634
  581MOL0     C78321   9.538   6.116   9.879 -0.1080 -0.5831 -0.1456
  581MOL0     C78322   9.456   6.004   9.820  0.7378 -0.1280  0.1281
  581MOL0     C78323   9.334   6.038   9.740 -0.0402  0.0661  0.9704
  581MOL0     O78324   9.233   6.089   9.823  1.1463 -0.5203  0.5585
  581MOL0     C78325   9.119   6.136   9.757 -0.8402 -0.3466 -0.2163
  581MOL0     C78326   9.087   6.133   9.618 -0.1287  0.6129 -0.0145
  581MOL0     C78327   8.966   6.173   9.566  0.2163 -1.0280 -0.3253
  581MOL0     C78328   8.944   6.163   9.417 -0.5782 -0.1231 -0.1459
  581MOL0     C78329   8.865   6.232   9.658 -0.0281  0.5830  0.2188
  581MOL0     C78330   8.727   6.279   9.611 -0.0618  0.5572 -0.7429
  581MOL0     O78331   8.646   6.316   9.717 -0.2337 -0.0708 -0.3286
  581MOL0     C78332   8.536   6.391   9.676 -0.8608  0.6440  0.8680
  581MOL0     C78333   8.525   6.529   9.692 -0.0261  0.0517 -0.1015
  581MOL0     C78334   8.407   6.586   9.661 -0.3421 -0.9453  0.1499
  581MOL0     C78335   8.307   6.513   9.597  0.7542 -0.3041 -0.1413
  581MOL0     O78336   8.189   6.581   9.560 -0.2906 -0.0720  0.0918
  581MOL0     C78337   8.072   6.499   9.512 -1.3431  0.0355  0.0156
  581MOL0     C78338   7.962   6.606   9.507 -0.1425 -0.1625  1.2569
  581MOL0     C78339   7.820   6.563   9.469  0.0795  0.3674  0.6351
  581MOL0     C78340   7.753   6.479   9.570  0.3579  0.0670  0.5412
  581MOL0     C78341   7.609   6.457   9.547  1.1149  0.0375  0.5303
  581MOL0     C78342   7.529   6.590   9.553  0.2193  0.5331 -0.9226
  581MOL0     C78343   7.396   6.589   9.469 -0.1644  0.7678 -0.4536
  581MOL0     C78344   7.313   6.460   9.480 -0.0119  0.2776  0.0484
  581MOL0    Cl78345   7.266   6.441   9.652 -0.3060 -0.4282  0.0105
  581MOL0     C78346   8.319   6.377   9.572 -0.4247 -0.8102 -0.4115
  581MOL0     C78347   8.435   6.313   9.617 -0.0247  0.4022 -0.0562
  581MOL0     O78348   8.698   6.286   9.493  0.6192 -0.0003  0.5181
  581MOL0     C78349   8.899   6.246   9.790  0.0127  0.0650  0.8287
  581MOL0     C78350   9.024   6.197   9.839 -0.0987  0.5123  0.2048
  581MOL0     N78351   9.701   6.298  10.048  0.4764  0.5165  0.1592
  581MOL0     N78352   9.785   6.391  10.041  0.2954 -0.7042 -0.2218
  581MOL0     C78353  10.833   6.982  10.283  0.6781  0.3681 -0.7267
  581MOL0     C78354  10.933   7.062  10.335 -0.0136  0.2261 -0.1782
  581MOL0     C78355  11.293   7.253  10.534 -0.0721 -0.0361  0.0368
  581MOL0     C78356  11.343   7.387  10.514  0.0673 -0.5847 -0.5407
  581MOL0     C78357  11.474   7.425  10.559  0.1142  1.1319 -0.2607
  581MOL0     C78358  11.558   7.330  10.610 -0.4066 -0.2632 -0.0094
  581MOL0     O78359  11.680   7.381  10.650 -0.2573  0.1238 -0.5934
  581MOL0     C78360  11.755   7.299  10.749  0.2948 -0.4600  0.1857
  581MOL0     C78361  11.887   7.362  10.798  0.4740 -1.1502  0.0698
  581MOL0     C78362  11.861   7.501  10.852 -0.3770  0.0649 -0.2057
  581MOL0     C78363  11.982   7.548  10.924  0.1503 -0.3562  0.2555
  581MOL0     C78364  11.968   7.687  10.968  0.1665  0.2214 -0.3001
  581MOL0     C78365  11.947   7.798  11.013  0.3186  0.4771 -1.1287
  581MOL0     C78366  11.512   7.199  10.615  0.1607  0.5943 -0.1251
  581MOL0     C78367  11.385   7.164  10.588  0.7606  0.0085 -0.2274
  581MOL0     H78368  11.055   6.869  10.584  0.9737  0.7561 -0.4850
  581MOL0     H78369  10.892   6.724  10.497 -0.1212 -1.4182 -1.1467
  581MOL0     H78370  10.775   6.586  10.396 -0.6476 -2.3824 -2.7312
  581MOL0     H78371  10.659   6.686  10.484 -0.1336 -3.1565  0.4840
  581MOL0     H78372  10.610   6.531  10.221  1.9877  1.5006  0.2104
  581MOL0     H78373  10.552   6.484  10.376 -0.9749  0.4136 -0.2846
  581MOL0     H78374  10.399   6.663  10.389 -0.2321  0.1974  0.8679
  581MOL0     H78375  10.466   6.733  10.239  5.2244 -2.1534 -2.4205
  581MOL0     H78376  10.398   6.516  10.122 -2.7929 -2.7722 -0.8375
  581MOL0     H78377  10.335   6.463  10.279 -0.3934 -0.3782  0.1878
  581MOL0     H78378  10.159   6.602  10.286  0.6931 -3.3853 -0.8929
  581MOL0     H78379  10.233   6.733  10.188  1.4378  0.0393  1.9070
  581MOL0     H78380  10.052   6.647  10.079  1.7006  2.1163 -1.3746
  581MOL0     H78381  10.199   6.590   9.993 -1.3229 -2.4301 -1.2721
  581MOL0     H78382  10.181   6.367  10.095  0.5851 -0.6835 -0.8405
  581MOL0     H78383  10.022   6.425  10.167  0.0763  0.9430 -0.4204
  581MOL0     H78384  10.088   6.333   9.887  0.8773 -1.9949  1.7424
  581MOL0     H78385   9.999   6.491   9.893  0.5747  0.3764  0.3118
  581MOL0     H78386   9.935   6.134   9.877  1.4949  1.6405 -1.3483
  581MOL0     H78387   9.716   5.983   9.884  1.1288  0.9118  0.5267
  581MOL0     H78388   9.625   6.003  10.033 -1.2780  0.8051  0.4694
  581MOL0     H78389   9.559   6.193   9.804  0.0401 -0.3981  0.0840
  581MOL0     H78390   9.474   6.160   9.956  1.1469  2.2106 -0.5791
  581MOL0     H78391   9.420   5.934   9.896 -3.1249 -0.4283 -1.7388
  581MOL0     H78392   9.520   5.950   9.750  0.2075  0.6783 -1.0063
  581MOL0     H78393   9.298   5.944   9.697 -0.1982 -0.0340  1.3162
  581MOL0     H78394   9.352   6.108   9.658 -0.6484 -1.9798 -1.0106
  581MOL0     H78395   9.162   6.086   9.556 -0.1871 -1.3039  1.2646
  581MOL0     H78396   9.042   6.167   9.368 -0.3883  0.8683  0.2793
  581MOL0     H78397   8.895   6.066   9.410  0.1036 -0.6245  1.6287
  581MOL0     H78398   8.880   6.242   9.377 -1.0150 -0.9632 -1.1624
  581MOL0     H78399   8.608   6.591   9.726 -0.7775  0.5349  0.9095
  581MOL0     H78400   8.385   6.685   9.701  0.3923 -1.1147  1.0065
  581MOL0     H78401   8.079   6.454   9.412  0.9267 -2.0850  1.0323
  581MOL0     H78402   8.045   6.423   9.586  0.8607 -2.0880 -1.2162
  581MOL0     H78403   7.949   6.658   9.602 -3.2400  0.1951  0.7389
  581MOL0     H78404   7.992   6.681   9.434 -3.9471 -0.3157 -0.6832
  581MOL0     H78405   7.806   6.522   9.368 -1.1977 -0.3598  1.0885
  581MOL0     H78406   7.767   6.659   9.470 -0.7351 -0.0735  0.0940
  581MOL0     H78407   7.792   6.376   9.566 -0.8693 -0.4204  0.7211
  581MOL0     H78408   7.773   6.513   9.672  0.7521  0.8642  0.2046
  581MOL0     H78409   7.564   6.375   9.604  1.6435 -0.1125  0.7323
  581MOL0     H78410   7.604   6.425   9.442  0.5035 -1.0420  0.8693
  581MOL0     H78411   7.509   6.608   9.659 -1.1681  1.1912 -1.2640
  581MOL0     H78412   7.582   6.680   9.519 -0.3350  1.2489  0.0444
  581MOL0     H78413   7.420   6.616   9.365 -0.7579  1.0605 -0.5181
  581MOL0     H78414   7.337   6.677   9.494  1.3184  1.4330  0.8720
  581MOL0     H78415   7.358   6.366   9.448  1.3321  0.9427 -0.1027
  581MOL0     H78416   7.221   6.476   9.422  0.9757  0.1527 -1.6183
  581MOL0     H78417   8.244   6.319   9.518  0.1799 -0.2126 -1.9579
  581MOL0     H78418   8.432   6.206   9.601 -1.5132  0.2479  1.0304
  581MOL0     H78419   8.830   6.293   9.858 -0.9592  0.5956 -0.4944
  581MOL0     H78420   9.050   6.212   9.943 -1.2478 -3.2781  1.1883
  581MOL0     H78421  10.792   7.016  10.189 -0.0078  0.4854 -0.3959
  581MOL0     H78422  10.937   7.161  10.292 -0.2214  0.8571  1.1989
  581MOL0     H78423  11.271   7.455  10.471 -0.0524  0.3401  1.0378
  581MOL0     H78424  11.505   7.529  10.558  1.9285  0.6406 -0.3747
  581MOL0     H78425  11.701   7.271  10.840  1.0319  1.2349  1.1889
  581MOL0     H78426  11.778   7.208  10.693  0.2282  0.4992 -1.4735
  581MOL0     H78427  11.961   7.365  10.718  1.8295 -2.2116  1.2138
  581MOL0     H78428  11.927   7.293  10.874 -0.2734  0.4050  1.9809
  581MOL0     H78429  11.779   7.497  10.925 -1.6737 -0.2787 -1.6336
  581MOL0     H78430  11.837   7.581  10.781 -3.2177  3.6955  4.1930
  581MOL0     H78431  12.064   7.542  10.852  0.3155  0.0614  0.4046
  581MOL0     H78432  12.000   7.489  11.014 -1.4359 -1.5969 -0.2017
  581MOL0     H78433  11.921   7.893  11.055  0.4791  0.3186 -0.6692
  581MOL0     H78434  11.570   7.121  10.663 -2.2725 -1.3272 -0.1176
  581MOL0     H78435  11.351   7.061  10.599 -0.2839  0.4487  0.7903
  582MOL0     O78436   0.167   0.853   8.971  0.3381 -0.4466  0.5570
  582MOL0     C78437   0.171   0.817   8.855 -0.0316  0.0742 -0.9813
  582MOL0     O78438   0.063   0.812   8.767  0.6360  0.6087  0.4367
  582MOL0     C78439  -0.059   0.864   8.801 -0.7699 -0.0709 -0.3657
  582MOL0     C78440  -0.066   0.991   8.859 -0.2976 -0.5213  0.1800
  582MOL0     C78441  -0.179   1.053   8.891 -0.3912 -0.1305 -0.6540
  582MOL0     C78442  -0.300   0.989   8.861 -0.3805 -0.5874 -0.0174
  582MOL0     O78443  -0.428   1.027   8.881  0.7614 -0.3919 -0.0159
  582MOL0     C78444  -0.446   1.144   8.954 -0.7464  0.2244 -0.1921
  582MOL0     C78445  -0.591   1.152   8.996 -0.8866 -0.0331 -0.1852
  582MOL0     C78446  -0.703   1.145   8.889 -0.2245  0.2698  0.1538
  582MOL0     C78447  -0.787   1.026   8.911  0.5925  0.4656 -0.9695
  582MOL0     C78448  -0.889   1.002   8.794  0.0210 -0.0482  0.1350
  582MOL0     C78449  -0.981   0.880   8.798 -0.1482  0.7025 -0.1367
  582MOL0     C78450  -1.064   0.908   8.666 -0.3653  0.4510 -0.6095
  582MOL0     C78451  -1.191   0.831   8.645 -0.3143  0.6609  0.4457
  582MOL0     N78452  -1.164   0.688   8.602  0.1281  0.3844  0.6151
  582MOL0     C78453  -1.153   0.576   8.689  0.4181  0.1510  0.3298
  582MOL0     C78454  -1.123   0.479   8.604  0.6733 -0.1315 -0.2822
  582MOL0     C78455  -1.090   0.342   8.663 -0.0860 -1.1488 -1.0392
  582MOL0     C78456  -1.220   0.260   8.676  0.1319 -0.4105  0.3929
  582MOL0     C78457  -1.264   0.222   8.532 -0.3904  0.4175 -0.5173
  582MOL0     C78458  -1.366   0.108   8.528 -0.1716 -0.0535  0.6896
  582MOL0     O78459  -1.472   0.140   8.615  0.7050  0.0118 -0.0067
  582MOL0     C78460  -1.585   0.055   8.610  0.3448  0.2267 -0.0224
  582MOL0     C78461  -1.580  -0.077   8.568  0.2286  0.5066  0.2019
  582MOL0     C78462  -1.692  -0.165   8.573 -0.2682  0.5598  0.0692
  582MOL0     C78463  -1.665  -0.306   8.520  1.1374 -0.1064 -0.0427
  582MOL0     C78464  -1.812  -0.127   8.634  0.6002 -1.6227  0.2440
  582MOL0     C78465  -1.926  -0.217   8.658  0.8282 -1.0241 -0.6679
  582MOL0     O78466  -2.049  -0.163   8.667  0.1119 -0.0509  0.3114
  582MOL0     C78467  -2.170  -0.231   8.685 -0.7813  0.4272 -0.1030
  582MOL0     C78468  -2.278  -0.193   8.609  0.3670  0.3442  0.3809
  582MOL0     C78469  -2.401  -0.261   8.610 -0.0715 -0.1957 -0.1928
  582MOL0     C78470  -2.409  -0.377   8.694  0.8714 -0.3682 -0.5022
  582MOL0     O78471  -2.522  -0.461   8.700 -0.3109  0.2248 -0.2245
  582MOL0     C78472  -2.634  -0.410   8.628 -0.2835 -0.0212  0.0709
  582MOL0     C78473  -2.757  -0.503   8.652 -0.1740  0.5727 -0.2543
  582MOL0     C78474  -2.880  -0.449   8.577  0.3956 -0.0213  0.6147
  582MOL0     C78475  -3.008  -0.530   8.594  0.2351 -0.7718 -0.7521
  582MOL0     C78476  -3.101  -0.504   8.473  0.6137  0.0461 -0.0181
  582MOL0     C78477  -3.240  -0.562   8.509  0.1803 -0.5206  0.2066
  582MOL0     C78478  -3.317  -0.575   8.378 -0.8141  0.6322  0.0171
  582MOL0     C78479  -3.463  -0.617   8.409 -0.8143 -0.9958  0.0344
  582MOL0    Cl78480  -3.491  -0.712   8.553  0.1725  0.0500 -0.0781
  582MOL0     C78481  -2.302  -0.415   8.772 -0.5490  0.2366  0.8091
  582MOL0     C78482  -2.184  -0.346   8.766 -0.3087  0.5881  0.6825
  582MOL0     O78483  -1.908  -0.334   8.672 -0.3647 -0.7989  0.5935
  582MOL0     C78484  -1.817   0.013   8.661 -0.8840  0.1501 -0.1315
  582MOL0     C78485  -1.707   0.103   8.653  0.4707 -0.6017 -0.0256
  582MOL0     N78486  -1.110   0.530   8.476 -0.0321 -0.5053 -0.1063
  582MOL0     N78487  -1.133   0.656   8.475  0.6280  0.0092 -0.0782
  582MOL0     C78488  -0.297   0.859   8.796 -0.2646 -0.0491 -0.1696
  582MOL0     C78489  -0.173   0.800   8.761 -0.4187 -0.3244 -1.1567
  582MOL0     C78490   0.306   0.778   8.798  0.1251  0.7260  0.7958
  582MOL0     C78491   0.431   0.794   8.861 -0.6743 -0.4778  0.4196
  582MOL0     C78492   0.555   0.755   8.805 -0.1018  1.3459 -0.8201
  582MOL0     C78493   0.554   0.687   8.676 -0.5842 -0.5514 -0.0532
  582MOL0     O78494   0.681   0.649   8.639 -0.2836 -0.3686 -0.2703
  582MOL0     C78495   0.709   0.615   8.503  0.0735  0.5466  0.4489
  582MOL0     C78496   0.855   0.629   8.472  0.0143  0.0997  0.1707
  582MOL0     C78497   0.946   0.524   8.530 -0.1947 -0.2852 -1.0203
  582MOL0     C78498   1.068   0.492   8.440  0.0431  0.6749 -0.1311
  582MOL0     C78499   1.173   0.591   8.448 -0.2527 -0.7242  0.0076
  582MOL0     C78500   1.266   0.666   8.465 -0.2877  0.3592 -0.6510
  582MOL0     C78501   0.432   0.680   8.609  0.7897 -0.2286  0.4841
  582MOL0     C78502   0.311   0.728   8.663 -1.0218  0.5133 -0.4663
  582MOL0     H78503   0.032   1.036   8.875 -0.8922  1.4664 -1.3505
  582MOL0     H78504  -0.169   1.149   8.941  4.0800 -2.8586  4.8299
  582MOL0     H78505  -0.383   1.143   9.043 -0.4534 -0.7277 -0.3942
  582MOL0     H78506  -0.433   1.231   8.889 -1.8139  0.4581 -0.1086
  582MOL0     H78507  -0.595   1.075   9.073 -0.2265  1.8109  1.7950
  582MOL0     H78508  -0.607   1.245   9.051 -2.1430 -0.8009  0.8063
  582MOL0     H78509  -0.768   1.232   8.882 -1.1784 -0.5499 -2.0823
  582MOL0     H78510  -0.660   1.139   8.788 -2.3939  4.9112 -1.3070
  582MOL0     H78511  -0.716   0.944   8.919 -0.1710 -0.0214  3.2759
  582MOL0     H78512  -0.840   1.035   9.006 -1.2151  1.3550 -1.9956
  582MOL0     H78513  -0.953   1.091   8.795 -0.7177 -0.5199 -1.5960
  582MOL0     H78514  -0.839   0.993   8.697 -0.0943  3.3930 -0.3612
  582MOL0     H78515  -0.932   0.782   8.788 -1.9599 -0.7391  3.5726
  582MOL0     H78516  -1.044   0.869   8.886  1.9060  0.3556  1.3653
  582MOL0     H78517  -1.097   1.013   8.668 -0.8549  0.3105 -0.9233
  582MOL0     H78518  -0.997   0.886   8.582 -0.5851 -2.5661 -0.1055
  582MOL0     H78519  -1.242   0.896   8.573 -1.2285  2.6654  2.7740
  582MOL0     H78520  -1.251   0.829   8.737 -2.7962  0.9575 -1.0805
  582MOL0     H78521  -1.147   0.573   8.797  3.9798 -0.5006  0.2150
  582MOL0     H78522  -1.013   0.287   8.609  2.4274  1.4128 -0.2761
  582MOL0     H78523  -1.044   0.349   8.761 -0.0784  2.4622 -1.1616
  582MOL0     H78524  -1.295   0.303   8.743  0.2541 -1.9386  1.5652
  582MOL0     H78525  -1.188   0.165   8.720  0.2273 -0.9972 -0.9126
  582MOL0     H78526  -1.171   0.199   8.479  1.1521  0.9698  1.8083
  582MOL0     H78527  -1.319   0.305   8.485  3.0116  1.7141 -2.5241
  582MOL0     H78528  -1.311   0.015   8.543  0.7154  0.2105 -0.7429
  582MOL0     H78529  -1.406   0.109   8.426  0.4478  2.1532  0.4070
  582MOL0     H78530  -1.493  -0.124   8.523  0.0092  0.5961 -0.3281
  582MOL0     H78531  -1.752  -0.360   8.482  1.1370  0.5113 -0.9621
  582MOL0     H78532  -1.599  -0.292   8.433  0.1441 -4.0365 -1.6694
  582MOL0     H78533  -1.616  -0.365   8.598 -2.0255 -2.1548  0.5556
  582MOL0     H78534  -2.267  -0.107   8.544  3.3238 -1.0998 -1.2422
  582MOL0     H78535  -2.478  -0.227   8.542  1.0165 -1.4298 -2.1619
  582MOL0     H78536  -2.658  -0.318   8.682 -1.0166  0.9805 -1.8496
  582MOL0     H78537  -2.610  -0.396   8.521  1.5849  2.8520  0.7293
  582MOL0     H78538  -2.731  -0.605   8.625 -0.0922 -0.2656  2.6578
  582MOL0     H78539  -2.776  -0.511   8.759  0.9858 -0.1496 -0.0866
  582MOL0     H78540  -2.851  -0.455   8.472 -1.4948 -0.9819  0.0920
  582MOL0     H78541  -2.903  -0.344   8.594 -0.8364 -0.1660 -0.0173
  582MOL0     H78542  -2.996  -0.638   8.611 -1.1802 -0.6233  1.6588
  582MOL0     H78543  -3.062  -0.497   8.683  0.0941 -2.5113 -0.1438
  582MOL0     H78544  -3.045  -0.542   8.387  0.5683 -0.0558 -0.0015
  582MOL0     H78545  -3.125  -0.398   8.466  0.6326  0.0959  0.6103
  582MOL0     H78546  -3.225  -0.661   8.555 -1.7095 -1.3948 -0.9436
  582MOL0     H78547  -3.294  -0.494   8.576  0.8718 -0.1541  0.3979
  582MOL0     H78548  -3.271  -0.664   8.335 -0.8863 -0.3370  1.8440
  582MOL0     H78549  -3.313  -0.496   8.302 -3.5243 -1.0651 -2.0985
  582MOL0     H78550  -3.500  -0.675   8.324 -0.3160 -1.2372 -0.0202
  582MOL0     H78551  -3.514  -0.520   8.410 -1.5369 -1.3199 -1.9507
  582MOL0     H78552  -2.313  -0.503   8.835  2.8967 -0.5402  0.4930
  582MOL0     H78553  -2.105  -0.386   8.828  0.5606 -0.9613 -1.3161
  582MOL0     H78554  -1.908   0.049   8.707  1.1790  0.8582  3.7957
  582MOL0     H78555  -1.729   0.205   8.682  2.1950 -0.1257 -0.2971
  582MOL0     H78556  -0.390   0.808   8.775 -0.3744  0.2645 -0.4507
  582MOL0     H78557  -0.177   0.701   8.717  1.3515 -0.9904  0.0910
  582MOL0     H78558   0.432   0.835   8.961 -0.9137  2.1195 -0.5821
  582MOL0     H78559   0.639   0.757   8.873 -1.4749 -1.5407  1.1651
  582MOL0     H78560   0.676   0.516   8.470 -0.4494  0.7009  0.5017
  582MOL0     H78561   0.656   0.690   8.442 -0.1654 -0.7580 -1.0079
  582MOL0     H78562   0.886   0.730   8.501  1.1848  0.0625 -0.8728
  582MOL0     H78563   0.867   0.629   8.363  0.7578 -0.7249  0.2417
  582MOL0     H78564   0.894   0.431   8.555  0.8954 -0.8530 -0.7959
  582MOL0     H78565   0.976   0.558   8.630 -2.9420 -1.9755  0.4968
  582MOL0     H78566   1.036   0.489   8.336 -0.7786  2.1147  0.0629
  582MOL0     H78567   1.109   0.397   8.478  0.1095  1.8033  2.9436
  582MOL0     H78568   1.344   0.732   8.495  2.7945 -3.5696  0.9764
  582MOL0     H78569   0.437   0.649   8.505  0.1734  0.9527  0.0864
  582MOL0     H78570   0.216   0.699   8.620 -1.7371  0.4350  1.0813
  583MOL0     O78571   2.173   0.525   2.829 -0.2030  0.0226 -0.5904
  583MOL0     C78572   2.175   0.463   2.935  0.1312  0.4324 -0.2294
  583MOL0     O78573   2.067   0.429   3.012 -0.0974 -0.0656 -0.5931
  583MOL0     C78574   1.939   0.485   2.989 -0.0809 -0.2814 -0.3554
  583MOL0     C78575   1.922   0.613   3.047  0.1548  0.0364  0.0902
  583MOL0     C78576   1.792   0.675   3.050  0.4201 -0.3118 -0.0564
  583MOL0     C78577   1.680   0.605   2.986 -0.1030  0.6180  0.0585
  583MOL0     O78578   1.561   0.659   2.958  0.1954  0.3260 -0.4713
  583MOL0     C78579   1.542   0.805   2.969  0.4948 -0.4331 -0.3358
  583MOL0     C78580   1.396   0.848   2.975 -0.0669  0.2164 -0.1919
  583MOL0     C78581   1.312   0.780   3.091  0.1061  0.9318 -0.2598
  583MOL0     C78582   1.178   0.843   3.117  0.0900 -0.7213  0.4840
  583MOL0     C78583   1.111   0.782   3.232  0.0320 -0.5708 -0.4220
  583MOL0     C78584   1.017   0.878   3.310 -0.0286  0.0085  1.0892
  583MOL0     C78585   0.965   0.832   3.448 -0.2739  0.1868 -0.1334
  583MOL0     C78586   0.859   0.925   3.507 -0.8238  0.1250 -0.7802
  583MOL0     N78587   0.721   0.919   3.460 -0.6512 -0.2822 -0.6885
  583MOL0     C78588   0.625   1.000   3.515 -0.0547 -0.2243 -0.1711
  583MOL0     C78589   0.510   0.951   3.464  0.5517 -0.1829 -0.0069
  583MOL0     C78590   0.373   1.003   3.488  0.5284  0.5892 -0.7000
  583MOL0     C78591   0.280   0.909   3.565 -0.1872  0.7597 -0.7229
  583MOL0     C78592   0.274   0.753   3.520 -0.1545 -0.1380  0.3722
  583MOL0     C78593   0.164   0.685   3.591  0.0923  0.3453  0.1864
  583MOL0     O78594   0.033   0.711   3.526  0.2214  0.5935  0.2016
  583MOL0     C78595  -0.081   0.726   3.606  0.9788 -0.7156  0.1158
  583MOL0     C78596  -0.090   0.736   3.746 -0.7669  0.2549  0.2012
  583MOL0     C78597  -0.204   0.747   3.810  0.0204 -0.7659 -0.8768
  583MOL0     C78598  -0.200   0.778   3.959  0.4082  0.0041 -0.0509
  583MOL0     C78599  -0.331   0.759   3.738  0.2816 -0.6372 -0.1333
  583MOL0     C78600  -0.468   0.779   3.791 -0.8478  0.0724  0.2339
  583MOL0     O78601  -0.573   0.722   3.730  0.0753 -0.9122 -0.0607
  583MOL0     C78602  -0.686   0.718   3.811 -0.0130  0.5798 -0.6405
  583MOL0     C78603  -0.790   0.804   3.786 -0.0476  0.9146 -0.2667
  583MOL0     C78604  -0.912   0.792   3.852  0.7028 -0.3491 -0.2705
  583MOL0     C78605  -0.934   0.699   3.958  0.3280  0.3128 -0.7988
  583MOL0     O78606  -1.054   0.700   4.028 -0.1665 -0.8205  0.5277
  583MOL0     C78607  -1.070   0.598   4.130 -0.8023  0.0078 -0.0931
  583MOL0     C78608  -1.215   0.585   4.167 -1.2672 -0.3748 -0.1970
  583MOL0     C78609  -1.233   0.464   4.256 -0.3808  0.3475 -0.1840
  583MOL0     C78610  -1.195   0.504   4.395 -1.0272 -0.0759  0.7051
  583MOL0     C78611  -1.238   0.390   4.490 -0.2451 -0.1611  0.7803
  583MOL0     C78612  -1.201   0.425   4.632  0.2728 -0.9633 -0.1907
  583MOL0     C78613  -1.053   0.457   4.661  0.2222 -0.4696 -0.3307
  583MOL0     C78614  -0.962   0.359   4.590 -0.3909 -0.1208 -0.0335
  583MOL0    Cl78615  -0.789   0.422   4.598 -0.1091 -0.1846 -0.1649
  583MOL0     C78616  -0.821   0.621   3.986 -0.1192  0.4663 -0.4887
  583MOL0     C78617  -0.695   0.625   3.916  0.0425 -0.1922 -0.1458
  583MOL0     O78618  -0.480   0.863   3.883  0.1213 -0.2096  0.3264
  583MOL0     C78619  -0.332   0.738   3.594 -1.0053 -0.6053 -0.2431
  583MOL0     C78620  -0.208   0.728   3.531  0.0445  0.7699 -0.4848
  583MOL0     N78621   0.538   0.851   3.377 -0.2704  0.1038  0.2089
  583MOL0     N78622   0.670   0.819   3.381 -0.1830 -0.4165 -0.0543
  583MOL0     C78623   1.707   0.485   2.926  0.6452  0.7467 -0.4822
  583MOL0     C78624   1.835   0.417   2.931  0.4857  0.4737 -0.9275
  583MOL0     C78625   2.300   0.390   2.980 -0.9596 -0.7793  0.1377
  583MOL0     C78626   2.418   0.404   2.904 -0.4867  0.0620 -1.0170
  583MOL0     C78627   2.536   0.329   2.935 -0.1045 -0.0802 -0.0877
  583MOL0     C78628   2.532   0.236   3.045 -0.4569  0.8675  0.0561
  583MOL0     O78629   2.634   0.145   3.081  0.0419 -0.5155  0.4524
  583MOL0     C78630   2.764   0.150   3.021 -0.4929  0.0354  0.5513
  583MOL0     C78631   2.846   0.261   3.076  0.1359 -0.2929 -0.6246
  583MOL0     C78632   3.001   0.219   3.079 -0.1235 -0.3859  0.2648
  583MOL0     C78633   3.061   0.200   2.943 -0.0266 -0.2343  0.1779
  583MOL0     C78634   3.201   0.156   2.947  0.8583  0.5068  1.0356
  583MOL0     C78635   3.301   0.102   2.923 -0.4692 -0.3509 -1.1605
  583MOL0     C78636   2.414   0.232   3.114 -0.2840  0.1560 -0.2410
  583MOL0     C78637   2.300   0.305   3.091  0.6204 -0.6992 -0.1822
  583MOL0     H78638   2.012   0.662   3.082  1.7464 -0.3126 -3.1004
  583MOL0     H78639   1.782   0.777   3.086 -0.4310  0.2812 -1.8563
  583MOL0     H78640   1.587   0.836   3.064 -2.8845 -0.3636  1.4101
  583MOL0     H78641   1.598   0.848   2.885 -0.1017  0.7026 -0.1688
  583MOL0     H78642   1.382   0.955   2.959 -3.8313 -0.4569 -2.7853
  583MOL0     H78643   1.346   0.823   2.881 -0.8342 -0.1022  0.2862
  583MOL0     H78644   1.295   0.675   3.067  4.4414 -0.5306  1.9265
  583MOL0     H78645   1.376   0.782   3.181 -0.8582 -2.9160  0.6883
  583MOL0     H78646   1.198   0.949   3.136 -0.9005  0.1657 -2.7744
  583MOL0     H78647   1.123   0.835   3.023  1.7613 -2.9905 -0.3953
  583MOL0     H78648   1.056   0.689   3.212  0.8168 -1.3395  0.8878
  583MOL0     H78649   1.191   0.747   3.298 -0.3330 -0.5871  0.0152
  583MOL0     H78650   1.063   0.977   3.324  0.3235  0.2479 -1.2658
  583MOL0     H78651   0.934   0.883   3.240  1.5816  1.1506 -0.8673
  583MOL0     H78652   0.944   0.725   3.450 -0.2807  0.1434 -1.5686
  583MOL0     H78653   1.051   0.841   3.515 -0.7041  2.5584  0.1981
  583MOL0     H78654   0.881   1.032   3.507 -0.8468  0.2028  2.0038
  583MOL0     H78655   0.860   0.910   3.615 -2.7894  0.1660 -0.7183
  583MOL0     H78656   0.645   1.085   3.579  0.5461 -1.9853  2.1387
  583MOL0     H78657   0.381   1.099   3.540 -1.0810  0.1061  0.5102
  583MOL0     H78658   0.313   1.022   3.398  3.0852 -0.0925 -2.6872
  583MOL0     H78659   0.176   0.945   3.567 -1.8135 -3.1368 -2.6147
  583MOL0     H78660   0.302   0.911   3.672  1.5942 -1.4698 -0.9826
  583MOL0     H78661   0.373   0.706   3.526  0.4941  1.1675  0.3387
  583MOL0     H78662   0.249   0.754   3.414  0.1682  0.3714  0.2958
  583MOL0     H78663   0.177   0.703   3.698  1.4455 -2.1280  0.4988
  583MOL0     H78664   0.183   0.577   3.587 -1.0167  0.1441  0.0634
  583MOL0     H78665  -0.006   0.733   3.814 -0.1594 -2.4090 -0.5726
  583MOL0     H78666  -0.289   0.748   4.015 -0.7068 -0.8898 -2.2076
  583MOL0     H78667  -0.109   0.734   4.002  0.5666  0.6852  0.3351
  583MOL0     H78668  -0.190   0.886   3.969  1.6084  0.0386 -1.3820
  583MOL0     H78669  -0.773   0.866   3.698  1.3111  1.4111  0.3115
  583MOL0     H78670  -0.996   0.849   3.812  2.2679  0.8823 -1.9570
  583MOL0     H78671  -1.037   0.499   4.098  2.4883  1.1988 -0.7483
  583MOL0     H78672  -1.008   0.621   4.218 -0.0546 -2.0999 -0.0219
  583MOL0     H78673  -1.248   0.680   4.209 -0.8584  0.0019 -0.7157
  583MOL0     H78674  -1.273   0.588   4.074 -0.5803  1.6911 -0.6141
  583MOL0     H78675  -1.173   0.381   4.216  0.6477  0.7539  0.4814
  583MOL0     H78676  -1.336   0.430   4.265 -0.3384  0.4730  0.8854
  583MOL0     H78677  -1.089   0.530   4.405 -0.4435 -2.0657  0.0921
  583MOL0     H78678  -1.253   0.593   4.423 -0.0550  0.7109  0.3022
  583MOL0     H78679  -1.188   0.297   4.460 -1.4887 -0.0548 -1.9102
  583MOL0     H78680  -1.346   0.376   4.483 -0.0641 -1.7265  0.8167
  583MOL0     H78681  -1.263   0.507   4.670 -1.2940 -1.5343 -1.4329
  583MOL0     H78682  -1.218   0.331   4.685 -0.1048  0.6286  2.7209
  583MOL0     H78683  -1.038   0.451   4.770  0.0399 -0.3335 -0.2979
  583MOL0     H78684  -1.037   0.564   4.647  0.7085 -0.1923  1.8869
  583MOL0     H78685  -0.987   0.367   4.484 -0.7837  0.2938  0.0857
  583MOL0     H78686  -0.973   0.257   4.629  1.4678 -0.9013 -1.4309
  583MOL0     H78687  -0.822   0.545   4.064 -0.5814 -0.6971 -1.5876
  583MOL0     H78688  -0.617   0.556   3.946  1.5167  1.1317 -0.8338
  583MOL0     H78689  -0.424   0.727   3.538 -2.0118  0.7038  1.0966
  583MOL0     H78690  -0.195   0.695   3.429  1.2361 -2.2724  0.5464
  583MOL0     H78691   1.631   0.432   2.869  0.9295 -3.6427  2.6807
  583MOL0     H78692   1.847   0.317   2.891  0.7881 -1.0289  2.5762
  583MOL0     H78693   2.414   0.472   2.819  0.1935  0.5812 -0.6355
  583MOL0     H78694   2.625   0.340   2.873 -0.1614  0.6136 -0.0541
  583MOL0     H78695   2.809   0.056   3.053  0.3344  0.6414  1.2426
  583MOL0     H78696   2.759   0.149   2.912  1.1642  2.6110  0.3478
  583MOL0     H78697   2.819   0.280   3.181 -0.5256 -0.7179 -0.7152
  583MOL0     H78698   2.823   0.351   3.020 -0.0841  0.0467  0.0009
  583MOL0     H78699   3.007   0.122   3.129  1.2822 -1.1078 -1.2200
  583MOL0     H78700   3.059   0.297   3.130  0.1983  1.1795 -2.2920
  583MOL0     H78701   3.048   0.296   2.891 -4.4204  1.6130  3.9596
  583MOL0     H78702   3.006   0.115   2.902 -0.5432  0.3598 -0.3947
  583MOL0     H78703   3.400   0.069   2.901 -0.3117 -0.4079 -0.3883
  583MOL0     H78704   2.404   0.166   3.200 -2.1551 -1.1370 -1.3755
  583MOL0     H78705   2.214   0.299   3.156  0.9631 -2.9210  0.1528
  584MOL0     O78706   0.759   2.312   7.371  0.3917 -0.3745 -0.6186
  584MOL0     C78707   0.857   2.273   7.315 -0.4555  0.0457 -0.3529
  584MOL0     O78708   0.872   2.153   7.250 -0.2488 -0.1597 -0.5095
  584MOL0     C78709   0.769   2.066   7.231  0.7803 -0.1540 -0.5176
  584MOL0     C78710   0.640   2.101   7.181  0.8135  0.3446 -0.5534
  584MOL0     C78711   0.553   2.004   7.141  0.2532 -0.4908 -0.1838
  584MOL0     C78712   0.575   1.869   7.151 -0.6612  0.0226 -0.0790
  584MOL0     O78713   0.477   1.790   7.093 -0.3470  0.5019 -0.9325
  584MOL0     C78714   0.485   1.649   7.103  0.6023  0.0838  0.2801
  584MOL0     C78715   0.465   1.599   7.241 -0.3313 -0.2108  0.3155
  584MOL0     C78716   0.433   1.448   7.243  0.2240  0.9072  0.3093
  584MOL0     C78717   0.354   1.412   7.371 -0.2433  0.3768 -0.8230
  584MOL0     C78718   0.446   1.408   7.490  0.8847  0.0285 -0.1256
  584MOL0     C78719   0.390   1.323   7.609  0.8688 -0.1233  0.9430
  584MOL0     C78720   0.499   1.288   7.701 -0.7872 -0.5386  0.4331
  584MOL0     C78721   0.448   1.152   7.755 -0.3132  0.3965 -0.0438
  584MOL0     N78722   0.341   1.172   7.850 -0.0014  0.8340  0.0085
  584MOL0     C78723   0.216   1.114   7.848  0.3954 -0.1764  0.3562
  584MOL0     C78724   0.158   1.159   7.954  0.1019 -0.6778  0.4222
  584MOL0     C78725   0.029   1.108   8.000 -0.4339 -0.4262 -0.2981
  584MOL0     C78726  -0.085   1.197   7.938 -0.2208  0.5820 -0.2427
  584MOL0     C78727  -0.218   1.155   7.997 -0.0948  0.6256  0.2466
  584MOL0     C78728  -0.344   1.216   7.931 -0.2762  0.5196  0.1705
  584MOL0     O78729  -0.466   1.168   7.995  0.2178 -0.3264 -0.4287
  584MOL0     C78730  -0.581   1.215   7.936 -0.5648 -0.4019 -0.8153
  584MOL0     C78731  -0.594   1.319   7.839 -0.3394 -0.2749  0.5460
  584MOL0     C78732  -0.711   1.361   7.781  1.4260 -0.5293  0.2574
  584MOL0     C78733  -0.704   1.487   7.687  0.1643 -0.7068  0.7914
  584MOL0     C78734  -0.838   1.303   7.818  0.2518 -0.3732 -0.5694
  584MOL0     C78735  -0.972   1.341   7.760 -0.8654 -0.0603 -0.3862
  584MOL0     O78736  -1.069   1.342   7.850 -0.0604 -0.4244  0.5731
  584MOL0     C78737  -1.192   1.371   7.809  0.1544  1.4752 -0.2361
  584MOL0     C78738  -1.299   1.274   7.819  0.2067  0.4283 -0.6234
  584MOL0     C78739  -1.431   1.314   7.807  0.0272 -0.5446  0.4007
  584MOL0     C78740  -1.456   1.456   7.797  0.5130 -0.0055  0.5553
  584MOL0     O78741  -1.581   1.509   7.808 -0.6106  0.2687  0.2712
  584MOL0     C78742  -1.694   1.441   7.761  0.0699  0.4778 -0.9159
  584MOL0     C78743  -1.820   1.529   7.783  0.0829 -0.0973  0.6098
  584MOL0     C78744  -1.948   1.451   7.757 -0.4292 -0.6194 -0.6629
  584MOL0     C78745  -2.071   1.545   7.769 -0.3713  0.1164  0.3094
  584MOL0     C78746  -2.201   1.478   7.721 -1.0515  0.1249  0.0379
  584MOL0     C78747  -2.315   1.577   7.712  0.2911 -0.0360 -0.5690
  584MOL0     C78748  -2.445   1.494   7.684 -0.6227  0.4354 -0.0447
  584MOL0     C78749  -2.559   1.590   7.643  0.2722  0.8654 -0.2021
  584MOL0    Cl78750  -2.725   1.522   7.670  0.2893 -0.0941 -0.1066
  584MOL0     C78751  -1.348   1.550   7.782  0.3813 -0.1302 -1.0198
  584MOL0     C78752  -1.221   1.502   7.788 -0.2065  0.2700  0.4799
  584MOL0     O78753  -0.981   1.353   7.636 -0.5992  0.9958 -0.7697
  584MOL0     C78754  -0.830   1.198   7.911  0.2180  0.7648  0.2844
  584MOL0     C78755  -0.702   1.155   7.964  0.3811  0.2469  0.9918
  584MOL0     N78756   0.241   1.248   8.021  0.1846 -0.2498  0.1391
  584MOL0     N78757   0.347   1.260   7.952  0.3755  0.4755  0.2768
  584MOL0     C78758   0.699   1.823   7.193 -1.1461 -0.1112 -0.1670
  584MOL0     C78759   0.797   1.919   7.231  0.4185 -0.2204 -0.4258
  584MOL0     C78760   0.983   2.358   7.335 -0.3293 -0.3915 -0.2526
  584MOL0     C78761   0.977   2.484   7.385 -0.7883  0.1488  0.1776
  584MOL0     C78762   1.092   2.560   7.394  0.0470 -0.2735  0.2474
  584MOL0     C78763   1.220   2.517   7.354  0.5492 -0.3002 -0.3428
  584MOL0     O78764   1.325   2.602   7.372 -0.0140  0.0201 -0.2895
  584MOL0     C78765   1.459   2.549   7.347  0.5038 -0.0893 -0.3868
  584MOL0     C78766   1.564   2.664   7.333  0.1117  0.5921  0.6158
  584MOL0     C78767   1.584   2.695   7.182 -0.5531  1.0295 -0.4110
  584MOL0     C78768   1.655   2.836   7.163  0.3044  0.1952 -0.9921
  584MOL0     C78769   1.790   2.835   7.214 -0.5431  0.3610 -0.2493
  584MOL0     C78770   1.900   2.848   7.272  0.3723  0.3229  0.5837
  584MOL0     C78771   1.225   2.386   7.308 -0.2940  0.1431  0.3998
  584MOL0     C78772   1.107   2.304   7.288 -0.4695  0.2712 -0.2866
  584MOL0     H78773   0.615   2.202   7.151 -0.0468  0.2831 -0.0797
  584MOL0     H78774   0.459   2.036   7.098  0.4895 -0.9259 -1.0318
  584MOL0     H78775   0.414   1.602   7.035  1.5877  0.6576 -1.1850
  584MOL0     H78776   0.583   1.619   7.063  0.0021 -0.3435 -0.9262
  584MOL0     H78777   0.552   1.618   7.306  0.5361 -2.0716 -0.2344
  584MOL0     H78778   0.379   1.656   7.277 -0.1676 -0.1029  0.5443
  584MOL0     H78779   0.369   1.428   7.157 -0.8309 -2.8993  1.8045
  584MOL0     H78780   0.522   1.385   7.235 -0.5086 -0.1400  0.2374
  584MOL0     H78781   0.273   1.485   7.387 -0.2929  0.0349  0.7133
  584MOL0     H78782   0.310   1.315   7.346 -1.7042  1.0061 -0.8008
  584MOL0     H78783   0.542   1.361   7.464  2.0389 -0.2857  3.9997
  584MOL0     H78784   0.464   1.510   7.524  3.0349 -0.7829  1.3605
  584MOL0     H78785   0.304   1.367   7.660  0.1395 -0.3277 -0.0734
  584MOL0     H78786   0.343   1.238   7.558 -0.4893  1.8058 -1.2296
  584MOL0     H78787   0.592   1.275   7.644 -1.2836  2.0929 -1.1357
  584MOL0     H78788   0.514   1.366   7.776 -0.3604 -2.0061  1.9256
  584MOL0     H78789   0.516   1.096   7.820 -1.5839 -0.1418  0.8559
  584MOL0     H78790   0.427   1.077   7.678  1.1980 -1.8394  1.5966
  584MOL0     H78791   0.177   1.046   7.774  3.4038 -0.5501 -1.0395
  584MOL0     H78792   0.023   1.000   7.981  1.3995 -0.6733  0.3007
  584MOL0     H78793   0.017   1.130   8.106 -1.8128 -1.3784 -0.2391
  584MOL0     H78794  -0.081   1.168   7.833  2.2513 -0.1418 -0.0092
  584MOL0     H78795  -0.079   1.305   7.958 -0.1283  0.1096  2.7592
  584MOL0     H78796  -0.218   1.178   8.104  3.6194  2.6140 -0.0504
  584MOL0     H78797  -0.228   1.047   7.981  0.7643  0.9366 -3.0442
  584MOL0     H78798  -0.347   1.196   7.823  1.5543 -0.2501  0.2139
  584MOL0     H78799  -0.336   1.325   7.937  0.8652  0.3615  3.7280
  584MOL0     H78800  -0.504   1.372   7.810  0.9640 -2.0863  1.1105
  584MOL0     H78801  -0.776   1.492   7.605 -1.3336  0.0610  2.0839
  584MOL0     H78802  -0.700   1.580   7.745 -0.3780 -1.0569  1.4077
  584MOL0     H78803  -0.609   1.495   7.635  0.3591  1.5901  1.3724
  584MOL0     H78804  -1.263   1.175   7.846 -0.0961  0.5618  0.3254
  584MOL0     H78805  -1.504   1.234   7.809  0.7724 -1.5426 -3.6625
  584MOL0     H78806  -1.697   1.422   7.654 -1.6734  0.7732 -0.9352
  584MOL0     H78807  -1.698   1.344   7.812 -0.0596  0.7748 -0.3563
  584MOL0     H78808  -1.817   1.575   7.882 -1.6385 -1.3605  1.3098
  584MOL0     H78809  -1.811   1.613   7.714  2.9863  0.5934  1.6729
  584MOL0     H78810  -1.955   1.368   7.828  1.0088 -0.5885 -0.4654
  584MOL0     H78811  -1.948   1.419   7.652 -1.0635 -0.0877 -0.8326
  584MOL0     H78812  -2.088   1.579   7.871  0.5865 -0.1752  0.5768
  584MOL0     H78813  -2.052   1.636   7.712  0.2053 -0.8307 -1.0622
  584MOL0     H78814  -2.233   1.401   7.792 -3.4142  1.0500  0.0589
  584MOL0     H78815  -2.175   1.430   7.626 -0.6048  0.3267  0.0561
  584MOL0     H78816  -2.329   1.630   7.807 -1.3063  2.4763 -2.0980
  584MOL0     H78817  -2.293   1.653   7.637  0.9204  0.7946  0.4240
  584MOL0     H78818  -2.464   1.438   7.776 -0.0847  1.9930  1.0643
  584MOL0     H78819  -2.425   1.424   7.602  0.9071  0.0070  0.6560
  584MOL0     H78820  -2.543   1.620   7.539 -1.5172  0.3103 -0.6688
  584MOL0     H78821  -2.556   1.682   7.703  1.1516  0.9118 -0.3064
  584MOL0     H78822  -1.347   1.658   7.792  2.0205 -0.1852 -0.2473
  584MOL0     H78823  -1.148   1.582   7.789  0.6322 -0.4990  1.4260
  584MOL0     H78824  -0.916   1.147   7.953  0.8098  0.9726  1.7833
  584MOL0     H78825  -0.704   1.075   8.038 -3.7745  0.9737  1.9327
  584MOL0     H78826   0.733   1.720   7.192 -3.8932 -1.0948  0.6462
  584MOL0     H78827   0.897   1.885   7.256  1.2155  1.4308 -1.1686
  584MOL0     H78828   0.883   2.531   7.413  1.4463  4.2976  1.5820
  584MOL0     H78829   1.091   2.663   7.426 -0.1259 -0.1212 -0.2490
  584MOL0     H78830   1.471   2.491   7.439 -0.2045  0.8113  0.2968
  584MOL0     H78831   1.470   2.475   7.267  0.4486  0.6765 -1.1246
  584MOL0     H78832   1.659   2.622   7.368 -0.4680 -0.6788  0.7349
  584MOL0     H78833   1.538   2.754   7.390 -0.5281  0.2441  0.8800
  584MOL0     H78834   1.488   2.697   7.129  0.3065 -1.2197 -2.2073
  584MOL0     H78835   1.644   2.612   7.145  0.9295 -0.3864  4.4628
  584MOL0     H78836   1.598   2.915   7.213  0.1219  0.9841 -2.3813
  584MOL0     H78837   1.655   2.874   7.060  2.9029 -0.4062 -1.2904
  584MOL0     H78838   1.999   2.874   7.301 -0.1960  3.8031 -0.1091
  584MOL0     H78839   1.320   2.340   7.283 -0.1243 -0.9258  2.7765
  584MOL0     H78840   1.100   2.206   7.241 -1.7235 -0.1591  0.7442
  585MOL0     O78841   0.103  10.674   7.538  0.2678 -1.0712 -0.4704
  585MOL0     C78842   0.134  10.563   7.566  0.0674 -0.1065 -0.4668
  585MOL0     O78843   0.054  10.457   7.592  0.0290 -0.6814  0.0949
  585MOL0     C78844  -0.079  10.492   7.566  0.3016  0.5378 -0.6300
  585MOL0     C78845  -0.172  10.512   7.663  0.3190 -0.2389 -0.3752
  585MOL0     C78846  -0.305  10.547   7.631  0.5743  0.0109 -0.3224
  585MOL0     C78847  -0.339  10.564   7.497  0.7768 -0.1651 -0.3868
  585MOL0     O78848  -0.462  10.619   7.449  0.0601  0.5325 -0.1844
  585MOL0     C78849  -0.578  10.577   7.525  0.5014  0.8499  0.0446
  585MOL0     C78850  -0.698  10.590   7.429  0.1487 -0.2195  0.1121
  585MOL0     C78851  -0.827  10.613   7.510  0.5329  0.4692  0.4926
  585MOL0     C78852  -0.953  10.611   7.421  0.5171  0.1838 -0.7060
  585MOL0     C78853  -1.088  10.635   7.499 -0.5869  0.6370 -0.2146
  585MOL0     C78854  -1.199  10.568   7.422 -0.1502  0.9119  0.7430
  585MOL0     C78855  -1.348  10.585   7.476 -0.3445 -0.1324  0.1139
  585MOL0     C78856  -1.414  10.707   7.418 -0.1143 -1.0388  0.3282
  585MOL0     N78857  -1.552  10.719   7.460  0.1157  0.1418  0.0643
  585MOL0     C78858  -1.617  10.827   7.525 -0.0324 -0.5713 -0.3171
  585MOL0     C78859  -1.750  10.786   7.521 -0.5350  0.1868  0.9920
  585MOL0     C78860  -1.869  10.863   7.555 -0.5467  0.2927  0.0548
  585MOL0     C78861  -1.928  10.921   7.417  0.1491 -0.0979 -0.4210
  585MOL0     C78862  -2.026  11.042   7.440 -0.3445 -0.6384  0.3675
  585MOL0     C78863  -2.120  11.068   7.324 -0.1738  0.0572  1.3212
  585MOL0     O78864  -2.227  11.143   7.381 -0.3996  0.3037  0.4455
  585MOL0     C78865  -2.344  11.167   7.305 -0.7699 -0.3357  0.5214
  585MOL0     C78866  -2.358  11.111   7.176  0.8498  1.2916  0.0821
  585MOL0     C78867  -2.489  11.103   7.112 -0.5880  0.3673 -0.3984
  585MOL0     C78868  -2.486  11.043   6.972 -0.3161  0.5287  0.2518
  585MOL0     C78869  -2.606  11.155   7.177 -0.5242  0.2089 -0.4724
  585MOL0     C78870  -2.743  11.151   7.133 -0.4954  0.6442  0.4525
  585MOL0     O78871  -2.828  11.243   7.182  0.2351 -0.2461  0.6978
  585MOL0     C78872  -2.967  11.237   7.170 -0.9681  0.1591  0.0600
  585MOL0     C78873  -3.042  11.287   7.064 -0.5584 -0.1170 -0.0282
  585MOL0     C78874  -3.179  11.271   7.059  1.3062  0.1002  0.1247
  585MOL0     C78875  -3.241  11.199   7.162 -0.3793 -1.3849  0.2323
  585MOL0     O78876  -3.381  11.190   7.157 -0.2536  0.7745 -0.4256
  585MOL0     C78877  -3.465  11.263   7.066 -0.4212  0.2028 -0.2266
  585MOL0     C78878  -3.608  11.262   7.119 -0.6357  0.6793  0.5190
  585MOL0     C78879  -3.708  11.305   7.012  0.9648  1.3009 -0.1983
  585MOL0     C78880  -3.853  11.294   7.081 -0.5655 -0.0617  0.2645
  585MOL0     C78881  -3.956  11.341   6.979  0.2978 -0.2040  0.2897
  585MOL0     C78882  -3.933  11.487   6.925  0.5719 -0.1564 -0.1470
  585MOL0     C78883  -4.066  11.542   6.878  0.3664 -0.8317 -0.3774
  585MOL0     C78884  -4.050  11.689   6.865  0.9095 -0.4664 -0.5082
  585MOL0    Cl78885  -4.187  11.744   6.773 -0.3805  0.0183  0.0061
  585MOL0     C78886  -3.165  11.141   7.262  0.2386  0.6115  0.0988
  585MOL0     C78887  -3.030  11.160   7.267  0.1105 -0.1419  0.0797
  585MOL0     O78888  -2.771  11.057   7.061  0.2719  0.2754 -0.4407
  585MOL0     C78889  -2.577  11.218   7.305  0.0937 -0.2780 -0.3724
  585MOL0     C78890  -2.450  11.227   7.367 -0.5356 -0.2571 -0.1428
  585MOL0     N78891  -1.760  10.658   7.465 -0.2413 -0.5628  0.7023
  585MOL0     N78892  -1.636  10.626   7.424  0.6586  0.9657 -0.4509
  585MOL0     C78893  -0.249  10.544   7.395 -0.0551  0.2746  0.9228
  585MOL0     C78894  -0.113  10.508   7.427 -1.4397 -0.0001 -0.2265
  585MOL0     C78895   0.280  10.538   7.561  0.1449  0.4280 -0.0605
  585MOL0     C78896   0.333  10.411   7.602  0.2072 -0.5121  0.0412
  585MOL0     C78897   0.474  10.387   7.606  0.6036 -0.9818  0.1057
  585MOL0     C78898   0.565  10.492   7.555 -0.4227  0.0385 -1.2761
  585MOL0     O78899   0.701  10.494   7.560 -0.1827  0.4070 -0.1453
  585MOL0     C78900   0.781  10.394   7.625 -0.3565 -0.2981  0.9255
  585MOL0     C78901   0.932  10.423   7.617 -0.5323  0.4004  1.5803
  585MOL0     C78902   1.026  10.312   7.666  0.5264 -0.3698  0.8970
  585MOL0     C78903   1.035  10.199   7.568 -0.0519 -0.3803  0.4289
  585MOL0     C78904   1.093  10.071   7.629  0.0237 -0.4047  0.7673
  585MOL0     C78905   1.140   9.974   7.681  0.7082  0.2224 -0.4255
  585MOL0     C78906   0.509  10.616   7.514 -0.3776  0.1485 -0.9018
  585MOL0     C78907   0.375  10.635   7.520  0.0747 -0.0082 -0.3684
  585MOL0     H78908  -0.145  10.510   7.768 -0.2212 -0.4722 -0.2391
  585MOL0     H78909  -0.373  10.556   7.715  0.8133  1.8207 -0.2620
  585MOL0     H78910  -0.580  10.471   7.551 -0.5133  0.1236 -2.6535
  585MOL0     H78911  -0.581  10.650   7.606 -0.3357  2.4073 -1.3131
  585MOL0     H78912  -0.686  10.673   7.359 -1.8143 -0.0956 -0.1527
  585MOL0     H78913  -0.711  10.499   7.369 -1.0637  0.3319 -0.4935
  585MOL0     H78914  -0.840  10.534   7.584 -2.3515 -0.4647 -0.8390
  585MOL0     H78915  -0.812  10.701   7.574  2.0363 -0.4690  1.4810
  585MOL0     H78916  -0.953  10.681   7.337 -1.5814  0.2405 -0.7327
  585MOL0     H78917  -0.953  10.515   7.369 -0.8200  1.0436 -2.3984
  585MOL0     H78918  -1.089  10.598   7.601 -3.5668 -2.0501 -1.0597
  585MOL0     H78919  -1.107  10.743   7.493  1.0062  0.9451 -0.2576
  585MOL0     H78920  -1.197  10.588   7.315 -2.0896 -0.4438  0.4024
  585MOL0     H78921  -1.172  10.462   7.413 -1.0210  0.5840  1.6931
  585MOL0     H78922  -1.406  10.497   7.448  0.2744 -0.5576  0.1390
  585MOL0     H78923  -1.351  10.589   7.586 -1.6274  0.7497  0.0627
  585MOL0     H78924  -1.411  10.693   7.310  2.1717 -3.0502  0.5437
  585MOL0     H78925  -1.362  10.798   7.449 -0.5872 -1.8592  4.0575
  585MOL0     H78926  -1.576  10.919   7.567 -3.3012  1.9391 -2.1307
  585MOL0     H78927  -1.949  10.793   7.582  0.0919 -0.7732 -0.7434
  585MOL0     H78928  -1.858  10.941   7.630 -2.7622  0.6468  0.0796
  585MOL0     H78929  -1.978  10.844   7.358  0.6167  0.0080 -0.9723
  585MOL0     H78930  -1.845  10.957   7.355  1.6017 -0.9398  0.9677
  585MOL0     H78931  -1.962  11.125   7.472  2.7986 -2.7772  0.1332
  585MOL0     H78932  -2.086  11.013   7.527  0.8249 -1.0614  1.0547
  585MOL0     H78933  -2.158  10.973   7.285 -1.7287  1.7771 -1.7586
  585MOL0     H78934  -2.077  11.131   7.246  0.0498 -2.9978 -1.1880
  585MOL0     H78935  -2.269  11.075   7.124  2.3765  0.2585  3.1535
  585MOL0     H78936  -2.514  10.937   6.973  1.4923 -0.0025  2.3891
  585MOL0     H78937  -2.555  11.104   6.913  0.9171  2.0480  0.3181
  585MOL0     H78938  -2.397  11.070   6.914 -0.1921  1.3909  0.8273
  585MOL0     H78939  -2.977  11.325   6.987  1.0766  3.2835  2.7651
  585MOL0     H78940  -3.223  11.294   6.962  4.1437 -1.9221 -1.8312
  585MOL0     H78941  -3.432  11.367   7.055 -2.2521  0.7133 -1.2494
  585MOL0     H78942  -3.469  11.221   6.965  3.8081  0.9697 -0.9278
  585MOL0     H78943  -3.626  11.160   7.155 -1.8661  0.7872  0.2596
  585MOL0     H78944  -3.607  11.338   7.198  0.6531  0.8735  0.3299
  585MOL0     H78945  -3.719  11.236   6.928 -0.0304  0.7341  0.3720
  585MOL0     H78946  -3.681  11.407   6.983 -0.1054  1.5106 -0.5006
  585MOL0     H78947  -3.878  11.194   7.118 -4.7178  0.1351 -1.4837
  585MOL0     H78948  -3.846  11.362   7.166  0.3581 -0.6012  0.6447
  585MOL0     H78949  -4.059  11.335   7.016  0.1526  2.7124  0.6337
  585MOL0     H78950  -3.948  11.286   6.885 -1.0669  0.8991 -0.5186
  585MOL0     H78951  -3.903  11.554   7.006 -0.0039 -0.0608 -0.0103
  585MOL0     H78952  -3.851  11.503   6.855  1.8758 -0.6886  1.1983
  585MOL0     H78953  -4.139  11.536   6.959  0.3843  1.8036 -0.0878
  585MOL0     H78954  -4.098  11.487   6.789 -1.4277  1.3531 -1.1561
  585MOL0     H78955  -3.958  11.725   6.817  0.0160  2.5129 -0.1683
  585MOL0     H78956  -4.054  11.730   6.966 -0.7837  1.0799 -1.1507
  585MOL0     H78957  -3.210  11.065   7.325  0.2164 -0.9912 -1.7750
  585MOL0     H78958  -2.983  11.109   7.350  4.8993 -1.2653 -2.9236
  585MOL0     H78959  -2.661  11.263   7.357 -0.7758 -2.0154 -0.2217
  585MOL0     H78960  -2.437  11.263   7.469  0.2044 -3.2056  0.8989
  585MOL0     H78961  -0.271  10.550   7.289  1.1182  0.1278  0.6682
  585MOL0     H78962  -0.043  10.475   7.351  0.6157 -1.7422  2.2635
  585MOL0     H78963   0.261  10.332   7.621  0.2494 -0.3056  1.1439
  585MOL0     H78964   0.515  10.290   7.631 -0.9495 -2.1617 -1.7058
  585MOL0     H78965   0.778  10.378   7.733  1.7765 -0.4333  1.0216
  585MOL0     H78966   0.754  10.299   7.579  0.1722 -0.7646  1.5547
  585MOL0     H78967   0.950  10.511   7.680 -0.7069 -0.9417  3.5939
  585MOL0     H78968   0.956  10.450   7.514  2.1571  3.1786  2.7807
  585MOL0     H78969   0.978  10.281   7.760 -1.6882 -1.2777 -0.4456
  585MOL0     H78970   1.127  10.348   7.685  0.6304 -0.0580 -0.1994
  585MOL0     H78971   1.091  10.222   7.477 -3.3857 -2.6996 -2.4552
  585MOL0     H78972   0.936  10.168   7.533  0.0575 -1.6874  1.1893
  585MOL0     H78973   1.194   9.890   7.721 -1.8057 -0.9833  0.6538
  585MOL0     H78974   0.571  10.701   7.486  2.0043 -2.1767 -3.3806
  585MOL0     H78975   0.337  10.727   7.476 -1.1034 -0.5372 -0.4939
  586MOL0     O78976   5.209   9.541   7.953 -0.2646  0.1403 -0.1702
  586MOL0     C78977   5.214   9.450   7.869 -0.0521  0.6773  0.6871
  586MOL0     O78978   5.123   9.425   7.769  0.4810 -0.1322 -0.1520
  586MOL0     C78979   4.999   9.491   7.780 -0.1107  0.0139  0.1914
  586MOL0     C78980   4.974   9.623   7.808 -0.3337  0.5784 -0.1828
  586MOL0     C78981   4.846   9.675   7.796 -0.5069 -0.0682 -0.3453
  586MOL0     C78982   4.742   9.579   7.771  1.2626  0.1013 -0.2652
  586MOL0     O78983   4.611   9.610   7.775  0.9631 -0.6747  0.1616
  586MOL0     C78984   4.536   9.615   7.654  0.2604 -0.8255 -0.2304
  586MOL0     C78985   4.405   9.701   7.672 -1.0690 -0.2372 -0.6031
  586MOL0     C78986   4.354   9.738   7.527 -0.5910  0.0079 -0.1549
  586MOL0     C78987   4.228   9.824   7.539  0.1982 -0.3448  0.0480
  586MOL0     C78988   4.177   9.892   7.407  0.1664 -0.6329 -0.1085
  586MOL0     C78989   4.185   9.794   7.294 -0.1809  0.0434  0.3384
  586MOL0     C78990   4.112   9.847   7.165 -0.2434 -0.2241 -0.7102
  586MOL0     C78991   3.963   9.826   7.191 -0.1355 -0.0917 -0.0936
  586MOL0     N78992   3.892   9.901   7.091 -0.8013 -0.0058  0.7577
  586MOL0     C78993   3.898  10.039   7.055 -0.0542 -0.3799 -1.1130
  586MOL0     C78994   3.791  10.063   6.973  0.3572  0.7943 -0.5634
  586MOL0     C78995   3.739  10.185   6.903  0.1258 -0.3577 -0.3017
  586MOL0     C78996   3.594  10.185   6.881 -0.2144  0.3868 -0.6285
  586MOL0     C78997   3.565  10.296   6.775  0.6072  0.2885  0.4435
  586MOL0     C78998   3.416  10.276   6.732  0.4586  0.2339  0.1670
  586MOL0     O78999   3.380  10.371   6.637 -0.0556 -0.2443  0.0931
  586MOL0     C79000   3.265  10.357   6.561  0.0473 -0.0836 -0.2676
  586MOL0     C79001   3.251  10.435   6.447 -0.5332 -0.2017  0.0616
  586MOL0     C79002   3.138  10.409   6.360 -0.6312 -0.1359  0.7995
  586MOL0     C79003   3.110  10.508   6.242 -0.1482 -0.6663 -0.4397
  586MOL0     C79004   3.040  10.305   6.382  0.2050  0.3474  0.4688
  586MOL0     C79005   2.912  10.279   6.314 -0.2972 -1.0441  0.2777
  586MOL0     O79006   2.818  10.210   6.386 -0.1767  0.2918 -0.1659
  586MOL0     C79007   2.698  10.205   6.332 -0.4723  0.0931 -0.0355
  586MOL0     C79008   2.658  10.107   6.235 -0.1818 -0.1315  0.7728
  586MOL0     C79009   2.524  10.106   6.195 -0.1665  0.8533 -0.6792
  586MOL0     C79010   2.433  10.197   6.238  0.3110 -0.2298  0.6184
  586MOL0     O79011   2.307  10.201   6.193 -0.3158 -0.3894 -0.0143
  586MOL0     C79012   2.257  10.094   6.119  0.1844  0.0709  0.7884
  586MOL0     C79013   2.112  10.112   6.090  0.5496 -0.4268  0.1505
  586MOL0     C79014   2.014  10.072   6.213 -0.0060 -0.4990  0.0954
  586MOL0     C79015   1.870  10.082   6.166  0.4513 -0.4993 -0.9035
  586MOL0     C79016   1.780  10.074   6.291  0.2978  0.8980  0.0642
  586MOL0     C79017   1.638  10.044   6.247  0.9488 -0.5113  0.5982
  586MOL0     C79018   1.579  10.149   6.153 -0.1620  0.4868  0.8221
  586MOL0     C79019   1.439  10.111   6.112 -0.1122 -0.3127  0.7885
  586MOL0    Cl79020   1.355   9.990   6.219 -0.0322  0.2442  0.4558
  586MOL0     C79021   2.470  10.277   6.338  0.0495  0.2067 -0.2907
  586MOL0     C79022   2.600  10.286   6.389  0.2147  0.0921 -0.0830
  586MOL0     O79023   2.895  10.320   6.198  0.2507  0.0239 -0.0074
  586MOL0     C79024   3.066  10.224   6.499  0.3915  0.3332  0.2081
  586MOL0     C79025   3.173  10.247   6.589 -0.2233 -0.4019 -0.1427
  586MOL0     N79026   3.729   9.936   6.952  0.7396  0.8227 -0.2424
  586MOL0     N79027   3.782   9.849   7.030 -0.0528  0.4971  0.3369
  586MOL0     C79028   4.768   9.448   7.739  0.7577 -0.6031  1.1585
  586MOL0     C79029   4.895   9.403   7.741 -1.2833 -0.3364 -0.9971
  586MOL0     C79030   5.337   9.364   7.877  0.7060 -0.5033 -0.6821
  586MOL0     C79031   5.364   9.268   7.782  0.5604  0.7457 -0.4305
  586MOL0     C79032   5.491   9.210   7.791 -0.9572 -0.2074  0.5332
  586MOL0     C79033   5.586   9.225   7.893  0.0517  0.1425 -0.1492
  586MOL0     O79034   5.705   9.155   7.890  0.1457 -0.6067  0.1806
  586MOL0     C79035   5.819   9.218   7.957  0.1366 -0.3794 -0.2154
  586MOL0     C79036   5.927   9.115   7.938 -0.7608  0.6244  0.5827
  586MOL0     C79037   5.998   9.137   7.794 -0.0224 -0.4837 -0.1399
  586MOL0     C79038   5.918   9.126   7.661 -0.4562  0.2856  0.0703
  586MOL0     C79039   5.906   8.982   7.628  1.0222  0.4350  0.8927
  586MOL0     C79040   5.876   8.863   7.606 -1.0104 -0.1003 -0.0801
  586MOL0     C79041   5.549   9.318   7.987 -0.0423  0.1790 -0.4304
  586MOL0     C79042   5.427   9.388   7.978  0.4227 -0.3619 -0.1101
  586MOL0     H79043   5.047   9.700   7.830 -0.9416  1.6150 -1.5482
  586MOL0     H79044   4.827   9.781   7.810  2.0647  0.9050 -3.0600
  586MOL0     H79045   4.609   9.657   7.583 -0.2490 -0.3777 -0.4992
  586MOL0     H79046   4.508   9.515   7.621 -0.5317 -1.1703  1.3845
  586MOL0     H79047   4.325   9.648   7.724 -0.0369  0.1464  1.4556
  586MOL0     H79048   4.423   9.797   7.721 -2.7447 -0.2127  0.0212
  586MOL0     H79049   4.438   9.787   7.479  1.5257 -0.8616  2.4265
  586MOL0     H79050   4.332   9.646   7.472 -2.5633  0.7110 -0.6322
  586MOL0     H79051   4.149   9.759   7.575  0.3078 -0.5357 -0.0525
  586MOL0     H79052   4.251   9.904   7.610 -0.4757 -0.9969  1.0210
  586MOL0     H79053   4.072   9.920   7.423 -0.0204 -2.1288  1.5135
  586MOL0     H79054   4.227   9.988   7.391 -1.2593  0.1652  0.0112
  586MOL0     H79055   4.287   9.777   7.259 -0.2729 -0.5012  0.3285
  586MOL0     H79056   4.134   9.704   7.331  1.5552 -1.3645 -0.5173
  586MOL0     H79057   4.130   9.954   7.151  1.6651 -0.1254  1.7642
  586MOL0     H79058   4.147   9.782   7.085 -2.3863  1.5833 -3.2765
  586MOL0     H79059   3.935   9.867   7.288 -0.4289  1.4312 -0.8075
  586MOL0     H79060   3.933   9.720   7.191  1.1825 -0.4951 -0.6727
  586MOL0     H79061   3.965  10.119   7.084 -2.9017  1.7927  0.0335
  586MOL0     H79062   3.752  10.264   6.978 -2.0257 -0.5588  0.3429
  586MOL0     H79063   3.792  10.188   6.807  2.4114  1.1991  0.9116
  586MOL0     H79064   3.544  10.199   6.978  3.8447 -0.5749  1.8490
  586MOL0     H79065   3.569  10.088   6.837  2.6114  0.0240 -1.6910
  586MOL0     H79066   3.644  10.301   6.700  1.6695  0.4956  1.5274
  586MOL0     H79067   3.569  10.391   6.829  1.5244  0.5257 -0.0200
  586MOL0     H79068   3.362  10.287   6.827 -0.7170 -4.9292  0.4157
  586MOL0     H79069   3.406  10.175   6.691  1.8481  1.1222 -2.5970
  586MOL0     H79070   3.328  10.504   6.414  0.0951 -0.9919 -0.1833
  586MOL0     H79071   3.159  10.478   6.149  2.0254  1.6648 -0.1691
  586MOL0     H79072   3.004  10.532   6.230 -0.8666 -4.1341 -2.1231
  586MOL0     H79073   3.160  10.603   6.264  1.0143 -0.3469 -3.8488
  586MOL0     H79074   2.718  10.024   6.201 -0.2441  0.0112  0.3062
  586MOL0     H79075   2.502  10.028   6.124  0.0208 -1.5895  1.7713
  586MOL0     H79076   2.313  10.090   6.025  0.3119  2.4674  0.7148
  586MOL0     H79077   2.277   9.994   6.160  2.4314 -0.6937 -1.8398
  586MOL0     H79078   2.093  10.209   6.044  0.9362 -1.1131 -1.5375
  586MOL0     H79079   2.099  10.034   6.014 -1.6770 -3.0881  2.9503
  586MOL0     H79080   2.027  10.154   6.284 -2.0560  0.7512 -0.8797
  586MOL0     H79081   2.040   9.979   6.264  0.8813 -0.8018 -0.8582
  586MOL0     H79082   1.859  10.173   6.107 -1.5441 -0.4721 -0.5445
  586MOL0     H79083   1.854   9.996   6.101  2.2651 -1.9584  0.4397
  586MOL0     H79084   1.787  10.166   6.350  1.9101  0.4720  0.5874
  586MOL0     H79085   1.821   9.991   6.349 -2.2495 -0.1241  0.5362
  586MOL0     H79086   1.634   9.942   6.206 -0.6305  0.5280 -2.0667
  586MOL0     H79087   1.570  10.030   6.332 -0.1755 -1.2025 -0.3902
  586MOL0     H79088   1.634  10.163   6.060  0.9595 -1.3763  1.1513
  586MOL0     H79089   1.588  10.250   6.195 -3.0957  1.4916 -0.7111
  586MOL0     H79090   1.458  10.070   6.012  1.3232 -3.5265  2.2255
  586MOL0     H79091   1.372  10.197   6.098 -1.1595 -0.9596  1.6989
  586MOL0     H79092   2.386  10.325   6.389  0.5584  1.6657 -0.7776
  586MOL0     H79093   2.629  10.347   6.474  2.8159 -0.9445 -0.1418
  586MOL0     H79094   2.994  10.146   6.522 -1.7105  1.7347 -1.2665
  586MOL0     H79095   3.185  10.180   6.673 -1.3268  1.2141  1.3961
  586MOL0     H79096   4.684   9.385   7.709  0.5942 -1.1124  2.6005
  586MOL0     H79097   4.915   9.302   7.706 -0.7842  0.6263 -3.8082
  586MOL0     H79098   5.296   9.254   7.699 -2.4882  1.3492  1.8165
  586MOL0     H79099   5.509   9.130   7.719 -1.2087  0.1741  0.0492
  586MOL0     H79100   5.840   9.318   7.916 -1.1550 -0.3160 -0.7425
  586MOL0     H79101   5.799   9.234   8.064 -2.0363  2.6321 -0.9523
  586MOL0     H79102   5.884   9.015   7.938 -0.3391  0.4391  0.4301
  586MOL0     H79103   5.998   9.118   8.021 -0.7206  0.0017  0.5740
  586MOL0     H79104   6.084   9.071   7.780  0.7962 -0.1966  2.7103
  586MOL0     H79105   6.024   9.243   7.807 -0.6319 -0.2962 -0.4122
  586MOL0     H79106   5.966   9.184   7.581 -0.5053  1.7368  1.0671
  586MOL0     H79107   5.819   9.170   7.671 -1.3633 -1.2968 -1.2832
  586MOL0     H79108   5.858   8.758   7.607  2.4158 -0.8081 -1.1071
  586MOL0     H79109   5.621   9.344   8.063 -0.9581 -1.9054  1.2683
  586MOL0     H79110   5.397   9.455   8.058  0.4405 -1.5121  0.9076
  587MOL0     O79111   2.203   5.170   8.899  0.1539  0.2074 -0.9901
  587MOL0     C79112   2.265   5.255   8.961 -0.0221 -0.2739 -0.3910
  587MOL0     O79113   2.222   5.316   9.072 -0.0554 -0.1175  0.4017
  587MOL0     C79114   2.094   5.298   9.109  0.1867  1.1308  0.2044
  587MOL0     C79115   2.000   5.383   9.066  0.5846  0.2917 -0.6465
  587MOL0     C79116   1.862   5.355   9.090 -0.5661  0.3093 -0.1268
  587MOL0     C79117   1.829   5.254   9.185  0.2644  0.6686 -0.0892
  587MOL0     O79118   1.700   5.240   9.223  1.0318  0.4352  0.0745
  587MOL0     C79119   1.627   5.363   9.224  0.1282 -0.0573 -0.4078
  587MOL0     C79120   1.496   5.358   9.304  0.0190 -0.4442  0.0776
  587MOL0     C79121   1.390   5.255   9.255 -0.3731  0.0172 -1.2150
  587MOL0     C79122   1.286   5.317   9.157 -0.2539 -0.3474  0.4176
  587MOL0     C79123   1.166   5.223   9.129 -0.3840  0.3420  0.2643
  587MOL0     C79124   1.034   5.297   9.092 -0.2546  0.0073 -0.5735
  587MOL0     C79125   0.917   5.197   9.081  1.7560 -1.0891  0.3420
  587MOL0     C79126   0.794   5.272   9.032  0.6866  0.1688  0.3723
  587MOL0     N79127   0.672   5.184   9.013 -0.2919  0.0092  0.2793
  587MOL0     C79128   0.633   5.081   9.092 -0.2410  0.0281 -0.8707
  587MOL0     C79129   0.539   5.014   9.022  0.0445 -0.1295  0.1360
  587MOL0     C79130   0.450   4.893   9.064  0.2814  0.7771 -0.0715
  587MOL0     C79131   0.342   4.949   9.162  0.1952  0.1181 -0.5692
  587MOL0     C79132   0.238   5.043   9.093  1.5030  0.1254 -0.2767
  587MOL0     C79133   0.145   5.108   9.196 -0.5432 -0.0472  0.1626
  587MOL0     O79134   0.071   5.002   9.255 -0.6776  0.6689  0.5407
  587MOL0     C79135  -0.061   5.012   9.248  1.3459  0.5263  0.0728
  587MOL0     C79136  -0.121   4.962   9.360  0.3052 -0.0634 -0.6763
  587MOL0     C79137  -0.261   4.938   9.369 -0.1858  0.2415  0.1966
  587MOL0     C79138  -0.325   4.867   9.492 -0.3105  0.3617  0.3816
  587MOL0     C79139  -0.340   4.971   9.255  0.3587 -0.1352 -0.1151
  587MOL0     C79140  -0.486   4.952   9.250 -0.0226  0.6469  0.4177
  587MOL0     O79141  -0.561   4.911   9.358  0.6107 -0.9083  0.1543
  587MOL0     C79142  -0.690   4.884   9.354  0.4053  0.1853  0.0809
  587MOL0     C79143  -0.742   4.860   9.486  0.2425 -0.0026  0.4712
  587MOL0     C79144  -0.882   4.842   9.507  0.2480  0.0991  0.3505
  587MOL0     C79145  -0.971   4.839   9.399 -0.3583  0.2193  0.0662
  587MOL0     O79146  -1.104   4.812   9.423  0.0109 -0.1035  0.7334
  587MOL0     C79147  -1.207   4.870   9.342  0.2637 -0.0827  0.5315
  587MOL0     C79148  -1.184   5.015   9.326  0.0235  0.9739  0.1226
  587MOL0     C79149  -1.283   5.065   9.215  0.7556 -0.2170 -0.9338
  587MOL0     C79150  -1.431   5.046   9.256  0.3377  0.0315  0.3891
  587MOL0     C79151  -1.536   5.103   9.164 -1.3556 -0.1327  0.1262
  587MOL0     C79152  -1.668   5.104   9.228 -0.0427 -0.4199  0.3483
  587MOL0     C79153  -1.772   5.156   9.127  0.4009  0.1741 -0.5653
  587MOL0     C79154  -1.913   5.143   9.173  0.0563  0.5603 -0.4318
  587MOL0    Cl79155  -1.948   4.971   9.223 -0.3525  0.3536  0.0581
  587MOL0     C79156  -0.915   4.854   9.268 -0.5779  0.2113 -0.3734
  587MOL0     C79157  -0.777   4.877   9.251  0.1940 -0.3235 -0.0560
  587MOL0     O79158  -0.534   4.973   9.136 -0.1468 -0.2912 -0.6288
  587MOL0     C79159  -0.276   5.030   9.141 -1.0840  0.1160  0.3248
  587MOL0     C79160  -0.138   5.041   9.142 -0.0511 -0.5121  0.1760
  587MOL0     N79161   0.528   5.087   8.910 -0.5877 -0.4455 -0.0624
  587MOL0     N79162   0.615   5.179   8.894  0.4214  0.2812  0.1882
  587MOL0     C79163   1.936   5.178   9.241 -1.0750  0.1041  0.4698
  587MOL0     C79164   2.063   5.195   9.202 -0.1824  0.0221 -0.2216
  587MOL0     C79165   2.408   5.289   8.927 -0.6131 -0.6523 -0.7504
  587MOL0     C79166   2.480   5.204   8.846 -0.4779  1.2298 -0.4452
  587MOL0     C79167   2.618   5.221   8.812  0.0205  0.3329 -0.5981
  587MOL0     C79168   2.685   5.326   8.859  0.2529  0.0372  0.0740
  587MOL0     O79169   2.815   5.350   8.833 -0.1140 -0.0740 -0.1112
  587MOL0     C79170   2.838   5.423   8.712  0.2197 -0.0745 -0.1693
  587MOL0     C79171   2.981   5.479   8.706 -0.4436 -0.3694 -0.8530
  587MOL0     C79172   2.992   5.606   8.795 -0.3321  0.3974 -0.4988
  587MOL0     C79173   3.093   5.699   8.740  0.6745 -0.2863  0.2668
  587MOL0     C79174   3.218   5.641   8.689  0.2390  0.0723  0.3335
  587MOL0     C79175   3.322   5.593   8.650 -0.0887 -0.3122  0.0241
  587MOL0     C79176   2.621   5.411   8.951  0.0981  0.3056 -0.1605
  587MOL0     C79177   2.480   5.401   8.973  0.7653  0.1167 -0.8486
  587MOL0     H79178   2.028   5.462   8.996 -1.8760  0.6688 -1.2789
  587MOL0     H79179   1.795   5.426   9.044  0.3021  0.2963 -1.4799
  587MOL0     H79180   1.685   5.448   9.261  1.5990 -1.8868  1.7591
  587MOL0     H79181   1.599   5.380   9.119 -0.2137  0.8869 -0.1738
  587MOL0     H79182   1.522   5.331   9.407 -1.9212 -5.0111 -0.3609
  587MOL0     H79183   1.452   5.458   9.314  1.0284  0.0756 -0.5756
  587MOL0     H79184   1.441   5.167   9.214 -0.0730  0.1093 -1.0468
  587MOL0     H79185   1.331   5.207   9.334 -0.5060 -0.8812 -1.8395
  587MOL0     H79186   1.244   5.412   9.191 -1.5584 -0.3266 -1.1297
  587MOL0     H79187   1.348   5.332   9.068  1.1899 -1.8005  1.1079
  587MOL0     H79188   1.183   5.168   9.036 -2.5110 -1.9513  1.0969
  587MOL0     H79189   1.154   5.151   9.211  0.1744  2.7017  2.5536
  587MOL0     H79190   0.995   5.361   9.172 -2.6006 -0.2972 -1.3911
  587MOL0     H79191   1.045   5.354   8.999  0.2709  0.3820 -0.2870
  587MOL0     H79192   0.941   5.129   8.999  1.7138  1.6544 -2.0649
  587MOL0     H79193   0.897   5.143   9.175 -1.4105 -1.0724 -0.2336
  587MOL0     H79194   0.817   5.326   8.940  2.5826  0.8604  1.2169
  587MOL0     H79195   0.776   5.348   9.108  2.2886 -1.6793  2.7260
  587MOL0     H79196   0.663   5.053   9.192  2.3103 -1.6856 -1.9774
  587MOL0     H79197   0.393   4.859   8.977  0.1802  1.6731 -0.3638
  587MOL0     H79198   0.509   4.809   9.101  1.3318  1.6787  0.3610
  587MOL0     H79199   0.392   5.003   9.243 -0.5216  2.4922 -1.6190
  587MOL0     H79200   0.287   4.866   9.207 -1.0434  0.6298 -1.0843
  587MOL0     H79201   0.174   4.993   9.019 -0.5689 -1.6768  2.4908
  587MOL0     H79202   0.291   5.125   9.045  1.6496  0.1491 -0.0748
  587MOL0     H79203   0.081   5.190   9.163  1.1145  1.2398  0.0030
  587MOL0     H79204   0.203   5.160   9.274 -1.7581  1.4581  0.1101
  587MOL0     H79205  -0.058   4.949   9.448  3.4397  0.5326 -2.6628
  587MOL0     H79206  -0.247   4.842   9.565 -0.7174 -3.5715 -0.3080
  587MOL0     H79207  -0.391   4.941   9.539  0.4430  1.5032 -0.2981
  587MOL0     H79208  -0.377   4.774   9.467 -0.2631  0.0000  1.5939
  587MOL0     H79209  -0.681   4.869   9.575  1.4326  1.6736 -0.4507
  587MOL0     H79210  -0.927   4.825   9.604  2.9147 -1.8781  1.3756
  587MOL0     H79211  -1.193   4.825   9.244  1.1529  0.6925  0.2844
  587MOL0     H79212  -1.303   4.852   9.391 -0.1190 -0.7063 -0.4383
  587MOL0     H79213  -1.194   5.069   9.420  0.2060 -0.4634  0.9972
  587MOL0     H79214  -1.088   5.033   9.276  0.0839 -1.4504 -0.7601
  587MOL0     H79215  -1.273   5.021   9.115  1.7213  2.1089 -1.9224
  587MOL0     H79216  -1.274   5.173   9.203 -4.7073  1.0340  2.5134
  587MOL0     H79217  -1.449   4.939   9.253  1.1141 -0.0952  0.0079
  587MOL0     H79218  -1.435   5.075   9.361 -0.8367  0.4649  0.2486
  587MOL0     H79219  -1.522   5.055   9.067  0.5573  1.9912 -0.7547
  587MOL0     H79220  -1.503   5.205   9.141 -1.4271 -0.3916 -1.1616
  587MOL0     H79221  -1.688   5.000   9.257  2.2134 -1.3909 -1.3123
  587MOL0     H79222  -1.667   5.168   9.317  0.1052  0.8400 -0.5444
  587MOL0     H79223  -1.763   5.096   9.036  3.0841  1.0126 -0.9422
  587MOL0     H79224  -1.753   5.262   9.106  2.5566 -0.7206 -3.9958
  587MOL0     H79225  -1.987   5.178   9.101 -0.5036 -0.4631 -0.3789
  587MOL0     H79226  -1.929   5.201   9.265 -0.4247 -0.2022 -0.0250
  587MOL0     H79227  -0.969   4.848   9.174  0.9654 -0.0948 -1.2807
  587MOL0     H79228  -0.747   4.897   9.148 -0.8564  0.8190 -0.1661
  587MOL0     H79229  -0.335   5.058   9.054  0.6257  1.6789 -0.4017
  587MOL0     H79230  -0.092   5.078   9.051 -0.5705  0.7726  0.4020
  587MOL0     H79231   1.915   5.106   9.319 -2.7156  0.1499  0.0905
  587MOL0     H79232   2.144   5.127   9.226 -0.3398 -1.1291 -2.6516
  587MOL0     H79233   2.432   5.113   8.812 -1.1144  0.7151  1.6656
  587MOL0     H79234   2.660   5.140   8.754 -1.7111 -0.5313 -0.6811
  587MOL0     H79235   2.823   5.359   8.624  0.6226  1.2962 -1.2752
  587MOL0     H79236   2.767   5.506   8.702 -0.2338 -0.4671 -0.2314
  587MOL0     H79237   3.012   5.508   8.605  0.5440 -1.2763 -0.8172
  587MOL0     H79238   3.045   5.398   8.740 -1.5706 -2.1610 -2.7944
  587MOL0     H79239   3.028   5.571   8.893  1.4000  0.4696 -1.0920
  587MOL0     H79240   2.897   5.653   8.823  0.7605  1.2310  2.1549
  587MOL0     H79241   3.130   5.768   8.817  2.6792 -0.5712 -0.3734
  587MOL0     H79242   3.046   5.763   8.665 -0.6233  2.7071  3.3363
  587MOL0     H79243   3.409   5.555   8.601  0.3099  0.8870 -0.2283
  587MOL0     H79244   2.672   5.493   8.999  2.5367  0.5662 -2.9098
  587MOL0     H79245   2.430   5.469   9.041  4.6114  0.6130  1.8538
  588MOL0     O79246   2.894   3.945   9.222  0.0201  0.1181 -0.3422
  588MOL0     C79247   2.922   4.062   9.191  0.6441 -0.1780 -0.0777
  588MOL0     O79248   2.830   4.162   9.169  0.0539 -0.0610  0.5639
  588MOL0     C79249   2.699   4.126   9.208  0.5427  0.2735  0.1670
  588MOL0     C79250   2.621   4.019   9.151  0.1762 -0.2442  0.0970
  588MOL0     C79251   2.479   4.008   9.196 -1.0963  0.7841 -0.4755
  588MOL0     C79252   2.426   4.089   9.304  0.2936  0.2352  0.4456
  588MOL0     O79253   2.291   4.073   9.328  0.1998  0.1277 -0.2413
  588MOL0     C79254   2.226   4.196   9.320  0.5365  0.7339  0.2964
  588MOL0     C79255   2.170   4.224   9.463  0.6915 -0.0672  0.3590
  588MOL0     C79256   2.030   4.169   9.491 -0.2432 -0.4704 -0.9052
  588MOL0     C79257   1.927   4.281   9.450  0.0673  0.4362 -0.8819
  588MOL0     C79258   1.779   4.233   9.473  0.0327  0.1273  0.1627
  588MOL0     C79259   1.733   4.142   9.364 -0.1312  0.2136  0.4239
  588MOL0     C79260   1.590   4.105   9.397  0.4307  1.2351 -0.1323
  588MOL0     C79261   1.584   3.986   9.492 -0.3735 -0.4842 -0.1838
  588MOL0     N79262   1.453   3.968   9.552 -0.8097 -0.8884 -0.7990
  588MOL0     C79263   1.342   3.919   9.491  0.7811 -0.4344  0.4124
  588MOL0     C79264   1.255   3.901   9.593 -0.8382  0.1201  0.3166
  588MOL0     C79265   1.112   3.860   9.585 -0.5711 -0.4983 -1.0908
  588MOL0     C79266   1.089   3.719   9.527 -0.4649 -0.9906 -0.2999
  588MOL0     C79267   1.163   3.588   9.584  0.0694  0.0868  0.3611
  588MOL0     C79268   1.315   3.575   9.571 -0.0638  0.8314 -0.0599
  588MOL0     O79269   1.360   3.579   9.427 -0.7465  0.1853 -0.2476
  588MOL0     C79270   1.497   3.571   9.401  1.3762  0.2203  0.7092
  588MOL0     C79271   1.527   3.518   9.274  0.2562  0.9454 -0.2496
  588MOL0     C79272   1.656   3.495   9.224  0.1796  0.2887  0.1643
  588MOL0     C79273   1.685   3.441   9.084 -0.1643 -0.3286  0.3374
  588MOL0     C79274   1.759   3.528   9.314 -0.3555 -0.9250 -0.5521
  588MOL0     C79275   1.908   3.524   9.288 -0.3075 -0.4068  0.0784
  588MOL0     O79276   1.987   3.611   9.366  0.5281 -0.4188 -0.2959
  588MOL0     C79277   2.121   3.580   9.362  1.4500  0.9983 -0.7099
  588MOL0     C79278   2.199   3.667   9.286  0.5510  0.3102  0.3602
  588MOL0     C79279   2.336   3.641   9.264  0.0578  0.2999 -0.1855
  588MOL0     C79280   2.392   3.522   9.315  0.3597  0.9713 -0.1213
  588MOL0     O79281   2.525   3.496   9.299  0.5791  0.3043  0.1663
  588MOL0     C79282   2.612   3.562   9.202  0.3084 -0.9893  0.5242
  588MOL0     C79283   2.748   3.486   9.194  0.1293  0.5957 -0.2670
  588MOL0     C79284   2.820   3.481   9.047  0.4184  0.4472 -0.5378
  588MOL0     C79285   2.879   3.615   9.014 -0.4989  0.5530  0.4897
  588MOL0     C79286   3.012   3.641   9.101  0.7610 -0.2734 -0.6876
  588MOL0     C79287   3.134   3.553   9.072 -0.2262  0.2553  0.7540
  588MOL0     C79288   3.251   3.622   9.115 -0.1433 -0.5261  0.3858
  588MOL0     C79289   3.385   3.551   9.078  0.1992  0.2239  0.2780
  588MOL0    Cl79290   3.412   3.557   8.907  0.1940  0.1137 -0.2672
  588MOL0     C79291   2.318   3.440   9.401 -0.5564  0.4135 -0.2278
  588MOL0     C79292   2.185   3.467   9.420 -0.4959  0.2192  0.8087
  588MOL0     O79293   1.950   3.461   9.194  0.0005 -0.3031  0.1614
  588MOL0     C79294   1.726   3.567   9.447 -0.2078  0.1295  0.3051
  588MOL0     C79295   1.597   3.592   9.491 -0.6676  0.3499  0.4262
  588MOL0     N79296   1.314   3.941   9.709  0.5493  0.7052  0.5251
  588MOL0     N79297   1.434   3.994   9.686  0.5271  0.5065 -0.3042
  588MOL0     C79298   2.510   4.181   9.362  0.3455 -1.5566  0.4805
  588MOL0     C79299   2.636   4.201   9.313 -0.7146  0.1719  0.1275
  588MOL0     C79300   3.063   4.092   9.164  0.2654  0.1494 -0.6024
  588MOL0     C79301   3.095   4.219   9.110  0.0200  0.0863 -0.3761
  588MOL0     C79302   3.232   4.252   9.095  0.9663  0.2242 -0.6069
  588MOL0     C79303   3.333   4.165   9.133  0.1381  0.0604  0.4942
  588MOL0     O79304   3.465   4.186   9.110 -0.4922 -0.6509  0.4656
  588MOL0     C79305   3.504   4.290   9.023  1.0636 -0.7658 -0.2925
  588MOL0     C79306   3.647   4.276   8.964 -0.2008  0.5264  0.1646
  588MOL0     C79307   3.757   4.322   9.056 -0.2510 -0.5951 -0.5496
  588MOL0     C79308   3.897   4.284   8.999  0.7701 -0.5102  0.2312
  588MOL0     C79309   3.939   4.143   8.994 -0.2999  0.4431  0.6849
  588MOL0     C79310   3.977   4.022   8.971  0.2362 -0.2283 -0.4181
  588MOL0     C79311   3.298   4.044   9.187  0.3462 -0.1304 -0.0293
  588MOL0     C79312   3.163   4.003   9.192 -0.1844  1.7171 -0.6884
  588MOL0     H79313   2.661   3.953   9.075 -1.4386  0.5972 -1.5702
  588MOL0     H79314   2.414   3.930   9.157 -0.7312  0.3206 -0.1662
  588MOL0     H79315   2.293   4.276   9.284  1.4346  1.2129  2.8265
  588MOL0     H79316   2.150   4.183   9.242  0.1353  1.9561  0.4540
  588MOL0     H79317   2.243   4.191   9.537  0.9110  0.4005  0.3601
  588MOL0     H79318   2.169   4.334   9.467  1.5887  0.0245 -1.0600
  588MOL0     H79319   2.017   4.078   9.432  1.7896 -1.0691 -0.5428
  588MOL0     H79320   2.032   4.144   9.598 -1.7408 -0.9696 -0.9668
  588MOL0     H79321   1.946   4.368   9.514 -2.6538  1.1377 -0.9354
  588MOL0     H79322   1.935   4.318   9.347 -0.6894 -1.1298 -1.5314
  588MOL0     H79323   1.760   4.207   9.577 -0.1497 -0.0037  0.0972
  588MOL0     H79324   1.724   4.328   9.464 -0.8434 -0.3459  0.4449
  588MOL0     H79325   1.735   4.188   9.265 -0.6544 -0.1555  0.2367
  588MOL0     H79326   1.802   4.057   9.363  0.7214  0.8560  1.7861
  588MOL0     H79327   1.527   4.189   9.429 -0.1870  0.9351 -0.5312
  588MOL0     H79328   1.544   4.069   9.305  0.9078  1.7296 -0.5706
  588MOL0     H79329   1.658   4.001   9.572  0.2949 -1.5446 -0.5834
  588MOL0     H79330   1.621   3.896   9.443 -1.5079 -1.0275 -0.0630
  588MOL0     H79331   1.321   3.904   9.386 -3.7527  3.1253  0.4645
  588MOL0     H79332   1.070   3.859   9.686 -2.4027  0.5380 -1.7895
  588MOL0     H79333   1.067   3.947   9.537  1.1291  0.7997 -0.4300
  588MOL0     H79334   1.103   3.730   9.419  1.1313  2.2282  0.1200
  588MOL0     H79335   0.982   3.697   9.529 -1.3413  1.3206 -5.2590
  588MOL0     H79336   1.111   3.505   9.537  1.4085 -0.1031 -0.8408
  588MOL0     H79337   1.149   3.573   9.692 -0.9685  0.5294  0.2924
  588MOL0     H79338   1.359   3.487   9.617 -2.2241 -0.2608  0.0574
  588MOL0     H79339   1.359   3.666   9.612 -1.0884  0.2484  2.4924
  588MOL0     H79340   1.443   3.486   9.213 -0.4090 -4.4811  2.8313
  588MOL0     H79341   1.750   3.516   9.039 -1.3743  0.6146  0.1117
  588MOL0     H79342   1.727   3.340   9.088 -1.1529 -0.9024 -1.9329
  588MOL0     H79343   1.592   3.436   9.026  0.5199  0.9237 -0.9613
  588MOL0     H79344   2.170   3.765   9.247  2.9060  0.1937 -1.9340
  588MOL0     H79345   2.394   3.718   9.213  0.3235  1.5052  1.8099
  588MOL0     H79346   2.561   3.566   9.105 -1.4074  1.9133  1.4251
  588MOL0     H79347   2.645   3.662   9.233  2.9041 -1.2929 -0.9140
  588MOL0     H79348   2.813   3.535   9.267  0.8152  0.7555 -0.9722
  588MOL0     H79349   2.728   3.385   9.229 -0.7844  0.1525 -1.9814
  588MOL0     H79350   2.739   3.445   8.983 -0.0603 -0.0101  0.3027
  588MOL0     H79351   2.898   3.404   9.045 -0.1812 -0.2623  1.1216
  588MOL0     H79352   2.908   3.616   8.908 -1.3969 -1.4778  0.1530
  588MOL0     H79353   2.798   3.688   9.021 -0.5355  0.4314  1.3272
  588MOL0     H79354   2.996   3.643   9.209  0.0559 -0.1627 -0.7943
  588MOL0     H79355   3.040   3.745   9.080  0.3316  0.1133  0.5690
  588MOL0     H79356   3.108   3.464   9.131 -2.8344  0.5884  0.2466
  588MOL0     H79357   3.150   3.517   8.970  0.0419 -1.4833  1.3753
  588MOL0     H79358   3.244   3.625   9.224  3.4191  0.9116  0.7242
  588MOL0     H79359   3.247   3.727   9.087 -3.0225 -0.3623  1.1619
  588MOL0     H79360   3.390   3.446   9.108 -3.6420  0.0822  0.9575
  588MOL0     H79361   3.470   3.602   9.124  0.8726  0.5869 -1.3082
  588MOL0     H79362   2.362   3.345   9.431 -0.6124  1.0262  1.9544
  588MOL0     H79363   2.129   3.407   9.492 -0.3850  1.2142  1.7612
  588MOL0     H79364   1.803   3.599   9.517  0.5566 -2.6327  0.8198
  588MOL0     H79365   1.594   3.617   9.596  0.9667  0.2045  0.5283
  588MOL0     H79366   2.469   4.238   9.445  0.5414  0.7566 -0.9050
  588MOL0     H79367   2.691   4.288   9.347 -0.0830 -0.8984  2.0271
  588MOL0     H79368   3.022   4.298   9.098  0.1182 -0.2772 -4.4994
  588MOL0     H79369   3.262   4.348   9.055 -3.0510  0.5644 -3.3948
  588MOL0     H79370   3.446   4.288   8.930  2.4730 -1.3227 -1.1889
  588MOL0     H79371   3.502   4.388   9.073  0.5248 -1.3054  0.7824
  588MOL0     H79372   3.652   4.323   8.865 -3.1586 -0.5686 -0.6210
  588MOL0     H79373   3.649   4.167   8.956 -2.2196  0.4226  0.6242
  588MOL0     H79374   3.754   4.280   9.157 -1.5645  3.2527  1.2124
  588MOL0     H79375   3.756   4.431   9.067  1.2981 -0.7773  2.2173
  588MOL0     H79376   3.972   4.344   9.052  0.0029  0.4482  0.2605
  588MOL0     H79377   3.899   4.332   8.900 -2.1314 -2.1145 -0.7159
  588MOL0     H79378   4.014   3.922   8.961 -0.3219 -0.4195 -0.6419
  588MOL0     H79379   3.378   3.980   9.223 -1.9527 -3.1748  0.0832
  588MOL0     H79380   3.137   3.901   9.215  0.3960  2.0822  1.9677
  589MOL0     O79381   2.631   6.947   4.728 -0.6678 -0.9923 -0.5574
  589MOL0     C79382   2.596   6.837   4.781  0.1641 -0.6631 -0.1071
  589MOL0     O79383   2.678   6.732   4.814 -0.9408  0.0436  0.4174
  589MOL0     C79384   2.808   6.751   4.785 -0.4957 -0.2836 -0.4087
  589MOL0     C79385   2.903   6.771   4.887  0.2710  0.1903 -0.2748
  589MOL0     C79386   3.040   6.796   4.857  0.3895  0.0585 -0.1557
  589MOL0     C79387   3.082   6.801   4.719  0.1764  0.3233  0.3861
  589MOL0     O79388   3.206   6.830   4.675 -0.4713  0.4066  0.3942
  589MOL0     C79389   3.309   6.846   4.776 -0.2704 -0.6043 -0.1867
  589MOL0     C79390   3.449   6.856   4.721 -0.5550  0.3589  0.6450
  589MOL0     C79391   3.563   6.852   4.827 -1.3272 -0.2277 -0.2922
  589MOL0     C79392   3.704   6.880   4.767 -0.1567 -0.6640 -0.1155
  589MOL0     C79393   3.767   6.751   4.702 -0.4844 -0.0871  0.6188
  589MOL0     C79394   3.906   6.791   4.656 -0.5355  0.8488  0.8369
  589MOL0     C79395   3.976   6.671   4.592  0.3317  0.0756  0.4507
  589MOL0     C79396   4.120   6.695   4.568 -1.0708  0.7965  0.7688
  589MOL0     N79397   4.206   6.646   4.678 -0.6890  0.4144  0.6506
  589MOL0     C79398   4.278   6.533   4.674 -0.2389  0.2235 -0.3083
  589MOL0     C79399   4.338   6.517   4.795  0.0252 -1.3212 -0.2064
  589MOL0     C79400   4.435   6.405   4.839 -0.2324 -0.4897  0.4774
  589MOL0     C79401   4.393   6.269   4.804 -0.1728 -0.3867  0.2960
  589MOL0     C79402   4.272   6.212   4.871  0.1056  0.8907 -0.1538
  589MOL0     C79403   4.158   6.304   4.915  0.4683 -0.4428  0.3288
  589MOL0     O79404   4.036   6.241   4.947  0.1891  0.1141 -0.1532
  589MOL0     C79405   3.927   6.316   4.994  0.6022 -0.3983  0.0540
  589MOL0     C79406   3.816   6.244   5.050 -0.1731  0.2270  0.0249
  589MOL0     C79407   3.700   6.313   5.092  1.1112 -0.5650 -0.3105
  589MOL0     C79408   3.583   6.226   5.137  1.1447  0.3767  0.3678
  589MOL0     C79409   3.692   6.454   5.093  0.4219 -0.1663 -0.6433
  589MOL0     C79410   3.584   6.535   5.161 -0.4720  0.4167  0.4611
  589MOL0     O79411   3.514   6.471   5.261 -0.0851 -0.2829 -0.3671
  589MOL0     C79412   3.434   6.560   5.342 -0.4694 -0.0885 -0.0920
  589MOL0     C79413   3.303   6.571   5.332  0.7889 -0.0339 -0.6729
  589MOL0     C79414   3.229   6.663   5.411 -0.1038 -0.0207  0.3939
  589MOL0     C79415   3.292   6.747   5.507 -0.3921  1.2508  0.0823
  589MOL0     O79416   3.216   6.827   5.586 -0.2573 -0.0593 -0.1218
  589MOL0     C79417   3.293   6.932   5.650  0.2105 -0.3741  0.1322
  589MOL0     C79418   3.202   7.050   5.669  0.1315 -0.0880  0.2230
  589MOL0     C79419   3.133   7.096   5.542 -0.0849  0.2215  0.0894
  589MOL0     C79420   3.037   7.215   5.569 -0.3910  0.3051  0.3309
  589MOL0     C79421   2.987   7.276   5.448  0.8044 -0.9017 -0.1114
  589MOL0     C79422   2.887   7.382   5.486  0.6836 -0.5858  0.2070
  589MOL0     C79423   2.817   7.433   5.366  0.0665  0.1475 -0.2812
  589MOL0     C79424   2.898   7.500   5.255 -0.1002 -0.1405 -1.0256
  589MOL0    Cl79425   2.796   7.592   5.140 -0.1428 -0.2721  0.2012
  589MOL0     C79426   3.432   6.725   5.518 -0.0236  0.1308 -0.0624
  589MOL0     C79427   3.502   6.644   5.428 -0.4394  0.5558  0.2092
  589MOL0     O79428   3.569   6.644   5.118  0.0010  0.1096 -0.1936
  589MOL0     C79429   3.802   6.522   5.045 -0.8374 -0.1599  0.8832
  589MOL0     C79430   3.917   6.454   4.989  0.4532 -0.1371  0.2330
  589MOL0     N79431   4.292   6.622   4.876  0.1345 -0.2221  0.0276
  589MOL0     N79432   4.222   6.701   4.799  0.6325  1.0971 -0.0512
  589MOL0     C79433   2.991   6.755   4.626 -0.0971 -0.0843  0.6291
  589MOL0     C79434   2.860   6.732   4.655  0.1428  1.0295  0.1265
  589MOL0     C79435   2.458   6.821   4.793  0.1903  0.7569 -0.1100
  589MOL0     C79436   2.356   6.888   4.717 -0.1307 -0.1377  0.6020
  589MOL0     C79437   2.226   6.851   4.726  0.7410 -0.6884 -0.3486
  589MOL0     C79438   2.182   6.751   4.812 -0.3855  0.0029  0.7536
  589MOL0     O79439   2.057   6.705   4.825  0.6458  0.0559 -0.8440
  589MOL0     C79440   1.968   6.730   4.722 -0.1749 -0.3464 -0.1192
  589MOL0     C79441   1.865   6.841   4.765 -0.5907  0.2949  1.0309
  589MOL0     C79442   1.743   6.837   4.667 -0.9170  0.2269 -0.4962
  589MOL0     C79443   1.641   6.947   4.711 -0.1359  0.1345 -0.7369
  589MOL0     C79444   1.543   6.913   4.815 -0.7478  0.2216 -0.1181
  589MOL0     C79445   1.468   6.888   4.911  0.0389 -0.4514  0.8376
  589MOL0     C79446   2.274   6.693   4.896  0.1800 -0.8925 -0.2851
  589MOL0     C79447   2.411   6.723   4.878 -0.1928  0.2568  0.1715
  589MOL0     H79448   2.854   6.776   4.984 -1.8726 -1.3359 -1.2089
  589MOL0     H79449   3.113   6.814   4.935 -0.3813  0.4816  0.4755
  589MOL0     H79450   3.288   6.930   4.842  0.5511 -1.0432  0.6473
  589MOL0     H79451   3.313   6.753   4.834 -0.6698 -0.9047 -0.6247
  589MOL0     H79452   3.458   6.781   4.641 -0.1273  0.1342  0.9017
  589MOL0     H79453   3.465   6.951   4.668  0.5620  0.6799  1.5268
  589MOL0     H79454   3.536   6.934   4.893  0.0540  0.6781 -0.8057
  589MOL0     H79455   3.571   6.759   4.885 -0.7243  2.0049  3.5072
  589MOL0     H79456   3.704   6.956   4.689  2.1571  0.9651  1.3241
  589MOL0     H79457   3.775   6.921   4.840 -1.1259  3.5375 -1.2875
  589MOL0     H79458   3.771   6.670   4.775  0.9475 -1.5065 -0.9322
  589MOL0     H79459   3.701   6.723   4.619  0.1956  2.0811 -0.7400
  589MOL0     H79460   3.911   6.873   4.584  1.8335 -0.7200 -0.9391
  589MOL0     H79461   3.964   6.818   4.745 -0.0281  0.7470  0.5369
  589MOL0     H79462   3.954   6.583   4.652 -1.5860  0.2309  0.0477
  589MOL0     H79463   3.937   6.663   4.489  0.0671 -0.4252  0.5861
  589MOL0     H79464   4.143   6.800   4.545 -2.5697  0.7652 -1.0873
  589MOL0     H79465   4.154   6.642   4.478  1.5551  3.8968 -0.2564
  589MOL0     H79466   4.294   6.466   4.590  0.9006  1.5152 -1.1822
  589MOL0     H79467   4.535   6.414   4.795 -0.7875  0.5449 -0.6507
  589MOL0     H79468   4.443   6.412   4.948  0.2539 -0.2510  0.4320
  589MOL0     H79469   4.472   6.199   4.832 -0.9303 -1.3485  0.1227
  589MOL0     H79470   4.369   6.262   4.697 -0.7283 -0.8915  0.4436
  589MOL0     H79471   4.300   6.166   4.967 -0.1801  0.1044 -0.4464
  589MOL0     H79472   4.218   6.134   4.817 -2.7011  1.8556  1.0346
  589MOL0     H79473   4.134   6.370   4.831  0.1440  0.4746  1.1339
  589MOL0     H79474   4.190   6.368   4.997  0.7230 -1.0431  0.7059
  589MOL0     H79475   3.811   6.136   5.047 -0.0350  0.2291 -2.7003
  589MOL0     H79476   3.498   6.270   5.084  1.8042  0.2209 -0.8467
  589MOL0     H79477   3.587   6.119   5.118 -2.1994  0.2326 -0.0495
  589MOL0     H79478   3.567   6.244   5.244 -0.1031 -0.3833  0.3278
  589MOL0     H79479   3.241   6.524   5.256  1.1026 -0.0179 -0.9401
  589MOL0     H79480   3.123   6.674   5.393 -0.0810 -1.9510 -1.4018
  589MOL0     H79481   3.323   6.905   5.752 -1.1801 -0.1677  0.6292
  589MOL0     H79482   3.378   6.963   5.590  0.1767  1.1219  0.8186
  589MOL0     H79483   3.121   7.026   5.738 -1.3356  1.5373 -0.8396
  589MOL0     H79484   3.257   7.129   5.720  0.8964  0.5403 -1.5045
  589MOL0     H79485   3.086   7.010   5.494  2.3002 -0.7095 -0.7632
  589MOL0     H79486   3.211   7.144   5.481  0.2105  0.7946  0.9032
  589MOL0     H79487   2.957   7.174   5.631 -1.2699  1.4403 -0.0249
  589MOL0     H79488   3.088   7.287   5.634 -0.9598  0.2141  0.8895
  589MOL0     H79489   2.944   7.200   5.383  1.3409 -1.6471  0.3878
  589MOL0     H79490   3.067   7.331   5.399 -0.0814  1.6889  1.1820
  589MOL0     H79491   2.807   7.343   5.549  0.5660 -0.9510 -0.1658
  589MOL0     H79492   2.937   7.470   5.528  0.0113  0.9806 -2.0616
  589MOL0     H79493   2.736   7.497   5.402 -2.2420 -1.6980 -1.8707
  589MOL0     H79494   2.760   7.351   5.322 -2.0074 -0.3812  2.9798
  589MOL0     H79495   2.945   7.419   5.199  1.0099  0.7254 -1.3889
  589MOL0     H79496   2.979   7.560   5.298 -1.2015  1.1816 -0.7180
  589MOL0     H79497   3.491   6.779   5.591 -0.6582  0.3892  0.2583
  589MOL0     H79498   3.610   6.649   5.442 -0.5660  0.1897  1.4723
  589MOL0     H79499   3.784   6.629   5.035 -2.3187 -0.5017 -0.3746
  589MOL0     H79500   4.004   6.516   4.966  1.0316 -1.8380 -2.6391
  589MOL0     H79501   3.011   6.761   4.519  2.0432 -0.2842  0.9841
  589MOL0     H79502   2.799   6.704   4.570  1.0993  0.6119 -0.4344
  589MOL0     H79503   2.373   6.971   4.650  0.2304 -0.3756  0.4012
  589MOL0     H79504   2.158   6.918   4.675  1.6126 -0.2469 -0.9647
  589MOL0     H79505   2.006   6.763   4.624 -1.0947  0.5638 -0.1808
  589MOL0     H79506   1.907   6.641   4.704  0.4363 -1.2981  2.1803
  589MOL0     H79507   1.914   6.939   4.765  0.9306 -0.4293  2.6527
  589MOL0     H79508   1.828   6.803   4.861  1.8461 -2.1611  1.1090
  589MOL0     H79509   1.706   6.735   4.676 -0.7635  0.3112  1.4543
  589MOL0     H79510   1.783   6.845   4.565 -2.8748 -2.0441 -1.5417
  589MOL0     H79511   1.581   6.985   4.627 -0.3816  0.8330 -0.2609
  589MOL0     H79512   1.696   7.035   4.745 -0.1090 -0.0677 -0.2472
  589MOL0     H79513   1.390   6.868   4.981  0.1313 -0.3052  0.9832
  589MOL0     H79514   2.243   6.616   4.966 -1.1531  0.1321  0.3011
  589MOL0     H79515   2.484   6.665   4.933  1.5654  2.6223  0.5163
  590MOL0     O79516  10.351  10.932   9.460  0.2556  0.9814 -0.4962
  590MOL0     C79517  10.382  10.971   9.349 -0.4708 -0.1567  0.3956
  590MOL0     O79518  10.292  11.014   9.252  0.1268  0.1955  0.3702
  590MOL0     C79519  10.162  11.032   9.294  0.2204 -0.6246 -0.0531
  590MOL0     C79520  10.098  11.151   9.297 -0.0876 -0.9240 -0.1910
  590MOL0     C79521   9.976  11.163   9.364 -0.1181  0.5745 -0.0876
  590MOL0     C79522   9.907  11.053   9.416 -0.3897  0.0382 -0.5414
  590MOL0     O79523   9.797  11.072   9.491  0.0788 -0.0005  0.5622
  590MOL0     C79524   9.678  11.013   9.445 -0.6739  0.2203  0.5094
  590MOL0     C79525   9.558  11.028   9.539  0.2276  0.3469  0.6758
  590MOL0     C79526   9.504  11.169   9.562  0.4682 -0.4555 -1.1215
  590MOL0     C79527   9.360  11.175   9.614  0.0426  0.6512 -0.2158
  590MOL0     C79528   9.326  11.318   9.642 -0.3643  0.5993 -0.5822
  590MOL0     C79529   9.185  11.337   9.704 -0.4574  0.4776 -0.5137
  590MOL0     C79530   9.178  11.303   9.855 -0.2520  0.5637 -0.5997
  590MOL0     C79531   9.038  11.333   9.910  0.0739 -0.2035 -0.0563
  590MOL0     N79532   8.944  11.232   9.862  0.3137 -0.6584  0.5031
  590MOL0     C79533   8.831  11.271   9.783 -0.5764 -0.1607  0.1273
  590MOL0     C79534   8.785  11.167   9.718 -0.0436  0.6699  0.7748
  590MOL0     C79535   8.677  11.166   9.611 -0.2421  0.6831 -0.3544
  590MOL0     C79536   8.599  11.035   9.621  0.3058 -0.1431  0.3105
  590MOL0     C79537   8.486  11.015   9.529  0.6186  0.0283  0.6602
  590MOL0     C79538   8.389  10.891   9.556  0.3599  0.7090  0.3746
  590MOL0     O79539   8.262  10.900   9.491 -0.2072  0.0317 -0.4904
  590MOL0     C79540   8.140  10.872   9.562 -0.5098 -0.6864  0.0064
  590MOL0     C79541   8.141  10.782   9.676 -0.5376  0.4984  0.2995
  590MOL0     C79542   8.019  10.743   9.724 -0.3668  0.2017 -0.5860
  590MOL0     C79543   8.017  10.625   9.823 -0.6975 -1.0150  0.7650
  590MOL0     C79544   7.894  10.798   9.679 -1.1205  0.3501  0.0676
  590MOL0     C79545   7.762  10.762   9.732 -0.4284 -0.5282  0.3710
  590MOL0     O79546   7.657  10.817   9.668 -0.2950  0.1826  0.3866
  590MOL0     C79547   7.531  10.800   9.724 -0.4008 -0.2392  1.1543
  590MOL0     C79548   7.460  10.901   9.783 -0.0717 -0.1876  0.4330
  590MOL0     C79549   7.328  10.866   9.823  0.1792  0.0807  0.6486
  590MOL0     C79550   7.263  10.739   9.815  0.1985 -0.8441  0.3640
  590MOL0     O79551   7.138  10.722   9.866 -0.3069  0.0755  0.1532
  590MOL0     C79552   7.041  10.824   9.823  0.0225 -0.0664  0.1362
  590MOL0     C79553   6.975  10.889   9.942  0.1689 -0.0857  0.1596
  590MOL0     C79554   6.888  10.794  10.020 -1.3420  0.2914  0.0250
  590MOL0     C79555   6.763  10.735   9.963  0.4228  0.6883 -0.0447
  590MOL0     C79556   6.689  10.630  10.049  0.5075  0.6744  0.2261
  590MOL0     C79557   6.697  10.660  10.199 -0.1371 -0.0748  1.2041
  590MOL0     C79558   6.600  10.579  10.290  0.0004  0.6132  0.3096
  590MOL0     C79559   6.669  10.454  10.337 -0.3541  0.3932 -0.9630
  590MOL0    Cl79560   6.675  10.323  10.217 -0.3800  0.2347  0.1763
  590MOL0     C79561   7.343  10.639   9.756 -0.4924 -0.2088 -0.1632
  590MOL0     C79562   7.469  10.673   9.710 -0.3128  0.1569 -0.8218
  590MOL0     O79563   7.750  10.690   9.837 -0.2196 -0.2605  0.3443
  590MOL0     C79564   7.904  10.898   9.582 -0.0889 -0.0606 -1.0063
  590MOL0     C79565   8.022  10.926   9.516  0.5106  0.1693  0.0106
  590MOL0     N79566   8.869  11.058   9.757  0.1978 -0.1170 -0.1276
  590MOL0     N79567   8.962  11.101   9.836 -0.2522 -0.2342  0.1162
  590MOL0     C79568   9.970  10.918   9.402  0.2515 -0.1627 -0.3669
  590MOL0     C79569  10.099  10.917   9.335  0.9452 -0.4450  0.0826
  590MOL0     C79570  10.522  10.970   9.318 -0.3133  0.2738 -0.3501
  590MOL0     C79571  10.569  11.003   9.189  0.1257  0.4042 -0.7184
  590MOL0     C79572  10.706  11.009   9.161  0.6131 -0.2881 -0.3568
  590MOL0     C79573  10.800  10.987   9.252  0.0151 -0.4072 -0.6758
  590MOL0     O79574  10.922  11.005   9.200 -0.0287  0.1700 -0.4238
  590MOL0     C79575  11.037  10.980   9.282  0.4606 -0.6359 -0.3501
  590MOL0     C79576  11.166  11.035   9.238 -0.1309 -1.0893  0.3560
  590MOL0     C79577  11.221  10.949   9.130  1.1592 -0.7530 -0.3808
  590MOL0     C79578  11.354  11.000   9.077  0.1142 -0.1920 -0.1068
  590MOL0     C79579  11.468  10.973   9.165  0.6575 -0.3609 -0.6072
  590MOL0     C79580  11.557  10.938   9.245  0.9252  0.6186  0.3741
  590MOL0     C79581  10.760  10.949   9.385 -0.5803  0.1336 -1.0754
  590MOL0     C79582  10.626  10.935   9.416  0.2938 -0.0499  0.3103
  590MOL0     H79583  10.152  11.241   9.269 -0.8561  0.1656  1.6217
  590MOL0     H79584   9.914  11.252   9.361  0.8323  1.2595 -3.2510
  590MOL0     H79585   9.658  11.051   9.345  1.3814 -2.8675 -1.2358
  590MOL0     H79586   9.695  10.907   9.422 -0.8082  0.6199 -1.5968
  590MOL0     H79587   9.481  10.961   9.500  0.8881 -1.0018  1.6176
  590MOL0     H79588   9.586  10.985   9.636  1.1092 -1.5626 -0.3752
  590MOL0     H79589   9.563  11.211   9.645  2.3812  4.1041 -4.3929
  590MOL0     H79590   9.511  11.233   9.474 -0.4180  1.0887 -0.1189
  590MOL0     H79591   9.288  11.138   9.541 -1.7683  0.7417  1.4273
  590MOL0     H79592   9.349  11.112   9.702 -1.3497 -1.6855 -1.9467
  590MOL0     H79593   9.403  11.375   9.695 -0.5079 -0.1511  0.4731
  590MOL0     H79594   9.326  11.378   9.550  1.4596  1.1754 -0.2395
  590MOL0     H79595   9.157  11.442   9.694 -1.7741  0.2702  0.6979
  590MOL0     H79596   9.116  11.272   9.648  0.5370  0.0346 -1.2530
  590MOL0     H79597   9.206  11.201   9.881 -2.8014 -0.5665 -1.8945
  590MOL0     H79598   9.249  11.364   9.911 -0.8149 -0.7094  1.6256
  590MOL0     H79599   9.015  11.432   9.869  0.7443 -0.5844 -1.4042
  590MOL0     H79600   9.042  11.349  10.018 -0.0746  0.9095 -0.2113
  590MOL0     H79601   8.789  11.370   9.767 -0.2203  0.4574  2.6614
  590MOL0     H79602   8.616  11.256   9.622 -0.4611  0.7122 -1.6631
  590MOL0     H79603   8.729  11.176   9.515  0.5989  2.1380  0.2018
  590MOL0     H79604   8.549  11.036   9.718  0.7424  2.7167  0.5875
  590MOL0     H79605   8.674  10.955   9.614  0.0607 -0.3319 -0.1588
  590MOL0     H79606   8.534  11.015   9.431 -2.6679 -1.0210 -1.1117
  590MOL0     H79607   8.422  11.104   9.537  0.7445  0.1478  0.3575
  590MOL0     H79608   8.380  10.868   9.662  0.1710  0.4724  0.3080
  590MOL0     H79609   8.440  10.808   9.505 -3.6686 -2.9703  1.7071
  590MOL0     H79610   8.230  10.733   9.714 -0.4565 -1.4713 -2.2063
  590MOL0     H79611   8.120  10.591   9.839 -0.0005  0.9809  0.7517
  590MOL0     H79612   7.965  10.655   9.915 -2.2718  2.7710 -1.1532
  590MOL0     H79613   7.957  10.546   9.776  0.3261 -2.0581  1.1648
  590MOL0     H79614   7.487  11.006   9.795 -1.4468 -0.0877  3.4081
  590MOL0     H79615   7.268  10.951   9.856 -0.2046 -0.0482  0.2863
  590MOL0     H79616   7.089  10.902   9.763  1.7835 -1.9315 -1.0240
  590MOL0     H79617   6.956  10.784   9.766  1.3338  1.1449 -2.9025
  590MOL0     H79618   7.047  10.933  10.011  0.2308 -0.8773  0.6137
  590MOL0     H79619   6.902  10.968   9.918  0.1458 -0.4827 -1.1276
  590MOL0     H79620   6.861  10.840  10.116  1.4216  1.0716  0.5098
  590MOL0     H79621   6.937  10.705  10.060 -1.6370 -0.8624 -2.0521
  590MOL0     H79622   6.704  10.826   9.954 -0.5832  0.5157  3.3536
  590MOL0     H79623   6.783  10.676   9.873  0.7025 -3.8202  2.6388
  590MOL0     H79624   6.738  10.534  10.033 -0.6384 -0.3249  2.3632
  590MOL0     H79625   6.588  10.620  10.010 -0.5468  3.8845  1.7598
  590MOL0     H79626   6.796  10.643  10.242 -0.0256  0.3493  1.1150
  590MOL0     H79627   6.671  10.765  10.215  2.6790  0.5858  1.9959
  590MOL0     H79628   6.503  10.554  10.246  1.0244 -2.5385 -0.4469
  590MOL0     H79629   6.580  10.635  10.382  1.8094  0.6240  0.7314
  590MOL0     H79630   6.616  10.409  10.421  1.8252 -2.0073 -0.7535
  590MOL0     H79631   6.770  10.474  10.375 -1.7022  2.8372  1.7274
  590MOL0     H79632   7.295  10.545   9.733 -1.0115  0.3217 -1.3232
  590MOL0     H79633   7.533  10.599   9.662 -0.9634 -0.3823 -0.8639
  590MOL0     H79634   7.816  10.953   9.551  0.7523  1.0215 -1.5292
  590MOL0     H79635   8.021  10.985   9.425 -1.2490  0.7812  0.3824
  590MOL0     H79636   9.929  10.837   9.460 -0.5575  1.5588  1.5707
  590MOL0     H79637  10.145  10.818   9.331 -0.7454 -1.2619 -3.6214
  590MOL0     H79638  10.498  11.010   9.107  0.1425 -2.7858 -1.1471
  590MOL0     H79639  10.727  11.031   9.057  0.1332  1.3139 -0.1416
  590MOL0     H79640  11.025  11.033   9.377 -1.7983 -2.6337  0.5932
  590MOL0     H79641  11.045  10.874   9.307 -1.5487 -0.0998  3.2408
  590MOL0     H79642  11.241  11.039   9.318  1.8877 -0.4133 -1.4775
  590MOL0     H79643  11.153  11.139   9.208  1.1125 -1.1454 -0.4490
  590MOL0     H79644  11.143  10.937   9.054 -3.0709  0.5931  3.3174
  590MOL0     H79645  11.238  10.851   9.174 -1.3590 -0.7834  0.7340
  590MOL0     H79646  11.337  11.106   9.053  0.1555  0.5732  2.8564
  590MOL0     H79647  11.369  10.950   8.981 -1.5532 -1.8677  0.4535
  590MOL0     H79648  11.651  10.940   9.297  2.5690 -0.3587 -2.3927
  590MOL0     H79649  10.832  10.920   9.460 -2.5560 -0.8089  0.5397
  590MOL0     H79650  10.605  10.895   9.514 -2.1786 -0.1086 -0.1690
  591MOL0     O79651   6.849   2.603   7.242 -0.2075  0.5536 -0.4915
  591MOL0     C79652   6.913   2.696   7.294 -0.3399 -0.4121  0.3366
  591MOL0     O79653   6.877   2.824   7.290 -0.5299  0.6720  0.6367
  591MOL0     C79654   6.742   2.843   7.267 -0.4073  0.4677  0.1442
  591MOL0     C79655   6.705   2.918   7.163  0.4652 -0.5917  0.5297
  591MOL0     C79656   6.576   2.959   7.139 -0.1390  0.1749 -0.3773
  591MOL0     C79657   6.479   2.931   7.234  0.3838 -0.6541 -0.1781
  591MOL0     O79658   6.349   2.961   7.217  0.6405 -0.2725 -0.0388
  591MOL0     C79659   6.301   3.005   7.090 -0.1683 -0.7788 -1.1912
  591MOL0     C79660   6.161   3.051   7.100 -0.6594  0.5394  0.0655
  591MOL0     C79661   6.113   3.101   6.958 -0.0280  0.3035 -0.4638
  591MOL0     C79662   5.970   3.159   6.944  0.2073  0.3106  0.2265
  591MOL0     C79663   5.865   3.050   6.957 -0.1464  0.8140 -0.9318
  591MOL0     C79664   5.730   3.109   6.984 -0.6534 -0.7280 -0.5814
  591MOL0     C79665   5.617   3.010   6.976 -0.0149 -0.5060 -0.0096
  591MOL0     C79666   5.476   3.066   6.928  0.5355  0.4193 -0.0513
  591MOL0     N79667   5.376   2.959   6.908 -0.1408  0.4746  0.1941
  591MOL0     C79668   5.322   2.929   6.784 -0.1196  0.4307  0.4651
  591MOL0     C79669   5.218   2.848   6.813  0.1380  0.5660  0.1383
  591MOL0     C79670   5.123   2.770   6.720  0.2313 -0.2548 -0.2823
  591MOL0     C79671   5.012   2.692   6.788  0.2401  0.2219  1.2985
  591MOL0     C79672   4.966   2.578   6.690 -0.5823 -0.4996  0.0665
  591MOL0     C79673   4.818   2.526   6.710 -1.3806  0.2800 -0.0671
  591MOL0     O79674   4.807   2.464   6.842  0.1765 -0.9993 -0.2443
  591MOL0     C79675   4.681   2.478   6.909 -0.0702 -0.3949  0.9446
  591MOL0     C79676   4.677   2.453   7.044 -0.3767  0.0898 -0.1061
  591MOL0     C79677   4.565   2.471   7.120 -0.0289 -1.1072  0.2665
  591MOL0     C79678   4.593   2.482   7.268  0.1734 -0.5951  0.5573
  591MOL0     C79679   4.442   2.505   7.054  0.2262 -0.2538 -0.1915
  591MOL0     C79680   4.308   2.529   7.117 -0.9611 -0.6089 -0.3997
  591MOL0     O79681   4.211   2.556   7.031  0.2258 -0.5264 -0.3115
  591MOL0     C79682   4.093   2.597   7.086  0.0707  0.3658  0.6289
  591MOL0     C79683   4.044   2.724   7.081 -0.9024  0.7813  0.7406
  591MOL0     C79684   3.916   2.755   7.131  0.1192 -0.0929 -0.3390
  591MOL0     C79685   3.835   2.650   7.175 -0.1708  0.2038  0.3406
  591MOL0     O79686   3.707   2.661   7.218  0.2764  0.2940  0.1251
  591MOL0     C79687   3.628   2.783   7.194 -0.2587 -0.6567 -0.7269
  591MOL0     C79688   3.490   2.777   7.256 -0.3570 -0.1237 -0.4214
  591MOL0     C79689   3.406   2.668   7.207 -0.4597  0.7746 -0.3990
  591MOL0     C79690   3.381   2.683   7.053 -0.5347 -0.0354 -1.1310
  591MOL0     C79691   3.253   2.622   7.008 -0.1301  0.1071 -0.5754
  591MOL0     C79692   3.204   2.653   6.867 -0.6266  0.1326 -1.2849
  591MOL0     C79693   3.071   2.596   6.834 -0.1102  0.3829  0.0737
  591MOL0     C79694   3.020   2.648   6.693  0.7163 -0.3446  0.9841
  591MOL0    Cl79695   3.138   2.608   6.551  0.2518 -0.5818 -0.1694
  591MOL0     C79696   3.883   2.520   7.175 -0.3681 -0.5139 -0.7337
  591MOL0     C79697   4.014   2.492   7.136 -0.1091 -0.3015  0.1432
  591MOL0     O79698   4.294   2.505   7.234  0.1166  0.6355 -0.6783
  591MOL0     C79699   4.444   2.520   6.913  0.1054  0.0172  0.0949
  591MOL0     C79700   4.563   2.512   6.845  0.0680 -0.3781  1.1715
  591MOL0     N79701   5.210   2.830   6.953  1.0964  0.7845  0.1547
  591MOL0     N79702   5.298   2.903   7.009 -0.3332  0.7307 -0.1033
  591MOL0     C79703   6.515   2.858   7.342 -0.7609  0.3404  0.5011
  591MOL0     C79704   6.645   2.799   7.353 -0.2881  0.2909  0.3852
  591MOL0     C79705   7.050   2.676   7.354 -0.2424 -0.7168  0.3952
  591MOL0     C79706   7.106   2.547   7.346  0.1373  0.5073  0.8907
  591MOL0     C79707   7.232   2.532   7.401  0.1076  1.0582  1.0426
  591MOL0     C79708   7.306   2.642   7.450  0.7375  0.4518 -0.2603
  591MOL0     O79709   7.441   2.630   7.485 -0.1296  0.3734  0.3405
  591MOL0     C79710   7.466   2.504   7.555 -0.0173  0.3895  0.0972
  591MOL0     C79711   7.572   2.517   7.657 -0.6111 -0.5779  1.1478
  591MOL0     C79712   7.704   2.560   7.588  0.2554 -1.0523 -0.5253
  591MOL0     C79713   7.828   2.557   7.684  0.0940 -0.5879 -0.5827
  591MOL0     C79714   7.944   2.638   7.642 -0.0821  0.0795  0.6760
  591MOL0     C79715   8.035   2.695   7.585 -0.3458  0.3508 -0.2132
  591MOL0     C79716   7.246   2.764   7.475 -0.0905  0.2347 -0.0519
  591MOL0     C79717   7.115   2.779   7.426  0.0355 -1.0006  0.6768
  591MOL0     H79718   6.779   2.963   7.096  2.2184  0.3227  2.9354
  591MOL0     H79719   6.544   3.012   7.050 -2.8059 -0.0932  0.3379
  591MOL0     H79720   6.370   3.081   7.053  0.4919  0.6720  2.5679
  591MOL0     H79721   6.284   2.931   7.011 -3.0944 -2.1563  0.5474
  591MOL0     H79722   6.094   2.972   7.135 -0.8502  1.0764  0.9429
  591MOL0     H79723   6.159   3.138   7.167  1.8378  0.2904  0.5842
  591MOL0     H79724   6.189   3.174   6.928 -0.8674  0.1806 -3.0960
  591MOL0     H79725   6.122   3.016   6.890  1.5879 -0.4108  0.5614
  591MOL0     H79726   5.953   3.235   7.021 -0.9912 -1.0222  1.3148
  591MOL0     H79727   5.974   3.204   6.844  2.1086 -2.7289 -1.2009
  591MOL0     H79728   5.855   2.985   6.869 -0.7817  0.3474 -0.5216
  591MOL0     H79729   5.881   2.994   7.050 -4.8645  1.4470  0.4935
  591MOL0     H79730   5.739   3.150   7.085  3.4921 -0.9457 -0.6813
  591MOL0     H79731   5.713   3.194   6.917  1.1320 -0.0918 -0.2642
  591MOL0     H79732   5.636   2.932   6.901 -1.9223 -2.4480  1.3673
  591MOL0     H79733   5.594   2.968   7.074  1.9332  1.1679  1.2314
  591MOL0     H79734   5.494   3.123   6.836 -0.9820  1.9590  0.5473
  591MOL0     H79735   5.438   3.134   7.005 -1.3170 -1.0046  0.3764
  591MOL0     H79736   5.347   2.962   6.684 -2.6336  1.0354 -0.0485
  591MOL0     H79737   5.077   2.843   6.653  1.6078  0.2020 -0.7468
  591MOL0     H79738   5.182   2.711   6.649  1.6974  0.1266  0.5750
  591MOL0     H79739   4.922   2.754   6.782 -0.2294 -0.5472 -0.8349
  591MOL0     H79740   5.042   2.657   6.887  0.6215  0.3855  1.2406
  591MOL0     H79741   5.034   2.494   6.706  1.5419  1.5453  2.7257
  591MOL0     H79742   4.977   2.611   6.586  0.7632 -1.4519 -0.1175
  591MOL0     H79743   4.793   2.455   6.631  1.2948  1.4644 -2.1314
  591MOL0     H79744   4.759   2.617   6.709  1.7571  2.4814  0.3521
  591MOL0     H79745   4.766   2.413   7.092 -0.3392 -1.5860 -1.4430
  591MOL0     H79746   4.565   2.574   7.320  2.0628  0.3229  0.0174
  591MOL0     H79747   4.538   2.397   7.309 -0.5496 -0.5352 -0.2566
  591MOL0     H79748   4.698   2.463   7.293  0.5457 -0.6547 -0.9189
  591MOL0     H79749   4.111   2.801   7.042 -0.5327  0.8409  1.4874
  591MOL0     H79750   3.892   2.860   7.121  2.4949  0.5046 -0.4613
  591MOL0     H79751   3.677   2.867   7.243 -1.3218 -1.4120  1.8172
  591MOL0     H79752   3.620   2.801   7.087  0.3901  4.1005 -0.1849
  591MOL0     H79753   3.498   2.769   7.365 -0.1846  2.7100 -0.1526
  591MOL0     H79754   3.444   2.873   7.230  1.9781  1.1581 -0.0560
  591MOL0     H79755   3.313   2.662   7.265 -0.2920  0.6485 -0.1405
  591MOL0     H79756   3.451   2.569   7.216  0.1311  1.0760  0.0446
  591MOL0     H79757   3.374   2.787   7.021 -1.2740  0.6862  1.1824
  591MOL0     H79758   3.474   2.643   7.013 -0.5283 -3.2646  1.6675
  591MOL0     H79759   3.177   2.661   7.077  1.6234 -0.5997  1.8893
  591MOL0     H79760   3.258   2.514   7.028  0.3807  0.0999 -0.7233
  591MOL0     H79761   3.198   2.762   6.862  0.6240  0.3277  0.4755
  591MOL0     H79762   3.271   2.619   6.787 -0.7297 -2.9794 -0.1752
  591MOL0     H79763   2.997   2.622   6.910  0.3269 -1.1415  1.0668
  591MOL0     H79764   3.073   2.487   6.827  0.4161  0.4023 -0.1783
  591MOL0     H79765   3.016   2.757   6.691  0.2607 -0.3692 -0.0826
  591MOL0     H79766   2.919   2.617   6.665  0.6709  3.7516 -5.4579
  591MOL0     H79767   3.822   2.431   7.191 -0.9927  0.3247  1.9880
  591MOL0     H79768   4.031   2.386   7.119 -1.2814 -0.9687  2.5895
  591MOL0     H79769   4.361   2.535   6.845 -0.3502  2.9341  1.1446
  591MOL0     H79770   4.571   2.513   6.737  3.6663 -2.8831  1.2256
  591MOL0     H79771   6.442   2.830   7.417  1.1991  1.3055  2.9354
  591MOL0     H79772   6.661   2.738   7.441 -1.4686 -2.5140 -1.2266
  591MOL0     H79773   7.050   2.464   7.304 -0.3137  1.5453 -0.6811
  591MOL0     H79774   7.279   2.435   7.392 -0.3733  0.7948  1.3515
  591MOL0     H79775   7.377   2.479   7.612 -0.7535  1.4083 -0.5703
  591MOL0     H79776   7.492   2.425   7.485 -0.0743  1.6034 -1.3407
  591MOL0     H79777   7.589   2.425   7.713 -2.0387 -0.9907  0.9456
  591MOL0     H79778   7.542   2.601   7.720 -0.6178  2.0458 -2.0584
  591MOL0     H79779   7.692   2.658   7.541 -1.5509  0.8551  3.4160
  591MOL0     H79780   7.732   2.494   7.505  0.5997 -1.1934 -0.2992
  591MOL0     H79781   7.860   2.453   7.696 -0.9819 -0.8016  0.6779
  591MOL0     H79782   7.800   2.601   7.780  1.1324  0.1189 -0.5781
  591MOL0     H79783   8.129   2.733   7.551 -0.0113 -1.4006 -1.4058
  591MOL0     H79784   7.310   2.843   7.513 -0.2554  0.0567  0.5962
  591MOL0     H79785   7.073   2.879   7.435 -0.7121 -1.1426 -0.9343
  592MOL0     O79786   4.450   5.495   2.786 -0.1528 -0.2934  0.5843
  592MOL0     C79787   4.517   5.579   2.849  0.3455  0.6276 -0.7424
  592MOL0     O79788   4.513   5.714   2.829 -0.0575 -0.6361  0.2105
  592MOL0     C79789   4.417   5.762   2.750  0.4208 -0.6942  0.2042
  592MOL0     C79790   4.449   5.857   2.645 -0.8597 -0.0109 -0.8195
  592MOL0     C79791   4.352   5.916   2.568  0.3734  0.2087 -0.0931
  592MOL0     C79792   4.215   5.885   2.590 -0.9400  0.5847 -0.4315
  592MOL0     O79793   4.131   5.948   2.503 -0.3933 -0.1982  0.1024
  592MOL0     C79794   3.991   5.917   2.519 -0.4483 -0.3913 -1.2545
  592MOL0     C79795   3.912   6.006   2.425 -0.0926 -0.5217  0.1957
  592MOL0     C79796   3.764   5.989   2.455  0.8017 -0.1245  0.0467
  592MOL0     C79797   3.714   5.877   2.360  0.4591 -0.0493 -0.2100
  592MOL0     C79798   3.571   5.835   2.366  0.5987  0.4560 -0.4102
  592MOL0     C79799   3.475   5.949   2.362  0.2780  0.2971  0.1201
  592MOL0     C79800   3.335   5.897   2.344  0.7627  0.5995 -0.6191
  592MOL0     C79801   3.219   6.002   2.336  0.3987 -0.1819  0.1656
  592MOL0     N79802   3.078   5.945   2.328  0.7489 -0.7938  0.1196
  592MOL0     C79803   3.029   5.832   2.387  0.8343 -0.5735  0.4415
  592MOL0     C79804   2.900   5.856   2.416  0.4059 -0.0170 -0.9027
  592MOL0     C79805   2.818   5.762   2.504  0.5305  0.4032 -0.4403
  592MOL0     C79806   2.719   5.665   2.441  0.5005 -0.2648  1.0248
  592MOL0     C79807   2.619   5.737   2.344  0.0984  0.7744 -0.4611
  592MOL0     C79808   2.476   5.677   2.347  0.7382  0.4086 -0.1226
  592MOL0     O79809   2.407   5.734   2.233  0.0065 -0.3085  0.5762
  592MOL0     C79810   2.278   5.686   2.212 -0.6766 -0.2895  0.1406
  592MOL0     C79811   2.214   5.702   2.093 -0.3506  0.1842  0.3553
  592MOL0     C79812   2.075   5.689   2.063 -0.6001 -0.3299 -0.1941
  592MOL0     C79813   2.033   5.743   1.924  0.2780  0.1478 -0.4847
  592MOL0     C79814   1.995   5.633   2.170  0.0590 -0.4592 -0.4502
  592MOL0     C79815   1.843   5.606   2.154 -0.3816 -0.2288 -0.9763
  592MOL0     O79816   1.787   5.555   2.269 -0.0173 -1.1836  0.2795
  592MOL0     C79817   1.665   5.504   2.291 -0.0689 -0.6622 -0.4140
  592MOL0     C79818   1.563   5.504   2.200 -0.0350  0.1125  0.1477
  592MOL0     C79819   1.430   5.461   2.243 -0.7995  0.4655 -0.6286
  592MOL0     C79820   1.407   5.414   2.373 -0.2286 -0.2229 -0.1668
  592MOL0     O79821   1.278   5.391   2.406  0.0970 -0.2978  0.1263
  592MOL0     C79822   1.240   5.372   2.539  0.1944 -0.0647 -0.1840
  592MOL0     C79823   1.086   5.339   2.555  0.4392 -0.4697  0.0244
  592MOL0     C79824   1.042   5.340   2.701  0.2920 -0.4808 -0.4456
  592MOL0     C79825   0.903   5.287   2.699 -0.1912 -0.1922 -0.2517
  592MOL0     C79826   0.827   5.313   2.835  0.2275 -0.5966  0.1403
  592MOL0     C79827   0.684   5.263   2.834 -0.0560  0.1966 -0.4426
  592MOL0     C79828   0.603   5.319   2.955 -0.4665 -0.5867  0.4894
  592MOL0     C79829   0.563   5.198   3.045 -0.1152  0.3870 -0.0891
  592MOL0    Cl79830   0.430   5.232   3.155 -0.4569 -0.0999  0.0961
  592MOL0     C79831   1.520   5.395   2.461  0.4414 -0.0492 -0.8804
  592MOL0     C79832   1.640   5.442   2.414  0.6528 -0.0133 -0.3274
  592MOL0     O79833   1.787   5.633   2.045 -0.4484 -0.5314  0.3099
  592MOL0     C79834   2.062   5.605   2.288 -0.1703  0.0086  0.1122
  592MOL0     C79835   2.195   5.625   2.312  0.6408 -0.2206 -0.1394
  592MOL0     N79836   2.869   5.975   2.362  0.6279  0.0269 -0.2929
  592MOL0     N79837   2.976   6.030   2.313  0.2516 -0.5142 -0.2603
  592MOL0     C79838   4.182   5.788   2.679  1.0197  0.5644  0.4336
  592MOL0     C79839   4.282   5.728   2.755 -0.9596 -0.3817 -0.4991
  592MOL0     C79840   4.619   5.530   2.933 -0.5009 -0.6996 -0.2612
  592MOL0     C79841   4.742   5.584   2.941 -0.2298  0.1323  0.1345
  592MOL0     C79842   4.837   5.537   3.036  0.3251  0.2938  1.1508
  592MOL0     C79843   4.815   5.418   3.102 -0.4004  0.1657  1.0285
  592MOL0     O79844   4.900   5.348   3.177  0.1204 -0.1868 -0.4881
  592MOL0     C79845   5.030   5.403   3.204  0.1587  0.6684  0.3298
  592MOL0     C79846   5.113   5.391   3.079 -0.0974  0.0845 -0.0105
  592MOL0     C79847   5.121   5.246   3.018 -0.5137  0.5858 -0.9409
  592MOL0     C79848   5.248   5.234   2.936 -0.1225 -0.1945  0.0958
  592MOL0     C79849   5.253   5.330   2.816 -0.1735 -0.0517  0.2223
  592MOL0     C79850   5.242   5.418   2.733  1.2890  0.3220 -0.1768
  592MOL0     C79851   4.692   5.360   3.091  0.4854  0.2975  0.4927
  592MOL0     C79852   4.600   5.417   3.009  0.5892  0.1121  0.1847
  592MOL0     H79853   4.553   5.887   2.637 -0.8312  0.6089  1.1580
  592MOL0     H79854   4.385   5.979   2.486 -1.6020  1.3738 -0.0632
  592MOL0     H79855   3.975   5.810   2.503 -0.7486 -0.2988 -1.5916
  592MOL0     H79856   3.961   5.954   2.617  2.3640  3.4509 -1.5587
  592MOL0     H79857   3.943   6.110   2.431 -1.3317 -0.0863 -0.6392
  592MOL0     H79858   3.941   5.975   2.324 -1.6075 -1.5068  0.0281
  592MOL0     H79859   3.741   5.954   2.556  2.8961  1.4262  1.1057
  592MOL0     H79860   3.705   6.080   2.439 -0.7121 -0.8567  1.1675
  592MOL0     H79861   3.722   5.900   2.253 -2.4603  0.3479 -0.4284
  592MOL0     H79862   3.770   5.790   2.394 -0.4474 -0.1756  1.0136
  592MOL0     H79863   3.550   5.761   2.288 -0.6044  1.2776 -0.9039
  592MOL0     H79864   3.543   5.790   2.462 -2.3276  0.2352 -1.2764
  592MOL0     H79865   3.474   5.997   2.460  0.2272  0.0161  0.2569
  592MOL0     H79866   3.488   6.022   2.281  0.2144  1.7621  1.3879
  592MOL0     H79867   3.331   5.835   2.254 -1.3574  3.7720 -2.9543
  592MOL0     H79868   3.305   5.832   2.428 -1.2937  0.2877 -1.5210
  592MOL0     H79869   3.231   6.072   2.253  0.0038  0.6018  0.7663
  592MOL0     H79870   3.234   6.067   2.422 -3.3414  1.6537 -0.3737
  592MOL0     H79871   3.075   5.739   2.420 -0.1816 -1.1327  0.3403
  592MOL0     H79872   2.881   5.704   2.573 -0.9796  0.0683  0.7387
  592MOL0     H79873   2.761   5.826   2.572  0.9414  0.6754 -0.3524
  592MOL0     H79874   2.663   5.618   2.521 -1.9004  3.4597  1.7694
  592MOL0     H79875   2.767   5.585   2.383 -1.2253 -0.1515 -0.6573
  592MOL0     H79876   2.660   5.721   2.244 -0.0033 -1.6159 -0.1812
  592MOL0     H79877   2.615   5.844   2.367  0.2051  0.5661  0.5694
  592MOL0     H79878   2.431   5.707   2.442  1.3053  0.1443  0.2351
  592MOL0     H79879   2.465   5.568   2.350 -0.3404  0.4965 -0.4238
  592MOL0     H79880   2.273   5.742   2.011 -1.2161  1.8339  0.4954
  592MOL0     H79881   1.978   5.666   1.868 -0.8618 -0.1339  0.9490
  592MOL0     H79882   1.967   5.829   1.939  0.2344 -0.0704  0.6321
  592MOL0     H79883   2.121   5.770   1.865  0.2654 -3.5422 -2.5238
  592MOL0     H79884   1.576   5.525   2.094  1.6845 -1.5478 -0.0169
  592MOL0     H79885   1.343   5.460   2.179 -1.3090 -0.2069  0.0573
  592MOL0     H79886   1.291   5.283   2.579 -1.3295 -0.9465 -0.0973
  592MOL0     H79887   1.256   5.465   2.593 -2.8648 -0.0447  0.9118
  592MOL0     H79888   1.025   5.414   2.504 -0.0340 -0.0118  1.2466
  592MOL0     H79889   1.065   5.234   2.533 -2.6225 -0.4630  2.3489
  592MOL0     H79890   1.039   5.443   2.736  1.4009 -0.8315  0.7452
  592MOL0     H79891   1.107   5.278   2.764  4.4250  2.5570 -1.3238
  592MOL0     H79892   0.843   5.337   2.623  1.1120  0.5265 -0.8368
  592MOL0     H79893   0.910   5.178   2.689 -2.1533 -0.5589  1.5851
  592MOL0     H79894   0.833   5.416   2.871  0.5747 -0.5614 -0.0214
  592MOL0     H79895   0.879   5.253   2.911  2.6664  1.2661  0.0337
  592MOL0     H79896   0.624   5.290   2.747 -2.8670 -5.2335 -0.5979
  592MOL0     H79897   0.691   5.153   2.837 -2.0318 -0.0291 -2.0708
  592MOL0     H79898   0.514   5.372   2.918  0.4344  0.7379  0.1333
  592MOL0     H79899   0.664   5.394   3.008 -0.5807  0.3092 -0.6144
  592MOL0     H79900   0.647   5.154   3.099 -2.1798 -2.8002  0.8094
  592MOL0     H79901   0.537   5.114   2.980  1.0872 -0.6165  0.6762
  592MOL0     H79902   1.502   5.356   2.561 -0.0665  1.1085 -0.4950
  592MOL0     H79903   1.725   5.445   2.483  0.3894  1.0643 -0.0316
  592MOL0     H79904   1.993   5.573   2.366  0.7010  1.5105  1.5730
  592MOL0     H79905   2.233   5.606   2.412 -0.8859 -0.0891  0.4962
  592MOL0     H79906   4.084   5.742   2.688  2.4056 -2.4164  1.6414
  592MOL0     H79907   4.268   5.650   2.829 -2.1360  1.6580  1.5406
  592MOL0     H79908   4.767   5.671   2.881 -2.3455  2.2812  2.1676
  592MOL0     H79909   4.928   5.593   3.055  0.6104  0.0407  0.5471
  592MOL0     H79910   5.024   5.506   3.240  1.2926  0.1228  2.2315
  592MOL0     H79911   5.071   5.339   3.282 -3.0933 -2.4794 -0.2735
  592MOL0     H79912   5.215   5.416   3.109  0.1529  0.7562 -1.3290
  592MOL0     H79913   5.074   5.461   3.004 -1.7684  0.6381  1.3228
  592MOL0     H79914   5.030   5.243   2.957 -1.8322  2.4936  0.7858
  592MOL0     H79915   5.117   5.169   3.095  0.8689  0.1302 -1.3073
  592MOL0     H79916   5.247   5.131   2.899 -2.3636  0.7578 -2.8640
  592MOL0     H79917   5.331   5.251   3.006  0.8802  1.3480 -1.4090
  592MOL0     H79918   5.249   5.504   2.670 -1.3274  1.2790  0.7232
  592MOL0     H79919   4.671   5.271   3.150  1.7540  1.0853  2.2032
  592MOL0     H79920   4.499   5.375   3.007  1.2174 -1.7271 -4.0728
  593MOL0     O79921  10.540   4.586   9.121  0.0594 -0.1651  0.6562
  593MOL0     C79922  10.598   4.518   9.207 -0.3358  0.3408 -0.1816
  593MOL0     O79923  10.542   4.427   9.290  0.1774  0.0676 -0.6716
  593MOL0     C79924  10.410   4.414   9.274  0.6197 -0.2255  0.3277
  593MOL0     C79925  10.319   4.506   9.335  0.0521  0.1486 -0.3191
  593MOL0     C79926  10.179   4.479   9.332 -0.3451 -1.1195 -0.1583
  593MOL0     C79927  10.122   4.377   9.250 -0.5888  0.7911 -0.1667
  593MOL0     O79928   9.986   4.356   9.232 -0.3176 -0.3817  0.2218
  593MOL0     C79929   9.943   4.315   9.101  0.9155 -0.2319  0.1946
  593MOL0     C79930   9.795   4.345   9.073 -0.3948 -0.3747 -0.1823
  593MOL0     C79931   9.711   4.260   9.159  0.1536  0.2613  0.1424
  593MOL0     C79932   9.564   4.282   9.130 -0.2648  0.5463 -0.1556
  593MOL0     C79933   9.473   4.204   9.222  0.2398 -0.1105  0.4324
  593MOL0     C79934   9.323   4.208   9.161  0.5432  0.2386 -0.3608
  593MOL0     C79935   9.247   4.333   9.177  0.2145  0.2619 -0.0660
  593MOL0     C79936   9.119   4.337   9.098  0.4007  0.7145  0.0589
  593MOL0     N79937   9.056   4.465   9.089  0.6920 -0.1686  0.5190
  593MOL0     C79938   9.087   4.586   9.153 -0.3053 -0.1836  0.6947
  593MOL0     C79939   8.996   4.676   9.114  0.2936 -0.4779  0.3465
  593MOL0     C79940   8.991   4.821   9.155  0.4045 -0.3260  0.3933
  593MOL0     C79941   8.847   4.877   9.172  0.1139 -0.5811 -0.3603
  593MOL0     C79942   8.857   5.022   9.225  0.5848 -0.3303 -0.1574
  593MOL0     C79943   8.887   5.130   9.106  0.1617  0.6173  0.0010
  593MOL0     O79944   8.792   5.114   8.996  0.0652 -0.8191 -0.5328
  593MOL0     C79945   8.661   5.155   9.015 -0.7211  0.1692  0.2187
  593MOL0     C79946   8.623   5.255   9.107 -0.3510  0.6990 -0.3692
  593MOL0     C79947   8.490   5.286   9.128  0.5938 -0.1673 -0.4703
  593MOL0     C79948   8.458   5.389   9.233  0.6250 -0.0824 -1.0212
  593MOL0     C79949   8.389   5.225   9.051 -0.9726  0.6695 -1.0203
  593MOL0     C79950   8.253   5.253   9.067 -0.2514 -0.0634 -0.2942
  593MOL0     O79951   8.190   5.240   8.950 -0.0657 -0.2463 -0.1110
  593MOL0     C79952   8.055   5.279   8.952 -0.1167  0.2952 -0.2917
  593MOL0     C79953   7.960   5.214   9.032  0.1257  0.0370  0.5514
  593MOL0     C79954   7.824   5.235   9.016  0.6438  0.2525  0.9075
  593MOL0     C79955   7.773   5.323   8.923 -0.4339  0.4295  0.5330
  593MOL0     O79956   7.641   5.351   8.886  0.0741  0.4399  0.2454
  593MOL0     C79957   7.535   5.283   8.950  0.6377 -0.5833 -0.4453
  593MOL0     C79958   7.518   5.145   8.876 -0.6367 -0.1526  0.1016
  593MOL0     C79959   7.409   5.060   8.938 -0.3888  0.0464 -0.6686
  593MOL0     C79960   7.339   4.973   8.835 -0.2671  0.3578 -0.0026
  593MOL0     C79961   7.219   4.897   8.895  0.1019  0.1196  0.0730
  593MOL0     C79962   7.115   4.852   8.793  1.1554 -0.7985  0.0815
  593MOL0     C79963   7.002   4.780   8.863  0.0938  0.4095 -0.5297
  593MOL0     C79964   6.897   4.737   8.757 -0.1197  0.6289  0.7438
  593MOL0    Cl79965   6.928   4.569   8.712  0.1060 -0.0824  0.4217
  593MOL0     C79966   7.869   5.396   8.862 -0.0544  1.0613 -0.4264
  593MOL0     C79967   8.008   5.375   8.872  1.1791  0.1523 -0.1792
  593MOL0     O79968   8.202   5.282   9.179  0.2637 -0.4711  0.5778
  593MOL0     C79969   8.432   5.144   8.944 -1.1419 -0.1022  0.2878
  593MOL0     C79970   8.565   5.104   8.927  0.5396 -0.0158 -0.3610
  593MOL0     N79971   8.913   4.617   9.013 -0.1753  0.5239  1.0811
  593MOL0     N79972   8.948   4.491   9.011  0.1241  0.1990 -0.0467
  593MOL0     C79973  10.215   4.297   9.192 -0.3472 -0.1134 -0.4196
  593MOL0     C79974  10.357   4.307   9.195 -0.0599  0.2675 -0.2948
  593MOL0     C79975  10.749   4.537   9.223 -0.1683 -0.3952  0.3687
  593MOL0     C79976  10.816   4.639   9.152 -0.2698 -0.5891 -0.1797
  593MOL0     C79977  10.956   4.651   9.152 -0.3629 -1.3608  0.0392
  593MOL0     C79978  11.031   4.558   9.233  0.2826 -0.1082  0.6653
  593MOL0     O79979  11.165   4.580   9.259  0.1268  0.1579 -0.0333
  593MOL0     C79980  11.250   4.644   9.165  0.3549 -0.0852 -0.8522
  593MOL0     C79981  11.385   4.582   9.166 -0.1079 -0.0121  0.0061
  593MOL0     C79982  11.489   4.640   9.066 -0.1111  0.2176 -0.2384
  593MOL0     C79983  11.489   4.556   8.938 -0.9592  0.1939  0.4526
  593MOL0     C79984  11.624   4.582   8.871  0.1916  0.2609 -0.3983
  593MOL0     C79985  11.726   4.620   8.818 -0.3275 -0.5478  0.2600
  593MOL0     C79986  10.964   4.472   9.324  0.0656 -0.1455  0.7553
  593MOL0     C79987  10.825   4.466   9.318  0.4756 -0.2365 -0.3032
  593MOL0     H79988  10.360   4.588   9.392  1.7682 -0.4129 -0.6914
  593MOL0     H79989  10.111   4.556   9.369  3.1326  2.1799  0.0527
  593MOL0     H79990  10.001   4.372   9.028  0.6029  0.9326  0.8333
  593MOL0     H79991   9.959   4.207   9.095  0.0086 -0.3320 -0.6009
  593MOL0     H79992   9.769   4.449   9.095  1.8250 -0.1136  1.6673
  593MOL0     H79993   9.763   4.332   8.970 -3.8538  2.2793  0.3870
  593MOL0     H79994   9.742   4.157   9.141  0.7319  0.2184  1.2596
  593MOL0     H79995   9.718   4.282   9.266 -2.3446 -0.3805  0.5001
  593MOL0     H79996   9.542   4.387   9.147  0.8142  1.1969 -2.4094
  593MOL0     H79997   9.536   4.254   9.028 -0.7417  2.5171 -0.5921
  593MOL0     H79998   9.500   4.099   9.237  2.3753 -0.0443 -2.1579
  593MOL0     H79999   9.465   4.244   9.324  1.7666 -1.0176  0.9581
  593MOL0     H80000   9.324   4.176   9.056 -3.2126  0.8955 -0.7581
  593MOL0     H80001   9.267   4.131   9.216 -2.0803  0.9609 -1.8622
  593MOL0     H80002   9.240   4.342   9.286 -0.0588 -1.9752  0.1486
  593MOL0     H80003   9.308   4.406   9.123  0.8070 -0.9449 -1.0604
  593MOL0     H80004   9.041   4.273   9.139  1.1207 -0.0788  0.2209
  593MOL0     H80005   9.126   4.306   8.993 -0.6571  2.2667 -0.5079
  593MOL0     H80006   9.165   4.615   9.222 -0.2406 -0.0339  0.5573
  593MOL0     H80007   9.047   4.830   9.248 -0.5157  1.4280  0.8222
  593MOL0     H80008   9.040   4.887   9.083 -0.7993  2.2073  1.7344
  593MOL0     H80009   8.785   4.816   9.238  2.6863 -1.6000  1.2690
  593MOL0     H80010   8.802   4.868   9.073  4.7554 -2.3052 -2.6539
  593MOL0     H80011   8.935   5.040   9.300  2.0901 -0.3678 -1.6643
  593MOL0     H80012   8.753   5.040   9.254 -0.1422 -0.7072 -2.3290
  593MOL0     H80013   8.990   5.119   9.070  1.7835 -0.9373  4.4528
  593MOL0     H80014   8.877   5.231   9.147 -0.1648 -0.6122  3.2309
  593MOL0     H80015   8.695   5.313   9.163  0.1056  0.4006 -0.6406
  593MOL0     H80016   8.381   5.456   9.193 -1.7736 -0.3101  2.7563
  593MOL0     H80017   8.404   5.344   9.316 -2.2910  3.8556 -0.5303
  593MOL0     H80018   8.554   5.430   9.267  1.6413 -2.1154 -1.2630
  593MOL0     H80019   7.997   5.133   9.093  1.5865  1.3434  1.4651
  593MOL0     H80020   7.756   5.173   9.074 -0.9212  1.6049  0.5977
  593MOL0     H80021   7.558   5.263   9.055  1.7748 -0.0319 -0.5730
  593MOL0     H80022   7.440   5.337   8.950 -0.6851 -2.7068 -2.8338
  593MOL0     H80023   7.499   5.165   8.770  1.9040 -0.9346 -0.5586
  593MOL0     H80024   7.612   5.090   8.868 -0.1492  0.9261 -3.2029
  593MOL0     H80025   7.338   5.133   8.978 -0.4682 -1.3171  1.8017
  593MOL0     H80026   7.454   4.995   9.013 -1.6641 -0.9657 -0.7629
  593MOL0     H80027   7.306   5.051   8.765 -1.7173  0.5034  0.8025
  593MOL0     H80028   7.403   4.904   8.779 -0.9454 -1.1410  0.9874
  593MOL0     H80029   7.158   4.964   8.955 -1.0624 -1.9510  1.3203
  593MOL0     H80030   7.254   4.814   8.958 -0.8424  0.0971  0.5791
  593MOL0     H80031   7.078   4.939   8.739 -0.1275 -0.7068  1.0582
  593MOL0     H80032   7.166   4.792   8.718  2.0734 -0.4711  0.4286
  593MOL0     H80033   6.941   4.846   8.926  1.6740  3.6467 -2.1509
  593MOL0     H80034   7.032   4.687   8.910 -1.8497 -0.1700 -0.3231
  593MOL0     H80035   6.906   4.794   8.664  0.0288 -0.7267 -0.1061
  593MOL0     H80036   6.799   4.738   8.804 -0.3590  0.0112  0.2644
  593MOL0     H80037   7.844   5.472   8.789 -1.4934 -1.2624 -2.5614
  593MOL0     H80038   8.068   5.446   8.815  1.5423  1.9611  2.2915
  593MOL0     H80039   8.367   5.102   8.868 -0.6864  0.8496 -0.6585
  593MOL0     H80040   8.601   5.062   8.833 -1.0947 -1.7619 -0.2661
  593MOL0     H80041  10.184   4.212   9.133 -0.2367 -1.4723  1.4006
  593MOL0     H80042  10.429   4.251   9.137  0.0831  2.8675 -2.8562
  593MOL0     H80043  10.749   4.698   9.091  0.9827 -0.7720 -1.8062
  593MOL0     H80044  10.994   4.734   9.094 -1.5726 -0.8736 -0.0868
  593MOL0     H80045  11.208   4.655   9.064  1.1307  3.9134 -0.9009
  593MOL0     H80046  11.256   4.748   9.196 -0.5324  0.0328 -1.0582
  593MOL0     H80047  11.371   4.474   9.157  1.2582 -0.1559 -0.6137
  593MOL0     H80048  11.427   4.594   9.267 -0.3877 -2.2124  0.4335
  593MOL0     H80049  11.587   4.626   9.112 -0.6196  0.6537  1.0281
  593MOL0     H80050  11.471   4.748   9.062  3.5185  1.0953  2.1168
  593MOL0     H80051  11.399   4.578   8.879 -1.9765 -1.9658  1.1227
  593MOL0     H80052  11.479   4.450   8.960  0.9976  0.4414  3.1067
  593MOL0     H80053  11.813   4.631   8.757  1.7797 -1.3695  2.8994
  593MOL0     H80054  11.011   4.421   9.407 -0.8103 -0.5007  1.0394
  593MOL0     H80055  10.776   4.395   9.384 -0.6645 -1.0158 -1.9077
  594MOL0     O80056   6.143   5.490   8.567 -0.1086 -0.6217  0.0447
  594MOL0     C80057   6.174   5.582   8.490  0.4935 -0.0306 -0.2347
  594MOL0     O80058   6.086   5.665   8.434  0.0161 -0.2826  0.3181
  594MOL0     C80059   5.956   5.642   8.456  0.6978 -0.4533 -0.0391
  594MOL0     C80060   5.889   5.721   8.547 -0.6110  0.1429 -0.2218
  594MOL0     C80061   5.754   5.702   8.579 -0.3472  0.6909  0.0149
  594MOL0     C80062   5.683   5.595   8.513  0.1052 -0.4194  0.2680
  594MOL0     O80063   5.547   5.583   8.548  0.1991  0.6036 -0.7108
  594MOL0     C80064   5.445   5.547   8.451  0.4259  0.0512  0.1586
  594MOL0     C80065   5.316   5.610   8.480 -0.9787 -0.3413 -0.5444
  594MOL0     C80066   5.261   5.579   8.624  0.0825 -0.3226  0.2433
  594MOL0     C80067   5.112   5.629   8.648 -0.3231 -0.1570  1.3834
  594MOL0     C80068   5.053   5.568   8.776 -0.3447  0.4137  0.2543
  594MOL0     C80069   4.899   5.565   8.759 -0.9605 -0.0551  0.0722
  594MOL0     C80070   4.818   5.512   8.881  0.4634  0.8058 -0.6674
  594MOL0     C80071   4.779   5.627   8.979  0.1195 -0.5896  0.3070
  594MOL0     N80072   4.684   5.584   9.077 -0.0126  0.0619 -0.2353
  594MOL0     C80073   4.706   5.531   9.204  1.2033 -1.2235 -0.2241
  594MOL0     C80074   4.586   5.500   9.246 -0.5261  0.6898 -0.6836
  594MOL0     C80075   4.552   5.440   9.380  0.8759 -0.7454  0.8098
  594MOL0     C80076   4.547   5.291   9.369 -0.3013  0.4380 -1.1790
  594MOL0     C80077   4.419   5.248   9.302 -0.0593  0.1689  0.1791
  594MOL0     C80078   4.406   5.094   9.312 -0.6550  0.0150  0.5600
  594MOL0     O80079   4.301   5.055   9.220  0.1207 -0.2509  0.3373
  594MOL0     C80080   4.164   5.084   9.245 -0.1479 -0.7803  0.7060
  594MOL0     C80081   4.082   5.094   9.138  1.5596  0.1012  0.3295
  594MOL0     C80082   3.943   5.130   9.152 -0.3509 -0.4322  0.4938
  594MOL0     C80083   3.866   5.138   9.020 -0.1791  1.2480 -0.5575
  594MOL0     C80084   3.891   5.159   9.279  0.3354 -0.9232  0.0293
  594MOL0     C80085   3.745   5.205   9.309 -0.2065  0.0175 -0.5453
  594MOL0     O80086   3.718   5.258   9.433  0.5345 -0.4045 -0.6780
  594MOL0     C80087   3.592   5.266   9.489 -0.1938 -0.3532 -0.1591
  594MOL0     C80088   3.576   5.334   9.607  0.6900 -0.0731  0.6507
  594MOL0     C80089   3.456   5.331   9.674  0.4490  0.2747 -0.4489
  594MOL0     C80090   3.357   5.239   9.646  0.4867 -0.0343  0.2572
  594MOL0     O80091   3.258   5.220   9.735  0.4484  0.1682  0.5031
  594MOL0     C80092   3.121   5.200   9.685 -0.2471  0.6495 -0.2522
  594MOL0     C80093   3.067   5.324   9.628 -0.0137  0.4121  0.2439
  594MOL0     C80094   2.922   5.318   9.596  0.2034 -0.3735 -0.5004
  594MOL0     C80095   2.842   5.342   9.727  0.3992  0.5398  0.3969
  594MOL0     C80096   2.698   5.377   9.697  0.0893 -0.0589  0.0669
  594MOL0     C80097   2.615   5.394   9.827  0.2708 -0.3098 -0.8191
  594MOL0     C80098   2.463   5.410   9.811  1.2146  0.1906  0.4001
  594MOL0     C80099   2.394   5.423   9.943 -0.5960  0.5683  0.4527
  594MOL0    Cl80100   2.412   5.592  10.009  0.3884  0.0536 -0.3326
  594MOL0     C80101   3.361   5.178   9.523 -0.4975 -0.6146 -0.4469
  594MOL0     C80102   3.484   5.184   9.446  0.0692  0.0227 -0.2882
  594MOL0     O80103   3.664   5.214   9.214 -1.2679  0.8670 -0.2518
  594MOL0     C80104   3.981   5.159   9.392 -0.0819  0.2974  0.9670
  594MOL0     C80105   4.113   5.117   9.370 -0.0312 -0.5175  0.1586
  594MOL0     N80106   4.489   5.536   9.150 -0.8736  0.3551 -0.1733
  594MOL0     N80107   4.554   5.584   9.056  1.0618 -0.7002  0.1218
  594MOL0     C80108   5.746   5.523   8.414  0.4836  0.0078  0.0820
  594MOL0     C80109   5.885   5.542   8.388 -0.0854  0.0363  0.3388
  594MOL0     C80110   6.326   5.604   8.483 -0.2290  0.5319  0.3825
  594MOL0     C80111   6.419   5.521   8.548 -1.0528  1.1514 -0.7378
  594MOL0     C80112   6.559   5.539   8.540  0.6609 -0.1108 -0.5104
  594MOL0     C80113   6.612   5.645   8.470 -0.6084  0.6057  0.7571
  594MOL0     O80114   6.742   5.677   8.462 -0.0421  0.6073  0.0328
  594MOL0     C80115   6.835   5.563   8.447  0.4814  0.2241 -0.5161
  594MOL0     C80116   6.974   5.608   8.405 -0.4640  0.4376 -0.7404
  594MOL0     C80117   6.958   5.672   8.267  0.1928  0.6679  0.0055
  594MOL0     C80118   7.087   5.758   8.228 -0.1013 -0.0945 -0.4436
  594MOL0     C80119   7.214   5.684   8.217 -0.7298 -0.7406 -0.3008
  594MOL0     C80120   7.326   5.637   8.211  0.0743 -0.4328 -0.2841
  594MOL0     C80121   6.523   5.734   8.417 -0.9051  0.3050 -0.3583
  594MOL0     C80122   6.385   5.707   8.414  0.1320  0.6079 -0.2237
  594MOL0     H80123   5.949   5.801   8.590 -0.9263  0.3737 -0.1975
  594MOL0     H80124   5.714   5.766   8.657 -2.5043  0.5644 -0.9216
  594MOL0     H80125   5.467   5.583   8.350  3.3535 -0.7897  0.4037
  594MOL0     H80126   5.429   5.439   8.461 -0.5261  0.3231  1.9519
  594MOL0     H80127   5.330   5.716   8.457  2.0573 -0.6268 -0.3908
  594MOL0     H80128   5.245   5.557   8.416 -0.2678 -2.1844  0.1198
  594MOL0     H80129   5.263   5.469   8.628  2.2842 -0.2647  2.3507
  594MOL0     H80130   5.333   5.615   8.697 -0.3208  0.6279  0.1801
  594MOL0     H80131   5.125   5.737   8.659  3.4348 -0.4595  1.2504
  594MOL0     H80132   5.045   5.612   8.564  0.7816  1.8597  0.0239
  594MOL0     H80133   5.091   5.467   8.790  0.0060 -0.0302 -3.0996
  594MOL0     H80134   5.065   5.632   8.864  0.7402  2.5258 -1.3444
  594MOL0     H80135   4.861   5.659   8.719  0.0832 -0.0380 -0.9356
  594MOL0     H80136   4.878   5.491   8.681  2.0058  0.9913 -1.8927
  594MOL0     H80137   4.729   5.455   8.855  1.5980 -1.3054 -0.1627
  594MOL0     H80138   4.883   5.452   8.946 -1.4838  1.3250  1.9177
  594MOL0     H80139   4.732   5.696   8.908  1.9904 -2.9155 -3.5194
  594MOL0     H80140   4.860   5.683   9.027  0.2086  1.7193 -2.2489
  594MOL0     H80141   4.799   5.524   9.260  1.0433 -2.5723 -0.0978
  594MOL0     H80142   4.624   5.473   9.455  0.2954 -1.5510  1.7384
  594MOL0     H80143   4.452   5.473   9.409  0.0747 -2.2592 -0.1331
  594MOL0     H80144   4.567   5.249   9.468  0.8505  2.3926 -0.5155
  594MOL0     H80145   4.633   5.271   9.304  0.0495  0.5014 -0.7398
  594MOL0     H80146   4.415   5.289   9.200  1.8784 -2.2516 -1.0185
  594MOL0     H80147   4.328   5.290   9.343 -0.1281  1.0305 -0.8164
  594MOL0     H80148   4.389   5.068   9.417 -0.8723 -1.3421  0.2075
  594MOL0     H80149   4.502   5.053   9.279 -0.2109  1.1928  0.3422
  594MOL0     H80150   4.115   5.067   9.039  0.1010  0.9915 -0.4306
  594MOL0     H80151   3.760   5.113   9.024 -0.4687  2.0849 -2.0491
  594MOL0     H80152   3.867   5.239   8.978 -3.2702  2.1733  1.2626
  594MOL0     H80153   3.910   5.065   8.951  0.3567 -2.0888  2.9674
  594MOL0     H80154   3.666   5.387   9.635  0.2406  1.9662 -1.4326
  594MOL0     H80155   3.456   5.385   9.768  1.0318  4.6653 -2.7382
  594MOL0     H80156   3.113   5.118   9.613  4.8930 -0.0699 -0.3793
  594MOL0     H80157   3.059   5.168   9.769  2.4298 -0.8768  1.2624
  594MOL0     H80158   3.087   5.413   9.688 -0.3599 -0.4778  1.7344
  594MOL0     H80159   3.127   5.343   9.538  3.5884  0.8582  2.5224
  594MOL0     H80160   2.886   5.225   9.550 -0.9492 -0.1568 -0.0729
  594MOL0     H80161   2.905   5.402   9.529 -0.3741  0.1234  0.2589
  594MOL0     H80162   2.844   5.259   9.798  1.0012  1.9927  2.1447
  594MOL0     H80163   2.873   5.431   9.783 -0.6364  0.4549  1.1410
  594MOL0     H80164   2.653   5.295   9.640  1.5764 -3.0170  2.8366
  594MOL0     H80165   2.688   5.471   9.642  1.0511  0.6786  1.1050
  594MOL0     H80166   2.625   5.305   9.890 -1.7086  1.2760  1.9379
  594MOL0     H80167   2.658   5.471   9.890 -0.6457 -0.7829  0.4231
  594MOL0     H80168   2.425   5.320   9.763 -1.4306 -1.3776  4.8083
  594MOL0     H80169   2.443   5.503   9.757  0.4310 -0.1633  0.0567
  594MOL0     H80170   2.431   5.347  10.013 -0.9620  1.3696  1.5294
  594MOL0     H80171   2.291   5.393   9.922  0.2091 -1.8196 -0.4999
  594MOL0     H80172   3.287   5.103   9.495  1.4660 -2.9229  0.2686
  594MOL0     H80173   3.496   5.135   9.349 -1.4987 -1.1928  0.0812
  594MOL0     H80174   3.927   5.176   9.484 -1.8353  1.5580 -0.2125
  594MOL0     H80175   4.175   5.097   9.457  0.1394 -1.2871 -0.1287
  594MOL0     H80176   5.685   5.447   8.367  1.7430 -1.0437  0.0911
  594MOL0     H80177   5.930   5.481   8.310 -3.2389 -0.7587 -1.0157
  594MOL0     H80178   6.388   5.434   8.605 -0.0894  0.2256 -1.5949
  594MOL0     H80179   6.618   5.470   8.599  2.8557  3.3043  1.6621
  594MOL0     H80180   6.839   5.510   8.543 -1.7024 -0.1419 -0.5668
  594MOL0     H80181   6.804   5.487   8.374  1.4268 -1.0084  0.3152
  594MOL0     H80182   7.034   5.517   8.408 -0.4394  0.4733  0.1866
  594MOL0     H80183   7.014   5.686   8.470 -2.9627  1.6701 -0.5670
  594MOL0     H80184   6.869   5.736   8.267  0.2813  0.8336 -1.6628
  594MOL0     H80185   6.947   5.604   8.182 -3.5330  1.3041 -0.1905
  594MOL0     H80186   7.113   5.836   8.301 -1.2454  2.1033 -2.2498
  594MOL0     H80187   7.070   5.817   8.138  0.7514 -0.7374 -1.0429
  594MOL0     H80188   7.427   5.602   8.201  0.4090  0.3520  0.2755
  594MOL0     H80189   6.557   5.821   8.363 -0.7173  0.1290 -0.5246
  594MOL0     H80190   6.334   5.782   8.354  2.3901  1.5467 -1.1175
  595MOL0     O80191   9.752   2.098   6.272 -0.3711  0.1548 -0.2117
  595MOL0     C80192   9.856   2.048   6.223  0.1644 -0.6342  0.3587
  595MOL0     O80193   9.859   1.949   6.125 -0.2340  0.0323  0.3244
  595MOL0     C80194   9.743   1.905   6.063  0.0790 -0.3959 -0.4898
  595MOL0     C80195   9.729   1.873   5.926 -0.0430 -1.2306 -0.0805
  595MOL0     C80196   9.617   1.808   5.873 -0.2326  0.3321  0.4743
  595MOL0     C80197   9.502   1.793   5.951 -0.3081 -0.0225 -0.8629
  595MOL0     O80198   9.390   1.733   5.903  0.0212  0.0513  0.2609
  595MOL0     C80199   9.378   1.714   5.763  0.3356  0.8110  0.0405
  595MOL0     C80200   9.224   1.704   5.728  0.7415 -0.0417  0.3774
  595MOL0     C80201   9.148   1.822   5.789  0.8913 -0.4439 -0.2240
  595MOL0     C80202   9.168   1.947   5.709 -0.7304  0.2037  0.2919
  595MOL0     C80203   9.135   2.081   5.780  0.3317  0.3166 -0.0259
  595MOL0     C80204   9.249   2.115   5.879 -0.0033 -0.3662  0.3319
  595MOL0     C80205   9.378   2.164   5.817  0.3580  0.4591 -0.3917
  595MOL0     C80206   9.478   2.205   5.933  0.6061 -0.2867 -0.3877
  595MOL0     N80207   9.614   2.246   5.874  0.0180  0.5238 -0.5211
  595MOL0     C80208   9.727   2.292   5.945  0.2492 -0.1398  0.6842
  595MOL0     C80209   9.806   2.349   5.846  0.0433  0.3051  0.3014
  595MOL0     C80210   9.932   2.429   5.872 -0.7329  0.4573  0.8014
  595MOL0     C80211  10.043   2.365   5.953  0.1279 -0.0796  0.2752
  595MOL0     C80212  10.084   2.219   5.916 -0.0418 -0.4011 -0.2374
  595MOL0     C80213  10.118   2.198   5.763 -0.6645 -0.0499  0.5640
  595MOL0     O80214  10.232   2.286   5.729  0.4006  0.0990 -0.1066
  595MOL0     C80215  10.358   2.234   5.731 -0.3720 -0.8339  0.2034
  595MOL0     C80216  10.391   2.120   5.799 -0.0367 -0.1524  0.8029
  595MOL0     C80217  10.519   2.064   5.810  0.2385 -0.5314 -0.0012
  595MOL0     C80218  10.540   1.944   5.897 -0.0769 -1.1499  1.1792
  595MOL0     C80219  10.622   2.115   5.733  0.6587 -0.6092  0.8114
  595MOL0     C80220  10.745   2.058   5.702 -0.1866 -0.2120 -0.1902
  595MOL0     O80221  10.848   2.135   5.671 -0.7401 -0.4776 -0.1605
  595MOL0     C80222  10.984   2.091   5.672 -0.0241 -0.4676  0.5243
  595MOL0     C80223  11.084   2.163   5.608 -0.1969  0.7910 -0.4479
  595MOL0     C80224  11.226   2.130   5.611  0.2448 -0.2435 -0.2454
  595MOL0     C80225  11.255   2.016   5.686 -0.3282  0.4903 -0.6584
  595MOL0     O80226  11.379   1.960   5.699 -0.2727 -0.4170  0.3735
  595MOL0     C80227  11.496   2.035   5.655  0.9731 -0.5756 -0.4807
  595MOL0     C80228  11.622   1.952   5.678 -0.5483  0.7882  0.5456
  595MOL0     C80229  11.736   2.004   5.597  0.0139 -0.9459 -1.2541
  595MOL0     C80230  11.867   1.932   5.645  0.1497  0.2388 -0.5375
  595MOL0     C80231  11.989   1.998   5.575  0.4971  0.0160 -0.3610
  595MOL0     C80232  12.118   1.925   5.604 -0.1915 -0.4312 -0.3931
  595MOL0     C80233  12.227   1.969   5.503  0.4067  1.1640 -0.3343
  595MOL0     C80234  12.352   1.882   5.527  1.3887 -0.2199  0.8563
  595MOL0    Cl80235  12.476   1.911   5.400  0.0810 -0.0095  0.1866
  595MOL0     C80236  11.159   1.948   5.755  0.1850  0.1148  0.3571
  595MOL0     C80237  11.020   1.981   5.749  0.6017 -1.0674  0.0843
  595MOL0     O80238  10.755   1.937   5.683  0.4558 -0.0913 -0.5479
  595MOL0     C80239  10.590   2.230   5.657  0.1929  0.8009 -0.5671
  595MOL0     C80240  10.459   2.290   5.658 -0.2012 -0.3791 -0.2944
  595MOL0     N80241   9.739   2.341   5.728  0.1030 -0.5467  0.7697
  595MOL0     N80242   9.637   2.266   5.741  0.3736 -0.0421 -0.1294
  595MOL0     C80243   9.514   1.825   6.087 -0.3745  0.1971 -0.1549
  595MOL0     C80244   9.637   1.872   6.139  0.6380  0.0127  0.4648
  595MOL0     C80245   9.987   2.105   6.287  0.3809 -0.8195  0.3269
  595MOL0     C80246   9.985   2.199   6.392  0.0765 -1.0554 -0.1993
  595MOL0     C80247  10.106   2.231   6.460  0.3901  0.0912 -0.1382
  595MOL0     C80248  10.232   2.188   6.418 -0.6541  0.6643 -0.0079
  595MOL0     O80249  10.359   2.215   6.467  0.2634  0.1646 -1.2088
  595MOL0     C80250  10.360   2.278   6.600 -0.8988  0.2126 -0.2924
  595MOL0     C80251  10.496   2.364   6.609  0.0175 -0.1807  0.3515
  595MOL0     C80252  10.616   2.274   6.567 -0.5781  0.6026 -0.4775
  595MOL0     C80253  10.756   2.344   6.580  0.2312  0.0104 -0.1061
  595MOL0     C80254  10.766   2.460   6.497 -0.1323  0.8091  0.8734
  595MOL0     C80255  10.785   2.553   6.414 -0.4307  0.3396 -0.1703
  595MOL0     C80256  10.226   2.106   6.297 -0.4758 -0.2488  0.3923
  595MOL0     C80257  10.112   2.065   6.232 -0.0121  0.4151 -0.9964
  595MOL0     H80258   9.820   1.895   5.871 -0.7162  0.3680 -0.5982
  595MOL0     H80259   9.632   1.776   5.770  2.2530  0.6009  0.6921
  595MOL0     H80260   9.429   1.788   5.701  1.0146  1.2812  1.1336
  595MOL0     H80261   9.421   1.616   5.740 -1.0300  0.8800 -3.2984
  595MOL0     H80262   9.223   1.708   5.619  1.6577 -0.7660  0.3320
  595MOL0     H80263   9.186   1.605   5.754  4.2668 -1.8211 -0.5908
  595MOL0     H80264   9.043   1.789   5.784  0.0835  1.7244  0.9165
  595MOL0     H80265   9.154   1.832   5.898 -2.7707 -1.4307  0.2002
  595MOL0     H80266   9.271   1.956   5.673 -0.6267  3.3342  1.0939
  595MOL0     H80267   9.101   1.949   5.622  0.2638  0.5460 -0.4783
  595MOL0     H80268   9.126   2.164   5.710 -1.0628  0.0679 -0.1662
  595MOL0     H80269   9.047   2.069   5.843  1.2706 -0.7500  1.1315
  595MOL0     H80270   9.215   2.192   5.949 -0.3079 -2.7559  2.9778
  595MOL0     H80271   9.272   2.023   5.932 -2.5449 -1.7683 -0.8168
  595MOL0     H80272   9.426   2.086   5.756 -0.5268  1.1454 -2.0183
  595MOL0     H80273   9.367   2.250   5.750 -0.4945  1.3885  0.9056
  595MOL0     H80274   9.484   2.134   6.016 -1.2534  1.1724  1.0596
  595MOL0     H80275   9.441   2.302   5.968 -2.6596 -0.7823 -2.0813
  595MOL0     H80276   9.741   2.282   6.053 -2.2915  1.3187  1.2253
  595MOL0     H80277   9.964   2.456   5.771  1.6641  0.0891  1.4060
  595MOL0     H80278   9.913   2.525   5.922  0.9421  2.3564 -1.9360
  595MOL0     H80279  10.011   2.361   6.058  0.5081  0.5887  0.4220
  595MOL0     H80280  10.132   2.428   5.939  0.3058 -0.5326 -0.7370
  595MOL0     H80281   9.998   2.154   5.936 -0.9044  0.2709 -1.6146
  595MOL0     H80282  10.170   2.185   5.975 -0.3355 -0.8034 -0.0373
  595MOL0     H80283  10.025   2.221   5.710 -1.4038  0.7164  2.1268
  595MOL0     H80284  10.145   2.093   5.745  2.0241  0.7004 -0.2052
  595MOL0     H80285  10.313   2.066   5.852  1.1648 -0.1623  2.6706
  595MOL0     H80286  10.634   1.957   5.952 -0.5037 -0.3629  1.7315
  595MOL0     H80287  10.451   1.921   5.957 -1.2360 -1.2730 -0.5126
  595MOL0     H80288  10.553   1.858   5.830  1.2746 -1.4324  1.7683
  595MOL0     H80289  11.051   2.258   5.568 -0.6654  2.3834  3.3219
  595MOL0     H80290  11.304   2.192   5.570  0.8477 -1.0978 -0.4163
  595MOL0     H80291  11.491   2.052   5.547 -1.1371  0.6836 -0.2583
  595MOL0     H80292  11.508   2.135   5.697 -4.3852  0.2901 -0.3098
  595MOL0     H80293  11.634   1.956   5.787  1.3917 -0.5383  0.4215
  595MOL0     H80294  11.602   1.849   5.647 -2.9089  1.4491 -0.3700
  595MOL0     H80295  11.741   2.112   5.615  0.4907 -0.8739 -1.7815
  595MOL0     H80296  11.722   1.998   5.489  3.1059  1.7575 -1.9874
  595MOL0     H80297  11.883   1.938   5.753  1.5506  2.9555 -0.7914
  595MOL0     H80298  11.859   1.826   5.618 -0.9680  0.2773 -0.4156
  595MOL0     H80299  11.989   2.099   5.619 -0.4841  0.7090 -1.8643
  595MOL0     H80300  11.967   2.019   5.470  1.8199 -2.1253 -1.1308
  595MOL0     H80301  12.154   1.942   5.705 -1.4038 -3.7078  0.7271
  595MOL0     H80302  12.088   1.820   5.592 -7.5731  0.9498  1.0784
  595MOL0     H80303  12.239   2.077   5.506 -1.9699  1.4860  2.8250
  595MOL0     H80304  12.190   1.953   5.401 -3.2391 -2.9153  1.3073
  595MOL0     H80305  12.330   1.775   5.519  0.2980 -0.1066  2.0609
  595MOL0     H80306  12.390   1.897   5.629 -0.8861 -0.0058  1.7290
  595MOL0     H80307  11.195   1.867   5.818  0.6702  1.8405  2.4129
  595MOL0     H80308  10.950   1.927   5.812  1.0150 -1.3858  0.2808
  595MOL0     H80309  10.657   2.260   5.577 -1.5553  1.6750 -1.7619
  595MOL0     H80310  10.441   2.378   5.597  2.5115  0.5696  0.1224
  595MOL0     H80311   9.441   1.802   6.165  2.1905 -2.0930  1.7773
  595MOL0     H80312   9.632   1.870   6.248  2.0047 -2.2604  0.5613
  595MOL0     H80313   9.893   2.248   6.423  1.0993 -0.4343  2.0401
  595MOL0     H80314  10.107   2.309   6.536  3.5430  0.1286 -0.1017
  595MOL0     H80315  10.280   2.351   6.620  0.2359  1.1567  1.0484
  595MOL0     H80316  10.358   2.204   6.681 -0.3469  1.7286  1.1772
  595MOL0     H80317  10.500   2.407   6.710 -1.1300  1.4111 -0.2306
  595MOL0     H80318  10.484   2.442   6.533 -1.8203 -1.4091 -0.7034
  595MOL0     H80319  10.601   2.244   6.463 -1.0090 -1.9449  0.2527
  595MOL0     H80320  10.623   2.187   6.633  0.5704  1.0118 -0.0396
  595MOL0     H80321  10.841   2.281   6.551 -0.1919 -0.5283 -0.1871
  595MOL0     H80322  10.767   2.373   6.685 -2.3912 -0.6367  0.4002
  595MOL0     H80323  10.820   2.626   6.343  1.4685 -2.0558 -1.8877
  595MOL0     H80324  10.321   2.096   6.245  0.9409  0.1947  2.7253
  595MOL0     H80325  10.108   2.020   6.133 -0.6959 -1.3686 -0.1972
  596MOL0     O80326   3.370   1.142   8.981  0.2311  0.4450  0.7493
  596MOL0     C80327   3.381   1.122   8.860  0.4471 -0.2359  1.2631
  596MOL0     O80328   3.289   1.062   8.781  0.1648  0.5284  0.5802
  596MOL0     C80329   3.186   0.983   8.822 -0.1037  0.2941  0.1228
  596MOL0     C80330   3.166   0.906   8.943 -0.6203  0.6597  0.0064
  596MOL0     C80331   3.047   0.836   8.971  0.4646  0.1690  0.5670
  596MOL0     C80332   2.946   0.838   8.877  0.3029 -0.2361  0.5467
  596MOL0     O80333   2.826   0.768   8.889 -0.4584 -1.0108 -0.2612
  596MOL0     C80334   2.788   0.706   9.012  0.3518 -0.7797  0.5503
  596MOL0     C80335   2.648   0.644   8.973 -0.5938 -0.0214 -0.1495
  596MOL0     C80336   2.537   0.746   9.008 -0.6329 -0.2034 -0.1738
  596MOL0     C80337   2.408   0.700   8.960  1.0450 -0.0069 -1.1815
  596MOL0     C80338   2.296   0.726   9.062  0.1462  0.3126 -0.2134
  596MOL0     C80339   2.156   0.682   9.031  0.7645 -1.2309  0.0722
  596MOL0     C80340   2.097   0.737   8.899 -0.3068 -0.1031 -0.1332
  596MOL0     C80341   1.993   0.638   8.856  0.2308  0.4776 -0.1602
  596MOL0     N80342   1.866   0.677   8.922  0.4002  0.4117 -0.2260
  596MOL0     C80343   1.803   0.615   9.032 -0.3552  0.4316  0.1794
  596MOL0     C80344   1.682   0.680   9.043  0.5099  0.0140  0.3715
  596MOL0     C80345   1.569   0.650   9.141 -0.4165 -0.4146 -0.4189
  596MOL0     C80346   1.622   0.681   9.281  0.0918  0.0227 -0.7791
  596MOL0     C80347   1.540   0.643   9.397  0.3986 -0.6533  0.2207
  596MOL0     C80348   1.404   0.708   9.401  0.2398 -0.3283  0.5367
  596MOL0     O80349   1.322   0.681   9.279 -0.2626  0.2769  0.2295
  596MOL0     C80350   1.198   0.725   9.267 -0.1313  0.3008  0.1596
  596MOL0     C80351   1.127   0.689   9.151  0.6944  0.0166  0.0894
  596MOL0     C80352   0.997   0.734   9.125  0.1078  0.4475 -0.5739
  596MOL0     C80353   0.945   0.710   8.988 -0.4757  0.0846 -0.0517
  596MOL0     C80354   0.926   0.809   9.228  0.0019  0.6038 -0.8597
  596MOL0     C80355   0.781   0.847   9.226  0.5968  0.2535 -0.5849
  596MOL0     O80356   0.717   0.868   9.344 -0.1771  0.0016  0.0647
  596MOL0     C80357   0.596   0.933   9.330  0.2927  0.2682  0.3347
  596MOL0     C80358   0.478   0.868   9.362 -0.0638 -0.0192 -0.0201
  596MOL0     C80359   0.358   0.937   9.354 -0.6666 -0.4627  0.5920
  596MOL0     C80360   0.345   1.075   9.314 -0.2484 -0.0873 -0.0010
  596MOL0     O80361   0.231   1.146   9.334 -0.6003  0.5859  0.5824
  596MOL0     C80362   0.109   1.071   9.368  0.0051 -1.0929  0.7609
  596MOL0     C80363  -0.006   1.165   9.371  0.3954 -1.0503  0.0372
  596MOL0     C80364  -0.125   1.089   9.394  0.0358  0.5097 -0.9985
  596MOL0     C80365  -0.249   1.171   9.365 -0.2255  0.0884 -0.0763
  596MOL0     C80366  -0.375   1.086   9.389 -0.7449  0.1033 -0.4870
  596MOL0     C80367  -0.496   1.182   9.382  0.1456 -0.1029  0.3355
  596MOL0     C80368  -0.628   1.109   9.391  0.3029  0.2238  0.2082
  596MOL0     C80369  -0.656   1.031   9.519 -0.2913  0.0890  0.1520
  596MOL0    Cl80370  -0.836   1.020   9.533  0.1238  0.3096 -0.5548
  596MOL0     C80371   0.468   1.138   9.269  0.5343 -0.0798  0.1450
  596MOL0     C80372   0.593   1.069   9.288  0.2917  0.1438  0.9891
  596MOL0     O80373   0.724   0.842   9.119 -0.0819  0.2562  0.7458
  596MOL0     C80374   0.998   0.831   9.351 -0.3165 -0.0196  0.3991
  596MOL0     C80375   1.128   0.791   9.367 -0.1165  1.0152  0.2354
  596MOL0     N80376   1.672   0.775   8.951 -0.0482 -1.0496  0.0112
  596MOL0     N80377   1.778   0.780   8.875 -0.2064 -0.7641  0.0164
  596MOL0     C80378   2.974   0.898   8.752 -0.2765 -0.5218 -0.0324
  596MOL0     C80379   3.094   0.971   8.720  1.5188  0.3578  0.1321
  596MOL0     C80380   3.496   1.174   8.786 -0.4805 -0.8596  0.1295
  596MOL0     C80381   3.534   1.113   8.663  0.5878  0.3877  0.3405
  596MOL0     C80382   3.650   1.167   8.598  1.1035  0.7175 -0.1049
  596MOL0     C80383   3.714   1.284   8.635  0.5267  0.2247 -0.7845
  596MOL0     O80384   3.819   1.348   8.571  0.4974 -0.7368 -0.2771
  596MOL0     C80385   3.897   1.290   8.467  0.5603 -0.3038 -0.7437
  596MOL0     C80386   4.030   1.367   8.465 -0.1131  0.0366 -0.0247
  596MOL0     C80387   4.114   1.323   8.591 -0.2724  0.1575  0.5160
  596MOL0     C80388   4.258   1.354   8.576  0.6529  0.1928 -0.3092
  596MOL0     C80389   4.333   1.263   8.493 -1.2229  0.0628  0.0634
  596MOL0     C80390   4.385   1.201   8.402  0.3406 -0.4041  0.2528
  596MOL0     C80391   3.671   1.345   8.753 -0.7586 -0.7981  0.0767
  596MOL0     C80392   3.564   1.291   8.829  0.3149 -0.1915 -0.2277
  596MOL0     H80393   3.244   0.918   9.018  0.0689 -1.0290 -0.4057
  596MOL0     H80394   3.029   0.786   9.065 -0.5368  0.7547  0.7026
  596MOL0     H80395   2.862   0.632   9.044  0.1344 -2.1862 -1.9642
  596MOL0     H80396   2.784   0.784   9.089  1.3739  1.3696 -1.4495
  596MOL0     H80397   2.640   0.613   8.869 -2.2954 -0.6861  0.1468
  596MOL0     H80398   2.633   0.559   9.040  0.5192  0.9281  1.3661
  596MOL0     H80399   2.534   0.760   9.116 -1.2866  1.3187 -0.3565
  596MOL0     H80400   2.564   0.840   8.959  0.4816 -0.1901  0.4438
  596MOL0     H80401   2.392   0.752   8.865 -0.8620 -0.6330 -1.2420
  596MOL0     H80402   2.411   0.592   8.946  0.8512  0.3036 -4.4380
  596MOL0     H80403   2.313   0.688   9.163  0.4993 -0.5539 -0.5924
  596MOL0     H80404   2.296   0.833   9.088  2.8415 -0.0321  1.5065
  596MOL0     H80405   2.139   0.574   9.044 -1.7533 -1.3382 -3.0356
  596MOL0     H80406   2.091   0.719   9.111  0.2247 -2.9807  0.4912
  596MOL0     H80407   2.053   0.836   8.909 -0.1972 -0.2586  3.2878
  596MOL0     H80408   2.177   0.739   8.824  1.9836 -2.3617  2.0110
  596MOL0     H80409   2.009   0.533   8.878 -2.7582 -0.5723 -2.2497
  596MOL0     H80410   1.983   0.657   8.749  2.5413  2.1118 -0.1534
  596MOL0     H80411   1.831   0.525   9.087 -0.6206 -0.9214 -1.7813
  596MOL0     H80412   1.476   0.700   9.115 -0.2174  0.1438 -0.0843
  596MOL0     H80413   1.542   0.545   9.126 -2.2492 -0.2915  1.6065
  596MOL0     H80414   1.637   0.789   9.282  2.7495 -0.2249 -2.8677
  596MOL0     H80415   1.720   0.641   9.306 -0.4627 -1.7456 -1.2679
  596MOL0     H80416   1.588   0.671   9.491 -1.5301 -1.6505  1.5716
  596MOL0     H80417   1.526   0.535   9.391  2.4923 -0.8720 -2.6126
  596MOL0     H80418   1.415   0.817   9.406 -0.4187 -0.1163 -1.4856
  596MOL0     H80419   1.349   0.670   9.488 -1.6356 -2.8014 -1.5548
  596MOL0     H80420   1.188   0.642   9.074  0.7027  0.7790 -0.3816
  596MOL0     H80421   0.848   0.660   8.978 -0.6968  0.8874 -2.4962
  596MOL0     H80422   0.947   0.805   8.934  0.7056  1.1267  1.7176
  596MOL0     H80423   1.013   0.649   8.927 -1.8777 -0.6944 -0.8781
  596MOL0     H80424   0.474   0.764   9.391 -2.5394  0.2072  0.6952
  596MOL0     H80425   0.272   0.881   9.390 -1.5163  0.8724  0.7241
  596MOL0     H80426   0.096   1.005   9.282 -0.7901  0.6032 -0.4746
  596MOL0     H80427   0.113   1.016   9.462 -0.3654 -0.0762  1.3876
  596MOL0     H80428  -0.001   1.230   9.459 -2.3267 -1.2285  0.4079
  596MOL0     H80429  -0.001   1.234   9.286  2.7559  1.7000  2.1763
  596MOL0     H80430  -0.115   1.065   9.501  0.0710  2.0313 -0.6336
  596MOL0     H80431  -0.118   0.998   9.335 -0.9915  0.0490 -0.4269
  596MOL0     H80432  -0.253   1.256   9.434 -0.6598  0.5861 -0.7091
  596MOL0     H80433  -0.246   1.204   9.261  1.5838  0.5746  0.0786
  596MOL0     H80434  -0.386   1.029   9.481 -0.5150 -1.3692 -1.3246
  596MOL0     H80435  -0.390   1.011   9.310 -2.0479  0.1299 -0.2814
  596MOL0     H80436  -0.484   1.246   9.469  1.0964  0.1513  0.0278
  596MOL0     H80437  -0.488   1.249   9.295  0.5168  0.8311  1.0661
  596MOL0     H80438  -0.642   1.049   9.301  0.8467 -0.4344  0.5505
  596MOL0     H80439  -0.709   1.182   9.397  0.8482  0.7054  3.8322
  596MOL0     H80440  -0.616   1.062   9.616 -0.2007  0.7207 -0.0791
  596MOL0     H80441  -0.607   0.933   9.514 -2.4469 -1.0815  0.9839
  596MOL0     H80442   0.466   1.242   9.237 -0.8780 -0.4655 -1.1372
  596MOL0     H80443   0.690   1.106   9.256  0.4298 -1.4312 -0.6039
  596MOL0     H80444   0.951   0.897   9.423 -2.1889  3.0002 -3.2623
  596MOL0     H80445   1.172   0.806   9.465 -2.2920 -1.5344  1.7683
  596MOL0     H80446   2.903   0.895   8.669  1.2285  0.4645 -1.4056
  596MOL0     H80447   3.106   1.014   8.621 -1.3600 -0.1249 -0.5393
  596MOL0     H80448   3.477   1.025   8.638 -0.2223 -0.5561  4.6902
  596MOL0     H80449   3.684   1.126   8.503  2.1284 -2.7649  1.5906
  596MOL0     H80450   3.922   1.184   8.477 -0.8106 -0.5818 -0.0385
  596MOL0     H80451   3.846   1.285   8.370  0.3806 -1.7036 -0.5892
  596MOL0     H80452   4.000   1.473   8.470 -0.4216 -0.0995  1.8074
  596MOL0     H80453   4.077   1.346   8.369 -1.1134  2.1485 -1.0350
  596MOL0     H80454   4.108   1.221   8.628  0.3174  0.5139  1.6482
  596MOL0     H80455   4.067   1.387   8.667 -2.4482 -0.4456 -0.2358
  596MOL0     H80456   4.300   1.350   8.677 -0.8159  0.0742  0.3262
  596MOL0     H80457   4.262   1.454   8.534 -1.1860  0.5918  0.3636
  596MOL0     H80458   4.412   1.147   8.313  0.9461 -1.8304  1.2522
  596MOL0     H80459   3.725   1.431   8.792  0.7326 -1.0926 -1.2488
  596MOL0     H80460   3.527   1.334   8.921 -0.0228 -0.7319 -0.1015
  597MOL0     O80461   2.158   2.199   7.743 -0.1550 -0.2035 -0.6146
  597MOL0     C80462   2.084   2.213   7.645  0.6943 -0.2717  0.1718
  597MOL0     O80463   2.113   2.217   7.511  0.0203  0.3344 -0.4061
  597MOL0     C80464   2.236   2.223   7.467  0.0832 -0.1095  0.1502
  597MOL0     C80465   2.351   2.268   7.535  0.5318  1.1884 -1.0443
  597MOL0     C80466   2.477   2.259   7.475 -0.4104  0.6835  0.1970
  597MOL0     C80467   2.497   2.194   7.348  0.4797 -0.3060 -0.1007
  597MOL0     O80468   2.619   2.188   7.286 -0.5212  0.4351  0.3255
  597MOL0     C80469   2.706   2.306   7.280  0.8403  0.3694  0.0987
  597MOL0     C80470   2.846   2.279   7.342 -0.5248  0.0712 -0.3426
  597MOL0     C80471   2.838   2.181   7.460  0.6751 -0.7408 -0.2863
  597MOL0     C80472   2.973   2.140   7.491 -1.2814  0.1136  0.9470
  597MOL0     C80473   2.983   2.061   7.626  0.3491  0.3289 -0.0064
  597MOL0     C80474   2.934   1.916   7.606  0.0953 -0.3030  0.0079
  597MOL0     C80475   2.956   1.858   7.743 -0.7281  0.5803 -0.2756
  597MOL0     C80476   2.949   1.705   7.739  0.1700 -0.2215 -0.4374
  597MOL0     N80477   3.066   1.639   7.677  0.3457  0.3371 -0.5625
  597MOL0     C80478   3.068   1.598   7.542 -0.2594  0.1600 -1.0751
  597MOL0     C80479   3.190   1.539   7.536 -0.1103  0.4623 -0.7682
  597MOL0     C80480   3.244   1.469   7.413  0.7824  0.4329 -0.5044
  597MOL0     C80481   3.146   1.365   7.360 -0.1625  0.4760  0.2181
  597MOL0     C80482   3.113   1.256   7.464  0.1514  0.8660  0.4108
  597MOL0     C80483   2.971   1.208   7.433  0.0313 -0.0076  0.2839
  597MOL0     O80484   2.876   1.295   7.484 -0.3943 -0.3677  0.3700
  597MOL0     C80485   2.744   1.296   7.433 -1.0458 -0.4915 -0.3723
  597MOL0     C80486   2.693   1.196   7.348  0.3726  1.0323 -0.7523
  597MOL0     C80487   2.562   1.202   7.294  0.3512  0.5917 -0.4790
  597MOL0     C80488   2.504   1.073   7.239 -0.0814 -0.5774 -0.1511
  597MOL0     C80489   2.485   1.319   7.314 -0.4858  0.1328  1.1991
  597MOL0     C80490   2.345   1.332   7.254  0.5101  0.4215 -0.1078
  597MOL0     O80491   2.260   1.420   7.310  0.2760  0.1633  0.1568
  597MOL0     C80492   2.125   1.412   7.291  0.5322  0.1814 -0.7150
  597MOL0     C80493   2.052   1.488   7.385 -0.6084  0.4257  0.2956
  597MOL0     C80494   1.910   1.509   7.381 -0.3234  0.1281  0.4021
  597MOL0     C80495   1.838   1.442   7.280  0.0290  0.1387  0.5807
  597MOL0     O80496   1.702   1.450   7.273  0.0191 -0.0998  0.0911
  597MOL0     C80497   1.643   1.576   7.247 -0.5519 -0.6319 -0.1348
  597MOL0     C80498   1.499   1.587   7.291 -0.3353  0.2811  0.6602
  597MOL0     C80499   1.409   1.481   7.225  0.4206  0.5019 -0.5337
  597MOL0     C80500   1.264   1.516   7.246 -0.1795  0.3638 -0.0666
  597MOL0     C80501   1.203   1.601   7.142  0.1729 -0.5291  0.8069
  597MOL0     C80502   1.062   1.642   7.179 -0.4501  0.4764 -0.1432
  597MOL0     C80503   0.958   1.524   7.148 -0.5751 -1.1525  0.4962
  597MOL0     C80504   0.888   1.468   7.275 -0.3667 -0.1391 -0.1932
  597MOL0    Cl80505   0.833   1.584   7.396 -0.1238 -0.0409  0.0137
  597MOL0     C80506   1.914   1.378   7.184 -0.0612 -0.6349  0.0373
  597MOL0     C80507   2.054   1.358   7.184  0.6505  0.8170 -0.0675
  597MOL0     O80508   2.324   1.267   7.149 -0.0852  0.3024  0.1286
  597MOL0     C80509   2.537   1.409   7.416 -0.2033  0.6706  0.5321
  597MOL0     C80510   2.658   1.401   7.471 -0.0170  0.0044  0.5958
  597MOL0     N80511   3.242   1.532   7.663 -0.1456  0.1596 -0.7457
  597MOL0     N80512   3.174   1.605   7.742  0.6367 -0.2101  0.5027
  597MOL0     C80513   2.384   2.129   7.299 -0.6495 -0.5118  0.3086
  597MOL0     C80514   2.254   2.153   7.348 -0.0182 -0.8590 -0.3268
  597MOL0     C80515   1.943   2.214   7.675  0.3604  0.1559  0.0999
  597MOL0     C80516   1.845   2.240   7.568 -0.3744 -0.2539 -0.3224
  597MOL0     C80517   1.713   2.226   7.588  0.3381  1.0966  0.9113
  597MOL0     C80518   1.664   2.202   7.716 -0.1654  0.3166  0.5080
  597MOL0     O80519   1.534   2.219   7.754 -0.2732 -0.3493  0.1029
  597MOL0     C80520   1.439   2.269   7.662 -0.6068 -0.2375  0.0088
  597MOL0     C80521   1.304   2.261   7.725 -0.2666  0.5015 -0.5411
  597MOL0     C80522   1.194   2.273   7.629 -0.2392  0.2762  0.5827
  597MOL0     C80523   1.051   2.264   7.688  0.2103  0.1722 -0.5380
  597MOL0     C80524   1.007   2.386   7.749  0.0538 -0.0876 -0.6543
  597MOL0     C80525   0.992   2.487   7.810  0.1003  0.9746  0.3903
  597MOL0     C80526   1.751   2.176   7.819  0.3328  0.0811  0.0783
  597MOL0     C80527   1.890   2.189   7.805  0.0097 -0.0891  0.9237
  597MOL0     H80528   2.336   2.311   7.634 -1.4254 -1.1513 -0.2111
  597MOL0     H80529   2.558   2.313   7.522 -0.0310 -0.0155  0.3569
  597MOL0     H80530   2.725   2.339   7.177 -1.4437  2.8130  0.3488
  597MOL0     H80531   2.660   2.388   7.336  0.4123  0.1251  0.1033
  597MOL0     H80532   2.907   2.223   7.271 -1.9809 -1.7987 -0.2357
  597MOL0     H80533   2.887   2.375   7.372 -0.2297  1.0332 -3.4275
  597MOL0     H80534   2.805   2.236   7.549  0.7977 -0.7668 -0.2238
  597MOL0     H80535   2.777   2.093   7.437  2.7831 -2.4497  0.2679
  597MOL0     H80536   3.018   2.079   7.411 -0.0123 -0.2826  1.9211
  597MOL0     H80537   3.040   2.225   7.511 -0.3803 -0.8053  1.9602
  597MOL0     H80538   3.085   2.053   7.664 -0.0445 -0.5033  0.9418
  597MOL0     H80539   2.916   2.103   7.702  0.4068 -0.6849  0.6357
  597MOL0     H80540   2.827   1.922   7.582 -0.6443 -0.7487  2.7885
  597MOL0     H80541   2.990   1.864   7.528  0.8095 -0.4435  0.6005
  597MOL0     H80542   3.050   1.890   7.790  0.8057 -1.0054 -2.0929
  597MOL0     H80543   2.873   1.888   7.807  0.3355  1.8669  0.5466
  597MOL0     H80544   2.861   1.678   7.681 -1.0611 -1.0140  1.6961
  597MOL0     H80545   2.936   1.675   7.843 -0.3140  0.6816 -0.2287
  597MOL0     H80546   3.004   1.607   7.455 -2.3645  0.3502  0.4094
  597MOL0     H80547   3.264   1.539   7.331  0.8862  0.3719 -0.5314
  597MOL0     H80548   3.336   1.418   7.442  0.6938 -0.1740 -1.2477
  597MOL0     H80549   3.193   1.307   7.280 -2.5984  0.0340 -1.0009
  597MOL0     H80550   3.057   1.416   7.322 -0.9530 -0.9567  0.0782
  597MOL0     H80551   3.126   1.290   7.567  2.3413  4.1239 -0.7847
  597MOL0     H80552   3.179   1.170   7.448 -1.1371 -0.2489  0.9111
  597MOL0     H80553   2.953   1.106   7.470 -2.4544  0.2235 -0.0683
  597MOL0     H80554   2.962   1.208   7.324  0.3811 -1.1964  0.2384
  597MOL0     H80555   2.751   1.107   7.324 -0.7847 -0.2021  0.8289
  597MOL0     H80556   2.545   1.046   7.141  0.5271 -1.2049  0.2675
  597MOL0     H80557   2.537   0.995   7.309 -0.4329 -0.7118 -0.1329
  597MOL0     H80558   2.395   1.070   7.233 -0.1790  2.6682 -1.6292
  597MOL0     H80559   2.107   1.531   7.468  1.0754  3.6486 -2.2059
  597MOL0     H80560   1.856   1.565   7.456  1.8244  0.5381  1.7445
  597MOL0     H80561   1.703   1.655   7.295  0.7568 -0.3574 -2.1151
  597MOL0     H80562   1.636   1.593   7.139  0.0888 -0.0707 -0.0935
  597MOL0     H80563   1.497   1.567   7.399 -1.6541 -0.0146  0.5941
  597MOL0     H80564   1.461   1.687   7.271  0.3221  0.0900 -1.8091
  597MOL0     H80565   1.422   1.382   7.270 -2.3148  1.1312  2.0158
  597MOL0     H80566   1.431   1.466   7.119  1.3207 -0.2839 -0.2457
  597MOL0     H80567   1.210   1.421   7.235 -0.4779  0.3992  0.9531
  597MOL0     H80568   1.254   1.559   7.347  1.0940  4.0534 -1.3312
  597MOL0     H80569   1.195   1.547   7.048 -0.6273  1.3552 -0.2686
  597MOL0     H80570   1.275   1.681   7.122  0.1033 -0.5060  0.6485
  597MOL0     H80571   1.058   1.669   7.285 -0.2523  0.2973 -0.0874
  597MOL0     H80572   1.023   1.731   7.130 -2.9140  0.3407  1.4432
  597MOL0     H80573   1.019   1.439   7.115  0.2617 -0.9924  1.5802
  597MOL0     H80574   0.877   1.550   7.080 -1.8838 -0.1425  2.3859
  597MOL0     H80575   0.951   1.397   7.330 -1.0136 -1.1207 -0.6864
  597MOL0     H80576   0.801   1.410   7.241 -0.1484 -0.6294  0.0585
  597MOL0     H80577   1.862   1.327   7.104  0.6007 -1.9962  0.4338
  597MOL0     H80578   2.095   1.297   7.104 -1.8630 -1.5707  0.3135
  597MOL0     H80579   2.481   1.497   7.446 -1.9933  0.2414 -1.2889
  597MOL0     H80580   2.689   1.470   7.548  0.4823 -1.1153  1.4316
  597MOL0     H80581   2.398   2.072   7.207  3.1543  0.5774  0.0436
  597MOL0     H80582   2.166   2.123   7.292 -0.9400 -0.3664  0.8368
  597MOL0     H80583   1.889   2.266   7.472  1.1234  2.4558  0.9691
  597MOL0     H80584   1.645   2.236   7.504 -1.0715  0.5817  1.9385
  597MOL0     H80585   1.446   2.376   7.643  1.2824  0.2583  2.9025
  597MOL0     H80586   1.447   2.219   7.565 -0.6862 -0.2440  0.0051
  597MOL0     H80587   1.297   2.344   7.796 -0.2333 -1.9470  2.5377
  597MOL0     H80588   1.290   2.168   7.780 -3.9636  1.7665  1.0284
  597MOL0     H80589   1.208   2.190   7.560  0.7462  0.7486  0.1972
  597MOL0     H80590   1.200   2.371   7.581 -3.2070  2.1241  3.5540
  597MOL0     H80591   1.037   2.190   7.767  3.5812  1.0342  1.0107
  597MOL0     H80592   0.989   2.249   7.599 -1.0234  1.9020 -0.0191
  597MOL0     H80593   0.963   2.577   7.859 -1.3670  0.1789  1.0664
  597MOL0     H80594   1.711   2.153   7.917 -0.3681  1.6508  0.1938
  597MOL0     H80595   1.950   2.184   7.895 -0.0256 -0.4446  0.9273
  598MOL0     O80596   6.220   8.044   7.865  0.2654  0.6483 -0.4504
  598MOL0     C80597   6.260   7.990   7.965 -0.1171  0.2269 -0.5803
  598MOL0     O80598   6.200   7.998   8.092  0.2612  0.3601 -0.5358
  598MOL0     C80599   6.085   8.067   8.107 -0.1606  0.6071 -1.4146
  598MOL0     C80600   6.072   8.206   8.087 -0.3875 -0.6854  0.0482
  598MOL0     C80601   5.951   8.272   8.099 -0.4432 -0.0983 -0.0801
  598MOL0     C80602   5.843   8.208   8.156 -0.0204  0.7989 -0.0808
  598MOL0     O80603   5.734   8.285   8.196  0.1466  0.2716 -0.6793
  598MOL0     C80604   5.675   8.259   8.326 -0.0807  0.0263  0.1743
  598MOL0     C80605   5.598   8.385   8.367  0.2360 -0.3829  0.9846
  598MOL0     C80606   5.474   8.407   8.275  0.3077 -0.5112 -0.6275
  598MOL0     C80607   5.413   8.550   8.317 -0.2856  0.1736 -0.3134
  598MOL0     C80608   5.324   8.589   8.207  0.2103 -0.1310 -0.3669
  598MOL0     C80609   5.201   8.678   8.271  0.3263 -0.7158 -0.5951
  598MOL0     C80610   5.124   8.743   8.151 -0.0867  0.1988 -0.0701
  598MOL0     C80611   5.015   8.648   8.086  0.7724  0.1955 -0.4345
  598MOL0     N80612   4.907   8.612   8.176  0.3798 -0.3447  0.1720
  598MOL0     C80613   4.800   8.697   8.211  0.5977  0.4546 -0.0764
  598MOL0     C80614   4.746   8.632   8.318 -0.5989 -0.4825 -0.0009
  598MOL0     C80615   4.655   8.695   8.421  0.5292  0.8997 -0.1119
  598MOL0     C80616   4.551   8.589   8.478  0.4586  0.0330  0.5480
  598MOL0     C80617   4.482   8.504   8.367  0.7538  0.9788  0.8351
  598MOL0     C80618   4.374   8.578   8.303  0.1354  1.1094  0.6375
  598MOL0     O80619   4.280   8.494   8.243  0.6311 -0.7097 -0.3373
  598MOL0     C80620   4.165   8.550   8.186 -1.0034 -0.1489  0.1739
  598MOL0     C80621   4.148   8.691   8.173 -0.7244  1.0762 -0.2944
  598MOL0     C80622   4.024   8.746   8.136  0.3678 -0.6364 -0.1166
  598MOL0     C80623   4.028   8.895   8.149 -0.7499  0.3410  0.7324
  598MOL0     C80624   3.923   8.666   8.087  0.1381  0.2198  0.1136
  598MOL0     C80625   3.793   8.709   8.027  0.5247  1.0396 -0.3507
  598MOL0     O80626   3.727   8.606   7.957  0.8798 -0.1154 -0.2211
  598MOL0     C80627   3.598   8.637   7.922  0.3539  0.4245 -0.2566
  598MOL0     C80628   3.560   8.725   7.822 -0.4266  0.2540  0.3551
  598MOL0     C80629   3.430   8.754   7.790  0.2865 -0.6759  0.4834
  598MOL0     C80630   3.328   8.667   7.847  0.1494  0.5264  0.3463
  598MOL0     O80631   3.198   8.677   7.812  0.4238  0.0292 -0.0123
  598MOL0     C80632   3.176   8.676   7.670  0.1721  0.1827  0.3069
  598MOL0     C80633   3.076   8.560   7.633 -0.2668 -0.0412  0.6962
  598MOL0     C80634   2.934   8.571   7.686  0.1219  0.1751 -0.1467
  598MOL0     C80635   2.864   8.441   7.718  0.6596 -0.1728 -1.7324
  598MOL0     C80636   2.750   8.477   7.804  0.5929 -0.8901 -0.2530
  598MOL0     C80637   2.645   8.366   7.818 -0.5244  0.3909  0.0657
  598MOL0     C80638   2.518   8.415   7.901  0.3315 -0.1238  0.4370
  598MOL0     C80639   2.420   8.294   7.908  0.3773  0.5886 -0.1013
  598MOL0    Cl80640   2.270   8.311   8.019  0.1381 -0.4933  0.2321
  598MOL0     C80641   3.364   8.577   7.954  0.5736 -0.2992 -0.8892
  598MOL0     C80642   3.495   8.557   7.983  0.0383  0.1150  1.1755
  598MOL0     O80643   3.767   8.827   8.028 -0.1211  0.1344 -0.0734
  598MOL0     C80644   3.935   8.528   8.098 -0.5796 -0.5006 -0.6836
  598MOL0     C80645   4.054   8.471   8.154  0.0557 -0.1474 -0.0339
  598MOL0     N80646   4.814   8.511   8.337 -0.3123  0.1287 -0.1091
  598MOL0     N80647   4.903   8.498   8.250 -0.4171 -0.6462  0.5390
  598MOL0     C80648   5.857   8.068   8.179  0.9162 -1.1754  0.1643
  598MOL0     C80649   5.972   8.000   8.153 -0.2793  0.5843 -0.2750
  598MOL0     C80650   6.380   7.911   7.956 -1.2314  1.0537 -0.0687
  598MOL0     C80651   6.421   7.822   8.053 -0.1207 -1.3157  0.4602
  598MOL0     C80652   6.541   7.744   8.029 -0.7285  0.3156 -0.3887
  598MOL0     C80653   6.619   7.753   7.919 -0.5788  0.4214  0.1842
  598MOL0     O80654   6.738   7.678   7.914 -0.5659  0.2030 -0.6029
  598MOL0     C80655   6.848   7.730   7.835  0.8197 -0.0543  0.2079
  598MOL0     C80656   6.984   7.661   7.894  0.5610 -0.1079  0.1851
  598MOL0     C80657   7.016   7.510   7.875 -0.0579  1.4513  0.0564
  598MOL0     C80658   6.924   7.436   7.779  0.2201 -0.0633  0.1429
  598MOL0     C80659   6.956   7.475   7.636 -0.2056  0.0740  0.0530
  598MOL0     C80660   6.978   7.492   7.520 -0.1055 -0.2529 -0.5488
  598MOL0     C80661   6.576   7.840   7.814  1.0197 -0.0787 -1.1638
  598MOL0     C80662   6.465   7.926   7.839  0.8823  0.7797  0.1999
  598MOL0     H80663   6.158   8.263   8.051 -0.2825 -2.0980 -2.1230
  598MOL0     H80664   5.949   8.380   8.091  2.2089  0.1299  1.2296
  598MOL0     H80665   5.601   8.179   8.336  0.7537 -0.6212  1.4159
  598MOL0     H80666   5.753   8.228   8.396  0.2550  0.4710  0.0026
  598MOL0     H80667   5.560   8.366   8.468 -0.3091  1.1351  1.0915
  598MOL0     H80668   5.672   8.465   8.361 -1.1398  0.8105 -1.5833
  598MOL0     H80669   5.508   8.417   8.171 -1.8327  1.2236 -1.2283
  598MOL0     H80670   5.405   8.323   8.282  1.3518 -1.3052  0.6369
  598MOL0     H80671   5.360   8.536   8.412  1.4614  1.9835  0.9887
  598MOL0     H80672   5.485   8.629   8.340  0.2947 -0.7149  1.0660
  598MOL0     H80673   5.381   8.654   8.140 -0.1042 -2.1772 -2.7820
  598MOL0     H80674   5.279   8.504   8.154  0.1880 -0.7797  0.6722
  598MOL0     H80675   5.134   8.616   8.331 -0.0502  1.3621  1.2235
  598MOL0     H80676   5.244   8.756   8.334 -0.7854 -0.4328 -0.1727
  598MOL0     H80677   5.081   8.837   8.187  2.4304  2.0025 -1.4858
  598MOL0     H80678   5.191   8.781   8.074  1.0620 -1.8605 -0.1675
  598MOL0     H80679   5.068   8.555   8.062  3.1003  1.4825 -0.6314
  598MOL0     H80680   4.983   8.698   7.994  1.4326  4.0530  1.2330
  598MOL0     H80681   4.782   8.791   8.160  1.6610 -0.4948 -2.3806
  598MOL0     H80682   4.716   8.736   8.502  3.4564 -1.4979 -0.8950
  598MOL0     H80683   4.603   8.773   8.365  0.7123  1.2616  0.2219
  598MOL0     H80684   4.478   8.630   8.548 -1.4781 -1.6697 -0.3610
  598MOL0     H80685   4.602   8.506   8.528  1.6524  1.2339  1.4157
  598MOL0     H80686   4.440   8.415   8.413  2.5968  0.1188  0.9507
  598MOL0     H80687   4.557   8.461   8.300 -1.1315  0.8866 -1.3465
  598MOL0     H80688   4.418   8.652   8.235 -0.4634 -0.7971 -1.9888
  598MOL0     H80689   4.328   8.641   8.380  0.7269  2.9510 -0.4475
  598MOL0     H80690   4.223   8.762   8.204 -4.0552  4.1426  1.5054
  598MOL0     H80691   3.946   8.935   8.210 -0.7088  1.5232  0.0370
  598MOL0     H80692   4.118   8.934   8.197  0.4525 -1.3358 -0.0556
  598MOL0     H80693   4.004   8.925   8.047 -0.6713 -0.8089  0.3649
  598MOL0     H80694   3.634   8.787   7.773  1.2042 -1.2573  0.7888
  598MOL0     H80695   3.408   8.833   7.720 -1.6452 -0.0920  1.6764
  598MOL0     H80696   3.125   8.769   7.643  0.2868  0.3608  0.7029
  598MOL0     H80697   3.271   8.657   7.618  0.4172 -1.4637  1.2758
  598MOL0     H80698   3.071   8.550   7.524  0.9946  1.8244  0.4156
  598MOL0     H80699   3.117   8.467   7.673  1.5234 -0.5112 -1.9619
  598MOL0     H80700   2.870   8.633   7.623  0.6090 -0.5218 -1.3748
  598MOL0     H80701   2.938   8.629   7.778  0.8964 -0.8931  0.5248
  598MOL0     H80702   2.822   8.399   7.626  1.8020  1.3418 -3.0091
  598MOL0     H80703   2.925   8.377   7.783  0.4670  0.3675 -0.9986
  598MOL0     H80704   2.694   8.566   7.772 -0.8677 -1.5530  0.3531
  598MOL0     H80705   2.799   8.499   7.900  0.9473  1.5110 -0.9070
  598MOL0     H80706   2.613   8.332   7.720 -2.1113 -1.3288  1.1154
  598MOL0     H80707   2.691   8.278   7.865  0.1014  0.2663 -0.7609
  598MOL0     H80708   2.466   8.501   7.857  0.1015  0.0443  1.0374
  598MOL0     H80709   2.553   8.444   8.000  2.8337  0.4181 -0.5237
  598MOL0     H80710   2.488   8.223   7.956  2.0076  0.9991 -1.7553
  598MOL0     H80711   2.381   8.263   7.811  0.4634  1.0078 -0.2669
  598MOL0     H80712   3.281   8.526   8.003  0.6187 -0.0433 -0.5445
  598MOL0     H80713   3.522   8.484   8.059 -1.6604 -0.8806  0.8830
  598MOL0     H80714   3.857   8.456   8.075 -1.4575  0.7126 -1.7078
  598MOL0     H80715   4.065   8.363   8.161  3.2734  0.1800  1.4393
  598MOL0     H80716   5.775   8.014   8.225 -0.7460 -0.5169 -1.8862
  598MOL0     H80717   5.975   7.894   8.175 -0.7166  0.8362  1.1016
  598MOL0     H80718   6.356   7.806   8.139 -1.5194 -0.0041 -0.3177
  598MOL0     H80719   6.583   7.679   8.105 -1.3513  1.2334  0.7884
  598MOL0     H80720   6.840   7.699   7.730 -0.4749  2.6013 -0.5516
  598MOL0     H80721   6.854   7.839   7.840 -1.9921  0.3052 -1.8666
  598MOL0     H80722   6.984   7.671   8.003  1.2094 -0.1128  0.1904
  598MOL0     H80723   7.059   7.716   7.836 -0.7153  1.1613 -0.3412
  598MOL0     H80724   7.008   7.462   7.973 -0.6140 -0.9841 -1.0979
  598MOL0     H80725   7.122   7.502   7.847  0.6297 -0.1370  2.6829
  598MOL0     H80726   6.820   7.442   7.810  0.0558 -0.4305 -0.3268
  598MOL0     H80727   6.953   7.331   7.791 -0.8723 -0.3205  0.6520
  598MOL0     H80728   6.989   7.502   7.414 -0.4369  3.7264 -0.3534
  598MOL0     H80729   6.632   7.846   7.721  0.7581 -4.1834 -1.7404
  598MOL0     H80730   6.444   7.982   7.749 -0.6208  0.1221  0.1195
  599MOL0     O80731   8.647   0.232   9.669  1.0131  0.2474 -0.9945
  599MOL0     C80732   8.573   0.329   9.688  0.2114  0.3550  0.6992
  599MOL0     O80733   8.610   0.454   9.662 -0.0268 -0.4380 -0.1852
  599MOL0     C80734   8.737   0.494   9.621  0.2053  0.6326  0.3838
  599MOL0     C80735   8.741   0.601   9.527  0.3585  0.0383 -0.0920
  599MOL0     C80736   8.864   0.646   9.485 -0.3375  0.0167  1.0298
  599MOL0     C80737   8.987   0.590   9.530 -0.3513 -0.1439 -0.8564
  599MOL0     O80738   9.108   0.617   9.479  0.7232 -0.3953 -0.5790
  599MOL0     C80739   9.135   0.739   9.411 -0.2545  0.0550  0.3650
  599MOL0     C80740   9.285   0.743   9.390  0.2727  0.5715 -0.9900
  599MOL0     C80741   9.340   0.645   9.280  0.0976  0.2608 -0.8940
  599MOL0     C80742   9.477   0.672   9.212  0.0574 -0.7436 -0.4903
  599MOL0     C80743   9.509   0.584   9.091 -0.0129 -0.0456  0.2994
  599MOL0     C80744   9.644   0.612   9.027  0.0999 -0.8073 -0.7765
  599MOL0     C80745   9.664   0.506   8.919  0.8468  0.6846  0.1490
  599MOL0     C80746   9.779   0.525   8.822 -0.5263  0.6222 -0.7626
  599MOL0     N80747   9.754   0.650   8.742  0.2416  0.2117  0.1895
  599MOL0     C80748   9.662   0.657   8.635 -1.1155  0.6919  0.2143
  599MOL0     C80749   9.651   0.791   8.605  0.1097  0.3049  0.0548
  599MOL0     C80750   9.596   0.843   8.475  0.6378 -0.2977 -0.2237
  599MOL0     C80751   9.443   0.839   8.492 -0.7244  0.1920 -0.5048
  599MOL0     C80752   9.383   0.949   8.580 -1.2265 -0.8930 -0.0944
  599MOL0     C80753   9.233   0.939   8.611  0.0667 -0.2884 -0.3836
  599MOL0     O80754   9.187   0.809   8.641  0.7452 -0.0783  0.3581
  599MOL0     C80755   9.063   0.799   8.704  0.3292  0.7603  0.1657
  599MOL0     C80756   8.941   0.831   8.651 -0.2273  0.1182  0.9497
  599MOL0     C80757   8.817   0.817   8.717  0.3481 -0.5134 -0.3221
  599MOL0     C80758   8.696   0.889   8.646 -0.5042  0.1046 -0.2414
  599MOL0     C80759   8.819   0.764   8.853  0.3904 -0.7545 -0.1583
  599MOL0     C80760   8.689   0.735   8.937 -0.0812  0.1749  0.6759
  599MOL0     O80761   8.700   0.713   9.065 -0.1739  0.3125  0.6136
  599MOL0     C80762   8.590   0.667   9.137 -0.3818  0.2093  0.4295
  599MOL0     C80763   8.609   0.558   9.216 -0.6503 -0.1161 -1.0865
  599MOL0     C80764   8.501   0.507   9.297 -0.0925  0.1758 -0.4744
  599MOL0     C80765   8.388   0.579   9.305  0.6136  0.0051 -0.3025
  599MOL0     O80766   8.289   0.539   9.388 -0.2700 -0.4240  0.0976
  599MOL0     C80767   8.199   0.473   9.297  0.5632  0.9589  0.5186
  599MOL0     C80768   8.077   0.412   9.364 -0.6465  0.3923  0.6097
  599MOL0     C80769   7.984   0.518   9.401 -0.4840 -0.1801  0.0443
  599MOL0     C80770   7.985   0.549   9.553  0.8219  0.6653  0.5163
  599MOL0     C80771   7.894   0.657   9.617  0.1802  0.4788  0.3560
  599MOL0     C80772   7.751   0.683   9.569 -0.4787 -0.0033 -0.9967
  599MOL0     C80773   7.747   0.764   9.441 -0.0143 -0.9303  0.4286
  599MOL0     C80774   7.606   0.775   9.382  0.0698  0.2204 -0.4090
  599MOL0    Cl80775   7.497   0.827   9.510  0.3546  0.2357 -0.2792
  599MOL0     C80776   8.380   0.697   9.230  0.5144 -0.3539  0.0322
  599MOL0     C80777   8.475   0.744   9.142  0.8978  0.6403  0.0604
  599MOL0     O80778   8.583   0.763   8.878  0.0988 -0.4226 -0.6462
  599MOL0     C80779   8.940   0.720   8.905 -0.6802  0.5640  0.9107
  599MOL0     C80780   9.062   0.736   8.832 -0.2325  0.4928 -0.4543
  599MOL0     N80781   9.733   0.859   8.697  0.1017  0.7673 -0.1855
  599MOL0     N80782   9.792   0.776   8.774 -0.1179 -0.6937  0.1540
  599MOL0     C80783   8.977   0.480   9.618 -0.5713 -0.7475  0.2440
  599MOL0     C80784   8.853   0.427   9.665  0.3773 -0.1226 -0.8048
  599MOL0     C80785   8.437   0.309   9.744  0.4683 -0.2117  0.7741
  599MOL0     C80786   8.342   0.419   9.735 -0.3490 -0.0038 -0.2311
  599MOL0     C80787   8.217   0.408   9.795  1.1584 -0.3262  0.0735
  599MOL0     C80788   8.185   0.288   9.861 -0.1061  0.2776  0.3299
  599MOL0     O80789   8.068   0.261   9.921 -0.5872  0.9119  0.4679
  599MOL0     C80790   7.957   0.348   9.896 -0.3596 -0.6545  0.2358
  599MOL0     C80791   7.834   0.300   9.980  0.2717  0.1331 -1.1793
  599MOL0     C80792   7.696   0.375   9.942 -0.5992 -0.2004 -0.9072
  599MOL0     C80793   7.594   0.281   9.884 -0.2498 -0.1040 -0.3678
  599MOL0     C80794   7.475   0.350   9.878 -0.0169  0.1028 -0.3908
  599MOL0     C80795   7.372   0.408   9.890 -0.1810 -0.1470 -0.4154
  599MOL0     C80796   8.278   0.185   9.872  0.0132  0.7627  0.5294
  599MOL0     C80797   8.402   0.192   9.809  0.0550 -1.1140  0.0897
  599MOL0     H80798   8.647   0.642   9.490  0.1894 -1.2522 -1.1585
  599MOL0     H80799   8.882   0.729   9.417  2.6179 -0.4228  1.1201
  599MOL0     H80800   9.078   0.736   9.317 -1.3572 -2.8560  1.0047
  599MOL0     H80801   9.099   0.818   9.477 -0.4534 -1.6522  2.3941
  599MOL0     H80802   9.315   0.845   9.366 -2.2745  1.7609  0.4065
  599MOL0     H80803   9.314   0.718   9.492 -4.8246 -0.4836  0.5068
  599MOL0     H80804   9.360   0.553   9.335  0.2143  0.8196  0.0243
  599MOL0     H80805   9.257   0.636   9.210  0.2855  1.6595 -1.3416
  599MOL0     H80806   9.469   0.778   9.187  1.0524 -0.7890 -1.0701
  599MOL0     H80807   9.548   0.656   9.294 -1.8174 -2.0509  0.9477
  599MOL0     H80808   9.511   0.480   9.127  0.9623  0.0963  0.6827
  599MOL0     H80809   9.431   0.588   9.015 -0.4541 -2.7335  0.5057
  599MOL0     H80810   9.637   0.715   8.991 -2.0372 -0.3112  0.8571
  599MOL0     H80811   9.725   0.610   9.100  0.1494  0.4114 -0.7744
  599MOL0     H80812   9.658   0.403   8.955 -4.2388  0.4800 -0.5864
  599MOL0     H80813   9.575   0.510   8.855  0.2867 -0.7394  0.7892
  599MOL0     H80814   9.778   0.436   8.759  1.9583  1.4960 -2.1796
  599MOL0     H80815   9.867   0.523   8.887 -1.4029 -1.9169  0.4628
  599MOL0     H80816   9.615   0.571   8.590 -0.0823  0.7645 -1.0877
  599MOL0     H80817   9.625   0.948   8.473  0.5754 -0.2203  1.5793
  599MOL0     H80818   9.631   0.787   8.388  0.9980  2.2640 -1.8417
  599MOL0     H80819   9.413   0.742   8.533 -0.9451 -0.7546 -2.7537
  599MOL0     H80820   9.395   0.846   8.393 -2.0138  0.9903  0.1470
  599MOL0     H80821   9.393   1.041   8.521  2.2397 -2.9492 -3.1076
  599MOL0     H80822   9.436   0.959   8.675  1.0621  0.9554 -1.4711
  599MOL0     H80823   9.182   0.983   8.525  3.0525  1.0236 -1.6159
  599MOL0     H80824   9.213   1.007   8.695  3.0315 -0.3073  0.4418
  599MOL0     H80825   8.937   0.870   8.550 -2.7849  1.0278  1.3182
  599MOL0     H80826   8.674   0.986   8.691 -0.4996 -0.5137  1.1754
  599MOL0     H80827   8.730   0.900   8.543 -0.8937 -0.9087 -0.4941
  599MOL0     H80828   8.607   0.825   8.647 -2.1985  2.2927 -1.6999
  599MOL0     H80829   8.705   0.508   9.207 -0.3989  0.1696 -0.1254
  599MOL0     H80830   8.528   0.426   9.365 -1.6722 -1.5269 -1.7564
  599MOL0     H80831   8.161   0.540   9.219 -0.9009  0.3641  0.6785
  599MOL0     H80832   8.256   0.391   9.254  0.0750  0.7993  0.1728
  599MOL0     H80833   8.035   0.341   9.293 -0.8204  1.8565 -0.8159
  599MOL0     H80834   8.109   0.354   9.451 -0.8547  0.8470  0.9965
  599MOL0     H80835   7.883   0.503   9.361 -0.1465  0.9409 -1.3314
  599MOL0     H80836   8.002   0.612   9.348  1.2601 -0.9710 -0.8468
  599MOL0     H80837   7.958   0.454   9.601 -1.1965  1.2178  0.5307
  599MOL0     H80838   8.089   0.560   9.587  1.2427 -0.4510 -0.3199
  599MOL0     H80839   7.945   0.751   9.640  2.1029 -1.0210  2.7396
  599MOL0     H80840   7.872   0.618   9.717 -3.0602  1.4157  0.1433
  599MOL0     H80841   7.690   0.593   9.556 -0.2753  0.0714 -2.8055
  599MOL0     H80842   7.699   0.733   9.652 -1.9175 -0.2163 -1.7224
  599MOL0     H80843   7.811   0.728   9.360  1.0168  0.2359  0.7001
  599MOL0     H80844   7.787   0.864   9.458 -1.2015 -0.6011  1.4638
  599MOL0     H80845   7.569   0.687   9.329 -0.7992 -0.8417  1.8563
  599MOL0     H80846   7.618   0.862   9.316 -2.9002  0.9772 -0.1078
  599MOL0     H80847   8.296   0.764   9.247  1.1699  0.3608  0.5401
  599MOL0     H80848   8.457   0.837   9.090  1.5402  0.4751 -0.4733
  599MOL0     H80849   8.955   0.692   9.008  0.2106 -0.8224  0.4341
  599MOL0     H80850   9.160   0.702   8.864 -0.3755 -2.8660 -3.0307
  599MOL0     H80851   9.069   0.436   9.654 -1.9515 -2.0387  2.4286
  599MOL0     H80852   8.844   0.345   9.735 -1.3159  1.4451  0.9325
  599MOL0     H80853   8.366   0.510   9.681 -3.1839  1.3643  0.6047
  599MOL0     H80854   8.144   0.489   9.789  2.5964  0.9175 -2.3972
  599MOL0     H80855   7.983   0.449   9.927 -1.7924 -0.1865 -0.0346
  599MOL0     H80856   7.926   0.350   9.791 -1.8820 -0.7516  0.6673
  599MOL0     H80857   7.850   0.312  10.088 -2.2755  0.7968 -0.8268
  599MOL0     H80858   7.825   0.192   9.971  0.2100  0.1872 -1.8176
  599MOL0     H80859   7.717   0.452   9.868  2.8432 -1.8483 -1.8609
  599MOL0     H80860   7.655   0.423  10.031  0.5307 -2.3737  0.9279
  599MOL0     H80861   7.585   0.200   9.956  3.2778 -0.4435 -0.1259
  599MOL0     H80862   7.626   0.247   9.785 -0.4460  0.5575 -0.6676
  599MOL0     H80863   7.274   0.451   9.880 -0.8253 -1.9389 -2.9925
  599MOL0     H80864   8.251   0.092   9.920  0.7338 -1.7127 -3.3545
  599MOL0     H80865   8.478   0.115   9.816  1.0608 -0.1724 -0.2094
  600MOL0     O80866  10.865  10.675   4.091  0.4609 -0.0821  0.1668
  600MOL0     C80867  10.858  10.777   4.157 -1.1699  0.9405  0.1220
  600MOL0     O80868  10.758  10.865   4.161 -0.2695  0.7646  0.2563
  600MOL0     C80869  10.635  10.848   4.089 -0.4920 -0.4456  0.2532
  600MOL0     C80870  10.558  10.730   4.087  0.3617 -0.0398 -0.1739
  600MOL0     C80871  10.426  10.733   4.032  0.2809  0.6561  0.3726
  600MOL0     C80872  10.360  10.852   4.001 -0.5823  0.1873  0.0116
  600MOL0     O80873  10.231  10.853   3.957  1.1150  0.1014  0.2931
  600MOL0     C80874  10.140  10.960   4.001 -0.2471 -0.1188 -0.0079
  600MOL0     C80875  10.014  10.917   3.923  0.3620  0.0419  0.1769
  600MOL0     C80876   9.904  11.016   3.929 -0.0962  0.4972  0.1500
  600MOL0     C80877   9.772  10.940   3.888 -0.3797 -0.8736  0.4112
  600MOL0     C80878   9.645  11.028   3.898 -0.3131 -0.5274  0.3104
  600MOL0     C80879   9.530  10.943   3.955  0.1326 -0.4633  0.3010
  600MOL0     C80880   9.412  11.035   3.988  0.2147  0.0348 -0.8450
  600MOL0     C80881   9.313  11.070   3.879  0.3673  0.0549 -0.4256
  600MOL0     N80882   9.181  11.122   3.933 -0.0674 -0.0630 -0.1659
  600MOL0     C80883   9.117  11.244   3.921 -0.0125 -0.5743 -0.1059
  600MOL0     C80884   8.994  11.230   3.985 -0.6828 -0.2676  0.4705
  600MOL0     C80885   8.904  11.355   4.008 -1.0295  0.2492 -0.1726
  600MOL0     C80886   8.756  11.325   3.978  0.1529  0.0688 -0.2284
  600MOL0     C80887   8.667  11.446   3.983  0.1453 -0.4123 -0.5000
  600MOL0     C80888   8.521  11.431   3.949  0.5626  0.0249 -0.0209
  600MOL0     O80889   8.449  11.346   4.045 -0.3981  0.4066 -0.6439
  600MOL0     C80890   8.313  11.328   4.035  0.3356  0.6216 -0.2205
  600MOL0     C80891   8.265  11.236   4.125  0.3682  0.5034  0.5773
  600MOL0     C80892   8.135  11.201   4.130 -0.3090  0.2426  0.1395
  600MOL0     C80893   8.105  11.067   4.199 -0.5577 -0.0451 -0.3353
  600MOL0     C80894   8.033  11.275   4.058 -0.1952  0.5158 -0.7456
  600MOL0     C80895   7.891  11.236   4.057  0.0348  0.8153  0.4858
  600MOL0     O80896   7.838  11.259   3.935  0.5212  0.0383  0.3782
  600MOL0     C80897   7.704  11.220   3.920  0.2208  0.1546  0.8393
  600MOL0     C80898   7.659  11.089   3.899 -0.7369 -1.0989 -0.4040
  600MOL0     C80899   7.521  11.061   3.882 -1.1775 -0.9900  0.0374
  600MOL0     C80900   7.427  11.160   3.863  1.3869 -0.8220 -0.5315
  600MOL0     O80901   7.303  11.125   3.824  0.0314  0.6858 -0.1361
  600MOL0     C80902   7.198  11.224   3.820  0.2311  0.2677  1.0095
  600MOL0     C80903   7.079  11.196   3.738  0.7245  0.9423 -0.0491
  600MOL0     C80904   6.995  11.075   3.779 -0.6791 -0.7151  0.0181
  600MOL0     C80905   6.889  11.036   3.676  0.3854  0.1332 -0.3886
  600MOL0     C80906   6.782  10.938   3.731 -0.3921 -0.3772 -0.0374
  600MOL0     C80907   6.658  10.957   3.645 -0.2867  0.3604  0.3964
  600MOL0     C80908   6.543  10.856   3.679 -0.1456 -0.2673  0.0468
  600MOL0     C80909   6.430  10.878   3.580  0.2637  0.1890 -0.5577
  600MOL0    Cl80910   6.285  10.787   3.652 -0.6967 -0.2202  0.2709
  600MOL0     C80911   7.469  11.294   3.886  0.1567  0.2457 -0.3833
  600MOL0     C80912   7.607  11.325   3.921  0.2065  0.8152  0.1434
  600MOL0     O80913   7.835  11.195   4.155 -0.4446 -0.6395 -0.1580
  600MOL0     C80914   8.075  11.380   3.990 -0.2302 -0.9279  0.2923
  600MOL0     C80915   8.215  11.410   3.969 -0.0547  1.4014  0.1048
  600MOL0     N80916   8.983  11.100   4.025 -0.9016 -1.1881  0.2818
  600MOL0     N80917   9.102  11.031   3.999  0.2277 -0.2306 -0.7119
  600MOL0     C80918  10.439  10.971   4.007  0.2466  0.8798  0.2212
  600MOL0     C80919  10.577  10.960   4.049  0.0246  0.0924  1.1268
  600MOL0     C80920  10.987  10.814   4.220  0.3967  0.1522 -0.7843
  600MOL0     C80921  11.107  10.780   4.163 -0.2759 -1.2923  0.4584
  600MOL0     C80922  11.235  10.817   4.220 -0.4395 -0.4303 -0.1505
  600MOL0     C80923  11.240  10.877   4.339  0.5975 -0.6474  0.7200
  600MOL0     O80924  11.366  10.899   4.391 -0.0090  0.3282  0.0706
  600MOL0     C80925  11.389  10.950   4.519 -0.4123 -0.8048  0.9760
  600MOL0     C80926  11.536  10.964   4.546 -0.1915 -0.0783 -0.4492
  600MOL0     C80927  11.611  10.983   4.416 -1.3928  0.2249  0.2356
  600MOL0     C80928  11.757  11.010   4.453 -0.7513  0.5148  0.0591
  600MOL0     C80929  11.841  11.058   4.350 -1.1340 -0.4081  0.0206
  600MOL0     C80930  11.917  11.089   4.257 -0.1764  0.6504  0.4724
  600MOL0     C80931  11.111  10.909   4.402 -0.2912  0.3724  0.4569
  600MOL0     C80932  10.991  10.880   4.335  0.8220  0.3865 -1.6714
  600MOL0     H80933  10.600  10.637   4.124 -1.8902 -1.0714 -0.0124
  600MOL0     H80934  10.379  10.637   4.017 -2.6421  2.4191 -3.4418
  600MOL0     H80935  10.122  10.980   4.107 -0.1244  0.4434 -0.0858
  600MOL0     H80936  10.177  11.053   3.956  2.7740 -1.6140 -0.8710
  600MOL0     H80937  10.039  10.899   3.818 -2.6570 -1.0616 -0.4595
  600MOL0     H80938   9.978  10.817   3.950 -1.5013  0.6162 -0.0282
  600MOL0     H80939   9.911  11.050   4.032 -2.0156  0.7298  0.2377
  600MOL0     H80940   9.921  11.104   3.867  0.8519  0.7070  0.6820
  600MOL0     H80941   9.775  10.911   3.783  0.1781  1.6801 -0.3452
  600MOL0     H80942   9.761  10.855   3.956  0.4794 -0.9504  0.4646
  600MOL0     H80943   9.671  11.118   3.955  0.2711  0.8717 -2.0411
  600MOL0     H80944   9.611  11.072   3.804 -0.2331  1.9223  1.3693
  600MOL0     H80945   9.500  10.862   3.888  1.1886 -0.0131 -0.7464
  600MOL0     H80946   9.558  10.907   4.055 -1.6940  0.6944  1.2994
  600MOL0     H80947   9.358  10.988   4.072  1.3211  0.3130  0.0489
  600MOL0     H80948   9.462  11.127   4.018  1.6117 -1.6557  2.6894
  600MOL0     H80949   9.294  10.985   3.813  1.8277  0.2832 -1.1925
  600MOL0     H80950   9.359  11.145   3.814 -0.4001  0.0754 -0.9718
  600MOL0     H80951   9.159  11.332   3.873 -1.1554  0.3995  0.6025
  600MOL0     H80952   8.903  11.393   4.110 -1.3859  0.9785 -0.4383
  600MOL0     H80953   8.952  11.434   3.948  2.1800 -1.5471 -0.2267
  600MOL0     H80954   8.715  11.246   4.042  0.8345  0.4771  0.7345
  600MOL0     H80955   8.746  11.298   3.872  0.0972  4.0383 -1.4046
  600MOL0     H80956   8.709  11.524   3.919 -0.3756  2.5273  2.5106
  600MOL0     H80957   8.664  11.482   4.086 -0.0505 -1.0898 -0.2612
  600MOL0     H80958   8.508  11.378   3.854  3.5557  0.9586 -1.0801
  600MOL0     H80959   8.492  11.531   3.919  1.3975  1.0687  2.4014
  600MOL0     H80960   8.339  11.191   4.190  0.7926  0.9207  0.3806
  600MOL0     H80961   8.024  11.080   4.272 -0.3231  1.1932 -0.2749
  600MOL0     H80962   8.077  10.992   4.124  1.3987  0.4815 -1.6778
  600MOL0     H80963   8.195  11.016   4.235 -0.0371 -0.9316 -2.7011
  600MOL0     H80964   7.726  11.006   3.917  0.5803  0.3877  2.1027
  600MOL0     H80965   7.491  10.958   3.861 -0.0718 -0.7370 -3.5153
  600MOL0     H80966   7.166  11.243   3.923  0.0843 -0.5177  1.1137
  600MOL0     H80967   7.225  11.318   3.770 -2.0843  1.2587  1.5152
  600MOL0     H80968   7.007  11.277   3.746 -1.4187 -0.9873  1.8766
  600MOL0     H80969   7.100  11.190   3.630 -3.2353 -2.4164 -0.8764
  600MOL0     H80970   6.952  11.092   3.878  1.0392  0.0049  0.6819
  600MOL0     H80971   7.063  10.990   3.788  3.4447  2.4735  1.8788
  600MOL0     H80972   6.841  11.120   3.626  0.0976  0.2195  0.0330
  600MOL0     H80973   6.940  10.983   3.595 -0.5372 -1.5708  0.0811
  600MOL0     H80974   6.772  10.953   3.839  0.5381  0.4744 -0.0444
  600MOL0     H80975   6.816  10.834   3.734  0.7400 -0.0288 -0.3881
  600MOL0     H80976   6.626  11.058   3.670  1.2651  0.8061  0.6934
  600MOL0     H80977   6.675  10.961   3.537  1.3944  1.7458  0.6664
  600MOL0     H80978   6.517  10.867   3.784 -1.6044 -0.3583 -0.2787
  600MOL0     H80979   6.573  10.752   3.658  0.3404 -0.0869 -0.1727
  600MOL0     H80980   6.445  10.835   3.480 -0.9581 -1.9999  0.1143
  600MOL0     H80981   6.409  10.985   3.573  3.1860  0.7716 -1.6071
  600MOL0     H80982   7.404  11.382   3.886 -1.9359 -1.2297 -0.3150
  600MOL0     H80983   7.631  11.430   3.931 -1.6356  1.2498  0.2097
  600MOL0     H80984   7.995  11.433   3.940  0.6254 -0.9971 -1.2289
  600MOL0     H80985   8.262  11.482   3.904  0.3932  0.3603 -0.7588
  600MOL0     H80986  10.391  11.063   3.975  0.3518  0.6986 -0.4678
  600MOL0     H80987  10.647  11.043   4.059  3.2764 -2.1106 -1.2611
  600MOL0     H80988  11.102  10.731   4.066 -2.4639  0.5220 -0.4184
  600MOL0     H80989  11.332  10.791   4.181 -0.1400 -0.6534  0.7141
  600MOL0     H80990  11.341  11.048   4.520  0.3433 -0.4154  2.7885
  600MOL0     H80991  11.338  10.888   4.593 -1.6459  0.2252  1.0285
  600MOL0     H80992  11.574  10.875   4.597 -2.0667  0.1403  1.4260
  600MOL0     H80993  11.546  11.047   4.616  0.9542 -1.2986  0.9164
  600MOL0     H80994  11.576  11.069   4.359 -1.2451  1.1755  1.5384
  600MOL0     H80995  11.604  10.891   4.356 -1.1341 -0.9704  1.9477
  600MOL0     H80996  11.802  10.917   4.490 -0.2315  0.3758 -0.8755
  600MOL0     H80997  11.757  11.086   4.532 -1.6903  0.0259  0.5402
  600MOL0     H80998  11.982  11.132   4.183 -1.1189  2.0556  0.4255
  600MOL0     H80999  11.101  10.957   4.499  0.1445  1.3019  0.0577
  600MOL0     H81000  10.902  10.917   4.386  1.3284  0.8971 -1.1397
  601MOL0     O81001   4.590   4.374   0.050  0.1504  0.4569  0.3526
  601MOL0     C81002   4.672   4.281   0.066  0.3356 -0.4732 -0.2010
  601MOL0     O81003   4.651   4.146   0.058  0.3448 -0.4014 -0.2800
  601MOL0     C81004   4.523   4.110   0.047 -1.2293  0.1688  0.1684
  601MOL0     C81005   4.491   4.051  -0.074 -0.5575 -0.1836 -0.5505
  601MOL0     C81006   4.364   4.008  -0.102  0.3684 -0.1844  0.2854
  601MOL0     C81007   4.264   4.027  -0.002 -0.0282  0.6637  0.6579
  601MOL0     O81008   4.137   3.985  -0.041 -0.5651  0.0542  0.0504
  601MOL0     C81009   4.028   4.000   0.051 -0.1731  0.4207 -0.3116
  601MOL0     C81010   3.904   3.933  -0.022 -0.5315 -0.8266  0.4899
  601MOL0     C81011   3.780   3.903   0.066 -0.8819  0.5707  0.0886
  601MOL0     C81012   3.662   3.843  -0.012  0.2381  0.0230 -0.3152
  601MOL0     C81013   3.545   3.818   0.078  0.3359  0.5438  0.0014
  601MOL0     C81014   3.418   3.780   0.001 -0.2718 -0.0524 -0.4434
  601MOL0     C81015   3.316   3.746   0.108  0.6875 -0.0057 -0.0328
  601MOL0     C81016   3.176   3.733   0.048  0.3508 -0.3237 -0.0354
  601MOL0     N81017   3.078   3.707   0.144 -0.6414 -0.6007  0.4826
  601MOL0     C81018   3.068   3.597   0.225  0.2357 -0.1441 -0.2935
  601MOL0     C81019   2.957   3.623   0.291 -0.2391 -0.4534 -0.8659
  601MOL0     C81020   2.889   3.520   0.389 -0.5592  0.1934  0.2396
  601MOL0     C81021   2.845   3.576   0.518  0.0343 -0.2154 -0.0825
  601MOL0     C81022   2.783   3.480   0.614 -0.6665 -0.3811  0.0323
  601MOL0     C81023   2.630   3.481   0.600  0.3760  0.7283 -0.5759
  601MOL0     O81024   2.572   3.388   0.696 -0.2544 -0.1723 -0.0095
  601MOL0     C81025   2.442   3.396   0.728  0.3764  0.5760 -1.3093
  601MOL0     C81026   2.338   3.452   0.655 -0.0353 -0.7661 -0.1499
  601MOL0     C81027   2.203   3.458   0.707  0.0023 -0.5856 -0.4426
  601MOL0     C81028   2.104   3.536   0.623 -0.7414 -0.2684 -0.5149
  601MOL0     C81029   2.163   3.392   0.830  0.0164 -0.0433  0.5063
  601MOL0     C81030   2.033   3.375   0.882  0.4118 -0.4485  1.5187
  601MOL0     O81031   2.002   3.388   1.019 -0.2442 -0.0065 -0.0379
  601MOL0     C81032   1.875   3.367   1.063 -0.1316 -0.9784 -0.2696
  601MOL0     C81033   1.762   3.444   1.020 -0.8048  0.4713  0.0167
  601MOL0     C81034   1.633   3.422   1.053 -0.7807  0.2898 -0.1396
  601MOL0     C81035   1.599   3.316   1.141 -0.0667  0.2474 -0.1382
  601MOL0     O81036   1.473   3.301   1.179  0.0316 -0.0393  1.2184
  601MOL0     C81037   1.444   3.247   1.316 -0.2114  0.2366  0.2406
  601MOL0     C81038   1.300   3.250   1.356  0.5679 -0.0270  0.0332
  601MOL0     C81039   1.224   3.375   1.325  0.3751 -0.2570  0.7223
  601MOL0     C81040   1.070   3.346   1.342  0.0743  0.1525  0.2748
  601MOL0     C81041   1.018   3.364   1.478  0.1715 -0.0307  0.1188
  601MOL0     C81042   0.865   3.338   1.473 -0.2200 -0.0996 -0.2415
  601MOL0     C81043   0.815   3.359   1.617  0.5401 -0.7605 -0.8657
  601MOL0     C81044   0.656   3.352   1.601  0.4955 -0.0057 -0.1890
  601MOL0    Cl81045   0.607   3.187   1.525 -0.3176 -0.2074 -0.0574
  601MOL0     C81046   1.717   3.249   1.192  0.2890 -0.1765  0.0170
  601MOL0     C81047   1.852   3.268   1.159 -0.1659  0.1261  0.3786
  601MOL0     O81048   1.945   3.348   0.799 -0.5332 -0.5795  0.3612
  601MOL0     C81049   2.271   3.322   0.896  0.7112 -0.0988 -0.7055
  601MOL0     C81050   2.401   3.330   0.849  0.2132  0.0912  1.1211
  601MOL0     N81051   2.913   3.749   0.274  0.5870  0.6219  0.5479
  601MOL0     N81052   2.988   3.800   0.182 -0.9465 -0.0876 -0.2406
  601MOL0     C81053   4.296   4.100   0.112  0.6472  0.7840  0.8731
  601MOL0     C81054   4.429   4.149   0.140 -0.0464 -0.4900  0.6465
  601MOL0     C81055   4.815   4.330   0.097  0.3722  0.9978  0.0863
  601MOL0     C81056   4.849   4.464   0.094 -0.5334 -0.3039  0.0691
  601MOL0     C81057   4.977   4.504   0.115 -0.0841  0.6039  0.4404
  601MOL0     C81058   5.083   4.409   0.130 -0.6582 -0.1267  0.3849
  601MOL0     O81059   5.218   4.451   0.134  0.5962 -0.5479  0.0846
  601MOL0     C81060   5.249   4.561   0.226  0.0597  0.9407 -0.2482
  601MOL0     C81061   5.307   4.679   0.156 -0.5495  0.5970 -0.0757
  601MOL0     C81062   5.300   4.789   0.262  0.6181  0.4566  0.3218
  601MOL0     C81063   5.364   4.918   0.219  0.1354  0.7694  0.9688
  601MOL0     C81064   5.308   4.994   0.104  0.0011 -0.2501  0.3124
  601MOL0     C81065   5.260   5.056   0.014 -0.5206  0.3712  0.3004
  601MOL0     C81066   5.058   4.270   0.124  0.7055  0.2910 -1.8828
  601MOL0     C81067   4.919   4.240   0.111 -0.4504  0.2035 -0.9552
  601MOL0     H81068   4.569   4.039  -0.149  0.4839 -1.1137  0.6291
  601MOL0     H81069   4.344   3.948  -0.190  2.1371 -0.5425  0.0764
  601MOL0     H81070   4.045   3.944   0.143  3.4237  1.3227 -0.2942
  601MOL0     H81071   4.013   4.106   0.075 -0.5694  0.4458 -0.6585
  601MOL0     H81072   3.868   3.990  -0.108 -1.2678 -0.6555  0.9081
  601MOL0     H81073   3.933   3.838  -0.070 -1.8267  0.0515 -2.2489
  601MOL0     H81074   3.801   3.833   0.147 -0.3092 -0.0055 -0.5390
  601MOL0     H81075   3.742   4.001   0.097 -2.5738  0.1987 -0.7150
  601MOL0     H81076   3.633   3.915  -0.088  2.0525  0.1094 -0.9734
  601MOL0     H81077   3.693   3.753  -0.065 -0.2371  0.2917 -1.0596
  601MOL0     H81078   3.572   3.734   0.143 -0.4578 -0.9732 -1.5468
  601MOL0     H81079   3.522   3.911   0.130 -0.0181  2.6572 -3.6214
  601MOL0     H81080   3.374   3.862  -0.057 -0.5920  1.0069  1.2522
  601MOL0     H81081   3.436   3.687  -0.054  1.2786 -1.0107  1.5681
  601MOL0     H81082   3.333   3.648   0.154 -3.0343 -1.8157 -2.0404
  601MOL0     H81083   3.324   3.826   0.182  0.3695  0.5278 -0.5659
  601MOL0     H81084   3.185   3.656  -0.029  1.8640  0.4707 -0.6945
  601MOL0     H81085   3.153   3.831   0.004 -0.6231  0.1126  1.3946
  601MOL0     H81086   3.122   3.504   0.218 -2.1519 -1.5407 -1.4360
  601MOL0     H81087   2.817   3.460   0.334 -0.1824 -0.3441  0.3186
  601MOL0     H81088   2.975   3.454   0.406  0.5080  1.6628  0.7181
  601MOL0     H81089   2.772   3.650   0.483  0.7572 -0.3968 -2.0962
  601MOL0     H81090   2.927   3.629   0.567 -1.5945 -0.2544  2.9476
  601MOL0     H81091   2.810   3.516   0.713  0.6364 -0.4319 -0.2780
  601MOL0     H81092   2.827   3.380   0.610  0.0327 -0.0642 -0.3211
  601MOL0     H81093   2.604   3.437   0.503  0.5683  1.0265 -0.7623
  601MOL0     H81094   2.590   3.582   0.611 -0.7953  0.3815 -1.3764
  601MOL0     H81095   2.365   3.498   0.560  1.1813  1.7967  1.3378
  601MOL0     H81096   2.067   3.463   0.550 -0.6533 -0.5413 -0.2858
  601MOL0     H81097   2.015   3.561   0.681 -0.5901 -1.2396  0.1558
  601MOL0     H81098   2.143   3.624   0.571  0.0455 -0.6813 -0.6405
  601MOL0     H81099   1.784   3.530   0.957 -0.4586 -0.2617 -0.8809
  601MOL0     H81100   1.555   3.495   1.033  0.0350  0.5015 -3.0362
  601MOL0     H81101   1.478   3.146   1.339 -1.1946 -0.2467 -0.3616
  601MOL0     H81102   1.484   3.317   1.390 -2.8314 -0.2364  2.2598
  601MOL0     H81103   1.249   3.167   1.307 -1.0596  1.0938 -0.2649
  601MOL0     H81104   1.292   3.231   1.463 -0.5392 -1.4070 -0.2679
  601MOL0     H81105   1.247   3.400   1.221 -2.1367 -2.0058 -0.3598
  601MOL0     H81106   1.261   3.463   1.379 -0.3138 -0.3042  1.2862
  601MOL0     H81107   1.027   3.426   1.282  0.2749 -1.2369 -1.8544
  601MOL0     H81108   1.020   3.255   1.306 -2.0361  0.9212  1.0997
  601MOL0     H81109   1.040   3.466   1.512 -0.1428  0.1163 -0.1156
  601MOL0     H81110   1.073   3.296   1.544  1.4759 -0.2904 -1.1780
  601MOL0     H81111   0.823   3.405   1.397  2.5737  0.0765 -1.7624
  601MOL0     H81112   0.844   3.234   1.447  2.3920 -0.6179 -0.5550
  601MOL0     H81113   0.849   3.458   1.650 -0.4507 -1.2510  1.8855
  601MOL0     H81114   0.841   3.278   1.686  0.5368  1.8862  2.4667
  601MOL0     H81115   0.615   3.436   1.544  0.1915 -0.5665 -0.8069
  601MOL0     H81116   0.603   3.357   1.696 -1.3253 -0.9610 -1.1021
  601MOL0     H81117   1.703   3.177   1.272  0.2935  2.0785  2.1835
  601MOL0     H81118   1.933   3.208   1.198  1.6209  3.0824  1.5959
  601MOL0     H81119   2.242   3.262   0.982 -3.1377 -1.2897 -2.6207
  601MOL0     H81120   2.483   3.278   0.898 -0.2769 -1.4779  0.3276
  601MOL0     H81121   4.219   4.114   0.187 -0.4761  2.7807 -0.5691
  601MOL0     H81122   4.454   4.196   0.235  0.0602 -0.2717  0.5096
  601MOL0     H81123   4.773   4.538   0.076  1.4746  1.4744 -1.5705
  601MOL0     H81124   4.982   4.612   0.101  1.0593  0.7499  1.7379
  601MOL0     H81125   5.170   4.598   0.292  2.3919  4.5068  0.8531
  601MOL0     H81126   5.320   4.523   0.300 -4.2220 -1.5896  3.0272
  601MOL0     H81127   5.247   4.696   0.067  1.5502  0.0133 -1.6807
  601MOL0     H81128   5.413   4.658   0.136 -0.8197 -0.7228 -0.1866
  601MOL0     H81129   5.346   4.750   0.354 -1.3268 -0.4477  0.9519
  601MOL0     H81130   5.195   4.807   0.284  0.0250  0.5564 -2.3205
  601MOL0     H81131   5.473   4.909   0.215  0.2481  0.4915  3.1771
  601MOL0     H81132   5.348   4.985   0.305  1.9018  0.0316  1.9266
  601MOL0     H81133   5.219   5.118  -0.063 -1.3453  0.8038  1.0725
  601MOL0     H81134   5.141   4.202   0.143  0.1173  0.4913  2.2577
  601MOL0     H81135   4.893   4.135   0.121 -0.6693  0.3393  0.0541
  602MOL0     O81136   2.337   4.563   0.531 -0.0096  0.4298  0.3495
  602MOL0     C81137   2.370   4.658   0.459 -0.2042  0.0734 -0.9495
  602MOL0     O81138   2.295   4.761   0.423 -0.2555 -0.1482  0.5465
  602MOL0     C81139   2.165   4.777   0.458  0.7592 -0.2725  0.0327
  602MOL0     C81140   2.087   4.830   0.361  0.5640  0.1121  0.1870
  602MOL0     C81141   1.954   4.868   0.390  0.2084  0.6974  0.8347
  602MOL0     C81142   1.911   4.863   0.527 -0.1197 -0.1978 -0.5891
  602MOL0     O81143   1.794   4.904   0.580 -0.2103 -0.3284  0.1402
  602MOL0     C81144   1.680   4.924   0.495  0.2233 -0.2931 -0.8180
  602MOL0     C81145   1.554   4.949   0.593  0.4861 -0.0537  0.2538
  602MOL0     C81146   1.413   4.951   0.524  0.1123 -0.1867  0.1901
  602MOL0     C81147   1.309   4.978   0.632  0.5894 -0.1787  0.1683
  602MOL0     C81148   1.166   4.972   0.587 -0.2093  1.1012  1.2881
  602MOL0     C81149   1.121   5.042   0.449 -0.1086  0.2841  0.3550
  602MOL0     C81150   0.994   4.983   0.393 -0.6613 -0.6649 -0.6054
  602MOL0     C81151   0.951   5.034   0.254  0.7519  0.0856 -0.0739
  602MOL0     N81152   0.926   5.178   0.240  0.0175 -0.1284  0.1344
  602MOL0     C81153   0.827   5.262   0.291 -0.0748 -0.6301 -0.6585
  602MOL0     C81154   0.875   5.392   0.268 -0.4085 -0.5400  0.1413
  602MOL0     C81155   0.801   5.524   0.289  0.3991 -0.1788  0.2129
  602MOL0     C81156   0.868   5.635   0.212 -0.6454 -0.1619 -0.4711
  602MOL0     C81157   0.809   5.771   0.207 -0.3706  0.4670  0.3177
  602MOL0     C81158   0.667   5.791   0.161  0.5940 -0.5567 -0.0088
  602MOL0     O81159   0.676   5.809   0.020  0.6624  0.2012  0.4049
  602MOL0     C81160   0.557   5.857  -0.045  0.1733 -0.3540 -0.2820
  602MOL0     C81161   0.433   5.880   0.012  0.2304  0.0000 -0.4921
  602MOL0     C81162   0.320   5.922  -0.057 -0.4741  0.6287  0.7994
  602MOL0     C81163   0.181   5.917   0.003  0.6240 -0.2553 -1.2440
  602MOL0     C81164   0.340   5.965  -0.193 -0.3672 -0.2368 -1.2348
  602MOL0     C81165   0.230   6.017  -0.282  0.0940  0.2886 -0.1447
  602MOL0     O81166   0.258   5.996  -0.414  0.2542 -0.0533 -0.8807
  602MOL0     C81167   0.143   5.981  -0.493 -0.5579  0.3766 -0.0871
  602MOL0     C81168   0.100   5.849  -0.523 -0.2188 -0.7211 -0.4266
  602MOL0     C81169  -0.014   5.830  -0.603 -1.1382 -0.1283  0.5049
  602MOL0     C81170  -0.078   5.936  -0.659  0.4461 -1.1565  0.6601
  602MOL0     O81171  -0.181   5.938  -0.754  0.7541 -0.1422  0.2846
  602MOL0     C81172  -0.211   5.817  -0.819 -0.3034 -0.1545 -0.0424
  602MOL0     C81173  -0.307   5.820  -0.941 -0.0513 -0.7439 -0.7674
  602MOL0     C81174  -0.243   5.904  -1.054 -0.1960  0.0364 -0.6770
  602MOL0     C81175  -0.316   5.909  -1.186  0.5839 -1.0400 -0.2978
  602MOL0     C81176  -0.228   5.984  -1.292  0.4001  0.1825 -0.0877
  602MOL0     C81177  -0.289   5.989  -1.430  0.0929 -0.8518 -0.2739
  602MOL0     C81178  -0.343   5.855  -1.479  0.1556 -0.8231 -0.7390
  602MOL0     C81179  -0.338   5.836  -1.622 -0.8999 -0.1157 -0.2648
  602MOL0    Cl81180  -0.443   5.706  -1.683 -0.4965 -0.1130  0.3055
  602MOL0     C81181  -0.031   6.064  -0.627 -1.4162  0.3678 -0.9771
  602MOL0     C81182   0.076   6.088  -0.545 -0.0381 -0.1599  0.1548
  602MOL0     O81183   0.127   6.064  -0.242  0.2315 -0.1779 -0.2005
  602MOL0     C81184   0.462   5.943  -0.248  0.2859  0.0282 -0.1709
  602MOL0     C81185   0.571   5.894  -0.179  0.1267  0.5959  0.1732
  602MOL0     N81186   1.000   5.381   0.206 -0.3393  0.1201  0.9603
  602MOL0     N81187   1.025   5.252   0.186 -0.6328  0.2550  0.0382
  602MOL0     C81188   1.994   4.811   0.625 -0.3650  0.0584  0.5388
  602MOL0     C81189   2.124   4.768   0.587 -0.6336  0.0896 -0.0718
  602MOL0     C81190   2.518   4.662   0.435  0.1669  0.0682  0.8025
  602MOL0     C81191   2.615   4.587   0.506 -0.2442 -0.3369 -0.8191
  602MOL0     C81192   2.755   4.598   0.476  0.5640  0.5202 -0.6694
  602MOL0     C81193   2.794   4.689   0.378  0.0859  0.1044  0.2221
  602MOL0     O81194   2.931   4.702   0.353 -0.2257  0.1568 -0.0030
  602MOL0     C81195   2.982   4.770   0.239  0.0434 -0.8460  1.1404
  602MOL0     C81196   3.137   4.742   0.224  0.2430 -0.1080 -0.3415
  602MOL0     C81197   3.164   4.594   0.193  0.0816 -0.3816  0.5009
  602MOL0     C81198   3.313   4.561   0.192  0.4416 -0.5353 -0.4269
  602MOL0     C81199   3.379   4.599   0.065  0.6410 -1.3883 -0.4115
  602MOL0     C81200   3.435   4.653  -0.023 -0.4784  0.6656  0.7648
  602MOL0     C81201   2.695   4.757   0.306  0.2725  0.3667  0.1210
  602MOL0     C81202   2.561   4.743   0.333  0.6645 -0.6102 -0.5543
  602MOL0     H81203   2.123   4.846   0.260  0.1829  2.2543  0.3471
  602MOL0     H81204   1.886   4.920   0.322  0.1661  1.0154  1.1170
  602MOL0     H81205   1.690   5.006   0.422  0.2557  0.9348  0.5179
  602MOL0     H81206   1.672   4.834   0.434 -0.2550 -0.7792 -0.0557
  602MOL0     H81207   1.557   4.859   0.654  1.6115 -2.2670 -2.8420
  602MOL0     H81208   1.584   5.026   0.665  5.6110 -3.7820  2.7123
  602MOL0     H81209   1.405   5.039   0.460  0.6068  1.7915  2.7132
  602MOL0     H81210   1.410   4.853   0.475 -0.1904 -0.4538  0.7207
  602MOL0     H81211   1.314   4.898   0.707  1.4034 -0.6983 -0.4358
  602MOL0     H81212   1.320   5.082   0.664 -1.1970 -0.2134  1.0592
  602MOL0     H81213   1.143   4.867   0.571  2.0642  0.8513 -0.9002
  602MOL0     H81214   1.095   4.993   0.667  0.5121  0.4099  2.1324
  602MOL0     H81215   1.108   5.150   0.461  1.5943  0.7473 -1.4815
  602MOL0     H81216   1.201   5.025   0.377 -2.1163  1.7062 -2.3941
  602MOL0     H81217   1.000   4.875   0.377 -2.2246 -0.9431  0.5446
  602MOL0     H81218   0.911   4.996   0.463 -0.4905 -2.8184  0.0744
  602MOL0     H81219   0.860   4.988   0.213  1.8680 -0.6362 -1.8579
  602MOL0     H81220   1.034   5.006   0.189  1.2546 -1.0523  1.0366
  602MOL0     H81221   0.734   5.239   0.341 -0.0757  0.0536 -0.3399
  602MOL0     H81222   0.699   5.516   0.251  0.6963 -0.3572 -0.5627
  602MOL0     H81223   0.800   5.556   0.394  1.2849 -1.3100  0.5901
  602MOL0     H81224   0.884   5.600   0.110  0.7968  0.3654 -0.4433
  602MOL0     H81225   0.969   5.652   0.252 -0.6232 -1.2927  0.0253
  602MOL0     H81226   0.874   5.835   0.147  2.8684  0.4437  3.4274
  602MOL0     H81227   0.810   5.802   0.312 -0.1278  2.8210 -0.3398
  602MOL0     H81228   0.622   5.881   0.204 -0.9839 -1.3055 -0.0245
  602MOL0     H81229   0.595   5.710   0.174 -0.2131  0.0396 -0.7086
  602MOL0     H81230   0.421   5.851   0.115  0.4147 -1.3317 -0.8255
  602MOL0     H81231   0.108   5.892  -0.075  0.6934 -0.6505 -1.1838
  602MOL0     H81232   0.175   5.837   0.077 -0.4717  1.6834  0.8968
  602MOL0     H81233   0.162   6.008   0.060 -1.0478 -1.3995  0.1565
  602MOL0     H81234   0.158   5.763  -0.491  1.2746 -0.0318 -1.1844
  602MOL0     H81235  -0.049   5.728  -0.617  2.0165 -1.4520  1.4922
  602MOL0     H81236  -0.123   5.765  -0.857  1.7691  2.1759  1.3303
  602MOL0     H81237  -0.257   5.761  -0.737  2.9811 -2.5328  0.3431
  602MOL0     H81238  -0.334   5.723  -0.983 -1.2589 -0.3380 -0.9527
  602MOL0     H81239  -0.406   5.852  -0.909 -0.4246 -3.9480  1.8253
  602MOL0     H81240  -0.142   5.867  -1.078  0.3945  1.1714 -0.0153
  602MOL0     H81241  -0.243   6.008  -1.022 -1.5625 -0.4508  1.0621
  602MOL0     H81242  -0.352   5.812  -1.222 -0.5058 -0.4054 -1.0057
  602MOL0     H81243  -0.410   5.961  -1.164  0.8906 -0.1057 -1.1392
  602MOL0     H81244  -0.130   5.935  -1.296  0.8194  1.0702 -1.1439
  602MOL0     H81245  -0.197   6.085  -1.264  0.8281  0.0256  0.0233
  602MOL0     H81246  -0.376   6.055  -1.434 -0.4859 -1.5571  0.4423
  602MOL0     H81247  -0.207   6.029  -1.490  0.3883 -0.4620  0.3802
  602MOL0     H81248  -0.446   5.844  -1.444  0.3800  0.6575  0.4854
  602MOL0     H81249  -0.293   5.769  -1.436 -0.0543  0.0078  1.2772
  602MOL0     H81250  -0.234   5.822  -1.653 -0.0980  2.9906  0.6213
  602MOL0     H81251  -0.363   5.930  -1.672 -3.7441  0.4740  1.9702
  602MOL0     H81252  -0.071   6.158  -0.662 -0.1789  1.0370 -0.6486
  602MOL0     H81253   0.112   6.190  -0.538  3.3968 -0.8783 -3.3445
  602MOL0     H81254   0.491   5.954  -0.352 -0.5859  2.2645 -0.2230
  602MOL0     H81255   0.654   5.872  -0.244 -1.5563  0.2520 -1.9651
  602MOL0     H81256   1.961   4.812   0.729  0.5883  0.9993  0.8492
  602MOL0     H81257   2.196   4.750   0.667  0.6476  2.0918 -0.7148
  602MOL0     H81258   2.575   4.528   0.588 -2.6886  1.6011 -0.4937
  602MOL0     H81259   2.819   4.540   0.541 -1.4676  1.0401  1.9680
  602MOL0     H81260   2.928   4.738   0.150  0.1321  2.0850 -0.0687
  602MOL0     H81261   2.965   4.875   0.264  1.8462 -0.6808  1.8280
  602MOL0     H81262   3.184   4.788   0.311 -1.1246  2.1403 -0.7074
  602MOL0     H81263   3.171   4.798   0.136 -0.9725 -4.0846 -3.6907
  602MOL0     H81264   3.113   4.577   0.098 -0.8181  1.7897  0.5464
  602MOL0     H81265   3.112   4.529   0.264 -0.8511  0.8729  1.0084
  602MOL0     H81266   3.312   4.452   0.194  0.1988 -0.5289 -0.1113
  602MOL0     H81267   3.352   4.603   0.285 -3.5375 -2.1672  2.2530
  602MOL0     H81268   3.488   4.700  -0.104  0.1108 -0.7731  0.2909
  602MOL0     H81269   2.733   4.817   0.224 -0.1588  0.2396 -0.1747
  602MOL0     H81270   2.486   4.789   0.268  0.8305 -0.9998 -1.0255
  603MOL0     O81271   7.756   1.229   1.990  0.5514 -0.6340  0.2663
  603MOL0     C81272   7.859   1.293   2.030 -0.6334  0.8912  0.0007
  603MOL0     O81273   7.857   1.417   2.087  0.4145 -0.0767  0.0617
  603MOL0     C81274   7.732   1.476   2.098 -0.1736 -0.0771 -1.3470
  603MOL0     C81275   7.647   1.504   1.991  0.4033 -0.2508 -0.0109
  603MOL0     C81276   7.531   1.580   2.005 -0.3029  0.2306 -0.6984
  603MOL0     C81277   7.501   1.626   2.135 -0.0226 -0.5605  0.2069
  603MOL0     O81278   7.373   1.686   2.151  0.3561 -0.4654  0.5737
  603MOL0     C81279   7.350   1.770   2.264 -0.2498 -0.5595  0.3355
  603MOL0     C81280   7.230   1.863   2.248 -1.1513 -0.3721  0.3634
  603MOL0     C81281   7.106   1.796   2.307 -0.0226  0.3152 -0.2161
  603MOL0     C81282   6.984   1.827   2.226  0.8072  0.4253  0.1442
  603MOL0     C81283   6.845   1.772   2.284  0.1086 -0.3455 -0.5341
  603MOL0     C81284   6.729   1.849   2.225  0.2529  0.2858  0.1421
  603MOL0     C81285   6.718   1.819   2.072 -0.1232  0.3801 -0.1835
  603MOL0     C81286   6.656   1.679   2.045  0.8073  0.2716 -0.5454
  603MOL0     N81287   6.539   1.646   2.125 -0.2130  0.4356 -0.7014
  603MOL0     C81288   6.425   1.719   2.126  0.2730 -0.1003  0.8848
  603MOL0     C81289   6.359   1.677   2.226  0.0323 -0.1247  0.7990
  603MOL0     C81290   6.227   1.712   2.287 -0.2361  0.2013 -0.2256
  603MOL0     C81291   6.114   1.602   2.272 -0.2808 -0.0912 -0.8696
  603MOL0     C81292   6.001   1.634   2.369 -0.2829  0.3943  1.0154
  603MOL0     C81293   5.902   1.516   2.380 -0.2726 -0.2392  0.2930
  603MOL0     O81294   5.818   1.509   2.260 -0.5612 -0.4303 -0.5209
  603MOL0     C81295   5.682   1.489   2.276 -0.5555  0.4335 -0.1023
  603MOL0     C81296   5.587   1.580   2.232  0.0973 -0.0670 -0.1326
  603MOL0     C81297   5.453   1.555   2.236 -0.2595  0.2571  0.1018
  603MOL0     C81298   5.371   1.665   2.178  0.6230  0.6365 -0.0135
  603MOL0     C81299   5.400   1.434   2.291  0.0743 -0.5684  0.7029
  603MOL0     C81300   5.248   1.396   2.298 -0.2145 -0.4476 -0.3153
  603MOL0     O81301   5.225   1.272   2.334 -0.2233  0.2946 -0.3380
  603MOL0     C81302   5.100   1.217   2.315  0.8244  1.1580  0.6070
  603MOL0     C81303   5.044   1.135   2.418  0.3254  0.4392  0.5433
  603MOL0     C81304   4.922   1.066   2.396  0.0038  0.0240 -0.1582
  603MOL0     C81305   4.852   1.084   2.284 -0.1452 -0.6213 -0.3809
  603MOL0     O81306   4.725   1.029   2.285  0.2080 -0.6711  0.2348
  603MOL0     C81307   4.639   1.074   2.179  0.6722  0.6688  0.3090
  603MOL0     C81308   4.496   1.034   2.217 -0.3723 -0.0805 -0.3230
  603MOL0     C81309   4.410   1.033   2.084 -0.6847 -0.2443  0.1090
  603MOL0     C81310   4.272   0.958   2.088  0.4992  0.1170  0.2395
  603MOL0     C81311   4.180   0.999   1.966  0.4123  0.7608 -0.1803
  603MOL0     C81312   4.032   0.940   1.967  0.5647 -0.2175 -0.0768
  603MOL0     C81313   4.034   0.789   1.947 -0.7505 -0.0637 -0.9675
  603MOL0     C81314   3.898   0.738   1.991  0.6708  0.3389 -0.1215
  603MOL0    Cl81315   3.881   0.745   2.166  0.4921 -0.2016  0.5552
  603MOL0     C81316   4.914   1.155   2.178  0.4949  0.1887 -0.3594
  603MOL0     C81317   5.036   1.226   2.190  0.0744  0.9755  0.5631
  603MOL0     O81318   5.168   1.480   2.259 -0.7000 -0.1293 -0.0342
  603MOL0     C81319   5.488   1.338   2.335 -1.0829  0.2093 -1.3578
  603MOL0     C81320   5.629   1.371   2.331 -0.7235 -0.2528 -0.1943
  603MOL0     N81321   6.423   1.567   2.281  0.5507 -0.3018 -0.2656
  603MOL0     N81322   6.528   1.551   2.219  0.0105 -0.4257 -0.2071
  603MOL0     C81323   7.583   1.604   2.244  0.8122 -0.1566 -0.0694
  603MOL0     C81324   7.700   1.534   2.227  0.4714 -1.0413 -0.0369
  603MOL0     C81325   7.997   1.223   2.028  0.6104 -0.0038  0.2632
  603MOL0     C81326   8.113   1.296   2.059 -0.2053  0.5461 -0.4772
  603MOL0     C81327   8.233   1.228   2.099 -0.5866 -0.4552  0.0223
  603MOL0     C81328   8.242   1.087   2.086  0.3753 -0.0616 -0.0613
  603MOL0     O81329   8.353   1.016   2.108  0.1975 -0.3017  0.7890
  603MOL0     C81330   8.417   0.958   1.992 -0.1554  0.1794  0.0629
  603MOL0     C81331   8.522   1.065   1.955  0.0841  0.7643  1.0496
  603MOL0     C81332   8.600   1.119   2.067 -0.3919  0.1276 -0.7324
  603MOL0     C81333   8.706   1.014   2.112  0.2838 -0.5660  0.8427
  603MOL0     C81334   8.798   0.963   2.008  0.4231  0.4142  0.8493
  603MOL0     C81335   8.876   0.924   1.931  0.6694 -0.3626 -0.0132
  603MOL0     C81336   8.125   1.016   2.048  0.6788  0.4432 -0.8579
  603MOL0     C81337   8.007   1.082   2.023 -0.7164  0.2675  0.1655
  603MOL0     H81338   7.656   1.440   1.903 -1.7208 -2.6065  1.3553
  603MOL0     H81339   7.457   1.610   1.932 -0.5576  0.4578 -0.3494
  603MOL0     H81340   7.341   1.712   2.356  3.1535 -1.4768  0.2306
  603MOL0     H81341   7.435   1.836   2.284 -0.4379  0.3151 -1.5303
  603MOL0     H81342   7.253   1.955   2.303 -0.8894 -0.2844  0.1081
  603MOL0     H81343   7.215   1.890   2.143  1.5076  1.9140  0.4536
  603MOL0     H81344   7.115   1.687   2.317  0.2876  0.1710 -1.8677
  603MOL0     H81345   7.095   1.840   2.407  2.4773  0.1484  0.2066
  603MOL0     H81346   6.975   1.935   2.214  0.1077  0.6049  1.9319
  603MOL0     H81347   6.992   1.779   2.128  0.0095 -1.2881  0.8749
  603MOL0     H81348   6.826   1.666   2.268  3.7540 -1.0956 -0.7594
  603MOL0     H81349   6.832   1.785   2.392  0.1963  0.7827 -0.6429
  603MOL0     H81350   6.641   1.806   2.273 -1.1890  1.5185 -1.2696
  603MOL0     H81351   6.746   1.955   2.248  1.6607 -0.3849  2.5640
  603MOL0     H81352   6.664   1.897   2.017  2.1903  0.2744 -2.8070
  603MOL0     H81353   6.810   1.822   2.013 -0.9841  1.0467 -1.5614
  603MOL0     H81354   6.723   1.594   2.063 -1.7484 -1.8199 -0.3952
  603MOL0     H81355   6.625   1.676   1.941 -0.3592 -0.0679 -0.1972
  603MOL0     H81356   6.381   1.797   2.064 -2.1621 -1.0269  1.3161
  603MOL0     H81357   6.247   1.731   2.393  1.5210  1.2497 -0.7106
  603MOL0     H81358   6.201   1.812   2.252 -0.7767 -0.3404 -1.4278
  603MOL0     H81359   6.154   1.500   2.281  1.6624  0.6575 -0.5165
  603MOL0     H81360   6.098   1.601   2.164  4.0365 -0.3698 -1.7152
  603MOL0     H81361   5.937   1.718   2.340 -1.0878 -0.2128  1.0187
  603MOL0     H81362   6.044   1.650   2.468  1.0948  0.0085  0.5110
  603MOL0     H81363   5.839   1.540   2.466  2.8109  1.2196  2.3473
  603MOL0     H81364   5.953   1.420   2.391 -0.1823 -0.2533 -0.2326
  603MOL0     H81365   5.625   1.667   2.181  0.1459 -1.0630 -1.8705
  603MOL0     H81366   5.425   1.757   2.155 -0.1118  0.8784 -0.8504
  603MOL0     H81367   5.322   1.634   2.084 -2.3018  0.9357  1.2879
  603MOL0     H81368   5.292   1.692   2.249 -2.3199 -2.2474 -1.8893
  603MOL0     H81369   5.106   1.120   2.506 -1.3780 -2.5117  1.3587
  603MOL0     H81370   4.879   1.004   2.474 -1.6913 -0.0258 -1.0869
  603MOL0     H81371   4.640   1.183   2.175 -1.3265  0.7146  0.0772
  603MOL0     H81372   4.678   1.030   2.087  2.1332  2.0149  0.2390
  603MOL0     H81373   4.483   0.929   2.242 -1.1592  0.5701  2.3316
  603MOL0     H81374   4.456   1.098   2.296  0.7080  1.1932 -0.7613
  603MOL0     H81375   4.466   0.979   2.008 -0.9980 -0.0881 -0.2355
  603MOL0     H81376   4.401   1.138   2.056 -3.6334 -0.0658  1.3492
  603MOL0     H81377   4.292   0.851   2.085  0.3640  0.1056 -0.4447
  603MOL0     H81378   4.225   0.997   2.179 -3.0964 -0.9733 -0.9845
  603MOL0     H81379   4.220   0.957   1.873 -0.6930 -0.8125  0.0235
  603MOL0     H81380   4.162   1.107   1.961 -1.4340  0.6205  1.7742
  603MOL0     H81381   3.982   0.950   2.064 -0.6791 -3.5580 -0.2506
  603MOL0     H81382   3.970   0.982   1.887  0.9743 -0.0621 -0.3162
  603MOL0     H81383   4.107   0.732   2.006 -1.8456 -3.7815 -2.8990
  603MOL0     H81384   4.046   0.766   1.841  1.3697 -1.0047 -0.5759
  603MOL0     H81385   3.875   0.637   1.957 -0.8694 -0.5158  3.1438
  603MOL0     H81386   3.828   0.809   1.946 -0.2970 -1.2442 -1.2151
  603MOL0     H81387   4.867   1.162   2.080 -2.0971 -0.1370  0.7626
  603MOL0     H81388   5.086   1.282   2.112  2.9478  0.3187  1.8001
  603MOL0     H81389   5.463   1.253   2.398  0.4258 -0.5474 -1.7199
  603MOL0     H81390   5.696   1.297   2.373 -3.0855 -2.4420 -0.0113
  603MOL0     H81391   7.542   1.641   2.338 -0.9370  2.5279 -1.7610
  603MOL0     H81392   7.768   1.512   2.309  0.9595  2.8754  0.8113
  603MOL0     H81393   8.108   1.403   2.074  0.7096  0.3934  1.1271
  603MOL0     H81394   8.315   1.284   2.143 -0.4928 -2.2850  2.3760
  603MOL0     H81395   8.464   0.863   2.020  0.7424  0.6698  0.2496
  603MOL0     H81396   8.346   0.930   1.913  1.4482  0.3251 -1.5052
  603MOL0     H81397   8.467   1.142   1.902 -2.7772 -3.0340 -2.0580
  603MOL0     H81398   8.595   1.014   1.891  1.9203 -0.1268  3.6472
  603MOL0     H81399   8.536   1.157   2.148  0.6510  4.2790 -1.5865
  603MOL0     H81400   8.655   1.212   2.051 -3.5318  2.4418  0.7772
  603MOL0     H81401   8.656   0.933   2.167 -1.2940 -0.5045 -0.4133
  603MOL0     H81402   8.773   1.064   2.183  0.8497  0.4304 -0.3594
  603MOL0     H81403   8.955   0.898   1.863 -0.4782  1.8221 -2.3248
  603MOL0     H81404   8.135   0.909   2.034 -0.1328  0.5089 -2.1336
  603MOL0     H81405   7.929   1.025   1.976 -0.2910  1.3908 -2.0195
  604MOL0     O81406   1.962  10.494   1.926  0.5723  0.4215  0.8290
  604MOL0     C81407   2.038  10.585   1.964  0.1867  0.7919  0.6143
  604MOL0     O81408   2.008  10.679   2.062  0.4890  0.5978 -0.8226
  604MOL0     C81409   1.895  10.664   2.141  0.5744 -0.5977  0.0769
  604MOL0     C81410   1.771  10.650   2.079 -0.0609 -0.4242  0.2029
  604MOL0     C81411   1.656  10.630   2.156 -0.2362  0.4102  0.6001
  604MOL0     C81412   1.663  10.627   2.293  0.3510 -0.8892 -0.1985
  604MOL0     O81413   1.568  10.584   2.387  0.0164 -0.5630  0.0529
  604MOL0     C81414   1.450  10.513   2.336  0.7537  0.5785  0.1574
  604MOL0     C81415   1.339  10.613   2.305  0.4255  0.4564  0.3249
  604MOL0     C81416   1.210  10.537   2.261  1.0305  0.1486 -0.4355
  604MOL0     C81417   1.151  10.451   2.378 -0.7626  0.2404 -0.2835
  604MOL0     C81418   1.019  10.389   2.324 -0.5166  0.4650  0.2026
  604MOL0     C81419   0.933  10.358   2.440 -0.6571  0.9920 -0.7939
  604MOL0     C81420   0.791  10.315   2.403 -0.3984  0.1313  0.1445
  604MOL0     C81421   0.776  10.194   2.314  0.2868  0.3316 -0.2604
  604MOL0     N81422   0.637  10.156   2.335  0.3430  0.6951  0.8402
  604MOL0     C81423   0.587  10.057   2.422  0.1262  0.2315  0.7284
  604MOL0     C81424   0.450  10.059   2.408 -0.4033  0.9971 -0.8237
  604MOL0     C81425   0.343   9.983   2.486 -0.0905 -0.6390 -0.0399
  604MOL0     C81426   0.245  10.082   2.549 -0.2148  0.6578 -0.1287
  604MOL0     C81427   0.157  10.008   2.650 -0.3511 -0.1531 -0.2796
  604MOL0     C81428   0.033  10.073   2.696 -0.5305 -0.0384 -0.0522
  604MOL0     O81429  -0.055  10.106   2.587 -0.1933  0.3747  0.2389
  604MOL0     C81430  -0.165  10.180   2.620  0.5230 -0.6577 -0.7016
  604MOL0     C81431  -0.183  10.311   2.578  0.5047 -0.2950  0.4379
  604MOL0     C81432  -0.299  10.383   2.609 -0.2400  0.6534  0.8674
  604MOL0     C81433  -0.312  10.517   2.542 -0.1457 -0.1073 -0.3214
  604MOL0     C81434  -0.405  10.315   2.675 -0.0175  0.2109  0.6066
  604MOL0     C81435  -0.536  10.374   2.709 -0.4163  0.4616  0.2558
  604MOL0     O81436  -0.541  10.509   2.714  0.2161  0.0377 -0.0205
  604MOL0     C81437  -0.664  10.563   2.746  0.4288 -0.7124  0.7987
  604MOL0     C81438  -0.709  10.583   2.877 -0.7798  0.4644 -0.2514
  604MOL0     C81439  -0.837  10.641   2.904  0.9809  0.5958  0.0607
  604MOL0     C81440  -0.925  10.676   2.805 -0.5975  0.0929  0.9725
  604MOL0     O81441  -1.045  10.731   2.833  0.6193  0.2903  0.5131
  604MOL0     C81442  -1.162  10.702   2.757 -0.0642  0.1576 -0.3106
  604MOL0     C81443  -1.284  10.739   2.842 -0.1342  0.4527 -0.4614
  604MOL0     C81444  -1.414  10.688   2.776 -0.0476  0.4426 -0.5130
  604MOL0     C81445  -1.526  10.789   2.813  0.0093 -0.1516 -0.4224
  604MOL0     C81446  -1.651  10.771   2.724  0.0051  0.2283  0.4730
  604MOL0     C81447  -1.751  10.881   2.746  0.0116  0.6491  0.2836
  604MOL0     C81448  -1.875  10.859   2.661 -0.4641  0.1022 -0.2899
  604MOL0     C81449  -1.991  10.953   2.701  0.5989 -0.6427  0.8129
  604MOL0    Cl81450  -2.119  10.953   2.578  0.0158  0.1769  0.1611
  604MOL0     C81451  -0.878  10.666   2.668  0.5519 -0.6928 -0.0087
  604MOL0     C81452  -0.753  10.608   2.645 -0.4884  0.7692 -0.3290
  604MOL0     O81453  -0.636  10.297   2.706 -0.4344  0.2107  0.1448
  604MOL0     C81454  -0.385  10.180   2.710  0.0006 -0.4212 -0.1055
  604MOL0     C81455  -0.269  10.115   2.683  0.2001  0.9694  0.2546
  604MOL0     N81456   0.424  10.156   2.314 -0.0365  0.1508 -0.3760
  604MOL0     N81457   0.533  10.209   2.268  0.2223  0.2084 -0.1662
  604MOL0     C81458   1.789  10.656   2.346 -0.4443  1.0083  0.3491
  604MOL0     C81459   1.900  10.678   2.274 -0.6151 -0.4178  0.3054
  604MOL0     C81460   2.176  10.572   1.919  0.3035  0.6315  0.1521
  604MOL0     C81461   2.274  10.636   1.993 -0.3226 -0.1041 -0.5040
  604MOL0     C81462   2.405  10.625   1.956  0.4806 -0.3623 -0.3062
  604MOL0     C81463   2.444  10.551   1.838  0.6563  0.0317 -0.3980
  604MOL0     O81464   2.578  10.539   1.813  0.6481 -0.3369  0.3734
  604MOL0     C81465   2.624  10.412   1.753 -0.2573 -0.8098 -0.1906
  604MOL0     C81466   2.781  10.410   1.751 -0.6120  0.0489 -0.4246
  604MOL0     C81467   2.829  10.426   1.898 -0.4644  0.0128  0.3164
  604MOL0     C81468   2.977  10.383   1.905  0.6599 -0.0305  0.2773
  604MOL0     C81469   3.014  10.390   2.046 -0.4793 -0.0702  0.3424
  604MOL0     C81470   3.032  10.396   2.168  0.6620 -0.3740  0.4366
  604MOL0     C81471   2.342  10.488   1.778 -0.7295  0.4760  0.5770
  604MOL0     C81472   2.207  10.506   1.807  0.0029 -0.1557  0.4516
  604MOL0     H81473   1.766  10.647   1.971 -0.0017  1.8810  0.0917
  604MOL0     H81474   1.562  10.616   2.104 -0.9662  4.1277  0.6414
  604MOL0     H81475   1.469  10.446   2.252 -0.2260 -0.2686  0.5943
  604MOL0     H81476   1.417  10.460   2.426 -0.8330 -1.8867 -1.7574
  604MOL0     H81477   1.313  10.666   2.397  0.4653 -3.1006  2.5863
  604MOL0     H81478   1.357  10.694   2.234 -2.8232  1.7450  0.7839
  604MOL0     H81479   1.140  10.617   2.234 -0.6895 -1.1571 -0.0281
  604MOL0     H81480   1.236  10.487   2.167  1.4189  0.5391 -0.5397
  604MOL0     H81481   1.211  10.364   2.407 -2.3534 -1.6036 -2.2448
  604MOL0     H81482   1.134  10.515   2.465  0.6058 -1.1902  1.0983
  604MOL0     H81483   0.976  10.468   2.262  0.3879 -1.0140 -2.5132
  604MOL0     H81484   1.031  10.302   2.258  0.2051 -1.3850  2.6273
  604MOL0     H81485   0.966  10.269   2.495 -2.8465  0.1551 -0.7315
  604MOL0     H81486   0.924  10.441   2.511  0.3237 -1.1815  2.0623
  604MOL0     H81487   0.727  10.301   2.491 -1.0300  0.5202 -0.2405
  604MOL0     H81488   0.741  10.400   2.355  1.3020  0.4972 -1.0614
  604MOL0     H81489   0.847  10.115   2.342 -3.0957 -2.7203  0.4366
  604MOL0     H81490   0.801  10.218   2.211 -0.2210  2.3713  0.0447
  604MOL0     H81491   0.638  10.002   2.500 -0.4965 -0.3793  0.7175
  604MOL0     H81492   0.291   9.910   2.423 -2.4178  1.0948 -0.2629
  604MOL0     H81493   0.398   9.921   2.556 -0.2206 -0.6805  0.0254
  604MOL0     H81494   0.187  10.124   2.466 -0.3413 -1.3764 -1.1194
  604MOL0     H81495   0.294  10.165   2.600 -0.3631  0.4095  0.4301
  604MOL0     H81496   0.219   9.989   2.738  0.0105  0.0373 -0.4888
  604MOL0     H81497   0.123   9.915   2.605 -1.4338  0.0723  0.0487
  604MOL0     H81498   0.057  10.169   2.742 -2.6710  0.3339  0.3703
  604MOL0     H81499  -0.014  10.007   2.769 -0.5210  0.4443  0.3920
  604MOL0     H81500  -0.104  10.352   2.517 -0.4558  0.3326 -0.4286
  604MOL0     H81501  -0.311  10.598   2.615  2.6766  0.7024 -1.1161
  604MOL0     H81502  -0.228  10.553   2.482  0.8646 -0.5463  0.7737
  604MOL0     H81503  -0.397  10.513   2.474  0.5893  1.6949 -1.4167
  604MOL0     H81504  -0.644  10.554   2.959  1.1367  2.2257 -1.0669
  604MOL0     H81505  -0.879  10.653   3.003 -0.7624 -0.6096 -0.4882
  604MOL0     H81506  -1.165  10.760   2.664 -2.2759 -1.0949 -1.1074
  604MOL0     H81507  -1.170  10.595   2.735 -0.0122 -0.1727  1.1714
  604MOL0     H81508  -1.269  10.698   2.941  3.3847  2.0502 -0.1886
  604MOL0     H81509  -1.275  10.848   2.849  2.6681  0.1785  1.8821
  604MOL0     H81510  -1.440  10.583   2.790  0.6281  0.6562  3.8694
  604MOL0     H81511  -1.409  10.700   2.668  0.7123  3.6711 -0.2258
  604MOL0     H81512  -1.557  10.779   2.918  0.1353  0.2786 -0.3460
  604MOL0     H81513  -1.496  10.889   2.781 -2.1994  0.5769 -0.4112
  604MOL0     H81514  -1.696  10.674   2.748 -0.3314  0.6313  1.5380
  604MOL0     H81515  -1.627  10.767   2.617 -0.8635 -0.0403  0.2796
  604MOL0     H81516  -1.765  10.908   2.851  0.9226  0.7413  0.3854
  604MOL0     H81517  -1.711  10.968   2.693  1.0544 -0.5380 -0.9701
  604MOL0     H81518  -1.909  10.756   2.666 -0.9889  0.2985  0.5611
  604MOL0     H81519  -1.847  10.881   2.558 -0.1814  3.0436  0.3061
  604MOL0     H81520  -1.954  11.054   2.718 -1.2062  0.1854  0.0558
  604MOL0     H81521  -2.050  10.918   2.786 -2.1172  0.5972 -0.4338
  604MOL0     H81522  -0.945  10.711   2.595 -2.1753 -1.1504  2.0289
  604MOL0     H81523  -0.723  10.584   2.543  2.7062 -2.8028  1.1680
  604MOL0     H81524  -0.468  10.135   2.764 -0.9136 -1.0067 -1.9365
  604MOL0     H81525  -0.249  10.013   2.712 -0.9489  1.0004  1.2344
  604MOL0     H81526   1.809  10.638   2.451  3.4217 -2.2629 -0.6829
  604MOL0     H81527   1.994  10.695   2.324 -0.1707 -3.7339  0.8155
  604MOL0     H81528   2.247  10.697   2.079 -0.5399 -0.3132 -0.4243
  604MOL0     H81529   2.480  10.659   2.027  2.4484 -0.3997 -2.2572
  604MOL0     H81530   2.603  10.324   1.815  0.2284 -0.8326 -0.0594
  604MOL0     H81531   2.579  10.404   1.654 -2.3583  1.6319  0.4541
  604MOL0     H81532   2.808  10.487   1.678  0.4024 -2.2311 -2.6077
  604MOL0     H81533   2.809  10.314   1.707  2.0977  0.9503 -0.8664
  604MOL0     H81534   2.764  10.363   1.959 -2.6846 -0.6826 -2.5211
  604MOL0     H81535   2.824  10.528   1.937  0.3141  0.2287 -0.1228
  604MOL0     H81536   3.041  10.450   1.847  1.6493 -0.7367  0.5175
  604MOL0     H81537   2.988  10.280   1.869 -2.1650 -0.2883 -0.0535
  604MOL0     H81538   3.055  10.391   2.273  2.3624  0.9082  0.1780
  604MOL0     H81539   2.367  10.412   1.706 -0.3529  2.1641 -1.1386
  604MOL0     H81540   2.128  10.463   1.746  1.0719  0.9444 -1.8783
  605MOL0     O81541  10.790  11.108   8.811 -0.3847  0.0830  0.1004
  605MOL0     C81542  10.892  11.070   8.756 -0.3008 -0.7743 -1.5580
  605MOL0     O81543  10.895  11.001   8.642 -1.0124  0.0187 -0.1694
  605MOL0     C81544  10.777  10.983   8.580 -0.4543 -1.0482  0.5793
  605MOL0     C81545  10.733  11.076   8.483 -0.2668 -0.3031  0.1702
  605MOL0     C81546  10.614  11.062   8.426  0.8866 -0.4183  0.7077
  605MOL0     C81547  10.523  10.963   8.467 -0.3591  0.2091  0.0850
  605MOL0     O81548  10.395  10.974   8.404  0.2646 -0.1080  0.2749
  605MOL0     C81549  10.289  10.906   8.475 -0.0798  0.3533  0.4640
  605MOL0     C81550  10.249  10.977   8.600 -0.0437 -0.3572 -0.3035
  605MOL0     C81551  10.139  10.919   8.674  1.0161 -0.6293 -0.8933
  605MOL0     C81552  10.091  11.004   8.787 -0.5365  0.1847 -0.2519
  605MOL0     C81553   9.987  10.950   8.878  0.5075  0.5838 -0.7059
  605MOL0     C81554   9.847  10.924   8.822 -0.1009  0.1028 -0.0627
  605MOL0     C81555   9.745  10.895   8.939 -0.6692  0.0071  0.1227
  605MOL0     C81556   9.604  10.899   8.883 -0.0477  0.0041 -0.5404
  605MOL0     N81557   9.505  10.860   8.990 -0.5366 -0.8679 -0.9883
  605MOL0     C81558   9.425  10.748   8.978 -0.6086  0.8645  0.7427
  605MOL0     C81559   9.337  10.757   9.087  0.1635 -0.4313  0.6621
  605MOL0     C81560   9.232  10.661   9.110 -0.1681 -1.1305  0.1746
  605MOL0     C81561   9.089  10.726   9.108 -0.8495 -0.3617 -0.7760
  605MOL0     C81562   9.051  10.807   9.229  0.5055  0.5494  0.0230
  605MOL0     C81563   8.899  10.814   9.235 -0.2020  0.4081  0.5096
  605MOL0     O81564   8.866  10.892   9.121  0.2611 -0.2344 -0.0670
  605MOL0     C81565   8.731  10.904   9.095  0.8455  0.8362  0.8048
  605MOL0     C81566   8.626  10.834   9.165  0.6246 -0.1267  0.1751
  605MOL0     C81567   8.493  10.841   9.133 -0.2769  0.0001 -0.1135
  605MOL0     C81568   8.402  10.749   9.219 -0.4582 -0.4486  0.3839
  605MOL0     C81569   8.451  10.918   9.024  0.2161 -1.2453 -0.2818
  605MOL0     C81570   8.306  10.944   8.987  0.1335  0.1489 -0.1313
  605MOL0     O81571   8.195  10.869   9.032 -0.0531 -0.2579  0.3992
  605MOL0     C81572   8.073  10.926   9.035  0.1476  0.4289  0.4970
  605MOL0     C81573   8.001  10.934   9.153 -0.6322 -0.2826 -0.7958
  605MOL0     C81574   7.872  10.983   9.167  0.4989  0.3744  0.1967
  605MOL0     C81575   7.814  11.048   9.057  0.1412 -0.1488  0.3655
  605MOL0     O81576   7.688  11.098   9.081 -0.5754 -0.2716  0.1392
  605MOL0     C81577   7.617  11.167   8.973 -0.1180  0.6314 -0.5347
  605MOL0     C81578   7.494  11.239   9.028 -0.1076  0.1086 -0.3484
  605MOL0     C81579   7.386  11.141   9.063 -0.4667 -0.4851 -0.6998
  605MOL0     C81580   7.270  11.215   9.133 -0.2066  0.7758  0.4413
  605MOL0     C81581   7.160  11.118   9.172 -0.0648  0.1676  1.1119
  605MOL0     C81582   7.065  11.107   9.060 -1.1053 -0.7219 -0.2307
  605MOL0     C81583   6.946  11.026   9.097  0.1953 -0.3879  0.4722
  605MOL0     C81584   6.851  11.018   8.974  0.3018 -0.0950 -0.0061
  605MOL0    Cl81585   6.710  10.908   9.030  0.4225  0.5012 -0.0886
  605MOL0     C81586   7.884  11.038   8.926 -0.8347 -0.5121 -0.2493
  605MOL0     C81587   8.010  10.984   8.920  0.4098 -0.2219 -0.2130
  605MOL0     O81588   8.299  11.043   8.922  0.6353  0.0291 -0.2229
  605MOL0     C81589   8.553  10.991   8.952  0.5320  0.1288  0.3473
  605MOL0     C81590   8.693  10.975   8.983  0.1656  0.0356  0.4236
  605MOL0     N81591   9.364  10.877   9.154  0.1124 -0.2441  0.8654
  605MOL0     N81592   9.458  10.934   9.094  0.6091 -0.0459  0.2059
  605MOL0     C81593  10.566  10.874   8.565  0.3704 -0.8163 -0.0453
  605MOL0     C81594  10.696  10.876   8.618  0.4382 -0.2508 -0.0797
  605MOL0     C81595  11.018  11.137   8.803 -0.1030  0.5523 -0.0166
  605MOL0     C81596  11.141  11.127   8.721  0.0456  0.5511 -0.3078
  605MOL0     C81597  11.257  11.201   8.753  0.1560  0.5515  0.0013
  605MOL0     C81598  11.257  11.290   8.860 -0.8529 -0.1359 -0.3077
  605MOL0     O81599  11.369  11.357   8.914  0.3916  0.7138  0.1931
  605MOL0     C81600  11.492  11.364   8.836 -0.3739 -0.0533  0.1995
  605MOL0     C81601  11.606  11.425   8.926 -0.5021 -0.2386  0.0084
  605MOL0     C81602  11.724  11.322   8.961  0.3314 -0.0734 -0.5479
  605MOL0     C81603  11.844  11.380   9.044  0.7064 -0.4172 -1.1279
  605MOL0     C81604  11.891  11.507   8.984 -0.1747 -0.3187  0.0339
  605MOL0     C81605  11.934  11.611   8.937  0.3372  0.2637  0.5479
  605MOL0     C81606  11.143  11.298   8.935 -0.1586 -0.1085 -0.6514
  605MOL0     C81607  11.024  11.225   8.915  0.2869  0.3154  0.1869
  605MOL0     H81608  10.801  11.157   8.458 -2.3391  1.1615 -0.9959
  605MOL0     H81609  10.578  11.135   8.354  0.4099 -0.4975  0.8572
  605MOL0     H81610  10.207  10.913   8.403  1.6354  2.2984 -1.4702
  605MOL0     H81611  10.320  10.805   8.502  3.1066  1.6571  2.1866
  605MOL0     H81612  10.340  10.994   8.659  1.2232 -4.9484 -0.5532
  605MOL0     H81613  10.221  11.079   8.571 -0.5805 -0.8614 -1.6148
  605MOL0     H81614  10.045  10.907   8.619 -1.3551 -1.8906  3.0546
  605MOL0     H81615  10.158  10.818   8.713 -0.1022 -1.2272 -1.8066
  605MOL0     H81616  10.171  11.020   8.860 -3.2492 -0.3422  3.1372
  605MOL0     H81617  10.064  11.105   8.756 -3.9931 -0.5999 -0.2541
  605MOL0     H81618  10.018  10.854   8.920 -3.2656 -0.5128 -0.0135
  605MOL0     H81619   9.992  11.022   8.960  1.4055 -0.3285  0.0679
  605MOL0     H81620   9.818  11.008   8.759 -1.0820  0.6431  1.0878
  605MOL0     H81621   9.841  10.835   8.757 -0.6775 -0.1883  0.3821
  605MOL0     H81622   9.774  10.794   8.968  0.4833 -1.1535 -4.2374
  605MOL0     H81623   9.737  10.965   9.023 -4.7451  0.1276 -0.2061
  605MOL0     H81624   9.590  10.838   8.793 -0.9122  1.3353 -1.3470
  605MOL0     H81625   9.578  11.000   8.853  1.6785  0.2657 -1.2778
  605MOL0     H81626   9.425  10.669   8.904 -2.3714  2.5096 -1.1132
  605MOL0     H81627   9.231  10.588   9.029 -3.2564 -1.2761  0.2153
  605MOL0     H81628   9.243  10.619   9.211 -0.4295  0.6024  0.9711
  605MOL0     H81629   9.024  10.641   9.090 -1.1216 -0.2651 -0.2754
  605MOL0     H81630   9.086  10.786   9.017 -2.0773  0.8362  0.0243
  605MOL0     H81631   9.097  10.905   9.240 -0.5395  1.1473 -0.7655
  605MOL0     H81632   9.078  10.736   9.308 -0.0434 -0.1835 -0.4340
  605MOL0     H81633   8.874  10.862   9.330  2.0506 -1.5543  2.2154
  605MOL0     H81634   8.852  10.716   9.244 -0.2584  0.5764  2.5631
  605MOL0     H81635   8.657  10.783   9.256  0.2228  0.6780  0.7737
  605MOL0     H81636   8.362  10.678   9.146 -0.1349  1.6538 -1.9870
  605MOL0     H81637   8.465  10.707   9.299  0.5457 -0.7658 -0.5521
  605MOL0     H81638   8.322  10.813   9.258 -1.2704  0.7299 -2.8943
  605MOL0     H81639   8.042  10.893   9.245 -2.1891  2.7255  1.4494
  605MOL0     H81640   7.827  10.976   9.266  1.0553 -0.9882  0.3796
  605MOL0     H81641   7.683  11.243   8.929  1.2367 -0.1566  0.0568
  605MOL0     H81642   7.587  11.093   8.899  0.0705 -0.7204  0.6980
  605MOL0     H81643   7.531  11.297   9.112  5.2714 -0.3150 -2.0744
  605MOL0     H81644   7.454  11.311   8.956 -1.3170  0.0471  0.2204
  605MOL0     H81645   7.425  11.058   9.122 -2.2735  0.1337  1.4911
  605MOL0     H81646   7.351  11.102   8.967 -0.2047  0.0951 -1.0345
  605MOL0     H81647   7.307  11.254   9.229 -1.8369  0.5391  1.2073
  605MOL0     H81648   7.227  11.298   9.076 -2.5668 -0.2703  0.5919
  605MOL0     H81649   7.116  11.146   9.268 -1.1470 -0.0255  0.6830
  605MOL0     H81650   7.206  11.020   9.181  0.9589 -0.1128 -4.1755
  605MOL0     H81651   7.031  11.206   9.029  0.5888 -0.1645 -0.4283
  605MOL0     H81652   7.123  11.072   8.974  1.8958  2.0709  0.4252
  605MOL0     H81653   6.897  11.080   9.179 -2.1798 -3.1672  1.0263
  605MOL0     H81654   6.967  10.921   9.116  1.1883 -0.5191 -1.2448
  605MOL0     H81655   6.911  10.979   8.891 -0.4139 -2.2710  0.4498
  605MOL0     H81656   6.819  11.122   8.957  0.4843 -0.1116 -0.4699
  605MOL0     H81657   7.840  11.080   8.835  2.1835 -1.0623 -2.1104
  605MOL0     H81658   8.052  10.965   8.822 -2.0262 -3.3301 -0.8203
  605MOL0     H81659   8.534  11.061   8.872 -0.5969  0.3475  0.7773
  605MOL0     H81660   8.768  11.011   8.914  2.2797  1.4239  3.2179
  605MOL0     H81661  10.497  10.806   8.613  0.7520  0.4731  2.4990
  605MOL0     H81662  10.728  10.796   8.684  2.4835  0.6460  0.0742
  605MOL0     H81663  11.147  11.056   8.639 -1.8343 -0.2151  0.1504
  605MOL0     H81664  11.347  11.190   8.693 -0.7463  3.2821 -2.0618
  605MOL0     H81665  11.530  11.264   8.813  3.8708  1.2665  0.6428
  605MOL0     H81666  11.481  11.404   8.735 -0.0205 -0.5441 -0.0401
  605MOL0     H81667  11.567  11.474   9.016  0.1893 -0.5476  0.4809
  605MOL0     H81668  11.654  11.496   8.859  0.7419 -2.0084 -1.0699
  605MOL0     H81669  11.770  11.285   8.869  0.4249 -2.7572  0.4723
  605MOL0     H81670  11.680  11.240   9.019 -0.6370  1.6969  1.3269
  605MOL0     H81671  11.923  11.304   9.039  0.2385 -1.0375  0.4841
  605MOL0     H81672  11.818  11.401   9.148  1.5412 -0.6643 -0.8634
  605MOL0     H81673  11.957  11.705   8.890  1.0504  1.1403  2.5688
  605MOL0     H81674  11.144  11.367   9.018  1.8681 -1.1018  0.2269
  605MOL0     H81675  10.929  11.232   8.968  0.0003  1.3344 -0.4300
  606MOL0     O81676   5.753  10.949   4.004  0.4750 -0.3835 -0.1377
  606MOL0     C81677   5.781  11.066   4.010  0.1287 -0.0384 -0.2186
  606MOL0     O81678   5.707  11.169   4.057 -0.0792  0.4331  0.0981
  606MOL0     C81679   5.574  11.141   4.080 -0.3926 -0.0304 -0.6147
  606MOL0     C81680   5.479  11.201   4.001  0.0009 -0.7078 -0.5169
  606MOL0     C81681   5.345  11.169   4.024 -0.2199  0.5209  0.0775
  606MOL0     C81682   5.308  11.074   4.124  1.0295  0.3980  0.6869
  606MOL0     O81683   5.179  11.030   4.147  0.2520 -0.1417 -0.8844
  606MOL0     C81684   5.073  11.101   4.076  0.6079  0.2127  0.5408
  606MOL0     C81685   4.950  11.072   4.154  0.8777 -0.0504  0.0174
  606MOL0     C81686   4.829  11.129   4.072  0.2452  0.4449  0.5186
  606MOL0     C81687   4.692  11.111   4.147  0.5171  0.2404 -0.1998
  606MOL0     C81688   4.578  11.149   4.058  0.3795  0.0600 -0.2633
  606MOL0     C81689   4.449  11.083   4.109  0.1966  0.0263 -0.7355
  606MOL0     C81690   4.328  11.128   4.029  0.2973  0.3748  0.0530
  606MOL0     C81691   4.203  11.081   4.113 -0.3659 -0.1814 -0.4251
  606MOL0     N81692   4.078  11.097   4.041  0.0204  0.1386  0.2302
  606MOL0     C81693   4.007  11.216   4.038  0.0437  0.1090 -0.7574
  606MOL0     C81694   3.885  11.185   3.984  0.2458 -0.5462 -0.0528
  606MOL0     C81695   3.769  11.281   3.989 -0.0202  0.9037  0.3248
  606MOL0     C81696   3.628  11.211   4.004  0.2719  0.7141 -0.6047
  606MOL0     C81697   3.516  11.298   3.940  0.5275  0.2475 -0.0150
  606MOL0     C81698   3.443  11.373   4.052  0.0182 -0.0552  0.1349
  606MOL0     O81699   3.342  11.455   3.995 -0.3966  0.1105 -0.1646
  606MOL0     C81700   3.290  11.551   4.079  0.3572  0.5923 -0.0239
  606MOL0     C81701   3.322  11.593   4.214  0.0144  0.0306  0.6647
  606MOL0     C81702   3.253  11.699   4.272 -0.0423  0.3887  0.2940
  606MOL0     C81703   3.292  11.741   4.417 -0.6177 -0.3640  0.0813
  606MOL0     C81704   3.140  11.752   4.208 -0.0631  0.0227 -0.2325
  606MOL0     C81705   3.051  11.853   4.265  0.9868  0.2774 -0.5545
  606MOL0     O81706   3.093  11.924   4.364 -0.6289  0.0983 -0.2957
  606MOL0     C81707   3.008  12.011   4.418  0.7376 -0.2807 -0.5571
  606MOL0     C81708   2.987  12.000   4.554  0.0149 -0.2840 -0.0978
  606MOL0     C81709   2.903  12.100   4.609  0.5211  0.6570  0.7287
  606MOL0     C81710   2.840  12.201   4.534  0.0866  0.1455 -0.1838
  606MOL0     O81711   2.753  12.280   4.602 -0.5974 -0.3184 -0.1734
  606MOL0     C81712   2.723  12.408   4.561 -0.2999 -0.5632 -0.0580
  606MOL0     C81713   2.606  12.486   4.634 -0.4427 -0.3127  0.0254
  606MOL0     C81714   2.640  12.516   4.780  0.0802  0.6169 -0.2320
  606MOL0     C81715   2.519  12.597   4.828 -0.3056 -0.0343 -0.8010
  606MOL0     C81716   2.520  12.604   4.979  0.0592  0.2639  0.2412
  606MOL0     C81717   2.615  12.711   5.039 -0.0712  0.1631 -0.7711
  606MOL0     C81718   2.604  12.731   5.193  0.4386 -0.2689 -0.1174
  606MOL0     C81719   2.683  12.853   5.242  0.3433 -0.1494  1.1859
  606MOL0    Cl81720   2.838  12.887   5.144  0.0116 -0.1073  0.0967
  606MOL0     C81721   2.854  12.196   4.398 -0.0470  0.7307  0.5041
  606MOL0     C81722   2.956  12.114   4.343  0.7586 -1.5916 -0.9767
  606MOL0     O81723   2.934  11.859   4.213  0.1678 -0.2688 -0.6018
  606MOL0     C81724   3.102  11.700   4.081  0.4703  0.0259  1.1471
  606MOL0     C81725   3.180  11.609   4.013 -0.5917  0.2491 -0.5531
  606MOL0     N81726   3.891  11.048   3.955 -0.9460 -0.3928 -0.5026
  606MOL0     N81727   4.007  10.997   3.980 -0.5808  0.7869 -0.5816
  606MOL0     C81728   5.408  11.027   4.210  0.0123 -0.3362  0.6714
  606MOL0     C81729   5.543  11.050   4.186 -0.1782 -0.1091  0.4514
  606MOL0     C81730   5.915  11.107   3.968  0.0501 -0.9819  0.1942
  606MOL0     C81731   6.011  11.017   3.923  0.2052  0.2659 -0.4675
  606MOL0     C81732   6.135  11.060   3.876  0.0305  0.5028 -0.0560
  606MOL0     C81733   6.169  11.189   3.880 -0.5715 -0.2700 -0.5325
  606MOL0     O81734   6.301  11.209   3.853 -0.1072  0.3038  0.3902
  606MOL0     C81735   6.360  11.334   3.858 -0.1831 -0.5862 -0.0498
  606MOL0     C81736   6.507  11.314   3.813  0.2919 -1.1385 -0.5253
  606MOL0     C81737   6.599  11.230   3.895 -0.7158  0.2388  0.6592
  606MOL0     C81738   6.596  11.268   4.047  0.0558  0.1998  0.9242
  606MOL0     C81739   6.636  11.405   4.062  0.4207 -1.1210 -0.6685
  606MOL0     C81740   6.684  11.515   4.082 -0.4362 -0.6443  0.0179
  606MOL0     C81741   6.070  11.288   3.911  0.0242 -0.0866  0.5322
  606MOL0     C81742   5.943  11.243   3.956  0.0648  0.3502  0.4155
  606MOL0     H81743   5.520  11.268   3.926  1.3585 -2.4069 -1.3726
  606MOL0     H81744   5.279  11.208   3.948  0.0415 -2.0055 -1.5843
  606MOL0     H81745   5.090  11.209   4.071  0.8839  0.1504  0.0651
  606MOL0     H81746   5.068  11.064   3.973 -1.1465  0.2395  0.5858
  606MOL0     H81747   4.939  10.965   4.174 -7.3289  0.5785  2.9304
  606MOL0     H81748   4.963  11.130   4.245  1.7462 -1.2896  0.7085
  606MOL0     H81749   4.844  11.233   4.042  1.1790  0.2409  0.2413
  606MOL0     H81750   4.816  11.067   3.982  0.6751  2.0342 -0.6674
  606MOL0     H81751   4.684  11.013   4.195  2.0675 -0.5087 -1.3828
  606MOL0     H81752   4.685  11.181   4.230 -2.4850 -1.6972  1.3451
  606MOL0     H81753   4.571  11.258   4.048 -1.5702 -0.0700 -0.9102
  606MOL0     H81754   4.592  11.114   3.955 -3.4349 -0.6616 -0.7127
  606MOL0     H81755   4.450  10.974   4.112  0.8038  0.0290 -0.7443
  606MOL0     H81756   4.432  11.108   4.214  2.8211 -1.7751  0.2211
  606MOL0     H81757   4.341  11.237   4.026  0.0270  0.5303  2.4070
  606MOL0     H81758   4.337  11.067   3.939 -2.7252 -1.7579  1.0484
  606MOL0     H81759   4.195  11.138   4.206  0.6138  2.4697 -1.8718
  606MOL0     H81760   4.208  10.974   4.132 -3.1518 -0.6211 -1.5766
  606MOL0     H81761   4.038  11.310   4.082 -0.0282 -0.7892  1.2936
  606MOL0     H81762   3.791  11.353   4.068  2.0578 -1.3930  2.0121
  606MOL0     H81763   3.772  11.336   3.895  1.9918 -1.0069 -0.8255
  606MOL0     H81764   3.591  11.178   4.101  0.2100 -1.9004 -1.4316
  606MOL0     H81765   3.632  11.116   3.950  2.1825 -0.2719  1.1299
  606MOL0     H81766   3.443  11.231   3.893  1.0010 -1.6019  1.7174
  606MOL0     H81767   3.554  11.368   3.866  1.7675 -1.4945 -1.1152
  606MOL0     H81768   3.519  11.427   4.109 -0.8652  1.0092  0.3300
  606MOL0     H81769   3.395  11.301   4.119  3.0704 -2.7445 -0.3223
  606MOL0     H81770   3.404  11.545   4.267  1.9331 -0.7310 -2.6540
  606MOL0     H81771   3.326  11.844   4.428  0.7239 -0.8539  0.6838
  606MOL0     H81772   3.206  11.729   4.484  0.3413  0.5830  1.5197
  606MOL0     H81773   3.377  11.682   4.453  0.2879  0.4970 -0.5936
  606MOL0     H81774   3.033  11.934   4.628 -2.1341 -0.4200  1.2125
  606MOL0     H81775   2.876  12.094   4.714 -0.3495 -0.6096  0.4564
  606MOL0     H81776   2.809  12.475   4.568 -1.0990  0.6405 -1.2122
  606MOL0     H81777   2.695  12.405   4.455  0.5457 -1.0599 -0.2738
  606MOL0     H81778   2.592  12.581   4.581 -1.1870  0.5744  1.7305
  606MOL0     H81779   2.520  12.418   4.630  1.6564 -3.0651 -2.4764
  606MOL0     H81780   2.737  12.565   4.788  1.0037 -1.3420  1.4869
  606MOL0     H81781   2.650  12.417   4.826  1.0469  0.5289 -0.6110
  606MOL0     H81782   2.519  12.697   4.782 -3.6798 -0.1339 -1.2643
  606MOL0     H81783   2.420  12.561   4.797 -1.7379  2.7048  0.1986
  606MOL0     H81784   2.545  12.507   5.023 -1.6846 -0.8958 -1.2242
  606MOL0     H81785   2.415  12.619   5.006 -0.2186 -0.2189 -0.5581
  606MOL0     H81786   2.716  12.685   5.008  0.5412  4.1147 -2.7462
  606MOL0     H81787   2.584  12.798   4.979 -1.4211 -0.6104 -1.2520
  606MOL0     H81788   2.650  12.647   5.246  0.8111 -0.2265 -0.3702
  606MOL0     H81789   2.501  12.740   5.228  0.7277  2.3942  0.3177
  606MOL0     H81790   2.721  12.835   5.343  2.1656  0.8542  0.7163
  606MOL0     H81791   2.621  12.942   5.247  1.1660  0.6585 -1.3750
  606MOL0     H81792   2.805  12.270   4.335  1.3282  0.1842 -1.2778
  606MOL0     H81793   2.981  12.130   4.239 -1.6505 -1.0216 -1.5306
  606MOL0     H81794   3.013  11.735   4.030 -1.4099 -2.3716  2.5400
  606MOL0     H81795   3.160  11.573   3.913 -0.6952 -2.2595  0.2851
  606MOL0     H81796   5.374  10.957   4.286 -2.3065  1.9373  1.8759
  606MOL0     H81797   5.625  11.024   4.252  1.2293  0.9412 -0.8034
  606MOL0     H81798   5.987  10.912   3.930  0.2427  0.2499 -0.5736
  606MOL0     H81799   6.208  10.983   3.851 -0.3179 -0.1618  0.9190
  606MOL0     H81800   6.303  11.399   3.792 -1.5370  1.5713  2.9828
  606MOL0     H81801   6.357  11.385   3.956  0.8393  0.4755 -0.5442
  606MOL0     H81802   6.543  11.417   3.818 -0.2436 -1.0054  1.8980
  606MOL0     H81803   6.497  11.276   3.711 -1.8196  1.3270 -1.3450
  606MOL0     H81804   6.693  11.241   3.841 -1.3672 -0.8869 -0.7861
  606MOL0     H81805   6.567  11.126   3.885 -3.4485  0.9204  1.4600
  606MOL0     H81806   6.663  11.194   4.094 -0.1726 -1.2128 -0.8928
  606MOL0     H81807   6.494  11.267   4.085 -1.1618  3.3156 -1.9122
  606MOL0     H81808   6.734  11.609   4.082 -2.6774  0.8588 -5.0525
  606MOL0     H81809   6.087  11.394   3.900 -1.3321  0.0975  0.0365
  606MOL0     H81810   5.872  11.316   3.992  0.2659  0.0392  1.4910
  607MOL0     O81811   2.790   3.152   2.494 -0.1371 -0.2732  0.6345
  607MOL0     C81812   2.826   3.268   2.485 -0.0829 -0.3487  0.1964
  607MOL0     O81813   2.768   3.371   2.543  0.0111 -0.3216  0.2109
  607MOL0     C81814   2.652   3.367   2.619  0.5417  0.6455 -0.1196
  607MOL0     C81815   2.557   3.268   2.614 -0.4861 -0.0628  0.1830
  607MOL0     C81816   2.440   3.266   2.690  0.3859  0.4009  0.7906
  607MOL0     C81817   2.420   3.366   2.789 -0.0288  0.2994  0.0356
  607MOL0     O81818   2.309   3.386   2.856  0.5791 -0.6434 -0.1020
  607MOL0     C81819   2.182   3.367   2.788 -0.4371  0.9065 -0.2967
  607MOL0     C81820   2.070   3.410   2.891  0.4574 -0.1474  0.2953
  607MOL0     C81821   1.931   3.411   2.816  0.1958 -0.2130 -0.1094
  607MOL0     C81822   1.865   3.282   2.833  0.2066 -0.0908 -0.0660
  607MOL0     C81823   1.720   3.290   2.786 -0.4596  0.2199  0.5753
  607MOL0     C81824   1.656   3.155   2.831 -0.0737  0.4394 -0.5038
  607MOL0     C81825   1.508   3.154   2.806 -0.0631 -0.0666 -0.2922
  607MOL0     C81826   1.432   3.029   2.850 -0.8559 -0.6596 -0.1707
  607MOL0     N81827   1.296   3.047   2.806 -0.2036 -0.4306 -0.1694
  607MOL0     C81828   1.192   3.041   2.888  0.1883 -0.5714  0.2250
  607MOL0     C81829   1.083   3.017   2.808  0.1491  0.1360 -0.2019
  607MOL0     C81830   0.939   3.012   2.840  0.6304 -0.2670  0.5294
  607MOL0     C81831   0.899   3.059   2.985 -0.1373  0.7336  0.6993
  607MOL0     C81832   0.749   3.034   3.006  0.1255  0.9756  0.8305
  607MOL0     C81833   0.708   3.080   3.150 -0.2642  0.4762 -0.4155
  607MOL0     O81834   0.561   3.092   3.148  0.4172 -0.2253 -0.2121
  607MOL0     C81835   0.471   2.985   3.171 -0.0803  0.2436  1.2766
  607MOL0     C81836   0.509   2.857   3.198 -0.2626  0.0202  0.1776
  607MOL0     C81837   0.416   2.753   3.215  0.2746  0.0705 -0.0125
  607MOL0     C81838   0.473   2.621   3.230  0.5572  0.1439  0.0302
  607MOL0     C81839   0.279   2.782   3.211  0.4630  0.4474 -0.4500
  607MOL0     C81840   0.171   2.685   3.222 -0.2626  0.8773 -0.1707
  607MOL0     O81841   0.036   2.725   3.199 -0.2297 -0.4604 -0.4070
  607MOL0     C81842  -0.070   2.636   3.195  0.9601  1.1342 -0.0932
  607MOL0     C81843  -0.058   2.493   3.167 -0.7054 -0.3438  0.0459
  607MOL0     C81844  -0.169   2.414   3.187  0.0399 -0.3369 -0.1532
  607MOL0     C81845  -0.291   2.471   3.213  0.3991  0.0487 -0.1962
  607MOL0     O81846  -0.413   2.405   3.210 -0.7995 -0.1518 -0.5373
  607MOL0     C81847  -0.419   2.306   3.113 -0.2555 -0.2155  0.5750
  607MOL0     C81848  -0.547   2.231   3.101  1.1774 -0.0078  1.5932
  607MOL0     C81849  -0.649   2.318   3.025 -0.2250  0.8761  0.3271
  607MOL0     C81850  -0.797   2.256   3.024  0.5907  0.0856  0.3805
  607MOL0     C81851  -0.889   2.357   2.947  0.9858  0.7889  0.3639
  607MOL0     C81852  -1.031   2.300   2.963 -0.0675  0.6703  0.0262
  607MOL0     C81853  -1.129   2.371   2.876 -0.4103 -0.3553  0.1229
  607MOL0     C81854  -1.269   2.340   2.931  0.3287  0.6388 -0.0691
  607MOL0    Cl81855  -1.346   2.207   2.833  0.3149  0.1297  0.0822
  607MOL0     C81856  -0.308   2.611   3.213 -0.9230 -0.1740  0.2845
  607MOL0     C81857  -0.201   2.690   3.209  0.2917 -0.0939 -0.4728
  607MOL0     O81858   0.201   2.572   3.271  0.0492  1.0618 -0.6589
  607MOL0     C81859   0.237   2.911   3.176  0.3067  0.3225  0.5545
  607MOL0     C81860   0.336   3.017   3.159  0.4775 -0.3714  0.5528
  607MOL0     N81861   1.128   3.017   2.678 -0.4705  0.6929  0.3698
  607MOL0     N81862   1.253   3.023   2.681 -0.9964 -0.7577 -0.7281
  607MOL0     C81863   2.518   3.462   2.793 -0.1160 -0.7743  0.4771
  607MOL0     C81864   2.635   3.465   2.712  0.1320  0.9246  0.6746
  607MOL0     C81865   2.949   3.299   2.408 -0.1352 -0.1826  0.6512
  607MOL0     C81866   3.000   3.431   2.415  0.8934 -0.9063  0.1710
  607MOL0     C81867   3.128   3.455   2.365 -0.4649  0.1958  1.1092
  607MOL0     C81868   3.196   3.360   2.285  0.0484 -0.2401  0.4345
  607MOL0     O81869   3.310   3.385   2.216 -0.4317  0.2874  0.1978
  607MOL0     C81870   3.356   3.522   2.181  0.4894  0.2822 -0.4094
  607MOL0     C81871   3.436   3.585   2.293  1.0235  0.1745  0.2214
  607MOL0     C81872   3.475   3.727   2.242  0.2585  0.7629 -0.2563
  607MOL0     C81873   3.404   3.835   2.330 -0.1920  0.2311  1.0487
  607MOL0     C81874   3.276   3.876   2.259 -0.3956  0.2908  0.0863
  607MOL0     C81875   3.163   3.888   2.222  0.2733 -0.1878  0.8298
  607MOL0     C81876   3.146   3.235   2.279 -0.0199  0.7093 -0.6772
  607MOL0     C81877   3.023   3.199   2.338  0.3912 -0.5079 -0.2797
  607MOL0     H81878   2.563   3.191   2.539  1.7335 -1.3408  1.5541
  607MOL0     H81879   2.365   3.192   2.663 -1.0152  2.1715 -0.3779
  607MOL0     H81880   2.180   3.434   2.702 -0.7127 -1.6858 -2.4233
  607MOL0     H81881   2.172   3.267   2.745 -0.5730  0.5743  0.4841
  607MOL0     H81882   2.066   3.354   2.985  0.4205  0.6384  0.7795
  607MOL0     H81883   2.094   3.512   2.924 -0.8003  0.0474  0.6861
  607MOL0     H81884   1.876   3.495   2.858 -1.9077 -1.1101 -0.8843
  607MOL0     H81885   1.939   3.430   2.709 -2.2302 -0.5984 -0.4172
  607MOL0     H81886   1.920   3.202   2.782 -0.9747  0.5870 -2.5766
  607MOL0     H81887   1.871   3.262   2.940  1.4638 -1.8402 -0.4164
  607MOL0     H81888   1.674   3.379   2.829  1.4673 -0.1368  3.6358
  607MOL0     H81889   1.704   3.300   2.678  1.3131 -1.0462  0.1425
  607MOL0     H81890   1.702   3.069   2.782  0.1399 -1.9914  3.4901
  607MOL0     H81891   1.680   3.136   2.936 -1.2266  3.9138  0.5259
  607MOL0     H81892   1.467   3.242   2.856  1.2258  0.1057  0.4819
  607MOL0     H81893   1.485   3.166   2.699 -0.3243  4.6291  0.0845
  607MOL0     H81894   1.435   3.034   2.959  1.0935  1.6735 -0.2596
  607MOL0     H81895   1.476   2.936   2.812 -1.3181  0.3288 -3.3663
  607MOL0     H81896   1.184   3.045   2.997 -0.2170 -1.0249  0.2165
  607MOL0     H81897   0.891   3.075   2.765  2.8311 -0.1022 -0.8364
  607MOL0     H81898   0.903   2.911   2.821 -2.0314 -0.2420  4.3886
  607MOL0     H81899   0.924   3.165   2.996  0.7885  0.4725  1.2500
  607MOL0     H81900   0.949   3.008   3.069 -1.1433 -1.3329  0.1240
  607MOL0     H81901   0.720   2.928   3.010 -0.5374  1.1948  2.9736
  607MOL0     H81902   0.687   3.081   2.930  0.7368  1.9711  0.9371
  607MOL0     H81903   0.746   3.177   3.183 -0.7731  0.9505 -1.1650
  607MOL0     H81904   0.744   3.013   3.227  0.4038  2.4403  1.0692
  607MOL0     H81905   0.613   2.826   3.199 -0.9087 -2.3633 -0.1221
  607MOL0     H81906   0.580   2.624   3.208  0.4729 -0.8703 -0.5809
  607MOL0     H81907   0.465   2.582   3.332  0.6054  1.4619  0.5517
  607MOL0     H81908   0.439   2.545   3.159 -2.9234  1.3514  0.2516
  607MOL0     H81909   0.036   2.442   3.149  1.3815  2.3864  2.3211
  607MOL0     H81910  -0.162   2.306   3.177  0.6711 -0.1564 -1.9766
  607MOL0     H81911  -0.391   2.343   3.014 -0.2279 -0.1423  0.6095
  607MOL0     H81912  -0.345   2.230   3.138  1.3468  1.1644  0.1753
  607MOL0     H81913  -0.520   2.142   3.043 -0.1843  1.5112 -1.5613
  607MOL0     H81914  -0.591   2.205   3.198 -0.3103 -1.5239  0.5650
  607MOL0     H81915  -0.612   2.322   2.922  0.5997  1.9653  0.6531
  607MOL0     H81916  -0.645   2.421   3.060 -3.2157  1.4242 -0.6624
  607MOL0     H81917  -0.803   2.155   2.982 -2.3681  0.6413 -0.7980
  607MOL0     H81918  -0.824   2.249   3.130  2.7464 -0.5108  0.9308
  607MOL0     H81919  -0.860   2.364   2.841  0.4661  1.4854  0.2598
  607MOL0     H81920  -0.884   2.458   2.988  1.9959  0.5797  0.7741
  607MOL0     H81921  -1.033   2.192   2.947 -1.7473  0.6884 -0.0630
  607MOL0     H81922  -1.060   2.319   3.066 -0.4789  2.3057 -0.3560
  607MOL0     H81923  -1.109   2.350   2.771  0.2602 -2.3814  0.6091
  607MOL0     H81924  -1.127   2.480   2.884 -1.3058 -0.2726 -0.5614
  607MOL0     H81925  -1.339   2.424   2.921  0.3050  0.8547  1.6233
  607MOL0     H81926  -1.272   2.310   3.036  0.4415 -1.3967 -0.6099
  607MOL0     H81927  -0.409   2.649   3.221 -0.0966  2.0646  0.6622
  607MOL0     H81928  -0.207   2.793   3.241  0.0490  0.2887 -1.6893
  607MOL0     H81929   0.132   2.934   3.164  0.8266  1.9057 -1.3583
  607MOL0     H81930   0.320   3.122   3.134  1.4091 -0.9462 -2.9441
  607MOL0     H81931   2.505   3.545   2.862 -0.5907 -0.1878 -0.3093
  607MOL0     H81932   2.711   3.542   2.725  1.6169  0.1841 -2.6612
  607MOL0     H81933   2.939   3.506   2.464  0.4036 -2.7607  2.5858
  607MOL0     H81934   3.160   3.558   2.372  1.2599 -0.2357  0.1711
  607MOL0     H81935   3.417   3.513   2.090 -0.4669 -4.2883 -0.8253
  607MOL0     H81936   3.268   3.585   2.168 -0.6583 -1.1455  0.1559
  607MOL0     H81937   3.527   3.527   2.307  0.3839 -1.0448 -0.4805
  607MOL0     H81938   3.369   3.594   2.379  1.7607  0.3121  0.7892
  607MOL0     H81939   3.456   3.736   2.135 -2.1326  0.9902  0.1328
  607MOL0     H81940   3.582   3.737   2.263 -0.3209  1.3248  3.1179
  607MOL0     H81941   3.463   3.927   2.325 -1.9741  1.4401  1.3184
  607MOL0     H81942   3.381   3.805   2.432  2.2614 -2.3546  0.9730
  607MOL0     H81943   3.059   3.898   2.201  0.3713 -1.1108 -0.2296
  607MOL0     H81944   3.209   3.164   2.227  1.7917  1.5072  0.3015
  607MOL0     H81945   2.986   3.097   2.341 -3.1221  0.6095 -0.4584
  608MOL0     O81946   1.364   0.741   5.371 -0.2487  0.3109  0.0426
  608MOL0     C81947   1.371   0.863   5.372 -0.2870  0.0827  1.0164
  608MOL0     O81948   1.271   0.954   5.389  0.3520 -0.5316  0.0619
  608MOL0     C81949   1.142   0.917   5.408  0.1805  0.7981 -0.3367
  608MOL0     C81950   1.118   0.824   5.513 -0.6880 -0.1970 -0.5229
  608MOL0     C81951   0.986   0.802   5.547 -0.0611  0.1334 -0.2223
  608MOL0     C81952   0.883   0.861   5.481  0.9024 -0.4891  0.3741
  608MOL0     O81953   0.757   0.826   5.533 -0.3375 -0.1480 -0.3174
  608MOL0     C81954   0.644   0.907   5.501  0.6327 -0.4854 -0.8494
  608MOL0     C81955   0.515   0.855   5.552 -0.1476  0.3855  0.4038
  608MOL0     C81956   0.470   0.721   5.500 -0.2010  0.4470  0.2704
  608MOL0     C81957   0.325   0.672   5.537 -0.6289 -0.4230 -0.0448
  608MOL0     C81958   0.285   0.531   5.487  0.4490 -0.6433 -0.1375
  608MOL0     C81959   0.322   0.511   5.336 -0.3779  0.4897 -0.5482
  608MOL0     C81960   0.295   0.368   5.288  0.0685  0.5177 -0.6482
  608MOL0     C81961   0.146   0.335   5.276 -0.3124  0.1814 -0.1268
  608MOL0     N81962   0.113   0.191   5.250  0.4621 -0.6468  0.0918
  608MOL0     C81963   0.199   0.100   5.196 -0.0147  0.1839 -0.1618
  608MOL0     C81964   0.126  -0.002   5.145 -0.6998  0.5627  0.1129
  608MOL0     C81965   0.182  -0.121   5.063 -0.3149 -0.6407 -0.4109
  608MOL0     C81966   0.082  -0.223   5.004  0.3321  0.0226 -0.7156
  608MOL0     C81967  -0.015  -0.157   4.904 -0.1810  0.1242 -0.5430
  608MOL0     C81968  -0.153  -0.225   4.885  0.1936 -0.8070 -0.3273
  608MOL0     O81969  -0.205  -0.166   4.766  0.7700  0.5258  0.3542
  608MOL0     C81970  -0.327  -0.209   4.723 -0.2731  0.0201  0.1485
  608MOL0     C81971  -0.376  -0.146   4.617 -0.0526 -0.2915 -0.3723
  608MOL0     C81972  -0.502  -0.171   4.563  0.3189 -1.1304  0.1247
  608MOL0     C81973  -0.538  -0.082   4.447  0.0481  0.7523 -0.1895
  608MOL0     C81974  -0.586  -0.267   4.622 -0.8913 -0.3012 -0.7693
  608MOL0     C81975  -0.729  -0.295   4.597 -0.2134  0.6491 -0.4570
  608MOL0     O81976  -0.777  -0.416   4.633 -0.0129  0.0439 -0.2086
  608MOL0     C81977  -0.890  -0.469   4.577 -0.0623  0.2834 -0.3885
  608MOL0     C81978  -0.914  -0.441   4.440  0.1345  0.6113  0.3650
  608MOL0     C81979  -1.034  -0.491   4.382  0.0256  0.2591  0.0007
  608MOL0     C81980  -1.128  -0.559   4.455  0.3394  0.1614  0.2107
  608MOL0     O81981  -1.247  -0.596   4.403  0.5048 -0.0284 -0.0209
  608MOL0     C81982  -1.285  -0.598   4.261 -0.6516  0.7977 -0.6089
  608MOL0     C81983  -1.418  -0.664   4.228  0.3576 -0.2773 -0.0551
  608MOL0     C81984  -1.529  -0.589   4.313 -0.5899  0.5655  0.0482
  608MOL0     C81985  -1.668  -0.640   4.270 -0.8477  0.7221  0.1552
  608MOL0     C81986  -1.776  -0.574   4.351 -0.8508 -0.0474  0.1359
  608MOL0     C81987  -1.913  -0.615   4.301 -0.5042  0.7026 -0.4672
  608MOL0     C81988  -2.015  -0.558   4.394 -0.5161 -0.2768  0.8582
  608MOL0     C81989  -2.151  -0.539   4.309 -0.0308 -0.4310 -0.8710
  608MOL0    Cl81990  -2.288  -0.494   4.418  0.1852  0.2167  0.0742
  608MOL0     C81991  -1.100  -0.589   4.586  0.2155 -0.5965  0.4897
  608MOL0     C81992  -0.978  -0.547   4.647  0.4808 -0.2456 -0.3603
  608MOL0     O81993  -0.804  -0.207   4.550 -0.5360 -0.2538 -0.6491
  608MOL0     C81994  -0.530  -0.339   4.727 -0.3734  0.0735  0.0178
  608MOL0     C81995  -0.400  -0.316   4.775  1.1987 -0.1586 -0.5359
  608MOL0     N81996  -0.009   0.028   5.167  0.1452  0.2891 -0.6237
  608MOL0     N81997  -0.011   0.141   5.234  0.2177 -0.1984  1.0448
  608MOL0     C81998   0.905   0.945   5.373  0.6450 -0.3754  0.2049
  608MOL0     C81999   1.035   0.963   5.330 -0.1546 -0.0206 -0.0434
  608MOL0     C82000   1.508   0.914   5.391  0.5257  0.3708 -0.5602
  608MOL0     C82001   1.533   1.050   5.357  0.6420  0.2330 -0.3910
  608MOL0     C82002   1.654   1.110   5.367 -0.6113  0.0159 -0.4950
  608MOL0     C82003   1.757   1.033   5.424  1.1390  0.6093 -0.6874
  608MOL0     O82004   1.867   1.104   5.464 -0.0332  0.4603  0.1247
  608MOL0     C82005   1.996   1.042   5.479 -0.1935  0.5769  0.5436
  608MOL0     C82006   2.108   1.143   5.457  0.1239 -0.2779 -0.7415
  608MOL0     C82007   2.105   1.199   5.314 -0.1043 -0.2190  0.4873
  608MOL0     C82008   2.228   1.277   5.280 -0.5134  0.0341 -0.1720
  608MOL0     C82009   2.358   1.221   5.316  0.0874 -0.2883 -0.1951
  608MOL0     C82010   2.463   1.178   5.340 -1.1895 -0.5287  0.9212
  608MOL0     C82011   1.731   0.894   5.466  1.0417 -0.5668 -0.1318
  608MOL0     C82012   1.608   0.835   5.443  0.8055 -0.0328 -0.2875
  608MOL0     H82013   1.199   0.783   5.573 -1.7187  0.6981  1.5999
  608MOL0     H82014   0.966   0.732   5.627  1.9465 -0.3259 -0.0545
  608MOL0     H82015   0.656   1.012   5.529  1.6314 -0.5649 -0.9169
  608MOL0     H82016   0.640   0.908   5.392 -0.9549  0.7659 -0.8124
  608MOL0     H82017   0.513   0.847   5.661 -1.6042  0.0185  0.3696
  608MOL0     H82018   0.442   0.929   5.520 -0.2834  0.4490  0.8438
  608MOL0     H82019   0.463   0.721   5.391  0.7727 -4.9562 -0.0477
  608MOL0     H82020   0.542   0.643   5.527  0.1419  0.2095 -1.2826
  608MOL0     H82021   0.313   0.686   5.644  0.0181 -0.2656  0.0120
  608MOL0     H82022   0.249   0.738   5.495  0.2284 -0.8574 -2.4825
  608MOL0     H82023   0.333   0.456   5.550  0.5266 -0.0172  0.5702
  608MOL0     H82024   0.178   0.510   5.500  0.5161 -2.0443 -1.5537
  608MOL0     H82025   0.278   0.588   5.273 -0.3609  2.1520  1.3888
  608MOL0     H82026   0.431   0.520   5.345 -0.2333 -1.9807  1.1993
  608MOL0     H82027   0.346   0.347   5.194  0.5767 -1.2118 -0.0234
  608MOL0     H82028   0.332   0.299   5.364  2.1202  1.9455 -0.2655
  608MOL0     H82029   0.108   0.392   5.191  0.5522  1.2622  0.1893
  608MOL0     H82030   0.086   0.371   5.359 -0.0711 -0.8783  0.5235
  608MOL0     H82031   0.307   0.112   5.203 -0.1828  0.9716  1.3703
  608MOL0     H82032   0.234  -0.073   4.980  0.0662  1.0336  0.7577
  608MOL0     H82033   0.244  -0.186   5.126 -2.1986 -3.9687 -1.7240
  608MOL0     H82034   0.016  -0.263   5.081 -0.9213  2.9040 -0.1582
  608MOL0     H82035   0.136  -0.293   4.938 -0.2685  1.8034 -3.2565
  608MOL0     H82036   0.037  -0.152   4.808  0.3870  2.2425 -0.1809
  608MOL0     H82037  -0.025  -0.049   4.921 -0.7616 -0.3854  3.3438
  608MOL0     H82038  -0.221  -0.197   4.966 -0.6447 -0.5713 -1.0949
  608MOL0     H82039  -0.141  -0.333   4.875 -4.2676 -1.7648  2.2859
  608MOL0     H82040  -0.332  -0.060   4.568 -0.5705 -0.8960 -1.9686
  608MOL0     H82041  -0.610  -0.013   4.492 -0.1514  1.4666 -1.5541
  608MOL0     H82042  -0.458  -0.015   4.414 -1.7065  3.4043  0.6387
  608MOL0     H82043  -0.582  -0.133   4.360 -2.8579 -0.4470  1.8465
  608MOL0     H82044  -0.842  -0.384   4.382  0.2729  0.2533  0.1829
  608MOL0     H82045  -1.044  -0.481   4.274 -0.4804  0.8735  0.1005
  608MOL0     H82046  -1.285  -0.492   4.236  0.0900  0.4701 -2.1149
  608MOL0     H82047  -1.211  -0.649   4.198 -1.7318  0.9279 -2.0460
  608MOL0     H82048  -1.431  -0.653   4.120  0.8595  0.0819 -0.0878
  608MOL0     H82049  -1.411  -0.772   4.242  3.1892 -0.6842 -3.1902
  608MOL0     H82050  -1.524  -0.481   4.303 -1.2988  1.1011  3.7852
  608MOL0     H82051  -1.508  -0.616   4.417  0.8413  2.8186  0.3987
  608MOL0     H82052  -1.670  -0.617   4.162 -1.5869  0.1672  0.0399
  608MOL0     H82053  -1.666  -0.748   4.284  1.7933  0.7347  0.2359
  608MOL0     H82054  -1.761  -0.466   4.353 -1.0467  0.0128 -1.0245
  608MOL0     H82055  -1.770  -0.616   4.452 -1.4263 -1.0359 -0.2243
  608MOL0     H82056  -1.944  -0.580   4.202 -1.9660 -1.0376 -0.6725
  608MOL0     H82057  -1.935  -0.722   4.292  0.8347  0.4626 -1.3155
  608MOL0     H82058  -1.985  -0.459   4.431 -2.1323  0.7794 -0.4650
  608MOL0     H82059  -2.033  -0.627   4.477 -1.8608 -0.1482  0.7007
  608MOL0     H82060  -2.177  -0.621   4.241  1.7953 -0.0639 -2.0936
  608MOL0     H82061  -2.142  -0.455   4.240 -3.6801 -0.2777 -1.3712
  608MOL0     H82062  -1.180  -0.638   4.640 -0.5525  1.7993  1.6950
  608MOL0     H82063  -0.975  -0.559   4.754  1.5053 -0.1052 -0.3670
  608MOL0     H82064  -0.584  -0.418   4.777  1.5645  0.1867  2.4605
  608MOL0     H82065  -0.366  -0.377   4.858  1.2605  0.4063 -0.1364
  608MOL0     H82066   0.826   0.981   5.307  1.3298 -0.1791 -0.5199
  608MOL0     H82067   1.050   1.023   5.240 -2.8450  0.8114  0.0004
  608MOL0     H82068   1.440   1.099   5.329  0.6027  2.5779  3.1441
  608MOL0     H82069   1.670   1.215   5.344  2.8529 -0.0598  0.9590
  608MOL0     H82070   2.006   0.986   5.573  0.2017  0.4302  0.4159
  608MOL0     H82071   2.012   0.964   5.403  1.6466 -0.3326  1.7839
  608MOL0     H82072   2.201   1.092   5.482  1.6590  2.2442 -0.9230
  608MOL0     H82073   2.090   1.226   5.527  3.3491 -0.7210  0.7975
  608MOL0     H82074   2.016   1.261   5.301 -1.6871 -1.8869  2.5782
  608MOL0     H82075   2.103   1.114   5.245  2.5616 -0.4739  0.6113
  608MOL0     H82076   2.207   1.372   5.331 -3.1373  1.0006 -2.7560
  608MOL0     H82077   2.229   1.290   5.171 -1.5469  2.0626  0.0035
  608MOL0     H82078   2.560   1.144   5.370  0.8442  2.8039 -1.2095
  608MOL0     H82079   1.810   0.833   5.508  2.2213  0.4249 -0.8489
  608MOL0     H82080   1.595   0.728   5.455  1.5546 -0.1011 -0.0392
  609MOL0     O82081   3.632   2.785   4.508  0.0192 -0.2516 -0.0936
  609MOL0     C82082   3.712   2.756   4.596 -0.6320 -0.3051  0.0138
  609MOL0     O82083   3.683   2.747   4.729  0.4544  0.2226 -0.3412
  609MOL0     C82084   3.545   2.735   4.752 -0.3861 -0.3919  0.7258
  609MOL0     C82085   3.491   2.616   4.804 -0.5074 -0.0541  1.0341
  609MOL0     C82086   3.352   2.610   4.833 -1.1018  0.4572 -0.1234
  609MOL0     C82087   3.269   2.720   4.803 -0.2911  0.8159 -0.8809
  609MOL0     O82088   3.135   2.716   4.839 -0.5676 -0.0209 -0.4500
  609MOL0     C82089   3.043   2.675   4.741  0.3400 -0.0678  0.4033
  609MOL0     C82090   2.919   2.673   4.816  0.0836 -0.6608  0.0278
  609MOL0     C82091   2.797   2.646   4.732  0.0941 -0.5585 -0.3665
  609MOL0     C82092   2.666   2.704   4.794  0.0744 -0.4589 -0.0394
  609MOL0     C82093   2.613   2.625   4.921 -0.8248 -0.4634  0.0667
  609MOL0     C82094   2.551   2.483   4.887 -0.5244 -0.1993  0.3137
  609MOL0     C82095   2.465   2.422   4.997  0.0699 -0.9494  1.0467
  609MOL0     C82096   2.334   2.504   5.024  0.3979  0.7995 -0.2337
  609MOL0     N82097   2.263   2.444   5.139 -0.1087  0.4756 -0.0887
  609MOL0     C82098   2.325   2.398   5.256  0.3950 -0.6409 -0.5163
  609MOL0     C82099   2.223   2.364   5.336  0.7342 -0.1665 -0.2237
  609MOL0     C82100   2.221   2.312   5.478 -0.1719 -0.5997 -0.3208
  609MOL0     C82101   2.130   2.193   5.498  0.4192  0.5003  0.0504
  609MOL0     C82102   2.118   2.164   5.645  0.6523 -0.1615  0.4993
  609MOL0     C82103   2.030   2.041   5.664  0.3647 -0.1340 -0.1390
  609MOL0     O82104   1.993   2.019   5.799 -0.2618 -0.4250 -0.0714
  609MOL0     C82105   1.871   1.965   5.813  1.5073 -0.3486  0.1146
  609MOL0     C82106   1.790   1.897   5.718 -0.4611 -0.4332 -0.1914
  609MOL0     C82107   1.669   1.842   5.759 -1.1950 -0.8844  0.8315
  609MOL0     C82108   1.593   1.767   5.651 -1.1324 -0.3351 -0.5040
  609MOL0     C82109   1.624   1.853   5.890  0.1014  1.1425 -0.7097
  609MOL0     C82110   1.487   1.818   5.946 -1.0785 -0.0021 -0.6267
  609MOL0     O82111   1.402   1.771   5.853  0.5798  0.3259 -0.0133
  609MOL0     C82112   1.265   1.773   5.884 -1.1050 -0.2406  0.4502
  609MOL0     C82113   1.188   1.662   5.874  0.2421 -0.0299 -0.0393
  609MOL0     C82114   1.046   1.665   5.890 -0.6008  0.3565 -0.0504
  609MOL0     C82115   0.987   1.785   5.931 -0.2665 -0.3359 -0.6830
  609MOL0     O82116   0.850   1.793   5.956  0.0362 -0.2231  0.2548
  609MOL0     C82117   0.774   1.673   5.975 -0.0718  0.1175 -0.3035
  609MOL0     C82118   0.626   1.703   6.011 -0.4214  0.2837 -0.5890
  609MOL0     C82119   0.606   1.746   6.154  1.0521  0.2074 -0.3980
  609MOL0     C82120   0.454   1.754   6.191 -1.1667 -0.2334 -0.3093
  609MOL0     C82121   0.351   1.807   6.083  0.1283  0.6721  0.6080
  609MOL0     C82122   0.210   1.773   6.128 -0.2181 -0.3640 -0.1053
  609MOL0     C82123   0.152   1.629   6.094 -0.5754  0.2946 -0.5726
  609MOL0     C82124  -0.005   1.609   6.132 -0.7211 -0.0293 -0.1048
  609MOL0    Cl82125  -0.035   1.618   6.311 -0.2011 -0.2441 -0.5066
  609MOL0     C82126   1.066   1.902   5.942 -1.0369 -0.1015 -0.4816
  609MOL0     C82127   1.206   1.895   5.922 -0.6316 -0.3752 -0.5830
  609MOL0     O82128   1.460   1.840   6.064  0.3205 -0.1336 -0.6195
  609MOL0     C82129   1.706   1.915   5.980 -0.2815  0.4799  0.4733
  609MOL0     C82130   1.829   1.967   5.946 -0.4278  0.0774  0.2018
  609MOL0     N82131   2.105   2.402   5.275 -0.4860  0.4720 -0.2688
  609MOL0     N82132   2.130   2.449   5.161  0.7610 -0.6943  0.5686
  609MOL0     C82133   3.324   2.839   4.751 -0.0456 -0.1569  0.2682
  609MOL0     C82134   3.465   2.849   4.736  0.3964  0.1296  0.1403
  609MOL0     C82135   3.852   2.748   4.562  0.0839  0.1749 -0.0526
  609MOL0     C82136   3.895   2.741   4.424  0.5627 -0.0394 -0.8910
  609MOL0     C82137   4.023   2.735   4.389  0.1319  0.5473 -0.0106
  609MOL0     C82138   4.125   2.717   4.486  0.5697  0.8672  0.6245
  609MOL0     O82139   4.240   2.682   4.426 -0.5137  0.0042  0.5266
  609MOL0     C82140   4.365   2.683   4.510 -0.3196  0.9529 -0.2760
  609MOL0     C82141   4.486   2.632   4.427  0.4826 -0.2156  0.1234
  609MOL0     C82142   4.498   2.718   4.301  0.5500  0.0979  0.7697
  609MOL0     C82143   4.634   2.706   4.242 -0.0795 -0.1027  0.0415
  609MOL0     C82144   4.702   2.830   4.256  0.4159 -0.5718  0.1376
  609MOL0     C82145   4.770   2.927   4.274  0.2887  0.4290 -0.2318
  609MOL0     C82146   4.087   2.726   4.623 -0.4316  0.4821  1.2954
  609MOL0     C82147   3.952   2.743   4.656  0.6038 -0.1025  0.4004
  609MOL0     H82148   3.543   2.522   4.820 -0.5568 -0.6403 -1.7512
  609MOL0     H82149   3.311   2.516   4.869  0.6112  0.8506  3.1562
  609MOL0     H82150   3.039   2.751   4.662 -1.0851  1.1549  1.5791
  609MOL0     H82151   3.065   2.580   4.693  0.2613  0.8914 -1.6554
  609MOL0     H82152   2.931   2.591   4.887  1.3718 -0.2966  0.2596
  609MOL0     H82153   2.905   2.766   4.872  1.2999 -0.3951 -0.0840
  609MOL0     H82154   2.808   2.670   4.626 -0.6400 -1.2678 -0.6120
  609MOL0     H82155   2.781   2.538   4.722 -0.4316 -0.3912 -1.5763
  609MOL0     H82156   2.695   2.805   4.825  0.7541 -0.2883 -1.1887
  609MOL0     H82157   2.583   2.700   4.724 -0.6946 -0.3312  0.8459
  609MOL0     H82158   2.703   2.614   4.982  0.6383 -0.7921 -2.0375
  609MOL0     H82159   2.533   2.679   4.973  0.2774  0.9146  0.3727
  609MOL0     H82160   2.487   2.490   4.799 -0.7131  0.0544  0.4711
  609MOL0     H82161   2.630   2.414   4.854 -0.5848 -0.3742  0.5320
  609MOL0     H82162   2.424   2.327   4.962 -0.7053 -0.0625 -0.5413
  609MOL0     H82163   2.527   2.414   5.087  1.0522  0.4399  0.5407
  609MOL0     H82164   2.277   2.485   4.932  2.1961 -2.8022 -0.7901
  609MOL0     H82165   2.364   2.606   5.050  4.5598 -0.1916 -0.4539
  609MOL0     H82166   2.430   2.400   5.286 -0.0576 -1.2421  1.2149
  609MOL0     H82167   2.325   2.292   5.508 -0.8323 -1.7397  1.3712
  609MOL0     H82168   2.178   2.389   5.543  1.1840 -1.3949  1.6147
  609MOL0     H82169   2.160   2.105   5.440  2.0332  0.5127  0.8040
  609MOL0     H82170   2.032   2.229   5.465  0.4521  1.1086  0.6018
  609MOL0     H82171   2.065   2.251   5.687  0.3845  2.1191 -3.9922
  609MOL0     H82172   2.214   2.156   5.697  0.1431 -0.0741  1.4867
  609MOL0     H82173   2.078   1.947   5.637 -1.2153 -0.5692 -1.6869
  609MOL0     H82174   1.944   2.061   5.599 -0.5780 -1.6587  0.5962
  609MOL0     H82175   1.824   1.891   5.615 -0.1301 -2.3896 -0.0143
  609MOL0     H82176   1.664   1.754   5.569 -1.1053 -0.4560 -0.4614
  609MOL0     H82177   1.569   1.668   5.689 -0.7967  0.0443  0.7645
  609MOL0     H82178   1.498   1.813   5.623 -1.9889 -1.7397 -0.0123
  609MOL0     H82179   1.224   1.567   5.836  0.6570  0.4648 -0.9215
  609MOL0     H82180   0.987   1.574   5.878 -1.0802  0.6752 -0.1475
  609MOL0     H82181   0.768   1.625   5.877  0.8309 -2.5223  0.8341
  609MOL0     H82182   0.812   1.604   6.052 -2.1657 -0.3361  0.3919
  609MOL0     H82183   0.585   1.786   5.953  2.4391  2.2638  0.0322
  609MOL0     H82184   0.572   1.607   6.008 -0.5219  0.1217  2.6495
  609MOL0     H82185   0.655   1.843   6.170  1.1706  0.4398 -1.9716
  609MOL0     H82186   0.660   1.675   6.217  1.0726 -0.1545 -0.8187
  609MOL0     H82187   0.419   1.653   6.216 -4.2903  0.4939 -1.3005
  609MOL0     H82188   0.458   1.829   6.270 -0.0264  1.2855 -1.7461
  609MOL0     H82189   0.361   1.747   5.992 -2.2896  1.7140 -0.4101
  609MOL0     H82190   0.362   1.913   6.060 -1.2712  1.0963  1.7720
  609MOL0     H82191   0.194   1.781   6.236 -0.3816  1.3158 -0.2309
  609MOL0     H82192   0.150   1.845   6.071  1.0631  0.4307 -0.4904
  609MOL0     H82193   0.219   1.561   6.148 -1.5748  0.1150  0.4962
  609MOL0     H82194   0.171   1.611   5.988  1.0954  0.4170 -0.3312
  609MOL0     H82195  -0.031   1.507   6.101  0.2703  0.0708 -1.3185
  609MOL0     H82196  -0.063   1.684   6.078  0.0187 -1.0035 -2.3850
  609MOL0     H82197   1.022   1.997   5.971 -0.1706  0.4861 -1.0506
  609MOL0     H82198   1.274   1.980   5.929  0.7392 -1.5632  2.0923
  609MOL0     H82199   1.678   1.917   6.085  2.0733 -0.0005  1.1794
  609MOL0     H82200   1.897   2.016   6.016  0.0473  0.2348 -0.3582
  609MOL0     H82201   3.259   2.925   4.744  3.2282  2.8122  2.8902
  609MOL0     H82202   3.500   2.943   4.696 -1.9630  0.9522 -0.1659
  609MOL0     H82203   3.820   2.749   4.346  2.0378 -1.0260 -2.4981
  609MOL0     H82204   4.055   2.731   4.286  1.2280  0.1865  0.3220
  609MOL0     H82205   4.386   2.786   4.543 -0.1616  1.5251 -2.0154
  609MOL0     H82206   4.342   2.612   4.589 -1.5691  0.7204 -0.8345
  609MOL0     H82207   4.469   2.529   4.391  1.4396 -0.1527 -0.5356
  609MOL0     H82208   4.581   2.635   4.480  0.9889  0.8995 -0.8183
  609MOL0     H82209   4.474   2.821   4.327 -2.1105 -0.0874 -0.6117
  609MOL0     H82210   4.425   2.679   4.230  0.7295  0.0163  0.6307
  609MOL0     H82211   4.629   2.688   4.134  2.3824 -0.7216 -0.0343
  609MOL0     H82212   4.691   2.622   4.284 -1.1636 -1.3264 -0.8783
  609MOL0     H82213   4.827   3.018   4.286  1.0327 -0.3056  2.2991
  609MOL0     H82214   4.156   2.696   4.701 -1.5987 -2.8500  1.2000
  609MOL0     H82215   3.931   2.738   4.763  2.7112 -1.3920  0.8244
  610MOL0     O82216   3.193   0.508  10.746  0.4876 -0.8035 -0.1741
  610MOL0     C82217   3.205   0.528  10.619  0.3405  0.0268 -0.1163
  610MOL0     O82218   3.114   0.556  10.527  0.3709 -0.2443 -0.3866
  610MOL0     C82219   2.981   0.581  10.560 -0.4861  0.1907 -0.4374
  610MOL0     C82220   2.921   0.648  10.453  0.2032  0.6555 -0.3483
  610MOL0     C82221   2.791   0.699  10.463 -0.2558 -0.4183 -0.0726
  610MOL0     C82222   2.714   0.666  10.570  0.2233 -0.5177 -0.3925
  610MOL0     O82223   2.585   0.708  10.558  0.2389  0.3386 -0.9588
  610MOL0     C82224   2.489   0.625  10.629 -0.0092 -0.2576  0.4673
  610MOL0     C82225   2.350   0.701  10.622  0.1803 -0.5202  0.3845
  610MOL0     C82226   2.229   0.613  10.645 -1.0482  0.2156 -0.4032
  610MOL0     C82227   2.090   0.683  10.624 -0.2436  0.8984  0.3449
  610MOL0     C82228   1.985   0.572  10.617  0.7792  0.1221 -0.0111
  610MOL0     C82229   1.841   0.625  10.627  0.4490  0.4549  0.4384
  610MOL0     C82230   1.732   0.522  10.641  0.1118 -0.2476  0.3054
  610MOL0     C82231   1.697   0.426  10.514 -0.2219  0.6390 -0.2304
  610MOL0     N82232   1.714   0.502  10.392 -0.6348  0.4642  0.6304
  610MOL0     C82233   1.650   0.616  10.343  0.0990  0.1220  0.1154
  610MOL0     C82234   1.714   0.648  10.228  0.0971  1.1622 -0.9956
  610MOL0     C82235   1.678   0.758  10.134 -0.1323  0.4557  0.9533
  610MOL0     C82236   1.740   0.889  10.193  0.2182 -0.4759 -0.2991
  610MOL0     C82237   1.742   0.997  10.087 -0.7273  0.3634  0.6507
  610MOL0     C82238   1.602   1.031  10.035  0.7504  0.6938 -0.1603
  610MOL0     O82239   1.564   0.941   9.925  0.2640 -0.0219 -0.2960
  610MOL0     C82240   1.429   0.943   9.881 -0.4500 -0.2245 -0.2996
  610MOL0     C82241   1.389   0.816   9.845  0.1223 -0.7756  0.1589
  610MOL0     C82242   1.254   0.795   9.808 -0.6896  0.2594  0.6797
  610MOL0     C82243   1.219   0.648   9.781  0.3998  0.8001 -0.3931
  610MOL0     C82244   1.159   0.904   9.804 -0.3465 -0.4749  0.5192
  610MOL0     C82245   1.018   0.893   9.755  0.5612  0.5629  0.9865
  610MOL0     O82246   0.938   0.983   9.797  0.2212  0.3829 -0.8221
  610MOL0     C82247   0.797   0.968   9.788 -0.5600 -0.5668 -0.5980
  610MOL0     C82248   0.734   0.845   9.802 -0.2864  0.9360  0.1173
  610MOL0     C82249   0.593   0.834   9.814 -0.0604  0.2371 -0.5485
  610MOL0     C82250   0.517   0.946   9.782  0.4212 -0.6867  0.1623
  610MOL0     O82251   0.379   0.924   9.783  0.5593 -0.1722  0.1571
  610MOL0     C82252   0.292   1.021   9.737  0.7569 -0.2965 -0.8898
  610MOL0     C82253   0.150   0.977   9.796  0.3245  0.1010  0.0253
  610MOL0     C82254   0.041   1.087   9.769  0.2948  0.1076 -0.3643
  610MOL0     C82255  -0.095   1.020   9.791  0.9782  0.2719  0.0244
  610MOL0     C82256  -0.212   1.116   9.792  1.3630  0.4386  1.3652
  610MOL0     C82257  -0.354   1.058   9.840  0.1101 -0.1318  0.7078
  610MOL0     C82258  -0.334   0.998   9.980 -0.2942 -0.4689  0.5460
  610MOL0     C82259  -0.465   0.984  10.067 -0.2957 -1.0407  0.2482
  610MOL0    Cl82260  -0.589   0.922   9.960  0.4171  0.0757  0.0357
  610MOL0     C82261   0.579   1.074   9.766  0.2829  0.0007 -0.1034
  610MOL0     C82262   0.721   1.084   9.770  0.1155  0.1682 -0.2517
  610MOL0     O82263   0.997   0.815   9.658  0.5758  0.7916 -0.3742
  610MOL0     C82264   1.205   1.024   9.849 -0.4959  0.3340  0.4087
  610MOL0     C82265   1.340   1.049   9.881  0.2549 -0.2781 -0.1289
  610MOL0     N82266   1.806   0.552  10.209 -0.1290  0.1572  0.4220
  610MOL0     N82267   1.810   0.465  10.303  0.0308  0.0372  0.0603
  610MOL0     C82268   2.766   0.592  10.673  0.4979  0.3677 -0.4154
  610MOL0     C82269   2.902   0.557  10.672 -0.2724  0.3372  0.1281
  610MOL0     C82270   3.350   0.527  10.575 -0.3299 -0.1918  0.5870
  610MOL0     C82271   3.382   0.554  10.440 -0.2083 -0.3792  0.2607
  610MOL0     C82272   3.511   0.570  10.389  0.9454  0.8245  0.0312
  610MOL0     C82273   3.616   0.542  10.476 -0.2187 -0.8727  0.1011
  610MOL0     O82274   3.752   0.563  10.445 -0.0742 -0.1275 -0.5896
  610MOL0     C82275   3.803   0.575  10.318 -0.0899 -0.3083  0.4542
  610MOL0     C82276   3.952   0.575  10.309  0.5920 -0.1808  1.3148
  610MOL0     C82277   4.013   0.479  10.417  0.3322  1.2589 -0.0923
  610MOL0     C82278   4.157   0.436  10.388  0.4935 -0.1633 -0.7405
  610MOL0     C82279   4.242   0.555  10.373 -0.1442  0.8162 -0.7255
  610MOL0     C82280   4.306   0.651  10.352 -0.6340  0.0453  0.3350
  610MOL0     C82281   3.585   0.525  10.611  1.2549  0.2706  0.8147
  610MOL0     C82282   3.456   0.509  10.660 -0.5874 -0.3851  0.2344
  610MOL0     H82283   2.982   0.670  10.366  0.2110  3.2690  0.2344
  610MOL0     H82284   2.744   0.751  10.380 -1.0979  1.6370  1.5979
  610MOL0     H82285   2.468   0.534  10.572  0.4972 -0.8800  1.2481
  610MOL0     H82286   2.513   0.609  10.735  1.7388  1.1647  0.3217
  610MOL0     H82287   2.363   0.792  10.681  1.6539  0.0232 -0.7079
  610MOL0     H82288   2.337   0.741  10.520 -1.8207  1.2445  1.2541
  610MOL0     H82289   2.242   0.526  10.579  2.0271  1.5359 -1.7251
  610MOL0     H82290   2.223   0.574  10.747 -3.6420  1.9142  0.1996
  610MOL0     H82291   2.074   0.751  10.708 -2.5976 -2.4383  2.8846
  610MOL0     H82292   2.091   0.740  10.531 -0.3035 -1.6202 -1.2912
  610MOL0     H82293   2.007   0.515  10.527 -3.3953 -2.8584  0.5980
  610MOL0     H82294   1.995   0.509  10.706  2.1946  1.0625  0.5286
  610MOL0     H82295   1.848   0.682  10.720  1.6190  1.6432 -0.3388
  610MOL0     H82296   1.833   0.693  10.542  3.3470 -1.4457 -1.5292
  610MOL0     H82297   1.740   0.464  10.733 -1.0402 -0.8177  0.0626
  610MOL0     H82298   1.641   0.580  10.658 -0.1719 -0.1391 -1.4096
  610MOL0     H82299   1.593   0.399  10.535 -0.0318 -0.4396 -0.6431
  610MOL0     H82300   1.768   0.344  10.521  0.7648  1.5410  0.6919
  610MOL0     H82301   1.567   0.673  10.384 -0.7910  1.3268 -3.0499
  610MOL0     H82302   1.730   0.747  10.039 -0.2150 -0.0549  0.9650
  610MOL0     H82303   1.573   0.778  10.115 -0.3301 -0.1758  1.3470
  610MOL0     H82304   1.842   0.874  10.231 -0.0010 -0.1611  0.4302
  610MOL0     H82305   1.675   0.923  10.274 -1.0553 -2.9713 -0.1656
  610MOL0     H82306   1.799   0.973   9.997 -2.8202  0.2059 -0.6875
  610MOL0     H82307   1.795   1.081  10.135  1.2090 -1.2373  1.4829
  610MOL0     H82308   1.597   1.132   9.995  2.6749  0.6215 -0.6746
  610MOL0     H82309   1.527   1.016  10.113  0.3663  3.1102 -0.0168
  610MOL0     H82310   1.460   0.735   9.836 -0.1234 -0.8035 -2.5226
  610MOL0     H82311   1.110   0.635   9.780  0.5673 -0.8092 -0.6027
  610MOL0     H82312   1.251   0.612   9.683  2.6951 -0.6508  0.8163
  610MOL0     H82313   1.269   0.591   9.860 -0.5390  0.6644  0.1192
  610MOL0     H82314   0.799   0.761   9.828 -2.3787 -1.2374 -1.2619
  610MOL0     H82315   0.560   0.734   9.843 -1.6806  0.2547 -2.1275
  610MOL0     H82316   0.308   1.112   9.796 -1.9420 -1.0649  1.2449
  610MOL0     H82317   0.293   1.040   9.629 -2.0646  0.9542 -0.8081
  610MOL0     H82318   0.120   0.891   9.734  1.9060  0.4154 -1.2511
  610MOL0     H82319   0.177   0.953   9.899 -0.0882 -0.1216  0.0837
  610MOL0     H82320   0.054   1.116   9.664  0.5971 -1.0153 -0.6586
  610MOL0     H82321   0.051   1.168   9.841 -2.1559  0.8445 -0.7582
  610MOL0     H82322  -0.112   0.946   9.712 -0.9111  1.4032 -0.6977
  610MOL0     H82323  -0.094   0.966   9.886 -1.2503 -0.2956 -0.2257
  610MOL0     H82324  -0.222   1.165   9.694 -0.0443 -0.8706  0.8057
  610MOL0     H82325  -0.184   1.197   9.860 -0.7454  2.1057  0.3775
  610MOL0     H82326  -0.416   1.147   9.850  1.2748  0.7565  0.2080
  610MOL0     H82327  -0.395   0.976   9.779 -0.7759  1.5888 -1.1092
  610MOL0     H82328  -0.267   1.069  10.028 -0.6012  0.5364 -0.4638
  610MOL0     H82329  -0.289   0.898   9.968 -0.5262 -0.7126  1.6523
  610MOL0     H82330  -0.485   1.085  10.102  1.5240  0.7859 -3.4213
  610MOL0     H82331  -0.442   0.916  10.149 -1.5579  0.8800  2.3029
  610MOL0     H82332   0.513   1.159   9.755  1.1384  0.8470  1.1231
  610MOL0     H82333   0.764   1.182   9.755 -0.2794  0.2259 -1.0667
  610MOL0     H82334   1.132   1.105   9.847  0.6473  1.5013  2.3759
  610MOL0     H82335   1.375   1.146   9.917  1.2685 -1.0579  1.0582
  610MOL0     H82336   2.712   0.548  10.756 -1.7588 -0.1640 -2.0626
  610MOL0     H82337   2.945   0.499  10.753  0.0738  1.2910  0.6402
  610MOL0     H82338   3.294   0.567  10.378  0.6485 -1.6085 -1.2588
  610MOL0     H82339   3.527   0.599  10.286  0.6576  1.7885  0.2488
  610MOL0     H82340   3.760   0.486  10.269  0.0848  0.7397 -1.7237
  610MOL0     H82341   3.747   0.651  10.263 -0.2445 -0.9707 -0.3356
  610MOL0     H82342   3.990   0.675  10.330  2.0293 -0.3109 -0.4562
  610MOL0     H82343   3.975   0.546  10.206 -0.9120  0.5938  0.7381
  610MOL0     H82344   3.956   0.385  10.416  0.7001  1.0052  1.0396
  610MOL0     H82345   3.996   0.511  10.520  0.1123 -1.1141  0.6887
  610MOL0     H82346   4.169   0.378  10.296 -0.7603 -3.4210  0.9794
  610MOL0     H82347   4.199   0.378  10.471  1.4731  2.3297  0.6257
  610MOL0     H82348   4.355   0.742  10.324 -1.2366  0.1721 -0.3251
  610MOL0     H82349   3.671   0.509  10.676  0.9255  0.7265  1.3649
  610MOL0     H82350   3.435   0.503  10.767 -1.0688  1.4703  0.2892
  611MOL0     O82351   7.182   0.903   4.452 -0.0732  0.4770  0.2681
  611MOL0     C82352   7.205   1.021   4.418 -0.6984  0.3524  1.0089
  611MOL0     O82353   7.116   1.108   4.363 -0.3536 -0.2503  0.3205
  611MOL0     C82354   6.985   1.086   4.322 -0.8729  0.2739 -0.0182
  611MOL0     C82355   6.907   1.191   4.276 -1.0104 -0.2582  0.6594
  611MOL0     C82356   6.783   1.179   4.216  0.3550 -0.2532  0.4859
  611MOL0     C82357   6.713   1.054   4.216  0.1176 -0.5517  0.3863
  611MOL0     O82358   6.596   1.019   4.152  0.5178 -0.0060 -0.1460
  611MOL0     C82359   6.583   1.046   4.017  1.4118 -0.2360 -0.4994
  611MOL0     C82360   6.442   1.011   3.966  0.1350  0.0999 -1.0314
  611MOL0     C82361   6.332   1.108   3.997 -0.6467  0.0754  0.2401
  611MOL0     C82362   6.207   1.061   3.934  0.0404  0.1753  0.3529
  611MOL0     C82363   6.081   1.151   3.964 -0.5335 -0.0048 -0.4554
  611MOL0     C82364   6.054   1.146   4.111  0.2233 -0.2997 -0.7492
  611MOL0     C82365   5.910   1.186   4.149  0.0569 -0.4070  0.2680
  611MOL0     C82366   5.867   1.322   4.089 -0.3017 -0.6999  0.4830
  611MOL0     N82367   5.725   1.349   4.128 -0.4116  0.0122 -0.5732
  611MOL0     C82368   5.686   1.436   4.227  0.4971  0.3491 -0.1243
  611MOL0     C82369   5.547   1.423   4.235 -2.0765  0.7848  0.5829
  611MOL0     C82370   5.458   1.470   4.345 -0.9552  0.2455 -0.3740
  611MOL0     C82371   5.317   1.481   4.317 -0.3878  0.2266  0.7263
  611MOL0     C82372   5.278   1.588   4.210  0.0855 -0.0173 -0.4189
  611MOL0     C82373   5.132   1.564   4.203  0.0113 -1.3932 -0.7826
  611MOL0     O82374   5.097   1.449   4.130  0.6693 -0.0729 -0.5129
  611MOL0     C82375   4.963   1.439   4.098 -0.6006 -0.2461  0.5571
  611MOL0     C82376   4.911   1.363   3.992 -0.6198 -0.5355 -0.2979
  611MOL0     C82377   4.773   1.343   3.967  0.2018  0.0874  0.2592
  611MOL0     C82378   4.729   1.256   3.845  0.4532  0.1919 -0.7690
  611MOL0     C82379   4.677   1.406   4.056 -0.1016  0.1684 -0.2276
  611MOL0     C82380   4.525   1.385   4.053  0.4119 -0.7504  0.2604
  611MOL0     O82381   4.452   1.479   4.120 -0.1170  0.0014 -0.2702
  611MOL0     C82382   4.319   1.463   4.132 -0.3782 -1.1105  0.2434
  611MOL0     C82383   4.229   1.447   4.021 -0.3995 -0.3538  0.1324
  611MOL0     C82384   4.095   1.432   4.045 -0.1889 -0.4765 -0.4492
  611MOL0     C82385   4.043   1.427   4.175 -1.0120  0.6629 -0.1107
  611MOL0     O82386   3.908   1.403   4.209 -1.4703  0.6215 -0.0476
  611MOL0     C82387   3.822   1.372   4.097  0.2186  0.3926  0.0641
  611MOL0     C82388   3.680   1.352   4.147  0.3422 -0.2931 -0.2912
  611MOL0     C82389   3.612   1.483   4.192  0.3737  0.0467 -0.7784
  611MOL0     C82390   3.464   1.450   4.242 -0.6045 -0.3750 -0.4905
  611MOL0     C82391   3.368   1.433   4.137 -0.0821  0.2139 -0.4475
  611MOL0     C82392   3.224   1.430   4.183 -0.5867 -0.2531  0.6633
  611MOL0     C82393   3.135   1.388   4.060 -0.8361 -0.1519 -0.4767
  611MOL0     C82394   2.985   1.423   4.094 -0.6552  0.0295 -0.0015
  611MOL0    Cl82395   2.923   1.312   4.223  0.3672 -0.1457  0.2743
  611MOL0     C82396   4.139   1.444   4.281  0.1192 -0.6711  0.0881
  611MOL0     C82397   4.279   1.456   4.259  0.7266  0.7679  0.6139
  611MOL0     O82398   4.491   1.271   4.020 -0.5102  0.6925 -0.2720
  611MOL0     C82399   4.727   1.494   4.157  0.6157 -0.5052  0.1183
  611MOL0     C82400   4.864   1.515   4.167 -0.3854 -0.4852  0.2356
  611MOL0     N82401   5.513   1.332   4.135 -0.1862  0.0473  0.3134
  611MOL0     N82402   5.621   1.293   4.070  0.5958 -0.4153 -0.7865
  611MOL0     C82403   6.787   0.955   4.283  0.4972  1.0920 -0.4552
  611MOL0     C82404   6.916   0.962   4.328  0.1638 -0.0919  1.0393
  611MOL0     C82405   7.342   1.071   4.416  0.4954  0.3388 -0.6571
  611MOL0     C82406   7.373   1.207   4.389  0.2388  0.0255 -0.1467
  611MOL0     C82407   7.500   1.252   4.380 -1.1064  0.1915  0.2057
  611MOL0     C82408   7.609   1.168   4.385  0.4928  0.2921 -0.0138
  611MOL0     O82409   7.742   1.202   4.379 -0.7421  1.0428  0.0418
  611MOL0     C82410   7.774   1.343   4.392 -0.1845  0.7733 -0.4036
  611MOL0     C82411   7.917   1.348   4.438  0.1753  0.0044  0.2031
  611MOL0     C82412   7.950   1.490   4.493  0.4495  0.5377 -0.3527
  611MOL0     C82413   7.938   1.615   4.401  0.7141  0.0456 -1.6703
  611MOL0     C82414   8.024   1.600   4.291 -0.6715  0.6913  0.0685
  611MOL0     C82415   8.100   1.599   4.198 -0.0119 -0.3091  0.2765
  611MOL0     C82416   7.587   1.037   4.426  1.0023  0.0181  1.1759
  611MOL0     C82417   7.460   0.985   4.433 -0.1068  0.7541  0.4124
  611MOL0     H82418   6.951   1.290   4.265  0.5614 -1.0678 -0.6676
  611MOL0     H82419   6.737   1.265   4.168  1.2759 -0.7184 -1.3187
  611MOL0     H82420   6.595   1.152   3.993  1.0663  0.0204  0.3923
  611MOL0     H82421   6.659   0.985   3.968  0.9408  0.6017 -2.3710
  611MOL0     H82422   6.444   0.998   3.857  2.8704 -0.3939 -0.9699
  611MOL0     H82423   6.416   0.918   4.017  0.4597  0.7707  0.4016
  611MOL0     H82424   6.324   1.132   4.103 -2.7968  2.9153 -0.4125
  611MOL0     H82425   6.355   1.207   3.957  1.8865  0.3627  2.1570
  611MOL0     H82426   6.221   1.055   3.826  3.0511  0.0412  0.6479
  611MOL0     H82427   6.182   0.961   3.973 -0.2950 -1.1564 -2.9618
  611MOL0     H82428   6.102   1.255   3.940  2.6822 -0.0551  1.6348
  611MOL0     H82429   5.998   1.127   3.896 -1.0273 -0.7174  0.3704
  611MOL0     H82430   6.074   1.043   4.146 -1.6709 -1.0907 -1.8697
  611MOL0     H82431   6.118   1.215   4.166 -1.4873 -0.9985  2.3751
  611MOL0     H82432   5.854   1.099   4.113  0.1565 -0.2562 -0.2592
  611MOL0     H82433   5.900   1.202   4.257 -0.9473  2.3711 -0.1414
  611MOL0     H82434   5.875   1.320   3.980 -0.7721 -1.6202  0.4560
  611MOL0     H82435   5.926   1.401   4.137 -0.4338 -0.3222  0.0325
  611MOL0     H82436   5.744   1.501   4.293  0.8878 -0.0826 -0.0382
  611MOL0     H82437   5.479   1.411   4.434  1.4415  0.9151 -0.4078
  611MOL0     H82438   5.492   1.568   4.379 -0.3927 -0.1303  0.1654
  611MOL0     H82439   5.272   1.514   4.411  0.3733  1.3955  0.6935
  611MOL0     H82440   5.267   1.385   4.301 -1.6157  0.6692  1.7082
  611MOL0     H82441   5.332   1.565   4.117  0.8976  1.6185 -0.3745
  611MOL0     H82442   5.314   1.684   4.248 -2.4460  1.3066 -1.1385
  611MOL0     H82443   5.094   1.654   4.155 -0.8551 -0.7804  0.9525
  611MOL0     H82444   5.098   1.551   4.307 -2.1818  0.3511 -1.2047
  611MOL0     H82445   4.978   1.325   3.916 -0.8744 -2.4819  0.3863
  611MOL0     H82446   4.809   1.271   3.771  2.0281 -1.4063  0.5102
  611MOL0     H82447   4.725   1.149   3.867  2.6906 -0.2362 -2.0140
  611MOL0     H82448   4.637   1.292   3.799  1.7214  0.9531 -2.8578
  611MOL0     H82449   4.262   1.440   3.917  1.3621 -3.5689  0.7807
  611MOL0     H82450   4.041   1.416   3.952 -1.0669 -0.1155 -0.0092
  611MOL0     H82451   3.816   1.461   4.033 -0.1564  0.8326  0.6958
  611MOL0     H82452   3.862   1.281   4.052  0.4448 -0.3957  1.7946
  611MOL0     H82453   3.627   1.307   4.063  0.3386  2.8231 -2.1169
  611MOL0     H82454   3.675   1.284   4.233 -0.2232  1.3008  0.9839
  611MOL0     H82455   3.622   1.565   4.120  2.5248  1.5623  1.1081
  611MOL0     H82456   3.671   1.529   4.271  0.0236  0.6723 -0.8678
  611MOL0     H82457   3.467   1.358   4.302 -3.2393 -0.4611 -0.4008
  611MOL0     H82458   3.426   1.531   4.304  1.6299  0.1657  0.2962
  611MOL0     H82459   3.389   1.342   4.079  0.7315  1.4610 -2.1889
  611MOL0     H82460   3.384   1.510   4.062 -0.6679  0.3040 -0.4862
  611MOL0     H82461   3.219   1.357   4.264 -0.7163 -1.1455 -0.1314
  611MOL0     H82462   3.184   1.527   4.214  0.5510  0.3257  0.3682
  611MOL0     H82463   3.148   1.280   4.047 -1.0033 -0.5365  1.9889
  611MOL0     H82464   3.161   1.421   3.959  0.7547 -2.6906 -0.9911
  611MOL0     H82465   2.929   1.410   4.000 -0.9100 -0.6361  0.2409
  611MOL0     H82466   2.976   1.529   4.122 -1.5096 -0.0737  0.1502
  611MOL0     H82467   4.098   1.453   4.381 -1.0648  0.1623 -0.4571
  611MOL0     H82468   4.347   1.461   4.343  0.0671 -1.9596  1.4327
  611MOL0     H82469   4.652   1.552   4.209 -0.8460 -2.5802  0.4739
  611MOL0     H82470   4.896   1.577   4.250  0.3805 -0.4071 -0.1120
  611MOL0     H82471   6.748   0.855   4.268 -1.4710  2.0426 -2.1453
  611MOL0     H82472   6.958   0.872   4.371 -1.6517 -1.8587 -0.6842
  611MOL0     H82473   7.301   1.286   4.374  1.8074  1.3263 -1.2107
  611MOL0     H82474   7.511   1.359   4.367  1.2354 -0.0372 -0.0936
  611MOL0     H82475   7.773   1.392   4.295  2.7899 -0.2666 -1.0919
  611MOL0     H82476   7.706   1.397   4.458  0.3163 -0.5359  1.2610
  611MOL0     H82477   7.994   1.325   4.363 -1.6501  1.1237 -2.1724
  611MOL0     H82478   7.919   1.270   4.514  2.0872 -1.0387 -0.8364
  611MOL0     H82479   8.049   1.490   4.539  2.2763 -0.6708 -3.9439
  611MOL0     H82480   7.875   1.514   4.569  1.6851  0.8623  0.7834
  611MOL0     H82481   7.977   1.696   4.463  0.4124 -3.0495  3.1364
  611MOL0     H82482   7.834   1.633   4.372 -0.2643 -0.9277  0.8615
  611MOL0     H82483   8.169   1.610   4.116  2.9559  1.3262  2.7855
  611MOL0     H82484   7.680   0.981   4.428  0.6379 -0.5868  2.7369
  611MOL0     H82485   7.454   0.879   4.453  1.8650  0.3393 -0.9236
  612MOL0     O82486   3.907   7.871   5.570 -0.3548  0.9807  0.0490
  612MOL0     C82487   3.882   7.789   5.480  0.1928 -0.8085 -0.2315
  612MOL0     O82488   3.756   7.782   5.424 -0.2646 -0.1588  0.4353
  612MOL0     C82489   3.664   7.879   5.418  0.4030  0.2203 -0.8045
  612MOL0     C82490   3.683   8.009   5.448 -0.0196 -0.6983 -0.3291
  612MOL0     C82491   3.580   8.100   5.459 -0.2769  0.4608  0.1311
  612MOL0     C82492   3.446   8.056   5.450  0.7495 -0.3635  0.4070
  612MOL0     O82493   3.341   8.137   5.496  0.5258 -0.1743  0.6438
  612MOL0     C82494   3.227   8.147   5.412 -0.4314  0.0736  0.5236
  612MOL0     C82495   3.143   8.262   5.464  0.1182  0.0253 -0.8752
  612MOL0     C82496   3.006   8.291   5.400  0.2014  0.0997 -0.7661
  612MOL0     C82497   2.923   8.385   5.492  0.2344  0.0647 -0.1515
  612MOL0     C82498   2.776   8.397   5.442 -0.1985  0.0521 -0.2121
  612MOL0     C82499   2.706   8.496   5.527 -0.1177  0.7486  0.1486
  612MOL0     C82500   2.584   8.543   5.444 -0.6354  0.3007 -0.3324
  612MOL0     C82501   2.501   8.648   5.510 -1.0863 -0.6326 -0.5644
  612MOL0     N82502   2.373   8.661   5.434  0.8804 -0.1160 -0.4414
  612MOL0     C82503   2.288   8.557   5.431  0.7584  0.1440 -0.2539
  612MOL0     C82504   2.176   8.610   5.382 -0.6081  0.5881 -0.0168
  612MOL0     C82505   2.050   8.534   5.366  0.5921  0.3132 -0.6406
  612MOL0     C82506   1.925   8.577   5.449 -0.3759 -0.7022 -0.4240
  612MOL0     C82507   1.805   8.502   5.382 -0.2052 -0.8895 -0.8530
  612MOL0     C82508   1.668   8.545   5.445 -0.3553  0.7672  0.3136
  612MOL0     O82509   1.573   8.452   5.383  0.1126  0.7155  0.4639
  612MOL0     C82510   1.439   8.464   5.428 -0.8124 -0.5762  0.2685
  612MOL0     C82511   1.368   8.365   5.367  0.3642  0.4704  1.0255
  612MOL0     C82512   1.231   8.353   5.393 -0.1151 -0.3462 -0.3373
  612MOL0     C82513   1.164   8.261   5.307  0.2119  0.8984 -0.4531
  612MOL0     C82514   1.165   8.451   5.482 -0.3177 -0.5985 -0.9976
  612MOL0     C82515   1.017   8.456   5.502 -0.3875 -0.0555  0.4455
  612MOL0     O82516   0.977   8.542   5.591 -0.6485  0.3830 -0.0012
  612MOL0     C82517   0.844   8.571   5.598  0.2233  0.7546 -0.0508
  612MOL0     C82518   0.754   8.483   5.651 -1.3700 -0.0223  0.3920
  612MOL0     C82519   0.620   8.507   5.668  0.0700  0.3483 -0.3605
  612MOL0     C82520   0.579   8.633   5.640 -0.0380 -0.3543 -0.3778
  612MOL0     O82521   0.446   8.650   5.658  0.5909  0.6048  0.0827
  612MOL0     C82522   0.381   8.759   5.597  1.1407 -0.3467  1.5089
  612MOL0     C82523   0.245   8.699   5.549  0.0556  0.3644 -0.1618
  612MOL0     C82524   0.186   8.781   5.435 -0.5838  0.0173  0.9391
  612MOL0     C82525   0.063   8.721   5.362  1.4129 -0.0042  0.2039
  612MOL0     C82526  -0.005   8.811   5.249 -0.4260 -1.0339 -0.5494
  612MOL0     C82527   0.053   8.793   5.113  0.2002  0.3594 -0.3419
  612MOL0     C82528   0.022   8.659   5.046  0.4849 -0.1218  0.2288
  612MOL0     C82529  -0.105   8.646   4.952  0.3408  0.0634 -0.1727
  612MOL0    Cl82530  -0.253   8.636   5.051  0.2325 -0.1298 -0.1212
  612MOL0     C82531   0.663   8.735   5.602 -0.3630 -0.0045  0.5231
  612MOL0     C82532   0.793   8.702   5.577  0.1087  0.3133  0.0551
  612MOL0     O82533   0.943   8.384   5.438  0.1478  0.2992  0.3670
  612MOL0     C82534   1.248   8.548   5.544  0.5275 -0.5036 -0.3310
  612MOL0     C82535   1.380   8.560   5.517 -0.1071  0.1175 -0.1475
  612MOL0     N82536   2.196   8.744   5.357  0.1404 -0.2874 -0.4471
  612MOL0     N82537   2.312   8.779   5.391 -0.2844  0.7278 -0.0807
  612MOL0     C82538   3.418   7.930   5.424  1.1139 -0.3278  0.8528
  612MOL0     C82539   3.523   7.833   5.407 -0.2271 -0.2705 -0.3406
  612MOL0     C82540   3.980   7.689   5.432  0.2105 -0.5733 -0.1733
  612MOL0     C82541   4.102   7.682   5.510  0.4725  0.2558  0.8667
  612MOL0     C82542   4.212   7.603   5.469  0.4200 -0.3344 -0.1116
  612MOL0     C82543   4.196   7.533   5.349 -1.0525  0.2324 -0.5080
  612MOL0     O82544   4.311   7.462   5.303  0.1646  0.2948 -0.8568
  612MOL0     C82545   4.449   7.500   5.329  0.5687  0.1850  0.2379
  612MOL0     C82546   4.484   7.632   5.270  0.7091 -0.4641 -0.5860
  612MOL0     C82547   4.461   7.628   5.117  0.1224 -0.5957 -0.0983
  612MOL0     C82548   4.535   7.528   5.028 -0.4617 -0.0114 -0.0864
  612MOL0     C82549   4.666   7.578   4.983  0.2668  0.5604 -0.8406
  612MOL0     C82550   4.772   7.614   4.941  0.5283 -0.7050  0.3583
  612MOL0     C82551   4.077   7.532   5.279 -0.8547 -0.5598  0.2957
  612MOL0     C82552   3.969   7.608   5.317 -0.0199 -0.2571  0.4371
  612MOL0     H82553   3.781   8.045   5.477 -0.5889  1.7123 -1.0772
  612MOL0     H82554   3.590   8.201   5.498 -1.0097  0.6500 -0.1596
  612MOL0     H82555   3.255   8.165   5.308 -1.1192  1.0016  0.4868
  612MOL0     H82556   3.180   8.049   5.418  1.7886 -1.0868  0.1176
  612MOL0     H82557   3.121   8.242   5.570  0.8908 -0.6803 -0.8417
  612MOL0     H82558   3.205   8.351   5.460 -0.6358  0.6140 -0.0392
  612MOL0     H82559   3.026   8.330   5.300  0.5039 -0.3168 -0.8722
  612MOL0     H82560   2.959   8.193   5.385 -0.0493  0.0325  0.3561
  612MOL0     H82561   2.924   8.360   5.599 -0.4736  1.3494  0.1806
  612MOL0     H82562   2.974   8.481   5.495  0.5508 -0.0347 -1.7624
  612MOL0     H82563   2.790   8.440   5.343 -2.8261  0.6330 -0.4015
  612MOL0     H82564   2.718   8.305   5.433 -0.6214  0.2756  0.1910
  612MOL0     H82565   2.674   8.443   5.617  1.0370 -0.0954  0.0920
  612MOL0     H82566   2.775   8.578   5.547  0.5985  0.2664 -0.2843
  612MOL0     H82567   2.623   8.578   5.348  0.0093 -1.3592 -0.7117
  612MOL0     H82568   2.522   8.456   5.421  1.6016 -1.6349  0.5750
  612MOL0     H82569   2.556   8.742   5.521 -1.7687 -0.3591  0.6101
  612MOL0     H82570   2.481   8.616   5.612 -0.6051  1.6469  0.2958
  612MOL0     H82571   2.302   8.451   5.447  1.1324 -0.2090 -2.5663
  612MOL0     H82572   2.032   8.541   5.258  1.2110 -2.3742 -0.9819
  612MOL0     H82573   2.071   8.427   5.379 -1.7592 -0.2432 -0.9381
  612MOL0     H82574   1.918   8.686   5.445  3.7967 -0.1401  2.3970
  612MOL0     H82575   1.935   8.558   5.556 -0.1583  0.7553 -0.1692
  612MOL0     H82576   1.816   8.395   5.401 -2.1985 -0.8151  1.0068
  612MOL0     H82577   1.784   8.532   5.279 -0.0195 -0.3537 -0.7351
  612MOL0     H82578   1.654   8.651   5.421  0.0770  1.4701  2.8635
  612MOL0     H82579   1.664   8.536   5.554 -0.9733  1.1819  0.3308
  612MOL0     H82580   1.419   8.303   5.293  0.4471 -0.7203  2.0457
  612MOL0     H82581   1.224   8.173   5.282  1.5506  1.5932  0.2438
  612MOL0     H82582   1.087   8.218   5.372  1.0351  1.1293  0.7038
  612MOL0     H82583   1.121   8.316   5.223 -1.2131  1.0804  0.3522
  612MOL0     H82584   0.796   8.386   5.675  0.9729  1.1747  1.4117
  612MOL0     H82585   0.543   8.436   5.699 -0.6676  0.9202 -0.8343
  612MOL0     H82586   0.360   8.837   5.672  1.0163 -1.6896  2.9242
  612MOL0     H82587   0.425   8.788   5.502 -3.3743 -2.4385 -1.6130
  612MOL0     H82588   0.254   8.597   5.512  0.3921  0.0920  0.6567
  612MOL0     H82589   0.175   8.706   5.633  1.5934  0.5162  1.1479
  612MOL0     H82590   0.262   8.802   5.360  0.2237 -0.6754  1.5334
  612MOL0     H82591   0.162   8.880   5.476 -3.6069  0.1474 -0.8130
  612MOL0     H82592   0.087   8.621   5.326  4.4030  0.5988  0.2428
  612MOL0     H82593  -0.003   8.702   5.446  1.2221 -0.2043  0.0095
  612MOL0     H82594   0.007   8.916   5.280 -1.1179 -1.1250  0.0575
  612MOL0     H82595  -0.114   8.805   5.261 -0.7902  3.3368  0.0561
  612MOL0     H82596   0.006   8.875   5.059 -0.2849  2.1005  2.4836
  612MOL0     H82597   0.161   8.810   5.109  0.6354 -2.1692 -0.6617
  612MOL0     H82598   0.010   8.579   5.120  0.4876 -0.4329 -0.1051
  612MOL0     H82599   0.113   8.634   4.990  1.5784  2.9737  0.4117
  612MOL0     H82600  -0.093   8.557   4.889  1.1240  0.7475 -1.0228
  612MOL0     H82601  -0.114   8.737   4.892  2.4538  1.1373  1.0389
  612MOL0     H82602   0.623   8.835   5.592  1.2875  0.8564  2.0429
  612MOL0     H82603   0.851   8.791   5.556  0.5475 -0.2183 -1.0408
  612MOL0     H82604   1.201   8.621   5.608  1.9470 -0.4361  0.6823
  612MOL0     H82605   1.439   8.642   5.558 -1.1379 -0.5021  2.8626
  612MOL0     H82606   3.319   7.884   5.428  1.2818 -0.6169  1.9939
  612MOL0     H82607   3.507   7.726   5.393  0.4912 -0.5119  0.5287
  612MOL0     H82608   4.126   7.744   5.596  2.6242  2.1744 -0.9848
  612MOL0     H82609   4.303   7.608   5.528  0.3579 -0.3565 -0.0136
  612MOL0     H82610   4.475   7.514   5.434  0.9602  0.9058  0.0539
  612MOL0     H82611   4.518   7.426   5.287  1.4781 -0.2391  2.3624
  612MOL0     H82612   4.581   7.669   5.305 -0.1410  0.8062  0.5752
  612MOL0     H82613   4.404   7.698   5.307  1.2070  0.1409 -0.5788
  612MOL0     H82614   4.482   7.730   5.082  0.6306 -0.9698 -0.9199
  612MOL0     H82615   4.356   7.603   5.099  0.2372 -0.8282 -0.4634
  612MOL0     H82616   4.478   7.511   4.936 -0.9130 -0.8554  0.3354
  612MOL0     H82617   4.552   7.435   5.084  0.4168  0.7210  0.8928
  612MOL0     H82618   4.862   7.650   4.894  0.3262  0.3518  0.7538
  612MOL0     H82619   4.081   7.481   5.183 -3.7748 -1.9698  0.8130
  612MOL0     H82620   3.879   7.622   5.256 -1.4606 -2.3580  1.9428
  613MOL0     O82621  10.329   2.003   7.193  0.7263 -0.2292  0.2467
  613MOL0     C82622  10.390   2.088   7.131 -0.8236  0.2390  0.6010
  613MOL0     O82623  10.338   2.197   7.063 -0.2947 -0.6200  0.3445
  613MOL0     C82624  10.201   2.201   7.064  0.1402 -0.0663 -0.2366
  613MOL0     C82625  10.131   2.163   6.951  0.0831 -0.1683 -0.1245
  613MOL0     C82626   9.990   2.169   6.952 -0.3433 -0.6212  0.2473
  613MOL0     C82627   9.925   2.208   7.057  0.8464  1.0661  0.0342
  613MOL0     O82628   9.788   2.194   7.037  0.5849 -0.2393  0.1550
  613MOL0     C82629   9.691   2.191   7.147 -1.1305  0.9861  0.3885
  613MOL0     C82630   9.547   2.183   7.103  0.5055  0.2545 -0.6074
  613MOL0     C82631   9.501   2.050   7.052 -0.1822  0.6029 -0.0540
  613MOL0     C82632   9.352   2.058   7.052 -0.3425  0.5621 -0.0307
  613MOL0     C82633   9.289   1.955   6.945 -0.8669  0.3540 -0.2002
  613MOL0     C82634   9.267   2.031   6.811  0.2417 -0.3145  0.6118
  613MOL0     C82635   9.183   1.949   6.705 -0.2068  0.4665 -0.1321
  613MOL0     C82636   9.048   1.880   6.759 -0.2608  0.5225 -0.2154
  613MOL0     N82637   8.984   1.800   6.651 -0.0644  0.4192  0.0932
  613MOL0     C82638   9.002   1.669   6.596  0.2950  0.3509  0.4639
  613MOL0     C82639   8.916   1.655   6.496 -0.1639  0.0377  1.2101
  613MOL0     C82640   8.898   1.525   6.425  0.6901 -1.0867  0.0841
  613MOL0     C82641   8.759   1.457   6.425  0.0491  0.2406  0.3164
  613MOL0     C82642   8.660   1.543   6.345  0.5307 -0.0873 -0.5538
  613MOL0     C82643   8.531   1.467   6.320 -0.0752  0.6292  1.0020
  613MOL0     O82644   8.480   1.418   6.444 -0.0728  0.4730 -0.7253
  613MOL0     C82645   8.344   1.384   6.436 -0.1561 -0.5576  0.1703
  613MOL0     C82646   8.235   1.458   6.497 -0.4493 -0.8453  0.2243
  613MOL0     C82647   8.108   1.416   6.512  1.0877 -0.5125  0.6610
  613MOL0     C82648   8.006   1.509   6.577 -0.2750 -0.6161 -0.1163
  613MOL0     C82649   8.067   1.298   6.443 -1.5306  0.9959 -0.2042
  613MOL0     C82650   7.928   1.247   6.429  1.6359  0.1926  0.7233
  613MOL0     O82651   7.824   1.323   6.477 -1.2648 -0.1416 -0.2430
  613MOL0     C82652   7.698   1.266   6.473 -0.7201 -0.2410  0.0489
  613MOL0     C82653   7.624   1.232   6.588 -0.1007 -0.8123 -0.1784
  613MOL0     C82654   7.499   1.170   6.584 -0.4089  0.2767 -0.8023
  613MOL0     C82655   7.446   1.134   6.466 -0.1415  0.2360  0.0960
  613MOL0     O82656   7.327   1.067   6.461  0.7665 -0.0025  0.1209
  613MOL0     C82657   7.237   1.134   6.377  1.3403  0.5273  0.9073
  613MOL0     C82658   7.155   1.021   6.314  0.8148 -0.3743 -0.5767
  613MOL0     C82659   7.061   0.948   6.414  0.8084  0.0542 -0.2900
  613MOL0     C82660   6.981   0.844   6.336  0.6471  0.5250 -0.6125
  613MOL0     C82661   6.913   0.736   6.427 -0.0478  0.4860  0.9754
  613MOL0     C82662   6.814   0.794   6.527 -0.2830  0.1342  0.0901
  613MOL0     C82663   6.798   0.693   6.641  0.6155  0.1134  0.6855
  613MOL0     C82664   6.703   0.736   6.753 -0.7961  0.2794 -0.5510
  613MOL0    Cl82665   6.773   0.678   6.907 -0.2386 -0.2334 -0.4610
  613MOL0     C82666   7.517   1.156   6.346 -0.9878 -0.3016  0.3383
  613MOL0     C82667   7.642   1.225   6.349  0.3195 -0.3520 -0.4257
  613MOL0     O82668   7.919   1.131   6.393  0.2774 -0.1024 -0.4754
  613MOL0     C82669   8.174   1.227   6.378  0.5273 -0.3011  0.2706
  613MOL0     C82670   8.306   1.267   6.378 -0.0596  0.1194  0.3946
  613MOL0     N82671   8.861   1.781   6.471  0.1238 -0.7772  0.4332
  613MOL0     N82672   8.898   1.865   6.563 -0.2934  0.0945 -0.1596
  613MOL0     C82673   9.992   2.253   7.173 -0.4738 -0.5002  0.2693
  613MOL0     C82674  10.130   2.258   7.165  0.0437  0.0283  1.1649
  613MOL0     C82675  10.539   2.071   7.118 -0.8875 -0.3014 -0.2683
  613MOL0     C82676  10.590   1.950   7.167 -0.3245  0.4918  0.7127
  613MOL0     C82677  10.724   1.909   7.152  0.0512  0.0080  0.1039
  613MOL0     C82678  10.809   2.001   7.089  0.4897  0.3660 -0.3918
  613MOL0     O82679  10.940   1.969   7.102  0.0038  0.0581  0.2094
  613MOL0     C82680  11.053   2.022   7.029  0.1152 -0.0157  0.3449
  613MOL0     C82681  11.165   2.035   7.133  0.0296 -0.3345  0.2804
  613MOL0     C82682  11.246   1.905   7.144 -0.8815 -0.1757  0.1721
  613MOL0     C82683  11.350   1.905   7.036 -0.1919  0.0252  0.3997
  613MOL0     C82684  11.401   1.765   7.030 -0.2402  0.3134 -0.0891
  613MOL0     C82685  11.433   1.644   7.031  0.3140 -0.0520  0.6264
  613MOL0     C82686  10.757   2.106   7.015  0.5639 -0.5334  0.9323
  613MOL0     C82687  10.622   2.141   7.029  0.1095 -0.0014  0.4281
  613MOL0     H82688  10.189   2.133   6.864 -0.0562  1.3103 -0.7402
  613MOL0     H82689   9.941   2.141   6.860 -2.1445  2.3267  0.1977
  613MOL0     H82690   9.712   2.105   7.211 -4.1338 -0.1110  0.0495
  613MOL0     H82691   9.715   2.281   7.206  0.4694  0.3940  0.7010
  613MOL0     H82692   9.492   2.207   7.195 -2.1476 -0.4795 -1.9167
  613MOL0     H82693   9.530   2.262   7.030  1.4464  0.0799 -1.0325
  613MOL0     H82694   9.543   2.037   6.952 -0.1413 -2.8232  0.2805
  613MOL0     H82695   9.534   1.963   7.110 -0.2721 -0.2783 -1.2680
  613MOL0     H82696   9.309   2.025   7.147 -1.1319  0.8986 -0.2622
  613MOL0     H82697   9.324   2.159   7.022 -2.1252 -0.2107 -1.1248
  613MOL0     H82698   9.346   1.862   6.933 -3.2192 -1.3106  0.6957
  613MOL0     H82699   9.187   1.931   6.976 -0.9924  0.3423 -0.6176
  613MOL0     H82700   9.210   2.118   6.842  0.1837 -0.3787  0.6846
  613MOL0     H82701   9.361   2.062   6.764 -0.8856  3.8393  0.7534
  613MOL0     H82702   9.159   2.015   6.620  2.8735 -1.2145 -2.4970
  613MOL0     H82703   9.244   1.870   6.660  1.7687  2.4982 -1.2281
  613MOL0     H82704   8.983   1.963   6.789 -0.1882  1.3439 -2.1474
  613MOL0     H82705   9.074   1.814   6.842 -0.5202  0.2014 -0.3847
  613MOL0     H82706   9.068   1.591   6.633 -1.2782 -1.3603 -0.1753
  613MOL0     H82707   8.927   1.544   6.321  0.2065 -1.2193 -0.0817
  613MOL0     H82708   8.973   1.452   6.456 -0.5785 -2.9924 -1.0735
  613MOL0     H82709   8.722   1.436   6.526 -2.4089  5.0293  0.7005
  613MOL0     H82710   8.773   1.358   6.381  1.9153 -1.0560  3.4824
  613MOL0     H82711   8.698   1.577   6.249 -0.9673 -0.1548 -1.1982
  613MOL0     H82712   8.637   1.635   6.400 -0.8909  2.1506 -4.4672
  613MOL0     H82713   8.544   1.384   6.249 -0.9500  1.6559 -0.4174
  613MOL0     H82714   8.469   1.551   6.288 -2.2919 -0.7711  1.4271
  613MOL0     H82715   8.269   1.556   6.530  1.8703 -1.2894 -0.6180
  613MOL0     H82716   7.962   1.586   6.513  0.7868  0.2409  0.1590
  613MOL0     H82717   7.931   1.456   6.635 -0.3717  0.9921  1.2934
  613MOL0     H82718   8.065   1.563   6.651  2.0647 -2.2065 -0.7030
  613MOL0     H82719   7.655   1.259   6.688  1.3404 -1.3295 -0.4572
  613MOL0     H82720   7.444   1.161   6.677 -1.7362  3.2877 -1.1954
  613MOL0     H82721   7.171   1.195   6.438  0.7203  1.8797 -1.0201
  613MOL0     H82722   7.280   1.195   6.298 -0.0180  0.8566  0.3940
  613MOL0     H82723   7.084   1.059   6.240  1.0174  1.4491  0.1062
  613MOL0     H82724   7.224   0.956   6.260  1.8249  0.1367  0.0690
  613MOL0     H82725   6.992   1.024   6.454  1.3197 -0.0270  0.8026
  613MOL0     H82726   7.120   0.896   6.490  0.6803 -1.5118 -1.2233
  613MOL0     H82727   6.897   0.900   6.293  0.1668  0.4025  0.1350
  613MOL0     H82728   7.039   0.797   6.256  0.0101 -1.8235  0.2336
  613MOL0     H82729   6.997   0.676   6.465 -0.3504 -1.0687 -0.6383
  613MOL0     H82730   6.849   0.671   6.365  0.1452  0.8431  0.3881
  613MOL0     H82731   6.862   0.887   6.560  1.7067 -0.6290 -0.4638
  613MOL0     H82732   6.717   0.800   6.476 -0.6039 -2.5984  0.2284
  613MOL0     H82733   6.901   0.686   6.677  1.0403  0.9717 -0.3031
  613MOL0     H82734   6.765   0.596   6.602  2.1029  0.8604 -2.8830
  613MOL0     H82735   6.602   0.701   6.733  0.6650 -2.2343 -5.2852
  613MOL0     H82736   6.713   0.844   6.766  1.1112 -0.2199  3.3203
  613MOL0     H82737   7.484   1.114   6.252 -0.8841  0.6123 -0.1190
  613MOL0     H82738   7.706   1.252   6.266  2.5829  1.1894  1.6790
  613MOL0     H82739   8.148   1.141   6.317  4.3638 -2.3758  1.1511
  613MOL0     H82740   8.384   1.209   6.330 -0.9018 -1.9040  1.3531
  613MOL0     H82741   9.938   2.294   7.257  0.8746  1.2662  0.3251
  613MOL0     H82742  10.171   2.307   7.253  0.2330 -0.1330  1.1672
  613MOL0     H82743  10.526   1.868   7.199 -0.0933  0.6645  1.6567
  613MOL0     H82744  10.759   1.822   7.206  0.1631 -1.2112 -1.8578
  613MOL0     H82745  11.085   1.959   6.945  0.4074  1.9084 -1.0639
  613MOL0     H82746  11.037   2.122   6.987 -0.9334  0.7490  2.4153
  613MOL0     H82747  11.122   2.062   7.230  2.0488  0.3307  1.0518
  613MOL0     H82748  11.237   2.112   7.104  2.3781 -2.1905  0.8096
  613MOL0     H82749  11.184   1.815   7.147  1.9251 -2.2240  0.9132
  613MOL0     H82750  11.300   1.912   7.239 -0.0126 -1.0584 -0.2328
  613MOL0     H82751  11.430   1.975   7.062  0.3379  0.5788 -2.4421
  613MOL0     H82752  11.311   1.924   6.936 -0.3837 -2.7037 -0.1457
  613MOL0     H82753  11.448   1.537   7.035 -2.1205 -0.6484 -2.2866
  613MOL0     H82754  10.815   2.181   6.963 -2.4473 -0.9516 -3.6186
  613MOL0     H82755  10.597   2.234   6.978 -1.4111 -0.9808 -0.7080
  614MOL0     O82756   4.606   9.125   3.088  0.1531 -0.0206  0.3981
  614MOL0     C82757   4.629   9.207   3.182  0.2070  0.2195 -0.3133
  614MOL0     O82758   4.548   9.241   3.293 -0.2056 -0.1945  0.6540
  614MOL0     C82759   4.417   9.211   3.278  0.3368 -0.5192  0.0767
  614MOL0     C82760   4.352   9.093   3.226 -0.0477 -0.1697  0.1206
  614MOL0     C82761   4.213   9.098   3.204  0.3844 -0.2647 -0.6780
  614MOL0     C82762   4.130   9.207   3.241 -0.0420  0.4737 -0.3972
  614MOL0     O82763   3.991   9.193   3.219 -0.5771 -0.0395  0.4541
  614MOL0     C82764   3.906   9.301   3.272 -0.7478  0.1368 -1.0279
  614MOL0     C82765   3.761   9.258   3.263  0.0981  0.2855 -0.4584
  614MOL0     C82766   3.719   9.259   3.124 -0.6203  0.3929  0.8051
  614MOL0     C82767   3.557   9.262   3.127  0.7028 -0.5966  0.3727
  614MOL0     C82768   3.510   9.253   2.978  0.9975 -0.1129 -0.2445
  614MOL0     C82769   3.378   9.332   2.951  0.8392 -0.1300 -0.8280
  614MOL0     C82770   3.261   9.275   3.036  0.0022  0.0914  0.3234
  614MOL0     C82771   3.133   9.343   3.004  0.1052 -0.2267 -0.4517
  614MOL0     N82772   3.023   9.294   3.094  0.0537  0.2133  0.1270
  614MOL0     C82773   3.014   9.336   3.220  0.1056 -0.2179 -0.2125
  614MOL0     C82774   2.883   9.313   3.249 -0.2103 -0.4149  0.6537
  614MOL0     C82775   2.815   9.335   3.380 -0.0719  0.0166  0.4438
  614MOL0     C82776   2.742   9.470   3.390 -0.0406  0.1837  0.3203
  614MOL0     C82777   2.626   9.479   3.282  0.3410  0.2801  0.1000
  614MOL0     C82778   2.515   9.369   3.290 -0.5390 -0.4837 -0.1447
  614MOL0     O82779   2.461   9.334   3.416 -0.0691 -0.9837 -1.2042
  614MOL0     C82780   2.324   9.331   3.423  0.3988  1.0314  0.0443
  614MOL0     C82781   2.264   9.216   3.376  0.1489 -0.2647  0.5705
  614MOL0     C82782   2.125   9.209   3.378  0.1934 -0.0101  0.0077
  614MOL0     C82783   2.070   9.098   3.308  0.6506  0.7688  0.4732
  614MOL0     C82784   2.043   9.312   3.437  0.7411  1.0099 -0.9521
  614MOL0     C82785   1.893   9.327   3.442 -0.3095 -0.0085 -0.2169
  614MOL0     O82786   1.837   9.414   3.529  0.0009 -0.0358  0.2596
  614MOL0     C82787   1.695   9.418   3.535 -0.0377  0.0352 -0.0582
  614MOL0     C82788   1.606   9.423   3.427 -0.9944  0.2283 -0.2223
  614MOL0     C82789   1.465   9.436   3.457 -0.4019  0.2691 -0.1777
  614MOL0     C82790   1.411   9.448   3.582 -0.5275  0.3328 -0.1086
  614MOL0     O82791   1.282   9.478   3.606  0.1044  0.1198 -0.4050
  614MOL0     C82792   1.175   9.430   3.534  0.3210  0.3267  0.3338
  614MOL0     C82793   1.051   9.514   3.561  0.1838 -0.0434 -0.1627
  614MOL0     C82794   0.929   9.450   3.507  0.1429 -0.3267 -0.6664
  614MOL0     C82795   0.814   9.541   3.531  0.0712 -1.0728  0.3648
  614MOL0     C82796   0.727   9.503   3.654 -0.5145 -0.4994  0.8490
  614MOL0     C82797   0.612   9.414   3.616  0.3126 -0.0837 -0.7782
  614MOL0     C82798   0.525   9.401   3.742  0.1187  0.6872  0.3040
  614MOL0     C82799   0.393   9.331   3.705 -0.3820 -0.1913  0.1453
  614MOL0    Cl82800   0.291   9.446   3.603  0.1491 -0.4789  0.0251
  614MOL0     C82801   1.500   9.453   3.687  0.7912 -0.4263  0.0221
  614MOL0     C82802   1.639   9.446   3.663 -0.6567  1.2427  0.5666
  614MOL0     O82803   1.831   9.269   3.359  0.1336  0.6890 -0.3234
  614MOL0     C82804   2.111   9.419   3.488  0.1048 -0.3130  0.0983
  614MOL0     C82805   2.252   9.429   3.484 -0.2849  0.0841 -0.0944
  614MOL0     N82806   2.815   9.270   3.139  0.3166  0.8447 -0.4170
  614MOL0     N82807   2.901   9.262   3.038 -0.1053 -0.0006  0.3732
  614MOL0     C82808   4.193   9.307   3.306 -0.5148 -0.4886 -0.5319
  614MOL0     C82809   4.334   9.313   3.318  0.2180 -0.8951 -0.2524
  614MOL0     C82810   4.772   9.254   3.184 -0.1467 -0.8934 -0.9940
  614MOL0     C82811   4.870   9.229   3.081  0.0973  0.0543 -0.8572
  614MOL0     C82812   5.001   9.270   3.103 -0.2754 -0.2664  0.2962
  614MOL0     C82813   5.044   9.336   3.218  0.1970  0.1984  0.0669
  614MOL0     O82814   5.176   9.369   3.254 -0.0806  0.1910  0.4859
  614MOL0     C82815   5.273   9.352   3.153  1.0707 -0.1370 -0.4051
  614MOL0     C82816   5.418   9.366   3.219  0.1854 -0.3362 -0.7232
  614MOL0     C82817   5.518   9.308   3.115  0.4560 -0.0090 -0.4857
  614MOL0     C82818   5.662   9.306   3.181 -0.5291 -0.4707  0.6477
  614MOL0     C82819   5.757   9.308   3.068  0.1555  0.2818 -0.0462
  614MOL0     C82820   5.838   9.325   2.977  0.5831  0.1819  0.0628
  614MOL0     C82821   4.952   9.372   3.309  0.5420 -0.3383 -0.7458
  614MOL0     C82822   4.822   9.340   3.291 -0.4002  0.1044 -0.0888
  614MOL0     H82823   4.415   9.009   3.200 -0.5204 -0.0211 -1.7049
  614MOL0     H82824   4.161   9.011   3.168 -0.0532 -0.2916  0.0054
  614MOL0     H82825   3.919   9.325   3.377 -1.4910  0.8963 -1.1025
  614MOL0     H82826   3.916   9.387   3.205 -0.7347  0.3015 -0.8119
  614MOL0     H82827   3.753   9.158   3.306 -0.3814  0.2789 -0.5624
  614MOL0     H82828   3.691   9.323   3.316 -1.1748 -0.5109 -1.1131
  614MOL0     H82829   3.749   9.345   3.063 -3.1511  1.6513  1.1829
  614MOL0     H82830   3.752   9.179   3.058  0.5061  1.3188  0.2026
  614MOL0     H82831   3.514   9.175   3.177 -2.7551  1.2742  0.9332
  614MOL0     H82832   3.522   9.355   3.173  1.2539  2.0288 -3.9590
  614MOL0     H82833   3.598   9.285   2.921  1.9611  2.2115  2.2799
  614MOL0     H82834   3.493   9.148   2.953  0.3753 -0.3635  1.1479
  614MOL0     H82835   3.407   9.432   2.985 -1.2848 -0.7091  3.3021
  614MOL0     H82836   3.353   9.320   2.845  0.2200 -1.8898 -0.5056
  614MOL0     H82837   3.241   9.173   3.002 -2.3715  0.1482  1.4135
  614MOL0     H82838   3.283   9.285   3.142  0.5875 -0.7859  0.2961
  614MOL0     H82839   3.100   9.327   2.901 -3.9762  0.4292  0.5957
  614MOL0     H82840   3.142   9.451   3.011 -0.5806 -0.0193 -2.2683
  614MOL0     H82841   3.089   9.381   3.284  0.3959  0.9601 -1.3312
  614MOL0     H82842   2.741   9.256   3.390  1.2102 -1.4044 -0.8200
  614MOL0     H82843   2.884   9.317   3.462  1.3873 -1.4461 -1.0240
  614MOL0     H82844   2.812   9.554   3.382  2.3467 -1.5120  1.9867
  614MOL0     H82845   2.681   9.481   3.480 -2.1334 -0.0642 -0.9968
  614MOL0     H82846   2.673   9.483   3.183  2.6573  4.2957  1.1421
  614MOL0     H82847   2.580   9.576   3.302  0.4467 -0.0919  2.3760
  614MOL0     H82848   2.552   9.273   3.254  0.2195 -0.3497  0.2656
  614MOL0     H82849   2.437   9.408   3.224 -0.7382 -0.2294  0.2364
  614MOL0     H82850   2.319   9.134   3.331 -1.5984 -1.6183  0.7615
  614MOL0     H82851   2.129   9.006   3.303  1.7765  1.5178 -2.1195
  614MOL0     H82852   1.972   9.066   3.343 -0.0080  0.3302 -1.6447
  614MOL0     H82853   2.048   9.140   3.209 -2.5379  3.7351  2.2459
  614MOL0     H82854   1.644   9.436   3.326 -0.4226  1.0464  0.0916
  614MOL0     H82855   1.405   9.464   3.371  0.5975  3.2260 -0.0235
  614MOL0     H82856   1.199   9.422   3.427  2.1709 -1.3750  0.8239
  614MOL0     H82857   1.161   9.328   3.571 -1.3938  1.7015  3.8400
  614MOL0     H82858   1.038   9.509   3.669 -1.3967  1.1300 -0.2661
  614MOL0     H82859   1.058   9.617   3.524 -0.6171  0.5171  1.1900
  614MOL0     H82860   0.896   9.361   3.561 -0.7369  0.2327 -0.2486
  614MOL0     H82861   0.938   9.427   3.401  0.6503  0.5231 -0.8139
  614MOL0     H82862   0.848   9.645   3.534  4.3611 -2.1797 -1.5093
  614MOL0     H82863   0.751   9.523   3.444  0.9149 -0.8487 -0.3018
  614MOL0     H82864   0.687   9.598   3.691 -1.2766  0.2231 -1.6075
  614MOL0     H82865   0.790   9.467   3.736  0.7573 -0.9366 -0.2701
  614MOL0     H82866   0.554   9.462   3.536 -1.1660 -1.7095 -0.7636
  614MOL0     H82867   0.639   9.313   3.583  0.1527 -1.0125  1.7809
  614MOL0     H82868   0.495   9.498   3.783 -0.3109  1.1702 -1.0688
  614MOL0     H82869   0.581   9.335   3.809 -0.6451  1.7794  2.1061
  614MOL0     H82870   0.331   9.308   3.792 -2.9283 -2.0265 -1.9846
  614MOL0     H82871   0.422   9.237   3.656  0.3810 -1.7074  3.2149
  614MOL0     H82872   1.458   9.473   3.785  0.4940  1.5982 -0.4719
  614MOL0     H82873   1.705   9.445   3.750  2.2410 -2.4742 -1.3746
  614MOL0     H82874   2.048   9.495   3.532 -1.3551 -1.6468  0.3948
  614MOL0     H82875   2.307   9.515   3.522  0.1096  0.1851 -0.8807
  614MOL0     H82876   4.139   9.384   3.361 -1.5078 -1.4646 -0.1089
  614MOL0     H82877   4.370   9.414   3.333  0.6250 -0.8245 -1.5660
  614MOL0     H82878   4.851   9.181   2.985 -0.2191 -0.4350 -0.5548
  614MOL0     H82879   5.060   9.241   3.017  0.8052  1.0126  0.5679
  614MOL0     H82880   5.258   9.250   3.116 -0.9812 -0.5188  1.2788
  614MOL0     H82881   5.268   9.426   3.072 -1.4016  1.1289  0.8087
  614MOL0     H82882   5.426   9.311   3.313 -0.3891  0.9486  0.1008
  614MOL0     H82883   5.450   9.469   3.232  1.3013 -0.4248 -2.4911
  614MOL0     H82884   5.521   9.371   3.025  1.2503  0.3010 -0.2570
  614MOL0     H82885   5.497   9.205   3.087  3.0293 -0.6439 -0.3199
  614MOL0     H82886   5.664   9.223   3.251 -0.0464  0.0054  1.2169
  614MOL0     H82887   5.672   9.399   3.238 -3.0040 -0.8543  1.8213
  614MOL0     H82888   5.902   9.342   2.893  0.2146  0.4081 -0.1715
  614MOL0     H82889   4.985   9.432   3.393 -2.9958  1.2184 -0.3012
  614MOL0     H82890   4.755   9.366   3.373  3.1792  1.6547  2.6352
  615MOL0     O82891   2.956   5.129   3.993  0.1657 -0.6868  0.7065
  615MOL0     C82892   3.053   5.195   3.954  0.2766  0.4604  0.0167
  615MOL0     O82893   3.062   5.325   3.971  0.0146  0.0261 -0.0201
  615MOL0     C82894   2.956   5.390   4.022  0.3606 -0.2992  0.3923
  615MOL0     C82895   2.835   5.408   3.943 -0.0887  0.5407  0.0979
  615MOL0     C82896   2.726   5.484   4.000 -0.2519  0.9012  0.6553
  615MOL0     C82897   2.733   5.550   4.123 -0.6236  1.0744 -0.5717
  615MOL0     O82898   2.640   5.620   4.193  0.0198  0.1087 -0.1747
  615MOL0     C82899   2.510   5.644   4.135  0.8714 -0.2884 -0.4050
  615MOL0     C82900   2.412   5.623   4.247  0.2365  0.0634  0.3993
  615MOL0     C82901   2.424   5.492   4.324 -0.6311  0.5588 -0.0701
  615MOL0     C82902   2.309   5.471   4.417  0.2241 -0.2653  1.3246
  615MOL0     C82903   2.194   5.389   4.347  0.2820 -0.3001 -0.3085
  615MOL0     C82904   2.058   5.390   4.417  0.6010  0.6760  0.0300
  615MOL0     C82905   1.987   5.524   4.423  0.1684 -0.1021 -0.2233
  615MOL0     C82906   1.847   5.503   4.458 -0.1747  0.2346 -1.0631
  615MOL0     N82907   1.839   5.502   4.608  0.9656  0.3874  0.4033
  615MOL0     C82908   1.861   5.391   4.684  0.3336  1.1569 -0.1389
  615MOL0     C82909   1.858   5.446   4.812 -0.8991  0.5095 -0.4570
  615MOL0     C82910   1.872   5.367   4.939 -1.0609  0.5602  0.0337
  615MOL0     C82911   1.733   5.359   5.010 -0.0886 -0.6451  0.0690
  615MOL0     C82912   1.754   5.276   5.143 -0.1483 -0.0729 -0.0885
  615MOL0     C82913   1.750   5.117   5.112 -0.1102  0.0166 -0.3389
  615MOL0     O82914   1.658   5.060   5.013 -0.0252  0.2470 -0.3056
  615MOL0     C82915   1.527   5.034   5.048  0.4039 -0.6059  0.1383
  615MOL0     C82916   1.447   4.994   4.944 -0.5499 -0.4204  0.0807
  615MOL0     C82917   1.309   4.952   4.958 -0.2927 -0.8489  0.7185
  615MOL0     C82918   1.234   4.909   4.834 -0.5957 -0.0291  0.4323
  615MOL0     C82919   1.256   4.963   5.090 -0.2321 -0.2259 -0.2989
  615MOL0     C82920   1.113   4.929   5.125  0.2673  0.1026  0.2524
  615MOL0     O82921   1.056   5.013   5.214 -0.2405 -0.4749 -0.4008
  615MOL0     C82922   0.922   5.020   5.240 -0.4851  0.5109 -0.5242
  615MOL0     C82923   0.826   5.029   5.140  0.0628  0.1939 -0.3172
  615MOL0     C82924   0.691   5.021   5.171  0.3930  0.2141 -0.5191
  615MOL0     C82925   0.647   5.029   5.307 -0.0844 -0.0032  0.8406
  615MOL0     O82926   0.519   5.013   5.351 -0.0050 -0.0495  0.2871
  615MOL0     C82927   0.410   4.999   5.260  0.4307 -0.1916 -0.0035
  615MOL0     C82928   0.285   4.964   5.352  0.3417 -0.0458  0.0658
  615MOL0     C82929   0.163   4.970   5.253 -0.9970 -0.2308 -0.0238
  615MOL0     C82930   0.037   5.031   5.315  0.1513 -0.2166 -0.0265
  615MOL0     C82931  -0.088   4.973   5.246  0.9219 -0.8734  0.7587
  615MOL0     C82932  -0.220   5.026   5.324 -0.1802 -0.2543 -0.0641
  615MOL0     C82933  -0.353   4.988   5.249 -0.1676  0.1697  0.1587
  615MOL0     C82934  -0.469   5.065   5.288  0.2398  0.1216 -0.5186
  615MOL0    Cl82935  -0.590   5.062   5.163  0.1886 -0.4275 -0.0071
  615MOL0     C82936   0.751   5.024   5.400  0.2130  0.6138  0.4390
  615MOL0     C82937   0.889   5.018   5.378  0.0904  0.2139  0.7176
  615MOL0     O82938   1.055   4.831   5.082 -0.1585  0.2426  0.0533
  615MOL0     C82939   1.340   5.007   5.196 -0.1591 -1.1416 -0.0157
  615MOL0     C82940   1.471   5.044   5.172 -0.3055 -0.1580  0.9304
  615MOL0     N82941   1.823   5.580   4.804  0.5049 -0.7257  0.4796
  615MOL0     N82942   1.803   5.608   4.684  0.1858  0.3415 -0.1056
  615MOL0     C82943   2.864   5.541   4.190  1.2201 -0.4741  0.0864
  615MOL0     C82944   2.965   5.455   4.148  0.1201  0.1042 -0.4850
  615MOL0     C82945   3.172   5.112   3.898 -0.1089 -0.6846 -0.8392
  615MOL0     C82946   3.194   4.977   3.941  0.5897  0.2699 -0.1004
  615MOL0     C82947   3.300   4.896   3.889  0.7282 -0.3988  0.6707
  615MOL0     C82948   3.382   4.952   3.800 -0.2078 -0.4968  0.5824
  615MOL0     O82949   3.487   4.881   3.745  0.3751  0.8656 -0.4203
  615MOL0     C82950   3.503   4.739   3.772 -1.0974  0.2991  1.2704
  615MOL0     C82951   3.601   4.710   3.882  1.6117 -0.0771  0.0754
  615MOL0     C82952   3.639   4.562   3.897  0.0642 -0.3060  1.0206
  615MOL0     C82953   3.736   4.544   4.004 -0.2775 -0.0287 -0.7072
  615MOL0     C82954   3.756   4.402   4.042  0.7538 -0.4436 -0.0338
  615MOL0     C82955   3.772   4.289   4.078 -0.2070 -0.2330 -0.2589
  615MOL0     C82956   3.370   5.094   3.765 -0.1531 -0.0714 -0.5219
  615MOL0     C82957   3.267   5.171   3.819  0.2243  0.0969  0.0845
  615MOL0     H82958   2.826   5.339   3.860  1.6272 -0.5277  0.7333
  615MOL0     H82959   2.632   5.483   3.947  0.1406 -0.5748 -0.0782
  615MOL0     H82960   2.496   5.751   4.115  3.4206  0.0556 -0.7777
  615MOL0     H82961   2.485   5.590   4.043  1.5905 -1.1473 -0.1031
  615MOL0     H82962   2.442   5.694   4.325  1.1404 -2.6490  2.7440
  615MOL0     H82963   2.313   5.638   4.205 -0.1364 -1.3208  0.7190
  615MOL0     H82964   2.443   5.409   4.254  2.5064 -2.2978  3.7245
  615MOL0     H82965   2.519   5.498   4.378 -0.7371  1.6198  0.0188
  615MOL0     H82966   2.351   5.428   4.508  1.8213 -0.6010  0.4837
  615MOL0     H82967   2.267   5.569   4.441 -1.7672 -0.6502 -0.2847
  615MOL0     H82968   2.179   5.411   4.241 -0.5819  1.6259  0.1724
  615MOL0     H82969   2.224   5.284   4.351  0.5440 -0.2454 -0.8306
  615MOL0     H82970   1.989   5.325   4.361  0.2272  0.8082  0.3364
  615MOL0     H82971   2.075   5.350   4.518  3.1475 -0.6286 -0.8171
  615MOL0     H82972   2.039   5.597   4.485 -0.7686  2.2914 -2.0558
  615MOL0     H82973   1.980   5.565   4.321 -2.7632 -0.8052 -0.4055
  615MOL0     H82974   1.802   5.410   4.421 -0.7912 -0.0350  0.3049
  615MOL0     H82975   1.791   5.588   4.419  2.8198  2.5774 -0.5111
  615MOL0     H82976   1.896   5.289   4.666  0.1062  0.6045  2.1844
  615MOL0     H82977   1.901   5.263   4.918 -2.4371  0.4442 -1.4263
  615MOL0     H82978   1.936   5.415   5.014 -1.2946 -0.0468  0.6364
  615MOL0     H82979   1.663   5.307   4.944 -2.8177  1.3078  1.2274
  615MOL0     H82980   1.687   5.457   5.025 -0.8229 -0.9358 -0.2333
  615MOL0     H82981   1.671   5.305   5.208 -0.2514 -2.0553  0.7363
  615MOL0     H82982   1.853   5.298   5.185  0.8344  1.5430 -2.9885
  615MOL0     H82983   1.742   5.060   5.206  2.9191 -0.3662 -0.2317
  615MOL0     H82984   1.848   5.080   5.083 -0.9006 -1.8211 -0.8372
  615MOL0     H82985   1.484   4.999   4.842  0.9112 -1.6245  0.5307
  615MOL0     H82986   1.274   4.959   4.745 -0.2848  0.8723  1.0647
  615MOL0     H82987   1.244   4.801   4.832 -0.7777 -0.0436  0.2904
  615MOL0     H82988   1.129   4.935   4.849 -0.6160 -0.8746  1.9001
  615MOL0     H82989   0.853   5.039   5.035  1.7369 -1.7477 -0.1215
  615MOL0     H82990   0.619   5.021   5.089 -0.4686  1.5473  0.1865
  615MOL0     H82991   0.395   5.092   5.204 -1.9966 -0.2477  0.4473
  615MOL0     H82992   0.414   4.918   5.186  0.4021 -1.4905  1.3598
  615MOL0     H82993   0.281   4.863   5.395 -1.3743 -0.3830 -0.8230
  615MOL0     H82994   0.269   5.040   5.429  2.0359 -0.9863  1.4289
  615MOL0     H82995   0.156   4.868   5.214  0.9711 -0.0819 -0.8757
  615MOL0     H82996   0.200   5.025   5.166  0.9745 -1.3030  0.0792
  615MOL0     H82997   0.041   4.995   5.418  0.7133 -2.7645 -0.8450
  615MOL0     H82998   0.040   5.140   5.309  0.3786 -0.2541 -0.6913
  615MOL0     H82999  -0.090   4.863   5.248  2.4533 -0.9164  1.4152
  615MOL0     H83000  -0.075   5.007   5.143 -2.2614 -0.2633  0.4412
  615MOL0     H83001  -0.215   4.985   5.425 -0.1888 -0.3307 -0.0946
  615MOL0     H83002  -0.216   5.135   5.334  2.1522 -0.3752  0.9903
  615MOL0     H83003  -0.382   4.882   5.249 -0.4614  0.2438  0.7447
  615MOL0     H83004  -0.328   5.011   5.145 -1.7147 -3.1744 -1.1077
  615MOL0     H83005  -0.432   5.167   5.303  3.1709 -0.9967  0.5524
  615MOL0     H83006  -0.512   5.026   5.380  2.1748  3.3119  1.9723
  615MOL0     H83007   0.715   5.017   5.502  1.4171 -0.0511  0.8420
  615MOL0     H83008   0.969   5.018   5.452  1.7456  1.9413 -0.9753
  615MOL0     H83009   1.297   5.026   5.294 -0.9545  0.6052 -0.6736
  615MOL0     H83010   1.518   5.079   5.264  2.2574  1.3647 -0.8169
  615MOL0     H83011   2.875   5.597   4.283 -3.0728  1.1888 -0.2036
  615MOL0     H83012   3.060   5.451   4.201 -0.0323  1.6087 -0.0468
  615MOL0     H83013   3.121   4.928   4.005  2.7803 -0.0185  2.3311
  615MOL0     H83014   3.317   4.797   3.931 -1.0100 -0.8406  0.4170
  615MOL0     H83015   3.411   4.680   3.782  0.2753 -2.9028 -2.4083
  615MOL0     H83016   3.541   4.686   3.684 -4.0033 -0.1280  0.1757
  615MOL0     H83017   3.548   4.739   3.973  0.0157 -1.1321 -0.4830
  615MOL0     H83018   3.691   4.772   3.878  0.8340  1.0334 -0.9578
  615MOL0     H83019   3.682   4.519   3.807  1.8871 -1.1149  2.2211
  615MOL0     H83020   3.543   4.514   3.918 -2.3474  3.5109 -0.2608
  615MOL0     H83021   3.699   4.595   4.093 -0.4307  0.8397 -1.2618
  615MOL0     H83022   3.830   4.591   3.975 -0.2994  0.5990  0.2263
  615MOL0     H83023   3.796   4.188   4.103  3.4242  0.2885 -1.0601
  615MOL0     H83024   3.455   5.136   3.711 -2.4208  2.9252 -2.0012
  615MOL0     H83025   3.261   5.276   3.795  1.2291  0.3949  1.0529
  616MOL0     O83026   6.509   5.774   8.114 -0.1548  0.3508 -0.3543
  616MOL0     C83027   6.506   5.811   7.990  0.1748 -0.2869 -0.3660
  616MOL0     O83028   6.391   5.867   7.928  0.1379  0.8104 -0.3219
  616MOL0     C83029   6.292   5.887   8.017 -0.2438  0.1601  0.3921
  616MOL0     C83030   6.207   5.794   8.076 -0.7611 -0.6850  0.3416
  616MOL0     C83031   6.115   5.836   8.170  0.4183 -0.2339  0.5618
  616MOL0     C83032   6.102   5.970   8.215 -0.9564 -0.1202  0.2044
  616MOL0     O83033   5.993   5.986   8.293  0.4076 -0.1405 -0.8473
  616MOL0     C83034   5.939   6.114   8.337 -0.2278  1.2555  0.4706
  616MOL0     C83035   5.790   6.125   8.330  0.5291  0.9246  0.6342
  616MOL0     C83036   5.710   6.041   8.433 -0.1417 -0.7548 -0.1782
  616MOL0     C83037   5.736   6.082   8.581 -0.1546  0.0505  0.8988
  616MOL0     C83038   5.711   6.225   8.617  0.2895  0.1151 -0.3851
  616MOL0     C83039   5.728   6.237   8.768 -0.0922 -0.1382 -0.4086
  616MOL0     C83040   5.629   6.343   8.815  0.2916  0.2048  0.1559
  616MOL0     C83041   5.662   6.384   8.956  0.6226  0.4738  0.1466
  616MOL0     N83042   5.566   6.486   9.009 -0.2260  0.2723 -0.1068
  616MOL0     C83043   5.562   6.540   9.135  0.5416 -0.1129 -0.9510
  616MOL0     C83044   5.454   6.626   9.134 -0.6728  0.1794  0.0764
  616MOL0     C83045   5.401   6.687   9.260 -0.7175 -0.0879 -0.1230
  616MOL0     C83046   5.268   6.646   9.309 -0.0991 -0.1902 -0.2603
  616MOL0     C83047   5.156   6.721   9.237  1.0222 -0.1398  0.1059
  616MOL0     C83048   5.024   6.662   9.265  0.4391  0.0448 -0.2171
  616MOL0     O83049   4.990   6.677   9.405 -0.6799 -0.0594 -0.6885
  616MOL0     C83050   4.865   6.651   9.453  0.6798 -0.2614  1.3006
  616MOL0     C83051   4.836   6.724   9.563  0.7884  0.4017  0.0316
  616MOL0     C83052   4.710   6.720   9.624  0.3033 -0.7172  0.1420
  616MOL0     C83053   4.696   6.820   9.738  0.1576  0.4994 -0.2406
  616MOL0     C83054   4.599   6.643   9.566 -0.3902 -0.3713  0.0701
  616MOL0     C83055   4.459   6.628   9.622  0.1048  0.5443  0.1132
  616MOL0     O83056   4.370   6.549   9.557 -0.7693 -0.7011  0.6519
  616MOL0     C83057   4.241   6.575   9.585 -0.3422 -0.8798  0.2310
  616MOL0     C83058   4.175   6.703   9.585  0.2510 -0.6588 -0.4380
  616MOL0     C83059   4.030   6.698   9.611 -0.2752 -0.3374  0.9950
  616MOL0     C83060   3.962   6.584   9.641  0.7952  0.9011  1.4888
  616MOL0     O83061   3.830   6.589   9.662  0.8779 -0.1721 -0.6125
  616MOL0     C83062   3.769   6.665   9.765 -1.1791  0.3938  0.2865
  616MOL0     C83063   3.621   6.645   9.747 -0.7646 -0.9744  0.8611
  616MOL0     C83064   3.557   6.724   9.854 -0.6623  0.0570 -0.7054
  616MOL0     C83065   3.412   6.727   9.851 -0.1398  0.1921  0.1952
  616MOL0     C83066   3.350   6.851   9.939  0.2598  0.9299 -0.2018
  616MOL0     C83067   3.196   6.848   9.949 -0.4794 -0.0268  0.3395
  616MOL0     C83068   3.123   6.907   9.820 -0.7211  1.4489  0.2629
  616MOL0     C83069   3.115   7.051   9.820 -0.4110 -0.2523 -0.9449
  616MOL0    Cl83070   2.957   7.112   9.877  0.0975 -0.2897  0.1377
  616MOL0     C83071   4.027   6.465   9.637 -0.4556 -0.5665  0.4819
  616MOL0     C83072   4.161   6.459   9.609 -0.2291 -0.2090  0.7463
  616MOL0     O83073   4.438   6.686   9.724  0.2525 -0.6368 -0.4515
  616MOL0     C83074   4.635   6.561   9.456  0.7585 -0.5254 -0.3137
  616MOL0     C83075   4.765   6.571   9.389  0.5235 -0.3304 -0.4468
  616MOL0     N83076   5.397   6.634   9.005 -0.7250 -0.6643 -0.0266
  616MOL0     N83077   5.469   6.549   8.934  0.1950 -0.2751  0.4748
  616MOL0     C83078   6.198   6.060   8.163  0.2101 -0.0230  0.4093
  616MOL0     C83079   6.287   6.022   8.061  0.0206 -0.6606  0.7767
  616MOL0     C83080   6.622   5.793   7.908 -0.2526  0.0866 -0.5844
  616MOL0     C83081   6.734   5.722   7.952 -0.5436 -1.2409 -0.5184
  616MOL0     C83082   6.844   5.701   7.867  0.0537 -0.0707 -0.5412
  616MOL0     C83083   6.842   5.740   7.732 -0.1677 -0.0966 -0.1491
  616MOL0     O83084   6.946   5.729   7.648 -0.2035 -0.0047  1.0968
  616MOL0     C83085   7.064   5.678   7.706 -0.6304  0.4790  0.2204
  616MOL0     C83086   7.140   5.781   7.788 -0.4634 -0.1362  0.2531
  616MOL0     C83087   7.254   5.734   7.871  0.5136 -0.0232 -0.1624
  616MOL0     C83088   7.379   5.732   7.782  0.2135 -0.4296  0.4567
  616MOL0     C83089   7.493   5.686   7.864 -0.2435  0.8110  0.3500
  616MOL0     C83090   7.600   5.651   7.916  0.0764 -0.7894 -0.1130
  616MOL0     C83091   6.731   5.819   7.688  0.0825 -0.0359 -0.1664
  616MOL0     C83092   6.628   5.856   7.783 -0.5186  0.0332 -0.1403
  616MOL0     H83093   6.232   5.691   8.056  0.5501 -0.2877 -0.1706
  616MOL0     H83094   6.035   5.768   8.197 -0.0207 -0.5897 -1.4621
  616MOL0     H83095   5.978   6.124   8.439  0.6533 -0.4379  0.3335
  616MOL0     H83096   5.985   6.189   8.271  0.0545  2.9509  2.4677
  616MOL0     H83097   5.764   6.229   8.347  1.8927  0.8053  4.3749
  616MOL0     H83098   5.750   6.088   8.235 -3.3243  1.5013  1.8706
  616MOL0     H83099   5.602   6.056   8.420 -0.0587  1.0016  0.8602
  616MOL0     H83100   5.732   5.936   8.414 -2.5884 -2.0073  2.9318
  616MOL0     H83101   5.686   6.011   8.647 -0.7165  0.7573  1.2459
  616MOL0     H83102   5.844   6.077   8.597  0.2565 -0.6228 -1.6276
  616MOL0     H83103   5.777   6.283   8.552 -1.5987  0.9323 -1.6282
  616MOL0     H83104   5.609   6.257   8.595 -0.3042 -2.0628 -0.9878
  616MOL0     H83105   5.714   6.143   8.824 -0.9922 -0.4978 -1.2133
  616MOL0     H83106   5.833   6.262   8.785 -0.9572  3.1488  0.9632
  616MOL0     H83107   5.636   6.429   8.748 -0.7909 -0.6045 -1.0396
  616MOL0     H83108   5.525   6.312   8.808  0.4279 -0.0037 -1.1390
  616MOL0     H83109   5.760   6.431   8.963  0.8660 -0.2335  1.8495
  616MOL0     H83110   5.659   6.294   9.017 -0.9037  0.0077 -0.5609
  616MOL0     H83111   5.639   6.518   9.208  0.7314 -2.6454 -1.8128
  616MOL0     H83112   5.473   6.650   9.334 -0.1443  1.6197  0.2144
  616MOL0     H83113   5.401   6.796   9.255 -1.2341 -0.1120 -0.8032
  616MOL0     H83114   5.268   6.672   9.415  2.0659 -0.9195 -0.0341
  616MOL0     H83115   5.257   6.538   9.292 -0.6491  0.1329 -2.2329
  616MOL0     H83116   5.175   6.717   9.129 -0.4778 -3.7033 -0.1496
  616MOL0     H83117   5.150   6.829   9.255  2.8778  0.1843 -1.0277
  616MOL0     H83118   5.037   6.557   9.234  2.8884 -0.1745  1.2280
  616MOL0     H83119   4.952   6.711   9.199 -0.2133 -0.3381  0.2077
  616MOL0     H83120   4.920   6.780   9.602  0.8699  1.1622 -1.1609
  616MOL0     H83121   4.798   6.847   9.769  0.3911  0.6244 -1.0801
  616MOL0     H83122   4.649   6.915   9.711  1.0391  1.8690  2.5881
  616MOL0     H83123   4.653   6.772   9.825  0.8854 -1.0583 -0.7016
  616MOL0     H83124   4.234   6.793   9.578 -1.8701  0.9109  0.7708
  616MOL0     H83125   3.986   6.797   9.607 -0.4695 -0.4701 -2.3742
  616MOL0     H83126   3.797   6.635   9.867  3.6326  1.6931 -0.4111
  616MOL0     H83127   3.791   6.771   9.753 -0.5945  0.1377 -0.9948
  616MOL0     H83128   3.586   6.685   9.651  0.2593  0.2283  0.9695
  616MOL0     H83129   3.596   6.539   9.755 -1.5097 -0.8450  0.3618
  616MOL0     H83130   3.601   6.824   9.840  0.6442 -0.7861 -3.1979
  616MOL0     H83131   3.581   6.691   9.955 -4.9497 -1.0815  0.1149
  616MOL0     H83132   3.379   6.754   9.750  1.8965  3.7861  0.3423
  616MOL0     H83133   3.368   6.633   9.885  2.8939 -1.1969  0.5425
  616MOL0     H83134   3.394   6.948   9.916  1.9587 -0.0590 -1.3116
  616MOL0     H83135   3.380   6.828  10.042  2.1823  1.6710 -0.5519
  616MOL0     H83136   3.162   6.744   9.948  0.5838 -0.3860 -0.5033
  616MOL0     H83137   3.171   6.903  10.040 -0.6766 -1.7570  1.3583
  616MOL0     H83138   3.028   6.855   9.806 -0.7640  1.5299  0.2503
  616MOL0     H83139   3.193   6.883   9.739  0.0042 -1.8283  1.6825
  616MOL0     H83140   3.141   7.088   9.720  2.9233 -0.5304 -0.2984
  616MOL0     H83141   3.183   7.100   9.890 -1.5599 -1.1930  0.8896
  616MOL0     H83142   3.984   6.368   9.658  3.2411 -2.9250 -1.6494
  616MOL0     H83143   4.203   6.361   9.589 -0.5894 -0.3963  0.9049
  616MOL0     H83144   4.568   6.497   9.399 -1.6656  1.2541  0.4066
  616MOL0     H83145   4.780   6.525   9.292 -0.7835  2.5921 -2.1382
  616MOL0     H83146   6.192   6.161   8.200  0.6907 -0.9027  3.0502
  616MOL0     H83147   6.356   6.096   8.020 -0.5442  1.4191  3.2949
  616MOL0     H83148   6.740   5.676   8.050 -0.2967 -1.4224 -0.6199
  616MOL0     H83149   6.927   5.654   7.919  1.6181  3.0481  0.0397
  616MOL0     H83150   7.052   5.589   7.769 -0.8198 -1.1127 -1.9823
  616MOL0     H83151   7.129   5.659   7.621 -1.1520  0.9520 -0.2947
  616MOL0     H83152   7.069   5.829   7.856  1.6774 -0.3646  2.8327
  616MOL0     H83153   7.171   5.863   7.722  0.2709  1.2424  2.2113
  616MOL0     H83154   7.235   5.635   7.912  1.2764  1.6591  4.9760
  616MOL0     H83155   7.265   5.810   7.950 -2.6396  0.6567 -0.2457
  616MOL0     H83156   7.407   5.826   7.733  1.8445 -0.5911  1.0231
  616MOL0     H83157   7.362   5.654   7.707 -0.6807 -1.2559  1.4803
  616MOL0     H83158   7.687   5.623   7.972 -0.7256 -0.0430  1.5992
  616MOL0     H83159   6.711   5.854   7.587 -2.9576  0.9325  0.6535
  616MOL0     H83160   6.545   5.920   7.754  0.3970  0.7840 -1.1855
  617MOL0     O83161   7.461   9.081   5.498 -0.4639  0.3505  0.2679
  617MOL0     C83162   7.532   8.990   5.462 -0.1151  0.4660  0.1138
  617MOL0     O83163   7.493   8.863   5.428 -0.1544 -0.4391  0.9095
  617MOL0     C83164   7.365   8.829   5.451 -0.4609  0.4703 -0.0847
  617MOL0     C83165   7.306   8.849   5.578  0.0258 -0.4686 -0.3387
  617MOL0     C83166   7.174   8.819   5.596 -0.6380 -0.2852  0.1235
  617MOL0     C83167   7.089   8.774   5.497 -1.2905  0.1868 -0.4676
  617MOL0     O83168   6.965   8.743   5.545  0.3595  0.8463  0.1072
  617MOL0     C83169   6.880   8.655   5.465 -0.4562  0.0147 -0.3076
  617MOL0     C83170   6.758   8.618   5.548 -0.8997 -0.0352 -0.5609
  617MOL0     C83171   6.681   8.736   5.602  0.1792 -0.9826 -0.3952
  617MOL0     C83172   6.537   8.701   5.638  0.7629 -1.2526 -0.0154
  617MOL0     C83173   6.478   8.792   5.745 -0.0438 -0.3307 -0.5460
  617MOL0     C83174   6.328   8.781   5.766 -0.0507  0.7228 -0.2421
  617MOL0     C83175   6.285   8.898   5.856 -1.1498  0.4357 -0.4326
  617MOL0     C83176   6.131   8.915   5.851 -0.5326 -0.7321  0.1406
  617MOL0     N83177   6.076   8.962   5.722 -0.5016  0.5578 -0.3108
  617MOL0     C83178   6.138   9.060   5.645  0.0160 -1.3140 -0.2587
  617MOL0     C83179   6.087   9.053   5.525 -0.3004  0.0471 -0.2120
  617MOL0     C83180   6.131   9.142   5.415  0.1616  0.2879  1.1011
  617MOL0     C83181   6.252   9.096   5.335 -0.0876 -0.0992  0.7058
  617MOL0     C83182   6.375   9.063   5.411  0.7988 -1.1781 -0.6991
  617MOL0     C83183   6.499   9.042   5.321 -0.8101 -0.5516  1.0301
  617MOL0     O83184   6.485   8.918   5.246 -0.0388 -0.4172  0.0146
  617MOL0     C83185   6.600   8.863   5.200  0.5865  0.4330 -0.6833
  617MOL0     C83186   6.615   8.722   5.206  0.5306  0.5969 -0.2541
  617MOL0     C83187   6.722   8.659   5.143 -0.0791  0.0015 -0.3619
  617MOL0     C83188   6.730   8.513   5.156  0.0786  0.1376 -1.2913
  617MOL0     C83189   6.824   8.730   5.083 -0.4705  0.1608  0.0443
  617MOL0     C83190   6.950   8.675   5.037  0.4556  0.9143  0.5337
  617MOL0     O83191   7.012   8.737   4.930 -0.3933  0.7555  0.4031
  617MOL0     C83192   7.147   8.737   4.924  0.0193  0.6873  0.1556
  617MOL0     C83193   7.213   8.627   4.860  0.2640 -0.5008 -0.5693
  617MOL0     C83194   7.355   8.630   4.846 -0.3146  0.1316  0.5656
  617MOL0     C83195   7.426   8.734   4.890  0.0532  1.0614 -0.6571
  617MOL0     O83196   7.564   8.732   4.854 -0.0334 -0.0177  0.4630
  617MOL0     C83197   7.664   8.815   4.921  0.2482 -0.1773 -0.0586
  617MOL0     C83198   7.811   8.781   4.882 -0.5894  0.0025  0.4311
  617MOL0     C83199   7.908   8.878   4.957 -0.3973  0.2122 -0.2218
  617MOL0     C83200   7.909   9.023   4.894 -0.6845  0.2994  0.0344
  617MOL0     C83201   8.026   9.105   4.944 -0.6938 -0.2289  0.0396
  617MOL0     C83202   8.030   9.252   4.896 -0.0609  0.1307 -0.0418
  617MOL0     C83203   8.175   9.308   4.899 -0.0736 -0.1832  0.2096
  617MOL0     C83204   8.186   9.392   4.767  0.8227  0.4563 -0.2531
  617MOL0    Cl83205   8.074   9.529   4.769  0.0913 -0.2164 -0.0970
  617MOL0     C83206   7.365   8.849   4.946  0.3267 -0.2922 -0.0498
  617MOL0     C83207   7.221   8.854   4.968 -0.5592  0.3006 -1.0895
  617MOL0     O83208   7.000   8.579   5.098  0.6879  0.5637 -0.9662
  617MOL0     C83209   6.815   8.870   5.075  0.0836  0.1969  0.5118
  617MOL0     C83210   6.706   8.933   5.135 -0.1089  0.5908 -0.5292
  617MOL0     N83211   6.000   8.945   5.521  0.1184 -0.4016  0.4304
  617MOL0     N83212   5.995   8.884   5.635 -0.0002 -0.1827 -0.1814
  617MOL0     C83213   7.154   8.743   5.371 -0.2637  0.8016  0.3025
  617MOL0     C83214   7.290   8.777   5.346 -0.8013  0.1407 -0.2760
  617MOL0     C83215   7.680   9.017   5.458  0.5964  0.9344  0.2779
  617MOL0     C83216   7.732   9.131   5.522 -0.3191 -0.5321  0.1148
  617MOL0     C83217   7.869   9.157   5.509  0.8426 -0.1016 -0.3770
  617MOL0     C83218   7.961   9.068   5.447  0.3703 -0.3050  0.2390
  617MOL0     O83219   8.095   9.114   5.456  0.0833 -0.0393 -0.1755
  617MOL0     C83220   8.189   9.034   5.391 -0.4956  0.1005  0.2476
  617MOL0     C83221   8.319   9.115   5.393 -0.2264 -0.2324 -0.1011
  617MOL0     C83222   8.427   9.039   5.318 -0.3101 -0.1271 -0.0077
  617MOL0     C83223   8.560   9.116   5.311  0.2481  0.1440  0.0454
  617MOL0     C83224   8.655   9.041   5.232 -0.6171  0.6312  0.8517
  617MOL0     C83225   8.734   8.975   5.169 -0.9239 -0.6291 -0.4120
  617MOL0     C83226   7.906   8.957   5.386  0.3298 -0.0679 -0.5619
  617MOL0     C83227   7.768   8.927   5.393  0.2301 -0.2380 -0.2104
  617MOL0     H83228   7.356   8.905   5.656 -1.2022  0.6775 -0.3523
  617MOL0     H83229   7.145   8.820   5.701 -2.4149 -2.1721 -0.2923
  617MOL0     H83230   6.854   8.704   5.371 -0.2446  0.5185 -0.1101
  617MOL0     H83231   6.934   8.562   5.446  2.7671  1.7083 -0.1513
  617MOL0     H83232   6.701   8.555   5.479  0.4912  0.0723 -1.8682
  617MOL0     H83233   6.799   8.564   5.633  1.1704  0.1795 -1.3700
  617MOL0     H83234   6.735   8.774   5.688 -2.3013 -2.1297  1.8258
  617MOL0     H83235   6.684   8.813   5.524 -2.0640  0.4264  0.7829
  617MOL0     H83236   6.480   8.706   5.545 -0.2604  0.7212  0.6633
  617MOL0     H83237   6.530   8.599   5.678 -1.3910 -1.7646 -1.5139
  617MOL0     H83238   6.534   8.788   5.839 -1.1957  1.3769  0.2718
  617MOL0     H83239   6.496   8.891   5.704 -1.9856 -0.4741 -1.8640
  617MOL0     H83240   6.278   8.780   5.669  2.4157 -0.3240 -1.5797
  617MOL0     H83241   6.316   8.680   5.807  0.2893  2.2905  4.2297
  617MOL0     H83242   6.312   8.890   5.962 -2.7809  0.1062 -0.0174
  617MOL0     H83243   6.334   8.992   5.827 -3.1228  1.3193 -1.0438
  617MOL0     H83244   6.106   8.990   5.927  0.7097 -0.8528  0.6934
  617MOL0     H83245   6.079   8.825   5.885  1.6513 -1.5923  1.3981
  617MOL0     H83246   6.208   9.136   5.679  1.0438 -2.5647  0.5198
  617MOL0     H83247   6.044   9.147   5.350  0.2838 -0.3115  0.8860
  617MOL0     H83248   6.150   9.243   5.452  5.5641 -0.4419  1.1608
  617MOL0     H83249   6.268   9.178   5.264 -2.5904  0.3780  0.5881
  617MOL0     H83250   6.225   9.007   5.278  0.9820  1.1272 -1.8630
  617MOL0     H83251   6.355   8.978   5.477 -1.0867 -0.1945  0.0642
  617MOL0     H83252   6.400   9.151   5.473 -1.6262 -1.9947  1.6336
  617MOL0     H83253   6.588   9.037   5.385  0.0141 -0.4429 -0.0861
  617MOL0     H83254   6.509   9.127   5.253 -0.1395  0.2557  2.0999
  617MOL0     H83255   6.551   8.654   5.262  2.4887 -0.4828  0.7848
  617MOL0     H83256   6.753   8.477   5.055  0.7966  0.9019 -1.4142
  617MOL0     H83257   6.811   8.493   5.226  0.7266 -2.2336 -2.6142
  617MOL0     H83258   6.637   8.469   5.193  0.4549  0.3563 -0.0283
  617MOL0     H83259   7.143   8.548   4.833 -1.3967  0.1098  1.6767
  617MOL0     H83260   7.403   8.544   4.800 -2.9339 -0.6574 -0.8739
  617MOL0     H83261   7.652   8.922   4.901  0.6944 -0.1351 -0.1252
  617MOL0     H83262   7.650   8.786   5.026  1.7888 -1.5912 -0.1932
  617MOL0     H83263   7.841   8.677   4.896  1.1943  0.0603 -2.3995
  617MOL0     H83264   7.819   8.794   4.774 -0.2623  0.5214  0.5168
  617MOL0     H83265   8.010   8.842   4.946  0.5992  2.4315  1.0498
  617MOL0     H83266   7.881   8.882   5.063  2.5268 -3.3001  0.8457
  617MOL0     H83267   7.908   9.007   4.786 -0.3943 -0.8357  0.1840
  617MOL0     H83268   7.817   9.080   4.913  0.1021  1.4554  0.4371
  617MOL0     H83269   8.113   9.052   4.905 -1.9377  0.0487 -3.4475
  617MOL0     H83270   8.027   9.095   5.053 -1.4472 -1.5325 -0.0495
  617MOL0     H83271   8.022   9.242   4.787  3.4952  1.7053 -0.5846
  617MOL0     H83272   7.952   9.319   4.934 -1.0335  0.7745 -2.9020
  617MOL0     H83273   8.257   9.236   4.895  1.8898  1.9558 -2.3525
  617MOL0     H83274   8.190   9.363   4.992 -1.5531 -1.7050  1.4123
  617MOL0     H83275   8.177   9.332   4.676  1.3138 -1.4238  0.8796
  617MOL0     H83276   8.289   9.430   4.764  0.6914  0.7445 -1.6140
  617MOL0     H83277   7.426   8.936   4.969  0.8306 -0.6487 -0.0108
  617MOL0     H83278   7.172   8.935   5.020 -1.1254  0.3764 -1.7341
  617MOL0     H83279   6.886   8.931   5.020  0.2683  0.3893  0.9611
  617MOL0     H83280   6.694   9.041   5.130 -1.5595  0.6025  1.7077
  617MOL0     H83281   7.099   8.692   5.293 -0.5234 -1.0517  1.6075
  617MOL0     H83282   7.343   8.764   5.253  0.4896  1.3003  0.2577
  617MOL0     H83283   7.661   9.194   5.575 -0.4865 -0.2800 -0.4015
  617MOL0     H83284   7.904   9.238   5.572 -2.2696  0.1482  1.2033
  617MOL0     H83285   8.194   8.935   5.438 -0.2162 -0.1147 -0.2398
  617MOL0     H83286   8.164   9.013   5.287  0.7127 -0.7277  0.1039
  617MOL0     H83287   8.347   9.138   5.497 -1.1635 -0.8954  0.3094
  617MOL0     H83288   8.309   9.216   5.351  0.6708 -0.0680  0.0695
  617MOL0     H83289   8.387   9.034   5.216 -0.0190  0.2813 -0.1455
  617MOL0     H83290   8.433   8.948   5.377 -0.3901  1.8166  3.2143
  617MOL0     H83291   8.596   9.118   5.415  2.3943 -2.2472 -0.5415
  617MOL0     H83292   8.554   9.218   5.271 -2.0787  0.1807  0.3531
  617MOL0     H83293   8.798   8.917   5.106  0.5552 -2.4337  2.5317
  617MOL0     H83294   7.970   8.886   5.336  0.5777 -0.4205  0.2454
  617MOL0     H83295   7.722   8.838   5.351  1.5902 -0.6333 -0.9217
  618MOL0     O83296   1.140  10.404   3.460 -0.1767  0.3277  0.1000
  618MOL0     C83297   1.201  10.486   3.395  0.1267 -1.2438  0.5247
  618MOL0     O83298   1.155  10.606   3.348  0.6531 -0.3089 -0.0150
  618MOL0     C83299   1.012  10.636   3.342  0.4390  0.2535 -0.6810
  618MOL0     C83300   0.983  10.755   3.276  0.4391  0.1734  0.0973
  618MOL0     C83301   0.855  10.804   3.252  0.3065  0.6735 -0.1948
  618MOL0     C83302   0.748  10.742   3.317 -0.0096 -1.0589  0.0734
  618MOL0     O83303   0.614  10.773   3.300 -0.1170 -0.6600 -0.3783
  618MOL0     C83304   0.584  10.899   3.243  0.9237  0.7063 -0.1283
  618MOL0     C83305   0.427  10.914   3.281 -0.1801  0.1045 -0.4890
  618MOL0     C83306   0.368  11.040   3.226 -0.3103  0.8454  0.9574
  618MOL0     C83307   0.310  11.015   3.086  0.8225  0.2350  0.5485
  618MOL0     C83308   0.229  11.130   3.028 -0.6668  1.4542 -0.0380
  618MOL0     C83309   0.105  11.162   3.108  0.1253 -0.8194  0.0568
  618MOL0     C83310   0.010  11.040   3.131  0.1939  0.6950  0.4003
  618MOL0     C83311  -0.034  10.989   2.988  0.6107  0.7301  0.2472
  618MOL0     N83312  -0.135  11.080   2.921 -0.5163  0.3023  0.3919
  618MOL0     C83313  -0.162  11.073   2.783  0.3256 -0.2334  0.0570
  618MOL0     C83314  -0.242  11.183   2.755  0.0069 -1.6816 -0.1767
  618MOL0     C83315  -0.299  11.227   2.629  0.2280 -0.1539 -0.6799
  618MOL0     C83316  -0.192  11.223   2.526 -0.4925  0.6107  0.1081
  618MOL0     C83317  -0.248  11.263   2.394  0.5434  0.7517  0.6724
  618MOL0     C83318  -0.264  11.411   2.373 -0.0758  0.1121  0.0730
  618MOL0     O83319  -0.337  11.428   2.245  0.2290 -0.0346  0.6869
  618MOL0     C83320  -0.383  11.550   2.220 -0.0051  0.4887  0.2876
  618MOL0     C83321  -0.343  11.661   2.297 -0.6431  0.3342 -0.2793
  618MOL0     C83322  -0.390  11.789   2.263 -0.1822 -0.9035  0.6043
  618MOL0     C83323  -0.350  11.896   2.362  0.0034 -0.0531 -0.1285
  618MOL0     C83324  -0.500  11.798   2.169 -0.1477  0.9784  0.8314
  618MOL0     C83325  -0.544  11.930   2.121  0.2327  0.1543  0.0377
  618MOL0     O83326  -0.667  11.923   2.059  0.0582  0.1968 -0.1113
  618MOL0     C83327  -0.727  12.048   2.020  0.0719  0.2653 -0.6735
  618MOL0     C83328  -0.851  12.076   2.076  0.2002 -0.2247 -0.5954
  618MOL0     C83329  -0.900  12.206   2.051  0.3089 -1.4769  0.1249
  618MOL0     C83330  -0.840  12.289   1.965 -0.0804 -0.6483 -0.2835
  618MOL0     O83331  -0.892  12.410   1.918 -0.5527 -0.1685  0.0378
  618MOL0     C83332  -1.026  12.447   1.966 -0.1247 -0.6305 -0.6183
  618MOL0     C83333  -1.064  12.592   1.910 -1.1118  0.3041  0.1102
  618MOL0     C83334  -1.210  12.598   1.879  0.3966  0.4730 -0.1407
  618MOL0     C83335  -1.261  12.744   1.864 -0.1480 -0.0499 -0.1912
  618MOL0     C83336  -1.414  12.739   1.834  0.2934  0.0971  0.1611
  618MOL0     C83337  -1.456  12.881   1.790 -0.5116 -0.5302 -0.1318
  618MOL0     C83338  -1.600  12.895   1.751  0.5448  0.8185 -0.5612
  618MOL0     C83339  -1.624  13.008   1.654  0.2486  0.4961 -0.1474
  618MOL0    Cl83340  -1.775  12.990   1.567 -0.4172  0.0497  0.1645
  618MOL0     C83341  -0.719  12.263   1.904  0.1606  0.4385  0.3368
  618MOL0     C83342  -0.662  12.141   1.940 -0.4553 -0.3140 -0.3011
  618MOL0     O83343  -0.480  12.033   2.132  0.1012  0.3346 -0.6196
  618MOL0     C83344  -0.539  11.683   2.091  0.3963  0.2095 -0.2989
  618MOL0     C83345  -0.474  11.564   2.116  1.0216 -0.4262  0.5779
  618MOL0     N83346  -0.258  11.255   2.882 -0.4735 -0.2376 -0.0397
  618MOL0     N83347  -0.193  11.190   2.974 -0.5371 -0.5513  0.9507
  618MOL0     C83348   0.776  10.635   3.399  0.0584 -0.0049  0.8431
  618MOL0     C83349   0.908  10.579   3.412 -0.7895 -0.0792 -0.1688
  618MOL0     C83350   1.335  10.444   3.351  0.0700 -0.9077  0.4027
  618MOL0     C83351   1.409  10.340   3.417  0.0697 -0.1764 -0.3703
  618MOL0     C83352   1.540  10.314   3.376 -0.1939  0.1502  0.9979
  618MOL0     C83353   1.596  10.380   3.259 -0.1940  0.7318 -0.2148
  618MOL0     O83354   1.722  10.341   3.217  0.0443 -0.3594 -0.7012
  618MOL0     C83355   1.782  10.411   3.101  0.6357 -0.2309 -0.2897
  618MOL0     C83356   1.917  10.360   3.090 -0.6119  0.0494  0.6934
  618MOL0     C83357   1.926  10.201   3.076  0.0146  0.6234 -0.7663
  618MOL0     C83358   2.076  10.175   3.064  0.3277  0.0315  0.1357
  618MOL0     C83359   2.100  10.043   3.005 -0.3327  0.7940  0.0202
  618MOL0     C83360   2.122   9.935   2.945 -0.5229 -0.1436 -0.7661
  618MOL0     C83361   1.518  10.484   3.195 -1.3599  1.0757  0.1280
  618MOL0     C83362   1.398  10.520   3.248 -0.2721 -0.1142  0.0297
  618MOL0     H83363   1.072  10.796   3.229  0.3067 -2.6953 -3.0209
  618MOL0     H83364   0.843  10.890   3.188 -0.4051  1.2826  0.7328
  618MOL0     H83365   0.646  10.982   3.276  0.6917  1.3026 -1.1479
  618MOL0     H83366   0.583  10.897   3.134 -0.1238 -0.9457 -0.1287
  618MOL0     H83367   0.372  10.825   3.247 -1.1759 -0.8862  3.2658
  618MOL0     H83368   0.414  10.921   3.389  0.5847 -0.4567 -0.3577
  618MOL0     H83369   0.291  11.077   3.294 -2.3171 -1.6720  0.2290
  618MOL0     H83370   0.443  11.118   3.212  0.0022  0.3162 -0.5315
  618MOL0     H83371   0.396  10.997   3.021 -0.2727  0.8481 -1.1355
  618MOL0     H83372   0.249  10.924   3.083  0.2751  0.6266 -1.9508
  618MOL0     H83373   0.288  11.221   3.016 -2.8024  3.0257  0.8104
  618MOL0     H83374   0.185  11.107   2.930  0.4701  1.5909 -0.6003
  618MOL0     H83375   0.138  11.210   3.200 -0.9714  2.6447 -1.2070
  618MOL0     H83376   0.051  11.241   3.056  0.7652 -0.2341  0.2741
  618MOL0     H83377   0.060  10.975   3.203  0.6056  3.7105  3.0509
  618MOL0     H83378  -0.077  11.081   3.182  0.1377  2.0755 -0.7305
  618MOL0     H83379  -0.092  10.899   3.008  1.3409  0.5860  1.8793
  618MOL0     H83380   0.050  10.946   2.932 -0.2017 -2.2888  1.1877
  618MOL0     H83381  -0.119  10.997   2.718  1.8110 -0.3115  1.0741
  618MOL0     H83382  -0.374  11.154   2.598 -0.1476  0.1776 -0.5596
  618MOL0     H83383  -0.335  11.330   2.636  0.9629  0.0992 -0.5115
  618MOL0     H83384  -0.158  11.120   2.511  0.1205  0.7346  0.5933
  618MOL0     H83385  -0.107  11.288   2.548  0.8662 -0.4756 -1.6271
  618MOL0     H83386  -0.344  11.215   2.375  0.0338  2.0791 -0.3302
  618MOL0     H83387  -0.170  11.233   2.323  0.6286 -1.4943  1.6603
  618MOL0     H83388  -0.169  11.464   2.376 -0.2680  0.4379  0.4006
  618MOL0     H83389  -0.330  11.451   2.450 -1.7174 -0.3354 -1.0429
  618MOL0     H83390  -0.260  11.666   2.367 -0.0108  1.3140 -1.0711
  618MOL0     H83391  -0.428  11.971   2.378  0.0575  0.6281 -2.6504
  618MOL0     H83392  -0.314  11.854   2.456  0.4949  0.9036  0.1283
  618MOL0     H83393  -0.279  11.965   2.316 -0.5139  0.8198  0.3507
  618MOL0     H83394  -0.904  12.000   2.133 -0.3654  0.0451 -0.7510
  618MOL0     H83395  -0.998  12.226   2.092 -0.0495  0.3731 -1.4548
  618MOL0     H83396  -1.089  12.368   1.925 -1.2567 -0.7702  1.2883
  618MOL0     H83397  -1.049  12.446   2.073 -2.8691  0.9781 -1.0964
  618MOL0     H83398  -1.048  12.665   1.991  0.7912 -1.8561  1.8010
  618MOL0     H83399  -0.998  12.613   1.826 -2.8952 -0.4316 -1.5637
  618MOL0     H83400  -1.262  12.550   1.962  2.5728  1.2771  1.7622
  618MOL0     H83401  -1.231  12.554   1.781 -0.4307  3.1299 -1.2479
  618MOL0     H83402  -1.245  12.792   1.961  0.1950 -1.7091  0.6018
  618MOL0     H83403  -1.209  12.792   1.781 -0.6688 -2.1709 -1.8453
  618MOL0     H83404  -1.475  12.696   1.914 -0.1680 -2.1522 -1.3083
  618MOL0     H83405  -1.433  12.673   1.749 -0.5734  0.7971 -0.2088
  618MOL0     H83406  -1.453  12.959   1.867 -2.0236  1.1086 -1.6206
  618MOL0     H83407  -1.383  12.911   1.714  0.1855  0.9262  1.0470
  618MOL0     H83408  -1.652  12.926   1.842  0.0709 -2.7096  0.5319
  618MOL0     H83409  -1.657  12.809   1.715 -0.2237  1.3935 -0.7225
  618MOL0     H83410  -1.544  13.008   1.579  0.3160 -1.3532 -0.1269
  618MOL0     H83411  -1.621  13.101   1.711  1.5923 -0.1542  0.9159
  618MOL0     H83412  -0.675  12.341   1.843  1.5653 -0.6989 -0.1493
  618MOL0     H83413  -0.563  12.128   1.899 -0.6289 -0.4290 -0.6925
  618MOL0     H83414  -0.608  11.667   2.009 -0.9817  0.5862  0.7384
  618MOL0     H83415  -0.500  11.485   2.046  1.0158  0.2479 -0.1957
  618MOL0     H83416   0.693  10.582   3.446 -0.3596  0.1053  0.2322
  618MOL0     H83417   0.929  10.502   3.485 -1.1539  1.6668  1.8580
  618MOL0     H83418   1.372  10.279   3.499 -1.8428 -1.2368 -1.9114
  618MOL0     H83419   1.596  10.230   3.414  0.2582 -0.0809 -0.1188
  618MOL0     H83420   1.732  10.401   3.005  1.6080  0.0624 -0.8416
  618MOL0     H83421   1.790  10.516   3.128 -1.2627 -0.3516  0.9444
  618MOL0     H83422   1.978  10.396   3.173 -0.2711  0.7112  0.1751
  618MOL0     H83423   1.951  10.408   2.997 -1.3118 -1.7071 -0.5269
  618MOL0     H83424   1.873  10.163   2.988  2.1118  1.5392 -2.5216
  618MOL0     H83425   1.884  10.159   3.167 -2.4423  0.7115 -1.7791
  618MOL0     H83426   2.117  10.168   3.165 -0.8520  0.5431  0.6645
  618MOL0     H83427   2.126  10.250   3.002 -0.8262 -1.6450 -3.1120
  618MOL0     H83428   2.146   9.840   2.902  2.3494 -0.5563  1.3967
  618MOL0     H83429   1.563  10.533   3.109  0.0703 -0.7834 -0.2555
  618MOL0     H83430   1.336  10.591   3.194  1.0277  2.0738  1.2838
  619MOL0     O83431   0.808   4.234   9.897  0.6049  0.0539  0.0342
  619MOL0     C83432   0.822   4.349   9.848  0.6745  0.0005  0.4330
  619MOL0     O83433   0.727   4.444   9.848  0.1050  0.6510 -0.0586
  619MOL0     C83434   0.603   4.428   9.909 -0.7129  0.0585  0.6263
  619MOL0     C83435   0.587   4.375  10.038  0.1538 -1.0500  1.2532
  619MOL0     C83436   0.460   4.380  10.098  0.0071  0.6167  0.4927
  619MOL0     C83437   0.342   4.416  10.023 -0.3316  0.2924 -1.0208
  619MOL0     O83438   0.226   4.405  10.088  0.5773  0.0914 -0.2362
  619MOL0     C83439   0.113   4.475  10.030  0.1479 -0.4168  0.1114
  619MOL0     C83440  -0.017   4.463  10.106  0.9249 -0.2118  0.0230
  619MOL0     C83441  -0.128   4.548  10.044  0.7380  0.1131 -0.0486
  619MOL0     C83442  -0.242   4.559  10.157 -0.2693  0.3708  0.2361
  619MOL0     C83443  -0.381   4.610  10.113  0.0275  0.2048  0.6300
  619MOL0     C83444  -0.378   4.741  10.041  0.5898  0.0011 -0.2533
  619MOL0     C83445  -0.509   4.799   9.994  0.0369 -0.0653  0.1204
  619MOL0     C83446  -0.610   4.804  10.112 -0.3717  0.5472 -0.4392
  619MOL0     N83447  -0.569   4.890  10.224  0.4570 -0.0395 -0.0930
  619MOL0     C83448  -0.507   5.010  10.227 -0.1474 -0.5986  0.5658
  619MOL0     C83449  -0.478   5.028  10.360  1.1355  0.1726  0.3123
  619MOL0     C83450  -0.417   5.149  10.417  0.8597 -0.0490  0.0963
  619MOL0     C83451  -0.263   5.136  10.414 -0.7219 -0.1696  1.3759
  619MOL0     C83452  -0.205   5.000  10.455  0.4764  0.4565  0.5959
  619MOL0     C83453  -0.053   4.999  10.477  0.7095 -0.2123 -0.2781
  619MOL0     O83454  -0.001   4.870  10.450  0.2193  0.7452  0.4197
  619MOL0     C83455   0.136   4.849  10.456  0.2256 -0.5322 -0.8103
  619MOL0     C83456   0.180   4.717  10.446 -0.3931  0.1313  0.6998
  619MOL0     C83457   0.317   4.689  10.444  0.1359  0.5667 -0.3705
  619MOL0     C83458   0.359   4.542  10.426  0.3259 -0.1693  0.0969
  619MOL0     C83459   0.411   4.794  10.462 -0.1607 -0.4254 -0.2399
  619MOL0     C83460   0.564   4.783  10.450 -0.0536 -0.2412 -0.4179
  619MOL0     O83461   0.625   4.660  10.431 -0.3571  0.0174 -0.6070
  619MOL0     C83462   0.758   4.656  10.401  0.7511  0.0168  0.8411
  619MOL0     C83463   0.865   4.729  10.454  0.8312  0.0712  0.5138
  619MOL0     C83464   0.998   4.707  10.422 -0.4703 -0.3640 -0.0782
  619MOL0     C83465   1.039   4.619  10.320 -0.9999  0.4068 -0.7360
  619MOL0     O83466   1.171   4.586  10.294  0.6234 -0.2561  0.1235
  619MOL0     C83467   1.225   4.665  10.185 -0.0062  0.5856 -0.0381
  619MOL0     C83468   1.279   4.795  10.230 -0.3504 -0.4662 -0.2446
  619MOL0     C83469   1.420   4.780  10.284 -0.4425  0.3687  0.1400
  619MOL0     C83470   1.453   4.867  10.400  0.2426  0.6637  0.8991
  619MOL0     C83471   1.599   4.864  10.445  0.4949 -0.5927 -0.3165
  619MOL0     C83472   1.700   4.914  10.345  0.1638  0.4607 -0.3049
  619MOL0     C83473   1.853   4.901  10.392  0.4090 -0.2520  0.2186
  619MOL0     C83474   1.899   4.752  10.387  0.3054 -0.6708  0.2348
  619MOL0    Cl83475   1.898   4.700  10.207  0.2747  0.2318 -0.0246
  619MOL0     C83476   0.933   4.553  10.262 -0.0356 -0.4898  0.2342
  619MOL0     C83477   0.794   4.570  10.300 -1.0547  0.3549  0.4995
  619MOL0     O83478   0.626   4.885  10.456  0.3193  0.2811 -0.6856
  619MOL0     C83479   0.362   4.920  10.491 -0.4225  0.2060  0.7970
  619MOL0     C83480   0.229   4.957  10.485  0.1311  0.1458 -0.9454
  619MOL0     N83481  -0.529   4.931  10.437 -0.0032  0.2352  0.2802
  619MOL0     N83482  -0.582   4.845  10.352 -0.3844  0.0179 -0.8030
  619MOL0     C83483   0.363   4.460   9.890 -0.2337 -0.4124  0.1721
  619MOL0     C83484   0.493   4.467   9.843 -0.2773 -0.5308  0.0500
  619MOL0     C83485   0.951   4.379   9.789 -0.0117 -0.6035 -0.1909
  619MOL0     C83486   0.989   4.510   9.753  1.1343  0.2282  0.7107
  619MOL0     C83487   1.109   4.532   9.702 -0.4876 -0.1793  0.5526
  619MOL0     C83488   1.212   4.438   9.703  0.2025  0.2751 -0.1751
  619MOL0     O83489   1.333   4.479   9.660 -0.0483 -0.2514 -0.3200
  619MOL0     C83490   1.446   4.395   9.705 -0.2080 -0.2960 -0.6797
  619MOL0     C83491   1.576   4.483   9.724 -0.9027  0.0350  0.5079
  619MOL0     C83492   1.556   4.593   9.832  0.0450 -1.1134  0.0625
  619MOL0     C83493   1.694   4.646   9.886  0.8092  0.3977 -0.3149
  619MOL0     C83494   1.750   4.731   9.787 -0.0849 -0.9539  0.2429
  619MOL0     C83495   1.796   4.808   9.706  0.1111 -1.5919 -0.1520
  619MOL0     C83496   1.176   4.308   9.735  0.3004 -0.1261  0.8588
  619MOL0     C83497   1.047   4.280   9.778 -0.4724 -0.8360 -0.5086
  619MOL0     H83498   0.683   4.351  10.084  1.5714  1.0351 -0.4433
  619MOL0     H83499   0.444   4.347  10.201  0.8748  0.4424  0.5817
  619MOL0     H83500   0.135   4.582  10.019  0.6515 -0.5179  0.1222
  619MOL0     H83501   0.089   4.435   9.931 -1.0779  1.9617 -0.6368
  619MOL0     H83502  -0.039   4.357  10.121 -0.3186  0.2145  1.3955
  619MOL0     H83503   0.002   4.505  10.206 -0.1298  0.7755 -0.1720
  619MOL0     H83504  -0.089   4.642  10.006 -0.4378  0.3422 -0.7106
  619MOL0     H83505  -0.167   4.489   9.961  2.3700 -1.3635  0.1512
  619MOL0     H83506  -0.271   4.462  10.198 -3.4586  0.9401 -0.4151
  619MOL0     H83507  -0.212   4.626  10.238  1.3603 -1.8530  1.5676
  619MOL0     H83508  -0.424   4.533  10.049  1.1896 -0.2239  0.3378
  619MOL0     H83509  -0.439   4.621  10.206 -0.1986  0.3214  0.4770
  619MOL0     H83510  -0.334   4.821  10.100 -2.2625 -0.5526  2.9371
  619MOL0     H83511  -0.314   4.718   9.955  0.2026 -0.6602 -0.3748
  619MOL0     H83512  -0.480   4.900   9.963  0.9900 -0.5812 -0.7298
  619MOL0     H83513  -0.552   4.746   9.908 -0.3050 -0.5187  0.5686
  619MOL0     H83514  -0.638   4.703  10.143  2.6473 -0.1295  0.3524
  619MOL0     H83515  -0.696   4.854  10.067  0.7461 -0.5451 -4.1156
  619MOL0     H83516  -0.489   5.078  10.144  0.2497 -0.7707  0.5056
  619MOL0     H83517  -0.443   5.243  10.367  0.0007 -0.9926 -1.2792
  619MOL0     H83518  -0.452   5.146  10.520  3.3540  0.1558  1.0316
  619MOL0     H83519  -0.230   5.220  10.475 -0.1367  1.6980 -1.3182
  619MOL0     H83520  -0.225   5.157  10.313 -3.1505 -1.0619  0.1937
  619MOL0     H83521  -0.237   4.930  10.377 -3.5507 -0.7507  3.0280
  619MOL0     H83522  -0.254   4.960  10.545 -0.1293 -2.8390 -1.0577
  619MOL0     H83523  -0.040   5.019  10.583 -4.4134 -1.0553  0.7699
  619MOL0     H83524  -0.007   5.073  10.411 -1.6526 -1.7322 -3.9676
  619MOL0     H83525   0.101   4.644  10.435  0.0983 -0.4244  0.7788
  619MOL0     H83526   0.402   4.499  10.517 -1.1976 -1.7385  0.1282
  619MOL0     H83527   0.272   4.481  10.401 -0.1124  0.8762 -1.0161
  619MOL0     H83528   0.422   4.537  10.337  0.7416  2.0203  0.2107
  619MOL0     H83529   0.835   4.798  10.533 -0.6471  0.1168 -0.0635
  619MOL0     H83530   1.076   4.754  10.482  1.1687 -1.5399 -1.1956
  619MOL0     H83531   1.307   4.613  10.135  0.9624  1.2884  0.7909
  619MOL0     H83532   1.153   4.680  10.103 -1.2337 -3.4572  0.0899
  619MOL0     H83533   1.302   4.860  10.145  1.4207  1.1152  1.3673
  619MOL0     H83534   1.214   4.856  10.293 -1.6414  1.4100 -3.1733
  619MOL0     H83535   1.482   4.789  10.195 -0.8084 -2.6608 -0.5181
  619MOL0     H83536   1.443   4.679  10.319 -0.6024  0.6288  1.0329
  619MOL0     H83537   1.430   4.969  10.366 -0.4683 -0.1385 -1.2246
  619MOL0     H83538   1.390   4.851  10.487  1.9633 -0.5417  2.0035
  619MOL0     H83539   1.629   4.764  10.476  1.2762 -0.3321 -0.1989
  619MOL0     H83540   1.598   4.934  10.530  0.8300  1.4145 -1.8765
  619MOL0     H83541   1.700   4.874  10.243 -0.1106 -0.8064  0.1763
  619MOL0     H83542   1.688   5.022  10.334 -0.6788  0.3849 -0.1903
  619MOL0     H83543   1.878   4.931  10.494  0.0290  1.8235 -0.2668
  619MOL0     H83544   1.912   4.963  10.325 -0.3227 -2.1447 -2.3307
  619MOL0     H83545   1.847   4.689  10.460 -1.5213  1.6904  1.0993
  619MOL0     H83546   2.005   4.744  10.414  0.4053  0.6672  0.3175
  619MOL0     H83547   0.967   4.485  10.185 -1.4713 -0.6465 -0.2969
  619MOL0     H83548   0.720   4.504  10.257 -1.2239  1.1097 -0.4215
  619MOL0     H83549   0.436   4.992  10.526 -0.7128  0.3779  1.0621
  619MOL0     H83550   0.189   5.055  10.508  1.2096  0.2842  0.4183
  619MOL0     H83551   0.274   4.479   9.830 -0.8677 -1.0620  0.8703
  619MOL0     H83552   0.507   4.491   9.738 -0.1742 -0.8209 -0.0049
  619MOL0     H83553   0.912   4.587   9.755 -0.8761 -1.7092  0.8040
  619MOL0     H83554   1.124   4.636   9.674 -1.9125 -0.2278 -0.5332
  619MOL0     H83555   1.427   4.350   9.803 -1.8556  1.4664 -0.1426
  619MOL0     H83556   1.465   4.309   9.640  1.2563 -1.4437  1.1517
  619MOL0     H83557   1.607   4.523   9.627 -0.1402 -0.2632  0.6183
  619MOL0     H83558   1.651   4.416   9.767  0.6733  1.8151  0.6664
  619MOL0     H83559   1.492   4.558   9.914 -1.4604  0.0097 -0.5807
  619MOL0     H83560   1.502   4.676   9.785  0.9206  0.9963  2.5630
  619MOL0     H83561   1.757   4.561   9.915  1.3400  0.5266 -1.0466
  619MOL0     H83562   1.676   4.708   9.974  3.4877  0.5381  0.2059
  619MOL0     H83563   1.821   4.897   9.653 -0.7779 -1.7117 -0.7942
  619MOL0     H83564   1.241   4.222   9.726  0.4103  0.1159 -1.3803
  619MOL0     H83565   1.013   4.178   9.793 -2.1548 -0.2282  0.0952
  620MOL0     O83566   7.197   2.129  10.793 -0.1134 -0.1711 -0.2180
  620MOL0     C83567   7.230   2.150  10.910 -0.2317  0.4843  0.2553
  620MOL0     O83568   7.152   2.189  11.018  0.3242 -0.0581  0.4187
  620MOL0     C83569   7.023   2.219  11.005  1.0254  0.3212 -0.3285
  620MOL0     C83570   6.933   2.117  10.968 -1.0446 -1.1616 -0.0065
  620MOL0     C83571   6.797   2.154  10.944  0.3272 -0.0497 -0.4852
  620MOL0     C83572   6.749   2.287  10.964  0.4608  0.4649  0.1949
  620MOL0     O83573   6.618   2.322  10.941  0.1696  0.9521  0.0539
  620MOL0     C83574   6.535   2.236  10.853 -0.1985 -0.6702  0.2163
  620MOL0     C83575   6.394   2.308  10.841 -0.2201  0.8525  0.0930
  620MOL0     C83576   6.283   2.213  10.791 -0.3127  0.7010 -0.1725
  620MOL0     C83577   6.150   2.271  10.746  0.1078 -0.0355 -0.2243
  620MOL0     C83578   6.073   2.163  10.673 -0.3971 -0.4961 -0.7020
  620MOL0     C83579   5.933   2.201  10.633 -0.1887 -0.0201 -0.0327
  620MOL0     C83580   5.850   2.075  10.614  0.2095  0.4683 -0.3527
  620MOL0     C83581   5.698   2.094  10.596  0.2660 -0.3295 -0.6289
  620MOL0     N83582   5.610   1.978  10.602  0.3317  0.5404  0.0235
  620MOL0     C83583   5.564   1.914  10.714  0.4316  0.7909 -0.2796
  620MOL0     C83584   5.491   1.808  10.672  0.2191  0.3457 -0.0766
  620MOL0     C83585   5.415   1.707  10.767  0.1499 -0.5449  0.5549
  620MOL0     C83586   5.266   1.716  10.730 -0.1896 -0.8103  0.3042
  620MOL0     C83587   5.186   1.638  10.840 -0.0533 -0.0781 -0.1101
  620MOL0     C83588   5.036   1.634  10.815 -0.8490 -0.6872 -0.1153
  620MOL0     O83589   5.022   1.563  10.695  0.7487 -0.8206  0.6811
  620MOL0     C83590   4.899   1.520  10.660  0.1207  0.3396  0.0196
  620MOL0     C83591   4.782   1.526  10.736 -0.2743  0.3384 -0.8322
  620MOL0     C83592   4.654   1.491  10.677 -0.0057 -0.6962 -0.3035
  620MOL0     C83593   4.533   1.507  10.759  1.0098 -0.5145  0.1005
  620MOL0     C83594   4.635   1.463  10.539  0.0609  0.4804  0.6351
  620MOL0     C83595   4.504   1.439  10.466 -1.3878 -0.5476  0.0670
  620MOL0     O83596   4.402   1.383  10.539  0.0004 -0.2762 -0.1616
  620MOL0     C83597   4.269   1.393  10.485  0.2430  0.3664  0.5311
  620MOL0     C83598   4.208   1.516  10.479 -0.4438 -0.6601  0.4249
  620MOL0     C83599   4.069   1.535  10.453 -0.4254 -0.5140  0.7252
  620MOL0     C83600   3.990   1.420  10.425  0.0477 -0.2697  0.9138
  620MOL0     O83601   3.857   1.447  10.403 -0.0590  0.0226  0.5607
  620MOL0     C83602   3.761   1.334  10.428 -1.4380 -0.3322  0.2128
  620MOL0     C83603   3.614   1.383  10.419 -0.0196  0.1562 -0.4791
  620MOL0     C83604   3.574   1.436  10.277  0.1170 -0.6105 -0.3674
  620MOL0     C83605   3.430   1.486  10.266 -0.1755  0.5362  0.2871
  620MOL0     C83606   3.356   1.372  10.202  0.5936 -0.3697 -0.1187
  620MOL0     C83607   3.205   1.393  10.165  0.8587  0.1672 -0.5784
  620MOL0     C83608   3.132   1.497  10.247 -0.1723  0.0768  0.5706
  620MOL0     C83609   2.986   1.525  10.196  0.4343 -0.5392 -0.0158
  620MOL0    Cl83610   2.901   1.374  10.155 -0.4981  0.0146  0.3566
  620MOL0     C83611   4.052   1.291  10.442  0.7607 -0.3846  0.5235
  620MOL0     C83612   4.188   1.279  10.477  0.3629  0.1233  0.2621
  620MOL0     O83613   4.504   1.472  10.345 -0.1253  0.5360 -0.0872
  620MOL0     C83614   4.756   1.457  10.470  0.0968 -0.1143  0.1073
  620MOL0     C83615   4.878   1.488  10.525  0.3364  0.4540 -0.3127
  620MOL0     N83616   5.485   1.815  10.537  0.2029  0.2652  0.3403
  620MOL0     N83617   5.547   1.925  10.502  0.2377  0.0113 -0.1487
  620MOL0     C83618   6.843   2.379  11.009  0.1250 -0.5672  0.3671
  620MOL0     C83619   6.973   2.347  11.035  0.7926 -0.1182  0.1633
  620MOL0     C83620   7.378   2.137  10.938 -0.2282  0.0837 -0.3228
  620MOL0     C83621   7.419   2.132  11.068  0.0958  0.2667  1.1688
  620MOL0     C83622   7.555   2.140  11.101 -0.1513  0.6888 -0.2351
  620MOL0     C83623   7.651   2.152  10.998 -0.0536 -0.2077  0.1783
  620MOL0     O83624   7.787   2.166  11.026  0.5503 -0.0645  0.5553
  620MOL0     C83625   7.817   2.186  11.161  0.0761 -0.5051  0.0521
  620MOL0     C83626   7.849   2.049  11.226  0.6270 -0.2790  0.1149
  620MOL0     C83627   7.910   2.051  11.365 -1.1897 -0.2904  0.8242
  620MOL0     C83628   7.952   1.920  11.413  0.0094  0.7912 -0.0649
  620MOL0     C83629   8.068   1.856  11.342 -0.2252 -0.0600 -0.4032
  620MOL0     C83630   8.175   1.810  11.303  0.3457 -0.4504  0.2465
  620MOL0     C83631   7.604   2.145  10.861 -0.2022 -0.2420 -0.4583
  620MOL0     C83632   7.465   2.142  10.839 -0.3152  0.0897 -0.0320
  620MOL0     H83633   6.974   2.020  10.941 -1.9812 -1.0619 -1.9313
  620MOL0     H83634   6.736   2.081  10.892 -1.3738  0.5252  0.6251
  620MOL0     H83635   6.573   2.243  10.750 -1.6402 -2.5985 -0.4928
  620MOL0     H83636   6.524   2.137  10.897  2.8608 -1.6097 -0.8762
  620MOL0     H83637   6.359   2.343  10.939 -1.4634  0.0624 -0.0327
  620MOL0     H83638   6.409   2.390  10.770 -0.4130 -0.3126 -1.3372
  620MOL0     H83639   6.325   2.153  10.710 -0.8728 -1.2136  0.9120
  620MOL0     H83640   6.265   2.137  10.866 -2.0362  0.0891 -1.1493
  620MOL0     H83641   6.097   2.309  10.834  0.3028 -1.4344  0.5140
  620MOL0     H83642   6.164   2.360  10.684 -3.3356  0.2583 -0.7427
  620MOL0     H83643   6.136   2.137  10.587 -1.8220  1.4059 -2.4179
  620MOL0     H83644   6.060   2.077  10.740 -2.1561  0.7701  0.6784
  620MOL0     H83645   5.876   2.254  10.710 -0.8147  1.2064 -1.2872
  620MOL0     H83646   5.938   2.271  10.549  0.2503  0.7019  0.5769
  620MOL0     H83647   5.890   2.021  10.528 -1.2380  2.8793 -2.6707
  620MOL0     H83648   5.856   2.012  10.703  0.6329  1.8678  0.6415
  620MOL0     H83649   5.685   2.133  10.495  0.9812 -1.1952 -1.0635
  620MOL0     H83650   5.661   2.170  10.666  0.7313  0.1355 -0.8745
  620MOL0     H83651   5.589   1.928  10.819 -0.2170  0.7724 -0.1174
  620MOL0     H83652   5.454   1.607  10.744  2.2226  1.0019 -3.6281
  620MOL0     H83653   5.424   1.731  10.873  0.3517  1.0315  0.2018
  620MOL0     H83654   5.256   1.674  10.630  0.0694  2.1893 -1.1056
  620MOL0     H83655   5.223   1.817  10.731 -3.4604 -2.0895  1.5250
  620MOL0     H83656   5.196   1.693  10.935 -1.5378  1.4547 -0.7818
  620MOL0     H83657   5.233   1.540  10.838 -1.6190 -0.9859 -4.5984
  620MOL0     H83658   5.003   1.737  10.801  0.0597  0.1889  3.2586
  620MOL0     H83659   4.982   1.596  10.902 -1.8372  1.7914  0.4177
  620MOL0     H83660   4.777   1.557  10.840  0.7425  0.3388 -0.7737
  620MOL0     H83661   4.546   1.550  10.859  2.2927 -1.4079  0.3417
  620MOL0     H83662   4.479   1.583  10.701  3.0025  0.2200 -0.8894
  620MOL0     H83663   4.476   1.414  10.767  4.3594 -2.6170  1.6228
  620MOL0     H83664   4.268   1.602  10.509 -0.2452 -0.1795 -1.2562
  620MOL0     H83665   4.025   1.634  10.440 -0.6163 -0.8951 -2.1418
  620MOL0     H83666   3.790   1.245  10.371  1.2815  0.4487  0.2160
  620MOL0     H83667   3.775   1.301  10.531  2.7497 -0.5047 -0.2347
  620MOL0     H83668   3.542   1.303  10.439  1.0305 -0.5320  0.6907
  620MOL0     H83669   3.595   1.462  10.492  0.4347  0.9230 -1.1742
  620MOL0     H83670   3.594   1.365  10.196 -0.2631 -1.7310  0.4907
  620MOL0     H83671   3.639   1.523  10.262 -0.2995  0.6609  3.7388
  620MOL0     H83672   3.405   1.528  10.363  2.5504 -0.4956  1.5565
  620MOL0     H83673   3.418   1.564  10.191  0.7426  0.3856 -0.0327
  620MOL0     H83674   3.350   1.290  10.275  2.4039  1.0201  1.6997
  620MOL0     H83675   3.407   1.336  10.112  2.7330  2.4768 -0.1683
  620MOL0     H83676   3.190   1.429  10.062 -1.4171 -0.3984 -0.4995
  620MOL0     H83677   3.160   1.294  10.174  2.5476 -0.5442  0.5492
  620MOL0     H83678   3.180   1.595  10.240  0.5906 -0.4059 -3.6522
  620MOL0     H83679   3.133   1.452  10.347  0.5754  0.3151  0.6775
  620MOL0     H83680   2.985   1.586  10.106 -3.2101  1.0923  0.9632
  620MOL0     H83681   2.925   1.581  10.268 -1.8719 -0.1144 -2.1537
  620MOL0     H83682   3.999   1.196  10.438  3.4730 -1.9814  0.5231
  620MOL0     H83683   4.224   1.179  10.498 -1.7275 -1.1559 -1.8092
  620MOL0     H83684   4.758   1.439  10.363  0.7433 -0.1784  0.1240
  620MOL0     H83685   4.962   1.495  10.456 -1.3031  0.6026 -2.4034
  620MOL0     H83686   6.814   2.482  11.028  0.4726 -0.2757 -0.6130
  620MOL0     H83687   7.038   2.420  11.081 -1.5114  0.7192  2.2798
  620MOL0     H83688   7.343   2.144  11.144  0.3925  1.6248  1.2801
  620MOL0     H83689   7.579   2.152  11.206 -1.5476  1.6261  0.0029
  620MOL0     H83690   7.907   2.248  11.157 -1.9823  2.7851  0.9443
  620MOL0     H83691   7.754   2.257  11.216  0.0529  0.7634 -1.5301
  620MOL0     H83692   7.916   1.993  11.160  1.9666  0.5985  0.6913
  620MOL0     H83693   7.754   1.995  11.224 -0.4264  1.5111  0.3314
  620MOL0     H83694   7.850   2.094  11.446  0.8649  0.2738  2.1251
  620MOL0     H83695   7.995   2.120  11.372 -0.9934 -0.6047  1.7251
  620MOL0     H83696   7.867   1.851  11.419  0.3735  0.4759  2.8924
  620MOL0     H83697   7.972   1.928  11.520  0.3218 -0.4542 -0.0214
  620MOL0     H83698   8.265   1.779  11.255 -0.2096  0.2045 -1.2873
  620MOL0     H83699   7.679   2.153  10.783  0.5306  1.7306  0.3784
  620MOL0     H83700   7.441   2.161  10.735  3.8717  1.4266 -0.9442
  621MOL0     O83701   3.810   6.138   3.363 -0.3201  0.1239  0.1486
  621MOL0     C83702   3.856   6.211   3.456 -0.8119  0.3113 -0.2518
  621MOL0     O83703   3.787   6.308   3.523 -0.0751 -0.4691 -0.4064
  621MOL0     C83704   3.653   6.320   3.475 -0.9168 -0.5924 -0.1681
  621MOL0     C83705   3.637   6.404   3.373 -0.3625 -0.6081  0.1405
  621MOL0     C83706   3.508   6.442   3.330  0.5640  0.0276  0.3043
  621MOL0     C83707   3.395   6.378   3.386 -0.2712  0.6450 -0.0631
  621MOL0     O83708   3.275   6.431   3.334 -0.5307 -0.3797  0.3254
  621MOL0     C83709   3.150   6.371   3.355 -0.0345 -0.1685 -0.4579
  621MOL0     C83710   3.111   6.268   3.244 -0.5454 -0.1824 -0.5496
  621MOL0     C83711   3.015   6.165   3.313  0.0702 -0.2981  0.3575
  621MOL0     C83712   2.928   6.112   3.203  0.7155  0.5393 -0.7328
  621MOL0     C83713   2.812   6.023   3.258  0.6278  0.1808 -0.3595
  621MOL0     C83714   2.723   5.971   3.149  0.2612 -0.0876  0.6043
  621MOL0     C83715   2.583   5.908   3.193  0.0556  0.1787  0.1526
  621MOL0     C83716   2.596   5.773   3.277  0.2890 -0.3658 -0.1840
  621MOL0     N83717   2.473   5.690   3.268 -0.3195  0.2498 -0.7325
  621MOL0     C83718   2.340   5.723   3.288 -0.2767  0.5455 -0.2922
  621MOL0     C83719   2.272   5.608   3.281  0.6243 -0.0086  0.4347
  621MOL0     C83720   2.127   5.584   3.304  0.1795 -0.4571 -0.8778
  621MOL0     C83721   2.049   5.594   3.173  0.4853 -0.1117 -0.5915
  621MOL0     C83722   1.897   5.574   3.204 -0.1793  1.2418  0.5649
  621MOL0     C83723   1.827   5.690   3.281  0.7473  0.0919  0.4271
  621MOL0     O83724   1.689   5.672   3.242 -0.7231 -0.8092  0.3255
  621MOL0     C83725   1.586   5.723   3.304  0.5400  0.1075  0.5623
  621MOL0     C83726   1.602   5.789   3.423 -0.1561  0.4433  0.3858
  621MOL0     C83727   1.501   5.831   3.501 -0.1323 -0.3379  0.6743
  621MOL0     C83728   1.540   5.880   3.634  0.0428 -0.0399  0.3034
  621MOL0     C83729   1.369   5.804   3.458  0.4724  0.5778 -0.2115
  621MOL0     C83730   1.243   5.842   3.531 -0.0197  0.2580  0.1241
  621MOL0     O83731   1.124   5.826   3.468  0.1013 -0.1959 -0.0024
  621MOL0     C83732   1.015   5.855   3.547  0.0637 -1.1013  0.8113
  621MOL0     C83733   0.941   5.765   3.614  0.6399 -0.3855  0.2221
  621MOL0     C83734   0.832   5.802   3.693 -0.2535  0.1204  0.0098
  621MOL0     C83735   0.788   5.932   3.689  0.1490  0.2189 -0.5070
  621MOL0     O83736   0.677   5.983   3.744 -0.2091 -0.4088 -0.5902
  621MOL0     C83737   0.592   5.898   3.824 -0.1334  0.0852  0.2134
  621MOL0     C83738   0.495   5.999   3.894 -0.2245  0.1451 -0.6473
  621MOL0     C83739   0.369   5.934   3.958  0.0559  0.4631  0.3573
  621MOL0     C83740   0.290   6.028   4.051  0.7065 -0.0133 -0.4656
  621MOL0     C83741   0.170   5.959   4.116 -0.5342 -0.2382 -0.4768
  621MOL0     C83742   0.087   6.046   4.225  0.0116  0.8250  0.4124
  621MOL0     C83743  -0.024   5.961   4.276  0.4693 -0.3524  0.3860
  621MOL0     C83744  -0.136   5.924   4.174  0.1277  0.7820  0.1093
  621MOL0    Cl83745  -0.245   5.837   4.272  0.1016 -0.2016  0.1940
  621MOL0     C83746   0.855   6.030   3.610  0.1641  0.7002 -0.2099
  621MOL0     C83747   0.966   5.994   3.540 -0.5530  0.4161  0.9319
  621MOL0     O83748   1.252   5.898   3.638 -0.3440 -0.3806  0.2234
  621MOL0     C83749   1.353   5.742   3.332 -0.7833 -0.4093  0.2956
  621MOL0     C83750   1.460   5.700   3.259 -0.0220  0.5993 -0.2170
  621MOL0     N83751   2.357   5.521   3.222 -1.2554 -0.0449  0.1988
  621MOL0     N83752   2.472   5.570   3.205 -0.6034 -0.1192 -1.2790
  621MOL0     C83753   3.410   6.304   3.503 -0.0619  0.6489  0.6525
  621MOL0     C83754   3.544   6.270   3.544  0.3155 -0.0221 -0.5545
  621MOL0     C83755   3.996   6.180   3.506  0.4023  0.4637  0.5355
  621MOL0     C83756   4.047   6.241   3.622  0.2040 -0.4740  0.2051
  621MOL0     C83757   4.179   6.216   3.658  0.4875  0.0394  0.3950
  621MOL0     C83758   4.262   6.125   3.595  1.2116 -0.4687 -0.2405
  621MOL0     O83759   4.385   6.107   3.644 -0.1694 -0.4905  0.1392
  621MOL0     C83760   4.484   6.036   3.563  0.0309 -0.4648 -0.1323
  621MOL0     C83761   4.619   6.057   3.627 -0.4604 -0.1712  0.2458
  621MOL0     C83762   4.635   5.985   3.764  0.2069 -0.1385 -0.4024
  621MOL0     C83763   4.781   5.982   3.802  0.0301 -0.1235  0.1507
  621MOL0     C83764   4.808   5.873   3.897 -0.0305 -0.6156 -1.0819
  621MOL0     C83765   4.858   5.782   3.956  0.4734 -0.1399  0.3687
  621MOL0     C83766   4.210   6.064   3.476  0.6653 -0.0722 -0.5157
  621MOL0     C83767   4.085   6.097   3.428 -0.0793  0.3109  0.4260
  621MOL0     H83768   3.723   6.443   3.321 -2.3996  1.5699 -1.8198
  621MOL0     H83769   3.487   6.514   3.252 -1.5525 -2.0381 -1.1546
  621MOL0     H83770   3.146   6.320   3.452 -0.3464 -0.6967 -0.7407
  621MOL0     H83771   3.082   6.455   3.370  1.3699  0.7823  0.9004
  621MOL0     H83772   3.060   6.331   3.170 -0.2690  0.5090 -0.1527
  621MOL0     H83773   3.196   6.220   3.195  0.9838  1.6391  0.2145
  621MOL0     H83774   3.071   6.092   3.373  4.0198  1.5551 -0.7583
  621MOL0     H83775   2.949   6.221   3.381  2.1755  0.6349  1.7190
  621MOL0     H83776   2.877   6.195   3.153  1.5846  0.1830 -2.2997
  621MOL0     H83777   2.993   6.054   3.137  2.0406 -0.9176  1.7122
  621MOL0     H83778   2.858   5.936   3.307 -0.3693 -0.0758  0.1662
  621MOL0     H83779   2.771   6.090   3.334  1.9860 -0.8800  1.3930
  621MOL0     H83780   2.705   6.055   3.082 -1.2826 -0.7128  0.1881
  621MOL0     H83781   2.781   5.905   3.085  1.1902  1.0706  0.2335
  621MOL0     H83782   2.517   5.981   3.241  1.6979  2.3772 -0.7751
  621MOL0     H83783   2.528   5.883   3.102  1.9142 -1.3591 -0.6182
  621MOL0     H83784   2.616   5.804   3.380  1.6429  0.2514 -0.6134
  621MOL0     H83785   2.687   5.726   3.238  1.0278  0.0850  0.9637
  621MOL0     H83786   2.295   5.819   3.312  1.0328  1.8829 -2.8184
  621MOL0     H83787   2.124   5.485   3.350  1.6713  0.1343  0.6141
  621MOL0     H83788   2.101   5.655   3.384  1.2917 -1.4103  0.3833
  621MOL0     H83789   2.096   5.520   3.108  0.5788 -0.2105 -0.4150
  621MOL0     H83790   2.062   5.696   3.138 -0.8412  1.0687  2.0698
  621MOL0     H83791   1.884   5.483   3.263  0.2950  1.6773  1.3468
  621MOL0     H83792   1.845   5.557   3.109 -0.4843 -0.0970  0.9466
  621MOL0     H83793   1.861   5.792   3.258 -4.1642  1.6546 -1.1934
  621MOL0     H83794   1.836   5.677   3.389 -0.8391 -1.2836  0.4328
  621MOL0     H83795   1.704   5.802   3.459  0.9385 -2.3281 -1.3667
  621MOL0     H83796   1.539   5.989   3.635 -2.4214  0.0986 -2.4345
  621MOL0     H83797   1.474   5.844   3.713  1.1251 -1.8277  0.4530
  621MOL0     H83798   1.642   5.843   3.652  0.2995 -0.0322 -1.0218
  621MOL0     H83799   0.986   5.666   3.621  0.0921 -0.7118 -0.6660
  621MOL0     H83800   0.768   5.728   3.740 -0.0465  0.9105  1.6283
  621MOL0     H83801   0.531   5.837   3.756 -0.6960  3.1180 -2.2693
  621MOL0     H83802   0.634   5.826   3.895  0.9233 -1.9628 -2.3040
  621MOL0     H83803   0.555   6.045   3.972 -4.0208  1.5129  1.7599
  621MOL0     H83804   0.461   6.078   3.825  1.4020  2.2440  0.8344
  621MOL0     H83805   0.409   5.851   4.016  0.9169  1.1150  0.7127
  621MOL0     H83806   0.299   5.896   3.883 -0.5849  2.9589 -0.4123
  621MOL0     H83807   0.356   6.070   4.127 -1.0366  0.9078  0.6014
  621MOL0     H83808   0.253   6.108   3.986 -0.2809 -0.5080 -0.5329
  621MOL0     H83809   0.194   5.864   4.164 -2.0504 -0.7558 -0.7060
  621MOL0     H83810   0.110   5.929   4.030  2.0110 -2.0306 -1.7765
  621MOL0     H83811   0.149   6.085   4.305  1.0929 -0.1125  0.0669
  621MOL0     H83812   0.038   6.130   4.175 -0.9782 -1.0745 -2.0686
  621MOL0     H83813  -0.065   6.009   4.365  2.7646 -0.4081  1.5400
  621MOL0     H83814   0.015   5.866   4.314 -0.3947 -0.1990  1.7309
  621MOL0     H83815  -0.103   5.858   4.093 -1.1236 -1.4373  1.3081
  621MOL0     H83816  -0.166   6.021   4.135  0.6785  0.3893 -1.3750
  621MOL0     H83817   0.822   6.133   3.616  0.2731  0.7381 -0.2582
  621MOL0     H83818   1.025   6.066   3.483  0.8611 -2.1221 -1.0688
  621MOL0     H83819   1.255   5.731   3.287 -0.5567 -1.7857  0.0701
  621MOL0     H83820   1.434   5.650   3.166  1.2135  1.6107 -1.1473
  621MOL0     H83821   3.328   6.270   3.566  0.5881 -0.1075  1.1164
  621MOL0     H83822   3.568   6.222   3.638 -0.4961 -2.2966 -1.4314
  621MOL0     H83823   3.974   6.302   3.675  0.6131 -0.0327  0.2613
  621MOL0     H83824   4.219   6.264   3.747 -1.2667  0.8629  0.7895
  621MOL0     H83825   4.470   5.928   3.549 -1.4616 -0.0629 -2.3474
  621MOL0     H83826   4.484   6.081   3.463 -0.1939 -2.1654 -0.9460
  621MOL0     H83827   4.635   6.165   3.636  0.5317 -0.4261  2.0735
  621MOL0     H83828   4.688   6.017   3.552 -1.1246 -0.0953 -0.4156
  621MOL0     H83829   4.594   5.885   3.748 -1.9777  0.6302  0.0399
  621MOL0     H83830   4.588   6.030   3.852  0.3432 -2.4030  0.9240
  621MOL0     H83831   4.794   6.080   3.850 -0.7455  0.7068 -1.2271
  621MOL0     H83832   4.848   5.969   3.717 -0.7155  0.6679 -0.5927
  621MOL0     H83833   4.917   5.702   3.997  2.6226  0.6362 -1.0186
  621MOL0     H83834   4.265   5.985   3.424  1.7643  0.8770 -0.8468
  621MOL0     H83835   4.050   6.056   3.333  0.4166 -0.0478  0.3957
  622MOL0     O83836   3.204   9.661   2.716  0.3561 -0.1900  0.3602
  622MOL0     C83837   3.252   9.617   2.614  0.5308  0.8265 -0.1998
  622MOL0     O83838   3.182   9.604   2.494 -0.2197 -0.4014  0.3414
  622MOL0     C83839   3.055   9.654   2.468 -0.5103 -0.7007 -0.4423
  622MOL0     C83840   3.033   9.784   2.488  0.2450 -0.1753 -0.4015
  622MOL0     C83841   2.904   9.837   2.457 -0.1420  0.1930 -0.3963
  622MOL0     C83842   2.807   9.766   2.399  0.4757  0.2170  0.5799
  622MOL0     O83843   2.685   9.833   2.375  0.0873 -0.0074  0.1128
  622MOL0     C83844   2.559   9.755   2.372  0.0848  0.4190 -0.4144
  622MOL0     C83845   2.443   9.834   2.315 -0.5769  0.2793 -0.1968
  622MOL0     C83846   2.321   9.758   2.265 -0.6187 -0.3621  0.3098
  622MOL0     C83847   2.217   9.865   2.211 -0.4988 -0.7210 -0.3497
  622MOL0     C83848   2.109   9.794   2.117 -0.5276 -0.3367 -0.0269
  622MOL0     C83849   1.983   9.881   2.110  0.1964  0.0282  0.1694
  622MOL0     C83850   1.849   9.795   2.113  0.1997  0.2535  0.2793
  622MOL0     C83851   1.849   9.694   2.223  1.0485 -0.7167 -0.8886
  622MOL0     N83852   1.896   9.748   2.349 -0.4290 -0.6629  0.7395
  622MOL0     C83853   1.841   9.847   2.428  0.0451  0.0743 -0.6060
  622MOL0     C83854   1.889   9.826   2.555 -0.2552  0.6518 -0.1126
  622MOL0     C83855   1.842   9.876   2.683  0.6416  0.0743 -0.2993
  622MOL0     C83856   1.767   9.770   2.771 -0.1864  0.6669 -0.6340
  622MOL0     C83857   1.626   9.745   2.725 -0.4627  0.8510 -0.2145
  622MOL0     C83858   1.548   9.653   2.813  0.5129 -0.9006 -0.3974
  622MOL0     O83859   1.428   9.625   2.738 -0.0773  0.1604 -0.4851
  622MOL0     C83860   1.319   9.579   2.813  0.4927 -0.5376  0.3645
  622MOL0     C83861   1.329   9.530   2.947  0.0804 -0.4235 -0.1118
  622MOL0     C83862   1.213   9.521   3.024 -0.2797  1.0606 -0.3203
  622MOL0     C83863   1.240   9.458   3.157 -0.2476  1.3726 -0.0597
  622MOL0     C83864   1.087   9.552   2.975 -0.2609 -0.5506  0.4330
  622MOL0     C83865   0.961   9.549   3.049  0.1600 -0.3008  0.4421
  622MOL0     O83866   0.853   9.523   2.969 -0.3182 -0.1584  0.7607
  622MOL0     C83867   0.717   9.538   3.015  0.1869 -0.5018 -0.4527
  622MOL0     C83868   0.683   9.642   3.094 -0.3886 -0.2734 -0.5883
  622MOL0     C83869   0.555   9.664   3.128  0.8570 -0.4839 -0.2833
  622MOL0     C83870   0.453   9.578   3.085 -0.3703 -1.0042  0.1061
  622MOL0     O83871   0.322   9.603   3.112 -0.3723 -0.0411  0.3348
  622MOL0     C83872   0.275   9.591   3.245  0.2957  0.0061 -0.1341
  622MOL0     C83873   0.153   9.674   3.257  0.0874 -0.1687  0.7915
  622MOL0     C83874   0.079   9.637   3.378  0.1007 -0.3057 -0.3318
  622MOL0     C83875  -0.061   9.688   3.368  0.4064 -0.7824  0.1695
  622MOL0     C83876  -0.160   9.640   3.478  0.0203  0.5506 -0.3739
  622MOL0     C83877  -0.165   9.490   3.493 -0.6041 -0.0191 -0.7522
  622MOL0     C83878  -0.274   9.461   3.596 -0.6605  0.0144 -0.4261
  622MOL0     C83879  -0.308   9.310   3.617 -0.0253  1.0289 -1.0296
  622MOL0    Cl83880  -0.170   9.216   3.676  0.2292 -0.1089 -0.4049
  622MOL0     C83881   0.490   9.468   2.997 -0.1415 -0.1119 -0.3202
  622MOL0     C83882   0.623   9.456   2.963  0.2138 -0.8134 -0.2123
  622MOL0     O83883   0.956   9.571   3.169 -0.1022 -0.0370  0.7046
  622MOL0     C83884   1.079   9.585   2.837  0.4234  0.0387 -1.2390
  622MOL0     C83885   1.192   9.604   2.765 -0.0709  0.2789  0.8093
  622MOL0     N83886   1.968   9.708   2.549  0.3331 -0.6047  0.3096
  622MOL0     N83887   1.970   9.662   2.425  1.1860  0.0773 -0.0023
  622MOL0     C83888   2.829   9.628   2.370  0.1640  0.7753  0.3341
  622MOL0     C83889   2.962   9.579   2.400 -0.6783 -0.8506 -0.1447
  622MOL0     C83890   3.394   9.568   2.604 -0.3068  0.3520 -0.0484
  622MOL0     C83891   3.474   9.589   2.719  0.3080 -0.6139  0.5586
  622MOL0     C83892   3.610   9.564   2.722  0.7017 -0.0977 -0.2476
  622MOL0     C83893   3.677   9.527   2.605  0.5869 -0.4383 -0.1423
  622MOL0     O83894   3.813   9.523   2.593  0.7675 -0.4372  0.8356
  622MOL0     C83895   3.885   9.528   2.718 -0.7975 -0.7596 -0.2213
  622MOL0     C83896   4.032   9.501   2.696  0.1641  1.3506  0.7114
  622MOL0     C83897   4.038   9.345   2.723 -0.2775  0.3013 -0.2233
  622MOL0     C83898   4.040   9.301   2.872  0.6243 -0.6086 -0.5691
  622MOL0     C83899   4.026   9.156   2.891 -0.4900 -0.3940  0.2144
  622MOL0     C83900   3.994   9.042   2.912 -0.4747 -0.0473  0.1016
  622MOL0     C83901   3.598   9.509   2.488  0.0349 -0.4859 -0.0451
  622MOL0     C83902   3.463   9.537   2.490 -0.2513  0.1396 -0.6543
  622MOL0     H83903   3.105   9.858   2.522  1.0592 -1.2651  0.2863
  622MOL0     H83904   2.886   9.943   2.474 -3.3167 -0.3306  0.0746
  622MOL0     H83905   2.582   9.672   2.304  1.9145 -1.1492  1.9735
  622MOL0     H83906   2.541   9.718   2.473  4.7054  4.4594  2.3066
  622MOL0     H83907   2.416   9.905   2.394 -0.5241 -0.7599  0.7669
  622MOL0     H83908   2.480   9.890   2.228  1.9537 -1.6047 -0.4368
  622MOL0     H83909   2.354   9.700   2.178  2.9224 -0.0968  1.3227
  622MOL0     H83910   2.275   9.683   2.331 -2.5986  0.5288  0.0254
  622MOL0     H83911   2.175   9.904   2.304  4.1697  0.8372  1.4019
  622MOL0     H83912   2.269   9.949   2.164 -2.2717  0.3825 -0.4223
  622MOL0     H83913   2.149   9.779   2.016 -0.2644  0.5465 -0.0632
  622MOL0     H83914   2.088   9.699   2.167 -1.0866  0.9146  2.2814
  622MOL0     H83915   1.982   9.956   2.189  0.5845  1.5212 -1.1998
  622MOL0     H83916   1.968   9.931   2.014  0.6306 -1.0877 -0.4959
  622MOL0     H83917   1.765   9.864   2.124  0.7933  0.9971  0.2493
  622MOL0     H83918   1.831   9.738   2.021  4.1549 -1.9717  0.6592
  622MOL0     H83919   1.903   9.604   2.192  0.4079 -1.1405 -0.7803
  622MOL0     H83920   1.747   9.667   2.249  1.4835  0.4394  2.6022
  622MOL0     H83921   1.764   9.919   2.403  1.1697  1.1955 -0.9895
  622MOL0     H83922   1.931   9.913   2.734 -0.0857  1.2272  0.2004
  622MOL0     H83923   1.786   9.967   2.658  2.3024  0.9013 -1.1307
  622MOL0     H83924   1.763   9.819   2.869  0.1259 -1.0138  0.2480
  622MOL0     H83925   1.818   9.674   2.779 -0.3948  0.6928  1.7954
  622MOL0     H83926   1.625   9.711   2.621  4.4038  2.8582 -1.1834
  622MOL0     H83927   1.564   9.835   2.730 -1.2149  0.2795  1.6112
  622MOL0     H83928   1.535   9.708   2.906  1.6832  2.6848 -2.1752
  622MOL0     H83929   1.609   9.566   2.839 -0.4773 -1.2271  0.9217
  622MOL0     H83930   1.421   9.513   3.002 -0.1432 -2.3136 -0.2747
  622MOL0     H83931   1.336   9.407   3.169 -0.5341  0.9915  0.6736
  622MOL0     H83932   1.238   9.534   3.236 -1.3263  2.0415 -0.6985
  622MOL0     H83933   1.160   9.387   3.182  0.5720  0.3537 -0.2619
  622MOL0     H83934   0.757   9.718   3.116 -0.2759 -0.3062 -0.8425
  622MOL0     H83935   0.538   9.752   3.189  0.6215 -0.2654 -0.6613
  622MOL0     H83936   0.261   9.488   3.278  0.2418 -0.6068 -1.9480
  622MOL0     H83937   0.355   9.629   3.309  0.3233  0.8465 -0.6541
  622MOL0     H83938   0.175   9.780   3.243 -0.2396 -0.4098 -2.2456
  622MOL0     H83939   0.087   9.652   3.172 -0.8791  2.5179  0.7684
  622MOL0     H83940   0.124   9.673   3.471 -0.0464 -0.8231 -0.0561
  622MOL0     H83941   0.090   9.529   3.396  1.6079 -0.2689 -0.8147
  622MOL0     H83942  -0.051   9.797   3.377  0.8816 -0.7521 -0.6038
  622MOL0     H83943  -0.113   9.668   3.274 -0.7932  1.4573  0.3001
  622MOL0     H83944  -0.261   9.677   3.457 -0.6410 -1.0027 -0.0066
  622MOL0     H83945  -0.129   9.689   3.570 -3.0029  1.9931  0.0070
  622MOL0     H83946  -0.201   9.451   3.397 -0.0134 -0.0535 -0.9633
  622MOL0     H83947  -0.066   9.451   3.519 -0.1874  1.5303  0.1057
  622MOL0     H83948  -0.367   9.507   3.561 -0.3147  1.6452  0.6397
  622MOL0     H83949  -0.240   9.506   3.690 -2.3683  2.6210 -0.9456
  622MOL0     H83950  -0.344   9.260   3.527 -0.9027 -1.3783  0.5429
  622MOL0     H83951  -0.391   9.294   3.687 -0.2183 -2.3465 -1.8605
  622MOL0     H83952   0.404   9.419   2.951 -0.8072  2.9060 -2.6412
  622MOL0     H83953   0.641   9.379   2.888 -2.9478 -0.0692 -1.8782
  622MOL0     H83954   0.985   9.606   2.788  0.3703 -1.2582 -1.7382
  622MOL0     H83955   1.195   9.642   2.663  1.3079 -0.6011  0.4958
  622MOL0     H83956   2.756   9.560   2.329  0.0714  1.3038 -0.3989
  622MOL0     H83957   2.966   9.472   2.384  1.4381 -0.7288 -0.7907
  622MOL0     H83958   3.427   9.623   2.810 -2.7196  0.3645 -1.2521
  622MOL0     H83959   3.661   9.588   2.815  1.4317 -1.4315 -0.2785
  622MOL0     H83960   3.890   9.630   2.757  1.0562 -0.8876 -0.0691
  622MOL0     H83961   3.837   9.466   2.794 -3.1327  4.0094  2.7376
  622MOL0     H83962   4.097   9.554   2.766  1.0598  0.7230  0.3852
  622MOL0     H83963   4.063   9.524   2.594  1.5591 -1.2786  0.4238
  622MOL0     H83964   4.126   9.302   2.675 -0.5050 -1.4129  0.8127
  622MOL0     H83965   3.950   9.299   2.678 -1.5472 -0.7760  3.0344
  622MOL0     H83966   3.962   9.358   2.925  0.5858  1.4627 -2.6867
  622MOL0     H83967   4.134   9.328   2.922 -1.8820  1.4789  3.5898
  622MOL0     H83968   3.959   8.941   2.919  1.2659 -0.6423  0.6037
  622MOL0     H83969   3.648   9.469   2.401 -0.1451 -2.5106  0.7132
  622MOL0     H83970   3.403   9.539   2.399 -1.0723 -2.1139 -0.2337
  623MOL0     O83971   1.196   0.437   1.812 -0.0517  0.6546 -0.5457
  623MOL0     C83972   1.246   0.522   1.743  0.0182  0.4653 -0.0137
  623MOL0     O83973   1.185   0.632   1.700 -0.1724 -0.4730  0.3687
  623MOL0     C83974   1.051   0.645   1.709  0.3349  1.0073 -0.3367
  623MOL0     C83975   0.952   0.544   1.746  0.2809  0.0776 -0.4514
  623MOL0     C83976   0.816   0.573   1.742  0.8429 -0.2993  1.0167
  623MOL0     C83977   0.764   0.700   1.705 -1.2983  0.2519 -0.3081
  623MOL0     O83978   0.631   0.718   1.716  0.0627  0.6521 -0.2070
  623MOL0     C83979   0.590   0.855   1.701 -0.0781  0.6971 -0.4180
  623MOL0     C83980   0.437   0.879   1.715 -0.6625  0.4917 -0.0443
  623MOL0     C83981   0.349   0.795   1.628  0.1045  0.6547  0.6592
  623MOL0     C83982   0.202   0.810   1.674  0.6846 -0.4905 -0.8464
  623MOL0     C83983   0.123   0.678   1.660 -0.2657  0.2339  0.5061
  623MOL0     C83984   0.115   0.617   1.510 -0.0483  0.2899  0.0473
  623MOL0     C83985   0.023   0.494   1.507 -0.8439  0.4920  0.3030
  623MOL0     C83986   0.033   0.409   1.380  0.4672 -0.6742 -0.0072
  623MOL0     N83987   0.013   0.492   1.257  0.3633  0.1562 -0.3103
  623MOL0     C83988  -0.105   0.563   1.227 -0.0496  0.1002 -0.3532
  623MOL0     C83989  -0.080   0.624   1.110  0.1856 -0.6816  0.7849
  623MOL0     C83990  -0.161   0.731   1.046  0.3580  0.1912  1.3887
  623MOL0     C83991  -0.131   0.756   0.895 -0.0878  0.0158  0.1906
  623MOL0     C83992  -0.185   0.882   0.843  0.3505 -0.4327 -0.2682
  623MOL0     C83993  -0.335   0.895   0.865 -0.3583  0.9896  0.2237
  623MOL0     O83994  -0.385   1.014   0.793  0.1170  0.9601 -0.4058
  623MOL0     C83995  -0.520   1.041   0.814  0.8213  0.3104 -0.1723
  623MOL0     C83996  -0.560   1.163   0.862 -1.0724  0.2790 -0.1315
  623MOL0     C83997  -0.689   1.187   0.905 -0.1900 -0.0106 -0.3480
  623MOL0     C83998  -0.704   1.315   0.987 -0.5501  0.0810  1.3767
  623MOL0     C83999  -0.793   1.099   0.860 -0.6594 -0.2306  1.0052
  623MOL0     C84000  -0.940   1.119   0.881  0.2208  0.1545 -0.1509
  623MOL0     O84001  -0.971   1.228   0.952 -1.1369  0.0635  0.7185
  623MOL0     C84002  -1.097   1.273   0.966 -0.4015 -0.1611  1.1407
  623MOL0     C84003  -1.159   1.351   0.864 -0.5247 -0.6356 -1.1048
  623MOL0     C84004  -1.291   1.396   0.882  0.3416  0.7139 -0.1026
  623MOL0     C84005  -1.372   1.348   0.993 -0.2892 -0.2268  0.3049
  623MOL0     O84006  -1.497   1.390   1.030 -0.1885 -0.4014 -0.0489
  623MOL0     C84007  -1.604   1.294   1.026  0.1131 -0.2085  0.0216
  623MOL0     C84008  -1.611   1.211   0.895  0.2981 -0.3885  0.8533
  623MOL0     C84009  -1.645   1.289   0.769  0.6572 -0.5875 -0.7364
  623MOL0     C84010  -1.730   1.200   0.677 -0.0459  0.3640  0.1583
  623MOL0     C84011  -1.762   1.288   0.556 -1.2128  0.3671 -0.5144
  623MOL0     C84012  -1.847   1.216   0.454  0.0938 -0.1100 -0.2837
  623MOL0     C84013  -1.980   1.157   0.513  0.0218  0.1774 -0.1356
  623MOL0     C84014  -2.093   1.122   0.406 -0.2945 -0.7763 -0.6761
  623MOL0    Cl84015  -2.236   1.041   0.486  0.0087  0.2112  0.0153
  623MOL0     C84016  -1.309   1.265   1.086 -0.0587 -0.4435 -0.0740
  623MOL0     C84017  -1.171   1.235   1.076  0.6008  0.9578  0.0453
  623MOL0     O84018  -1.022   1.045   0.825 -0.9616 -0.1049 -1.9066
  623MOL0     C84019  -0.751   0.982   0.792 -0.3447  0.1622  0.4417
  623MOL0     C84020  -0.619   0.944   0.776  0.6989 -0.1858  0.2172
  623MOL0     N84021   0.043   0.579   1.065  0.0087 -0.5108  0.4877
  623MOL0     N84022   0.090   0.496   1.148 -0.1354  1.0470  0.0054
  623MOL0     C84023   0.864   0.793   1.670  0.4670 -0.2623 -0.8931
  623MOL0     C84024   0.999   0.764   1.681  0.0598 -0.2001 -0.1559
  623MOL0     C84025   1.386   0.516   1.722 -0.6696 -1.1421  0.0707
  623MOL0     C84026   1.456   0.391   1.723  0.2759 -0.4442 -0.2871
  623MOL0     C84027   1.587   0.380   1.692 -0.2109  0.2501  0.2861
  623MOL0     C84028   1.664   0.495   1.666  0.1580  0.4699  0.1607
  623MOL0     O84029   1.799   0.489   1.649 -0.1242  0.1952 -0.2814
  623MOL0     C84030   1.877   0.383   1.715 -0.2200 -0.6008  0.5784
  623MOL0     C84031   2.009   0.361   1.634 -0.3853  0.1092  0.3035
  623MOL0     C84032   2.112   0.262   1.692  0.1805 -0.4597  0.1742
  623MOL0     C84033   2.237   0.244   1.610  0.1848  0.6457  0.2182
  623MOL0     C84034   2.330   0.166   1.685  0.1946  0.5678  0.3357
  623MOL0     C84035   2.409   0.102   1.752  0.8396  0.6187  0.1496
  623MOL0     C84036   1.604   0.622   1.684 -0.9175 -0.8176 -0.6012
  623MOL0     C84037   1.469   0.631   1.709 -0.8745 -0.1754  0.1472
  623MOL0     H84038   0.979   0.441   1.768 -0.5079  0.4430  2.8257
  623MOL0     H84039   0.735   0.503   1.763 -0.7610  0.0328 -3.1958
  623MOL0     H84040   0.633   0.917   1.781  2.3146 -0.3307 -0.8013
  623MOL0     H84041   0.627   0.897   1.608 -0.0269 -0.0904 -0.7663
  623MOL0     H84042   0.416   0.849   1.818  3.0768  0.1477  0.7673
  623MOL0     H84043   0.418   0.985   1.696  3.7154  1.1605 -1.9394
  623MOL0     H84044   0.360   0.811   1.521  0.9622 -0.8995  0.4790
  623MOL0     H84045   0.369   0.689   1.648 -5.2401 -1.2097 -1.9016
  623MOL0     H84046   0.188   0.832   1.780 -0.5578 -0.5283 -0.9933
  623MOL0     H84047   0.164   0.891   1.612 -0.0504 -0.2308 -0.0824
  623MOL0     H84048   0.169   0.607   1.729  4.8539  3.8252  1.3510
  623MOL0     H84049   0.018   0.693   1.685 -0.6215 -1.4296  0.1726
  623MOL0     H84050   0.072   0.694   1.446 -0.6129  0.2249  0.3385
  623MOL0     H84051   0.210   0.587   1.465 -0.4215 -2.6053  0.9490
  623MOL0     H84052   0.046   0.434   1.595 -0.4443  0.6388  0.2985
  623MOL0     H84053  -0.083   0.521   1.516 -1.5795 -2.0510 -0.1438
  623MOL0     H84054  -0.043   0.331   1.380 -0.8650  0.4747 -2.8731
  623MOL0     H84055   0.133   0.364   1.372  1.5521  1.6257 -0.3332
  623MOL0     H84056  -0.189   0.556   1.294  0.7836 -1.5785  0.5805
  623MOL0     H84057  -0.265   0.697   1.045  0.7863 -1.2466 -0.5898
  623MOL0     H84058  -0.141   0.831   1.086  2.4120  1.5938 -2.5417
  623MOL0     H84059  -0.186   0.677   0.842 -2.8470  1.4871  0.6648
  623MOL0     H84060  -0.023   0.748   0.880  0.3084 -0.6870  2.8842
  623MOL0     H84061  -0.161   0.889   0.737  1.2034  1.6205  0.0108
  623MOL0     H84062  -0.136   0.970   0.887  0.6503  1.0551 -3.3250
  623MOL0     H84063  -0.360   0.903   0.971 -5.4660  0.9604 -0.7421
  623MOL0     H84064  -0.376   0.799   0.833  1.1460 -0.5781  2.6740
  623MOL0     H84065  -0.486   1.233   0.899  1.5489 -2.1282 -0.5164
  623MOL0     H84066  -0.799   1.357   0.952 -2.1863 -3.3344  1.2042
  623MOL0     H84067  -0.706   1.300   1.096 -1.7846  3.8850  1.9954
  623MOL0     H84068  -0.616   1.377   0.974  0.5699 -1.9305 -1.6122
  623MOL0     H84069  -1.092   1.386   0.786  2.5908  1.2243  2.0832
  623MOL0     H84070  -1.327   1.458   0.800  0.4432  0.3116 -0.4535
  623MOL0     H84071  -1.613   1.223   1.108 -0.1959  0.6211  0.7295
  623MOL0     H84072  -1.696   1.351   1.041  0.5206  0.2616  0.8177
  623MOL0     H84073  -1.519   1.159   0.868  0.6344 -0.4938  2.1497
  623MOL0     H84074  -1.685   1.139   0.930  0.7326 -0.7701  0.9896
  623MOL0     H84075  -1.552   1.304   0.714  2.1500 -1.6616  1.3838
  623MOL0     H84076  -1.687   1.388   0.789  2.2856  0.3458 -1.7348
  623MOL0     H84077  -1.673   1.109   0.657  1.1788  0.3054  3.3854
  623MOL0     H84078  -1.827   1.173   0.722  0.3485 -2.6983 -0.6403
  623MOL0     H84079  -1.670   1.324   0.509  0.9038 -1.8752  1.6138
  623MOL0     H84080  -1.817   1.373   0.598  1.3518  0.8321  2.2527
  623MOL0     H84081  -1.868   1.292   0.378  2.8616  0.6287 -0.3947
  623MOL0     H84082  -1.798   1.138   0.397  2.1126  1.4970 -0.8603
  623MOL0     H84083  -2.014   1.229   0.587  2.8317  0.8999  0.5736
  623MOL0     H84084  -1.956   1.066   0.569  3.3156  2.3130  2.2811
  623MOL0     H84085  -2.035   1.061   0.335  2.1168  2.4804 -1.7500
  623MOL0     H84086  -2.133   1.210   0.355 -2.0076 -0.6004  0.8659
  623MOL0     H84087  -1.355   1.229   1.177  0.2276 -0.2086  0.1666
  623MOL0     H84088  -1.137   1.175   1.159  0.3390 -2.0491 -1.8676
  623MOL0     H84089  -0.823   0.922   0.737  2.3622 -3.0377  0.1226
  623MOL0     H84090  -0.595   0.848   0.733  0.0617  0.0635 -0.7311
  623MOL0     H84091   0.835   0.891   1.635  1.3948 -0.4750 -2.3257
  623MOL0     H84092   1.077   0.832   1.648 -2.0417  2.4948  0.1322
  623MOL0     H84093   1.396   0.301   1.739 -0.5568 -0.2669 -2.1172
  623MOL0     H84094   1.632   0.281   1.699  0.5091  0.5936  0.6028
  623MOL0     H84095   1.903   0.421   1.815 -1.9268 -1.1104  1.2492
  623MOL0     H84096   1.825   0.287   1.714 -0.0359 -0.7014 -0.6985
  623MOL0     H84097   2.061   0.457   1.624 -1.2821  0.4631 -1.5351
  623MOL0     H84098   1.996   0.321   1.533  1.1808 -1.3705  0.6438
  623MOL0     H84099   2.070   0.164   1.720  1.6548 -0.5019  2.5247
  623MOL0     H84100   2.154   0.313   1.779  0.3329 -0.5843  0.1737
  623MOL0     H84101   2.267   0.346   1.584 -0.8869  0.7625 -0.6472
  623MOL0     H84102   2.210   0.186   1.521 -2.0461 -0.2917  1.4273
  623MOL0     H84103   2.492   0.057   1.802  1.4696  1.5477 -0.0300
  623MOL0     H84104   1.662   0.714   1.691 -1.1280 -0.8015  1.4127
  623MOL0     H84105   1.415   0.725   1.715 -1.9936 -0.7662 -0.4156
  624MOL0     O84106   6.627   6.179  10.773 -0.8128  0.6349  0.6755
  624MOL0     C84107   6.629   6.225  10.888 -0.8280  0.1761  1.2023
  624MOL0     O84108   6.552   6.202  10.995  0.3687  0.4526 -0.8299
  624MOL0     C84109   6.468   6.100  10.985  0.4586  0.4685 -0.5376
  624MOL0     C84110   6.340   6.119  10.925 -0.1799 -0.2825 -0.3893
  624MOL0     C84111   6.232   6.027  10.933  0.3030 -0.5656 -0.8728
  624MOL0     C84112   6.258   5.898  10.985  0.5966  0.0651 -0.5123
  624MOL0     O84113   6.155   5.803  10.989 -0.2219 -0.5633 -0.6120
  624MOL0     C84114   6.178   5.661  10.985 -0.0697 -1.3664  0.7179
  624MOL0     C84115   6.059   5.575  10.935 -0.2734 -0.4737  0.1831
  624MOL0     C84116   5.940   5.567  11.035 -0.6573 -0.1301  0.3672
  624MOL0     C84117   5.828   5.487  10.974  0.1595 -0.1961  0.9072
  624MOL0     C84118   5.714   5.460  11.077  0.5461 -0.4576 -0.2775
  624MOL0     C84119   5.606   5.362  11.017  0.0761 -0.6351  0.0796
  624MOL0     C84120   5.506   5.322  11.126 -0.5118 -0.5890 -0.5630
  624MOL0     C84121   5.400   5.440  11.120 -1.0187  0.0926 -0.6431
  624MOL0     N84122   5.328   5.421  11.245  0.1906 -0.4454 -0.5050
  624MOL0     C84123   5.378   5.430  11.368 -0.4247 -0.6587 -0.1195
  624MOL0     C84124   5.278   5.407  11.455  0.8028 -0.0837  1.0117
  624MOL0     C84125   5.290   5.420  11.605 -0.4031 -0.3012 -0.0287
  624MOL0     C84126   5.304   5.277  11.654 -1.1763 -0.0127 -0.3073
  624MOL0     C84127   5.325   5.252  11.807 -1.2242  0.0752  0.2047
  624MOL0     C84128   5.480   5.260  11.835 -0.0270  0.7710 -0.4926
  624MOL0     O84129   5.503   5.235  11.970 -0.4892 -0.0199  0.1939
  624MOL0     C84130   5.624   5.190  12.019  0.8609  0.3062  0.5487
  624MOL0     C84131   5.654   5.234  12.150  0.2603 -0.1711  0.8373
  624MOL0     C84132   5.781   5.213  12.209  0.2642  0.1798 -0.1907
  624MOL0     C84133   5.791   5.271  12.349  0.2318 -0.0822 -0.1840
  624MOL0     C84134   5.881   5.149  12.137 -0.2518  0.3195  0.5175
  624MOL0     C84135   6.020   5.142  12.186  0.1089 -0.3716  0.1154
  624MOL0     O84136   6.116   5.138  12.089 -0.4499  0.1782 -0.3555
  624MOL0     C84137   6.249   5.153  12.131  0.1746  0.0487 -0.0925
  624MOL0     C84138   6.297   5.268  12.191  0.1675 -0.3436 -0.5473
  624MOL0     C84139   6.420   5.268  12.267 -0.1262  0.3793  0.1116
  624MOL0     C84140   6.501   5.151  12.266  0.0130 -0.4427 -0.5012
  624MOL0     O84141   6.627   5.152  12.319  0.4238  0.3320 -0.1578
  624MOL0     C84142   6.687   5.278  12.361 -0.2935  0.2407  0.1895
  624MOL0     C84143   6.823   5.279  12.415  0.0275 -0.1548  0.5039
  624MOL0     C84144   6.915   5.166  12.366 -0.0838  1.0352  0.4697
  624MOL0     C84145   7.054   5.178  12.422 -0.0456  0.0201 -0.4059
  624MOL0     C84146   7.158   5.101  12.348 -0.1773  0.3428  0.2969
  624MOL0     C84147   7.304   5.132  12.394 -0.2139  0.2049 -0.6662
  624MOL0     C84148   7.344   5.109  12.548  0.3871 -0.1172  0.9529
  624MOL0     C84149   7.362   4.970  12.591  0.0882 -0.3747  0.3936
  624MOL0    Cl84150   7.203   4.896  12.594  0.3566 -0.3124  0.2482
  624MOL0     C84151   6.461   5.036  12.190  0.0145 -0.6473  0.0425
  624MOL0     C84152   6.327   5.036  12.141  0.1311  0.2458 -0.0340
  624MOL0     O84153   6.041   5.149  12.305 -0.2011  0.1445 -0.0193
  624MOL0     C84154   5.848   5.101  12.009  0.7328  0.0052  0.3144
  624MOL0     C84155   5.720   5.121  11.948  0.2882 -0.4648  0.7033
  624MOL0     N84156   5.159   5.380  11.379  0.2752 -0.7270 -0.1574
  624MOL0     N84157   5.191   5.386  11.253 -0.0124  0.0589  0.3523
  624MOL0     C84158   6.380   5.881  11.046  0.2465  0.6987 -1.3042
  624MOL0     C84159   6.476   5.975  11.049 -0.0069 -0.8113 -0.4647
  624MOL0     C84160   6.734   6.325  10.914  0.4651 -0.0638  0.1831
  624MOL0     C84161   6.697   6.414  11.013  0.4686  0.4936 -0.2100
  624MOL0     C84162   6.800   6.512  11.047  0.3703 -0.4343  0.8144
  624MOL0     C84163   6.921   6.509  10.986  0.2117 -0.1864 -0.2443
  624MOL0     O84164   7.013   6.602  11.038 -0.0362  0.0488  0.2378
  624MOL0     C84165   7.049   6.613  11.179 -0.0942  0.5865  0.2279
  624MOL0     C84166   7.199   6.664  11.194  0.8633 -0.5135 -0.1769
  624MOL0     C84167   7.294   6.546  11.152  0.4953 -0.4923  0.2179
  624MOL0     C84168   7.438   6.589  11.175 -0.3701  0.7507 -0.2762
  624MOL0     C84169   7.464   6.577  11.319 -0.3468  0.4428  0.4457
  624MOL0     C84170   7.491   6.583  11.439  0.1424 -0.5830  0.6098
  624MOL0     C84171   6.954   6.419  10.888  0.4206 -0.2133 -0.1113
  624MOL0     C84172   6.861   6.329  10.848  0.4145 -0.4042  0.3126
  624MOL0     H84173   6.319   6.213  10.875  0.1732 -0.2088 -0.4015
  624MOL0     H84174   6.137   6.048  10.885  0.2238 -1.1881 -0.9975
  624MOL0     H84175   6.261   5.655  10.913  1.0667  1.4314  1.6420
  624MOL0     H84176   6.219   5.627  11.081  1.5590 -1.4198  0.0509
  624MOL0     H84177   6.026   5.596  10.833  0.3593  1.2543  0.2885
  624MOL0     H84178   6.099   5.473  10.932 -0.1712 -0.4107 -0.9848
  624MOL0     H84179   5.963   5.526  11.134 -0.1529 -0.5488  0.0829
  624MOL0     H84180   5.910   5.671  11.051 -2.1756  0.3059 -3.9780
  624MOL0     H84181   5.779   5.553  10.901 -1.3197 -0.4312  1.6348
  624MOL0     H84182   5.861   5.397  10.923  1.3374  0.3457  0.6633
  624MOL0     H84183   5.752   5.415  11.169  0.7524  1.0653  0.4077
  624MOL0     H84184   5.676   5.559  11.102 -0.8259 -1.5783  2.5910
  624MOL0     H84185   5.552   5.418  10.939 -2.2747 -1.8501  0.7542
  624MOL0     H84186   5.654   5.273  10.977  0.6893 -0.7782  1.1006
  624MOL0     H84187   5.451   5.231  11.101  0.6411 -1.0985 -1.3557
  624MOL0     H84188   5.565   5.325  11.219 -0.2081  0.0395 -0.7668
  624MOL0     H84189   5.328   5.437  11.038 -3.1007  0.5201  1.0919
  624MOL0     H84190   5.448   5.538  11.132  2.2209 -1.3789 -0.4080
  624MOL0     H84191   5.477   5.467  11.393 -0.2899 -0.4941 -0.8576
  624MOL0     H84192   5.374   5.484  11.633 -1.0044 -0.6557  2.9265
  624MOL0     H84193   5.195   5.459  11.642 -0.4811 -2.5316  2.4195
  624MOL0     H84194   5.388   5.234  11.600  0.8339  0.4423  2.2251
  624MOL0     H84195   5.208   5.230  11.630  1.0031 -5.7224  0.6914
  624MOL0     H84196   5.293   5.157  11.851  1.9714 -1.3964 -0.3707
  624MOL0     H84197   5.275   5.327  11.868 -0.6393  0.4525  0.2250
  624MOL0     H84198   5.517   5.360  11.810 -1.0097  1.1808 -0.3736
  624MOL0     H84199   5.527   5.190  11.765  0.1944  1.4778 -1.0706
  624MOL0     H84200   5.585   5.291  12.211  0.3818 -0.5126  1.2928
  624MOL0     H84201   5.883   5.329  12.359 -0.6453  0.9902  2.1901
  624MOL0     H84202   5.712   5.340  12.380 -0.1170 -0.9630  0.9351
  624MOL0     H84203   5.793   5.183  12.413  0.2065 -0.0386 -0.1232
  624MOL0     H84204   6.232   5.355  12.186 -1.0758 -1.3010 -1.5771
  624MOL0     H84205   6.452   5.352  12.327 -0.9601  2.0261 -1.6433
  624MOL0     H84206   6.677   5.352  12.281 -1.0957  0.2289  0.2659
  624MOL0     H84207   6.617   5.310  12.438 -2.1054 -0.3048 -1.1631
  624MOL0     H84208   6.863   5.379  12.398 -0.5222  0.7836  3.9378
  624MOL0     H84209   6.822   5.269  12.524 -0.3200 -0.4857  0.4753
  624MOL0     H84210   6.904   5.183  12.258 -2.8050  0.8912  0.6704
  624MOL0     H84211   6.877   5.067  12.392 -0.9399  1.1413 -0.3090
  624MOL0     H84212   7.085   5.282  12.409 -0.1217  0.2554  1.1139
  624MOL0     H84213   7.044   5.151  12.527 -0.5658  1.6151 -0.0127
  624MOL0     H84214   7.159   5.124  12.241  2.8332  0.3325  0.2512
  624MOL0     H84215   7.118   4.999  12.349 -1.8559  0.9428 -0.3558
  624MOL0     H84216   7.368   5.077  12.325 -1.6159  1.2977 -2.9312
  624MOL0     H84217   7.317   5.239  12.378 -1.0645  0.6359  1.2318
  624MOL0     H84218   7.264   5.154  12.608 -3.4092  0.4263 -3.8824
  624MOL0     H84219   7.443   5.152  12.564  0.5913  0.5105 -1.6300
  624MOL0     H84220   7.400   4.988  12.692  0.2772 -2.9553  0.8688
  624MOL0     H84221   7.438   4.911  12.538 -0.3461  0.8013 -1.6203
  624MOL0     H84222   6.521   4.946  12.193  2.0906  0.7105  1.3439
  624MOL0     H84223   6.280   4.942  12.113 -2.5892  1.0899  1.3851
  624MOL0     H84224   5.935   5.077  11.948  1.9220  0.0663  1.9043
  624MOL0     H84225   5.696   5.085  11.849  2.5137 -1.2523  0.3827
  624MOL0     H84226   6.401   5.788  11.098  1.8972  0.0165 -3.0930
  624MOL0     H84227   6.567   5.935  11.092 -0.2728  1.0841  2.0455
  624MOL0     H84228   6.600   6.416  11.061  0.8335 -3.0265  0.9638
  624MOL0     H84229   6.771   6.595  11.109 -0.7642 -0.8980  0.9254
  624MOL0     H84230   6.988   6.693  11.223  0.5769  0.0292  2.3102
  624MOL0     H84231   7.033   6.526  11.243  0.7201 -0.2867 -0.7179
  624MOL0     H84232   7.209   6.694  11.299 -0.9021  1.6200 -0.5367
  624MOL0     H84233   7.212   6.752  11.131  0.3566 -1.3206 -1.4560
  624MOL0     H84234   7.273   6.534  11.045 -1.3311  1.8853  0.2304
  624MOL0     H84235   7.263   6.462  11.214  2.2300 -0.5551  1.0588
  624MOL0     H84236   7.447   6.693  11.144 -2.2351  0.5681 -1.6300
  624MOL0     H84237   7.510   6.519  11.133 -1.5293 -1.4453  1.1870
  624MOL0     H84238   7.524   6.578  11.541 -0.2984 -0.3477  0.7689
  624MOL0     H84239   7.051   6.431  10.841  1.1862 -2.3513  0.7794
  624MOL0     H84240   6.871   6.275  10.754 -1.4603 -0.7189  0.2576
  625MOL0     O84241   6.437   8.886   7.755  0.0744  0.7405 -0.4005
  625MOL0     C84242   6.535   8.821   7.805  0.4164  0.2658 -0.0451
  625MOL0     O84243   6.556   8.822   7.935 -0.1184 -0.5923  0.5724
  625MOL0     C84244   6.456   8.847   8.027  0.7852 -0.0991  0.1633
  625MOL0     C84245   6.324   8.816   8.012 -0.3649 -0.0921 -0.1750
  625MOL0     C84246   6.228   8.842   8.109 -0.5683  0.2947 -0.6844
  625MOL0     C84247   6.272   8.900   8.231 -0.4815 -0.4942  0.5161
  625MOL0     O84248   6.194   8.928   8.339 -0.2342 -0.7372 -0.5018
  625MOL0     C84249   6.112   8.821   8.394 -0.8543 -0.2712 -0.3538
  625MOL0     C84250   6.007   8.876   8.487  0.2695  0.8583 -0.4950
  625MOL0     C84251   5.917   8.979   8.423  0.1126  0.1362  0.3342
  625MOL0     C84252   5.830   8.922   8.314  0.3836  0.1627  0.4710
  625MOL0     C84253   5.719   9.013   8.252  0.0167  0.2115  0.4130
  625MOL0     C84254   5.602   9.030   8.343 -0.4327 -0.1602  0.3645
  625MOL0     C84255   5.476   9.085   8.279  0.1154  0.5771  0.2701
  625MOL0     C84256   5.366   9.087   8.392  0.0610  0.0403 -0.4397
  625MOL0     N84257   5.242   9.132   8.331 -0.2882 -0.2590 -0.4718
  625MOL0     C84258   5.209   9.244   8.248  1.1592  0.3970  0.2542
  625MOL0     C84259   5.073   9.236   8.224  0.6541 -0.1312 -0.0320
  625MOL0     C84260   4.998   9.340   8.142 -0.1448 -0.7629  0.0702
  625MOL0     C84261   4.842   9.331   8.146  0.1039  0.3829  0.0032
  625MOL0     C84262   4.773   9.465   8.108 -0.3181 -0.6292 -0.2690
  625MOL0     C84263   4.629   9.459   8.071  0.3441  1.1541  0.5488
  625MOL0     O84264   4.543   9.408   8.174  0.0300 -0.1899  1.2770
  625MOL0     C84265   4.410   9.394   8.144 -0.2859  0.3995 -0.0079
  625MOL0     C84266   4.328   9.339   8.237 -0.2255  0.2406  0.0053
  625MOL0     C84267   4.190   9.326   8.214  0.2817 -0.2825 -0.0574
  625MOL0     C84268   4.112   9.260   8.327  0.2087  0.1993 -0.6081
  625MOL0     C84269   4.130   9.376   8.101  0.0272  1.0260  0.9067
  625MOL0     C84270   3.986   9.369   8.078  0.3457 -0.4266  0.0923
  625MOL0     O84271   3.901   9.290   8.146 -0.2715  0.1193  0.6527
  625MOL0     C84272   3.764   9.296   8.122 -0.4543  0.9543 -0.2411
  625MOL0     C84273   3.709   9.187   8.048  0.2117  0.5395  1.0733
  625MOL0     C84274   3.580   9.186   8.004 -0.8712 -0.8595  0.3017
  625MOL0     C84275   3.497   9.291   8.052 -0.7072 -0.7458 -0.1864
  625MOL0     O84276   3.372   9.275   8.008 -0.1736 -0.3548 -0.9131
  625MOL0     C84277   3.259   9.332   8.080 -0.4098  0.2760  0.2792
  625MOL0     C84278   3.118   9.288   8.033 -0.1885 -1.1599 -0.2017
  625MOL0     C84279   3.044   9.410   7.961 -0.1914 -0.5849  0.6010
  625MOL0     C84280   2.888   9.394   7.943  0.0633  0.4964  0.2710
  625MOL0     C84281   2.837   9.473   7.831  0.0118  0.1417 -0.4302
  625MOL0     C84282   2.689   9.456   7.805 -0.5201  0.0809 -0.7522
  625MOL0     C84283   2.647   9.324   7.738  0.3171  0.4462  0.5329
  625MOL0     C84284   2.675   9.302   7.588  0.0605  0.2419 -1.1175
  625MOL0    Cl84285   2.597   9.429   7.493 -0.6782 -0.1895 -0.2159
  625MOL0     C84286   3.548   9.395   8.143  0.1546  0.4040  0.2143
  625MOL0     C84287   3.686   9.392   8.175  0.4259 -0.3405 -1.0066
  625MOL0     O84288   3.947   9.447   7.990  0.0445  0.1839  0.6644
  625MOL0     C84289   4.213   9.433   8.001 -0.1540 -0.8652 -1.1573
  625MOL0     C84290   4.350   9.440   8.015 -0.3450  1.1543  0.0055
  625MOL0     N84291   5.023   9.136   8.296 -0.2944 -0.3398  0.1783
  625MOL0     N84292   5.123   9.073   8.351  0.3094  0.6888 -0.4503
  625MOL0     C84293   6.406   8.928   8.255  0.3696  0.0128  0.0151
  625MOL0     C84294   6.497   8.900   8.154  0.6207  0.2281 -0.0663
  625MOL0     C84295   6.648   8.774   7.714 -0.0576 -0.3022  0.0757
  625MOL0     C84296   6.646   8.801   7.578 -0.4096  0.6677 -0.3937
  625MOL0     C84297   6.762   8.784   7.500 -0.4264 -0.6735  0.1344
  625MOL0     C84298   6.876   8.739   7.561  0.2554  0.6555  0.2771
  625MOL0     O84299   6.982   8.706   7.486 -1.0944 -0.5574  0.3591
  625MOL0     C84300   7.106   8.640   7.538  0.2086  1.0229  1.3942
  625MOL0     C84301   7.185   8.745   7.606 -0.8098 -0.3290  0.2943
  625MOL0     C84302   7.334   8.694   7.624  0.5507 -0.1810 -0.8539
  625MOL0     C84303   7.426   8.822   7.619  0.6735 -0.1753 -0.1144
  625MOL0     C84304   7.415   8.902   7.744  0.3630  0.3734  0.4607
  625MOL0     C84305   7.416   8.974   7.845  0.3874  0.0467 -0.2443
  625MOL0     C84306   6.876   8.701   7.693  0.5988 -0.8435 -0.6252
  625MOL0     C84307   6.760   8.720   7.771  0.3284  0.4722  0.5832
  625MOL0     H84308   6.289   8.759   7.926  0.2395  0.2852 -0.6822
  625MOL0     H84309   6.126   8.812   8.092 -0.1702 -0.7589 -1.3273
  625MOL0     H84310   6.076   8.765   8.308  1.9176 -1.2529 -0.9615
  625MOL0     H84311   6.183   8.761   8.451 -0.8303 -1.7191 -1.8320
  625MOL0     H84312   5.946   8.793   8.523  1.2414 -0.7814 -2.4393
  625MOL0     H84313   6.054   8.922   8.574 -0.5841 -0.1498  0.5397
  625MOL0     H84314   5.856   9.022   8.502 -1.1699 -1.3005  0.1795
  625MOL0     H84315   5.979   9.055   8.373 -0.2403  0.3809  0.2649
  625MOL0     H84316   5.901   8.906   8.232 -0.3046  1.9197 -0.5274
  625MOL0     H84317   5.786   8.829   8.351  2.6435  0.3275  4.0535
  625MOL0     H84318   5.779   9.099   8.224  4.6379 -3.0043 -0.8290
  625MOL0     H84319   5.680   8.986   8.153 -0.1909  0.5839  0.3905
  625MOL0     H84320   5.575   8.935   8.391  1.6185 -1.0873 -0.2120
  625MOL0     H84321   5.644   9.094   8.421  1.6359 -1.4838  0.3968
  625MOL0     H84322   5.486   9.188   8.243  1.1925  0.4355  0.1319
  625MOL0     H84323   5.453   9.031   8.186  2.3978  1.7441 -1.0622
  625MOL0     H84324   5.395   9.156   8.472  1.3521  0.3384 -1.1296
  625MOL0     H84325   5.351   8.988   8.436  0.3858  0.7753  1.4413
  625MOL0     H84326   5.270   9.326   8.212 -0.4673  1.4616 -0.2014
  625MOL0     H84327   5.037   9.432   8.186 -0.5756 -0.7324  0.4052
  625MOL0     H84328   5.032   9.333   8.039  0.8313 -2.0782  0.4478
  625MOL0     H84329   4.825   9.304   8.251 -0.7130 -0.0804 -0.2377
  625MOL0     H84330   4.801   9.257   8.077 -0.5825  1.0002 -0.2619
  625MOL0     H84331   4.823   9.526   8.032  0.2187  0.6000  1.0139
  625MOL0     H84332   4.782   9.529   8.196  1.8569  0.3623 -1.1195
  625MOL0     H84333   4.627   9.382   7.993  3.7242  1.2196  0.2761
  625MOL0     H84334   4.590   9.559   8.049 -1.2080  0.5418  0.3935
  625MOL0     H84335   4.377   9.299   8.325 -0.0509  1.2043  0.3586
  625MOL0     H84336   4.034   9.319   8.376 -0.2498  0.5154 -1.6919
  625MOL0     H84337   4.054   9.176   8.287 -2.2267  0.2672  2.4087
  625MOL0     H84338   4.183   9.227   8.404 -0.7360  1.5213  0.8996
  625MOL0     H84339   3.769   9.108   8.004  0.1678  1.5796 -0.9946
  625MOL0     H84340   3.545   9.110   7.935 -2.2184  0.4851 -0.5442
  625MOL0     H84341   3.261   9.296   8.183 -1.0049  0.3826  0.3279
  625MOL0     H84342   3.261   9.442   8.079  0.6470  0.2726  0.6467
  625MOL0     H84343   3.137   9.198   7.974  1.4174 -0.9400 -0.0416
  625MOL0     H84344   3.052   9.266   8.118 -0.1289  0.3258  0.2541
  625MOL0     H84345   3.093   9.436   7.867  1.9432  1.1339  2.0938
  625MOL0     H84346   3.071   9.503   8.012 -1.3647  0.7530 -1.1144
  625MOL0     H84347   2.872   9.289   7.917 -2.8771  1.1002 -0.7597
  625MOL0     H84348   2.836   9.419   8.036 -0.0149  2.5154 -0.2623
  625MOL0     H84349   2.888   9.452   7.737 -0.0499 -0.3991 -0.3421
  625MOL0     H84350   2.860   9.576   7.861 -1.2458 -0.3141  2.5300
  625MOL0     H84351   2.639   9.470   7.901  1.6393  1.5510  0.2388
  625MOL0     H84352   2.670   9.545   7.745  0.4661  0.7201 -0.1364
  625MOL0     H84353   2.539   9.316   7.752  0.2861  1.3723  0.8730
  625MOL0     H84354   2.697   9.247   7.797 -0.8389  0.7872  2.0072
  625MOL0     H84355   2.621   9.211   7.562 -0.4219  0.0691  0.3897
  625MOL0     H84356   2.782   9.294   7.569  0.3069 -3.4682  0.9477
  625MOL0     H84357   3.503   9.475   8.202 -0.0272 -1.0375  2.0957
  625MOL0     H84358   3.728   9.471   8.236 -2.7537 -0.8707  2.2097
  625MOL0     H84359   4.173   9.471   7.907 -0.4461  1.0162 -0.3123
  625MOL0     H84360   4.407   9.485   7.935  1.1076 -1.9255 -0.8390
  625MOL0     H84361   6.431   8.963   8.355  0.3966 -2.8593  1.1218
  625MOL0     H84362   6.602   8.912   8.176 -0.5596  2.3361  6.5180
  625MOL0     H84363   6.553   8.833   7.532 -1.1869  0.8354  1.2131
  625MOL0     H84364   6.763   8.809   7.394  2.4102  1.5258  0.5415
  625MOL0     H84365   7.081   8.555   7.602  0.3572 -1.2021 -1.2969
  625MOL0     H84366   7.148   8.594   7.448 -1.3516  0.1363  1.0799
  625MOL0     H84367   7.138   8.778   7.699 -0.2717  0.3742  0.3349
  625MOL0     H84368   7.187   8.833   7.540  0.9209  0.4957  1.3648
  625MOL0     H84369   7.361   8.627   7.542  0.3272 -0.2796 -0.8479
  625MOL0     H84370   7.355   8.639   7.716 -0.7116  0.6817 -0.0138
  625MOL0     H84371   7.411   8.882   7.529 -1.9907  2.3559  1.8665
  625MOL0     H84372   7.530   8.789   7.614  0.6905 -0.0304 -0.8272
  625MOL0     H84373   7.417   9.051   7.919 -2.6840 -0.0229 -0.0115
  625MOL0     H84374   6.963   8.655   7.738 -0.3109 -3.2394 -1.1966
  625MOL0     H84375   6.753   8.690   7.875 -0.4245 -3.3321 -0.4205
  626MOL0     O84376   8.089  10.559   6.459 -0.4722  0.1470 -0.1390
  626MOL0     C84377   8.083  10.489   6.561 -0.2133  0.3482 -0.5546
  626MOL0     O84378   8.018  10.362   6.572  0.0194 -1.0690 -0.2688
  626MOL0     C84379   7.917  10.348   6.480 -0.0554  0.6565 -0.4779
  626MOL0     C84380   7.794  10.389   6.515  0.3549 -0.1188 -0.7281
  626MOL0     C84381   7.690  10.361   6.434  0.6469  0.3301  0.1134
  626MOL0     C84382   7.703  10.295   6.307 -0.0194 -1.2543 -0.3753
  626MOL0     O84383   7.595  10.271   6.222 -0.7187 -0.2551 -0.3075
  626MOL0     C84384   7.456  10.307   6.271  0.4890  0.3255 -0.9863
  626MOL0     C84385   7.413  10.193   6.371 -0.2570  0.4778 -0.8120
  626MOL0     C84386   7.278  10.221   6.441  0.1476 -1.1692  0.0213
  626MOL0     C84387   7.166  10.212   6.343  0.1304 -0.5649 -0.3020
  626MOL0     C84388   7.030  10.190   6.404 -0.6958  0.2033  0.1551
  626MOL0     C84389   6.932  10.148   6.290 -0.6033 -0.4603 -0.3049
  626MOL0     C84390   6.791  10.128   6.344  0.9541  0.3714  0.0023
  626MOL0     C84391   6.697  10.104   6.225  0.0462 -0.0349  0.4093
  626MOL0     N84392   6.560  10.121   6.269  0.3706 -0.1514  0.1141
  626MOL0     C84393   6.482  10.041   6.342 -0.2189 -0.6469 -0.6022
  626MOL0     C84394   6.357  10.106   6.348 -0.3520  0.2331  0.1354
  626MOL0     C84395   6.238  10.063   6.423 -0.2026  0.2919 -0.1780
  626MOL0     C84396   6.158  10.177   6.492 -0.2034  0.6221  0.3847
  626MOL0     C84397   6.049  10.126   6.591  0.2211 -0.2028  0.7654
  626MOL0     C84398   5.932  10.228   6.606  0.0388  0.0408  0.2962
  626MOL0     O84399   5.839  10.179   6.700  0.1265  0.2370  0.1878
  626MOL0     C84400   5.709  10.228   6.666  0.0524 -0.0378  0.2596
  626MOL0     C84401   5.654  10.215   6.536  0.2748 -0.7953  0.1962
  626MOL0     C84402   5.530  10.274   6.496  0.8497 -0.0352  0.0128
  626MOL0     C84403   5.489  10.264   6.344 -0.1717 -0.0657 -0.2239
  626MOL0     C84404   5.458  10.343   6.601  0.4385 -0.2881  0.6213
  626MOL0     C84405   5.329  10.409   6.579  1.4468 -0.0370  0.4315
  626MOL0     O84406   5.292  10.495   6.681  0.7684 -0.2634  0.1656
  626MOL0     C84407   5.165  10.551   6.672 -0.0212 -0.4110  0.9657
  626MOL0     C84408   5.150  10.691   6.667 -0.1359  0.5861 -0.5056
  626MOL0     C84409   5.020  10.749   6.652 -0.5387  0.9955 -0.8742
  626MOL0     C84410   4.908  10.665   6.634  0.1013  0.0272  0.0709
  626MOL0     O84411   4.790  10.723   6.625  0.0591 -0.0085 -0.0866
  626MOL0     C84412   4.715  10.692   6.504  0.2870 -0.5281 -0.3733
  626MOL0     C84413   4.605  10.793   6.469  0.2721  0.0643 -0.3341
  626MOL0     C84414   4.661  10.934   6.450 -0.2198 -0.0071  0.1313
  626MOL0     C84415   4.762  10.944   6.337  0.9175  0.7110 -0.1795
  626MOL0     C84416   4.849  11.066   6.346  0.3450  0.2740 -0.5467
  626MOL0     C84417   4.787  11.205   6.343  0.0661 -0.2626 -0.1489
  626MOL0     C84418   4.901  11.306   6.337  0.9163  0.7749 -0.1419
  626MOL0     C84419   4.867  11.459   6.350 -0.2980 -0.0987 -0.1686
  626MOL0    Cl84420   4.770  11.511   6.203 -0.2006  0.0757 -0.3414
  626MOL0     C84421   4.925  10.526   6.648 -1.1108  0.4903 -1.2166
  626MOL0     C84422   5.052  10.469   6.662 -0.2853  0.7070  0.0701
  626MOL0     O84423   5.264  10.382   6.481  0.0531 -0.1284  0.5941
  626MOL0     C84424   5.515  10.346   6.727 -1.2425  0.4477  0.4151
  626MOL0     C84425   5.638  10.289   6.771  0.0584  0.0024 -0.0477
  626MOL0     N84426   6.371  10.221   6.275 -0.0410 -0.1586  0.1953
  626MOL0     N84427   6.493  10.228   6.235 -0.2544  0.2177  0.4903
  626MOL0     C84428   7.827  10.260   6.272 -0.5858 -0.3611  0.0406
  626MOL0     C84429   7.938  10.280   6.359  0.5831 -0.2150 -0.1852
  626MOL0     C84430   8.166  10.522   6.674 -0.0665 -1.2557 -0.2434
  626MOL0     C84431   8.265  10.614   6.654 -0.3959 -1.0004  0.6551
  626MOL0     C84432   8.347  10.665   6.758 -0.3971  0.4330  0.3742
  626MOL0     C84433   8.332  10.607   6.886  0.0432  0.5091  0.2883
  626MOL0     O84434   8.408  10.645   6.995 -0.0559 -0.5006  0.7536
  626MOL0     C84435   8.402  10.780   7.053  0.2287 -0.3907  1.0800
  626MOL0     C84436   8.259  10.811   7.086 -0.0282 -0.0377  0.2212
  626MOL0     C84437   8.202  10.908   6.982  0.3454 -0.7388  0.8166
  626MOL0     C84438   8.045  10.912   7.001  0.5758  0.0916 -0.1757
  626MOL0     C84439   7.984  10.793   6.937  0.5667  0.2774  0.4802
  626MOL0     C84440   7.931  10.697   6.886 -0.5111  0.3203 -0.1306
  626MOL0     C84441   8.240  10.503   6.904  0.8629  0.8377 -0.3994
  626MOL0     C84442   8.149  10.465   6.804  0.2098  0.1601  0.3221
  626MOL0     H84443   7.774  10.451   6.601  0.4450 -2.2541  0.9040
  626MOL0     H84444   7.593  10.399   6.465 -1.2327 -1.9723 -2.4501
  626MOL0     H84445   7.452  10.413   6.294  3.8193  1.1070 -3.1960
  626MOL0     H84446   7.387  10.307   6.186  1.1315  3.8563 -1.6490
  626MOL0     H84447   7.421  10.098   6.318 -0.4603  0.0825 -0.1581
  626MOL0     H84448   7.486  10.190   6.453 -2.3106  0.0146  1.1089
  626MOL0     H84449   7.259  10.142   6.513 -1.0968 -2.9943 -2.1726
  626MOL0     H84450   7.280  10.318   6.491  1.2434  0.5151 -2.9944
  626MOL0     H84451   7.168  10.300   6.278  1.2640 -0.0736  0.3775
  626MOL0     H84452   7.174  10.123   6.279 -1.2493 -1.4112  0.6597
  626MOL0     H84453   7.037  10.108   6.476  1.8242  1.3904  1.3911
  626MOL0     H84454   7.010  10.287   6.451  0.1627  1.0642 -1.1841
  626MOL0     H84455   6.930  10.226   6.213  2.7093  1.6648  1.5008
  626MOL0     H84456   6.955  10.049   6.248 -1.4068 -0.8424  0.1386
  626MOL0     H84457   6.779  10.044   6.413 -2.5608  1.1367  0.4832
  626MOL0     H84458   6.771  10.221   6.398 -0.2920  1.3962 -2.1157
  626MOL0     H84459   6.704  10.005   6.177 -1.2299  0.5027 -0.9865
  626MOL0     H84460   6.716  10.179   6.148 -0.0311 -1.1796 -0.7720
  626MOL0     H84461   6.498   9.938   6.374 -1.9813 -1.1405 -1.1633
  626MOL0     H84462   6.175  10.015   6.347  0.2889 -1.0714  0.2347
  626MOL0     H84463   6.271   9.975   6.479  2.2203 -0.2687 -2.2740
  626MOL0     H84464   6.113  10.244   6.418 -4.2007 -1.4896  0.6831
  626MOL0     H84465   6.232  10.237   6.546  2.2170 -2.0234  0.2534
  626MOL0     H84466   6.094  10.117   6.691  0.0491 -1.5957  0.7363
  626MOL0     H84467   6.014  10.032   6.548 -0.0694 -1.2814  3.1519
  626MOL0     H84468   5.902  10.254   6.504  3.5739 -0.8693 -1.1366
  626MOL0     H84469   5.965  10.330   6.629  0.0389  0.3140 -0.8878
  626MOL0     H84470   5.700  10.147   6.464 -1.8393 -1.9834 -0.1052
  626MOL0     H84471   5.417  10.182   6.335 -1.2403  0.6472  1.2094
  626MOL0     H84472   5.437  10.351   6.303 -1.1654 -0.2442  0.6083
  626MOL0     H84473   5.577  10.247   6.283 -0.5280 -0.4776 -0.6302
  626MOL0     H84474   5.242  10.747   6.682 -0.9122  1.7614 -0.0243
  626MOL0     H84475   5.012  10.856   6.662 -3.0646  0.7283  1.1396
  626MOL0     H84476   4.783  10.682   6.419 -0.9833 -0.9170 -1.3784
  626MOL0     H84477   4.651  10.605   6.525 -2.1428  1.3539  0.5162
  626MOL0     H84478   4.553  10.761   6.378  0.8235 -1.9772  0.0174
  626MOL0     H84479   4.531  10.794   6.550  1.2550  2.0979  0.5952
  626MOL0     H84480   4.720  10.973   6.534  2.0253 -0.5283 -1.1149
  626MOL0     H84481   4.583  11.008   6.429  1.2932  1.6325  0.0728
  626MOL0     H84482   4.826  10.857   6.324 -1.6376 -1.4270  0.6671
  626MOL0     H84483   4.713  10.923   6.241  0.2178 -3.7190  0.9495
  626MOL0     H84484   4.927  11.050   6.271  0.2852  0.7843 -0.7262
  626MOL0     H84485   4.887  11.059   6.449 -1.3485  0.0959  0.1042
  626MOL0     H84486   4.714  11.215   6.262  0.9676  0.5372 -0.8914
  626MOL0     H84487   4.733  11.229   6.435 -1.5985  1.2276 -1.4562
  626MOL0     H84488   4.959  11.298   6.245 -0.4593 -1.7792 -0.8781
  626MOL0     H84489   4.967  11.283   6.421 -1.0184  1.5859  1.7104
  626MOL0     H84490   4.961  11.515   6.355 -0.4347  0.0869  0.3853
  626MOL0     H84491   4.813  11.490   6.440  0.3500  2.2928 -0.5257
  626MOL0     H84492   4.843  10.456   6.661  0.7315 -1.2574  2.2521
  626MOL0     H84493   5.075  10.363   6.667 -0.8408  0.6012  0.3894
  626MOL0     H84494   5.462  10.408   6.799 -3.3467  0.3005 -0.9057
  626MOL0     H84495   5.679  10.284   6.871 -2.1917 -1.8209  0.8755
  626MOL0     H84496   7.846  10.203   6.182 -0.1657 -0.0090 -0.0960
  626MOL0     H84497   8.036  10.243   6.331 -0.9333 -4.2115 -0.8057
  626MOL0     H84498   8.274  10.668   6.561 -0.3456 -2.3081 -0.1177
  626MOL0     H84499   8.413  10.750   6.748  1.5533 -1.0886 -0.3215
  626MOL0     H84500   8.458  10.792   7.146  1.8279  3.3627 -0.1597
  626MOL0     H84501   8.448  10.850   6.983 -2.7569 -0.0724 -0.7129
  626MOL0     H84502   8.253  10.853   7.187  2.7398  1.6995 -0.2338
  626MOL0     H84503   8.201  10.718   7.086 -2.3847  1.3220  1.0761
  626MOL0     H84504   8.226  10.883   6.878  2.9531  0.5991  1.0335
  626MOL0     H84505   8.246  11.006   7.002 -0.5927 -0.5900  2.2911
  626MOL0     H84506   8.013  11.004   6.951 -1.2219  0.2624  1.2150
  626MOL0     H84507   8.008  10.919   7.103  0.8114 -1.2482  0.0272
  626MOL0     H84508   7.905  10.611   6.828 -1.6088 -0.0261  0.8355
  626MOL0     H84509   8.224  10.448   6.995  0.9143  1.1753 -0.1842
  626MOL0     H84510   8.061  10.405   6.823 -0.7374  2.2651  3.4637
  627MOL0     O84511   6.611   9.984   3.309 -0.3065  0.5402  0.2318
  627MOL0     C84512   6.659   9.925   3.212  0.2233  0.0547  0.3251
  627MOL0     O84513   6.611   9.933   3.081  0.0603 -0.2330  0.0162
  627MOL0     C84514   6.476   9.962   3.050  0.3166  0.4643 -0.1050
  627MOL0     C84515   6.365   9.913   3.115 -0.1564  0.2425  0.4313
  627MOL0     C84516   6.235   9.957   3.083 -1.0243 -0.8580 -0.4331
  627MOL0     C84517   6.214  10.069   2.999  0.8141 -0.6289 -0.1015
  627MOL0     O84518   6.093  10.132   2.988 -0.3578 -0.4910  0.0449
  627MOL0     C84519   5.975  10.085   3.066 -0.8293 -1.0621  0.0153
  627MOL0     C84520   5.853  10.186   3.054 -0.3067 -0.5321  0.0844
  627MOL0     C84521   5.720  10.110   3.065 -0.6728 -0.4248  0.2943
  627MOL0     C84522   5.603  10.211   3.052  0.2718 -0.5188 -0.5183
  627MOL0     C84523   5.463  10.161   3.054 -0.3937  0.1833  0.6195
  627MOL0     C84524   5.370  10.272   3.049  0.2007 -0.0994 -0.1187
  627MOL0     C84525   5.223  10.213   3.051 -0.0566  0.3294 -0.1901
  627MOL0     C84526   5.168  10.211   3.200 -0.1755  0.4149 -0.4212
  627MOL0     N84527   5.024  10.178   3.201  0.3120  0.7748 -0.0319
  627MOL0     C84528   4.936  10.135   3.102  0.8323 -0.1173  0.6188
  627MOL0     C84529   4.807  10.148   3.151  0.5606 -0.0376 -0.1198
  627MOL0     C84530   4.692  10.100   3.069  0.6225 -0.5405  0.9692
  627MOL0     C84531   4.554  10.142   3.128 -0.0473  0.0993 -0.2866
  627MOL0     C84532   4.455  10.099   3.021  0.0267 -0.0364 -0.3668
  627MOL0     C84533   4.305  10.121   3.065 -0.0485  0.6735 -0.7508
  627MOL0     O84534   4.267  10.031   3.171 -0.3986  0.5728  0.4797
  627MOL0     C84535   4.137   9.991   3.184 -0.0505  0.3358 -0.6707
  627MOL0     C84536   4.106   9.858   3.176  0.9152  0.8060  0.3472
  627MOL0     C84537   3.967   9.809   3.174 -0.4720  0.7405 -0.3611
  627MOL0     C84538   3.949   9.658   3.162 -0.8222 -0.1651  0.5628
  627MOL0     C84539   3.863   9.897   3.195  0.2626 -0.7148  0.6671
  627MOL0     C84540   3.735   9.849   3.231  0.4336  0.2139  0.7484
  627MOL0     O84541   3.679   9.734   3.182 -0.2173  0.7951 -0.6452
  627MOL0     C84542   3.543   9.709   3.197 -0.0389 -0.7471  0.3091
  627MOL0     C84543   3.456   9.792   3.127  0.5099  0.0120  0.1351
  627MOL0     C84544   3.318   9.756   3.129  0.4740  0.6093  0.7650
  627MOL0     C84545   3.274   9.662   3.232 -0.0173 -0.4449 -0.7563
  627MOL0     O84546   3.136   9.639   3.252  0.1988  0.1094  0.2997
  627MOL0     C84547   3.038   9.730   3.206  0.8954 -0.2787  0.8795
  627MOL0     C84548   2.982   9.685   3.066  0.2853 -0.4427  0.4275
  627MOL0     C84549   2.854   9.764   3.043  0.3680 -0.0728 -0.7306
  627MOL0     C84550   2.769   9.708   2.923  0.0616 -0.6899 -0.8430
  627MOL0     C84551   2.623   9.729   2.948  0.7894 -0.0316 -0.1184
  627MOL0     C84552   2.544   9.689   2.824  0.2589 -0.6405 -0.5904
  627MOL0     C84553   2.395   9.728   2.845 -0.8138 -0.6159  0.7431
  627MOL0     C84554   2.324   9.691   2.712 -0.0412 -1.0756 -0.0858
  627MOL0    Cl84555   2.358   9.528   2.655 -0.0416 -0.4914  0.3898
  627MOL0     C84556   3.364   9.588   3.300  0.4765  0.1895  0.5827
  627MOL0     C84557   3.500   9.606   3.279 -0.1681 -0.7017  0.4122
  627MOL0     O84558   3.679   9.931   3.303  0.1128  0.0837  0.3063
  627MOL0     C84559   3.897  10.032   3.197  0.8131  0.3907 -0.4063
  627MOL0     C84560   4.029  10.081   3.189 -0.3465 -0.2901  0.3874
  627MOL0     N84561   4.814  10.184   3.283  0.4198 -0.2322  0.3611
  627MOL0     N84562   4.943  10.197   3.309  0.1383 -0.4184 -0.4820
  627MOL0     C84563   6.324  10.117   2.927  0.2148 -0.0308  0.2845
  627MOL0     C84564   6.453  10.058   2.951  0.0347 -0.2003 -0.4490
  627MOL0     C84565   6.798   9.871   3.226 -0.5202 -0.3387 -0.3835
  627MOL0     C84566   6.882   9.860   3.112  1.1676  0.3071  0.0624
  627MOL0     C84567   7.016   9.827   3.110  0.2323  0.3006 -0.3710
  627MOL0     C84568   7.073   9.798   3.236 -0.3517  0.1481  0.2147
  627MOL0     O84569   7.201   9.749   3.257 -0.6475  0.0703  0.5772
  627MOL0     C84570   7.237   9.642   3.168 -0.9412  0.7377 -0.4580
  627MOL0     C84571   7.335   9.683   3.055  0.0663 -0.0293  0.4710
  627MOL0     C84572   7.481   9.625   3.067 -0.4201  0.1102 -0.4543
  627MOL0     C84573   7.562   9.675   2.955 -0.8982  0.2297  0.5429
  627MOL0     C84574   7.698   9.623   2.966  0.0071  0.8713  0.6077
  627MOL0     C84575   7.813   9.580   2.984 -0.1400 -0.1160  0.1354
  627MOL0     C84576   6.987   9.811   3.350 -0.2244 -0.3211 -0.9648
  627MOL0     C84577   6.857   9.846   3.348  0.0007 -0.6938  0.1617
  627MOL0     H84578   6.367   9.832   3.187 -2.5425 -0.3550 -0.0550
  627MOL0     H84579   6.149   9.915   3.133 -1.7503 -0.6352 -1.4746
  627MOL0     H84580   5.936   9.987   3.036 -2.6972 -0.9962  1.9958
  627MOL0     H84581   6.008  10.081   3.170  1.0385  0.9320 -0.4486
  627MOL0     H84582   5.854  10.255   3.139  2.8507  0.6773 -0.8102
  627MOL0     H84583   5.856  10.250   2.966 -1.5994 -0.9055 -0.2572
  627MOL0     H84584   5.723  10.035   2.986 -4.0402  0.2772 -0.6938
  627MOL0     H84585   5.712  10.054   3.159  0.6454 -1.6226 -0.2770
  627MOL0     H84586   5.608  10.278   3.139 -5.8505  0.1545 -0.2493
  627MOL0     H84587   5.626  10.268   2.962  2.1843  0.4768  0.5360
  627MOL0     H84588   5.443  10.108   2.961 -3.9467  1.5735  0.4262
  627MOL0     H84589   5.453  10.101   3.144 -1.5670  1.1221  1.1475
  627MOL0     H84590   5.378  10.340   3.135  0.2320  1.3048 -1.2026
  627MOL0     H84591   5.385  10.322   2.953  1.9775  1.9886  1.1415
  627MOL0     H84592   5.152  10.276   2.996 -0.9947  1.1668  1.8997
  627MOL0     H84593   5.225  10.119   2.995  1.4907  0.4320 -0.3511
  627MOL0     H84594   5.180  10.313   3.238 -0.4476 -0.6915  3.0562
  627MOL0     H84595   5.229  10.145   3.264  0.5016  0.5805 -0.8826
  627MOL0     H84596   4.970  10.116   3.001  2.1518 -1.0789  1.2058
  627MOL0     H84597   4.703  10.139   2.968 -0.8442  0.4133  1.1460
  627MOL0     H84598   4.699   9.991   3.069  1.5708 -0.4973 -0.0309
  627MOL0     H84599   4.546  10.249   3.149 -0.6971 -0.0112  0.0578
  627MOL0     H84600   4.524  10.086   3.217 -1.1695  1.9956  0.5939
  627MOL0     H84601   4.477   9.997   2.988 -2.0430 -1.3406  1.9572
  627MOL0     H84602   4.471  10.161   2.932  0.0694  2.0026  0.9942
  627MOL0     H84603   4.247  10.103   2.974  1.2113 -0.3900 -1.3724
  627MOL0     H84604   4.291  10.222   3.105 -2.1318  0.0468  0.2295
  627MOL0     H84605   4.194   9.794   3.174  1.4828  1.3200  3.1791
  627MOL0     H84606   4.046   9.607   3.156 -1.0302 -0.8275  2.1669
  627MOL0     H84607   3.885   9.618   3.241  0.4719 -1.6829  0.8990
  627MOL0     H84608   3.898   9.635   3.068  0.2694  2.9567 -0.9294
  627MOL0     H84609   3.497   9.864   3.058  1.3938 -0.2674  0.3448
  627MOL0     H84610   3.250   9.802   3.059 -0.3328 -0.9246  0.4950
  627MOL0     H84611   2.955   9.734   3.276 -0.1214  0.3333 -0.3245
  627MOL0     H84612   3.083   9.829   3.196  0.8065 -0.1517  1.6885
  627MOL0     H84613   3.061   9.697   2.991 -1.5422  1.7990 -1.2843
  627MOL0     H84614   2.950   9.580   3.074  2.1479 -1.1337 -0.3432
  627MOL0     H84615   2.870   9.871   3.030 -2.0601  0.6688  1.4010
  627MOL0     H84616   2.786   9.761   3.129  0.6089  2.8058 -0.3597
  627MOL0     H84617   2.804   9.753   2.830  1.1686  1.3214  0.4723
  627MOL0     H84618   2.787   9.600   2.916  1.3144 -0.5558  0.0598
  627MOL0     H84619   2.601   9.835   2.961 -1.2316 -0.2915 -0.9705
  627MOL0     H84620   2.592   9.666   3.033 -0.2897 -0.0813 -0.5311
  627MOL0     H84621   2.587   9.749   2.743  0.2287  1.0796  0.6036
  627MOL0     H84622   2.564   9.585   2.799 -2.5425 -1.2527 -0.5743
  627MOL0     H84623   2.390   9.836   2.862 -1.1902 -0.2841 -1.2094
  627MOL0     H84624   2.349   9.685   2.934 -1.0862 -0.3816  0.7181
  627MOL0     H84625   2.361   9.765   2.640  2.8702 -2.5711 -0.3002
  627MOL0     H84626   2.216   9.693   2.728  0.0356 -0.3514  0.4010
  627MOL0     H84627   3.327   9.507   3.362 -2.5837 -0.1365 -1.4525
  627MOL0     H84628   3.571   9.545   3.333  1.9036  0.0427 -1.3043
  627MOL0     H84629   3.828  10.114   3.215 -1.3314 -1.5924  0.9447
  627MOL0     H84630   4.050  10.187   3.186 -1.1073 -0.1464 -0.3131
  627MOL0     H84631   6.320  10.197   2.853  0.9311  0.2366  0.5226
  627MOL0     H84632   6.539  10.086   2.892  0.9531  0.1647  1.0090
  627MOL0     H84633   6.844   9.890   3.014 -1.0867 -0.8142  0.5105
  627MOL0     H84634   7.080   9.819   3.023 -0.5554 -0.9138 -0.8639
  627MOL0     H84635   7.283   9.567   3.232 -2.3298  1.1661  1.1139
  627MOL0     H84636   7.149   9.596   3.121  0.1410 -3.8312  1.4664
  627MOL0     H84637   7.340   9.792   3.055  3.2136 -0.0681 -1.3397
  627MOL0     H84638   7.303   9.655   2.954  1.7538  0.6349 -0.2696
  627MOL0     H84639   7.475   9.517   3.051  1.6265  0.1397 -1.7815
  627MOL0     H84640   7.512   9.640   3.171 -3.5486  1.0840  0.4553
  627MOL0     H84641   7.567   9.784   2.963 -4.5904  0.5191  0.4950
  627MOL0     H84642   7.521   9.642   2.859  2.6087  1.8459 -1.7326
  627MOL0     H84643   7.911   9.549   3.016  1.3208  4.1756  0.5763
  627MOL0     H84644   7.039   9.796   3.444  0.6636 -1.4894 -1.6103
  627MOL0     H84645   6.801   9.863   3.440  2.7100  1.4965  1.5419
  628MOL0     O84646   2.624   1.339   0.876  0.1135  0.1519  0.6099
  628MOL0     C84647   2.684   1.376   0.774  0.1285  0.3457 -0.2420
  628MOL0     O84648   2.638   1.361   0.647 -1.1457  0.1227 -0.1748
  628MOL0     C84649   2.530   1.274   0.632  0.5519  0.7861  0.0594
  628MOL0     C84650   2.429   1.319   0.555  0.0855 -0.3682 -0.6406
  628MOL0     C84651   2.324   1.232   0.520 -0.1821  0.0942 -0.1648
  628MOL0     C84652   2.316   1.098   0.566 -0.2592 -0.3683  0.0961
  628MOL0     O84653   2.213   1.004   0.558  0.6133  0.1715  0.2702
  628MOL0     C84654   2.108   1.041   0.476  0.3877 -0.0020 -0.2836
  628MOL0     C84655   1.981   0.964   0.515 -0.6417  0.7560  0.6849
  628MOL0     C84656   1.846   1.005   0.441 -0.1352  0.4132 -0.6243
  628MOL0     C84657   1.733   0.911   0.480  0.5013  0.1098 -0.3996
  628MOL0     C84658   1.597   0.931   0.405 -0.3591 -0.2154 -0.5679
  628MOL0     C84659   1.504   0.823   0.459  0.3305  0.0217 -0.5962
  628MOL0     C84660   1.361   0.826   0.418  0.1509 -0.5013 -0.3893
  628MOL0     C84661   1.331   0.760   0.287 -1.3340  0.6885 -0.3237
  628MOL0     N84662   1.187   0.732   0.280 -0.4588  0.7265 -0.2598
  628MOL0     C84663   1.100   0.830   0.231  0.3856  0.1420 -0.1855
  628MOL0     C84664   0.979   0.773   0.251 -0.6129 -0.3118  0.8557
  628MOL0     C84665   0.839   0.832   0.238  0.1027 -0.4799 -1.0464
  628MOL0     C84666   0.842   0.979   0.225  0.2098  0.2611 -0.6065
  628MOL0     C84667   0.705   1.036   0.212  0.4305 -0.8450 -0.2573
  628MOL0     C84668   0.711   1.199   0.208  0.5957  0.3041  0.9583
  628MOL0     O84669   0.595   1.238   0.286 -0.3771 -0.3251 -0.9140
  628MOL0     C84670   0.548   1.366   0.277  0.4514  0.6903  0.2332
  628MOL0     C84671   0.595   1.473   0.197 -1.2594 -0.1853  0.3548
  628MOL0     C84672   0.540   1.602   0.192  0.1865  0.4112  0.4550
  628MOL0     C84673   0.592   1.692   0.090  0.5295 -0.2769  0.6929
  628MOL0     C84674   0.427   1.619   0.277 -0.2626 -0.1843 -0.5423
  628MOL0     C84675   0.347   1.741   0.272  0.5058  0.1825  0.1909
  628MOL0     O84676   0.214   1.735   0.303  0.0737 -0.7959  0.0031
  628MOL0     C84677   0.140   1.845   0.333  0.4518  0.8144 -0.2208
  628MOL0     C84678   0.175   1.959   0.411 -0.0856  0.9575 -0.0376
  628MOL0     C84679   0.080   2.060   0.436  0.8077  0.0999 -0.7830
  628MOL0     C84680  -0.056   2.039   0.393  0.8485 -0.0148 -0.5128
  628MOL0     O84681  -0.154   2.128   0.433 -0.6968 -0.2661  0.3362
  628MOL0     C84682  -0.278   2.149   0.360 -0.3571  0.7891 -0.1641
  628MOL0     C84683  -0.259   2.197   0.220  0.2192  0.1176  0.1795
  628MOL0     C84684  -0.394   2.242   0.166 -0.6733 -0.7304 -0.8228
  628MOL0     C84685  -0.408   2.391   0.150 -0.5546  0.4921  0.2909
  628MOL0     C84686  -0.519   2.424   0.057  0.1520  0.0575 -0.5943
  628MOL0     C84687  -0.547   2.579   0.048  0.1031  0.1871 -0.0581
  628MOL0     C84688  -0.651   2.588  -0.057  1.2488 -0.0394 -0.3671
  628MOL0     C84689  -0.696   2.735  -0.058  1.1156 -0.3080 -0.2372
  628MOL0    Cl84690  -0.820   2.759  -0.189  0.2160  0.4992 -0.0101
  628MOL0     C84691  -0.084   1.934   0.297  0.0076  0.3446  1.0758
  628MOL0     C84692   0.009   1.835   0.276 -0.3569  0.6179 -0.5604
  628MOL0     O84693   0.409   1.848   0.249  1.9023 -0.0219 -0.4081
  628MOL0     C84694   0.393   1.520   0.369 -0.0142  0.0272  0.0880
  628MOL0     C84695   0.446   1.395   0.366 -0.3690  0.4628 -0.0500
  628MOL0     N84696   0.998   0.638   0.289 -0.2550  0.7565  0.1763
  628MOL0     N84697   1.123   0.618   0.308  0.1604 -0.3572  0.0566
  628MOL0     C84698   2.413   1.055   0.645 -0.1618 -0.8623 -0.8074
  628MOL0     C84699   2.513   1.137   0.683 -0.7747 -0.1439  0.6769
  628MOL0     C84700   2.804   1.464   0.789 -0.5297  0.3686  0.3172
  628MOL0     C84701   2.901   1.492   0.691  0.0326 -0.1572 -0.0819
  628MOL0     C84702   3.025   1.558   0.718  0.4491 -0.3837 -0.2538
  628MOL0     C84703   3.038   1.618   0.841 -0.2157 -0.3984  0.5881
  628MOL0     O84704   3.129   1.718   0.872  0.0997 -0.2212  0.4112
  628MOL0     C84705   3.245   1.732   0.786 -0.5400 -1.1115  0.3028
  628MOL0     C84706   3.370   1.642   0.833  0.0618  0.3751  0.7351
  628MOL0     C84707   3.393   1.672   0.985 -1.0414  0.1667 -0.5164
  628MOL0     C84708   3.506   1.606   1.058 -0.3942 -0.7658  0.9774
  628MOL0     C84709   3.624   1.688   1.047  0.5280 -0.5686 -0.2854
  628MOL0     C84710   3.719   1.764   1.072  0.0548  0.9393  0.2139
  628MOL0     C84711   2.955   1.586   0.943  0.1818 -0.8584  0.6096
  628MOL0     C84712   2.842   1.507   0.921  0.2334 -0.5522  0.8837
  628MOL0     H84713   2.441   1.419   0.516 -2.4025  0.0033 -0.5998
  628MOL0     H84714   2.246   1.276   0.459  0.3907 -0.7560 -1.5636
  628MOL0     H84715   2.096   1.149   0.493  0.4335  0.1481 -1.1814
  628MOL0     H84716   2.124   1.026   0.369  1.3550 -0.5304 -0.0822
  628MOL0     H84717   2.004   0.857   0.510  0.2783  1.0017 -1.7460
  628MOL0     H84718   1.966   0.980   0.622  0.0264  1.9455  0.6145
  628MOL0     H84719   1.824   1.110   0.464 -0.2653  0.2721 -0.0921
  628MOL0     H84720   1.858   1.007   0.332 -4.6460 -0.2508 -1.3193
  628MOL0     H84721   1.761   0.808   0.456 -0.0178 -0.6906  2.1198
  628MOL0     H84722   1.717   0.920   0.588  0.7784  0.7403 -0.4043
  628MOL0     H84723   1.544   1.026   0.420  0.6326  0.0610  1.5313
  628MOL0     H84724   1.633   0.927   0.302  2.5771  1.5917  0.2435
  628MOL0     H84725   1.546   0.723   0.439 -0.9396 -0.6976  0.1722
  628MOL0     H84726   1.499   0.841   0.566  0.6436 -0.4064 -0.5033
  628MOL0     H84727   1.291   0.797   0.497 -1.6647  3.5631 -0.2911
  628MOL0     H84728   1.332   0.930   0.406 -2.8641 -1.1469  0.4694
  628MOL0     H84729   1.384   0.665   0.284 -2.0163  0.2647  0.6562
  628MOL0     H84730   1.365   0.815   0.198  0.9279 -2.1716 -1.3817
  628MOL0     H84731   1.133   0.930   0.205 -0.1992  0.8482  1.6151
  628MOL0     H84732   0.790   0.778   0.157  0.7033 -2.2867 -0.2520
  628MOL0     H84733   0.792   0.802   0.332  1.4588  1.7889  0.4670
  628MOL0     H84734   0.908   1.013   0.144  0.6258  0.3581 -0.2317
  628MOL0     H84735   0.893   1.022   0.312  2.7483 -1.0781 -1.3452
  628MOL0     H84736   0.648   1.007   0.301 -1.5459  1.3930 -0.6940
  628MOL0     H84737   0.649   0.992   0.128  0.1939 -0.9473 -0.0448
  628MOL0     H84738   0.690   1.235   0.107 -1.5379 -1.4972  0.6623
  628MOL0     H84739   0.807   1.240   0.242  1.2264  0.5243 -0.9869
  628MOL0     H84740   0.675   1.447   0.129 -0.8960  3.1542 -0.6849
  628MOL0     H84741   0.520   1.717   0.011 -0.2509 -1.2861  1.0644
  628MOL0     H84742   0.626   1.783   0.141 -0.3495 -0.3649  1.4623
  628MOL0     H84743   0.683   1.658   0.039 -0.3351  0.7870 -1.7257
  628MOL0     H84744   0.279   1.965   0.442  0.4147 -1.6668 -0.9893
  628MOL0     H84745   0.108   2.145   0.496 -3.2237 -0.0864  1.7457
  628MOL0     H84746  -0.330   2.053   0.349 -0.9460  1.2935 -2.1414
  628MOL0     H84747  -0.350   2.214   0.410 -3.4627 -1.0307 -1.9826
  628MOL0     H84748  -0.188   2.280   0.221  0.0948  0.2264  0.7735
  628MOL0     H84749  -0.226   2.113   0.158  2.7029 -0.5050  2.1634
  628MOL0     H84750  -0.469   2.194   0.230 -0.1337  1.1555  1.3505
  628MOL0     H84751  -0.404   2.192   0.070  0.1424 -2.9856  0.1953
  628MOL0     H84752  -0.416   2.440   0.247 -0.3534 -1.9265  1.6180
  628MOL0     H84753  -0.316   2.427   0.102  0.2423  3.2622  3.5793
  628MOL0     H84754  -0.615   2.380   0.085  0.4499  0.5983  1.4303
  628MOL0     H84755  -0.499   2.390  -0.046 -0.0706 -2.9909  0.2587
  628MOL0     H84756  -0.571   2.627   0.143 -1.1229  0.1774 -0.3492
  628MOL0     H84757  -0.462   2.633   0.005  0.9729 -0.1344  1.2020
  628MOL0     H84758  -0.736   2.524  -0.033  1.3367 -0.6390 -1.6050
  628MOL0     H84759  -0.618   2.552  -0.155  2.7375  2.3853 -0.8548
  628MOL0     H84760  -0.618   2.810  -0.075 -0.2018  0.9671 -0.9195
  628MOL0     H84761  -0.755   2.765   0.029  0.1007 -0.2901 -0.9119
  628MOL0     H84762  -0.178   1.920   0.245  1.0026  2.4252 -1.5035
  628MOL0     H84763   0.002   1.743   0.219  3.4187  0.9491 -1.8276
  628MOL0     H84764   0.316   1.540   0.443 -0.6315 -0.5637 -0.3766
  628MOL0     H84765   0.400   1.316   0.424 -3.1045  1.3925 -0.8280
  628MOL0     H84766   2.417   0.952   0.680 -1.3914 -1.7708 -3.1460
  628MOL0     H84767   2.600   1.094   0.732 -1.2756  0.2118  1.9151
  628MOL0     H84768   2.878   1.473   0.587  1.7660 -2.4037 -0.1288
  628MOL0     H84769   3.089   1.569   0.630 -0.7098 -0.0815 -1.0755
  628MOL0     H84770   3.229   1.721   0.678  0.3985  2.7953 -0.3843
  628MOL0     H84771   3.278   1.836   0.786  1.2034 -1.6138 -0.5824
  628MOL0     H84772   3.454   1.669   0.767  0.1063  2.6745  1.6311
  628MOL0     H84773   3.346   1.536   0.824 -0.3819  0.5229  0.1241
  628MOL0     H84774   3.307   1.623   1.030 -0.9566  1.7812  1.5495
  628MOL0     H84775   3.391   1.780   1.005  2.5009  0.4452 -0.9965
  628MOL0     H84776   3.537   1.512   1.009 -1.9326 -1.8144  1.9356
  628MOL0     H84777   3.478   1.574   1.158 -2.7758 -1.4148  0.1743
  628MOL0     H84778   3.805   1.821   1.102  0.0224  0.6303  0.9162
  628MOL0     H84779   2.979   1.617   1.045  1.3246 -0.8613  0.3534
  628MOL0     H84780   2.777   1.482   1.005 -0.4520  0.5726  0.7116
  629MOL0     O84781   8.390   5.499   7.858  0.2296  0.0420 -0.4148
  629MOL0     C84782   8.450   5.494   7.965  0.6584 -0.6525  0.3787
  629MOL0     O84783   8.572   5.549   7.983 -0.1798 -0.2401 -0.4414
  629MOL0     C84784   8.640   5.628   7.894 -0.4073 -0.0563  0.2598
  629MOL0     C84785   8.778   5.630   7.899 -0.1004 -0.6843 -0.0816
  629MOL0     C84786   8.853   5.721   7.815  0.8950  0.3839  0.2524
  629MOL0     C84787   8.791   5.826   7.742 -0.2377  0.2581 -0.8800
  629MOL0     O84788   8.869   5.923   7.688 -0.4704 -0.1131 -0.4671
  629MOL0     C84789   8.801   6.025   7.614  0.7320  0.1455  0.2574
  629MOL0     C84790   8.915   6.125   7.557 -0.3530 -0.0790  0.2441
  629MOL0     C84791   8.967   6.216   7.671 -0.3309 -0.4421  0.1978
  629MOL0     C84792   9.076   6.315   7.618  0.0043 -0.0166  0.1325
  629MOL0     C84793   9.185   6.355   7.717 -0.1736  0.1471  0.2934
  629MOL0     C84794   9.290   6.460   7.644  0.2197  0.4555 -0.8071
  629MOL0     C84795   9.413   6.461   7.728 -0.0968 -0.1316  0.2545
  629MOL0     C84796   9.537   6.519   7.662 -0.5663  0.7091  0.9445
  629MOL0     N84797   9.503   6.642   7.586 -0.4734  0.3188  0.3310
  629MOL0     C84798   9.448   6.752   7.636  0.1721 -0.0359 -0.4852
  629MOL0     C84799   9.415   6.828   7.526 -0.1717  0.5516 -0.4298
  629MOL0     C84800   9.344   6.962   7.523 -0.3965  0.3735 -0.4316
  629MOL0     C84801   9.230   6.953   7.432  0.6738 -0.0550  0.3013
  629MOL0     C84802   9.133   7.077   7.446 -0.0772  0.4164  0.2912
  629MOL0     C84803   9.007   7.063   7.357  0.2986 -0.7370  0.3633
  629MOL0     O84804   8.906   6.977   7.416 -0.3937 -0.2504 -0.2211
  629MOL0     C84805   8.780   7.004   7.380 -1.4792 -0.2795  1.0281
  629MOL0     C84806   8.755   7.056   7.255 -0.2037  0.7661  0.1758
  629MOL0     C84807   8.629   7.102   7.230  0.5109 -0.1479 -0.6011
  629MOL0     C84808   8.608   7.163   7.097 -0.4612 -0.5141 -0.5501
  629MOL0     C84809   8.519   7.079   7.324  0.4711 -0.1915 -0.3752
  629MOL0     C84810   8.378   7.126   7.298 -0.8902 -0.2196 -0.1399
  629MOL0     O84811   8.309   7.152   7.418  0.3749 -0.0153 -0.3231
  629MOL0     C84812   8.203   7.239   7.435  0.3287  0.1957 -0.1163
  629MOL0     C84813   8.111   7.210   7.533 -0.6335  0.2630 -0.3104
  629MOL0     C84814   7.996   7.284   7.544  0.7972 -0.8393 -0.5889
  629MOL0     C84815   7.963   7.386   7.447 -0.2696  0.4638 -0.0449
  629MOL0     O84816   7.846   7.444   7.463 -0.2645 -0.4138 -0.1282
  629MOL0     C84817   7.755   7.451   7.355 -0.0048 -0.2564  0.1554
  629MOL0     C84818   7.652   7.561   7.372 -0.7092  0.0804  0.1617
  629MOL0     C84819   7.565   7.532   7.485 -0.2062  0.3796  0.0834
  629MOL0     C84820   7.450   7.628   7.481  0.0278 -0.1101  0.5978
  629MOL0     C84821   7.351   7.597   7.595 -0.4264  0.0390 -0.0218
  629MOL0     C84822   7.390   7.675   7.729  0.3659 -0.1816  0.2494
  629MOL0     C84823   7.390   7.823   7.699 -0.4431 -1.0477  0.1472
  629MOL0     C84824   7.395   7.917   7.819 -0.1395  0.4544  0.4245
  629MOL0    Cl84825   7.548   7.897   7.915 -0.0562  0.0886 -0.1843
  629MOL0     C84826   8.057   7.421   7.353 -0.0057 -0.0285  0.6435
  629MOL0     C84827   8.175   7.345   7.343 -0.5136  0.0788 -0.5975
  629MOL0     O84828   8.343   7.158   7.185 -0.0036 -0.5386  0.2479
  629MOL0     C84829   8.550   7.015   7.444 -0.3336 -0.7113 -0.2459
  629MOL0     C84830   8.681   6.979   7.475  1.0624 -0.7417  0.1020
  629MOL0     N84831   9.461   6.758   7.423  0.0559  0.0333  0.5269
  629MOL0     N84832   9.526   6.658   7.451 -0.8767 -0.8222  0.5489
  629MOL0     C84833   8.649   5.825   7.746  0.5938  0.6519  0.1139
  629MOL0     C84834   8.582   5.725   7.813  0.2059  0.1139  0.2144
  629MOL0     C84835   8.369   5.429   8.070  0.8147  0.0914  0.2482
  629MOL0     C84836   8.432   5.376   8.183  0.3291  0.0768 -0.8139
  629MOL0     C84837   8.352   5.331   8.291  0.8758 -0.3234 -0.4750
  629MOL0     C84838   8.214   5.327   8.282  0.4415 -0.6946  0.1140
  629MOL0     O84839   8.124   5.274   8.372  0.7590 -0.4637  0.9653
  629MOL0     C84840   8.168   5.220   8.494  1.2357  1.3551  0.6790
  629MOL0     C84841   8.182   5.067   8.501  0.0455 -0.5720 -1.2101
  629MOL0     C84842   8.055   4.977   8.491 -0.1852 -0.1468 -0.3749
  629MOL0     C84843   7.954   5.017   8.600 -1.0582  0.3699 -0.4818
  629MOL0     C84844   7.844   4.917   8.589 -0.2005 -0.1484 -0.1440
  629MOL0     C84845   7.747   4.847   8.582  0.4130  0.5818  0.1463
  629MOL0     C84846   8.148   5.372   8.163 -1.0898 -0.4128  0.6234
  629MOL0     C84847   8.228   5.425   8.056  0.1915  0.0016 -0.4248
  629MOL0     H84848   8.817   5.547   7.957 -1.7602 -1.5148 -0.0820
  629MOL0     H84849   8.961   5.706   7.820  0.4892 -4.3244 -0.8232
  629MOL0     H84850   8.746   5.978   7.532 -1.3326  0.4192  1.4210
  629MOL0     H84851   8.731   6.084   7.672 -1.6914 -1.6531 -0.6431
  629MOL0     H84852   8.996   6.074   7.504 -1.4478 -2.7490  0.9711
  629MOL0     H84853   8.858   6.190   7.490 -2.1696 -0.5388  1.2677
  629MOL0     H84854   8.886   6.270   7.721  1.4777  0.9705  1.7067
  629MOL0     H84855   9.009   6.148   7.745  1.3226 -3.3265 -3.1032
  629MOL0     H84856   9.135   6.271   7.537  2.7794  3.1117  0.2140
  629MOL0     H84857   9.020   6.403   7.586 -1.1744 -0.6814  0.3286
  629MOL0     H84858   9.145   6.401   7.808 -0.2348  0.8352 -0.0730
  629MOL0     H84859   9.243   6.266   7.741 -0.3800 -1.6646 -4.7546
  629MOL0     H84860   9.308   6.410   7.548 -2.5608 -0.6242 -0.8681
  629MOL0     H84861   9.242   6.558   7.638  1.0690  0.9006 -0.4956
  629MOL0     H84862   9.388   6.524   7.814 -2.5191 -1.0256  0.2801
  629MOL0     H84863   9.441   6.370   7.782 -0.7167  0.9166  2.4953
  629MOL0     H84864   9.566   6.444   7.588 -1.6495  0.8050  0.3868
  629MOL0     H84865   9.621   6.535   7.730  0.2677 -1.7383  0.5933
  629MOL0     H84866   9.404   6.778   7.732 -2.4192 -1.3188 -1.2193
  629MOL0     H84867   9.325   6.987   7.628  4.2986  1.8104  0.3522
  629MOL0     H84868   9.418   7.032   7.482 -1.3791 -0.2792 -3.5250
  629MOL0     H84869   9.160   6.872   7.457 -1.5531  0.8854 -2.3475
  629MOL0     H84870   9.266   6.935   7.330 -1.7655  1.2036 -0.8639
  629MOL0     H84871   9.175   7.172   7.412 -0.6732  0.8817  0.8358
  629MOL0     H84872   9.101   7.103   7.547 -2.1579  2.0008 -0.6968
  629MOL0     H84873   9.032   7.028   7.257  1.7727  0.4880  0.2685
  629MOL0     H84874   8.971   7.166   7.347 -2.2019 -1.7885 -3.0538
  629MOL0     H84875   8.833   7.069   7.180 -0.4295 -1.6112 -0.5453
  629MOL0     H84876   8.533   7.106   7.042 -0.7343  1.8476 -2.8433
  629MOL0     H84877   8.573   7.266   7.111  0.7682 -0.1258 -0.1551
  629MOL0     H84878   8.703   7.174   7.044 -1.4231  2.3878 -1.8971
  629MOL0     H84879   8.121   7.133   7.609 -1.8547 -0.7799 -1.1609
  629MOL0     H84880   7.935   7.276   7.633  3.0205  2.5368  1.4930
  629MOL0     H84881   7.803   7.461   7.257 -0.9470  1.2061 -0.1903
  629MOL0     H84882   7.699   7.358   7.342 -1.9724  0.7983  0.7096
  629MOL0     H84883   7.706   7.653   7.394 -2.5620  1.6625 -1.5185
  629MOL0     H84884   7.593   7.564   7.280 -2.7699 -2.8057  1.2218
  629MOL0     H84885   7.616   7.540   7.581  0.5419  3.0203 -0.4694
  629MOL0     H84886   7.524   7.431   7.473 -1.2903  0.6209  1.4881
  629MOL0     H84887   7.482   7.733   7.479  0.6102 -0.2484 -2.4271
  629MOL0     H84888   7.391   7.610   7.391 -2.4751  0.3249  2.0463
  629MOL0     H84889   7.368   7.492   7.618  3.9535 -0.2516 -3.3698
  629MOL0     H84890   7.249   7.614   7.559 -1.3037  2.3071  3.0411
  629MOL0     H84891   7.336   7.644   7.818  1.7897 -1.9244  0.5678
  629MOL0     H84892   7.490   7.650   7.768  1.1966  1.5846 -0.6513
  629MOL0     H84893   7.299   7.837   7.641 -0.7674 -1.6350  0.5049
  629MOL0     H84894   7.477   7.853   7.640  0.3088 -0.3959  1.5394
  629MOL0     H84895   7.308   7.900   7.883 -0.1748 -0.7950  0.0764
  629MOL0     H84896   7.388   8.020   7.784 -1.0289  1.0057  2.1111
  629MOL0     H84897   8.043   7.495   7.274 -2.3955 -1.0253  0.0396
  629MOL0     H84898   8.241   7.377   7.263 -0.2358  2.9966  0.6628
  629MOL0     H84899   8.475   6.993   7.520  0.0318  2.6994  1.2748
  629MOL0     H84900   8.700   6.933   7.572  0.6006 -1.4976 -0.1564
  629MOL0     H84901   8.588   5.895   7.690 -0.0695  0.7896  0.9835
  629MOL0     H84902   8.474   5.731   7.802  0.4418  1.5132 -2.1885
  629MOL0     H84903   8.539   5.362   8.194  0.2600 -0.1202 -0.3827
  629MOL0     H84904   8.401   5.290   8.379 -1.1742  0.5025  1.1350
  629MOL0     H84905   8.264   5.265   8.523  0.9072  2.9588 -0.5736
  629MOL0     H84906   8.102   5.248   8.577  0.0769  2.4424 -0.5594
  629MOL0     H84907   8.235   5.051   8.596  2.5327  1.1354 -2.2150
  629MOL0     H84908   8.254   5.025   8.431 -1.3267 -5.7093  0.0048
  629MOL0     H84909   8.082   4.873   8.509 -2.4501 -1.0050 -1.5630
  629MOL0     H84910   8.011   4.976   8.391  0.2124 -0.7022 -0.5489
  629MOL0     H84911   7.913   5.116   8.579  1.3289  2.2332  2.8084
  629MOL0     H84912   7.986   5.019   8.704 -1.4292 -0.4841 -0.3388
  629MOL0     H84913   7.666   4.779   8.600  1.4306 -0.9154 -0.7066
  629MOL0     H84914   8.042   5.350   8.154 -0.6871 -2.8861  1.1313
  629MOL0     H84915   8.181   5.452   7.962 -1.0418  0.1861  0.2203
  630MOL0     O84916  10.133   8.784   7.746  0.1934  0.2736  0.2241
  630MOL0     C84917  10.157   8.840   7.851 -0.8642 -0.6591 -0.0097
  630MOL0     O84918  10.076   8.849   7.963 -0.4754  0.0184 -0.4820
  630MOL0     C84919   9.943   8.819   7.968  0.6630 -0.2102  0.0202
  630MOL0     C84920   9.861   8.817   7.862 -0.6469  0.1687  0.3452
  630MOL0     C84921   9.728   8.786   7.872  0.0147  0.1878 -0.3762
  630MOL0     C84922   9.677   8.754   7.994 -0.3216  0.0746 -0.1342
  630MOL0     O84923   9.547   8.717   8.003 -0.3960 -0.0803 -0.0116
  630MOL0     C84924   9.493   8.688   8.137  0.0390  0.4366  0.1334
  630MOL0     C84925   9.350   8.642   8.112 -0.3186  0.5994  0.1098
  630MOL0     C84926   9.264   8.753   8.051 -0.5525 -0.3488  0.0147
  630MOL0     C84927   9.120   8.703   8.042  0.0532 -0.6884  0.9030
  630MOL0     C84928   9.057   8.738   8.180  0.0704  1.0606 -0.1420
  630MOL0     C84929   8.900   8.713   8.191  0.9704  0.1517 -1.0872
  630MOL0     C84930   8.856   8.570   8.151 -0.8758  0.4060  0.1401
  630MOL0     C84931   8.708   8.553   8.153  0.5075 -0.7533  0.0711
  630MOL0     N84932   8.635   8.613   8.265 -0.2443 -1.1833  0.2325
  630MOL0     C84933   8.606   8.558   8.384  0.5121 -0.5277  0.1784
  630MOL0     C84934   8.533   8.649   8.447  0.0043  0.0435  0.2535
  630MOL0     C84935   8.484   8.628   8.592 -0.8387  0.2805  0.5744
  630MOL0     C84936   8.332   8.603   8.588  0.2241 -0.1911  0.6735
  630MOL0     C84937   8.251   8.723   8.542 -0.1391  0.0442 -0.2550
  630MOL0     C84938   8.100   8.702   8.562 -0.2881 -0.1663  0.2986
  630MOL0     O84939   8.048   8.589   8.489  0.2442 -0.3954  0.2030
  630MOL0     C84940   7.918   8.552   8.524 -0.7639 -0.5608  0.0207
  630MOL0     C84941   7.822   8.644   8.556  0.2202 -0.2190 -0.4580
  630MOL0     C84942   7.689   8.610   8.593 -0.2255  0.4243  0.3135
  630MOL0     C84943   7.583   8.719   8.616  0.7693 -0.2694 -0.1544
  630MOL0     C84944   7.668   8.469   8.604 -0.5073 -0.5380  0.1071
  630MOL0     C84945   7.540   8.410   8.655 -1.7695 -0.0506  0.3296
  630MOL0     O84946   7.457   8.486   8.734  0.1622  0.2541 -0.2205
  630MOL0     C84947   7.350   8.426   8.795 -0.0080  0.5588  0.3651
  630MOL0     C84948   7.338   8.300   8.857 -0.2471  0.4073  0.0621
  630MOL0     C84949   7.223   8.259   8.927  0.5114 -0.5329  0.2200
  630MOL0     C84950   7.108   8.341   8.923  0.1191  0.8771  0.0822
  630MOL0     O84951   6.992   8.311   8.987 -0.1522  0.2904 -0.3903
  630MOL0     C84952   6.986   8.179   9.044  0.4495  0.5171  0.2334
  630MOL0     C84953   6.839   8.155   9.066 -1.0829 -0.5227  0.3757
  630MOL0     C84954   6.813   8.010   9.083  0.3358  0.0557 -0.8161
  630MOL0     C84955   6.666   7.978   9.120 -0.2579  0.4188  0.1564
  630MOL0     C84956   6.637   7.825   9.129 -1.1229 -0.5499  0.6677
  630MOL0     C84957   6.498   7.812   9.182  0.0239  0.2978 -0.2713
  630MOL0     C84958   6.443   7.679   9.163  0.3130  0.5319  0.2910
  630MOL0     C84959   6.316   7.671   9.238  0.3111  0.5381 -0.5266
  630MOL0    Cl84960   6.197   7.773   9.160  0.1789 -0.3219 -0.0159
  630MOL0     C84961   7.115   8.463   8.866  0.4590  0.5800  0.6082
  630MOL0     C84962   7.237   8.505   8.803  0.1805 -0.2671 -0.7214
  630MOL0     O84963   7.520   8.296   8.618  0.4876  0.3573 -0.2988
  630MOL0     C84964   7.771   8.372   8.572  0.6358 -0.2927  1.1231
  630MOL0     C84965   7.897   8.416   8.531  0.5091 -0.5554 -0.5618
  630MOL0     N84966   8.526   8.764   8.366  0.1696  0.0127 -0.6898
  630MOL0     N84967   8.576   8.734   8.256  0.5913 -0.3744 -0.0159
  630MOL0     C84968   9.761   8.758   8.112  0.1426  0.8131 -0.6437
  630MOL0     C84969   9.886   8.799   8.098 -0.0269 -0.4854 -0.0496
  630MOL0     C84970  10.280   8.919   7.858 -0.2067 -0.1400 -0.2817
  630MOL0     C84971  10.393   8.882   7.784  0.7591 -0.3081 -0.0088
  630MOL0     C84972  10.514   8.934   7.812 -0.7035 -1.0036 -0.2869
  630MOL0     C84973  10.530   9.030   7.916  0.5836  0.0747  0.2179
  630MOL0     O84974  10.653   9.092   7.950 -0.1687 -0.3273  0.1496
  630MOL0     C84975  10.687   9.194   7.861  0.1748  0.1584  0.6126
  630MOL0     C84976  10.839   9.227   7.862 -0.3819  0.4702  0.4423
  630MOL0     C84977  10.928   9.099   7.832  0.7176  0.1878 -0.8105
  630MOL0     C84978  11.078   9.118   7.837 -0.5962  0.4810  0.0472
  630MOL0     C84979  11.126   9.219   7.745 -0.2297  0.0384  0.6579
  630MOL0     C84980  11.184   9.303   7.680  0.2942 -0.7841 -0.6291
  630MOL0     C84981  10.409   9.079   7.978 -0.1106 -0.7987  0.4132
  630MOL0     C84982  10.287   9.031   7.947  0.0729  0.4034  0.8796
  630MOL0     H84983   9.897   8.838   7.762 -2.1437  0.3400 -0.1802
  630MOL0     H84984   9.658   8.776   7.790 -1.6197  0.5647  0.9059
  630MOL0     H84985   9.551   8.604   8.178  3.5969  2.4074 -0.4318
  630MOL0     H84986   9.498   8.772   8.206 -2.7301 -0.5975  1.7498
  630MOL0     H84987   9.350   8.558   8.041 -1.9897  0.6342  0.0422
  630MOL0     H84988   9.317   8.607   8.210  3.2577  0.8162  1.5579
  630MOL0     H84989   9.277   8.844   8.110  2.1763 -1.3355  1.0774
  630MOL0     H84990   9.295   8.774   7.948  3.1730 -1.8137  0.6962
  630MOL0     H84991   9.065   8.758   7.965 -0.0347 -1.6061  0.2951
  630MOL0     H84992   9.110   8.597   8.017  0.1279 -0.5417  0.2551
  630MOL0     H84993   9.109   8.685   8.260  0.3139  0.4424 -0.7046
  630MOL0     H84994   9.085   8.841   8.203 -0.1612  1.7835 -2.8416
  630MOL0     H84995   8.869   8.735   8.294 -0.6085 -1.8442 -1.0771
  630MOL0     H84996   8.848   8.791   8.134 -1.0868  0.9581  1.6306
  630MOL0     H84997   8.894   8.533   8.055 -1.1298 -1.6720  0.8001
  630MOL0     H84998   8.900   8.509   8.230 -0.1974 -0.5109 -0.9163
  630MOL0     H84999   8.697   8.444   8.149  1.0857 -0.8443  0.7099
  630MOL0     H85000   8.665   8.599   8.064  1.1787 -1.0526 -0.4080
  630MOL0     H85001   8.638   8.463   8.425  1.0528  0.2688  1.7085
  630MOL0     H85002   8.534   8.541   8.634  0.1221  0.7155  0.3537
  630MOL0     H85003   8.510   8.716   8.653 -2.5619  0.7664  0.6681
  630MOL0     H85004   8.299   8.557   8.682  1.5340  1.4532  2.0137
  630MOL0     H85005   8.308   8.520   8.522  1.2000 -1.3520  1.7242
  630MOL0     H85006   8.270   8.740   8.436 -0.4613  3.1063  0.0931
  630MOL0     H85007   8.280   8.811   8.601 -0.1676 -1.6232  2.4111
  630MOL0     H85008   8.046   8.790   8.525 -1.3794 -0.1344  1.8542
  630MOL0     H85009   8.080   8.692   8.669  1.2455 -1.9946  0.4615
  630MOL0     H85010   7.849   8.749   8.564  0.8065 -0.4546  1.0155
  630MOL0     H85011   7.536   8.708   8.714 -0.4094  1.6277 -0.4516
  630MOL0     H85012   7.629   8.818   8.615  2.9296 -1.2267 -0.6515
  630MOL0     H85013   7.506   8.712   8.538 -0.1479  1.2755  0.5595
  630MOL0     H85014   7.415   8.224   8.860 -1.6149 -1.2985 -2.9729
  630MOL0     H85015   7.232   8.161   8.972  1.0853 -0.5931 -0.0099
  630MOL0     H85016   7.020   8.109   8.968 -2.6924  0.4333 -1.2560
  630MOL0     H85017   7.043   8.191   9.137 -0.3809  0.0544  0.8077
  630MOL0     H85018   6.814   8.201   9.162  2.1087 -0.7317  1.4253
  630MOL0     H85019   6.782   8.195   8.981 -2.0134 -2.1166  0.1997
  630MOL0     H85020   6.874   7.977   9.167  1.2708  1.7396 -0.8006
  630MOL0     H85021   6.844   7.953   8.995 -0.6559  1.2143 -1.9486
  630MOL0     H85022   6.642   8.041   9.207  5.0278  0.8147  1.6749
  630MOL0     H85023   6.604   8.018   9.039 -0.3990  1.1886  0.6309
  630MOL0     H85024   6.710   7.780   9.197  0.0994  0.6266  0.1690
  630MOL0     H85025   6.652   7.775   9.033  2.6303  1.0194  0.2560
  630MOL0     H85026   6.503   7.829   9.289 -1.6405 -1.5545  0.1633
  630MOL0     H85027   6.438   7.895   9.145 -1.4927 -0.9366 -0.6840
  630MOL0     H85028   6.508   7.602   9.207  0.3177 -0.6844 -1.7283
  630MOL0     H85029   6.430   7.645   9.060 -1.6825 -0.5377  0.8392
  630MOL0     H85030   6.321   7.693   9.345  0.9500 -3.2543  0.3886
  630MOL0     H85031   6.277   7.569   9.233 -1.7506  1.3291 -1.6767
  630MOL0     H85032   7.020   8.515   8.881 -0.8455 -1.4453 -0.2179
  630MOL0     H85033   7.256   8.604   8.764  0.6496 -0.1668 -0.2551
  630MOL0     H85034   7.773   8.268   8.602  0.4102  0.7938  5.7173
  630MOL0     H85035   7.978   8.348   8.507  0.9929  0.1494 -0.9459
  630MOL0     H85036   9.724   8.743   8.213  1.3165  1.2998 -0.1233
  630MOL0     H85037   9.953   8.805   8.183 -0.0712 -0.6300 -0.0043
  630MOL0     H85038  10.388   8.800   7.714  1.1449 -1.8281  1.6529
  630MOL0     H85039  10.602   8.907   7.754 -0.7944 -1.4012 -0.2431
  630MOL0     H85040  10.656   9.180   7.756 -0.3848  3.9587  0.1367
  630MOL0     H85041  10.626   9.283   7.880 -0.5555 -0.0440 -0.6076
  630MOL0     H85042  10.863   9.263   7.962  0.1010 -1.6582  1.1604
  630MOL0     H85043  10.860   9.302   7.785 -2.1507 -0.1831 -0.7333
  630MOL0     H85044  10.899   9.060   7.734  0.1063 -0.0812 -0.5293
  630MOL0     H85045  10.905   9.023   7.907  1.4652 -0.0864 -0.8461
  630MOL0     H85046  11.126   9.025   7.806  0.2804  1.0271 -0.2578
  630MOL0     H85047  11.104   9.141   7.941 -1.0869 -0.6842  0.4377
  630MOL0     H85048  11.238   9.381   7.630  2.2413  0.2487  2.8173
  630MOL0     H85049  10.414   9.165   8.044  0.4449  0.1469 -0.8154
  630MOL0     H85050  10.197   9.067   7.996  0.0699  0.1582  1.0581
  631MOL0     O85051   1.008   6.038   0.876 -0.8596  0.4646  0.6085
  631MOL0     C85052   1.079   6.065   0.965  0.3152 -0.1006  0.5724
  631MOL0     O85053   1.032   6.107   1.087 -0.2992  0.0711 -0.2434
  631MOL0     C85054   0.900   6.113   1.093 -0.1106  0.2545  0.0617
  631MOL0     C85055   0.819   6.198   1.014 -0.6242 -0.8792  0.0736
  631MOL0     C85056   0.682   6.206   1.027 -0.2124 -0.1977  0.0361
  631MOL0     C85057   0.621   6.127   1.117  0.2412 -1.0839  0.1049
  631MOL0     O85058   0.487   6.134   1.142 -0.3981  0.7956  0.0891
  631MOL0     C85059   0.407   6.189   1.046 -0.0634 -0.5449  1.0444
  631MOL0     C85060   0.260   6.187   1.098  0.2521  0.1055  0.1313
  631MOL0     C85061   0.177   6.295   1.017  0.6283  0.1630 -0.4433
  631MOL0     C85062   0.061   6.337   1.095 -0.0512  0.8950 -0.5734
  631MOL0     C85063  -0.061   6.243   1.114 -0.1020 -0.8710  0.4451
  631MOL0     C85064  -0.150   6.285   1.225  0.2276 -0.6380  0.5028
  631MOL0     C85065  -0.242   6.400   1.186  0.8831  0.2838 -0.6526
  631MOL0     C85066  -0.355   6.414   1.291 -0.1371  0.1726  0.4965
  631MOL0     N85067  -0.472   6.514   1.267 -0.2128  0.3214 -0.4671
  631MOL0     C85068  -0.469   6.634   1.328  0.2936 -0.3854  0.5294
  631MOL0     C85069  -0.548   6.715   1.256 -0.3547 -0.1995  0.0959
  631MOL0     C85070  -0.593   6.858   1.296  0.7978  0.2964  0.4198
  631MOL0     C85071  -0.738   6.844   1.362 -0.8392  0.6185 -0.1789
  631MOL0     C85072  -0.791   6.981   1.412  0.8783  0.4975 -0.1347
  631MOL0     C85073  -0.924   6.955   1.491  0.0133 -0.6678  0.0736
  631MOL0     O85074  -1.028   6.941   1.399 -0.1211  0.4456  0.4206
  631MOL0     C85075  -1.161   6.941   1.446 -1.4920 -0.1636 -0.0348
  631MOL0     C85076  -1.194   6.894   1.575  0.4528  0.0456  0.7004
  631MOL0     C85077  -1.324   6.898   1.624  0.5105  0.2770 -0.1543
  631MOL0     C85078  -1.354   6.860   1.771 -0.2268 -0.2296 -0.3169
  631MOL0     C85079  -1.426   6.944   1.532  0.7435 -1.0072 -0.6799
  631MOL0     C85080  -1.568   6.954   1.566 -0.1989 -0.3151  0.5319
  631MOL0     O85081  -1.639   7.052   1.511  0.1587 -0.0901  1.8102
  631MOL0     C85082  -1.777   7.045   1.520 -0.1866  0.1282 -0.5249
  631MOL0     C85083  -1.856   6.996   1.416  0.5588 -0.0111 -0.2309
  631MOL0     C85084  -1.992   6.988   1.435  0.1644  0.2577  0.4024
  631MOL0     C85085  -2.062   7.038   1.538  0.7294  0.4409  0.8735
  631MOL0     O85086  -2.199   7.045   1.548 -0.1964  0.3333  0.4772
  631MOL0     C85087  -2.274   7.061   1.424  0.6671  0.0134 -0.0147
  631MOL0     C85088  -2.373   7.177   1.449  0.1520 -0.5186 -0.0855
  631MOL0     C85089  -2.502   7.111   1.486  0.3109 -0.4499  0.3872
  631MOL0     C85090  -2.609   7.222   1.507 -0.1769 -0.4420  0.4402
  631MOL0     C85091  -2.667   7.279   1.371 -0.2783 -0.6799 -0.1347
  631MOL0     C85092  -2.796   7.366   1.386 -0.7014  0.3476  0.0747
  631MOL0     C85093  -2.921   7.283   1.413  0.0035 -0.2432 -0.9874
  631MOL0     C85094  -2.934   7.173   1.305  0.5557 -0.5919 -0.4711
  631MOL0    Cl85095  -3.087   7.083   1.331  0.0881  0.2258  0.0118
  631MOL0     C85096  -1.987   7.096   1.639 -0.0745  0.6435  0.8296
  631MOL0     C85097  -1.841   7.099   1.632  0.0188 -0.3971 -0.3419
  631MOL0     O85098  -1.611   6.869   1.637 -0.1280  0.4953  0.4597
  631MOL0     C85099  -1.390   6.988   1.399  0.2803 -0.1271 -0.5524
  631MOL0     C85100  -1.255   6.986   1.358  0.3641  0.2533 -0.3263
  631MOL0     N85101  -0.590   6.649   1.144  0.0570 -0.0119  0.1835
  631MOL0     N85102  -0.544   6.528   1.151 -1.3455 -0.8391 -0.7276
  631MOL0     C85103   0.696   6.041   1.195 -0.9096 -0.1593 -0.4773
  631MOL0     C85104   0.832   6.025   1.180 -0.6733  0.0427 -1.2809
  631MOL0     C85105   1.217   6.043   0.951  0.3239  0.7161 -0.0232
  631MOL0     C85106   1.307   6.096   1.041  0.1134 -0.8032 -0.4484
  631MOL0     C85107   1.446   6.074   1.031  0.0921  0.3144 -0.1794
  631MOL0     C85108   1.503   6.008   0.925 -0.8831  0.4491  0.1573
  631MOL0     O85109   1.637   5.987   0.898 -0.2437  1.0263 -0.0507
  631MOL0     C85110   1.734   6.050   0.975  0.1834  0.8834  0.2020
  631MOL0     C85111   1.876   6.006   0.943 -0.8759  0.0702 -0.0786
  631MOL0     C85112   1.987   6.073   1.018 -0.5719 -0.2018 -0.0025
  631MOL0     C85113   2.128   6.032   0.954 -0.5156  0.1281  0.1005
  631MOL0     C85114   2.234   6.091   1.039  0.5935  0.2575  1.1525
  631MOL0     C85115   2.311   6.144   1.110 -0.4425  0.0744 -0.0811
  631MOL0     C85116   1.411   5.962   0.830 -0.1355 -0.0846  0.8087
  631MOL0     C85117   1.266   5.972   0.843 -0.5509  0.0317  0.0001
  631MOL0     H85118   0.871   6.268   0.950 -0.3138 -0.2511  0.9941
  631MOL0     H85119   0.632   6.282   0.968 -1.6538 -2.0107 -1.1785
  631MOL0     H85120   0.431   6.294   1.029  0.6617 -0.8885 -0.2312
  631MOL0     H85121   0.424   6.136   0.951  1.8878  1.6742  0.0655
  631MOL0     H85122   0.208   6.091   1.104  0.2355  0.1553  0.7954
  631MOL0     H85123   0.268   6.230   1.198  0.8671  2.7622 -0.9696
  631MOL0     H85124   0.246   6.378   0.999  1.1538  0.3026  1.9067
  631MOL0     H85125   0.134   6.253   0.925  0.2396  0.0215 -0.2023
  631MOL0     H85126   0.089   6.357   1.199 -0.1713 -1.5139 -0.0264
  631MOL0     H85127   0.041   6.433   1.047  0.2265  0.3779 -1.7574
  631MOL0     H85128  -0.109   6.215   1.019 -0.2753 -2.8771  1.0776
  631MOL0     H85129  -0.022   6.150   1.155 -3.8065 -2.8862 -0.1251
  631MOL0     H85130  -0.216   6.203   1.258 -0.0792  0.2505  2.2322
  631MOL0     H85131  -0.089   6.305   1.314 -1.3621  0.3795  1.4242
  631MOL0     H85132  -0.183   6.492   1.191  0.4319  0.5585 -0.2043
  631MOL0     H85133  -0.289   6.391   1.088 -0.0347  1.6636 -0.3746
  631MOL0     H85134  -0.304   6.442   1.384  0.3679  2.0534 -0.3014
  631MOL0     H85135  -0.401   6.315   1.297 -0.4999  0.4033  2.4167
  631MOL0     H85136  -0.426   6.664   1.423 -1.9940 -1.5761  2.0116
  631MOL0     H85137  -0.523   6.896   1.370 -1.3005  1.0061  2.1671
  631MOL0     H85138  -0.589   6.934   1.218  1.6232 -0.8825 -0.7251
  631MOL0     H85139  -0.725   6.769   1.440 -1.6303  1.6436  0.9800
  631MOL0     H85140  -0.816   6.806   1.294 -1.8970 -0.8329  1.7529
  631MOL0     H85141  -0.808   7.052   1.331  0.0419  5.0053  3.6187
  631MOL0     H85142  -0.719   7.022   1.483 -0.1755  2.3248 -0.0855
  631MOL0     H85143  -0.954   7.024   1.570  0.0948 -0.3323 -0.1869
  631MOL0     H85144  -0.917   6.859   1.544  0.3837 -0.6408  0.0772
  631MOL0     H85145  -1.123   6.841   1.637 -0.6219 -0.8241  1.2082
  631MOL0     H85146  -1.412   6.931   1.830  0.9536 -0.4102  1.1322
  631MOL0     H85147  -1.414   6.768   1.768 -2.6586  1.2982 -1.0798
  631MOL0     H85148  -1.259   6.836   1.820  0.7437  0.3255 -1.8236
  631MOL0     H85149  -1.809   6.961   1.325  1.6082 -1.8964  0.9521
  631MOL0     H85150  -2.047   6.952   1.348 -0.0214 -0.2494  0.7296
  631MOL0     H85151  -2.206   7.091   1.344  1.1678 -1.4069 -0.1450
  631MOL0     H85152  -2.322   6.967   1.398 -1.4851  1.1369 -0.3700
  631MOL0     H85153  -2.345   7.239   1.535  0.3718  0.2856 -0.7244
  631MOL0     H85154  -2.382   7.237   1.358 -0.9631  1.5696  1.3216
  631MOL0     H85155  -2.477   7.057   1.578 -0.0103 -0.5816  0.3977
  631MOL0     H85156  -2.539   7.048   1.405  1.4042 -2.0700  1.0919
  631MOL0     H85157  -2.691   7.177   1.563  1.4351  0.6213  3.9029
  631MOL0     H85158  -2.568   7.299   1.572 -0.3153  0.8800 -0.9663
  631MOL0     H85159  -2.666   7.200   1.296 -4.2496 -0.4310 -0.6611
  631MOL0     H85160  -2.597   7.351   1.327 -0.7745 -1.4711 -2.3184
  631MOL0     H85161  -2.771   7.432   1.469  1.2514 -0.0812 -0.1122
  631MOL0     H85162  -2.807   7.432   1.299  0.0018  0.7229  0.2618
  631MOL0     H85163  -3.009   7.345   1.429  1.0339  1.5634 -1.9245
  631MOL0     H85164  -2.911   7.223   1.503  0.3906  0.2132 -0.7198
  631MOL0     H85165  -2.856   7.098   1.324  0.7347 -0.2588  0.1537
  631MOL0     H85166  -2.933   7.213   1.203 -1.4949 -1.4550 -0.8740
  631MOL0     H85167  -2.029   7.146   1.727  2.2099  1.9647  1.2564
  631MOL0     H85168  -1.776   7.151   1.702  0.1459  1.8236 -2.0077
  631MOL0     H85169  -1.469   7.025   1.335  0.0672  1.4795  0.5612
  631MOL0     H85170  -1.223   7.003   1.256  0.0767 -1.6330 -0.7693
  631MOL0     H85171   0.652   5.985   1.277  1.9038 -0.6932  0.7699
  631MOL0     H85172   0.894   5.952   1.231 -2.7371 -0.5464  0.5271
  631MOL0     H85173   1.266   6.164   1.115 -0.1424  1.3101 -2.4337
  631MOL0     H85174   1.513   6.115   1.105 -1.2460 -0.4791  1.5514
  631MOL0     H85175   1.727   6.159   0.967  1.8050  1.2285  2.5213
  631MOL0     H85176   1.708   6.020   1.077 -2.9521 -2.0624 -1.2788
  631MOL0     H85177   1.897   6.005   0.836 -1.2154 -1.3502 -0.1492
  631MOL0     H85178   1.872   5.900   0.968  1.5839  0.1257  0.8384
  631MOL0     H85179   1.991   6.037   1.121 -0.7545  0.9763  0.4290
  631MOL0     H85180   1.971   6.181   1.014  2.6987  0.3581 -2.4462
  631MOL0     H85181   2.141   6.070   0.853  3.3960  1.6991  0.9876
  631MOL0     H85182   2.128   5.923   0.949  0.0041 -0.0168  2.1474
  631MOL0     H85183   2.381   6.202   1.167 -0.4128  0.0905 -0.1336
  631MOL0     H85184   1.448   5.930   0.733  1.7444 -0.7331  1.6901
  631MOL0     H85185   1.209   5.918   0.767  0.1456 -0.3505 -0.2626
  632MOL0     O85186   3.634   9.998   5.141  0.0286 -0.0695 -0.1546
  632MOL0     C85187   3.695  10.079   5.203  0.1835 -0.4026 -0.6514
  632MOL0     O85188   3.701  10.209   5.172  0.1666  0.0855  0.1939
  632MOL0     C85189   3.632  10.261   5.061  0.0719  0.1000  0.2659
  632MOL0     C85190   3.695  10.355   4.984 -0.6832 -0.8443  0.1979
  632MOL0     C85191   3.632  10.396   4.871 -0.3919  1.0291 -0.1605
  632MOL0     C85192   3.507  10.362   4.836 -0.9150 -0.5235  0.7206
  632MOL0     O85193   3.464  10.403   4.707 -0.2028  0.7462 -0.5848
  632MOL0     C85194   3.330  10.371   4.669 -0.5547 -0.6459 -0.2385
  632MOL0     C85195   3.300  10.429   4.538 -0.3433  0.0135  0.2592
  632MOL0     C85196   3.152  10.418   4.497  0.2308  0.0342  0.2566
  632MOL0     C85197   3.074  10.547   4.540  0.1485 -1.2980  0.2624
  632MOL0     C85198   2.923  10.509   4.552 -1.3606 -0.4448  0.1665
  632MOL0     C85199   2.871  10.469   4.409  0.2471 -0.6543 -0.6326
  632MOL0     C85200   2.720  10.433   4.431 -0.4827  0.0658  0.4981
  632MOL0     C85201   2.713  10.287   4.490  0.1493  0.8945  0.6344
  632MOL0     N85202   2.580  10.236   4.516  0.1999  0.1730  0.3332
  632MOL0     C85203   2.556  10.166   4.627  0.0388  0.0952 -0.1473
  632MOL0     C85204   2.421  10.174   4.648 -1.4092 -0.6747 -0.1171
  632MOL0     C85205   2.350  10.098   4.752 -0.9423  1.1523  0.1263
  632MOL0     C85206   2.292  10.183   4.857  0.6599  0.0941 -0.2145
  632MOL0     C85207   2.207  10.100   4.957 -0.7843  0.3127  0.4071
  632MOL0     C85208   2.077  10.174   4.975 -0.3988  0.3516 -0.2133
  632MOL0     O85209   2.007  10.083   5.061  0.0398  0.2134  0.2345
  632MOL0     C85210   1.877  10.124   5.088 -0.8382 -0.0584 -0.2427
  632MOL0     C85211   1.842  10.238   5.151  0.3891  0.1384 -1.5237
  632MOL0     C85212   1.705  10.278   5.175  0.3704 -0.0233  0.0793
  632MOL0     C85213   1.689  10.419   5.220 -0.6931  0.2967  0.1565
  632MOL0     C85214   1.603  10.195   5.128  0.0970  0.2992  0.3393
  632MOL0     C85215   1.454  10.226   5.123 -0.3384  0.2783 -0.8047
  632MOL0     O85216   1.369  10.154   5.048  0.3197 -0.5565 -0.6349
  632MOL0     C85217   1.245  10.200   5.018  0.3726 -0.2265 -0.6259
  632MOL0     C85218   1.151  10.209   5.116 -0.4085  0.6968 -0.3389
  632MOL0     C85219   1.019  10.259   5.087 -0.9803  0.4608 -0.1935
  632MOL0     C85220   0.986  10.304   4.960 -0.6804 -0.4532  1.3602
  632MOL0     O85221   0.858  10.353   4.950 -0.1235  0.4587  0.3862
  632MOL0     C85222   0.813  10.386   4.819  0.7631 -0.3068  0.3070
  632MOL0     C85223   0.669  10.427   4.859  0.1437  0.5435 -0.0882
  632MOL0     C85224   0.577  10.459   4.741 -0.3337 -0.0032 -0.5047
  632MOL0     C85225   0.434  10.484   4.784  0.7690 -0.0639 -0.4630
  632MOL0     C85226   0.323  10.506   4.677  0.5204  0.2248 -0.1568
  632MOL0     C85227   0.180  10.528   4.735 -0.1839  0.6367  0.0291
  632MOL0     C85228   0.099  10.579   4.620  0.1953  0.5559 -0.0732
  632MOL0     C85229  -0.040  10.598   4.665  0.3685  0.2110  0.4623
  632MOL0    Cl85230  -0.054  10.730   4.781 -0.4426  0.3164  0.0943
  632MOL0     C85231   1.076  10.275   4.851 -0.3870 -0.4752  0.3848
  632MOL0     C85232   1.205  10.221   4.882 -0.5803 -0.1600 -0.8473
  632MOL0     O85233   1.423  10.327   5.182 -0.3201 -0.1702 -0.1789
  632MOL0     C85234   1.642  10.064   5.079 -0.4151  0.9374  0.1152
  632MOL0     C85235   1.781  10.033   5.054  0.1740 -0.4891  0.6834
  632MOL0     N85236   2.365  10.248   4.548  0.1273  0.2960 -1.1256
  632MOL0     N85237   2.457  10.276   4.465 -0.2986  0.6739 -0.9304
  632MOL0     C85238   3.428  10.295   4.933 -0.5138 -0.6990  0.1709
  632MOL0     C85239   3.497  10.232   5.037 -0.0762  0.6051  0.5149
  632MOL0     C85240   3.781  10.035   5.309  0.6615 -0.1721  0.0642
  632MOL0     C85241   3.794   9.898   5.358  0.3432  0.4183 -0.1249
  632MOL0     C85242   3.894   9.864   5.450 -0.1048 -0.2706  0.3061
  632MOL0     C85243   3.970   9.966   5.513  0.0496  0.1375 -0.7438
  632MOL0     O85244   4.065   9.934   5.608  0.0854  0.2582  0.1684
  632MOL0     C85245   4.038   9.816   5.689  0.4494  0.1555 -0.1528
  632MOL0     C85246   4.131   9.818   5.810 -0.1500  0.7805 -0.0861
  632MOL0     C85247   4.109   9.950   5.889  0.6886  0.3204 -0.1886
  632MOL0     C85248   4.201  10.066   5.837 -0.0579  0.4623  0.1798
  632MOL0     C85249   4.338  10.044   5.869 -0.5598 -0.6052 -0.4370
  632MOL0     C85250   4.459  10.022   5.881  0.8755  0.4894  0.0741
  632MOL0     C85251   3.951  10.096   5.476 -0.5975 -0.1716  0.4512
  632MOL0     C85252   3.870  10.132   5.368  0.4253  0.4147  0.7411
  632MOL0     H85253   3.799  10.378   5.001 -1.3660  2.5794  0.4028
  632MOL0     H85254   3.687  10.454   4.797 -0.4716  1.4491  0.1072
  632MOL0     H85255   3.314  10.263   4.671  0.4073 -0.7995 -0.3714
  632MOL0     H85256   3.275  10.427   4.746 -0.0832  0.9461 -1.0134
  632MOL0     H85257   3.326  10.534   4.519 -0.0211 -0.5238 -2.7720
  632MOL0     H85258   3.369  10.379   4.470  1.2043 -0.3937  2.0546
  632MOL0     H85259   3.146  10.397   4.390 -0.4197  3.8216 -0.5875
  632MOL0     H85260   3.105  10.325   4.531  0.0569 -0.8035 -2.0786
  632MOL0     H85261   3.103  10.584   4.638  2.4131  0.4801 -0.9990
  632MOL0     H85262   3.103  10.626   4.471  0.9617  0.4904  2.5162
  632MOL0     H85263   2.907  10.430   4.625  0.8130  0.4355  1.6882
  632MOL0     H85264   2.864  10.595   4.584 -0.2726 -0.2283  1.6834
  632MOL0     H85265   2.877  10.561   4.351  2.8486  1.8442  3.1773
  632MOL0     H85266   2.918  10.387   4.353 -1.3085 -1.4322 -0.8680
  632MOL0     H85267   2.661  10.500   4.495  1.0489  3.5670 -1.4577
  632MOL0     H85268   2.679  10.437   4.330  2.1976  0.0424 -0.6870
  632MOL0     H85269   2.774  10.276   4.581  1.4385  0.8227 -0.2177
  632MOL0     H85270   2.773  10.223   4.425  0.9776  1.4329  0.8536
  632MOL0     H85271   2.621  10.106   4.689 -2.7948 -1.6091  1.3823
  632MOL0     H85272   2.282  10.033   4.696  1.2995  0.6122 -2.1814
  632MOL0     H85273   2.418  10.029   4.803 -1.0004  3.2213  3.2524
  632MOL0     H85274   2.241  10.270   4.816  2.0465  1.7254  1.3594
  632MOL0     H85275   2.364  10.236   4.920 -0.4086 -0.5630  1.6506
  632MOL0     H85276   2.259  10.094   5.053  3.0183  0.1807 -1.4514
  632MOL0     H85277   2.191   9.998   4.920 -0.6777 -0.2543  1.8768
  632MOL0     H85278   2.042  10.190   4.873  4.6170  0.0374 -2.2339
  632MOL0     H85279   2.092  10.271   5.022  3.0349 -0.5814  0.9234
  632MOL0     H85280   1.914  10.315   5.176 -0.5112  0.7598 -0.7691
  632MOL0     H85281   1.655  10.485   5.140 -3.7390  2.0418  2.6334
  632MOL0     H85282   1.626  10.413   5.310  2.1761 -2.8498  2.2423
  632MOL0     H85283   1.778  10.463   5.265 -0.0156 -0.4553 -0.4175
  632MOL0     H85284   1.184  10.177   5.214  0.2880  1.8487 -0.1782
  632MOL0     H85285   0.948  10.279   5.166 -0.7150  0.9156 -0.0664
  632MOL0     H85286   0.864  10.467   4.765 -1.9257  2.0484  1.0007
  632MOL0     H85287   0.811  10.298   4.754  1.0316  0.6744 -1.0823
  632MOL0     H85288   0.616  10.356   4.923  2.7127  0.2459  1.8670
  632MOL0     H85289   0.685  10.518   4.918 -1.8928 -0.0777  1.5295
  632MOL0     H85290   0.576  10.376   4.670 -0.3635 -0.4802  0.0422
  632MOL0     H85291   0.618  10.547   4.690  2.5485 -1.6167 -1.2284
  632MOL0     H85292   0.401  10.391   4.832  3.9368 -1.2284 -0.3398
  632MOL0     H85293   0.438  10.552   4.869 -0.2923 -5.1172  4.2580
  632MOL0     H85294   0.316  10.422   4.607  1.3231  0.5248 -0.6128
  632MOL0     H85295   0.347  10.594   4.617  0.1988  1.4788  1.4689
  632MOL0     H85296   0.140  10.434   4.771  1.3495 -0.1591 -0.2359
  632MOL0     H85297   0.175  10.592   4.823 -0.4363 -0.4252  0.7965
  632MOL0     H85298   0.103  10.501   4.544 -3.6977 -0.8365  0.9063
  632MOL0     H85299   0.152  10.663   4.574 -1.8735  1.0915 -1.6599
  632MOL0     H85300  -0.086  10.510   4.710  3.3067 -1.0178  1.2993
  632MOL0     H85301  -0.093  10.628   4.574  2.4358 -1.4440 -1.3780
  632MOL0     H85302   1.054  10.300   4.748  1.8122  1.0596  0.2102
  632MOL0     H85303   1.275  10.198   4.802  0.1372  0.4962 -0.4220
  632MOL0     H85304   1.559   9.993   5.069 -1.8359  2.4631  0.6232
  632MOL0     H85305   1.807   9.942   5.002  2.3860 -0.6346  1.9134
  632MOL0     H85306   3.321  10.280   4.938 -0.5621 -0.0366  1.2638
  632MOL0     H85307   3.437  10.172   5.105 -3.6574  2.4468 -0.7587
  632MOL0     H85308   3.729   9.823   5.315  1.9295 -0.0191 -1.8823
  632MOL0     H85309   3.894   9.758   5.473  0.6305 -0.1446  0.9256
  632MOL0     H85310   3.934   9.813   5.721 -0.1829  2.5800 -1.7574
  632MOL0     H85311   4.057   9.732   5.622  2.4247 -0.5493  1.1997
  632MOL0     H85312   4.235   9.804   5.779  0.3981 -1.5716  2.4851
  632MOL0     H85313   4.096   9.738   5.875 -1.5399  1.1853 -0.3162
  632MOL0     H85314   4.145   9.940   5.992  1.4571  0.5998 -0.4236
  632MOL0     H85315   4.010   9.995   5.886  1.0429  1.1704  0.4385
  632MOL0     H85316   4.171  10.156   5.891 -2.5716 -0.0330 -0.2597
  632MOL0     H85317   4.194  10.077   5.728 -2.9593 -1.1403  0.1153
  632MOL0     H85318   4.562   9.994   5.886  1.1850  1.5593 -0.0511
  632MOL0     H85319   4.008  10.174   5.525  0.6589  1.1552 -2.8327
  632MOL0     H85320   3.857  10.236   5.340 -3.9641 -0.0670  0.4084
  633MOL0     O85321  10.066   4.346   3.080 -0.2155 -0.2406 -0.5564
  633MOL0     C85322  10.104   4.324   3.197  1.0848 -0.1852  0.0814
  633MOL0     O85323  10.028   4.324   3.310  0.2102  0.6864 -0.4646
  633MOL0     C85324   9.892   4.329   3.297  0.5425 -0.3695  0.0360
  633MOL0     C85325   9.840   4.456   3.321 -0.6094  0.1757 -0.3152
  633MOL0     C85326   9.707   4.480   3.304  0.7118  0.3168  0.3263
  633MOL0     C85327   9.630   4.374   3.252  0.0574 -0.3521 -0.3692
  633MOL0     O85328   9.489   4.401   3.229 -0.4914  0.0056 -0.4127
  633MOL0     C85329   9.412   4.344   3.119 -0.2145  0.0055 -0.8906
  633MOL0     C85330   9.263   4.382   3.125 -0.5634 -0.1973 -0.7580
  633MOL0     C85331   9.250   4.532   3.103 -0.7822  0.3237 -0.2911
  633MOL0     C85332   9.102   4.573   3.090 -0.2579  0.6224  0.5188
  633MOL0     C85333   9.089   4.698   3.010 -0.1572  0.7223 -0.4351
  633MOL0     C85334   8.945   4.755   2.993 -0.4046  0.2258  0.4055
  633MOL0     C85335   8.862   4.642   2.924 -0.2018  0.1276 -0.0555
  633MOL0     C85336   8.725   4.683   2.867  0.5351 -0.2336  0.4080
  633MOL0     N85337   8.646   4.569   2.821  0.0984  0.5878 -0.3542
  633MOL0     C85338   8.663   4.496   2.705  1.1650  0.2838  0.4126
  633MOL0     C85339   8.577   4.393   2.711 -0.4785  0.2757  0.0432
  633MOL0     C85340   8.549   4.289   2.605 -0.3628  0.6261  1.0552
  633MOL0     C85341   8.625   4.144   2.634 -0.5042 -0.3323  0.1225
  633MOL0     C85342   8.596   4.101   2.779 -0.9132  0.3582 -0.2242
  633MOL0     C85343   8.453   4.080   2.812  0.4978 -0.5450 -0.3340
  633MOL0     O85344   8.406   3.962   2.747 -0.6117 -0.1595  0.1777
  633MOL0     C85345   8.271   3.939   2.719  0.3865  0.3628 -1.0587
  633MOL0     C85346   8.224   3.827   2.648 -0.3340  0.7514  1.1083
  633MOL0     C85347   8.092   3.803   2.614  0.2962  0.2648 -0.3658
  633MOL0     C85348   8.070   3.692   2.517 -0.2386 -0.4584 -0.4458
  633MOL0     C85349   7.988   3.881   2.676 -0.0009 -0.1125 -0.4553
  633MOL0     C85350   7.845   3.843   2.657 -0.4309 -0.0883  0.4043
  633MOL0     O85351   7.802   3.781   2.543  0.3449  0.2615 -0.0061
  633MOL0     C85352   7.671   3.749   2.533  0.7720 -0.1848 -0.5451
  633MOL0     C85353   7.622   3.639   2.605  0.1175  0.5540  0.1359
  633MOL0     C85354   7.483   3.619   2.606  0.1070 -0.0140 -0.0362
  633MOL0     C85355   7.392   3.693   2.530  0.6312  0.4800 -0.1441
  633MOL0     O85356   7.258   3.682   2.559 -0.7036 -0.4636 -0.5913
  633MOL0     C85357   7.190   3.566   2.511  0.3224 -0.8455  0.0920
  633MOL0     C85358   7.042   3.570   2.563 -0.0521  0.4217 -0.2257
  633MOL0     C85359   6.956   3.464   2.493 -0.1497  0.1036  0.4146
  633MOL0     C85360   6.815   3.465   2.527 -0.2328 -0.5213 -0.0523
  633MOL0     C85361   6.747   3.387   2.422  0.5686  0.6325  0.2161
  633MOL0     C85362   6.610   3.339   2.472  0.5376 -0.3282 -0.6913
  633MOL0     C85363   6.577   3.195   2.429  0.5308 -0.0767  0.5586
  633MOL0     C85364   6.450   3.153   2.511  0.2888  0.0762  0.5189
  633MOL0    Cl85365   6.286   3.228   2.435 -1.0168  0.4174  0.2232
  633MOL0     C85366   7.439   3.804   2.457  0.0496  0.0053 -0.1221
  633MOL0     C85367   7.582   3.832   2.463 -0.2909 -0.2300 -0.0260
  633MOL0     O85368   7.773   3.880   2.753  0.6725  0.4511 -0.6844
  633MOL0     C85369   8.036   3.985   2.757  0.3367 -0.8544  0.8947
  633MOL0     C85370   8.170   4.020   2.781 -0.8316 -0.3698  0.4537
  633MOL0     N85371   8.502   4.405   2.825  0.8618 -0.6306 -0.5190
  633MOL0     N85372   8.541   4.509   2.891  0.7659 -0.5358  0.1570
  633MOL0     C85373   9.681   4.244   3.227 -0.4079  0.7695 -0.0244
  633MOL0     C85374   9.814   4.221   3.255 -0.1399  0.2711 -0.6232
  633MOL0     C85375  10.237   4.270   3.211 -0.0369  0.2013 -0.4354
  633MOL0     C85376  10.321   4.263   3.098  0.5927 -1.1554 -0.1923
  633MOL0     C85377  10.456   4.209   3.108  0.6967 -0.4767  0.2450
  633MOL0     C85378  10.508   4.160   3.229 -0.8354 -1.1263  0.1623
  633MOL0     O85379  10.633   4.102   3.221  0.1782 -0.0738  0.2346
  633MOL0     C85380  10.668   3.993   3.302  0.4152  0.2981 -0.0272
  633MOL0     C85381  10.582   3.866   3.264 -0.4982 -0.6386  0.3544
  633MOL0     C85382  10.654   3.798   3.153  0.0885  0.3761  0.5203
  633MOL0     C85383  10.584   3.689   3.079 -0.3819  0.4891  0.2353
  633MOL0     C85384  10.590   3.559   3.154 -0.5646  0.0821  0.8140
  633MOL0     C85385  10.601   3.467   3.234 -0.1322 -0.4967 -1.2180
  633MOL0     C85386  10.425   4.180   3.339 -0.3532  0.7051 -0.2993
  633MOL0     C85387  10.293   4.232   3.332  0.0896  0.5425  1.2680
  633MOL0     H85388   9.909   4.538   3.340  1.4856 -0.9401 -2.4964
  633MOL0     H85389   9.674   4.582   3.316 -0.1762  0.4413 -2.3852
  633MOL0     H85390   9.456   4.376   3.024 -1.7458  1.6207 -1.1187
  633MOL0     H85391   9.406   4.235   3.126  0.3919 -0.0141 -0.5675
  633MOL0     H85392   9.210   4.326   3.048 -1.3521 -2.1169  1.0702
  633MOL0     H85393   9.223   4.356   3.224  0.3653  0.5396 -0.1633
  633MOL0     H85394   9.283   4.587   3.191  0.8521  1.2660 -1.4434
  633MOL0     H85395   9.309   4.569   3.019  0.6950  2.2355  1.4911
  633MOL0     H85396   9.043   4.495   3.039 -1.9041  0.4731  2.5015
  633MOL0     H85397   9.050   4.598   3.183 -0.7725 -0.1302  0.4446
  633MOL0     H85398   9.142   4.775   3.068 -0.3966 -0.6135  1.6681
  633MOL0     H85399   9.135   4.681   2.913  0.8601 -0.6980  0.2738
  633MOL0     H85400   8.894   4.787   3.084 -1.3609  3.3036 -1.0699
  633MOL0     H85401   8.945   4.835   2.919 -1.1221  0.5367  0.7267
  633MOL0     H85402   8.920   4.596   2.844  0.8378 -1.9526  1.7830
  633MOL0     H85403   8.843   4.562   2.996 -1.1125  0.2348 -0.1675
  633MOL0     H85404   8.730   4.743   2.776 -1.7466 -1.4751 -0.6325
  633MOL0     H85405   8.676   4.737   2.948  0.0246  0.6210 -0.4448
  633MOL0     H85406   8.731   4.527   2.625  1.7196 -3.0637 -0.5785
  633MOL0     H85407   8.441   4.275   2.620 -0.0378 -2.4365  1.2668
  633MOL0     H85408   8.576   4.320   2.504 -1.3352 -1.6209  0.0234
  633MOL0     H85409   8.731   4.167   2.620 -0.9363  2.0480  0.3307
  633MOL0     H85410   8.607   4.056   2.572  1.4917 -3.0546  3.0908
  633MOL0     H85411   8.645   4.164   2.854 -0.7375 -0.6365  0.5262
  633MOL0     H85412   8.644   4.004   2.798  2.7143  1.6408 -1.8342
  633MOL0     H85413   8.392   4.170   2.801 -0.2142 -0.7153  1.7490
  633MOL0     H85414   8.445   4.058   2.919  4.0353 -1.7598 -0.1959
  633MOL0     H85415   8.301   3.777   2.590 -0.9125 -0.4429  1.3405
  633MOL0     H85416   8.159   3.631   2.505  0.0641 -0.6849  2.2803
  633MOL0     H85417   7.993   3.622   2.550  1.9009 -2.1523  1.2243
  633MOL0     H85418   8.045   3.723   2.415  1.8332 -0.9367 -1.1461
  633MOL0     H85419   7.682   3.568   2.661  0.2616  1.8475  1.6983
  633MOL0     H85420   7.447   3.532   2.660  0.8242  0.6647  1.5931
  633MOL0     H85421   7.204   3.570   2.403  0.2753  2.8521  0.0740
  633MOL0     H85422   7.233   3.472   2.547 -0.0808 -0.8841  0.4814
  633MOL0     H85423   7.036   3.539   2.668 -2.1772 -2.8172 -1.1562
  633MOL0     H85424   6.992   3.666   2.544 -2.1027 -0.2826  1.1997
  633MOL0     H85425   7.005   3.367   2.507  1.9619  1.0884  0.3242
  633MOL0     H85426   6.964   3.467   2.384 -1.0372 -2.6675  0.1912
  633MOL0     H85427   6.801   3.424   2.627 -0.0862  1.2571  0.7464
  633MOL0     H85428   6.762   3.561   2.536  0.6534  0.1470 -1.5055
  633MOL0     H85429   6.794   3.290   2.403 -2.1892 -0.5242 -1.2400
  633MOL0     H85430   6.730   3.440   2.328  0.0834 -0.4616 -0.3247
  633MOL0     H85431   6.609   3.351   2.580 -2.1286 -1.0011 -0.5780
  633MOL0     H85432   6.538   3.412   2.434  0.8749  0.1942 -0.3409
  633MOL0     H85433   6.660   3.126   2.447 -2.2931 -3.9464  0.0258
  633MOL0     H85434   6.557   3.184   2.322 -0.6607 -1.0911  0.8612
  633MOL0     H85435   6.460   3.178   2.617  0.2258  2.1905  0.0619
  633MOL0     H85436   6.466   3.044   2.510  1.8388  0.2471 -1.7726
  633MOL0     H85437   7.369   3.867   2.405  0.3162 -0.4461 -1.0497
  633MOL0     H85438   7.619   3.925   2.420  0.3890 -0.0209  0.9564
  633MOL0     H85439   7.957   4.047   2.797 -0.1835 -0.8228 -0.1538
  633MOL0     H85440   8.191   4.114   2.831 -2.2671  0.1755  0.0846
  633MOL0     H85441   9.613   4.167   3.190  0.3558 -0.5830  1.2911
  633MOL0     H85442   9.867   4.129   3.232 -2.2745 -1.6031  1.4815
  633MOL0     H85443  10.287   4.302   3.003 -0.7198 -1.1880  0.2451
  633MOL0     H85444  10.522   4.199   3.023 -1.4749 -0.6471 -1.5058
  633MOL0     H85445  10.776   3.981   3.300  0.3532 -0.8592 -3.0615
  633MOL0     H85446  10.647   4.016   3.406 -2.5964  0.0111 -0.4516
  633MOL0     H85447  10.481   3.897   3.236 -0.9890 -1.8283  0.7377
  633MOL0     H85448  10.563   3.803   3.352 -0.5560  2.6171  2.8812
  633MOL0     H85449  10.736   3.742   3.199  0.0338  2.6723  3.7343
  633MOL0     H85450  10.682   3.874   3.079 -2.2066  0.6194 -0.1597
  633MOL0     H85451  10.620   3.670   2.977  2.3392  0.3423  1.1355
  633MOL0     H85452  10.478   3.718   3.076 -0.1707  1.3620  0.9731
  633MOL0     H85453  10.616   3.389   3.306  0.0575  1.3603  0.8489
  633MOL0     H85454  10.455   4.154   3.441 -0.5310 -1.4406 -0.7393
  633MOL0     H85455  10.226   4.260   3.412 -0.9430 -0.3891  0.7495
  634MOL0     O85456   5.478   3.476   1.147  0.2689 -0.2046 -0.5377
  634MOL0     C85457   5.578   3.401   1.126 -0.0640 -0.6659 -0.9096
  634MOL0     O85458   5.565   3.281   1.064  0.5830  0.6141 -0.3087
  634MOL0     C85459   5.449   3.234   1.009 -0.1416  0.3263  0.1808
  634MOL0     C85460   5.322   3.236   1.071  0.4714  0.1749  0.5059
  634MOL0     C85461   5.215   3.173   1.017 -0.1068 -0.7053  0.4257
  634MOL0     C85462   5.224   3.107   0.896  0.0294 -0.4737  0.2322
  634MOL0     O85463   5.129   3.030   0.841  0.5666 -0.3461  0.2846
  634MOL0     C85464   5.018   2.979   0.927  0.2928  0.5643 -0.5092
  634MOL0     C85465   4.892   3.070   0.938 -0.0202 -0.4975 -0.8003
  634MOL0     C85466   4.779   2.985   1.006 -0.0833 -0.6484 -0.2397
  634MOL0     C85467   4.664   3.081   1.053  0.0181  0.9327  0.3854
  634MOL0     C85468   4.553   2.988   1.095 -0.8775  0.8005  0.0799
  634MOL0     C85469   4.433   3.065   1.141 -0.3150 -0.1663 -0.0670
  634MOL0     C85470   4.306   2.973   1.157 -0.3326 -0.2909 -0.7064
  634MOL0     C85471   4.188   3.051   1.202 -0.2590 -0.8684  0.3940
  634MOL0     N85472   4.087   2.953   1.234  0.5090  0.1901  0.2653
  634MOL0     C85473   4.060   2.879   1.349 -0.1576 -0.5767 -0.1508
  634MOL0     C85474   3.945   2.818   1.314  0.2173 -0.8632  0.1322
  634MOL0     C85475   3.868   2.746   1.414  0.7403  0.4775  0.3589
  634MOL0     C85476   3.732   2.699   1.360  0.4393  0.5397 -0.8366
  634MOL0     C85477   3.671   2.590   1.460 -0.3818 -0.1317  0.5420
  634MOL0     C85478   3.533   2.545   1.420  0.2915 -0.2715  0.6128
  634MOL0     O85479   3.470   2.459   1.520  0.5627  0.0544 -0.2806
  634MOL0     C85480   3.343   2.405   1.486  1.2854  0.3596 -0.1497
  634MOL0     C85481   3.269   2.437   1.373  0.4257  0.0482 -0.0305
  634MOL0     C85482   3.146   2.380   1.343 -0.7269  0.0355 -0.1217
  634MOL0     C85483   3.055   2.450   1.241 -0.9411 -0.3385  0.5412
  634MOL0     C85484   3.101   2.278   1.437 -0.4108  0.8472  0.7585
  634MOL0     C85485   2.976   2.204   1.426 -1.2254  0.0670  0.3596
  634MOL0     O85486   2.967   2.084   1.493  0.1107 -0.2602  0.4390
  634MOL0     C85487   2.864   1.997   1.454  0.6899 -0.4975 -0.1197
  634MOL0     C85488   2.877   1.904   1.345  0.0271 -0.6566 -0.1895
  634MOL0     C85489   2.761   1.838   1.303 -0.3988 -0.2781  0.6177
  634MOL0     C85490   2.637   1.852   1.361 -0.2398  0.2377 -0.5032
  634MOL0     O85491   2.523   1.783   1.322 -0.1547 -0.5770  0.1539
  634MOL0     C85492   2.530   1.688   1.214  0.6565  0.1616  0.0531
  634MOL0     C85493   2.403   1.613   1.196 -0.3171  0.2869  0.1254
  634MOL0     C85494   2.417   1.506   1.087  0.0017 -0.6501  0.2091
  634MOL0     C85495   2.279   1.462   1.053 -1.1057 -0.3278  0.4224
  634MOL0     C85496   2.290   1.365   0.931 -0.0702 -0.2338 -0.8793
  634MOL0     C85497   2.157   1.306   0.887  0.3028  0.1986  0.0807
  634MOL0     C85498   2.070   1.380   0.787  0.1397  0.2731 -0.1823
  634MOL0     C85499   1.956   1.301   0.733  0.4012  0.5245  0.1592
  634MOL0    Cl85500   1.831   1.264   0.864 -0.3684 -0.0588 -0.2812
  634MOL0     C85501   2.624   1.941   1.467  0.6966 -0.3179  0.5216
  634MOL0     C85502   2.735   2.020   1.514  0.6820  0.4730  0.3909
  634MOL0     O85503   2.886   2.251   1.359 -0.2841  0.0048  0.0879
  634MOL0     C85504   3.178   2.244   1.549  0.2628  1.2258 -0.1273
  634MOL0     C85505   3.290   2.315   1.571 -0.5303 -0.1662 -0.7640
  634MOL0     N85506   3.914   2.829   1.187 -0.0124 -0.7927  0.4708
  634MOL0     N85507   3.992   2.918   1.138  0.1085 -0.0801 -1.5869
  634MOL0     C85508   5.349   3.105   0.834 -0.3455 -0.2298 -0.1324
  634MOL0     C85509   5.463   3.160   0.892  0.0135  0.7116  1.1576
  634MOL0     C85510   5.722   3.437   1.160 -0.2358  0.3591  0.6868
  634MOL0     C85511   5.839   3.351   1.156 -0.0164 -0.1568  0.1662
  634MOL0     C85512   5.964   3.402   1.200 -0.8346 -0.0648 -0.3263
  634MOL0     C85513   5.974   3.537   1.239  0.2287 -1.1932 -0.5541
  634MOL0     O85514   6.092   3.579   1.307 -0.1748  0.1802  0.0738
  634MOL0     C85515   6.101   3.709   1.369  0.5206  0.2777  0.2300
  634MOL0     C85516   6.040   3.703   1.503  0.5224  0.4732 -0.2994
  634MOL0     C85517   6.100   3.809   1.603  0.7176  0.3155  1.1636
  634MOL0     C85518   6.054   3.955   1.579  0.0067  0.2815 -0.6379
  634MOL0     C85519   6.109   4.051   1.681 -0.2271 -0.0980 -0.5503
  634MOL0     C85520   6.159   4.128   1.762  0.0208 -0.5056 -0.9729
  634MOL0     C85521   5.866   3.624   1.229 -0.2753 -0.1781 -0.3802
  634MOL0     C85522   5.745   3.574   1.186  0.4818  1.2576  0.1893
  634MOL0     H85523   5.310   3.272   1.173 -1.0581 -1.7466  1.0718
  634MOL0     H85524   5.122   3.161   1.072 -0.1862 -0.3152  0.3751
  634MOL0     H85525   4.978   2.898   0.864 -1.7237 -1.2914  2.8545
  634MOL0     H85526   5.040   2.933   1.024 -1.1626  1.5737  0.3329
  634MOL0     H85527   4.913   3.164   0.989  0.3831  0.0464 -1.9239
  634MOL0     H85528   4.857   3.087   0.835  0.7477  0.3541 -0.9281
  634MOL0     H85529   4.750   2.909   0.932 -2.6310  0.6498 -0.6937
  634MOL0     H85530   4.821   2.935   1.094 -0.2919 -1.4757 -0.5904
  634MOL0     H85531   4.697   3.148   1.133 -1.4690  2.5029 -0.2572
  634MOL0     H85532   4.628   3.140   0.968 -1.1895  1.1811  1.0448
  634MOL0     H85533   4.533   2.921   1.011  1.6485 -0.7474  0.6319
  634MOL0     H85534   4.576   2.919   1.176  1.1063  0.6139 -0.6008
  634MOL0     H85535   4.458   3.114   1.236  3.6527 -1.0772 -0.4627
  634MOL0     H85536   4.413   3.145   1.068  2.1938  0.2430 -0.4144
  634MOL0     H85537   4.283   2.923   1.063 -1.9358  0.0394 -0.5328
  634MOL0     H85538   4.344   2.899   1.227  0.5733  0.5820 -0.2508
  634MOL0     H85539   4.153   3.125   1.128  0.6089  0.2800  1.0938
  634MOL0     H85540   4.217   3.112   1.288 -1.1158  1.2679 -0.7523
  634MOL0     H85541   4.096   2.890   1.451 -0.1615  0.6577 -0.2718
  634MOL0     H85542   3.928   2.655   1.428 -2.6016 -2.1443 -0.7340
  634MOL0     H85543   3.853   2.800   1.507  1.5650  0.5352  0.4628
  634MOL0     H85544   3.750   2.657   1.260 -0.4057 -0.7244 -0.4934
  634MOL0     H85545   3.658   2.778   1.347 -0.0684  0.2435  0.1487
  634MOL0     H85546   3.678   2.620   1.565  1.8341 -2.8809  1.2957
  634MOL0     H85547   3.741   2.506   1.454  0.0833  0.2140  1.0036
  634MOL0     H85548   3.543   2.501   1.320 -0.9187  2.0131 -0.5738
  634MOL0     H85549   3.478   2.636   1.395  0.1872 -0.9465 -1.9449
  634MOL0     H85550   3.307   2.506   1.298  1.5771 -0.0566  0.4390
  634MOL0     H85551   3.002   2.535   1.282 -0.6208  0.6090 -0.9224
  634MOL0     H85552   3.116   2.487   1.158  0.6661 -0.9106  1.4313
  634MOL0     H85553   2.980   2.386   1.192 -1.7987  2.4075 -2.0539
  634MOL0     H85554   2.971   1.892   1.294 -0.6766 -2.5715 -1.1108
  634MOL0     H85555   2.769   1.764   1.224 -1.0194  1.1622 -0.8493
  634MOL0     H85556   2.542   1.745   1.122  0.4067  0.1519  0.0146
  634MOL0     H85557   2.610   1.616   1.236 -0.5884 -2.0455 -2.1203
  634MOL0     H85558   2.380   1.568   1.293  0.9115  1.1641  0.8493
  634MOL0     H85559   2.328   1.686   1.164 -0.4588 -0.4178 -1.2238
  634MOL0     H85560   2.483   1.427   1.125  0.2063 -0.4969  0.1760
  634MOL0     H85561   2.463   1.539   0.993 -1.3806 -0.0702 -0.2858
  634MOL0     H85562   2.219   1.419   1.133 -1.8342  3.1235  1.9003
  634MOL0     H85563   2.222   1.546   1.013  0.3819  1.1313  1.2440
  634MOL0     H85564   2.351   1.284   0.972  0.2477  1.3920  2.1415
  634MOL0     H85565   2.337   1.417   0.848  1.1513  0.5658  0.2770
  634MOL0     H85566   2.180   1.209   0.842  4.7260  1.1433 -0.1300
  634MOL0     H85567   2.093   1.309   0.976  1.1478  0.2648  0.6955
  634MOL0     H85568   2.128   1.412   0.700 -0.7449 -0.1782 -0.9595
  634MOL0     H85569   2.029   1.472   0.829  1.7944 -0.3599  3.1576
  634MOL0     H85570   1.992   1.217   0.672 -1.4977  1.0250 -1.7573
  634MOL0     H85571   1.907   1.369   0.663  0.3529  0.4123  0.0841
  634MOL0     H85572   2.531   1.963   1.519  0.4998  0.6346 -0.1900
  634MOL0     H85573   2.727   2.093   1.594 -0.7771 -0.2407  0.9215
  634MOL0     H85574   3.149   2.158   1.609 -2.5711  3.5834  2.1513
  634MOL0     H85575   3.341   2.287   1.663 -2.1635 -2.2761 -0.4330
  634MOL0     H85576   5.360   3.053   0.739 -3.5363 -0.1667 -0.6602
  634MOL0     H85577   5.558   3.144   0.841 -0.3140 -0.8180  0.9595
  634MOL0     H85578   5.839   3.247   1.125  0.9566 -0.1269  0.0264
  634MOL0     H85579   6.057   3.348   1.185  0.1054  0.7323  2.1248
  634MOL0     H85580   6.208   3.734   1.374  0.7817 -0.8207  0.2490
  634MOL0     H85581   6.064   3.794   1.310  0.5462 -0.0647 -0.2838
  634MOL0     H85582   6.060   3.600   1.533 -0.5495 -0.1205 -1.5221
  634MOL0     H85583   5.931   3.710   1.492  0.5701 -1.2345 -2.3599
  634MOL0     H85584   6.209   3.816   1.594  0.4439  3.0038 -2.8186
  634MOL0     H85585   6.070   3.791   1.706 -0.7053  0.3801  0.7860
  634MOL0     H85586   5.945   3.956   1.580 -0.0119  0.7566 -1.7727
  634MOL0     H85587   6.097   3.985   1.483 -1.5186  1.3973 -1.0077
  634MOL0     H85588   6.203   4.172   1.849 -0.7419 -0.2081 -0.7288
  634MOL0     H85589   5.885   3.730   1.241 -0.6705  0.1498 -2.2727
  634MOL0     H85590   5.663   3.644   1.190  0.1401  1.1336 -2.4841
  635MOL0     O85591  10.020   7.897   6.554  0.5711 -0.4420  0.3214
  635MOL0     C85592  10.108   7.815   6.570  0.1622 -0.2751 -0.8991
  635MOL0     O85593  10.090   7.690   6.640  0.0882 -0.2791 -0.6222
  635MOL0     C85594   9.966   7.651   6.675 -0.2626  0.9516 -0.1036
  635MOL0     C85595   9.952   7.609   6.805 -0.5119  0.0557 -0.8378
  635MOL0     C85596   9.836   7.550   6.847  0.1885 -0.4751 -0.6404
  635MOL0     C85597   9.723   7.536   6.769 -0.1032 -0.7342 -0.5931
  635MOL0     O85598   9.608   7.465   6.800  0.1594 -0.2243 -0.3728
  635MOL0     C85599   9.591   7.391   6.922 -0.5309  0.7849  0.8973
  635MOL0     C85600   9.544   7.472   7.033  0.6102  0.0298 -0.2184
  635MOL0     C85601   9.402   7.526   7.033 -0.2897  0.2788 -0.0062
  635MOL0     C85602   9.315   7.399   7.040  0.5211  0.3087 -0.1672
  635MOL0     C85603   9.173   7.435   7.086  0.0092  0.0272 -0.0612
  635MOL0     C85604   9.073   7.328   7.055 -0.9056 -0.2390  0.6837
  635MOL0     C85605   9.043   7.314   6.908 -0.1502 -0.0727 -0.7355
  635MOL0     C85606   8.971   7.418   6.827  0.3718 -0.3288  0.1480
  635MOL0     N85607   8.824   7.436   6.860  0.3394 -0.0322  0.3754
  635MOL0     C85608   8.717   7.356   6.827  0.5182 -0.3770 -1.0032
  635MOL0     C85609   8.613   7.428   6.873  0.5922 -0.2385  0.6122
  635MOL0     C85610   8.475   7.387   6.865 -0.1367 -0.2595 -0.0670
  635MOL0     C85611   8.435   7.262   6.795  0.6139  0.2518  0.8936
  635MOL0     C85612   8.287   7.282   6.759  0.0310  0.2790 -0.1511
  635MOL0     C85613   8.194   7.260   6.882 -0.4237 -0.6045 -0.2739
  635MOL0     O85614   8.060   7.292   6.850  0.8678  0.1163  0.2560
  635MOL0     C85615   7.962   7.273   6.943 -0.4225  0.8437 -0.6967
  635MOL0     C85616   7.987   7.211   7.067  0.0546 -0.9611  0.9021
  635MOL0     C85617   7.874   7.175   7.145 -0.7787 -0.0138 -0.8742
  635MOL0     C85618   7.895   7.098   7.268  0.0597 -0.1606  0.5778
  635MOL0     C85619   7.742   7.206   7.100 -0.4193  0.7601 -0.7577
  635MOL0     C85620   7.618   7.168   7.177  0.6022 -0.1680  0.2630
  635MOL0     O85621   7.508   7.249   7.153 -0.0512 -0.2164 -0.6854
  635MOL0     C85622   7.386   7.209   7.206 -0.6510 -0.1410 -0.6179
  635MOL0     C85623   7.326   7.289   7.298 -0.4397  0.0934 -0.5565
  635MOL0     C85624   7.212   7.239   7.349 -0.6835 -0.5318  0.3281
  635MOL0     C85625   7.142   7.129   7.299 -0.4550 -0.0715 -0.2231
  635MOL0     O85626   7.014   7.085   7.344 -0.0389 -0.2921 -0.4400
  635MOL0     C85627   6.951   7.152   7.447 -0.0319  0.2684 -0.0035
  635MOL0     C85628   6.823   7.082   7.487 -0.5995 -0.2204 -0.4150
  635MOL0     C85629   6.776   7.125   7.629 -1.1064  0.1347 -0.2434
  635MOL0     C85630   6.644   7.055   7.654 -0.3885 -0.1913 -0.8153
  635MOL0     C85631   6.583   7.098   7.790  0.5000 -0.7135  0.7590
  635MOL0     C85632   6.443   7.037   7.819  0.1379  0.3751  0.1259
  635MOL0     C85633   6.402   7.064   7.970  0.0442 -0.4936 -0.1729
  635MOL0     C85634   6.327   6.947   8.028  0.5201  0.3451  0.3434
  635MOL0    Cl85635   6.268   6.982   8.195  0.1416  0.1239 -0.0204
  635MOL0     C85636   7.202   7.055   7.199  0.1062  1.0765 -0.5805
  635MOL0     C85637   7.329   7.098   7.154  0.2423  1.0567  1.0810
  635MOL0     O85638   7.614   7.072   7.253  0.0390 -0.0472 -0.5369
  635MOL0     C85639   7.727   7.269   6.977 -0.5856 -0.2666 -0.0694
  635MOL0     C85640   7.838   7.299   6.902  0.1420 -1.1380  0.6120
  635MOL0     N85641   8.650   7.544   6.932 -1.2765 -0.2627  0.1106
  635MOL0     N85642   8.780   7.540   6.935  0.2168  0.3046 -0.0461
  635MOL0     C85643   9.733   7.589   6.639 -0.2616 -0.6912  0.2348
  635MOL0     C85644   9.854   7.651   6.601  0.2901 -0.8153 -0.4027
  635MOL0     C85645  10.254   7.846   6.537 -0.0322 -0.2149  0.6773
  635MOL0     C85646  10.283   7.967   6.471  1.1091 -0.1717  0.2221
  635MOL0     C85647  10.404   7.995   6.410 -0.2249  0.3108  0.7113
  635MOL0     C85648  10.516   7.919   6.450 -0.7776  0.2823  1.4308
  635MOL0     O85649  10.635   7.959   6.397  0.4431 -0.1091  0.0442
  635MOL0     C85650  10.728   7.859   6.363 -0.2051 -0.9863 -0.2346
  635MOL0     C85651  10.862   7.905   6.424  0.1162  0.1231 -0.6574
  635MOL0     C85652  10.902   8.045   6.386 -0.8866 -0.1520 -0.4264
  635MOL0     C85653  10.953   8.051   6.244  0.5586  0.4070 -0.4507
  635MOL0     C85654  11.032   8.167   6.212 -0.4942  0.0944  0.1120
  635MOL0     C85655  11.112   8.264   6.204  1.2384  0.3064  0.5400
  635MOL0     C85656  10.499   7.807   6.531 -0.0497  0.1757 -0.1512
  635MOL0     C85657  10.368   7.766   6.561  0.3545 -0.3397 -0.1192
  635MOL0     H85658  10.041   7.608   6.867 -0.5227 -0.3043 -0.8284
  635MOL0     H85659   9.834   7.515   6.949 -1.7107  2.3356  0.4247
  635MOL0     H85660   9.519   7.312   6.900 -1.4951  1.4349  1.6337
  635MOL0     H85661   9.687   7.343   6.944 -0.9369 -0.3298  0.3272
  635MOL0     H85662   9.557   7.412   7.123 -2.2172  1.7712  1.5030
  635MOL0     H85663   9.608   7.560   7.028  2.5841 -1.3604 -0.6371
  635MOL0     H85664   9.387   7.593   7.119 -1.6735  0.0789 -0.0611
  635MOL0     H85665   9.373   7.580   6.943 -1.8961  2.0233  1.4573
  635MOL0     H85666   9.303   7.367   6.937  0.7593  0.7541 -0.3378
  635MOL0     H85667   9.364   7.325   7.105  0.0827  0.0793 -0.0978
  635MOL0     H85668   9.175   7.443   7.196 -1.3611 -0.5033  0.0169
  635MOL0     H85669   9.133   7.529   7.046 -0.9399  0.6647  2.1982
  635MOL0     H85670   9.101   7.235   7.107  0.5848 -0.8626 -1.1405
  635MOL0     H85671   8.976   7.359   7.095 -0.6349  1.3887  0.1493
  635MOL0     H85672   9.126   7.283   6.844 -0.2350  1.5688 -1.6873
  635MOL0     H85673   8.974   7.229   6.909  0.6273 -0.7182  0.2454
  635MOL0     H85674   8.970   7.397   6.720 -2.3827  2.2602 -0.4741
  635MOL0     H85675   9.015   7.517   6.844  0.7311 -0.5002  0.2321
  635MOL0     H85676   8.712   7.263   6.772 -0.2030 -0.3156 -1.0504
  635MOL0     H85677   8.447   7.373   6.970  0.4409 -0.1772  0.1035
  635MOL0     H85678   8.425   7.475   6.822  1.2374 -0.0175 -1.2379
  635MOL0     H85679   8.450   7.176   6.860 -0.3952 -0.5279  0.1190
  635MOL0     H85680   8.494   7.253   6.703 -3.0991 -0.0858 -1.6637
  635MOL0     H85681   8.257   7.206   6.686  1.4226 -1.4979  1.0237
  635MOL0     H85682   8.281   7.384   6.720  0.3098  1.6909  3.1480
  635MOL0     H85683   8.226   7.324   6.965  0.5862  0.0019 -1.1188
  635MOL0     H85684   8.193   7.154   6.908 -0.3863 -0.2896  1.1258
  635MOL0     H85685   8.091   7.196   7.094  0.3544 -1.1348 -0.2985
  635MOL0     H85686   8.000   7.098   7.298 -0.3463  0.5563  2.0934
  635MOL0     H85687   7.832   7.135   7.350 -1.1272  0.7113 -0.6850
  635MOL0     H85688   7.875   6.991   7.254  0.3729 -0.0571 -0.8208
  635MOL0     H85689   7.378   7.376   7.337  0.6495 -1.3549  1.4075
  635MOL0     H85690   7.178   7.288   7.440 -1.3107 -2.3296  1.1162
  635MOL0     H85691   7.015   7.163   7.534 -0.7410  1.7237  0.3574
  635MOL0     H85692   6.930   7.257   7.424  2.6001  0.5605 -1.4228
  635MOL0     H85693   6.747   7.118   7.416  1.2865 -0.7591 -2.8667
  635MOL0     H85694   6.840   6.974   7.484  1.1276 -0.0257  0.9808
  635MOL0     H85695   6.781   7.233   7.644  0.4474  0.1068 -0.4131
  635MOL0     H85696   6.858   7.086   7.690 -2.6802 -0.1620  1.7933
  635MOL0     H85697   6.571   7.084   7.578 -0.6163 -1.6913 -1.1935
  635MOL0     H85698   6.660   6.947   7.654  1.8762  0.0994 -1.3468
  635MOL0     H85699   6.565   7.206   7.793  1.5272 -0.5321  0.7320
  635MOL0     H85700   6.660   7.077   7.865  3.4259  3.1714 -0.7847
  635MOL0     H85701   6.368   7.065   7.744  0.0098 -1.3121 -0.4202
  635MOL0     H85702   6.454   6.930   7.801  1.4157  0.2923  1.2734
  635MOL0     H85703   6.339   7.153   7.974  1.4845  0.7841 -3.0505
  635MOL0     H85704   6.491   7.093   8.025  0.1385 -0.0797 -0.5424
  635MOL0     H85705   6.382   6.853   8.036 -0.9682 -0.5826 -0.0080
  635MOL0     H85706   6.242   6.932   7.962  2.0976  1.4233 -2.1181
  635MOL0     H85707   7.149   6.968   7.162 -0.8793  1.6062 -0.4435
  635MOL0     H85708   7.373   7.047   7.069 -1.4145 -0.6801  1.1973
  635MOL0     H85709   7.626   7.291   6.943  0.8780  1.9939 -3.5886
  635MOL0     H85710   7.831   7.338   6.801 -4.3443 -0.9607  0.7578
  635MOL0     H85711   9.649   7.596   6.569 -0.5210  4.6241  0.6763
  635MOL0     H85712   9.854   7.696   6.502 -2.1391  0.1009 -0.0430
  635MOL0     H85713  10.206   8.043   6.463  1.9284  0.8458  1.5247
  635MOL0     H85714  10.411   8.083   6.347 -0.3106  0.0291  0.3007
  635MOL0     H85715  10.697   7.758   6.391  0.6528 -1.3916 -0.6871
  635MOL0     H85716  10.746   7.858   6.255  0.2722  3.8377 -0.4362
  635MOL0     H85717  10.936   7.831   6.393  0.6181  0.7674 -1.0246
  635MOL0     H85718  10.851   7.909   6.533  2.5656  0.8564 -0.3772
  635MOL0     H85719  10.974   8.084   6.459 -0.1221 -3.7369  0.9191
  635MOL0     H85720  10.818   8.115   6.398  0.8072  1.7745  0.6810
  635MOL0     H85721  10.871   8.058   6.172 -1.8094  2.0234  2.1917
  635MOL0     H85722  11.013   7.960   6.229 -0.6533 -0.0897 -2.6952
  635MOL0     H85723  11.176   8.349   6.197 -2.1106  2.9348 -2.2788
  635MOL0     H85724  10.574   7.735   6.560 -2.2518 -2.0336  0.3783
  635MOL0     H85725  10.349   7.673   6.613 -0.5120 -0.8855 -1.3472
  636MOL0     O85726   4.471   4.149   6.091  0.8485  0.6677  0.3430
  636MOL0     C85727   4.539   4.112   6.184  0.4616 -0.3552 -0.0983
  636MOL0     O85728   4.496   4.041   6.295  0.2219 -0.5840  0.2223
  636MOL0     C85729   4.371   4.000   6.309  0.3443 -0.3222 -0.3542
  636MOL0     C85730   4.317   4.035   6.434 -0.4781  0.2049 -0.5410
  636MOL0     C85731   4.190   3.996   6.477 -0.4864 -0.4988  0.3604
  636MOL0     C85732   4.116   3.912   6.392 -0.7066  0.4289  0.2703
  636MOL0     O85733   3.991   3.885   6.439  0.1244  0.4574  0.0916
  636MOL0     C85734   3.933   3.783   6.372  0.0120  0.4605 -0.1103
  636MOL0     C85735   3.814   3.742   6.466  0.0009  0.6189 -0.0278
  636MOL0     C85736   3.685   3.827   6.437 -0.2962 -0.1391  0.7430
  636MOL0     C85737   3.571   3.824   6.542  0.6005 -0.4808 -1.2169
  636MOL0     C85738   3.440   3.878   6.482  0.1956  0.0262  0.1776
  636MOL0     C85739   3.318   3.859   6.576 -0.1046 -0.3064  0.6098
  636MOL0     C85740   3.193   3.828   6.499  0.1570  0.3291 -0.0269
  636MOL0     C85741   3.077   3.839   6.593  0.0012 -0.4911 -0.3972
  636MOL0     N85742   3.057   3.729   6.694  0.0141  0.1758 -0.7751
  636MOL0     C85743   2.936   3.653   6.704 -0.1255 -1.0243  0.3267
  636MOL0     C85744   2.942   3.587   6.822  0.4151 -0.5391  0.4498
  636MOL0     C85745   2.830   3.496   6.858  0.1529 -0.2018  0.2702
  636MOL0     C85746   2.698   3.556   6.912 -0.6049  0.1838 -0.4828
  636MOL0     C85747   2.639   3.666   6.832  0.6134  0.0535  0.5463
  636MOL0     C85748   2.491   3.673   6.855 -0.2051 -0.4787 -0.3949
  636MOL0     O85749   2.453   3.802   6.809  0.3619  0.5763 -0.3393
  636MOL0     C85750   2.329   3.845   6.867 -0.2865  0.0906 -0.5607
  636MOL0     C85751   2.285   3.974   6.833  0.8168  0.0255  0.2644
  636MOL0     C85752   2.162   4.016   6.865 -0.0330 -0.3216 -1.0443
  636MOL0     C85753   2.150   4.166   6.846 -0.3121  0.0882  0.3319
  636MOL0     C85754   2.079   3.947   6.946  0.0892  0.9362  0.5969
  636MOL0     C85755   1.935   3.990   6.976  0.5028 -0.0223 -0.2670
  636MOL0     O85756   1.891   4.114   6.950 -0.7930 -0.3936  0.2176
  636MOL0     C85757   1.763   4.172   6.977 -0.4378 -0.0355 -0.3129
  636MOL0     C85758   1.658   4.117   7.053  0.1793  0.1336  0.5005
  636MOL0     C85759   1.540   4.196   7.070 -0.2735  0.3362 -0.1857
  636MOL0     C85760   1.525   4.324   7.017 -0.4974  0.7336  0.0253
  636MOL0     O85761   1.420   4.397   7.050 -0.1408  0.2338  0.2415
  636MOL0     C85762   1.292   4.331   7.038  0.1743  0.8663  0.5837
  636MOL0     C85763   1.221   4.342   7.175 -0.1435  0.6503  0.1612
  636MOL0     C85764   1.169   4.488   7.191 -0.0488 -0.2558  0.3065
  636MOL0     C85765   1.121   4.498   7.336  0.8418  0.1936  0.8279
  636MOL0     C85766   1.058   4.636   7.355 -0.6104  0.0104 -0.5154
  636MOL0     C85767   1.008   4.647   7.502 -0.4756 -0.7565 -0.5634
  636MOL0     C85768   0.954   4.786   7.539  1.1154  0.1429  0.1515
  636MOL0     C85769   1.041   4.909   7.544 -0.7614  0.3096 -0.0255
  636MOL0    Cl85770   1.160   4.901   7.677  0.0802  0.0763 -0.1213
  636MOL0     C85771   1.634   4.377   6.954  0.4590  0.1649  0.6885
  636MOL0     C85772   1.748   4.301   6.931 -0.0884  0.9481 -0.9343
  636MOL0     O85773   1.864   3.908   7.037  0.0628  0.1175  0.4510
  636MOL0     C85774   2.122   3.820   6.988  0.9124  0.2508  0.1861
  636MOL0     C85775   2.249   3.771   6.954  0.5293 -0.4224 -0.2368
  636MOL0     N85776   3.053   3.622   6.891 -1.0177 -0.2977 -0.3603
  636MOL0     N85777   3.122   3.710   6.815  0.0214  0.7801 -0.1620
  636MOL0     C85778   4.173   3.863   6.271  0.2933  0.6187 -0.3320
  636MOL0     C85779   4.298   3.910   6.227 -0.4985 -0.7729 -0.4237
  636MOL0     C85780   4.689   4.139   6.183 -0.8804  0.1666  0.4006
  636MOL0     C85781   4.751   4.223   6.086 -0.2105 -0.2509  0.1131
  636MOL0     C85782   4.892   4.230   6.087 -0.9009  0.3479 -0.1710
  636MOL0     C85783   4.974   4.156   6.182  0.3570  0.0879  0.0025
  636MOL0     O85784   5.112   4.168   6.155 -0.3070 -0.7316 -0.0914
  636MOL0     C85785   5.198   4.117   6.259  0.7397  0.4619  0.3088
  636MOL0     C85786   5.217   3.968   6.247 -0.0670  0.2221  0.6178
  636MOL0     C85787   5.266   3.927   6.109  0.2413  0.3913  0.9530
  636MOL0     C85788   5.401   3.992   6.055  0.1428 -0.4783 -0.6496
  636MOL0     C85789   5.513   3.951   6.142 -1.1040 -0.1839 -0.1789
  636MOL0     C85790   5.617   3.916   6.204 -0.7165 -0.2051  0.1238
  636MOL0     C85791   4.906   4.077   6.287  0.5763  0.6905 -0.1456
  636MOL0     C85792   4.768   4.078   6.283  0.2340  0.2809  0.2192
  636MOL0     H85793   4.370   4.098   6.505  1.3263  1.2076 -2.6345
  636MOL0     H85794   4.155   4.034   6.572 -1.6707  2.6225 -1.1624
  636MOL0     H85795   3.893   3.821   6.278 -1.3930 -0.5238  0.0599
  636MOL0     H85796   3.992   3.691   6.362  0.7211  0.9268 -0.2721
  636MOL0     H85797   3.793   3.636   6.448  1.7343  0.1951  0.2376
  636MOL0     H85798   3.831   3.754   6.573 -1.9320 -2.1108  0.6798
  636MOL0     H85799   3.715   3.930   6.416 -0.9738 -0.2178 -0.7462
  636MOL0     H85800   3.634   3.794   6.346 -0.1771 -2.7291  1.5298
  636MOL0     H85801   3.549   3.719   6.567  1.4920 -0.2968  0.4752
  636MOL0     H85802   3.595   3.886   6.628 -0.6904  1.1850 -1.9869
  636MOL0     H85803   3.457   3.978   6.440 -1.8603  0.0666 -0.6842
  636MOL0     H85804   3.430   3.808   6.398  0.0019  0.1813  0.0726
  636MOL0     H85805   3.330   3.777   6.648 -3.6909 -1.5724 -0.0423
  636MOL0     H85806   3.297   3.948   6.636 -0.6582 -1.2951  1.9482
  636MOL0     H85807   3.169   3.906   6.426 -0.3484 -0.6553 -0.9398
  636MOL0     H85808   3.202   3.731   6.449 -3.9931  0.5604 -1.5469
  636MOL0     H85809   2.981   3.841   6.539 -0.8395  0.7620  1.0759
  636MOL0     H85810   3.092   3.935   6.643  3.1901 -2.0733  2.0214
  636MOL0     H85811   2.853   3.656   6.634 -1.4054 -2.5524  1.6885
  636MOL0     H85812   2.809   3.441   6.766 -2.9567  2.0882 -0.5410
  636MOL0     H85813   2.866   3.424   6.933  0.8843  2.4811  2.6854
  636MOL0     H85814   2.695   3.596   7.014 -3.5799  0.5019 -0.6046
  636MOL0     H85815   2.629   3.472   6.910 -0.6117  0.2019 -1.0169
  636MOL0     H85816   2.662   3.670   6.725  2.3660 -4.2376  0.5584
  636MOL0     H85817   2.688   3.757   6.869 -1.2645 -0.2443  4.2281
  636MOL0     H85818   2.469   3.657   6.961 -2.2749  0.3443 -0.6408
  636MOL0     H85819   2.442   3.594   6.797 -1.2864 -0.1327  0.0215
  636MOL0     H85820   2.343   4.034   6.764 -1.0329  1.0204 -0.4887
  636MOL0     H85821   2.132   4.208   6.945 -0.6546  2.5510 -0.6860
  636MOL0     H85822   2.243   4.209   6.807 -2.6209  0.4140 -6.1439
  636MOL0     H85823   2.075   4.196   6.773 -0.0694  1.1643  0.5073
  636MOL0     H85824   1.660   4.017   7.095  1.7346  0.1379  0.4909
  636MOL0     H85825   1.458   4.158   7.130 -1.7522  2.5114 -0.7185
  636MOL0     H85826   1.225   4.384   6.968  0.8930  2.1510  0.8294
  636MOL0     H85827   1.307   4.234   6.990 -0.9927  1.6866 -1.5995
  636MOL0     H85828   1.141   4.267   7.180  0.3984  0.1199  1.1543
  636MOL0     H85829   1.286   4.305   7.255 -0.4154  0.4128  0.2748
  636MOL0     H85830   1.092   4.511   7.118  1.8313  0.3269 -1.5782
  636MOL0     H85831   1.257   4.550   7.174  0.5591 -1.0118  0.6256
  636MOL0     H85832   1.047   4.420   7.354  1.4891 -0.7258 -0.3972
  636MOL0     H85833   1.199   4.483   7.411 -0.8763 -2.6972  2.2210
  636MOL0     H85834   0.969   4.655   7.295 -2.2035  1.1322  2.0401
  636MOL0     H85835   1.137   4.708   7.329 -1.2063  1.1878  0.7961
  636MOL0     H85836   0.935   4.567   7.520 -1.3864  0.1504 -0.1084
  636MOL0     H85837   1.084   4.627   7.579 -1.1613  0.3455  0.4330
  636MOL0     H85838   0.918   4.759   7.639  1.6752  0.9313  0.5782
  636MOL0     H85839   0.862   4.809   7.483  1.2659  1.4819  0.4254
  636MOL0     H85840   0.972   4.994   7.543  0.3758  1.2612  0.3142
  636MOL0     H85841   1.100   4.924   7.453 -1.0814  2.6501  0.0984
  636MOL0     H85842   1.634   4.482   6.926 -0.8516 -0.0044 -0.0414
  636MOL0     H85843   1.833   4.344   6.878  0.2490 -0.6270 -1.7402
  636MOL0     H85844   2.060   3.757   7.050 -1.0840 -0.5100 -2.4372
  636MOL0     H85845   2.257   3.668   6.987 -1.4157 -0.3218  0.7270
  636MOL0     H85846   4.129   3.785   6.209 -0.5430 -0.3810  1.4440
  636MOL0     H85847   4.329   3.876   6.128  2.2755 -3.0194  1.0839
  636MOL0     H85848   4.678   4.262   6.016  0.7818 -1.1026 -1.4801
  636MOL0     H85849   4.953   4.286   6.016  1.2771 -1.3681  0.2568
  636MOL0     H85850   5.300   4.157   6.260  0.8350  0.2528 -0.4697
  636MOL0     H85851   5.150   4.137   6.355 -0.5566 -0.3263 -0.1517
  636MOL0     H85852   5.121   3.924   6.274  0.4894 -0.6923  1.1793
  636MOL0     H85853   5.293   3.929   6.315 -1.0431 -0.4909  1.3298
  636MOL0     H85854   5.193   3.953   6.032  1.7984  0.1299 -0.6721
  636MOL0     H85855   5.269   3.818   6.104 -0.9198  0.2945  1.7558
  636MOL0     H85856   5.383   4.100   6.054  2.0705 -0.1050 -2.0010
  636MOL0     H85857   5.422   3.963   5.951 -1.2040 -0.0134 -1.0646
  636MOL0     H85858   5.703   3.898   6.265 -1.7115 -0.4116  1.5111
  636MOL0     H85859   4.968   4.028   6.362  1.0664  0.5284 -0.6452
  636MOL0     H85860   4.727   4.012   6.360 -1.9267  1.5844  0.2612
  637MOL0     O85861   2.264   4.129   2.412 -0.4169 -0.3059 -0.0237
  637MOL0     C85862   2.251   4.089   2.300 -0.0952 -0.3213  0.1649
  637MOL0     O85863   2.128   4.064   2.245 -0.2380  0.1442 -0.6961
  637MOL0     C85864   2.012   4.059   2.314  0.9302 -0.4160 -0.2050
  637MOL0     C85865   1.987   4.008   2.439 -0.0035  0.0186 -0.2032
  637MOL0     C85866   1.859   4.001   2.500 -0.3824 -0.3456  0.3008
  637MOL0     C85867   1.747   4.063   2.436  0.3302 -0.3697 -0.4350
  637MOL0     O85868   1.633   4.074   2.507  0.3840 -0.7073  0.6538
  637MOL0     C85869   1.516   4.080   2.423  0.2789  0.1882  0.0316
  637MOL0     C85870   1.407   4.060   2.529 -0.7541 -0.0993  0.1682
  637MOL0     C85871   1.270   4.104   2.457  0.0237  0.0216  0.5489
  637MOL0     C85872   1.153   4.072   2.541 -0.0718  0.3733 -0.5434
  637MOL0     C85873   1.005   4.105   2.490 -0.6722 -0.1590  0.3904
  637MOL0     C85874   0.911   4.052   2.590  0.8853  0.5009 -1.0908
  637MOL0     C85875   0.763   4.055   2.538 -0.6622 -0.1065  0.2235
  637MOL0     C85876   0.726   4.171   2.453  0.6273 -0.2853 -1.0903
  637MOL0     N85877   0.579   4.180   2.433 -0.6116  0.5053 -0.3493
  637MOL0     C85878   0.512   4.078   2.375 -0.1505  0.3771 -0.4262
  637MOL0     C85879   0.386   4.106   2.380  0.1856  0.4920  0.1646
  637MOL0     C85880   0.276   4.040   2.308 -0.2985  0.3717  0.5402
  637MOL0     C85881   0.142   4.069   2.380 -0.1212  0.5117 -1.0070
  637MOL0     C85882   0.027   3.999   2.307 -0.4341  0.4975  0.0278
  637MOL0     C85883  -0.102   4.027   2.377 -0.1342 -0.2774  0.9763
  637MOL0     O85884  -0.121   3.939   2.492  0.0146 -0.8486 -0.1161
  637MOL0     C85885  -0.249   3.939   2.542  0.6784  0.3789  0.5030
  637MOL0     C85886  -0.281   3.820   2.604 -0.8171  0.0931  0.2229
  637MOL0     C85887  -0.401   3.800   2.675 -0.1293  0.0368 -0.2113
  637MOL0     C85888  -0.420   3.678   2.756 -0.3128 -0.0621 -0.1733
  637MOL0     C85889  -0.505   3.897   2.665  0.0042  0.2933  0.1286
  637MOL0     C85890  -0.649   3.884   2.708 -1.0988 -0.3137 -0.5057
  637MOL0     O85891  -0.731   3.988   2.674 -0.0453 -0.3666  0.5258
  637MOL0     C85892  -0.867   3.992   2.712  0.1010 -0.5008 -0.3804
  637MOL0     C85893  -0.959   4.032   2.621  0.2674  0.6311 -0.7713
  637MOL0     C85894  -1.095   4.058   2.658  0.3725  0.4135  0.3805
  637MOL0     C85895  -1.134   4.030   2.793 -0.5570  0.1026  0.4248
  637MOL0     O85896  -1.270   4.046   2.840  0.0047 -0.1704  0.2019
  637MOL0     C85897  -1.361   4.133   2.762  0.7255  0.4252 -0.3534
  637MOL0     C85898  -1.503   4.125   2.819 -0.7442  0.0436  0.9558
  637MOL0     C85899  -1.601   4.192   2.739  0.3035 -0.4605  0.4566
  637MOL0     C85900  -1.736   4.186   2.813  0.8950 -0.8262 -0.4157
  637MOL0     C85901  -1.839   4.273   2.735  0.8088 -0.9643  0.1941
  637MOL0     C85902  -1.984   4.232   2.757 -0.4641 -0.0698 -0.3710
  637MOL0     C85903  -2.078   4.343   2.715  0.0520  0.4398 -0.4276
  637MOL0     C85904  -2.220   4.293   2.711  0.4839 -0.7925 -0.2159
  637MOL0    Cl85905  -2.283   4.269   2.877 -0.1184 -0.1355 -0.5383
  637MOL0     C85906  -1.031   3.993   2.885  0.3352  0.4557 -0.1876
  637MOL0     C85907  -0.900   3.978   2.848 -0.3360  0.2787  0.5132
  637MOL0     O85908  -0.687   3.783   2.760  0.4145 -0.6432 -0.3964
  637MOL0     C85909  -0.464   4.018   2.605 -0.1275 -0.6443 -0.2354
  637MOL0     C85910  -0.343   4.039   2.538 -0.2257  0.3788 -0.1817
  637MOL0     N85911   0.367   4.217   2.457  1.2436  0.6743 -0.5856
  637MOL0     N85912   0.486   4.264   2.491  0.2751 -0.2195  0.0925
  637MOL0     C85913   1.766   4.104   2.303  0.2153  0.1524 -0.2484
  637MOL0     C85914   1.899   4.095   2.251  0.0319 -0.1920 -0.1481
  637MOL0     C85915   2.367   4.076   2.213  0.3501  0.2945  0.1219
  637MOL0     C85916   2.358   4.025   2.085  0.2995 -0.0157  0.1101
  637MOL0     C85917   2.475   4.012   1.996  0.7091  0.3841 -0.0098
  637MOL0     C85918   2.595   4.069   2.035  0.9605  0.4528 -0.3605
  637MOL0     O85919   2.699   4.076   1.954  0.0778  0.1655 -0.3299
  637MOL0     C85920   2.830   4.065   2.011 -0.6886 -0.1558  0.7065
  637MOL0     C85921   2.917   3.991   1.913 -0.4701  0.8644 -0.1887
  637MOL0     C85922   2.995   4.084   1.828  0.2321  0.4602  0.5466
  637MOL0     C85923   3.005   4.055   1.674 -0.9826 -0.1396 -0.3592
  637MOL0     C85924   2.872   4.046   1.599  0.5776  0.5834  0.7179
  637MOL0     C85925   2.771   4.060   1.540  0.1827  0.7905 -0.3234
  637MOL0     C85926   2.606   4.122   2.166  0.3572  0.2080 -0.6335
  637MOL0     C85927   2.490   4.132   2.252 -0.1504 -0.3519  0.0895
  637MOL0     H85928   2.068   3.964   2.497  0.9256  0.8366 -0.8399
  637MOL0     H85929   1.836   3.954   2.595 -0.6245 -0.5540  0.1392
  637MOL0     H85930   1.504   4.174   2.369 -1.0263  0.7499  1.2509
  637MOL0     H85931   1.499   4.003   2.347  0.0542  1.9622 -1.7949
  637MOL0     H85932   1.389   3.958   2.563 -0.5025  0.2020  1.2662
  637MOL0     H85933   1.418   4.121   2.619  1.2956 -0.5354  0.2542
  637MOL0     H85934   1.267   4.213   2.444 -0.1536  0.1345  1.5284
  637MOL0     H85935   1.256   4.062   2.356 -2.1732 -0.8982  1.1877
  637MOL0     H85936   1.160   3.965   2.561  1.1523  0.2864 -1.2714
  637MOL0     H85937   1.172   4.120   2.637  0.7185  0.8034 -0.9022
  637MOL0     H85938   1.004   4.214   2.478 -0.3607 -0.0414  1.3415
  637MOL0     H85939   1.000   4.059   2.391  0.5970  2.1238 -0.8123
  637MOL0     H85940   0.940   3.955   2.631 -0.7020  0.7887  0.8739
  637MOL0     H85941   0.898   4.119   2.675  1.5059 -0.5631 -0.1323
  637MOL0     H85942   0.758   3.964   2.478  0.0038 -0.3162  0.4847
  637MOL0     H85943   0.691   4.050   2.620  0.4234 -1.5188  1.1299
  637MOL0     H85944   0.780   4.150   2.360 -1.5186 -2.7960 -1.8971
  637MOL0     H85945   0.763   4.265   2.494 -1.2429  0.6814 -1.4879
  637MOL0     H85946   0.548   3.989   2.323  3.2484 -0.3649  2.7898
  637MOL0     H85947   0.279   4.090   2.211  1.6701 -0.1371  0.3020
  637MOL0     H85948   0.281   3.932   2.291  0.8333  0.9798 -4.2602
  637MOL0     H85949   0.104   4.171   2.390 -2.2596 -0.3924  1.0991
  637MOL0     H85950   0.166   4.041   2.483  2.4671  2.1781 -1.0565
  637MOL0     H85951   0.030   3.890   2.303 -0.1835  0.5234 -0.6074
  637MOL0     H85952   0.030   4.036   2.204  0.7162  1.5710  0.4206
  637MOL0     H85953  -0.177   4.013   2.298  0.7363  2.4867 -0.4838
  637MOL0     H85954  -0.105   4.131   2.412  1.5932  1.9039 -4.2307
  637MOL0     H85955  -0.207   3.741   2.591 -0.0441  1.1563 -2.9637
  637MOL0     H85956  -0.447   3.696   2.860  3.1371 -1.2038  1.0655
  637MOL0     H85957  -0.497   3.611   2.718 -1.3975 -0.4374  2.4906
  637MOL0     H85958  -0.328   3.619   2.755 -0.2253 -0.0101  1.6666
  637MOL0     H85959  -0.922   4.048   2.520 -0.9632 -1.8263 -1.6902
  637MOL0     H85960  -1.170   4.084   2.584  0.5439  0.5414  0.2485
  637MOL0     H85961  -1.337   4.239   2.762 -2.5353  1.2858  1.2994
  637MOL0     H85962  -1.363   4.104   2.657  0.9169 -2.2050  0.2908
  637MOL0     H85963  -1.537   4.021   2.812  0.8324 -0.6761  3.0326
  637MOL0     H85964  -1.508   4.155   2.924  0.9546  1.3099  0.7223
  637MOL0     H85965  -1.613   4.132   2.648 -1.8730 -0.5529  0.7623
  637MOL0     H85966  -1.568   4.291   2.709 -0.5115 -0.0831  0.7657
  637MOL0     H85967  -1.773   4.083   2.817 -0.6910 -0.3392 -1.4333
  637MOL0     H85968  -1.718   4.236   2.909 -2.1847  0.4439 -0.3701
  637MOL0     H85969  -1.819   4.251   2.630  0.2196 -3.7118  0.5820
  637MOL0     H85970  -1.841   4.382   2.741 -3.6512 -0.8864  0.6983
  637MOL0     H85971  -2.000   4.144   2.693  1.6094  1.6910 -3.5938
  637MOL0     H85972  -2.004   4.209   2.862  2.0897 -3.8206 -0.5116
  637MOL0     H85973  -2.060   4.376   2.612 -0.3385 -1.6609 -1.2142
  637MOL0     H85974  -2.073   4.435   2.774 -2.3766 -0.0006  0.5987
  637MOL0     H85975  -2.228   4.199   2.656 -1.8983 -1.1788  0.6988
  637MOL0     H85976  -2.276   4.364   2.649  2.2859 -0.7348 -1.8884
  637MOL0     H85977  -1.061   3.980   2.989  1.8845 -1.3905  0.0872
  637MOL0     H85978  -0.822   3.957   2.919 -2.8646 -0.6382  3.2041
  637MOL0     H85979  -0.529   4.104   2.589  0.0117 -0.8944 -2.4912
  637MOL0     H85980  -0.329   4.140   2.502 -3.9397  0.1530 -2.8245
  637MOL0     H85981   1.693   4.139   2.231 -2.0279 -1.2994  1.1837
  637MOL0     H85982   1.910   4.124   2.147 -3.8068 -0.8682 -0.8898
  637MOL0     H85983   2.264   3.977   2.060 -0.0666  0.9737 -0.4610
  637MOL0     H85984   2.447   3.969   1.901 -0.0353 -0.8960  0.7506
  637MOL0     H85985   2.874   4.160   2.042 -3.1257  0.9306  1.0260
  637MOL0     H85986   2.829   4.007   2.104  4.0268 -0.8582  0.5639
  637MOL0     H85987   2.855   3.922   1.855  0.8640  1.6847 -2.7369
  637MOL0     H85988   2.996   3.940   1.968  0.1031 -0.5167 -2.1881
  637MOL0     H85989   3.097   4.091   1.867  1.0364  4.2765 -1.7564
  637MOL0     H85990   2.951   4.183   1.840 -0.9129 -0.0383  0.5751
  637MOL0     H85991   3.056   3.959   1.665 -1.7382 -0.6800  0.8640
  637MOL0     H85992   3.070   4.130   1.628  1.0231 -2.4844 -1.5718
  637MOL0     H85993   2.688   4.086   1.478 -0.7137 -1.1902 -0.0273
  637MOL0     H85994   2.700   4.161   2.203  1.8593 -2.4949 -1.3156
  637MOL0     H85995   2.493   4.183   2.348 -1.4815  1.2284 -0.6406
  638MOL0     O85996   2.494   4.758   6.820  0.3585  0.0702 -0.2108
  638MOL0     C85997   2.503   4.878   6.803  0.6094 -0.3695 -0.3761
  638MOL0     O85998   2.461   4.940   6.685 -0.2473  0.3915  0.7266
  638MOL0     C85999   2.397   4.855   6.597  0.7282  0.3140 -0.4580
  638MOL0     C86000   2.270   4.796   6.624  0.4083 -0.3698  0.8323
  638MOL0     C86001   2.203   4.717   6.525 -1.0831  0.5609  0.4398
  638MOL0     C86002   2.265   4.687   6.402  0.6050  0.2575  0.0235
  638MOL0     O86003   2.211   4.608   6.307  0.2053 -0.1234 -0.0551
  638MOL0     C86004   2.096   4.667   6.240  0.7114  0.4085 -0.7117
  638MOL0     C86005   2.010   4.562   6.176  0.0200  0.1775  0.8477
  638MOL0     C86006   2.068   4.515   6.036  0.1331 -0.0601 -0.7157
  638MOL0     C86007   2.014   4.375   6.001  0.1716 -1.0323  0.8966
  638MOL0     C86008   1.862   4.355   6.024 -0.3968  0.0220  0.2985
  638MOL0     C86009   1.766   4.434   5.932 -0.8360  0.7242 -0.9861
  638MOL0     C86010   1.629   4.372   5.948 -0.5942 -0.0359  0.2213
  638MOL0     C86011   1.540   4.463   5.863  0.8014  0.8622  0.1376
  638MOL0     N86012   1.402   4.434   5.882  0.7812  0.4657 -0.0338
  638MOL0     C86013   1.311   4.434   5.776  0.4214  1.1482 -0.7936
  638MOL0     C86014   1.192   4.415   5.836  0.0727 -0.3614 -0.0397
  638MOL0     C86015   1.058   4.405   5.760 -0.4305  0.3405 -1.1886
  638MOL0     C86016   0.942   4.455   5.846  0.5105 -0.1092  0.3557
  638MOL0     C86017   0.881   4.346   5.945 -0.3034 -1.0077  0.0619
  638MOL0     C86018   0.750   4.386   6.004  0.6899 -0.7212 -0.1476
  638MOL0     O86019   0.634   4.364   5.921  0.7567  0.3191  0.1357
  638MOL0     C86020   0.513   4.401   5.975  0.2478 -0.3056 -0.5171
  638MOL0     C86021   0.493   4.431   6.114 -0.4480  0.1761  0.0222
  638MOL0     C86022   0.358   4.472   6.162 -0.4740 -0.0104 -0.1987
  638MOL0     C86023   0.345   4.487   6.307  0.0205  0.7382  0.7764
  638MOL0     C86024   0.250   4.483   6.067  0.3323  0.3435 -0.0027
  638MOL0     C86025   0.108   4.521   6.110 -0.1861  0.5419  0.7386
  638MOL0     O86026   0.008   4.495   6.018 -0.3672  0.2971  0.1950
  638MOL0     C86027  -0.129   4.524   6.043  0.6269  0.3747  1.2487
  638MOL0     C86028  -0.184   4.652   6.082 -0.5766 -0.5815  0.0085
  638MOL0     C86029  -0.323   4.678   6.090  0.8812  0.2357 -0.0781
  638MOL0     C86030  -0.415   4.579   6.039 -0.8274 -0.0709  0.0178
  638MOL0     O86031  -0.543   4.617   6.063  0.2253 -0.1936  0.0571
  638MOL0     C86032  -0.652   4.522   6.054  0.8697 -0.4166 -0.0778
  638MOL0     C86033  -0.785   4.593   6.077  0.2237  0.0451 -0.6002
  638MOL0     C86034  -0.800   4.634   6.224 -0.4653  0.3470 -0.7840
  638MOL0     C86035  -0.948   4.676   6.254 -0.3734 -0.2694 -0.2637
  638MOL0     C86036  -0.954   4.712   6.408 -0.1064 -0.0770 -0.7008
  638MOL0     C86037  -1.089   4.761   6.464 -0.0519  0.9225 -0.1459
  638MOL0     C86038  -1.093   4.776   6.616  0.6596  0.7982 -0.4514
  638MOL0     C86039  -1.218   4.845   6.670 -0.7413  0.0662  0.7264
  638MOL0    Cl86040  -1.354   4.724   6.657  0.4957  0.4566 -0.0746
  638MOL0     C86041  -0.370   4.455   5.995  0.3850  0.5443 -0.0293
  638MOL0     C86042  -0.233   4.427   5.995 -0.9627 -0.8686 -0.2785
  638MOL0     O86043   0.086   4.561   6.221  0.4936 -0.1690  0.5251
  638MOL0     C86044   0.279   4.452   5.928  0.0094  0.0593 -0.4168
  638MOL0     C86045   0.404   4.420   5.884  0.4545 -0.5716  1.0288
  638MOL0     N86046   1.205   4.413   5.970 -1.1359  0.4533 -0.5103
  638MOL0     N86047   1.333   4.421   5.998  0.6859 -0.0772  0.8062
  638MOL0     C86048   2.388   4.748   6.376  0.0408  0.5635 -0.1397
  638MOL0     C86049   2.457   4.825   6.474 -0.2893 -0.3146 -0.6985
  638MOL0     C86050   2.574   4.967   6.899 -0.2480  0.3284  0.1863
  638MOL0     C86051   2.617   5.096   6.870  0.1490  0.0579  0.4263
  638MOL0     C86052   2.672   5.174   6.967 -1.0007  0.3167  0.3222
  638MOL0     C86053   2.686   5.132   7.100 -0.3798  0.3708 -0.0960
  638MOL0     O86054   2.713   5.219   7.204 -0.2717  0.6806  0.3533
  638MOL0     C86055   2.750   5.358   7.184  0.4837  0.5169  0.4128
  638MOL0     C86056   2.616   5.433   7.170  1.4905 -0.0221 -0.0360
  638MOL0     C86057   2.640   5.578   7.132  0.3403 -0.9714 -0.2349
  638MOL0     C86058   2.510   5.665   7.148  0.0514  0.3879 -0.9971
  638MOL0     C86059   2.372   5.622   7.118 -0.7579 -0.7061 -0.0199
  638MOL0     C86060   2.257   5.589   7.117  0.2014 -0.4318  0.7002
  638MOL0     C86061   2.653   5.000   7.129  0.3690  0.2522 -0.1092
  638MOL0     C86062   2.599   4.925   7.032 -0.0448  0.7040  0.7978
  638MOL0     H86063   2.217   4.798   6.719 -0.0201 -1.1799  0.6214
  638MOL0     H86064   2.104   4.675   6.536 -0.5480 -1.0826 -0.7085
  638MOL0     H86065   2.034   4.730   6.305  0.8885  1.2806 -1.3829
  638MOL0     H86066   2.126   4.741   6.166  0.9363 -1.6894 -2.8652
  638MOL0     H86067   1.993   4.482   6.249  1.0524 -0.1916  0.7037
  638MOL0     H86068   1.913   4.607   6.149 -0.1382 -1.2606 -1.2719
  638MOL0     H86069   2.043   4.590   5.961  3.4212 -0.9889 -2.9946
  638MOL0     H86070   2.177   4.520   6.044 -0.0505  3.1297  1.6589
  638MOL0     H86071   2.034   4.353   5.896  1.2775 -1.4170  1.1751
  638MOL0     H86072   2.058   4.293   6.058  0.6483 -1.1740  0.3407
  638MOL0     H86073   1.854   4.249   5.997  0.7134 -0.0257  0.1322
  638MOL0     H86074   1.834   4.362   6.129  0.4458  4.7820  0.4377
  638MOL0     H86075   1.787   4.540   5.951  0.1831  0.5224 -0.9235
  638MOL0     H86076   1.794   4.425   5.827 -0.9004 -0.8137 -0.8847
  638MOL0     H86077   1.636   4.266   5.921 -0.0064 -0.0990  0.5946
  638MOL0     H86078   1.607   4.383   6.055  3.0637 -2.7103  1.4486
  638MOL0     H86079   1.568   4.453   5.758 -0.1990 -2.1386  0.0583
  638MOL0     H86080   1.552   4.567   5.894 -1.2255  1.3337 -0.4757
  638MOL0     H86081   1.337   4.449   5.671  3.3292  0.6535 -0.2507
  638MOL0     H86082   1.070   4.472   5.674  1.6821 -0.4635 -1.5916
  638MOL0     H86083   1.047   4.305   5.718 -1.3539 -0.6099  1.1317
  638MOL0     H86084   0.865   4.501   5.784  1.7506  2.4591  0.5807
  638MOL0     H86085   0.975   4.539   5.908 -0.5348  0.7042 -0.1594
  638MOL0     H86086   0.944   4.342   6.034  0.2890  0.6906 -0.2497
  638MOL0     H86087   0.883   4.251   5.889 -0.6055 -0.0020 -1.7389
  638MOL0     H86088   0.755   4.489   6.039  0.0033 -1.5558  2.7120
  638MOL0     H86089   0.741   4.329   6.097  1.8849 -0.1968  0.3125
  638MOL0     H86090   0.572   4.427   6.189  1.5610 -0.4225 -2.0225
  638MOL0     H86091   0.260   4.430   6.344 -2.9265  2.9249 -2.0504
  638MOL0     H86092   0.430   4.468   6.373  0.0630 -2.7620 -0.1296
  638MOL0     H86093   0.325   4.594   6.322  1.6051  1.4200 -1.4915
  638MOL0     H86094  -0.108   4.723   6.114 -1.3107 -0.6241  1.9860
  638MOL0     H86095  -0.360   4.775   6.123  2.4628  0.6709  0.5127
  638MOL0     H86096  -0.661   4.472   5.957  0.0925 -2.5120  1.0112
  638MOL0     H86097  -0.631   4.448   6.133  2.0148  0.4220  0.4248
  638MOL0     H86098  -0.793   4.679   6.011  2.0379  1.4420  0.8777
  638MOL0     H86099  -0.867   4.522   6.063  0.8362 -1.0846  1.2043
  638MOL0     H86100  -0.725   4.713   6.234 -0.5149  0.3526 -0.4229
  638MOL0     H86101  -0.768   4.560   6.298 -0.2459  1.1340 -0.0794
  638MOL0     H86102  -0.977   4.754   6.184  0.7952  1.1529  0.7569
  638MOL0     H86103  -1.011   4.589   6.236  1.0344 -1.1339 -1.1744
  638MOL0     H86104  -0.902   4.807   6.424 -2.9047  1.0918  3.0288
  638MOL0     H86105  -0.921   4.634   6.477 -1.6892  0.3978  0.6748
  638MOL0     H86106  -1.112   4.850   6.405  1.6482  0.3538 -1.7763
  638MOL0     H86107  -1.168   4.689   6.441  1.4209 -0.8719  0.1551
  638MOL0     H86108  -0.999   4.822   6.648 -0.0574  2.0740 -0.1475
  638MOL0     H86109  -1.095   4.674   6.656  0.5291  1.4032  1.1433
  638MOL0     H86110  -1.241   4.939   6.619  0.7514 -0.0760 -0.2440
  638MOL0     H86111  -1.214   4.873   6.776  1.0117  3.4268 -0.0732
  638MOL0     H86112  -0.446   4.389   5.955 -1.2808  2.6443 -0.4813
  638MOL0     H86113  -0.202   4.331   5.956  1.2465 -0.1884 -0.3711
  638MOL0     H86114   0.202   4.458   5.851 -0.5636  1.8434  0.2577
  638MOL0     H86115   0.421   4.397   5.779  4.2423  0.7944  1.1881
  638MOL0     H86116   2.424   4.716   6.279 -1.2300  0.5398 -0.6282
  638MOL0     H86117   2.559   4.855   6.453  0.1873 -0.3113  1.4197
  638MOL0     H86118   2.618   5.128   6.767 -1.6379 -2.0486 -0.3241
  638MOL0     H86119   2.690   5.279   6.945 -1.7475  0.9769  2.6021
  638MOL0     H86120   2.807   5.401   7.266 -2.2641  1.0764  2.1613
  638MOL0     H86121   2.806   5.367   7.090 -1.5359  2.5892 -0.6865
  638MOL0     H86122   2.570   5.413   7.267 -0.0930 -2.7839 -1.2239
  638MOL0     H86123   2.547   5.387   7.099 -0.7313 -0.6242  2.3524
  638MOL0     H86124   2.676   5.585   7.029 -0.8155 -4.0032 -0.9564
  638MOL0     H86125   2.716   5.614   7.202  1.1168  0.0689 -1.5757
  638MOL0     H86126   2.534   5.741   7.074  1.3091 -0.5611 -1.6027
  638MOL0     H86127   2.507   5.711   7.247  0.5121 -2.2413  0.3266
  638MOL0     H86128   2.155   5.557   7.125 -0.6652  1.3942 -1.6259
  638MOL0     H86129   2.656   4.965   7.232  1.3700 -1.9445 -0.8338
  638MOL0     H86130   2.559   4.827   7.060 -0.0246  0.4526 -0.0217
  639MOL0     O86131   2.810   8.650  10.424 -0.1132 -0.6860 -0.0528
  639MOL0     C86132   2.876   8.608  10.328  0.0278 -0.0247 -0.7439
  639MOL0     O86133   2.824   8.564  10.209 -0.2978  0.3884  0.2977
  639MOL0     C86134   2.699   8.587  10.170 -0.5649  0.5833  0.1232
  639MOL0     C86135   2.636   8.476  10.103 -0.0409 -0.8051  0.0811
  639MOL0     C86136   2.496   8.487  10.074  0.5237  0.5504  0.1272
  639MOL0     C86137   2.419   8.604  10.103 -0.2303 -0.3669  0.4096
  639MOL0     O86138   2.291   8.620  10.041 -0.1115 -0.5080 -0.1022
  639MOL0     C86139   2.204   8.729  10.085 -0.3961 -0.2247  0.6853
  639MOL0     C86140   2.057   8.708  10.040  0.0381  0.3688  0.4376
  639MOL0     C86141   1.969   8.819  10.081  1.0048  0.3254 -0.6782
  639MOL0     C86142   1.821   8.787  10.050  0.8217 -0.4096 -0.4838
  639MOL0     C86143   1.728   8.913  10.052 -0.1594  0.9875  0.2226
  639MOL0     C86144   1.592   8.881   9.978 -0.1772 -0.2598  0.7393
  639MOL0     C86145   1.484   8.970  10.044  0.3882 -0.4891  0.2007
  639MOL0     C86146   1.346   8.928   9.990 -0.2973  0.0857  0.3197
  639MOL0     N86147   1.230   9.010  10.017 -0.6176  0.1979 -0.6141
  639MOL0     C86148   1.124   9.018   9.932  0.8038 -0.8399  0.1592
  639MOL0     C86149   1.029   9.102   9.991 -0.9147 -0.6188 -0.4347
  639MOL0     C86150   0.892   9.126   9.939  0.1296 -0.3189  0.7554
  639MOL0     C86151   0.897   9.159   9.785 -0.4151  0.4097 -0.2783
  639MOL0     C86152   0.936   9.303   9.748 -0.1433 -0.8506 -0.4008
  639MOL0     C86153   0.903   9.331   9.601  0.0157  0.3710 -0.6818
  639MOL0     O86154   0.942   9.466   9.568 -0.3415  0.5410 -0.3841
  639MOL0     C86155   0.851   9.561   9.530  0.0549  0.5229 -0.1364
  639MOL0     C86156   0.904   9.686   9.504 -0.0824 -0.0684  0.9426
  639MOL0     C86157   0.829   9.795   9.456 -0.6603  0.9196 -0.1270
  639MOL0     C86158   0.891   9.926   9.413 -0.2461  0.2608  0.7398
  639MOL0     C86159   0.695   9.776   9.443  1.0185 -0.2170  0.6757
  639MOL0     C86160   0.596   9.882   9.399 -0.7551  0.1358  0.8527
  639MOL0     O86161   0.478   9.841   9.340  0.2781 -0.0893  0.2830
  639MOL0     C86162   0.406   9.931   9.270  0.5721  0.3249 -0.3347
  639MOL0     C86163   0.267   9.900   9.266  0.2263 -0.6190 -0.2274
  639MOL0     C86164   0.177   9.965   9.180  0.1555 -0.3577  0.2686
  639MOL0     C86165   0.226  10.070   9.093  0.2539  0.4040 -1.1171
  639MOL0     O86166   0.142  10.132   9.013  0.0957  0.2917  0.0734
  639MOL0     C86167   0.186  10.230   8.914 -0.1653  0.9003 -0.1812
  639MOL0     C86168   0.071  10.265   8.820  0.3460  0.1360  0.1981
  639MOL0     C86169   0.144  10.327   8.695 -0.5115 -0.4329 -0.4740
  639MOL0     C86170   0.039  10.328   8.580 -0.2580  0.1994 -0.8186
  639MOL0     C86171   0.050  10.440   8.475 -0.4178  0.5432  0.2442
  639MOL0     C86172   0.193  10.455   8.403  0.2972  0.2457 -0.1646
  639MOL0     C86173   0.194  10.567   8.296 -0.6179 -0.5659  0.7628
  639MOL0     C86174   0.191  10.710   8.358 -0.2796  0.1535  0.2751
  639MOL0    Cl86175   0.227  10.839   8.242 -0.2345  0.2211  0.2489
  639MOL0     C86176   0.363  10.105   9.108 -0.2080  0.5199 -0.2145
  639MOL0     C86177   0.452  10.034   9.186  0.8255  0.2139 -0.5358
  639MOL0     O86178   0.627   9.998   9.426 -0.5464 -0.2343 -0.6783
  639MOL0     C86179   0.637   9.650   9.473 -0.7553 -0.0619  0.7594
  639MOL0     C86180   0.713   9.538   9.517 -0.0342 -1.0035 -0.3509
  639MOL0     N86181   1.095   9.150  10.104 -0.4422 -1.0183  0.3037
  639MOL0     N86182   1.213   9.101  10.122 -0.1817  0.3706  0.2902
  639MOL0     C86183   2.490   8.712  10.171 -0.2123 -0.6900 -0.3362
  639MOL0     C86184   2.626   8.699  10.198  0.0716 -1.0616  1.5109
  639MOL0     C86185   3.012   8.570  10.356  0.5977  0.4481 -0.3497
  639MOL0     C86186   3.093   8.524  10.249 -0.4638 -0.3009 -0.3571
  639MOL0     C86187   3.232   8.502  10.268  0.4954  0.6642 -0.3705
  639MOL0     C86188   3.285   8.509  10.396  0.5073 -0.8367  0.0018
  639MOL0     O86189   3.414   8.459  10.404 -0.1827  0.4856 -0.7071
  639MOL0     C86190   3.466   8.418  10.534 -0.1593 -0.1221  0.0764
  639MOL0     C86191   3.418   8.276  10.566  0.6056 -0.5389  0.3507
  639MOL0     C86192   3.452   8.179  10.447 -0.5586 -0.6526 -0.0284
  639MOL0     C86193   3.434   8.036  10.467 -0.2543 -0.3710  0.8247
  639MOL0     C86194   3.296   7.994  10.453  0.0066  0.4341  1.4674
  639MOL0     C86195   3.184   7.943  10.430  0.3986 -0.2690 -0.1370
  639MOL0     C86196   3.206   8.565  10.498  0.1881  0.4719  0.1232
  639MOL0     C86197   3.073   8.596  10.480 -0.1266  0.6448 -0.5877
  639MOL0     H86198   2.692   8.396  10.056  2.6835  1.6289 -1.0810
  639MOL0     H86199   2.444   8.408  10.019  1.2329  0.8343 -0.9904
  639MOL0     H86200   2.210   8.735  10.194  1.3400  0.2747  0.5974
  639MOL0     H86201   2.252   8.821  10.050  0.3379  0.4193  3.1621
  639MOL0     H86202   2.053   8.701   9.930  2.5349  2.9360  0.0732
  639MOL0     H86203   2.027   8.607  10.071  3.0144 -1.3403 -1.6778
  639MOL0     H86204   1.983   8.839  10.188  1.1400  1.4519 -0.8943
  639MOL0     H86205   1.988   8.914  10.031  0.7800  0.2170 -0.9781
  639MOL0     H86206   1.812   8.761   9.944  1.2643  1.3745 -1.0003
  639MOL0     H86207   1.787   8.709  10.119  2.9178 -1.8316 -0.9808
  639MOL0     H86208   1.721   8.947  10.155  0.8424  0.8832  0.3315
  639MOL0     H86209   1.774   8.999  10.001  0.7512 -0.5852 -1.7972
  639MOL0     H86210   1.588   8.895   9.870  1.4414  3.1470  0.9885
  639MOL0     H86211   1.568   8.775   9.993  1.8050 -1.3860 -2.6541
  639MOL0     H86212   1.492   8.969  10.153  0.7897 -1.8605  0.1846
  639MOL0     H86213   1.497   9.075  10.018  2.1407 -0.3490  1.4322
  639MOL0     H86214   1.322   8.828  10.026  1.3059 -0.2693  0.4345
  639MOL0     H86215   1.363   8.916   9.883  0.3056 -3.0835  0.6843
  639MOL0     H86216   1.108   8.952   9.847 -0.3624 -2.3238  1.4803
  639MOL0     H86217   0.832   9.035   9.946  1.8087 -1.5906 -0.3434
  639MOL0     H86218   0.848   9.212   9.989 -0.6960 -0.5322  0.4075
  639MOL0     H86219   0.796   9.141   9.748  0.3729 -4.1266 -0.8842
  639MOL0     H86220   0.960   9.081   9.742 -2.9024 -2.2789  0.5908
  639MOL0     H86221   1.038   9.331   9.774 -0.9003 -0.8695  3.0617
  639MOL0     H86222   0.868   9.363   9.809 -0.2084  0.3714 -1.6129
  639MOL0     H86223   0.799   9.309   9.578 -0.0333  1.7845 -1.9309
  639MOL0     H86224   0.963   9.264   9.539 -0.2064  0.7160 -1.2784
  639MOL0     H86225   1.012   9.695   9.497 -0.0292 -1.3605 -0.1212
  639MOL0     H86226   0.897  10.001   9.492  0.6321 -0.0724  1.0033
  639MOL0     H86227   0.996   9.909   9.386 -0.4369 -0.7362  0.5598
  639MOL0     H86228   0.846   9.969   9.323 -2.7862  0.6624  2.1176
  639MOL0     H86229   0.232   9.820   9.330 -0.3082 -0.1559  0.0772
  639MOL0     H86230   0.073   9.936   9.174 -0.8714  2.1708  3.2484
  639MOL0     H86231   0.233  10.316   8.964  1.4476 -1.4039  2.5558
  639MOL0     H86232   0.257  10.172   8.855 -1.2326 -2.4916  1.6447
  639MOL0     H86233   0.009  10.183   8.783  0.8578  0.6784 -1.9503
  639MOL0     H86234   0.007  10.335   8.875 -1.3114 -1.0158 -0.1900
  639MOL0     H86235   0.235  10.270   8.673  0.0598 -0.2648  1.3165
  639MOL0     H86236   0.171  10.432   8.708 -1.2850 -0.3856  0.8982
  639MOL0     H86237   0.054  10.239   8.519  1.9110  0.9226 -1.4475
  639MOL0     H86238  -0.061  10.320   8.623 -0.7235 -0.8626 -2.0490
  639MOL0     H86239   0.035  10.530   8.536  0.9350 -0.3841  2.0331
  639MOL0     H86240  -0.031  10.432   8.401 -2.0101 -1.2026  2.0616
  639MOL0     H86241   0.274  10.478   8.472 -2.3304  0.6727  3.0431
  639MOL0     H86242   0.222  10.359   8.358 -0.9520 -0.5503  0.6495
  639MOL0     H86243   0.103  10.565   8.236 -0.8552  2.8412  0.8255
  639MOL0     H86244   0.274  10.558   8.222 -3.5902  3.4051 -3.5458
  639MOL0     H86245   0.266  10.718   8.438 -2.6593  5.1978  2.4406
  639MOL0     H86246   0.093  10.726   8.404  0.6552  3.3945  1.4448
  639MOL0     H86247   0.386  10.198   9.056 -1.0263  1.5840  1.2606
  639MOL0     H86248   0.558  10.058   9.194  1.2561 -1.1206 -1.8966
  639MOL0     H86249   0.529   9.652   9.459 -0.5899  3.1157 -1.0571
  639MOL0     H86250   0.646   9.460   9.552 -1.2789 -0.2394 -0.9615
  639MOL0     H86251   2.438   8.803  10.198 -2.8470 -1.8569 -1.0440
  639MOL0     H86252   2.667   8.791  10.238 -1.6774  0.9491 -0.9568
  639MOL0     H86253   3.069   8.502  10.145  1.8915 -0.5691 -0.8981
  639MOL0     H86254   3.298   8.482  10.184  0.5399  1.1375 -0.4531
  639MOL0     H86255   3.575   8.422  10.526 -0.1658  0.3477  0.2076
  639MOL0     H86256   3.435   8.486  10.614 -1.3624 -1.5429  0.8912
  639MOL0     H86257   3.309   8.278  10.573  0.0868 -1.6071 -4.2045
  639MOL0     H86258   3.467   8.241  10.657  1.6112  1.7061  0.7525
  639MOL0     H86259   3.561   8.187  10.438 -0.6835 -0.4425 -1.6176
  639MOL0     H86260   3.407   8.201  10.350 -2.3398  0.9195  1.0862
  639MOL0     H86261   3.473   8.008  10.565  3.3364  1.7440  0.1804
  639MOL0     H86262   3.500   7.990  10.392  2.2686  1.8048  1.5795
  639MOL0     H86263   3.086   7.901  10.418 -0.4388  1.0494  1.5237
  639MOL0     H86264   3.261   8.578  10.591 -0.5709 -0.2935  0.7005
  639MOL0     H86265   3.025   8.640  10.568 -0.9107 -0.0980 -0.6288
  640MOL0     O86266   1.743   2.567   7.576  0.4578 -0.3523 -0.8966
  640MOL0     C86267   1.808   2.667   7.609  1.5541 -0.4042 -0.1789
  640MOL0     O86268   1.770   2.771   7.692 -0.1017  0.4518  0.2498
  640MOL0     C86269   1.649   2.769   7.760  0.2024  0.1834 -0.0614
  640MOL0     C86270   1.529   2.696   7.730  0.6149 -0.0261 -1.0872
  640MOL0     C86271   1.430   2.704   7.833 -0.5289 -0.0687  1.0379
  640MOL0     C86272   1.436   2.782   7.948  0.0384  0.5476  0.2483
  640MOL0     O86273   1.327   2.774   8.026  0.4391  0.8644 -0.5173
  640MOL0     C86274   1.293   2.887   8.098 -0.0848 -0.4409  0.0662
  640MOL0     C86275   1.140   2.878   8.112 -0.6551 -0.5875  0.4444
  640MOL0     C86276   1.103   2.755   8.197 -0.7378 -0.5976  0.2025
  640MOL0     C86277   1.003   2.671   8.115  0.3824 -0.3870 -0.3730
  640MOL0     C86278   0.909   2.587   8.203  0.3872  0.2907 -0.6889
  640MOL0     C86279   0.808   2.519   8.108 -0.2329  0.2856 -0.0085
  640MOL0     C86280   0.693   2.461   8.199 -0.8754  0.0653 -0.6364
  640MOL0     C86281   0.623   2.363   8.108 -0.9277  0.8110 -0.0802
  640MOL0     N86282   0.502   2.318   8.169 -0.6796  0.6255 -0.0709
  640MOL0     C86283   0.505   2.253   8.293 -0.4178  0.1289  0.2068
  640MOL0     C86284   0.386   2.287   8.349 -0.8687  0.3894  0.2845
  640MOL0     C86285   0.319   2.242   8.482  0.3647 -0.3530  0.5231
  640MOL0     C86286   0.231   2.352   8.536  0.7115  0.1773  0.7791
  640MOL0     C86287   0.182   2.332   8.683  0.3617  0.4119 -0.4621
  640MOL0     C86288   0.286   2.374   8.779  0.6454  0.1704 -0.8811
  640MOL0     O86289   0.267   2.317   8.904 -0.2096  0.3887 -0.4425
  640MOL0     C86290   0.143   2.309   8.956  0.3242  0.3495  0.9089
  640MOL0     C86291   0.080   2.428   8.999 -0.1179  0.8193 -0.0055
  640MOL0     C86292  -0.055   2.426   9.042  0.1487  0.0406  0.4301
  640MOL0     C86293  -0.121   2.567   9.052 -0.5783  0.0301  0.5654
  640MOL0     C86294  -0.129   2.307   9.068  0.1108 -0.9994 -0.6455
  640MOL0     C86295  -0.276   2.282   9.107 -0.2763  0.6758 -0.2527
  640MOL0     O86296  -0.327   2.161   9.073  0.2616 -0.0902  0.7626
  640MOL0     C86297  -0.444   2.104   9.122  1.2397  0.1776 -0.1990
  640MOL0     C86298  -0.541   2.046   9.036 -0.1529 -0.3669 -0.1683
  640MOL0     C86299  -0.658   1.984   9.088 -0.3278  0.8658  0.7880
  640MOL0     C86300  -0.672   1.967   9.225 -0.4875 -0.1256  0.6432
  640MOL0     O86301  -0.778   1.892   9.261  0.3973 -0.0679  0.4479
  640MOL0     C86302  -0.779   1.852   9.403 -0.7913 -0.1130  0.3226
  640MOL0     C86303  -0.905   1.780   9.428 -0.7493 -0.7316 -0.1270
  640MOL0     C86304  -0.914   1.737   9.575  0.5706 -0.9882 -0.3472
  640MOL0     C86305  -1.059   1.707   9.622  0.0617 -0.6955 -0.1829
  640MOL0     C86306  -1.056   1.637   9.757  0.3849  0.4664  0.8231
  640MOL0     C86307  -0.994   1.722   9.861  0.4370 -0.0304  0.1889
  640MOL0     C86308  -1.053   1.716   9.997  0.0158  1.5315 -1.1292
  640MOL0     C86309  -0.995   1.582  10.066  0.5877 -0.1075  0.4135
  640MOL0    Cl86310  -0.825   1.607  10.109 -0.3992 -0.0034  0.4099
  640MOL0     C86311  -0.581   2.036   9.315 -0.3506  0.3473  0.4638
  640MOL0     C86312  -0.463   2.091   9.260  1.0638 -0.5963  0.8268
  640MOL0     O86313  -0.335   2.381   9.160  0.0833 -0.5058 -0.0301
  640MOL0     C86314  -0.059   2.188   9.025 -0.1745 -0.2325  0.7331
  640MOL0     C86315   0.070   2.190   8.973  0.1945  0.3522  0.5350
  640MOL0     N86316   0.319   2.358   8.255  0.4050 -0.2811  0.2698
  640MOL0     N86317   0.385   2.388   8.152  0.2731  0.1220  0.1801
  640MOL0     C86318   1.554   2.853   7.965 -0.1847 -0.0602  0.4283
  640MOL0     C86319   1.658   2.849   7.873 -0.4036  0.5841  0.3368
  640MOL0     C86320   1.947   2.674   7.559  0.4464  0.5249 -0.2835
  640MOL0     C86321   2.018   2.790   7.577 -0.1621  0.4612  0.3050
  640MOL0     C86322   2.144   2.804   7.524 -0.2527 -0.1468 -0.3719
  640MOL0     C86323   2.205   2.704   7.454  0.1353 -0.2696  0.4177
  640MOL0     O86324   2.331   2.729   7.407 -0.8165 -0.4392 -0.8036
  640MOL0     C86325   2.398   2.634   7.317 -0.6666 -0.0803 -0.1827
  640MOL0     C86326   2.543   2.688   7.293  0.4773  0.2071 -0.6585
  640MOL0     C86327   2.596   2.647   7.156  0.1643  0.3728 -0.5559
  640MOL0     C86328   2.725   2.726   7.124  0.5271  0.3282  0.0691
  640MOL0     C86329   2.845   2.692   7.198  1.2196 -1.0087  0.3239
  640MOL0     C86330   2.931   2.633   7.240  0.2200  0.4073  0.5462
  640MOL0     C86331   2.136   2.592   7.424 -0.1095  0.8661 -0.4025
  640MOL0     C86332   2.002   2.571   7.473 -0.4339  0.1581 -0.4874
  640MOL0     H86333   1.509   2.638   7.640 -4.5909 -1.5828  0.7226
  640MOL0     H86334   1.348   2.635   7.814 -0.2799  0.5081 -2.9471
  640MOL0     H86335   1.330   2.876   8.200  0.4249 -0.7748 -0.1515
  640MOL0     H86336   1.321   2.986   8.060 -0.9122 -0.1118  0.2976
  640MOL0     H86337   1.106   2.968   8.163 -2.8897 -1.7220  1.0879
  640MOL0     H86338   1.093   2.873   8.013  0.1166  4.6635 -0.4700
  640MOL0     H86339   1.193   2.703   8.229  0.2840  0.6366 -0.5890
  640MOL0     H86340   1.054   2.795   8.286  1.8807  2.3637  0.4709
  640MOL0     H86341   0.943   2.738   8.053 -2.1773 -1.3153  0.9757
  640MOL0     H86342   1.055   2.603   8.046  0.1280 -0.7261 -0.2365
  640MOL0     H86343   0.965   2.517   8.265  1.9628  3.7638  2.1564
  640MOL0     H86344   0.837   2.641   8.265  1.2216 -0.8494  1.3796
  640MOL0     H86345   0.761   2.586   8.035 -1.7350 -0.1322  0.5399
  640MOL0     H86346   0.863   2.445   8.048  0.3950  0.6497  0.1080
  640MOL0     H86347   0.727   2.411   8.290  0.4270  0.0334 -1.1288
  640MOL0     H86348   0.631   2.549   8.221 -1.1513 -0.7835  2.5436
  640MOL0     H86349   0.692   2.278   8.099  0.9364  2.1610  0.7730
  640MOL0     H86350   0.611   2.390   8.003  0.6048 -0.3570 -0.5956
  640MOL0     H86351   0.587   2.202   8.343 -1.2508 -0.9593  0.5082
  640MOL0     H86352   0.255   2.162   8.442 -0.3996  1.4745 -2.1859
  640MOL0     H86353   0.392   2.196   8.550  0.2735 -2.0108 -0.4256
  640MOL0     H86354   0.142   2.367   8.474  0.0165 -0.0281  1.7062
  640MOL0     H86355   0.289   2.444   8.544  2.4222 -0.8522  0.7286
  640MOL0     H86356   0.152   2.227   8.685 -0.5267  0.6604  1.5773
  640MOL0     H86357   0.095   2.392   8.710  1.1854  1.7313 -0.6712
  640MOL0     H86358   0.283   2.483   8.788  0.1977  0.0249  1.1669
  640MOL0     H86359   0.390   2.367   8.744  1.0694 -0.1379  0.4020
  640MOL0     H86360   0.124   2.527   8.996 -1.1490  1.4029  1.9273
  640MOL0     H86361  -0.066   2.646   9.000 -1.3200  1.2305  1.5450
  640MOL0     H86362  -0.221   2.573   9.008 -0.2106  1.1207 -0.1802
  640MOL0     H86363  -0.124   2.592   9.158 -2.5682  0.4928  0.4417
  640MOL0     H86364  -0.523   2.050   8.929  0.0251 -1.8927 -0.2245
  640MOL0     H86365  -0.732   1.937   9.025  0.1575 -1.1198  1.6000
  640MOL0     H86366  -0.703   1.776   9.425 -1.2336 -0.7815 -0.4214
  640MOL0     H86367  -0.771   1.936   9.473  0.0427 -0.7591  1.0276
  640MOL0     H86368  -0.983   1.848   9.393 -0.6055 -0.1266  0.6695
  640MOL0     H86369  -0.906   1.692   9.363 -0.8553 -0.5192 -0.4149
  640MOL0     H86370  -0.874   1.825   9.627 -0.7783  1.4884 -3.1426
  640MOL0     H86371  -0.846   1.655   9.596 -0.0306 -2.0886 -2.3962
  640MOL0     H86372  -1.112   1.803   9.622  1.7987  0.3133 -0.1168
  640MOL0     H86373  -1.118   1.650   9.550 -4.0422  0.7191  1.7532
  640MOL0     H86374  -0.997   1.545   9.761  0.2945  0.2211 -1.7410
  640MOL0     H86375  -1.158   1.608   9.785  1.0267 -1.4380  1.3545
  640MOL0     H86376  -0.888   1.696   9.859  1.8353  4.7096 -0.9906
  640MOL0     H86377  -1.009   1.825   9.825  0.3513 -0.6037 -1.5272
  640MOL0     H86378  -1.162   1.718   9.997 -0.0083  1.0299 -2.8032
  640MOL0     H86379  -1.023   1.802  10.059 -3.3036  1.7381  0.3832
  640MOL0     H86380  -0.994   1.499   9.995  4.5145  0.5755 -0.5893
  640MOL0     H86381  -1.050   1.555  10.156  0.1764  1.5536  0.7001
  640MOL0     H86382  -0.593   2.039   9.423  1.5188  1.4111  0.6986
  640MOL0     H86383  -0.383   2.124   9.326  2.0522  2.1537 -1.5071
  640MOL0     H86384  -0.101   2.089   9.043 -1.2982 -0.6221 -3.1422
  640MOL0     H86385   0.117   2.101   8.932 -0.3610  0.3493 -0.1209
  640MOL0     H86386   1.587   2.892   8.061 -0.4944 -1.8320  1.3026
  640MOL0     H86387   1.757   2.888   7.897  2.3695 -5.5115  0.7567
  640MOL0     H86388   1.984   2.871   7.642  1.6504 -1.5024  4.0217
  640MOL0     H86389   2.211   2.884   7.554  0.6450 -0.9507 -0.1942
  640MOL0     H86390   2.409   2.534   7.362  0.6970 -0.0516 -0.4196
  640MOL0     H86391   2.334   2.628   7.228  0.8940  0.7898 -1.4036
  640MOL0     H86392   2.604   2.656   7.377  0.1996  1.6559  0.1296
  640MOL0     H86393   2.516   2.794   7.289 -3.4102 -0.6678 -2.0296
  640MOL0     H86394   2.526   2.671   7.076 -1.7195  1.1696  1.2489
  640MOL0     H86395   2.623   2.541   7.151 -0.3645  0.2194 -0.2253
  640MOL0     H86396   2.711   2.835   7.130  1.5967  0.4505  0.6286
  640MOL0     H86397   2.746   2.698   7.021  2.2425 -2.8997  1.1780
  640MOL0     H86398   3.008   2.573   7.285 -1.0283 -0.9155  0.9660
  640MOL0     H86399   2.174   2.507   7.369  0.8549  0.8360  0.2861
  640MOL0     H86400   1.952   2.478   7.448  1.7567 -0.8774 -1.2880
  641MOL0     O86401   0.841   5.217   2.253  0.3192 -0.1598  0.5303
  641MOL0     C86402   0.828   5.210   2.133  0.8710 -0.1111  0.2908
  641MOL0     O86403   0.707   5.201   2.075 -0.0615  0.0934 -0.2031
  641MOL0     C86404   0.602   5.181   2.161  0.9132  0.3088  0.4313
  641MOL0     C86405   0.584   5.070   2.234 -0.0284 -0.2067 -0.2775
  641MOL0     C86406   0.472   5.052   2.315  0.1043  0.1528 -0.6513
  641MOL0     C86407   0.363   5.144   2.314 -1.0375 -0.5887 -0.3188
  641MOL0     O86408   0.256   5.116   2.386  0.4471  0.3329  1.0221
  641MOL0     C86409   0.153   5.210   2.414 -0.2353 -0.3694 -0.3901
  641MOL0     C86410   0.052   5.150   2.518  0.5614 -0.2493  1.1035
  641MOL0     C86411  -0.072   5.067   2.455 -0.0953 -0.2536 -0.9030
  641MOL0     C86412  -0.188   5.148   2.402  1.0250 -0.0702 -0.0920
  641MOL0     C86413  -0.276   5.057   2.317 -0.3544  0.3165 -0.0873
  641MOL0     C86414  -0.412   5.109   2.294  1.6576  0.2255  0.2129
  641MOL0     C86415  -0.488   5.049   2.182 -0.6877  0.0374  0.4609
  641MOL0     C86416  -0.616   5.126   2.147  0.0710 -0.1521  0.7401
  641MOL0     N86417  -0.722   5.144   2.257  0.6426 -0.3266 -0.0336
  641MOL0     C86418  -0.730   5.243   2.359 -0.0776 -0.1561 -0.1214
  641MOL0     C86419  -0.849   5.218   2.424 -0.4519  0.7001 -0.3432
  641MOL0     C86420  -0.925   5.296   2.535  0.2626  0.4476 -0.1737
  641MOL0     C86421  -1.074   5.287   2.500  0.3751 -0.2618  0.3273
  641MOL0     C86422  -1.151   5.316   2.632 -0.0654 -0.5537  0.4997
  641MOL0     C86423  -1.299   5.336   2.612  1.6282 -0.0483 -0.2570
  641MOL0     O86424  -1.322   5.455   2.540 -1.0150 -0.1003 -0.1236
  641MOL0     C86425  -1.452   5.485   2.554  0.6906  0.7990  0.9427
  641MOL0     C86426  -1.502   5.510   2.683  0.3939 -0.3664 -0.0569
  641MOL0     C86427  -1.636   5.532   2.710 -0.2571 -0.0549  0.4210
  641MOL0     C86428  -1.671   5.572   2.857  0.4232  0.1124 -0.1648
  641MOL0     C86429  -1.736   5.531   2.602 -0.7461 -0.8048 -0.8822
  641MOL0     C86430  -1.878   5.559   2.612  0.2600 -1.0251  0.6228
  641MOL0     O86431  -1.939   5.576   2.491 -0.6305 -0.2282 -0.1120
  641MOL0     C86432  -2.055   5.652   2.498  0.5808 -0.0296 -0.6648
  641MOL0     C86433  -2.179   5.601   2.451  0.1987  0.7274 -0.6126
  641MOL0     C86434  -2.297   5.669   2.459  0.7726 -0.0116  0.1853
  641MOL0     C86435  -2.293   5.796   2.513 -0.3539  0.0457  0.1901
  641MOL0     O86436  -2.409   5.867   2.493 -0.8667  0.1603 -0.5773
  641MOL0     C86437  -2.443   5.974   2.585 -0.7680 -0.4990 -0.8517
  641MOL0     C86438  -2.591   6.028   2.558  0.1121 -0.7408 -0.9338
  641MOL0     C86439  -2.686   5.908   2.564 -0.1261  0.2019 -0.0525
  641MOL0     C86440  -2.830   5.949   2.567 -0.4412  0.6654 -0.9687
  641MOL0     C86441  -2.940   5.838   2.556 -0.3044 -0.1571  0.8355
  641MOL0     C86442  -2.966   5.810   2.406  0.3723  1.0270 -0.2383
  641MOL0     C86443  -3.085   5.720   2.384  0.6815 -0.3646  0.3329
  641MOL0     C86444  -3.070   5.573   2.428 -0.3176  0.2813 -0.4733
  641MOL0    Cl86445  -2.937   5.487   2.329 -0.3309  0.1173  0.4801
  641MOL0     C86446  -2.172   5.846   2.566  0.4784 -0.1885 -0.5994
  641MOL0     C86447  -2.055   5.778   2.557 -0.6734 -0.0374  0.2526
  641MOL0     O86448  -1.939   5.558   2.719 -0.0384  0.0291 -0.2551
  641MOL0     C86449  -1.680   5.497   2.471  0.3345  0.3257 -0.2721
  641MOL0     C86450  -1.544   5.481   2.446 -0.4627  0.3668  0.0446
  641MOL0     N86451  -0.885   5.091   2.376 -0.3690  0.2335 -0.3458
  641MOL0     N86452  -0.826   5.056   2.270  0.0702  0.4322 -0.0344
  641MOL0     C86453   0.376   5.258   2.229  0.0184 -0.1576 -0.2419
  641MOL0     C86454   0.495   5.275   2.157 -0.0042 -0.0024  0.1834
  641MOL0     C86455   0.945   5.218   2.050 -0.8406  0.2186  0.0746
  641MOL0     C86456   0.942   5.201   1.913  0.5891  0.5430  0.6528
  641MOL0     C86457   1.064   5.195   1.836  0.9001 -0.2285 -0.3994
  641MOL0     C86458   1.187   5.216   1.901  0.8459 -0.0966 -0.5974
  641MOL0     O86459   1.294   5.217   1.824  0.6027 -0.3243  0.4670
  641MOL0     C86460   1.422   5.268   1.872  0.2062  0.1181 -0.5073
  641MOL0     C86461   1.508   5.297   1.745 -0.5012  0.0256  0.4072
  641MOL0     C86462   1.461   5.410   1.651 -0.6005 -0.4350 -0.7036
  641MOL0     C86463   1.510   5.548   1.694  0.6054 -0.3058  0.3214
  641MOL0     C86464   1.652   5.570   1.666  0.5602  0.7156  0.1354
  641MOL0     C86465   1.762   5.611   1.652  0.8645  0.2561  0.4007
  641MOL0     C86466   1.193   5.233   2.041 -0.1939  0.0410  0.7403
  641MOL0     C86467   1.074   5.239   2.105  0.4023  0.3581 -0.2937
  641MOL0     H86468   0.666   4.999   2.229 -0.5029 -0.7064 -4.5608
  641MOL0     H86469   0.462   4.965   2.379 -0.1743 -0.1294 -1.0714
  641MOL0     H86470   0.201   5.303   2.449 -1.2124 -1.5976  5.1466
  641MOL0     H86471   0.098   5.237   2.323 -0.6973 -0.8711 -0.2622
  641MOL0     H86472   0.111   5.085   2.583  1.5033  0.2225  0.7305
  641MOL0     H86473   0.008   5.221   2.588 -0.5337 -1.0518  1.2629
  641MOL0     H86474  -0.024   5.010   2.375 -0.1967 -0.5595 -0.7479
  641MOL0     H86475  -0.110   5.012   2.542  1.4681  3.1854  2.2370
  641MOL0     H86476  -0.250   5.187   2.484  0.2596 -0.1557 -0.6156
  641MOL0     H86477  -0.149   5.231   2.342  0.0203 -1.2109 -2.4778
  641MOL0     H86478  -0.222   5.039   2.224  3.4948 -0.9781  2.1839
  641MOL0     H86479  -0.285   4.959   2.365  1.9852 -0.7017 -1.5315
  641MOL0     H86480  -0.469   5.108   2.388  3.4757  4.6648  1.6154
  641MOL0     H86481  -0.403   5.216   2.273 -0.4470  0.2006 -1.0938
  641MOL0     H86482  -0.432   5.039   2.088 -1.2016 -4.7413  0.4035
  641MOL0     H86483  -0.505   4.944   2.210  1.5364 -0.1304  1.3647
  641MOL0     H86484  -0.671   5.088   2.061 -0.0932  0.0165  0.7680
  641MOL0     H86485  -0.586   5.228   2.118 -0.8279  0.5956  2.3079
  641MOL0     H86486  -0.661   5.327   2.361 -0.0759 -0.1808  1.2984
  641MOL0     H86487  -0.908   5.252   2.633  1.7477 -0.6774 -0.8922
  641MOL0     H86488  -0.898   5.402   2.543 -1.6703  0.9111  0.6860
  641MOL0     H86489  -1.101   5.186   2.471  0.7864  0.2130 -1.8713
  641MOL0     H86490  -1.090   5.360   2.420  3.2733  0.0296 -0.1284
  641MOL0     H86491  -1.106   5.406   2.676  1.2582 -1.2232  0.5662
  641MOL0     H86492  -1.143   5.246   2.715 -0.4306  2.8825  3.7070
  641MOL0     H86493  -1.349   5.321   2.709  2.9249  0.2243  0.4786
  641MOL0     H86494  -1.335   5.253   2.550 -1.1519 -0.4071  1.6301
  641MOL0     H86495  -1.440   5.511   2.772  1.5698 -1.3215 -0.8268
  641MOL0     H86496  -1.710   5.675   2.858  2.5090  0.9648  1.8198
  641MOL0     H86497  -1.735   5.495   2.901  0.7151  0.3531  0.7052
  641MOL0     H86498  -1.582   5.580   2.919  2.5518  0.8854 -3.0929
  641MOL0     H86499  -2.184   5.518   2.381 -1.3228  0.8784 -0.7062
  641MOL0     H86500  -2.393   5.622   2.436  0.9738 -0.0586 -0.5943
  641MOL0     H86501  -2.437   5.929   2.684 -0.4071  0.1847 -0.5586
  641MOL0     H86502  -2.374   6.059   2.585 -1.0082 -0.2507  1.5523
  641MOL0     H86503  -2.616   6.097   2.639  1.6815 -1.0557 -0.1535
  641MOL0     H86504  -2.600   6.089   2.467  1.4872  0.0791 -0.5439
  641MOL0     H86505  -2.663   5.845   2.650  0.6971  0.6159  0.0445
  641MOL0     H86506  -2.675   5.847   2.474 -2.6917 -2.0347  1.0280
  641MOL0     H86507  -2.853   6.011   2.655 -1.7080  1.0505 -1.5403
  641MOL0     H86508  -2.843   6.016   2.482 -2.6059  1.3245 -0.2089
  641MOL0     H86509  -3.037   5.860   2.601 -1.3527 -0.9658 -0.8986
  641MOL0     H86510  -2.909   5.749   2.612  1.5198  1.7373  3.0302
  641MOL0     H86511  -2.976   5.905   2.353  0.1313 -0.2361 -2.5673
  641MOL0     H86512  -2.882   5.754   2.365 -1.9543 -1.4845 -1.9530
  641MOL0     H86513  -3.105   5.719   2.277  2.8352  0.0565 -0.1172
  641MOL0     H86514  -3.180   5.757   2.423 -0.4214  0.8421 -3.1325
  641MOL0     H86515  -3.166   5.524   2.411  0.6701 -1.0551 -2.5618
  641MOL0     H86516  -3.040   5.553   2.531 -0.7413  0.5012 -0.3049
  641MOL0     H86517  -2.183   5.944   2.612 -0.1158 -0.9604  0.9799
  641MOL0     H86518  -1.972   5.827   2.608 -0.2666  1.0398 -1.3673
  641MOL0     H86519  -1.743   5.475   2.385 -0.5457  0.8324  0.2350
  641MOL0     H86520  -1.503   5.447   2.352 -0.1029  0.8567  0.0207
  641MOL0     H86521   0.301   5.334   2.213 -1.4492 -1.3895  0.4618
  641MOL0     H86522   0.507   5.353   2.082  0.9355 -0.7869 -0.5011
  641MOL0     H86523   0.850   5.180   1.860  0.5702  1.8245  0.1363
  641MOL0     H86524   1.061   5.181   1.729 -0.8727 -1.0155 -0.2756
  641MOL0     H86525   1.419   5.356   1.936  0.4172  0.9235 -1.5806
  641MOL0     H86526   1.459   5.186   1.934 -2.3406 -0.2167  0.6925
  641MOL0     H86527   1.509   5.205   1.686  3.1657 -1.4556  2.4441
  641MOL0     H86528   1.612   5.322   1.772  0.7167 -1.6573 -2.2694
  641MOL0     H86529   1.352   5.401   1.650 -0.8517  1.1366  2.2475
  641MOL0     H86530   1.505   5.395   1.553 -0.7898 -0.0112 -0.8548
  641MOL0     H86531   1.503   5.560   1.803  4.4486  0.7189  0.6277
  641MOL0     H86532   1.453   5.622   1.638 -0.1964 -0.4612  0.9112
  641MOL0     H86533   1.865   5.629   1.629  0.2892  2.6946 -0.5875
  641MOL0     H86534   1.285   5.249   2.097  1.2044  1.0035 -1.6792
  641MOL0     H86535   1.071   5.253   2.212 -1.1086  1.4155 -0.4441
  642MOL0     O86536  10.815   0.108  10.261 -0.2123  0.1592  0.9945
  642MOL0     C86537  10.845   0.104  10.140 -0.2315 -0.0599 -0.1730
  642MOL0     O86538  10.759   0.092  10.042 -0.6739  0.2004 -0.5040
  642MOL0     C86539  10.624   0.082  10.064 -0.8541 -0.9251  0.3058
  642MOL0     C86540  10.541   0.192  10.024  0.0001 -0.0552 -0.4305
  642MOL0     C86541  10.407   0.183  10.054  0.1576 -0.1423  0.4948
  642MOL0     C86542  10.345   0.082  10.122 -0.1916 -0.1810 -0.1506
  642MOL0     O86543  10.211   0.088  10.150  0.0425 -0.6687 -0.2940
  642MOL0     C86544  10.151  -0.012  10.227 -0.0556 -0.0626 -0.1832
  642MOL0     C86545   9.994   0.010  10.221 -0.0812  0.2555 -0.4514
  642MOL0     C86546   9.915  -0.069  10.332  0.4136 -0.2892 -0.2980
  642MOL0     C86547   9.895   0.034  10.450 -0.4484  0.4161  0.1107
  642MOL0     C86548   9.831  -0.043  10.575  0.3082  0.3170  0.4783
  642MOL0     C86549   9.691  -0.097  10.556  1.3783 -0.1504  0.4761
  642MOL0     C86550   9.627  -0.175  10.671 -0.7829 -0.1905  0.1584
  642MOL0     C86551   9.474  -0.170  10.667  0.1325  0.1480 -0.0571
  642MOL0     N86552   9.417  -0.254  10.557 -0.2986  0.2551 -0.3326
  642MOL0     C86553   9.421  -0.211  10.425 -0.1863 -0.2627  1.2501
  642MOL0     C86554   9.376  -0.322  10.361 -0.1432 -0.0658 -0.5272
  642MOL0     C86555   9.353  -0.339  10.218  0.1102  0.4625 -0.2139
  642MOL0     C86556   9.224  -0.264  10.168 -1.2687 -0.3471 -0.5438
  642MOL0     C86557   9.102  -0.329  10.228  0.3111 -1.2939 -1.3803
  642MOL0     C86558   8.980  -0.261  10.175 -0.2942  0.1380 -0.8669
  642MOL0     O86559   8.871  -0.300  10.256  0.5426 -0.2089 -0.1155
  642MOL0     C86560   8.754  -0.233  10.238 -0.4016 -1.2318 -0.0762
  642MOL0     C86561   8.729  -0.123  10.150 -0.0777 -0.9337 -0.0699
  642MOL0     C86562   8.603  -0.053  10.161 -0.6272  0.0103  0.2259
  642MOL0     C86563   8.573   0.063  10.066  0.3089  0.1191 -0.4827
  642MOL0     C86564   8.502  -0.108  10.246 -0.1669  0.0249 -0.4827
  642MOL0     C86565   8.368  -0.047  10.274  0.7387  0.6337  0.2151
  642MOL0     O86566   8.274  -0.131  10.336 -0.4613  0.2786  0.0509
  642MOL0     C86567   8.143  -0.096  10.330  0.1804 -0.0313 -0.4498
  642MOL0     C86568   8.076  -0.093  10.455  0.5042  0.1986 -0.9677
  642MOL0     C86569   7.952  -0.032  10.468  0.3641  0.0812 -0.2165
  642MOL0     C86570   7.879   0.011  10.345 -0.4219  0.8081 -0.6570
  642MOL0     O86571   7.766   0.078  10.345  0.1970 -0.4648 -0.0235
  642MOL0     C86572   7.682   0.084  10.467  0.3050 -1.1388  0.6663
  642MOL0     C86573   7.558   0.162  10.423  0.2452  0.6862 -0.5373
  642MOL0     C86574   7.473   0.068  10.341  0.8373  0.9582  0.3611
  642MOL0     C86575   7.367   0.148  10.265 -0.9592 -0.2234 -0.5431
  642MOL0     C86576   7.270   0.059  10.195 -0.3067 -0.6104 -0.7025
  642MOL0     C86577   7.169   0.148  10.126  0.5010 -0.7908 -0.6781
  642MOL0     C86578   7.051   0.068  10.073  0.0756  0.3749  0.7024
  642MOL0     C86579   6.941   0.153   9.989  0.0265  0.7603  0.0842
  642MOL0    Cl86580   7.015   0.290   9.901 -0.0664  0.1635  0.8330
  642MOL0     C86581   7.951  -0.001  10.226 -0.4431 -0.5587  0.2536
  642MOL0     C86582   8.075  -0.052  10.222 -0.8715 -0.0373 -0.2364
  642MOL0     O86583   8.360   0.077  10.274  0.1462 -0.1744 -0.0437
  642MOL0     C86584   8.533  -0.222  10.320  0.3095  0.3116  0.2951
  642MOL0     C86585   8.653  -0.282  10.314 -0.1583 -0.0241 -0.6300
  642MOL0     N86586   9.353  -0.427  10.450  0.4124 -0.0751  0.1392
  642MOL0     N86587   9.388  -0.384  10.564  0.8276  0.5365 -0.5239
  642MOL0     C86588  10.424  -0.025  10.164 -0.5037 -0.1542  0.4083
  642MOL0     C86589  10.563  -0.027  10.129 -0.1345  0.3036  0.0157
  642MOL0     C86590  10.987   0.133  10.101  0.3793  0.5812  1.0904
  642MOL0     C86591  11.009   0.167   9.964 -0.4250 -0.2496  0.6727
  642MOL0     C86592  11.134   0.205   9.913  1.0593 -0.8411  0.3307
  642MOL0     C86593  11.241   0.189  10.002 -0.8071  0.9417 -0.2968
  642MOL0     O86594  11.367   0.225   9.962 -0.6416  0.0491 -0.2009
  642MOL0     C86595  11.478   0.232  10.051  0.4083 -0.1402  0.7540
  642MOL0     C86596  11.589   0.316   9.976  0.0843  0.3696  0.1158
  642MOL0     C86597  11.705   0.362  10.060 -0.8433 -0.2335 -0.2050
  642MOL0     C86598  11.809   0.249  10.088  1.0666 -0.4909  0.6669
  642MOL0     C86599  11.936   0.301  10.127 -0.2555  0.4372  0.1473
  642MOL0     C86600  12.041   0.361  10.160  0.4997  0.6565  0.0344
  642MOL0     C86601  11.224   0.137  10.130  0.3675 -0.0940 -0.4984
  642MOL0     C86602  11.095   0.119  10.188 -0.5936  1.1824 -0.2614
  642MOL0     H86603  10.572   0.275   9.961  2.1748  0.1613  0.8425
  642MOL0     H86604  10.347   0.264  10.013  0.1496 -0.1016  0.5861
  642MOL0     H86605  10.171  -0.111  10.187  2.1452  0.3018 -0.1166
  642MOL0     H86606  10.185  -0.007  10.331 -2.1831  0.9968  0.5428
  642MOL0     H86607   9.982   0.119  10.230 -0.3835  0.3278 -1.5569
  642MOL0     H86608   9.963  -0.021  10.121  1.9140  0.9648 -1.3396
  642MOL0     H86609   9.823  -0.109  10.290  0.5303 -4.4300  2.7121
  642MOL0     H86610   9.973  -0.157  10.363 -0.0031 -0.4014  0.1609
  642MOL0     H86611   9.992   0.070  10.486  0.7265 -2.6547  0.2745
  642MOL0     H86612   9.836   0.119  10.412 -0.4920 -0.0180 -0.8293
  642MOL0     H86613   9.908  -0.118  10.595  1.2663  0.6428 -1.6402
  642MOL0     H86614   9.839   0.032  10.655 -1.0289 -0.0174  0.9398
  642MOL0     H86615   9.629  -0.014  10.521 -1.8299 -1.7659  1.9485
  642MOL0     H86616   9.698  -0.171  10.476  1.4705 -0.2009  0.5307
  642MOL0     H86617   9.657  -0.280  10.673 -1.6522 -0.6962 -3.9417
  642MOL0     H86618   9.660  -0.115  10.757 -0.6206 -0.7033  0.4543
  642MOL0     H86619   9.433  -0.068  10.674  1.1560  1.0958 -4.7104
  642MOL0     H86620   9.437  -0.208  10.763  1.9055  3.4434  2.1676
  642MOL0     H86621   9.437  -0.118  10.372 -3.1829 -1.3661 -2.0215
  642MOL0     H86622   9.433  -0.288  10.164 -1.1851  2.0912 -0.6829
  642MOL0     H86623   9.345  -0.448  10.210  1.4144  0.0825  2.4298
  642MOL0     H86624   9.210  -0.281  10.061 -1.1398 -1.1558 -0.4412
  642MOL0     H86625   9.244  -0.163  10.204  1.7847 -1.0050 -0.0701
  642MOL0     H86626   9.106  -0.322  10.337 -1.2940 -3.2595 -1.1346
  642MOL0     H86627   9.111  -0.435  10.202  0.5507 -0.8840 -3.1221
  642MOL0     H86628   8.965  -0.291  10.071 -1.4176 -0.4119 -0.5590
  642MOL0     H86629   8.992  -0.153  10.164  0.5202  0.1577  0.0775
  642MOL0     H86630   8.809  -0.080  10.091 -0.0289 -1.2611 -0.2405
  642MOL0     H86631   8.466   0.077  10.046  0.1381  1.1908  1.0775
  642MOL0     H86632   8.600   0.151  10.125 -3.9014  3.0283 -2.3836
  642MOL0     H86633   8.628   0.046   9.972  0.9639 -2.5029  0.2870
  642MOL0     H86634   8.134  -0.125  10.541  2.4187 -1.5109 -2.7679
  642MOL0     H86635   7.920  -0.021  10.571  2.1773  0.4636  0.3359
  642MOL0     H86636   7.669  -0.009  10.523  0.3158 -0.1513  2.3597
  642MOL0     H86637   7.716   0.154  10.543  0.7111  0.4452 -0.9261
  642MOL0     H86638   7.502   0.202  10.509  0.6381  0.4471 -0.1645
  642MOL0     H86639   7.588   0.248  10.362 -1.2574  0.7663 -1.2098
  642MOL0     H86640   7.431  -0.015  10.399  1.2962 -0.7982 -1.7115
  642MOL0     H86641   7.528   0.019  10.260 -2.1801  0.7275 -1.6834
  642MOL0     H86642   7.312   0.205  10.341  0.1338 -1.0327  0.9097
  642MOL0     H86643   7.404   0.231  10.204 -1.8410  0.1840 -0.5381
  642MOL0     H86644   7.219  -0.006  10.267 -1.6496  0.8574 -0.2672
  642MOL0     H86645   7.315  -0.009  10.122 -0.1474  1.0440 -2.2150
  642MOL0     H86646   7.119   0.211  10.200  0.2630  1.4426 -2.6234
  642MOL0     H86647   7.217   0.207  10.047 -0.3426 -1.1302 -1.4530
  642MOL0     H86648   6.991   0.016  10.147 -0.5304  0.1372  0.0442
  642MOL0     H86649   7.091  -0.005  10.002  0.6784  0.3071  1.1071
  642MOL0     H86650   6.868   0.191  10.060 -2.1601  2.2144 -2.7348
  642MOL0     H86651   6.881   0.090   9.922 -2.2132  1.9410  0.8979
  642MOL0     H86652   7.904   0.040  10.137  0.6024  0.1859  0.0240
  642MOL0     H86653   8.119  -0.048  10.123 -1.1641 -1.5951 -0.4662
  642MOL0     H86654   8.460  -0.270  10.384 -1.3471 -0.3304 -1.9473
  642MOL0     H86655   8.665  -0.371  10.375  0.0635  1.5710  1.7931
  642MOL0     H86656  10.389  -0.114  10.216 -1.3103 -0.1306 -0.0730
  642MOL0     H86657  10.634  -0.100  10.168 -0.2649 -0.4149 -1.0460
  642MOL0     H86658  10.921   0.165   9.901 -0.4315 -2.7429  0.6696
  642MOL0     H86659  11.144   0.233   9.809 -3.5997  4.9312  0.9430
  642MOL0     H86660  11.455   0.291  10.140 -3.2793  0.0441 -0.1174
  642MOL0     H86661  11.507   0.129  10.069 -0.8534 -0.8377 -0.8726
  642MOL0     H86662  11.553   0.410   9.934 -1.0407 -1.3537 -3.0463
  642MOL0     H86663  11.630   0.253   9.898 -1.4212  0.7459 -1.0169
  642MOL0     H86664  11.674   0.409  10.154  1.5704  3.4765 -1.0999
  642MOL0     H86665  11.758   0.440  10.006  3.0155 -1.7473  1.0392
  642MOL0     H86666  11.816   0.202   9.990  0.5755 -0.8525  0.8042
  642MOL0     H86667  11.766   0.175  10.155 -1.3214  1.6942  1.7198
  642MOL0     H86668  12.125   0.417  10.194 -1.1885  1.5557  3.0696
  642MOL0     H86669  11.308   0.141  10.199  0.9660  0.1565 -1.2221
  642MOL0     H86670  11.084   0.093  10.292  0.1840  1.3551 -0.1279
  643MOL0     O86671   8.525   8.060   2.210 -0.7970 -0.6720 -0.7889
  643MOL0     C86672   8.574   8.152   2.276 -0.4542 -0.0263 -0.5336
  643MOL0     O86673   8.497   8.251   2.350 -0.4099  0.3752 -0.3181
  643MOL0     C86674   8.365   8.220   2.363 -0.0393  0.2089  0.2036
  643MOL0     C86675   8.315   8.100   2.425 -0.0872  0.0286  0.5061
  643MOL0     C86676   8.176   8.086   2.435 -0.1809  0.4772 -0.4045
  643MOL0     C86677   8.079   8.179   2.388  0.3952  0.3647 -0.2039
  643MOL0     O86678   7.947   8.157   2.410 -0.3936 -0.0379 -0.2556
  643MOL0     C86679   7.844   8.225   2.344  0.2594 -0.5980  0.1839
  643MOL0     C86680   7.700   8.193   2.400  0.5879 -0.3959  0.4526
  643MOL0     C86681   7.590   8.274   2.344 -0.1836 -0.2013  0.5172
  643MOL0     C86682   7.481   8.286   2.447 -0.3466 -0.1258 -0.5881
  643MOL0     C86683   7.361   8.337   2.377 -0.0956  0.6215  0.7646
  643MOL0     C86684   7.249   8.385   2.473  0.7570 -0.4980  0.2725
  643MOL0     C86685   7.129   8.425   2.384  0.1668 -0.1934  0.8689
  643MOL0     C86686   7.058   8.310   2.333  0.0198  0.1354  0.7062
  643MOL0     N86687   6.954   8.360   2.234  0.6058  0.5040 -0.2294
  643MOL0     C86688   6.814   8.348   2.253  0.9750 -0.5118 -0.0665
  643MOL0     C86689   6.753   8.416   2.151 -0.0681  0.2776  0.5602
  643MOL0     C86690   6.611   8.434   2.118 -0.5265 -0.4913 -0.1999
  643MOL0     C86691   6.529   8.308   2.128 -0.5627 -0.1739  0.1772
  643MOL0     C86692   6.388   8.348   2.104 -0.2602  0.1248 -0.6325
  643MOL0     C86693   6.289   8.229   2.132 -0.3363  0.4632 -0.0975
  643MOL0     O86694   6.245   8.203   2.273 -0.3575  0.7419  0.2680
  643MOL0     C86695   6.139   8.116   2.292  0.6824  0.0338 -0.4632
  643MOL0     C86696   6.080   8.048   2.191  0.7960 -1.0285 -0.0573
  643MOL0     C86697   5.978   7.965   2.234  0.4102  1.1597 -0.7245
  643MOL0     C86698   5.897   7.907   2.116 -0.1665 -0.0400  0.1518
  643MOL0     C86699   5.951   7.933   2.366  0.2679  0.5228 -0.1061
  643MOL0     C86700   5.846   7.843   2.411 -0.6627  0.6674 -0.2011
  643MOL0     O86701   5.810   7.741   2.325  0.2351  0.6075  0.3713
  643MOL0     C86702   5.702   7.659   2.350  0.7808 -0.5652  0.2740
  643MOL0     C86703   5.697   7.545   2.271  0.4377 -0.2398  0.2466
  643MOL0     C86704   5.577   7.478   2.262 -0.1023 -0.1987  1.0064
  643MOL0     C86705   5.458   7.504   2.329 -0.0298 -0.4698  0.0057
  643MOL0     O86706   5.349   7.421   2.304 -0.6183 -0.0466 -0.7672
  643MOL0     C86707   5.251   7.433   2.406 -0.4049 -0.1507 -0.4380
  643MOL0     C86708   5.138   7.329   2.392 -0.3927 -0.2788 -0.3594
  643MOL0     C86709   5.197   7.182   2.402 -0.6508 -0.3039  0.0910
  643MOL0     C86710   5.089   7.079   2.386 -0.1051  0.6115  0.1780
  643MOL0     C86711   5.122   6.946   2.462  0.2170  0.6075  0.3623
  643MOL0     C86712   5.115   6.954   2.612  1.6115 -0.6080  0.3574
  643MOL0     C86713   5.133   6.818   2.670 -0.4811 -1.3316  0.4890
  643MOL0     C86714   5.280   6.782   2.684 -0.0572  0.1857  0.4603
  643MOL0    Cl86715   5.355   6.898   2.805  0.2815  0.1020 -0.1205
  643MOL0     C86716   5.466   7.615   2.413  0.2797 -0.3844 -0.1531
  643MOL0     C86717   5.591   7.689   2.428 -0.0490 -0.5238 -0.9331
  643MOL0     O86718   5.792   7.865   2.523 -0.3765  0.3993  0.4798
  643MOL0     C86719   6.023   7.998   2.459  0.0750 -0.1220  0.0318
  643MOL0     C86720   6.114   8.092   2.424  0.4115 -0.2693 -0.1278
  643MOL0     N86721   6.857   8.469   2.079 -0.0655 -0.2978  0.5327
  643MOL0     N86722   6.969   8.451   2.132  0.3107 -0.6411  0.4424
  643MOL0     C86723   8.132   8.288   2.323 -0.0777 -0.3083  0.3622
  643MOL0     C86724   8.273   8.308   2.310  0.7709 -0.5515 -0.8023
  643MOL0     C86725   8.717   8.166   2.284  0.3227 -0.3654  0.3460
  643MOL0     C86726   8.790   8.052   2.267  0.0643 -0.2615  0.6235
  643MOL0     C86727   8.926   8.067   2.292 -0.4836 -0.2457  0.2621
  643MOL0     C86728   8.988   8.188   2.332  0.0925 -0.6209 -0.2767
  643MOL0     O86729   9.124   8.195   2.351 -0.4255  0.0183  0.4229
  643MOL0     C86730   9.190   8.072   2.401  0.1411  0.4917  1.0198
  643MOL0     C86731   9.340   8.100   2.431  0.3946 -0.9357  0.0881
  643MOL0     C86732   9.440   7.984   2.411  0.6475 -0.5499 -0.3939
  643MOL0     C86733   9.590   8.017   2.436  0.6101  0.3642 -0.1301
  643MOL0     C86734   9.680   7.906   2.428 -0.1086  0.6447  0.4607
  643MOL0     C86735   9.765   7.815   2.429 -0.0870  0.5615  0.0979
  643MOL0     C86736   8.915   8.305   2.336 -0.6033 -0.1224  0.9115
  643MOL0     C86737   8.771   8.297   2.310 -0.3037 -0.8928 -0.1326
  643MOL0     H86738   8.383   8.024   2.462  0.2592 -0.5740 -1.2465
  643MOL0     H86739   8.140   7.993   2.477 -0.2170  0.5439 -0.2875
  643MOL0     H86740   7.867   8.332   2.340  2.4500 -1.0771 -1.3429
  643MOL0     H86741   7.854   8.201   2.238  3.1400 -1.3802  0.5774
  643MOL0     H86742   7.667   8.090   2.384 -1.9451  0.5808 -1.2559
  643MOL0     H86743   7.708   8.213   2.507  0.8003  0.1114  0.3437
  643MOL0     H86744   7.633   8.373   2.326  1.2770 -0.9043 -0.0480
  643MOL0     H86745   7.555   8.235   2.248  0.3728  1.4491 -0.3901
  643MOL0     H86746   7.446   8.191   2.488 -1.3737  0.4558 -0.0500
  643MOL0     H86747   7.512   8.360   2.522  1.0822  0.2932 -1.5629
  643MOL0     H86748   7.397   8.422   2.318 -2.1515  0.2716 -1.1343
  643MOL0     H86749   7.331   8.256   2.309 -0.9035  1.4237  0.1417
  643MOL0     H86750   7.214   8.310   2.544  0.2181 -2.0268 -1.5122
  643MOL0     H86751   7.285   8.473   2.527  1.2927 -0.4810 -0.1045
  643MOL0     H86752   7.055   8.462   2.456 -0.1716 -1.6046  1.2769
  643MOL0     H86753   7.161   8.495   2.306 -1.4282 -1.3404 -0.9025
  643MOL0     H86754   7.013   8.249   2.412 -2.7067 -0.6216 -1.2556
  643MOL0     H86755   7.125   8.248   2.273 -0.3207  1.3300 -0.9981
  643MOL0     H86756   6.772   8.284   2.330  1.6523 -0.6715  0.1713
  643MOL0     H86757   6.587   8.503   2.199  0.7570  1.7196 -1.5944
  643MOL0     H86758   6.605   8.487   2.022  3.8068 -2.1603 -1.6390
  643MOL0     H86759   6.537   8.275   2.232 -1.8142  1.3441  0.7899
  643MOL0     H86760   6.561   8.230   2.058  2.5076  0.8398  0.2968
  643MOL0     H86761   6.370   8.377   2.000  0.3202  0.4396 -0.6497
  643MOL0     H86762   6.357   8.429   2.169 -0.5386  0.7482 -1.5220
  643MOL0     H86763   6.342   8.141   2.095  0.0861  1.8119 -2.9568
  643MOL0     H86764   6.197   8.243   2.075 -1.7172  2.8189  2.4482
  643MOL0     H86765   6.095   8.049   2.083 -0.0362  0.1536 -0.1800
  643MOL0     H86766   5.789   7.901   2.133 -1.1488  1.0341 -4.3746
  643MOL0     H86767   5.903   7.961   2.021 -3.3054 -2.0195 -1.3326
  643MOL0     H86768   5.927   7.806   2.087 -3.7621 -1.4125  0.7261
  643MOL0     H86769   5.783   7.501   2.222  0.3775 -2.7989  2.2120
  643MOL0     H86770   5.584   7.390   2.199 -0.7180  2.2458 -2.8404
  643MOL0     H86771   5.285   7.434   2.510 -0.8760 -0.3984 -0.2775
  643MOL0     H86772   5.199   7.529   2.400  1.7025  1.3117  2.3056
  643MOL0     H86773   5.074   7.343   2.479  1.2950 -2.6791  1.3958
  643MOL0     H86774   5.091   7.351   2.296 -0.1246  3.3196  0.1903
  643MOL0     H86775   5.247   7.172   2.499 -0.2614 -0.4369 -0.1195
  643MOL0     H86776   5.277   7.175   2.328  0.2047  2.9852  0.5551
  643MOL0     H86777   4.997   7.116   2.431  0.4650  1.4846  0.6404
  643MOL0     H86778   5.067   7.051   2.283  2.0019  0.0770 -0.1700
  643MOL0     H86779   5.224   6.917   2.434  0.5765 -1.6417  3.4973
  643MOL0     H86780   5.059   6.867   2.421  0.5436 -0.5229  1.9863
  643MOL0     H86781   5.189   7.016   2.664 -1.3641  2.0170  1.7865
  643MOL0     H86782   5.017   6.983   2.649  1.0407 -1.1846 -0.6519
  643MOL0     H86783   5.083   6.742   2.610  0.0336 -0.6325 -0.8811
  643MOL0     H86784   5.096   6.822   2.773 -0.0182 -0.3365  0.6272
  643MOL0     H86785   5.334   6.779   2.589  2.2472 -2.7282  1.6977
  643MOL0     H86786   5.287   6.681   2.726  0.2462 -0.0691 -0.1936
  643MOL0     H86787   5.374   7.649   2.459 -0.6993 -1.5554 -1.1504
  643MOL0     H86788   5.588   7.767   2.504  0.5770 -1.7326  0.3773
  643MOL0     H86789   6.021   7.979   2.566 -0.5784  2.0322  0.4483
  643MOL0     H86790   6.162   8.158   2.495  0.3539  1.2046 -1.4065
  643MOL0     H86791   8.070   8.371   2.290  1.3427  1.7211  2.4684
  643MOL0     H86792   8.316   8.394   2.261  0.7628 -0.5129 -0.7412
  643MOL0     H86793   8.745   7.955   2.250 -0.7859  0.0182  1.2098
  643MOL0     H86794   8.988   7.981   2.271  0.3087 -0.1147  1.9147
  643MOL0     H86795   9.138   8.031   2.488  0.0133  0.6631  1.0252
  643MOL0     H86796   9.203   7.995   2.324  2.9815  0.2956  1.5656
  643MOL0     H86797   9.357   8.143   2.531  1.1171  1.1442 -0.8617
  643MOL0     H86798   9.376   8.184   2.370 -2.9557  0.1644 -0.5387
  643MOL0     H86799   9.422   7.976   2.304 -0.3921 -2.8749 -0.1144
  643MOL0     H86800   9.409   7.896   2.470 -2.7266 -0.2752 -1.5489
  643MOL0     H86801   9.593   8.060   2.536  1.3735 -2.0030  0.9390
  643MOL0     H86802   9.633   8.087   2.364  1.9995 -0.4293 -0.1002
  643MOL0     H86803   9.823   7.727   2.447  1.4968  1.1353 -1.8570
  643MOL0     H86804   8.955   8.401   2.367 -0.1768  0.0818 -0.2195
  643MOL0     H86805   8.704   8.381   2.327  0.8823 -0.4046  2.5954
  644MOL0     O86806   3.084   0.075   3.683  0.1478 -0.2133  0.1128
  644MOL0     C86807   3.101   0.127   3.570 -0.4099  0.0517 -0.2874
  644MOL0     O86808   3.005   0.140   3.478 -0.8715  0.1617 -0.5665
  644MOL0     C86809   2.873   0.112   3.504 -0.2633 -0.0580 -1.2039
  644MOL0     C86810   2.799   0.122   3.629  0.1004 -0.3228  0.0933
  644MOL0     C86811   2.660   0.110   3.643 -0.8425  0.5889 -0.6017
  644MOL0     C86812   2.576   0.091   3.534 -0.4873 -0.0773 -0.2983
  644MOL0     O86813   2.437   0.071   3.541  0.4938  0.2934 -0.2850
  644MOL0     C86814   2.368   0.097   3.670  0.5381 -0.4223  0.9262
  644MOL0     C86815   2.233   0.029   3.682  0.2566 -0.1355 -0.4482
  644MOL0     C86816   2.135   0.079   3.569  0.2839  0.2843 -0.3306
  644MOL0     C86817   2.003   0.011   3.577  0.7008  0.2462  0.0306
  644MOL0     C86818   1.892   0.084   3.504 -0.5658  0.8034 -0.3797
  644MOL0     C86819   1.775  -0.009   3.472 -0.1519 -0.1922 -0.1618
  644MOL0     C86820   1.648   0.060   3.440 -0.0240 -0.0237  0.5400
  644MOL0     C86821   1.530  -0.022   3.436 -0.1642 -0.0898 -0.0127
  644MOL0     N86822   1.404   0.045   3.403  0.3882  0.6072 -0.1535
  644MOL0     C86823   1.311   0.076   3.496  0.9581 -0.2218  0.3892
  644MOL0     C86824   1.194   0.078   3.426  0.6673  0.2661 -0.5128
  644MOL0     C86825   1.056   0.113   3.473 -0.9891 -0.4715 -0.3222
  644MOL0     C86826   0.977   0.204   3.376 -0.1559 -0.2084 -0.5477
  644MOL0     C86827   0.866   0.283   3.454  0.0514  0.0996 -0.5663
  644MOL0     C86828   0.794   0.379   3.365  0.5987 -0.2060 -0.1492
  644MOL0     O86829   0.706   0.302   3.280  0.2198  0.1122 -0.2603
  644MOL0     C86830   0.590   0.367   3.244 -0.8524  0.4830 -0.1744
  644MOL0     C86831   0.484   0.286   3.213  0.4647 -0.4283 -0.5715
  644MOL0     C86832   0.360   0.342   3.175 -0.0075 -0.1364  0.2774
  644MOL0     C86833   0.255   0.248   3.129  0.1583  0.8580  1.2375
  644MOL0     C86834   0.331   0.481   3.196 -0.2396  0.4308  0.3108
  644MOL0     C86835   0.196   0.547   3.172 -0.0495  0.8040 -0.3091
  644MOL0     O86836   0.091   0.476   3.232  0.2006  0.4322 -0.5309
  644MOL0     C86837  -0.047   0.500   3.199 -0.6368  0.7714  0.2994
  644MOL0     C86838  -0.130   0.387   3.175  0.1841  0.3379  0.5309
  644MOL0     C86839  -0.265   0.410   3.129  0.4414 -0.4921 -0.2830
  644MOL0     C86840  -0.310   0.540   3.105 -0.0961  0.5475  0.2991
  644MOL0     O86841  -0.446   0.551   3.068 -0.3549  0.2434  0.1626
  644MOL0     C86842  -0.517   0.675   3.079 -0.2126  0.0170 -0.1656
  644MOL0     C86843  -0.662   0.660   3.066 -0.1771 -0.3338 -0.3435
  644MOL0     C86844  -0.705   0.628   2.923 -0.2161  0.3757  0.8628
  644MOL0     C86845  -0.858   0.585   2.920  0.1021  0.7802 -0.4214
  644MOL0     C86846  -0.934   0.711   2.904  0.1419 -1.1944  0.1812
  644MOL0     C86847  -1.082   0.689   2.866  0.5713  0.5391  0.2800
  644MOL0     C86848  -1.149   0.818   2.837  0.6123 -0.3414 -0.1665
  644MOL0     C86849  -1.295   0.794   2.800 -0.2073 -0.7157  0.2099
  644MOL0    Cl86850  -1.379   0.701   2.918 -0.3016  0.0900 -0.3393
  644MOL0     C86851  -0.229   0.651   3.133  0.9783 -0.6386 -0.1481
  644MOL0     C86852  -0.095   0.628   3.184  0.3347  1.1143 -0.2329
  644MOL0     O86853   0.186   0.659   3.120  0.0485  0.0561  0.3701
  644MOL0     C86854   0.433   0.564   3.224 -0.3342  0.3671  0.1380
  644MOL0     C86855   0.562   0.509   3.250  0.1204  0.5519  0.4252
  644MOL0     N86856   1.221   0.044   3.298 -0.2702  0.1823 -0.0145
  644MOL0     N86857   1.352   0.032   3.280  0.4696  0.5444  0.3034
  644MOL0     C86858   2.648   0.079   3.413 -0.1685  0.0306 -0.3039
  644MOL0     C86859   2.785   0.089   3.396  0.1844 -0.1077  0.4980
  644MOL0     C86860   3.235   0.187   3.545  0.4362  0.5421  0.3167
  644MOL0     C86861   3.275   0.221   3.412  0.5659  0.0304 -0.8341
  644MOL0     C86862   3.397   0.277   3.382  0.3610  0.4251 -0.5027
  644MOL0     C86863   3.488   0.296   3.478 -0.2330  0.3274  0.6812
  644MOL0     O86864   3.611   0.333   3.432 -0.3184 -0.1569  0.3911
  644MOL0     C86865   3.718   0.336   3.528  1.0809 -0.0326  0.5081
  644MOL0     C86866   3.854   0.357   3.458 -0.4556  0.5292 -0.1476
  644MOL0     C86867   3.901   0.249   3.369 -1.0420  0.7816  0.8892
  644MOL0     C86868   3.937   0.284   3.220 -0.3724 -0.0142 -0.3333
  644MOL0     C86869   4.058   0.365   3.212 -0.6521 -0.8231  0.9348
  644MOL0     C86870   4.169   0.424   3.212  0.4089  0.1361 -0.9843
  644MOL0     C86871   3.453   0.271   3.613  0.3394  0.0021 -1.2320
  644MOL0     C86872   3.331   0.215   3.644  0.2676  0.2735  0.2459
  644MOL0     H86873   2.841   0.152   3.724  0.7351 -1.6291  0.2391
  644MOL0     H86874   2.623   0.119   3.745  1.3091 -0.4490  0.3427
  644MOL0     H86875   2.441   0.068   3.746  0.9213  0.9055  1.0789
  644MOL0     H86876   2.363   0.206   3.678  1.2634 -0.2692 -0.3427
  644MOL0     H86877   2.231  -0.078   3.660 -2.0376 -0.0860 -0.6857
  644MOL0     H86878   2.185   0.057   3.776  0.5227  1.2072 -0.6922
  644MOL0     H86879   2.117   0.185   3.591  0.4192  0.8354 -2.6194
  644MOL0     H86880   2.176   0.070   3.468 -0.5449 -1.3519 -0.5544
  644MOL0     H86881   2.013  -0.085   3.525  1.8254  1.0350 -1.2876
  644MOL0     H86882   1.983  -0.007   3.683  1.5919  0.7508  0.2941
  644MOL0     H86883   1.868   0.171   3.566 -1.9408  0.6751 -0.6989
  644MOL0     H86884   1.936   0.122   3.412  1.9931 -2.5548 -0.7190
  644MOL0     H86885   1.802  -0.082   3.394  0.4498  0.2082 -0.3322
  644MOL0     H86886   1.761  -0.067   3.564 -2.6787 -0.4392 -0.6368
  644MOL0     H86887   1.641   0.153   3.499 -0.3253 -0.1419  0.6920
  644MOL0     H86888   1.666   0.105   3.342  1.1068 -2.5620 -0.4795
  644MOL0     H86889   1.526  -0.074   3.532  0.4552 -2.2982 -1.1031
  644MOL0     H86890   1.538  -0.101   3.361  0.1577 -0.9330  0.8870
  644MOL0     H86891   1.327   0.090   3.603 -2.3890  2.2141  0.7525
  644MOL0     H86892   1.009   0.015   3.489  2.4489 -2.7378 -2.5309
  644MOL0     H86893   1.072   0.156   3.572 -0.1875 -1.1488 -0.1391
  644MOL0     H86894   0.936   0.147   3.292 -0.5558 -0.5387 -0.1298
  644MOL0     H86895   1.034   0.276   3.315  0.1534  0.9401  1.0536
  644MOL0     H86896   0.911   0.347   3.531 -0.1464 -0.9131  0.4265
  644MOL0     H86897   0.801   0.210   3.503  0.6226  1.2744  2.1429
  644MOL0     H86898   0.869   0.430   3.303 -1.7770  3.7290 -0.1368
  644MOL0     H86899   0.739   0.447   3.430  0.9268 -1.8972  2.0144
  644MOL0     H86900   0.484   0.178   3.208  1.0809 -0.5062  0.7746
  644MOL0     H86901   0.307   0.183   3.059  1.8174  3.8625 -0.5669
  644MOL0     H86902   0.196   0.197   3.206 -1.2271 -2.1977 -1.6299
  644MOL0     H86903   0.180   0.295   3.065  1.0481 -0.3520 -0.7888
  644MOL0     H86904  -0.079   0.292   3.185 -0.3369 -0.0328 -0.2518
  644MOL0     H86905  -0.341   0.340   3.098 -0.0278  0.9591 -2.6489
  644MOL0     H86906  -0.501   0.728   3.173 -4.3731  1.7663 -0.2236
  644MOL0     H86907  -0.482   0.739   2.997 -1.0857  0.0791 -0.5034
  644MOL0     H86908  -0.702   0.581   3.132  0.4779  1.6988  2.6774
  644MOL0     H86909  -0.706   0.754   3.101 -1.4439 -1.3327  0.8729
  644MOL0     H86910  -0.641   0.552   2.878  1.5930  2.2713  0.0970
  644MOL0     H86911  -0.688   0.716   2.860  0.8097 -0.4350 -0.0316
  644MOL0     H86912  -0.887   0.523   2.835  1.1839 -0.6655  0.2141
  644MOL0     H86913  -0.881   0.531   3.013  2.2495 -0.3600 -0.4765
  644MOL0     H86914  -0.890   0.767   2.821 -2.0823 -2.1649 -1.7752
  644MOL0     H86915  -0.919   0.773   2.992  2.3971 -0.1505 -0.8269
  644MOL0     H86916  -1.096   0.619   2.783 -0.7737 -1.0880  1.7949
  644MOL0     H86917  -1.128   0.634   2.948 -2.0207  0.8809 -0.8470
  644MOL0     H86918  -1.104   0.872   2.753 -1.0845  2.3933  0.5418
  644MOL0     H86919  -1.147   0.881   2.927  3.1233  0.9988 -1.0579
  644MOL0     H86920  -1.301   0.746   2.702  0.2893 -0.9251  0.2797
  644MOL0     H86921  -1.334   0.895   2.783  1.5047  0.3401  2.0588
  644MOL0     H86922  -0.277   0.748   3.128 -0.4014 -1.1496  1.9152
  644MOL0     H86923  -0.027   0.712   3.198  0.2990  1.4757 -2.0708
  644MOL0     H86924   0.422   0.672   3.230  2.0994  0.5859  2.4919
  644MOL0     H86925   0.638   0.579   3.285 -1.4222  2.2896  0.5131
  644MOL0     H86926   2.586   0.076   3.324 -2.7616 -1.1174  1.4048
  644MOL0     H86927   2.846   0.086   3.307  0.8402 -0.0895  0.9423
  644MOL0     H86928   3.210   0.212   3.326 -2.1185 -1.4085  1.1967
  644MOL0     H86929   3.415   0.320   3.283 -1.0302  2.1418 -0.0638
  644MOL0     H86930   3.700   0.423   3.591 -3.1635 -1.9973  2.3338
  644MOL0     H86931   3.728   0.243   3.584  2.0367  0.3928  1.0716
  644MOL0     H86932   3.924   0.365   3.542 -0.5720 -1.3708  0.1714
  644MOL0     H86933   3.841   0.452   3.405 -2.5164  0.6086  0.4133
  644MOL0     H86934   3.815   0.182   3.367 -1.2514  1.0031  1.9778
  644MOL0     H86935   3.984   0.197   3.417 -0.4275  0.3922 -0.5257
  644MOL0     H86936   3.853   0.334   3.170  0.6817  1.1092 -1.0347
  644MOL0     H86937   3.956   0.192   3.166  5.8490 -0.9750  2.6387
  644MOL0     H86938   4.269   0.463   3.214 -0.6900  3.2305 -1.2136
  644MOL0     H86939   3.520   0.287   3.697  0.1236  2.6056 -1.4736
  644MOL0     H86940   3.307   0.196   3.748 -0.9671  0.6109  0.0423
  645MOL0     O86941   5.344   6.786   3.299  0.0574  0.3239 -0.2411
  645MOL0     C86942   5.368   6.766   3.175  0.4875 -0.2570  0.1488
  645MOL0     O86943   5.277   6.798   3.070  0.1934 -0.0254 -0.3972
  645MOL0     C86944   5.161   6.855   3.106 -0.0272  0.3896  0.3263
  645MOL0     C86945   5.061   6.781   3.160  0.4503  0.2179 -0.3073
  645MOL0     C86946   4.937   6.838   3.199  0.4922  0.8782 -0.0904
  645MOL0     C86947   4.923   6.978   3.180  0.1107 -0.0376  0.2871
  645MOL0     O86948   4.800   7.023   3.228 -0.0006 -0.2820  0.2486
  645MOL0     C86949   4.801   7.144   3.301  1.2022  0.3493 -0.2546
  645MOL0     C86950   4.713   7.131   3.425  0.0919  0.0831 -0.7417
  645MOL0     C86951   4.695   7.272   3.488 -0.0151  0.5425  0.0288
  645MOL0     C86952   4.621   7.276   3.623  0.0991 -0.3083 -0.3131
  645MOL0     C86953   4.629   7.416   3.688  0.2300  0.0770  0.3132
  645MOL0     C86954   4.541   7.428   3.820  0.3707 -0.4569  0.2935
  645MOL0     C86955   4.579   7.330   3.933  0.0709  0.5248 -1.1481
  645MOL0     C86956   4.505   7.355   4.071 -0.1514  0.7166  0.5151
  645MOL0     N86957   4.364   7.336   4.056 -0.0850  0.7195  0.7736
  645MOL0     C86958   4.300   7.233   3.987 -0.7560 -0.5528  0.3331
  645MOL0     C86959   4.171   7.225   4.033 -0.5991 -0.6018 -1.3104
  645MOL0     C86960   4.061   7.116   4.011  0.2227 -0.1984  0.3276
  645MOL0     C86961   4.013   7.117   3.859  0.9211  0.6651  0.4037
  645MOL0     C86962   3.937   7.243   3.809 -0.1409  0.6468  0.4645
  645MOL0     C86963   3.805   7.274   3.885  0.0907  0.4661 -0.2933
  645MOL0     O86964   3.731   7.370   3.799 -1.2137 -0.3073  0.8315
  645MOL0     C86965   3.614   7.332   3.752  0.8456 -0.4858 -0.4342
  645MOL0     C86966   3.519   7.272   3.838 -0.1183  1.4444  0.9802
  645MOL0     C86967   3.385   7.247   3.808 -0.7203 -0.2444  0.2239
  645MOL0     C86968   3.304   7.171   3.904 -0.9146 -0.2078 -0.7786
  645MOL0     C86969   3.334   7.297   3.685 -0.4015 -0.7359  0.1180
  645MOL0     C86970   3.182   7.280   3.665  0.0687 -0.4255 -0.5581
  645MOL0     O86971   3.154   7.246   3.535 -0.2105 -0.8742  0.2805
  645MOL0     C86972   3.022   7.225   3.503 -0.7385  0.7450 -0.3221
  645MOL0     C86973   2.943   7.134   3.576 -0.6315  0.0659 -0.7074
  645MOL0     C86974   2.814   7.104   3.547  0.4166 -0.1185  0.0605
  645MOL0     C86975   2.752   7.161   3.436 -0.1399 -0.5421 -0.0199
  645MOL0     O86976   2.631   7.132   3.396  0.6464  0.2292  0.6172
  645MOL0     C86977   2.546   7.065   3.488 -0.4590 -0.4009  0.0204
  645MOL0     C86978   2.401   7.101   3.444  0.2401 -0.0513  0.0222
  645MOL0     C86979   2.302   7.003   3.487  0.5992 -0.1263 -0.1611
  645MOL0     C86980   2.183   7.007   3.386  0.1554 -0.3862 -0.5962
  645MOL0     C86981   2.064   6.953   3.447 -0.7187 -0.1233  0.8670
  645MOL0     C86982   1.999   7.045   3.551 -0.0892  0.5783  0.4012
  645MOL0     C86983   1.848   7.018   3.574  0.0541 -0.0718 -0.9724
  645MOL0     C86984   1.773   7.132   3.644  0.0791 -0.0877 -0.0025
  645MOL0    Cl86985   1.618   7.071   3.709  0.4352 -0.0625  0.4556
  645MOL0     C86986   2.831   7.243   3.361  0.5209 -0.2381  0.6817
  645MOL0     C86987   2.969   7.273   3.385  0.5506 -1.1583  0.0832
  645MOL0     O86988   3.099   7.308   3.750  0.1338 -0.4327  0.2232
  645MOL0     C86989   3.427   7.360   3.588  0.6922 -0.0711 -0.2627
  645MOL0     C86990   3.566   7.378   3.628  0.3269  0.0682 -0.4649
  645MOL0     N86991   4.167   7.327   4.129  0.6235 -0.2418  0.0139
  645MOL0     N86992   4.277   7.394   4.138  0.4554 -0.2620 -0.1774
  645MOL0     C86993   5.020   7.062   3.131 -0.0946 -0.4727  1.0969
  645MOL0     C86994   5.140   6.995   3.094 -0.2523  0.0620  1.0921
  645MOL0     C86995   5.495   6.700   3.139  0.6905 -0.4124 -0.0940
  645MOL0     C86996   5.524   6.672   3.001  0.2998 -0.5022  0.1479
  645MOL0     C86997   5.639   6.613   2.963  0.2777  0.5787  0.1145
  645MOL0     C86998   5.735   6.568   3.053  0.1672 -0.4430  1.0599
  645MOL0     O86999   5.852   6.513   3.019  0.4111  0.6260 -1.0374
  645MOL0     C87000   5.883   6.481   2.887 -0.3666 -0.0074  0.8811
  645MOL0     C87001   6.026   6.431   2.874  0.2439  0.7170 -0.3578
  645MOL0     C87002   6.123   6.549   2.909 -0.0471 -0.3986 -0.4870
  645MOL0     C87003   6.269   6.549   2.866 -0.2214 -0.2641  0.9315
  645MOL0     C87004   6.335   6.448   2.942 -0.3932  0.6809  0.4529
  645MOL0     C87005   6.377   6.361   3.018  0.7357 -0.6253  0.2966
  645MOL0     C87006   5.710   6.584   3.187  0.9334 -0.3166 -0.5889
  645MOL0     C87007   5.590   6.648   3.225 -0.5977 -0.3572 -0.1826
  645MOL0     H87008   5.075   6.674   3.158  3.0521  0.4748 -0.0098
  645MOL0     H87009   4.849   6.779   3.221  0.9394 -1.2871 -3.3826
  645MOL0     H87010   4.899   7.178   3.336  1.4443 -1.8857  1.4838
  645MOL0     H87011   4.741   7.216   3.245 -1.2782 -0.2362  1.5035
  645MOL0     H87012   4.613   7.099   3.396  0.8382 -2.0700 -1.1163
  645MOL0     H87013   4.760   7.051   3.483  2.5657  1.2107 -1.0563
  645MOL0     H87014   4.784   7.335   3.502  2.8725 -3.2808  0.3192
  645MOL0     H87015   4.632   7.326   3.417  1.0329 -1.1806 -2.3568
  645MOL0     H87016   4.515   7.251   3.610 -0.1879  1.4664 -1.7005
  645MOL0     H87017   4.657   7.203   3.697  1.2402  1.6731  1.1867
  645MOL0     H87018   4.730   7.446   3.718 -0.2475  4.6278 -1.8017
  645MOL0     H87019   4.589   7.489   3.617  2.0460  1.3087  0.4812
  645MOL0     H87020   4.555   7.529   3.860  1.9248 -0.4689 -0.1436
  645MOL0     H87021   4.435   7.411   3.796  0.7186  0.0050 -1.7376
  645MOL0     H87022   4.570   7.224   3.907 -1.3474 -0.6723  3.3242
  645MOL0     H87023   4.683   7.342   3.965 -0.7741  3.2128  0.9901
  645MOL0     H87024   4.521   7.457   4.105 -1.2689  1.4946 -1.1377
  645MOL0     H87025   4.546   7.278   4.138 -1.3569  0.5469  1.0860
  645MOL0     H87026   4.344   7.167   3.913 -0.8978 -0.7455  0.4218
  645MOL0     H87027   4.097   7.013   4.021 -2.0867 -1.2379 -1.2348
  645MOL0     H87028   3.978   7.139   4.078  1.7843  4.3199  1.0368
  645MOL0     H87029   3.934   7.043   3.843  1.4347 -0.2006  1.7338
  645MOL0     H87030   4.104   7.105   3.800  0.0773  0.9176 -1.0121
  645MOL0     H87031   3.922   7.223   3.702 -1.2715  1.7812  0.3944
  645MOL0     H87032   4.006   7.327   3.823 -0.4951  1.1293 -0.5598
  645MOL0     H87033   3.819   7.326   3.980  0.8416  0.1571 -0.2332
  645MOL0     H87034   3.756   7.180   3.909 -0.0096  0.4941 -0.3853
  645MOL0     H87035   3.548   7.247   3.939 -1.9441 -0.8890  1.0219
  645MOL0     H87036   3.235   7.239   3.955 -0.3411 -1.0302  1.1748
  645MOL0     H87037   3.242   7.102   3.846 -0.0409 -2.4456  0.8329
  645MOL0     H87038   3.372   7.124   3.976  0.8944  2.4446 -0.6138
  645MOL0     H87039   2.992   7.078   3.655  0.9891  0.9958 -1.0159
  645MOL0     H87040   2.768   7.024   3.604  1.1242 -1.2263 -0.8576
  645MOL0     H87041   2.566   6.959   3.502  3.1650  0.1608  0.0573
  645MOL0     H87042   2.569   7.101   3.589  2.8571 -5.0865  1.2536
  645MOL0     H87043   2.371   7.195   3.491 -1.6905 -1.1792  1.1702
  645MOL0     H87044   2.394   7.117   3.336  0.8869 -1.0645 -0.1767
  645MOL0     H87045   2.270   7.026   3.589  1.2312 -0.1672  0.0546
  645MOL0     H87046   2.341   6.901   3.482  3.1263  0.7571  0.0163
  645MOL0     H87047   2.159   7.108   3.352 -2.1021 -0.2779  1.0686
  645MOL0     H87048   2.203   6.955   3.291  0.5854 -2.7999  0.7299
  645MOL0     H87049   2.098   6.860   3.494  3.4796  0.1510 -1.2151
  645MOL0     H87050   1.997   6.940   3.362  0.5690  1.1453 -0.3780
  645MOL0     H87051   2.055   7.049   3.644  0.1854 -0.5273  0.3033
  645MOL0     H87052   2.003   7.147   3.512  1.0365  0.3761 -0.0588
  645MOL0     H87053   1.834   6.926   3.632 -1.4911 -1.1175 -2.8730
  645MOL0     H87054   1.802   7.002   3.476 -3.0935 -0.2087  0.3770
  645MOL0     H87055   1.749   7.203   3.564 -2.4456  0.6417  1.3221
  645MOL0     H87056   1.839   7.164   3.725 -0.6774 -2.0603  1.4618
  645MOL0     H87057   2.786   7.286   3.272  0.6177 -0.6432  0.4367
  645MOL0     H87058   3.026   7.339   3.321  0.4735 -2.1009 -0.9965
  645MOL0     H87059   3.395   7.387   3.488  0.0676  1.4758  0.3270
  645MOL0     H87060   3.633   7.436   3.566 -0.3166 -0.3468 -1.5758
  645MOL0     H87061   5.012   7.169   3.122 -0.2746 -0.4482  1.5298
  645MOL0     H87062   5.218   7.062   3.059  1.6640 -1.6453  1.8727
  645MOL0     H87063   5.459   6.706   2.921  0.9728  1.6103  0.4563
  645MOL0     H87064   5.652   6.584   2.859  0.8950  1.5199 -0.0766
  645MOL0     H87065   5.819   6.397   2.856  2.5986 -2.3101  0.5128
  645MOL0     H87066   5.881   6.565   2.817  1.4095 -1.3177 -0.8528
  645MOL0     H87067   6.045   6.412   2.768  1.2075 -0.1237 -0.0495
  645MOL0     H87068   6.039   6.334   2.921 -1.2136  0.7962  0.2643
  645MOL0     H87069   6.135   6.556   3.018 -3.1767  1.6848 -0.1462
  645MOL0     H87070   6.081   6.643   2.874 -0.8283 -0.6186 -0.1714
  645MOL0     H87071   6.321   6.644   2.882  0.5457  0.2021 -3.0676
  645MOL0     H87072   6.286   6.541   2.758  0.0561  2.3854  0.7065
  645MOL0     H87073   6.411   6.288   3.088  3.6102  0.0230 -0.2906
  645MOL0     H87074   5.777   6.543   3.262  2.2404  0.7213 -1.1503
  645MOL0     H87075   5.574   6.686   3.325  2.6024  3.7186 -0.9170
  646MOL0     O87076   5.626  11.255   9.593 -0.6071 -0.8145  0.4303
  646MOL0     C87077   5.675  11.227   9.702 -0.4926  0.5956  0.5078
  646MOL0     O87078   5.606  11.179   9.809 -0.4424  0.0683  0.3891
  646MOL0     C87079   5.471  11.190   9.797 -0.2800  0.4220  0.7009
  646MOL0     C87080   5.401  11.075   9.795  0.2317  0.9412  0.0106
  646MOL0     C87081   5.261  11.085   9.796  0.1146  0.2039  0.9508
  646MOL0     C87082   5.191  11.205   9.794  0.8184 -0.2042 -0.4583
  646MOL0     O87083   5.052  11.214   9.790  0.4459  0.0078  0.0715
  646MOL0     C87084   4.978  11.130   9.697 -0.3162 -0.6725  0.5330
  646MOL0     C87085   4.838  11.185   9.695 -0.4118  0.0205 -0.9510
  646MOL0     C87086   4.752  11.121   9.584 -0.0110 -0.3704  0.1102
  646MOL0     C87087   4.614  11.193   9.579  0.5829 -0.4711 -0.6106
  646MOL0     C87088   4.511  11.127   9.479  0.4806 -0.5074  0.1164
  646MOL0     C87089   4.385  11.191   9.485  0.0676  0.3182  0.3258
  646MOL0     C87090   4.291  11.157   9.366 -0.4980  0.5087 -0.2120
  646MOL0     C87091   4.200  11.039   9.392 -0.7871 -0.0301  0.3528
  646MOL0     N87092   4.107  11.042   9.504  0.4478  0.7334 -0.1096
  646MOL0     C87093   3.973  11.066   9.501  0.7818  0.4995  0.4087
  646MOL0     C87094   3.927  11.031   9.621 -0.3181  0.4472  0.8004
  646MOL0     C87095   3.786  11.046   9.662  0.5423 -0.0873  0.2208
  646MOL0     C87096   3.780  11.156   9.760  0.2105 -0.1648  0.0298
  646MOL0     C87097   3.844  11.146   9.897  1.0756 -0.0934 -0.1765
  646MOL0     C87098   3.813  11.012   9.962  0.4622  0.4047 -0.5665
  646MOL0     O87099   3.869  11.015  10.093 -0.1999  0.4065 -0.3113
  646MOL0     C87100   4.005  11.005  10.096  0.1322 -0.5677  1.3976
  646MOL0     C87101   4.072  10.906  10.027  0.2481 -0.0626 -1.2265
  646MOL0     C87102   4.217  10.895  10.038 -0.0700 -0.1544  0.0385
  646MOL0     C87103   4.285  10.782   9.969 -1.5505  0.1022  0.3850
  646MOL0     C87104   4.288  10.994  10.119 -0.3782  0.3509 -0.6975
  646MOL0     C87105   4.432  10.993  10.151  0.3572  0.2260  0.5972
  646MOL0     O87106   4.514  10.910  10.080  0.2637  0.1947  0.1091
  646MOL0     C87107   4.650  10.895  10.111 -0.1704 -0.0011 -0.8157
  646MOL0     C87108   4.738  10.990  10.072 -0.8316 -1.1208 -0.5990
  646MOL0     C87109   4.873  10.976  10.076 -0.3169  1.2464  0.9769
  646MOL0     C87110   4.923  10.868  10.142 -0.5927 -1.0002 -0.1265
  646MOL0     O87111   5.048  10.843  10.190  0.0545  0.4555  0.6390
  646MOL0     C87112   5.158  10.888  10.112  0.5632 -0.2606 -0.0279
  646MOL0     C87113   5.282  10.806  10.158  0.4562  0.5483  0.3914
  646MOL0     C87114   5.415  10.847  10.107 -0.0785 -0.0804 -0.3583
  646MOL0     C87115   5.444  10.986  10.168  0.5420 -0.0593 -0.3690
  646MOL0     C87116   5.578  11.047  10.128 -0.2376  0.3593  0.5087
  646MOL0     C87117   5.707  10.974  10.164 -0.0463 -0.1231  0.0577
  646MOL0     C87118   5.744  10.997  10.315  0.5628  0.1612  0.7044
  646MOL0     C87119   5.801  11.142  10.340  0.1279  0.0518  0.1214
  646MOL0    Cl87120   5.891  11.153  10.496 -0.2750  0.0242 -0.0052
  646MOL0     C87121   4.836  10.770  10.190  0.6769 -0.3821  0.1491
  646MOL0     C87122   4.692  10.782  10.175 -0.4110 -0.6556 -0.0373
  646MOL0     O87123   4.465  11.050  10.253 -0.0514  0.0175 -0.1372
  646MOL0     C87124   4.213  11.093  10.186  0.2189 -0.1789  0.3408
  646MOL0     C87125   4.072  11.095  10.171 -0.0223 -0.5084  0.0039
  646MOL0     N87126   4.035  10.975   9.695  0.8642  0.3095 -0.2324
  646MOL0     N87127   4.140  10.989   9.625 -0.1829 -0.2012 -0.7820
  646MOL0     C87128   5.270  11.323   9.807 -0.6049 -0.3447  0.2719
  646MOL0     C87129   5.412  11.312   9.806  0.2830 -0.2690  0.3054
  646MOL0     C87130   5.809  11.268   9.736 -0.5656 -0.0452  0.1962
  646MOL0     C87131   5.871  11.221   9.849 -0.5986 -0.3963  0.6251
  646MOL0     C87132   5.995  11.268   9.886 -1.2238 -0.3039 -0.3165
  646MOL0     C87133   6.064  11.359   9.808  0.0612  0.5252 -0.1878
  646MOL0     O87134   6.187  11.411   9.842  0.9107 -0.7684  0.0357
  646MOL0     C87135   6.289  11.330   9.888  0.1861  0.0573 -1.4246
  646MOL0     C87136   6.420  11.407   9.874 -0.7081  0.7446 -0.5851
  646MOL0     C87137   6.439  11.463   9.729 -0.3806 -0.1956 -0.3273
  646MOL0     C87138   6.554  11.562   9.720 -0.4431 -0.8875  1.0374
  646MOL0     C87139   6.575  11.622   9.589 -0.2484  1.5310  0.0383
  646MOL0     C87140   6.596  11.669   9.477  0.4735 -1.0185  0.1312
  646MOL0     C87141   5.998  11.403   9.692 -0.7093  0.1232  0.0477
  646MOL0     C87142   5.876  11.357   9.651  0.4642  0.6938  0.6911
  646MOL0     H87143   5.444  10.975   9.794 -0.2364  0.6910  1.7592
  646MOL0     H87144   5.192  11.002   9.794 -1.0532  1.1567  0.5136
  646MOL0     H87145   5.023  11.135   9.597 -1.8988 -0.3112 -0.1990
  646MOL0     H87146   4.977  11.024   9.722  2.3474 -0.7994  0.3720
  646MOL0     H87147   4.792  11.177   9.794 -0.7212  0.3469 -1.0647
  646MOL0     H87148   4.850  11.291   9.671  0.3235  0.3875  0.8684
  646MOL0     H87149   4.798  11.141   9.487  0.6811  2.7264  0.9732
  646MOL0     H87150   4.744  11.014   9.606 -0.2800 -0.4761 -0.4925
  646MOL0     H87151   4.571  11.192   9.680  0.6498 -1.3172 -0.5815
  646MOL0     H87152   4.627  11.301   9.572 -2.1676 -0.0216 -0.0981
  646MOL0     H87153   4.551  11.156   9.382  0.1933  0.7746  0.3578
  646MOL0     H87154   4.497  11.019   9.487 -0.8324 -0.4312 -0.7202
  646MOL0     H87155   4.337  11.174   9.582 -1.8919  1.1718 -0.4487
  646MOL0     H87156   4.410  11.296   9.468  1.3503 -0.3512 -2.3816
  646MOL0     H87157   4.225  11.243   9.350 -2.2544 -0.2684  2.3935
  646MOL0     H87158   4.354  11.143   9.277 -0.9075 -0.9317 -0.3020
  646MOL0     H87159   4.260  10.952   9.421 -2.9323 -1.1207  1.7589
  646MOL0     H87160   4.145  11.015   9.300 -0.5637  3.9639 -1.0158
  646MOL0     H87161   3.918  11.095   9.412 -0.0166 -2.9074 -0.3392
  646MOL0     H87162   3.721  11.074   9.579  1.2023 -1.3552 -0.7525
  646MOL0     H87163   3.741  10.956   9.706  0.1800 -0.9886 -1.8956
  646MOL0     H87164   3.672  11.171   9.768  0.5426  3.1408 -0.1728
  646MOL0     H87165   3.823  11.246   9.715  0.0106  0.4550  1.0598
  646MOL0     H87166   3.790  11.226   9.949 -1.6178  0.1734 -3.0160
  646MOL0     H87167   3.950  11.174   9.891  1.0064  0.1002 -0.5971
  646MOL0     H87168   3.855  10.927   9.907 -0.2066 -1.8285  2.1841
  646MOL0     H87169   3.709  10.981   9.977  1.2369 -1.9274  0.3278
  646MOL0     H87170   4.018  10.828   9.976  0.6729 -1.1774 -0.0149
  646MOL0     H87171   4.350  10.816   9.888  0.6042 -0.2212  1.8776
  646MOL0     H87172   4.347  10.725  10.040 -0.4753  3.3108  2.2484
  646MOL0     H87173   4.202  10.724   9.928 -2.6605  1.7108  0.2820
  646MOL0     H87174   4.702  11.085  10.036  3.1657  1.2602  1.0183
  646MOL0     H87175   4.939  11.051  10.033  1.4079 -1.4330 -1.4384
  646MOL0     H87176   5.145  10.864  10.007  0.4398 -3.4179  0.6136
  646MOL0     H87177   5.170  10.996  10.129  0.4220  0.0007 -1.4928
  646MOL0     H87178   5.290  10.813  10.266 -0.5822  3.8169  0.3646
  646MOL0     H87179   5.268  10.709  10.109  1.3337  2.3866 -4.0128
  646MOL0     H87180   5.409  10.864   9.999  1.1622 -0.5362 -0.5149
  646MOL0     H87181   5.495  10.775  10.125  0.7121  0.5257 -1.3431
  646MOL0     H87182   5.369  11.057  10.132  0.4974  0.2266  0.2771
  646MOL0     H87183   5.432  10.984  10.277 -0.2857 -0.1786 -0.4572
  646MOL0     H87184   5.575  11.150  10.165 -0.2906  1.4767 -2.3160
  646MOL0     H87185   5.574  11.054  10.019  0.8474  3.3826  0.5609
  646MOL0     H87186   5.690  10.868  10.147 -0.4830  0.0689 -0.7254
  646MOL0     H87187   5.785  11.008  10.095 -2.3199  2.0921 -1.6326
  646MOL0     H87188   5.813  10.916  10.339 -0.1621 -0.4780  0.6870
  646MOL0     H87189   5.654  10.986  10.377 -0.9604  1.9308 -1.0829
  646MOL0     H87190   5.728  11.222  10.327  0.1175 -0.3003 -2.5994
  646MOL0     H87191   5.878  11.160  10.265 -0.4306 -0.3196 -0.5453
  646MOL0     H87192   4.863  10.690  10.259 -1.7286 -1.0000  0.4850
  646MOL0     H87193   4.625  10.710  10.220  1.9312 -2.1585  1.2408
  646MOL0     H87194   4.261  11.163  10.255 -0.3415 -1.2110  1.8318
  646MOL0     H87195   4.011  11.180  10.201 -0.5213  0.7999 -4.0314
  646MOL0     H87196   5.228  11.423   9.821 -1.3544 -0.4085 -1.3463
  646MOL0     H87197   5.463  11.404   9.832  0.9817 -0.6419  0.2791
  646MOL0     H87198   5.817  11.162   9.923 -1.8852  1.1493  0.9627
  646MOL0     H87199   6.036  11.233   9.981  1.3034  1.2348 -0.7242
  646MOL0     H87200   6.275  11.284   9.986 -0.5452 -0.8462 -1.9350
  646MOL0     H87201   6.290  11.239   9.826  2.1723 -0.5925 -0.5218
  646MOL0     H87202   6.498  11.334   9.895 -0.7933  0.3559 -1.6041
  646MOL0     H87203   6.431  11.493   9.942 -0.5929 -0.9568  1.6541
  646MOL0     H87204   6.352  11.512   9.683  0.7271  1.0551 -1.1557
  646MOL0     H87205   6.470  11.378   9.666 -2.8681 -1.1516 -0.3788
  646MOL0     H87206   6.649  11.517   9.750 -0.1289 -0.4930  0.6634
  646MOL0     H87207   6.535  11.635   9.799 -1.4247 -3.2294  3.0938
  646MOL0     H87208   6.601  11.728   9.387 -0.4107 -0.3144  0.5338
  646MOL0     H87209   6.054  11.475   9.633 -0.0976  0.4838  1.0440
  646MOL0     H87210   5.829  11.389   9.559 -0.0903 -2.6287 -0.3127
  647MOL0     O87211   5.903   6.473   9.290  0.1875  1.0559 -0.1606
  647MOL0     C87212   5.944   6.372   9.349  0.0125 -1.0517  0.5950
  647MOL0     O87213   5.881   6.289   9.428  0.6977 -0.1768 -1.1096
  647MOL0     C87214   5.739   6.290   9.423 -0.1167  0.0318  0.1394
  647MOL0     C87215   5.662   6.330   9.530  0.4259 -0.4828  0.4492
  647MOL0     C87216   5.523   6.325   9.525 -0.5197  1.0121  0.5808
  647MOL0     C87217   5.457   6.271   9.415  0.2896 -0.1795  0.4633
  647MOL0     O87218   5.316   6.260   9.399 -0.2946  0.3129  0.4146
  647MOL0     C87219   5.235   6.242   9.519  0.4931 -0.1478 -0.0216
  647MOL0     C87220   5.090   6.214   9.477  0.3071 -0.2304  0.6735
  647MOL0     C87221   4.985   6.255   9.587 -0.0317 -0.2853 -0.2356
  647MOL0     C87222   4.853   6.218   9.531  0.6033 -0.4114  0.0506
  647MOL0     C87223   4.746   6.197   9.639  0.3146  0.1861 -0.8284
  647MOL0     C87224   4.705   6.312   9.729  0.2702  0.8014 -0.3091
  647MOL0     C87225   4.590   6.289   9.820  0.5326  0.3821 -0.4382
  647MOL0     C87226   4.467   6.215   9.770 -0.4779 -0.4775 -1.1463
  647MOL0     N87227   4.357   6.219   9.866 -0.5695  0.1457 -0.0628
  647MOL0     C87228   4.293   6.334   9.906  0.0345  0.0119 -0.4455
  647MOL0     C87229   4.234   6.303  10.023 -0.3509  0.0659  0.8565
  647MOL0     C87230   4.144   6.390  10.107 -0.1593 -0.7730 -0.3180
  647MOL0     C87231   4.010   6.424  10.045 -0.6355  0.5041  0.1530
  647MOL0     C87232   3.928   6.292  10.025 -0.2339 -1.3239 -0.0016
  647MOL0     C87233   3.777   6.316   9.981 -0.0860 -0.2461  0.4848
  647MOL0     O87234   3.711   6.401  10.083  0.0382 -0.0160  0.0699
  647MOL0     C87235   3.576   6.408  10.087 -0.5482  0.8858 -0.7864
  647MOL0     C87236   3.497   6.373   9.980 -0.7759 -0.1193  0.5993
  647MOL0     C87237   3.358   6.386   9.978 -0.5601  0.4848 -0.0739
  647MOL0     C87238   3.285   6.338   9.857  0.2600 -1.2732  0.4049
  647MOL0     C87239   3.297   6.446  10.095 -0.7053  0.3762  0.4152
  647MOL0     C87240   3.151   6.472  10.110 -0.3143 -0.4868 -0.0465
  647MOL0     O87241   3.102   6.524  10.228 -0.0354 -0.8200 -0.2684
  647MOL0     C87242   2.968   6.546  10.230  0.8365  0.1786  0.0016
  647MOL0     C87243   2.896   6.461  10.313  1.2213 -0.9793 -0.1752
  647MOL0     C87244   2.754   6.486  10.324 -0.3139 -0.1921  0.1019
  647MOL0     C87245   2.693   6.592  10.258 -0.7756 -0.1152  0.1261
  647MOL0     O87246   2.555   6.590  10.261 -0.3125  0.2010  0.5558
  647MOL0     C87247   2.475   6.689  10.197  0.1772 -0.4622 -0.5585
  647MOL0     C87248   2.482   6.829  10.266  0.2395  0.6630  0.8303
  647MOL0     C87249   2.414   6.820  10.404 -0.4150 -0.5735 -0.1193
  647MOL0     C87250   2.427   6.957  10.474  0.4152  0.3089 -0.1434
  647MOL0     C87251   2.377   6.937  10.618 -0.1265  0.0885 -0.6466
  647MOL0     C87252   2.394   7.073  10.688 -0.2037  0.4075  0.6117
  647MOL0     C87253   2.328   7.079  10.828  0.5435 -0.5778 -0.4896
  647MOL0     C87254   2.171   7.052  10.827 -0.3432  1.2512  0.1119
  647MOL0    Cl87255   2.092   7.180  10.734  0.2330 -0.3371  0.0470
  647MOL0     C87256   2.773   6.670  10.170  0.9865  0.3105 -0.0960
  647MOL0     C87257   2.906   6.648  10.162 -1.0917 -0.3114 -1.1228
  647MOL0     O87258   3.084   6.447  10.011  0.3687 -0.1071 -0.7543
  647MOL0     C87259   3.383   6.480  10.200 -0.4721  0.0070 -0.3366
  647MOL0     C87260   3.518   6.467  10.198 -0.2297  0.5179  0.2601
  647MOL0     N87261   4.258   6.170  10.049 -0.1316  0.8674 -0.3388
  647MOL0     N87262   4.338   6.123   9.962  0.2730  0.1701 -0.5070
  647MOL0     C87263   5.537   6.240   9.304 -0.1078  0.6388  0.4301
  647MOL0     C87264   5.677   6.253   9.301 -0.1394  0.3620 -0.1232
  647MOL0     C87265   6.085   6.352   9.343  0.9438 -0.4569 -0.1647
  647MOL0     C87266   6.145   6.234   9.391 -0.2984  0.3324  0.0050
  647MOL0     C87267   6.283   6.212   9.399  0.0585 -0.1346  0.0211
  647MOL0     C87268   6.370   6.310   9.343 -0.1727 -0.4469 -0.2672
  647MOL0     O87269   6.508   6.284   9.350  0.3710  0.4614  0.4587
  647MOL0     C87270   6.594   6.384   9.300 -0.0841 -0.6665  0.5786
  647MOL0     C87271   6.734   6.336   9.337 -0.5733 -0.3524  0.0690
  647MOL0     C87272   6.763   6.340   9.492  0.6044  0.1789  0.2663
  647MOL0     C87273   6.913   6.325   9.530  0.1947 -0.5411  0.8569
  647MOL0     C87274   6.999   6.217   9.480  0.5169 -0.3752 -0.4078
  647MOL0     C87275   7.072   6.144   9.419 -0.7072 -0.0222  0.9445
  647MOL0     C87276   6.317   6.430   9.287  0.2028 -0.0570  0.3874
  647MOL0     C87277   6.176   6.449   9.288 -0.2060 -0.5032 -0.3715
  647MOL0     H87278   5.718   6.381   9.608  1.5971  3.9039 -2.9006
  647MOL0     H87279   5.456   6.368   9.598 -3.2357  2.1323 -2.3444
  647MOL0     H87280   5.282   6.171   9.589 -0.2893  2.2421  3.1414
  647MOL0     H87281   5.235   6.330   9.583 -0.8536  1.2242 -1.8306
  647MOL0     H87282   5.056   6.250   9.380 -0.6915 -0.7473  0.8215
  647MOL0     H87283   5.083   6.106   9.459  1.4080 -0.3695  0.9985
  647MOL0     H87284   5.010   6.205   9.681  2.3150 -0.6131 -0.9749
  647MOL0     H87285   4.994   6.363   9.606 -0.7314  0.1381 -2.1536
  647MOL0     H87286   4.820   6.292   9.456  2.8505 -0.6547 -1.2659
  647MOL0     H87287   4.862   6.120   9.483  1.9373 -0.0018 -0.5906
  647MOL0     H87288   4.658   6.147   9.598  0.0996  0.1004 -0.2754
  647MOL0     H87289   4.793   6.125   9.707  2.3551  1.8358 -0.3840
  647MOL0     H87290   4.790   6.348   9.788 -0.4529  1.2820  0.4591
  647MOL0     H87291   4.685   6.393   9.658 -0.1341 -2.0467 -3.7364
  647MOL0     H87292   4.625   6.223   9.900 -2.1006 -1.5544 -0.7476
  647MOL0     H87293   4.561   6.384   9.864  1.9851  0.0272  1.4522
  647MOL0     H87294   4.491   6.110   9.751 -1.5691 -0.8569 -0.4882
  647MOL0     H87295   4.430   6.263   9.679  1.4003  3.1779 -0.1788
  647MOL0     H87296   4.299   6.425   9.846  0.0029  0.4700  0.2374
  647MOL0     H87297   4.133   6.338  10.203  0.5651 -0.6776 -0.1801
  647MOL0     H87298   4.192   6.486  10.124  3.3854 -2.4871  0.2141
  647MOL0     H87299   4.024   6.468   9.946 -0.8917  0.9661  0.3195
  647MOL0     H87300   3.957   6.492  10.113 -1.0186 -0.0806  0.4482
  647MOL0     H87301   3.925   6.234  10.118  1.1749 -0.7149  0.4433
  647MOL0     H87302   3.987   6.241   9.949  3.1259  3.4057 -1.0514
  647MOL0     H87303   3.727   6.218   9.983  0.8652 -0.9316 -2.7645
  647MOL0     H87304   3.766   6.361   9.881  1.2161  1.6154  1.1356
  647MOL0     H87305   3.546   6.329   9.894 -0.4652 -0.4076  0.9187
  647MOL0     H87306   3.205   6.264   9.873 -2.5482  1.3137 -0.7024
  647MOL0     H87307   3.233   6.422   9.810 -0.8440 -2.9422 -1.5187
  647MOL0     H87308   3.360   6.299   9.789  0.8589 -1.5915  1.2292
  647MOL0     H87309   2.952   6.383  10.364  2.2851  0.7467  1.4475
  647MOL0     H87310   2.695   6.412  10.379  0.6535 -0.6773  0.5067
  647MOL0     H87311   2.514   6.694  10.095  2.3038  0.1706  0.2467
  647MOL0     H87312   2.372   6.651  10.206 -0.9279  2.5918  1.2047
  647MOL0     H87313   2.578   6.880  10.270  0.3160  0.4462  2.0718
  647MOL0     H87314   2.423   6.894  10.201 -0.5290  0.1646  1.0121
  647MOL0     H87315   2.469   6.750  10.469  1.0621  2.0495  1.6241
  647MOL0     H87316   2.313   6.778  10.400  0.2993 -2.3042 -2.4468
  647MOL0     H87317   2.533   6.981  10.471  0.9957 -1.9962 -0.1080
  647MOL0     H87318   2.365   7.034  10.428 -0.4126  0.0128  0.4423
  647MOL0     H87319   2.433   6.855  10.663 -0.1770  1.0603  1.2929
  647MOL0     H87320   2.271   6.914  10.605  0.0319  0.2693 -2.5214
  647MOL0     H87321   2.501   7.093  10.700  0.3689 -1.3713 -0.9943
  647MOL0     H87322   2.348   7.143  10.618  1.9298 -0.6066 -1.9511
  647MOL0     H87323   2.336   7.176  10.876  1.6826 -0.2082 -1.3715
  647MOL0     H87324   2.374   7.003  10.892 -0.8925  0.4381  1.8803
  647MOL0     H87325   2.133   7.057  10.929 -1.1980  5.2521 -0.2348
  647MOL0     H87326   2.144   6.957  10.780  1.1509 -0.2456  2.1177
  647MOL0     H87327   2.732   6.764  10.134 -1.0039 -0.8077 -0.8760
  647MOL0     H87328   2.967   6.723  10.113  0.0672  1.5084  2.7123
  647MOL0     H87329   3.339   6.521  10.290 -3.3013  0.7105 -1.9239
  647MOL0     H87330   3.586   6.506  10.273  2.8937  0.8250 -2.5243
  647MOL0     H87331   5.463   6.229   9.225  0.2913 -0.9096  0.2344
  647MOL0     H87332   5.737   6.229   9.213  2.0297 -0.2096  1.4187
  647MOL0     H87333   6.082   6.155   9.429  0.0280 -0.1028 -0.3493
  647MOL0     H87334   6.321   6.121   9.445  1.5244  0.4337 -0.0136
  647MOL0     H87335   6.580   6.403   9.193  0.3505  2.4286  0.9791
  647MOL0     H87336   6.578   6.482   9.345 -1.3109 -0.1297 -0.9605
  647MOL0     H87337   6.817   6.392   9.292  0.1903 -1.1665  0.4135
  647MOL0     H87338   6.742   6.233   9.300 -2.0286 -0.0838 -1.0699
  647MOL0     H87339   6.708   6.259   9.540  1.4265 -0.9208 -0.5983
  647MOL0     H87340   6.742   6.436   9.541  3.6190  0.3264  1.4900
  647MOL0     H87341   6.921   6.333   9.639 -1.8600 -1.7003  1.1591
  647MOL0     H87342   6.953   6.424   9.509 -0.4880 -0.2358  0.9463
  647MOL0     H87343   7.146   6.084   9.369  0.1363  3.3589 -2.3087
  647MOL0     H87344   6.378   6.511   9.249  0.6414 -0.8381 -0.6114
  647MOL0     H87345   6.144   6.547   9.255  0.2697 -1.1447 -2.9219
  648MOL0     O87346   4.387   7.944   7.939 -0.0271 -0.3618  0.3546
  648MOL0     C87347   4.439   8.048   7.976  0.6825 -0.6848  0.0217
  648MOL0     O87348   4.376   8.171   7.999 -0.1049 -0.6156  0.3337
  648MOL0     C87349   4.244   8.160   7.988 -0.1455 -0.0525 -0.0076
  648MOL0     C87350   4.179   8.207   7.875  0.1496 -0.8328  0.3002
  648MOL0     C87351   4.039   8.200   7.864  0.4170 -0.0352  0.1492
  648MOL0     C87352   3.960   8.143   7.962 -0.1951 -0.2711 -0.4215
  648MOL0     O87353   3.822   8.141   7.952  0.3671 -0.9732 -0.1963
  648MOL0     C87354   3.752   8.161   8.078  0.1743 -1.0094 -0.1757
  648MOL0     C87355   3.604   8.193   8.036 -0.2830 -0.4371  0.3488
  648MOL0     C87356   3.552   8.084   7.939  0.9679 -0.3109  0.3317
  648MOL0     C87357   3.448   8.134   7.836  0.3671  0.1991 -0.5273
  648MOL0     C87358   3.313   8.180   7.894  0.0617 -0.7600  0.1305
  648MOL0     C87359   3.229   8.065   7.950 -0.2044 -0.1274  0.8300
  648MOL0     C87360   3.082   8.109   7.960 -0.0504 -0.4941  0.4847
  648MOL0     C87361   2.989   8.027   8.044  0.5215 -0.2049  0.5990
  648MOL0     N87362   2.868   8.094   8.078 -0.0918  0.6923 -0.2740
  648MOL0     C87363   2.746   8.027   8.073 -0.3055 -0.7447 -0.4880
  648MOL0     C87364   2.666   8.104   8.149 -0.1509  0.1237  0.9032
  648MOL0     C87365   2.529   8.086   8.203  0.7289  0.3580  0.3838
  648MOL0     C87366   2.446   7.980   8.127  0.4299 -0.3996  0.8040
  648MOL0     C87367   2.314   7.972   8.194  0.2895  0.1540 -0.7249
  648MOL0     C87368   2.217   7.864   8.136 -0.9778 -0.8157 -0.7046
  648MOL0     O87369   2.238   7.732   8.182 -0.1747 -0.4346 -0.2425
  648MOL0     C87370   2.156   7.687   8.289 -0.6696  0.7977 -0.7475
  648MOL0     C87371   2.091   7.769   8.383 -0.2526 -0.7006 -0.1595
  648MOL0     C87372   2.012   7.710   8.481 -0.7838  0.2637  0.5174
  648MOL0     C87373   1.942   7.801   8.576 -0.1521  0.1494 -0.2826
  648MOL0     C87374   2.018   7.569   8.499 -1.1340 -0.1024 -0.3107
  648MOL0     C87375   1.947   7.503   8.604 -0.5772  0.2991  0.0056
  648MOL0     O87376   1.815   7.523   8.612 -0.3428  0.1524  0.0059
  648MOL0     C87377   1.737   7.463   8.712  0.2166  0.9636 -0.4416
  648MOL0     C87378   1.597   7.444   8.685  0.0512  0.6586 -0.2223
  648MOL0     C87379   1.511   7.414   8.786  0.6691  0.0778 -0.6139
  648MOL0     C87380   1.559   7.378   8.914 -0.7662 -1.1161  0.4498
  648MOL0     O87381   1.474   7.334   9.011  0.6978 -0.0522  0.0534
  648MOL0     C87382   1.501   7.358   9.154 -0.9502 -0.3356  0.2499
  648MOL0     C87383   1.360   7.364   9.219 -0.7271 -0.0297 -0.2647
  648MOL0     C87384   1.297   7.230   9.220  0.2067 -0.8813 -0.2747
  648MOL0     C87385   1.163   7.216   9.300 -0.7136 -0.4053  0.7365
  648MOL0     C87386   1.107   7.075   9.314 -0.4500 -0.0662  0.3443
  648MOL0     C87387   0.955   7.067   9.335 -0.5331  0.2236  0.1324
  648MOL0     C87388   0.861   7.057   9.214 -0.8524 -0.6130 -0.0817
  648MOL0     C87389   0.714   7.047   9.249  0.1905  0.3174  0.1910
  648MOL0    Cl87390   0.651   7.197   9.313 -0.0620  0.1423  0.1425
  648MOL0     C87391   1.696   7.393   8.941  0.8682  0.7786 -0.3024
  648MOL0     C87392   1.786   7.439   8.842  0.5389 -0.6122 -0.1674
  648MOL0     O87393   2.010   7.413   8.667  0.7644  0.6392 -0.5977
  648MOL0     C87394   2.083   7.488   8.407 -0.6163 -0.3144 -0.3714
  648MOL0     C87395   2.149   7.548   8.306 -0.8161  0.4895 -0.6149
  648MOL0     N87396   2.735   8.223   8.175 -0.3213  0.0293 -0.9860
  648MOL0     N87397   2.854   8.213   8.137 -0.2853  0.2923 -0.4067
  648MOL0     C87398   4.023   8.100   8.080 -1.0621  0.1211  0.1076
  648MOL0     C87399   4.166   8.114   8.095  0.2364 -0.6510  0.2684
  648MOL0     C87400   4.581   8.040   8.003  0.1366 -1.5752 -0.4515
  648MOL0     C87401   4.638   8.143   8.084  1.1322 -0.5097 -0.4855
  648MOL0     C87402   4.770   8.141   8.108  0.4611 -0.4613  1.1363
  648MOL0     C87403   4.863   8.043   8.059  0.0156 -0.4488 -0.1872
  648MOL0     O87404   4.997   8.044   8.073 -0.8920  0.2692  0.5895
  648MOL0     C87405   5.053   8.125   8.171 -0.1676  0.3567 -0.5643
  648MOL0     C87406   5.034   8.046   8.303  0.4679  0.2823 -0.8192
  648MOL0     C87407   5.051   8.130   8.433  0.3983 -0.0160 -0.3882
  648MOL0     C87408   5.154   8.242   8.420  1.0830 -0.2537  0.2174
  648MOL0     C87409   5.172   8.315   8.551 -0.3087  0.3036  0.0852
  648MOL0     C87410   5.180   8.364   8.661 -0.4079  0.2997 -0.2477
  648MOL0     C87411   4.800   7.936   7.995 -0.5299  0.0570 -0.0253
  648MOL0     C87412   4.668   7.942   7.958 -0.1699 -0.2408 -0.0932
  648MOL0     H87413   4.242   8.241   7.793 -0.7880  1.9124  0.6028
  648MOL0     H87414   3.996   8.250   7.777  2.6002 -0.8927 -1.5252
  648MOL0     H87415   3.764   8.087   8.158  0.4762 -2.2557 -1.3452
  648MOL0     H87416   3.783   8.253   8.130 -1.3740 -0.6616  0.2041
  648MOL0     H87417   3.546   8.198   8.128  0.2596 -1.0225  0.7327
  648MOL0     H87418   3.601   8.290   7.985 -3.8966 -2.0590 -3.0632
  648MOL0     H87419   3.633   8.034   7.885  2.5163 -1.1984  3.2508
  648MOL0     H87420   3.515   8.000   7.999  1.0738  0.7457  1.9417
  648MOL0     H87421   3.494   8.212   7.775  1.7576  0.0982  0.3539
  648MOL0     H87422   3.433   8.055   7.762 -1.1205  0.1215 -0.1789
  648MOL0     H87423   3.327   8.267   7.959  0.4124 -1.6110  1.2479
  648MOL0     H87424   3.257   8.220   7.810 -0.4009  0.9081  1.1999
  648MOL0     H87425   3.240   7.980   7.882  1.0614  0.6782 -0.0264
  648MOL0     H87426   3.264   8.035   8.049 -1.1242  0.1549  1.2497
  648MOL0     H87427   3.077   8.209   8.005  0.9151  1.1150 -2.6873
  648MOL0     H87428   3.044   8.113   7.857 -0.1680 -1.2050  0.4993
  648MOL0     H87429   3.045   7.985   8.129  0.1787 -0.4868  0.6871
  648MOL0     H87430   2.955   7.942   7.984 -1.0296  0.3555  0.6281
  648MOL0     H87431   2.740   7.928   8.029  0.3955 -2.0186  2.0805
  648MOL0     H87432   2.544   8.052   8.306  0.3282 -3.1958 -0.5954
  648MOL0     H87433   2.479   8.183   8.203  0.1550  0.0795  1.2998
  648MOL0     H87434   2.495   7.882   8.121 -1.4388 -1.3642  0.3874
  648MOL0     H87435   2.437   8.012   8.023  2.1355 -4.7047 -0.9191
  648MOL0     H87436   2.264   8.068   8.182 -1.0447 -0.5860 -1.3958
  648MOL0     H87437   2.329   7.946   8.300 -0.1041 -0.0271 -0.7088
  648MOL0     H87438   2.212   7.875   8.027 -1.5701  1.0882 -0.5261
  648MOL0     H87439   2.118   7.897   8.169 -1.2241 -2.4428  0.3098
  648MOL0     H87440   2.120   7.874   8.380  3.5580 -1.5913  0.5973
  648MOL0     H87441   1.904   7.755   8.668  2.3837 -0.3979  0.5773
  648MOL0     H87442   2.010   7.883   8.600 -0.0639  0.5335 -1.7354
  648MOL0     H87443   1.858   7.856   8.531 -0.9889  0.8683  2.0256
  648MOL0     H87444   1.565   7.458   8.583  1.0087 -3.3947 -1.2438
  648MOL0     H87445   1.406   7.400   8.763  0.2926  0.1452  0.9199
  648MOL0     H87446   1.568   7.283   9.196 -0.5965 -0.6608 -0.8738
  648MOL0     H87447   1.544   7.456   9.177  0.5505 -1.1978  1.2422
  648MOL0     H87448   1.370   7.392   9.324 -3.9770 -2.6869  0.9639
  648MOL0     H87449   1.312   7.446   9.164 -1.7901  1.7708  3.0936
  648MOL0     H87450   1.375   7.160   9.252 -0.3558 -1.2352  0.3433
  648MOL0     H87451   1.282   7.206   9.114  2.2981  0.2157 -0.8688
  648MOL0     H87452   1.186   7.262   9.396 -0.7722  2.5469 -0.5419
  648MOL0     H87453   1.091   7.273   9.242 -0.7847  1.1973  2.3284
  648MOL0     H87454   1.157   7.029   9.400 -2.0269 -2.4690  0.0788
  648MOL0     H87455   1.134   7.021   9.224 -2.1423 -0.1588 -0.1447
  648MOL0     H87456   0.931   6.978   9.395 -0.3825 -0.0743 -0.2467
  648MOL0     H87457   0.927   7.154   9.395 -1.9661  0.7236 -1.2023
  648MOL0     H87458   0.891   6.959   9.176 -3.5724 -1.5177 -0.1515
  648MOL0     H87459   0.870   7.135   9.138  0.9585 -0.2303  0.4824
  648MOL0     H87460   0.699   6.974   9.329 -3.0361 -0.1942 -0.7446
  648MOL0     H87461   0.645   7.008   9.174 -0.0928  1.8301 -0.3610
  648MOL0     H87462   1.745   7.376   9.036  0.0280  1.4540  0.2651
  648MOL0     H87463   1.888   7.465   8.866 -0.0779  1.8789  0.0524
  648MOL0     H87464   2.107   7.385   8.429 -0.9893 -0.5951 -1.2178
  648MOL0     H87465   2.218   7.495   8.241 -0.3814  0.4142 -0.1011
  648MOL0     H87466   3.965   8.056   8.160  1.0729 -0.0987  1.6287
  648MOL0     H87467   4.221   8.080   8.182  3.9570 -1.1029 -2.0713
  648MOL0     H87468   4.580   8.229   8.116  0.0530 -0.9352 -1.2166
  648MOL0     H87469   4.804   8.221   8.174  0.7981  0.4000 -0.0482
  648MOL0     H87470   5.160   8.142   8.156  0.1155 -0.6170  0.2009
  648MOL0     H87471   5.007   8.222   8.191 -0.1110 -0.2542  3.4812
  648MOL0     H87472   5.100   7.958   8.299 -1.7175 -1.7985  2.8205
  648MOL0     H87473   4.933   8.004   8.304  1.3353 -1.9539 -0.1003
  648MOL0     H87474   5.080   8.060   8.512 -2.7129  3.3813  4.2940
  648MOL0     H87475   4.957   8.168   8.474  1.9910  1.3058  2.2988
  648MOL0     H87476   5.118   8.316   8.348 -0.2079 -1.9619 -0.9707
  648MOL0     H87477   5.252   8.208   8.383  1.0453 -0.1046 -0.0262
  648MOL0     H87478   5.202   8.399   8.759  1.7294  2.1717 -1.3079
  648MOL0     H87479   4.855   7.853   7.953 -3.4937 -1.6398 -0.8719
  648MOL0     H87480   4.640   7.859   7.894 -2.8859  0.4163  0.1187
  649MOL0     O87481   5.764   7.132  10.177  1.0403  0.7126 -0.3145
  649MOL0     C87482   5.790   7.253  10.190 -0.1088  0.0006  0.2640
  649MOL0     O87483   5.705   7.357  10.174 -0.1009  0.8181 -0.0898
  649MOL0     C87484   5.579   7.325  10.126 -0.4939  0.7354  0.6650
  649MOL0     C87485   5.560   7.261   9.999  0.6333  0.4522  0.5471
  649MOL0     C87486   5.436   7.228   9.942 -0.2256 -0.3888  0.0333
  649MOL0     C87487   5.319   7.268  10.016 -0.0141 -0.1370 -0.8199
  649MOL0     O87488   5.192   7.252   9.971 -0.5225  0.0636  0.2790
  649MOL0     C87489   5.150   7.129   9.916  0.4623 -0.2663 -0.0372
  649MOL0     C87490   5.035   7.137   9.817 -1.1124 -0.0518 -0.3583
  649MOL0     C87491   4.905   7.142   9.898  0.0746  0.8825 -0.0307
  649MOL0     C87492   4.791   7.222   9.826 -0.7457 -0.0696 -0.1261
  649MOL0     C87493   4.645   7.190   9.866  0.0967  0.0094 -0.4619
  649MOL0     C87494   4.549   7.315   9.868 -0.3332 -0.1097 -0.1244
  649MOL0     C87495   4.403   7.269   9.879  1.0612  0.0371  0.2811
  649MOL0     C87496   4.310   7.379   9.922  0.3179  0.2808 -0.3493
  649MOL0     N87497   4.204   7.325  10.005  0.3826  0.6593  0.9827
  649MOL0     C87498   4.205   7.267  10.133  0.1273 -0.0604 -0.2821
  649MOL0     C87499   4.080   7.227  10.166 -0.4057 -0.2046  0.3616
  649MOL0     C87500   4.031   7.175  10.296 -0.0699 -0.1216  1.4270
  649MOL0     C87501   4.033   7.281  10.405 -0.2470  0.6408 -0.0428
  649MOL0     C87502   3.985   7.208  10.534  0.4720  0.8486 -0.3441
  649MOL0     C87503   3.989   7.302  10.655  0.1776 -0.6285 -0.7041
  649MOL0     O87504   3.922   7.240  10.762  0.2875 -0.3417 -0.6985
  649MOL0     C87505   3.778   7.249  10.768 -1.2644  1.0232 -0.1069
  649MOL0     C87506   3.722   7.165  10.870  0.9632 -0.3690 -0.8076
  649MOL0     C87507   3.585   7.157  10.892 -0.3844 -0.0379  0.4541
  649MOL0     C87508   3.539   7.050  10.986  0.7717  0.2145 -0.0082
  649MOL0     C87509   3.502   7.244  10.822 -0.4696  0.9100  0.9130
  649MOL0     C87510   3.358   7.248  10.855  0.1331  0.4651 -0.1602
  649MOL0     O87511   3.282   7.281  10.749  0.1697 -0.4221 -0.3135
  649MOL0     C87512   3.144   7.271  10.769  0.0305 -0.0234 -0.2494
  649MOL0     C87513   3.066   7.380  10.741 -0.7877 -0.2066  0.3013
  649MOL0     C87514   2.923   7.386  10.756  0.0103  0.4275  0.2777
  649MOL0     C87515   2.857   7.264  10.793  0.2042 -0.0579  0.6953
  649MOL0     O87516   2.719   7.256  10.804 -0.3615  0.4291  0.0688
  649MOL0     C87517   2.656   7.365  10.869 -0.7261  0.0294 -0.4277
  649MOL0     C87518   2.584   7.448  10.772 -0.4803  0.8178  0.3276
  649MOL0     C87519   2.498   7.564  10.837 -0.9464  0.0036 -0.4548
  649MOL0     C87520   2.372   7.535  10.917 -0.4067  1.0715  0.7202
  649MOL0     C87521   2.297   7.669  10.951  0.4685  0.0357  0.2283
  649MOL0     C87522   2.160   7.674  10.886  0.0056 -0.3914 -0.3102
  649MOL0     C87523   2.168   7.664  10.731  0.6934 -0.2975  0.2052
  649MOL0     C87524   2.061   7.745  10.668  1.1171  0.2785  0.0117
  649MOL0    Cl87525   2.116   7.912  10.691 -0.3956  0.5169 -0.2994
  649MOL0     C87526   2.936   7.151  10.812  0.5794 -0.6442 -0.7010
  649MOL0     C87527   3.074   7.154  10.803 -0.1898 -0.7044  1.0119
  649MOL0     O87528   3.317   7.249  10.971 -0.4358  0.2113  0.1689
  649MOL0     C87529   3.560   7.326  10.724 -0.1245 -0.5660  0.2392
  649MOL0     C87530   3.696   7.327  10.688  0.4526  0.0860  0.6809
  649MOL0     N87531   4.002   7.255  10.044 -0.6239  0.1079 -0.2287
  649MOL0     N87532   4.075   7.317   9.961 -0.1389  0.2916  0.6003
  649MOL0     C87533   5.328   7.327  10.140 -0.0685 -0.0150 -0.7136
  649MOL0     C87534   5.458   7.353  10.196 -0.2328  0.1709 -0.2343
  649MOL0     C87535   5.930   7.293  10.233 -0.8721 -0.1553 -0.9410
  649MOL0     C87536   6.024   7.193  10.266  0.8697 -0.5232  0.3572
  649MOL0     C87537   6.151   7.219  10.316  0.0288  0.1927 -0.0169
  649MOL0     C87538   6.192   7.352  10.331  0.0178  0.3299  0.2366
  649MOL0     O87539   6.310   7.375  10.387 -0.2742  0.4539 -0.4912
  649MOL0     C87540   6.358   7.506  10.403 -0.3475 -0.0222 -0.5939
  649MOL0     C87541   6.502   7.493  10.464 -0.0434 -0.5365  0.0143
  649MOL0     C87542   6.607   7.441  10.363  0.3496 -0.2502  0.4331
  649MOL0     C87543   6.752   7.463  10.413  0.4055 -0.3663  0.5716
  649MOL0     C87544   6.793   7.397  10.533 -0.5405  0.0459 -0.1154
  649MOL0     C87545   6.837   7.344  10.631  0.2598  0.3253  1.0763
  649MOL0     C87546   6.100   7.459  10.298 -0.1970  0.6713  0.1299
  649MOL0     C87547   5.971   7.423  10.255  0.1449 -0.9556  0.1611
  649MOL0     H87548   5.648   7.220   9.949  0.2044  0.9360 -0.6260
  649MOL0     H87549   5.436   7.188   9.841  0.8046  2.2705 -1.1125
  649MOL0     H87550   5.232   7.084   9.859  0.6427 -0.4233  0.3445
  649MOL0     H87551   5.133   7.060   9.999  0.9048  0.9493  1.0910
  649MOL0     H87552   5.043   7.233   9.766  1.2914  0.3230  0.6284
  649MOL0     H87553   5.042   7.053   9.748  0.7612  0.4693 -0.8538
  649MOL0     H87554   4.864   7.042   9.912 -1.3377  1.6408  1.6263
  649MOL0     H87555   4.927   7.179   9.999  2.1690 -0.8919  0.2288
  649MOL0     H87556   4.803   7.329   9.849  0.9395 -0.4738  1.0564
  649MOL0     H87557   4.806   7.209   9.718 -0.2188  2.0474 -0.3668
  649MOL0     H87558   4.596   7.117   9.800 -2.2702  1.6318 -0.5939
  649MOL0     H87559   4.643   7.145   9.966 -4.1505 -1.1027 -0.8655
  649MOL0     H87560   4.580   7.377   9.952 -1.0026 -1.0613  0.8512
  649MOL0     H87561   4.565   7.365   9.772  0.6384  1.2171  0.6983
  649MOL0     H87562   4.370   7.225   9.785 -0.0187  1.4399 -0.0172
  649MOL0     H87563   4.394   7.192   9.957 -3.0986  1.9680  2.0203
  649MOL0     H87564   4.271   7.433   9.835  0.2488  1.4738  0.3943
  649MOL0     H87565   4.372   7.452   9.975  1.0114 -0.1341 -0.5644
  649MOL0     H87566   4.293   7.237  10.189 -0.9147 -1.2626  0.7793
  649MOL0     H87567   3.925   7.148  10.290  0.0377 -0.9910  2.9536
  649MOL0     H87568   4.088   7.086  10.325 -3.5992 -2.3572  2.1027
  649MOL0     H87569   3.966   7.366  10.392 -1.6430 -0.5824 -1.2326
  649MOL0     H87570   4.135   7.319  10.412  0.6018 -1.4123 -0.5116
  649MOL0     H87571   4.046   7.118  10.547 -1.6200 -0.6678 -0.5868
  649MOL0     H87572   3.885   7.167  10.516  0.6891 -0.5553  1.4417
  649MOL0     H87573   3.943   7.394  10.619  0.4958  0.0590  0.6100
  649MOL0     H87574   4.091   7.316  10.691  1.0972 -4.1658 -1.5017
  649MOL0     H87575   3.781   7.103  10.938  0.0858  0.4153  0.7146
  649MOL0     H87576   3.523   7.095  11.084 -0.2451 -0.8257  0.3318
  649MOL0     H87577   3.443   7.014  10.948  0.3055 -0.3949  1.6478
  649MOL0     H87578   3.610   6.967  10.996  0.9671  0.5574  1.7156
  649MOL0     H87579   3.116   7.475  10.722  0.6123 -0.9708  0.0241
  649MOL0     H87580   2.878   7.482  10.734  0.3373  0.8403  1.3535
  649MOL0     H87581   2.578   7.324  10.934 -0.1494 -2.7959 -1.3821
  649MOL0     H87582   2.730   7.425  10.923 -0.4901  0.5467 -1.3097
  649MOL0     H87583   2.659   7.498  10.710  1.1498 -0.0745  1.5051
  649MOL0     H87584   2.516   7.379  10.721 -1.2098 -0.6320  3.0328
  649MOL0     H87585   2.462   7.631  10.759  0.9204 -0.9986 -2.2838
  649MOL0     H87586   2.572   7.623  10.891 -0.2591  1.2399 -2.6270
  649MOL0     H87587   2.305   7.464  10.868  1.0006 -0.7458  1.3143
  649MOL0     H87588   2.390   7.474  11.006 -2.0923 -1.9236 -0.8424
  649MOL0     H87589   2.360   7.750  10.914 -0.7309  0.3209 -1.3002
  649MOL0     H87590   2.281   7.681  11.058  1.3411  1.4996  0.2174
  649MOL0     H87591   2.089   7.603  10.929 -1.1297  0.3096 -0.9781
  649MOL0     H87592   2.113   7.768  10.916 -1.3529 -1.7630  2.1754
  649MOL0     H87593   2.146   7.560  10.706 -3.4337  1.0606 -3.0505
  649MOL0     H87594   2.267   7.684  10.689  0.3461 -1.7197 -1.3964
  649MOL0     H87595   1.973   7.725  10.729 -0.4181  2.9054 -1.1688
  649MOL0     H87596   2.033   7.708  10.569 -2.6691  0.6198  0.8029
  649MOL0     H87597   2.890   7.053  10.829  1.5455 -1.1961 -1.1963
  649MOL0     H87598   3.135   7.065  10.818  0.6884 -0.1949  0.4955
  649MOL0     H87599   3.490   7.387  10.668  0.4933  0.1784  0.2665
  649MOL0     H87600   3.729   7.388  10.605  2.7811  1.9219  2.8028
  649MOL0     H87601   5.240   7.354  10.197 -1.4695 -1.8003 -1.9173
  649MOL0     H87602   5.466   7.392  10.297 -1.5292 -0.1027 -0.0095
  649MOL0     H87603   5.996   7.092  10.238 -1.3619 -0.4351  2.0024
  649MOL0     H87604   6.226   7.144  10.339  1.8682  2.0016  0.1433
  649MOL0     H87605   6.351   7.544  10.301  0.2539 -2.2484 -1.5279
  649MOL0     H87606   6.295   7.560  10.475  0.3056  0.9318 -0.7140
  649MOL0     H87607   6.489   7.418  10.543 -0.7765  1.3838  1.8588
  649MOL0     H87608   6.533   7.589  10.507  0.1676 -1.0017  0.9184
  649MOL0     H87609   6.603   7.488  10.264  1.1747 -1.4486 -0.1908
  649MOL0     H87610   6.593   7.333  10.353  1.2951 -0.2981 -0.6693
  649MOL0     H87611   6.759   7.570  10.435  0.8636 -0.1081 -0.7569
  649MOL0     H87612   6.828   7.443  10.337  0.9942  0.1471  1.0207
  649MOL0     H87613   6.889   7.276  10.694  0.9927 -2.4567 -2.2049
  649MOL0     H87614   6.139   7.560  10.288 -0.7198  0.7785 -1.0081
  649MOL0     H87615   5.890   7.494  10.242 -1.7638 -2.5224  2.4801
  650MOL0     O87616   2.921   1.144   0.759 -0.3554  0.4321 -0.1451
  650MOL0     C87617   2.993   1.101   0.849  0.7825 -0.2113 -0.5827
  650MOL0     O87618   2.955   1.030   0.949  0.2141 -0.3005  0.9118
  650MOL0     C87619   2.820   0.995   0.957 -0.7726  0.0149  0.2783
  650MOL0     C87620   2.792   0.864   0.919  0.9074 -0.0807 -0.2541
  650MOL0     C87621   2.659   0.823   0.920 -1.1025  0.0377 -0.5429
  650MOL0     C87622   2.562   0.912   0.977  0.6974  0.1511 -0.3189
  650MOL0     O87623   2.434   0.859   0.984  0.8662 -0.2064  0.1158
  650MOL0     C87624   2.315   0.938   0.981 -0.9028  0.1046  0.2194
  650MOL0     C87625   2.191   0.858   0.979 -0.3186 -0.0416  0.0321
  650MOL0     C87626   2.064   0.943   0.984  0.6961 -0.4473  0.1430
  650MOL0     C87627   1.946   0.850   1.013  0.7679 -0.6105 -0.7144
  650MOL0     C87628   1.805   0.925   1.020  0.2435  0.4914  0.0717
  650MOL0     C87629   1.684   0.837   1.075  0.3908  0.3056 -0.0406
  650MOL0     C87630   1.558   0.926   1.080 -0.2009 -0.1462  0.6281
  650MOL0     C87631   1.502   0.966   0.946 -0.1955 -0.3919  0.4203
  650MOL0     N87632   1.365   1.015   0.978 -0.2285  0.0189 -0.1003
  650MOL0     C87633   1.329   1.146   0.998  0.3116 -0.5476  0.9828
  650MOL0     C87634   1.197   1.139   1.031  0.7493  0.2054  0.2780
  650MOL0     C87635   1.093   1.234   1.083  0.7654 -0.2578  0.5726
  650MOL0     C87636   1.120   1.369   1.016 -0.2927 -0.8334 -0.7320
  650MOL0     C87637   1.021   1.474   1.064 -0.4918  0.1249  0.2830
  650MOL0     C87638   0.958   1.550   0.949 -0.1901  0.3641  0.1657
  650MOL0     O87639   0.862   1.458   0.885  0.1411 -0.7180 -0.5270
  650MOL0     C87640   0.750   1.459   0.966  0.4616  0.6890  0.2102
  650MOL0     C87641   0.687   1.574   1.027  0.2622 -0.5285  0.9801
  650MOL0     C87642   0.557   1.568   1.083 -0.4495  0.7506  0.2603
  650MOL0     C87643   0.491   1.691   1.130 -0.7135  0.0544 -0.3751
  650MOL0     C87644   0.487   1.438   1.088  0.3468  1.1840 -0.5041
  650MOL0     C87645   0.347   1.427   1.139 -0.4479  0.2244 -0.6667
  650MOL0     O87646   0.261   1.526   1.113 -0.2102  0.6396 -0.2174
  650MOL0     C87647   0.136   1.536   1.168 -0.5708 -0.2053 -0.7160
  650MOL0     C87648   0.056   1.643   1.128  0.1029 -0.4930  0.0866
  650MOL0     C87649  -0.050   1.700   1.197 -1.2601  0.4857  0.0267
  650MOL0     C87650  -0.094   1.633   1.317 -0.7733 -0.6489  0.5529
  650MOL0     O87651  -0.199   1.672   1.403 -0.3870  0.2375 -0.2843
  650MOL0     C87652  -0.288   1.775   1.359  0.5334 -0.1122  0.4016
  650MOL0     C87653  -0.368   1.808   1.488 -0.7197 -0.0967 -0.0187
  650MOL0     C87654  -0.494   1.888   1.442  0.8949  0.6108 -0.9789
  650MOL0     C87655  -0.542   1.968   1.559  0.1285  0.3581  0.3942
  650MOL0     C87656  -0.674   2.030   1.525  0.2770 -0.7101  0.0487
  650MOL0     C87657  -0.658   2.148   1.427  0.3909 -0.2769  0.9862
  650MOL0     C87658  -0.798   2.223   1.418 -0.0948  0.8397  0.4983
  650MOL0     C87659  -0.809   2.314   1.303  0.2491 -0.3719  0.0641
  650MOL0    Cl87660  -0.665   2.424   1.286 -0.1855  0.5814  0.5867
  650MOL0     C87661  -0.024   1.520   1.353 -0.1615  0.2481  0.0908
  650MOL0     C87662   0.092   1.468   1.284 -0.4975  1.1418 -0.2729
  650MOL0     O87663   0.328   1.327   1.204  0.3333 -0.1882  0.2249
  650MOL0     C87664   0.551   1.329   1.038  1.1565 -0.2584  1.4698
  650MOL0     C87665   0.681   1.337   0.977  0.9211 -0.4432  0.8280
  650MOL0     N87666   1.156   1.004   1.007 -0.3128 -0.1431  0.7489
  650MOL0     N87667   1.256   0.937   0.975  0.2939  0.1667 -0.5837
  650MOL0     C87668   2.601   1.041   1.019 -0.8972 -0.5980 -0.7390
  650MOL0     C87669   2.728   1.081   1.005  0.0753  0.7138 -1.1022
  650MOL0     C87670   3.132   1.141   0.841  0.0231  0.2159 -0.3568
  650MOL0     C87671   3.182   1.229   0.746 -0.0878  0.7079 -0.3270
  650MOL0     C87672   3.327   1.260   0.740 -0.3746  0.4425  0.2553
  650MOL0     C87673   3.416   1.208   0.829  0.6914  0.7119  1.1015
  650MOL0     O87674   3.556   1.222   0.837 -0.3171 -0.5659 -0.7851
  650MOL0     C87675   3.618   1.340   0.779 -0.2097  0.5916  0.3254
  650MOL0     C87676   3.762   1.352   0.833 -0.6542 -0.1421  0.3656
  650MOL0     C87677   3.817   1.494   0.799 -0.2977 -0.1122  0.4242
  650MOL0     C87678   3.962   1.538   0.862 -0.5289  0.6898  1.1219
  650MOL0     C87679   4.062   1.434   0.818  0.4740  0.0929 -0.5825
  650MOL0     C87680   4.143   1.349   0.786  0.9770  0.0740 -0.4585
  650MOL0     C87681   3.364   1.128   0.927  0.3868 -0.3523  0.4461
  650MOL0     C87682   3.229   1.086   0.933 -0.5252  0.0880  0.8961
  650MOL0     H87683   2.865   0.797   0.875  0.6551 -1.4122  1.2911
  650MOL0     H87684   2.640   0.722   0.884  1.4641 -1.4626  1.8211
  650MOL0     H87685   2.312   1.003   1.069 -1.8915  0.3727 -0.0015
  650MOL0     H87686   2.325   0.985   0.883 -0.6498  1.0198  0.6676
  650MOL0     H87687   2.189   0.789   0.894 -0.3379 -0.3910  0.3104
  650MOL0     H87688   2.194   0.785   1.061  0.4843 -1.6556 -1.3879
  650MOL0     H87689   2.077   1.013   1.067  0.0888 -1.2601  0.9395
  650MOL0     H87690   2.045   0.994   0.889 -1.9117  2.4987  2.0723
  650MOL0     H87691   1.946   0.778   0.931  0.2564  2.7221 -3.9139
  650MOL0     H87692   1.954   0.813   1.116 -1.4210 -1.6234 -0.8573
  650MOL0     H87693   1.809   1.015   1.082  1.5306  0.3292  0.2564
  650MOL0     H87694   1.782   0.949   0.916 -0.3904 -0.6002 -0.0559
  650MOL0     H87695   1.662   0.752   1.011  0.4786  0.1815  0.0951
  650MOL0     H87696   1.710   0.795   1.173  0.7436  0.4695 -0.0616
  650MOL0     H87697   1.482   0.867   1.131 -1.3808  0.0903 -0.7889
  650MOL0     H87698   1.583   1.016   1.136 -0.5989  3.0966 -3.8345
  650MOL0     H87699   1.508   0.882   0.876  2.3818  0.9246 -1.0680
  650MOL0     H87700   1.554   1.040   0.885 -1.1970 -0.2715 -0.3247
  650MOL0     H87701   1.383   1.240   1.004 -0.4996 -0.1595  2.8257
  650MOL0     H87702   0.992   1.197   1.061 -1.1497  1.2372  5.4992
  650MOL0     H87703   1.097   1.236   1.193 -3.2158  2.8056  0.8993
  650MOL0     H87704   1.115   1.361   0.907 -1.8717 -2.4742 -0.5880
  650MOL0     H87705   1.222   1.398   1.044 -1.4771  1.0206  2.1147
  650MOL0     H87706   1.070   1.548   1.128 -0.6369  1.8493 -1.5018
  650MOL0     H87707   0.949   1.418   1.124 -2.0589  1.8176  0.0794
  650MOL0     H87708   1.035   1.563   0.873  2.5084 -1.8878  2.2843
  650MOL0     H87709   0.935   1.653   0.978  2.2231  1.5360 -1.7268
  650MOL0     H87710   0.745   1.666   1.019  1.9542 -1.5364  1.1530
  650MOL0     H87711   0.564   1.772   1.138 -1.5617  1.2118 -3.1125
  650MOL0     H87712   0.413   1.721   1.060 -0.3770 -1.9070 -1.6707
  650MOL0     H87713   0.440   1.670   1.225 -1.9925 -1.0335 -1.2586
  650MOL0     H87714   0.089   1.706   1.046 -1.3829  1.8834  1.1992
  650MOL0     H87715  -0.094   1.791   1.158 -2.9257 -0.8539 -1.3712
  650MOL0     H87716  -0.240   1.865   1.321 -1.4017  1.0271  0.5390
  650MOL0     H87717  -0.347   1.734   1.277  1.6056  2.5141 -1.8039
  650MOL0     H87718  -0.397   1.720   1.547 -0.1360 -0.4887 -0.3095
  650MOL0     H87719  -0.299   1.869   1.548 -0.5373 -1.7826  1.6021
  650MOL0     H87720  -0.571   1.819   1.408  0.8976  0.6690 -1.1066
  650MOL0     H87721  -0.478   1.955   1.356 -1.0084  3.4096  0.6638
  650MOL0     H87722  -0.554   1.900   1.645  1.7777 -1.4753 -0.7402
  650MOL0     H87723  -0.463   2.041   1.580  2.7052 -1.2091 -2.9712
  650MOL0     H87724  -0.729   2.062   1.614 -0.9076 -0.7448 -0.6403
  650MOL0     H87725  -0.739   1.952   1.485  0.3560 -0.2752 -0.9646
  650MOL0     H87726  -0.577   2.214   1.461  0.2939  1.1532 -1.2896
  650MOL0     H87727  -0.646   2.115   1.323 -1.7257 -2.0374  1.2347
  650MOL0     H87728  -0.809   2.278   1.511 -0.0643 -0.7714  1.4975
  650MOL0     H87729  -0.875   2.146   1.408 -0.7255  1.7072 -2.1427
  650MOL0     H87730  -0.901   2.373   1.308 -0.4265 -1.3459 -0.4236
  650MOL0     H87731  -0.831   2.266   1.208 -3.1836  1.9310 -0.4966
  650MOL0     H87732  -0.078   1.478   1.438 -0.6362  1.2698  0.3067
  650MOL0     H87733   0.132   1.383   1.337 -1.0054  2.3477  2.1956
  650MOL0     H87734   0.507   1.230   1.042  1.4056 -0.3719  1.3902
  650MOL0     H87735   0.720   1.251   0.924 -2.7882 -0.9356 -1.4929
  650MOL0     H87736   2.527   1.106   1.065  2.0519  1.9874  0.6732
  650MOL0     H87737   2.749   1.183   1.034  0.0176  0.1091  1.2536
  650MOL0     H87738   3.115   1.274   0.673 -0.0024 -0.7563 -1.3609
  650MOL0     H87739   3.370   1.308   0.653  1.3572 -0.7956  0.3808
  650MOL0     H87740   3.617   1.327   0.670  0.1558 -1.8345  0.5605
  650MOL0     H87741   3.548   1.421   0.799 -1.4809 -0.8571  2.1491
  650MOL0     H87742   3.833   1.277   0.799 -1.6102 -0.6568 -0.5527
  650MOL0     H87743   3.763   1.333   0.940  2.1400 -1.4234  0.2078
  650MOL0     H87744   3.745   1.571   0.830 -0.2219  0.0642  0.1645
  650MOL0     H87745   3.835   1.492   0.691  1.8026 -2.6239  0.7157
  650MOL0     H87746   3.964   1.544   0.972  4.8000  2.5585  1.2541
  650MOL0     H87747   3.995   1.633   0.818 -1.3815  1.9729  3.0889
  650MOL0     H87748   4.201   1.261   0.762  1.2618  0.4526 -1.1737
  650MOL0     H87749   3.428   1.090   1.006 -0.9950  0.0577  1.8133
  650MOL0     H87750   3.202   1.029   1.022 -1.1048  0.4457  0.9559
  651MOL0     O87751  10.708   7.051   5.462  0.4452 -0.5138  0.2383
  651MOL0     C87752  10.796   6.970   5.489 -0.1142 -0.0166 -1.3124
  651MOL0     O87753  10.778   6.850   5.548  0.2065  0.5548  0.3750
  651MOL0     C87754  10.654   6.823   5.586 -0.5750 -0.6652 -0.0152
  651MOL0     C87755  10.559   6.787   5.485 -0.9765  0.0870  0.3152
  651MOL0     C87756  10.430   6.759   5.510 -0.1263 -0.2498 -0.0155
  651MOL0     C87757  10.389   6.755   5.647 -0.0856 -0.7002 -0.9100
  651MOL0     O87758  10.268   6.714   5.693  0.3379 -0.4277 -0.2284
  651MOL0     C87759  10.150   6.742   5.609 -0.6084  0.2670  0.3115
  651MOL0     C87760  10.035   6.664   5.672  0.6756 -0.6686  0.2011
  651MOL0     C87761  10.054   6.517   5.693 -0.2899 -0.6305 -0.2128
  651MOL0     C87762   9.946   6.455   5.784  1.1493 -0.2069 -0.4529
  651MOL0     C87763   9.988   6.466   5.933  0.2655  0.1383 -0.1996
  651MOL0     C87764   9.869   6.422   6.023 -0.5863 -1.2658  0.8397
  651MOL0     C87765   9.897   6.458   6.172 -0.0999 -1.0823 -0.2973
  651MOL0     C87766   9.982   6.346   6.231 -0.3061  0.4484  0.5623
  651MOL0     N87767   9.978   6.338   6.380  0.0538 -0.1818 -0.1606
  651MOL0     C87768   9.874   6.369   6.460  0.9206  0.8967  0.1231
  651MOL0     C87769   9.914   6.332   6.589  0.1971 -0.3904  0.3760
  651MOL0     C87770   9.827   6.331   6.710  0.5105 -0.0530 -0.0818
  651MOL0     C87771   9.705   6.243   6.676  0.5985  0.6856 -0.6344
  651MOL0     C87772   9.620   6.228   6.813  0.0768 -0.6917  0.6485
  651MOL0     C87773   9.498   6.138   6.804 -0.5372  0.0350 -0.2578
  651MOL0     O87774   9.422   6.173   6.921 -0.4995  0.4698 -0.5773
  651MOL0     C87775   9.296   6.135   6.941  0.9061  0.4983  0.0841
  651MOL0     C87776   9.252   6.118   7.069  0.2400 -0.3587 -0.1832
  651MOL0     C87777   9.117   6.099   7.100  0.0790  0.9262  1.1559
  651MOL0     C87778   9.075   6.112   7.249 -0.1302  0.2653  0.2704
  651MOL0     C87779   9.023   6.085   6.994  0.1739  0.5456  0.0284
  651MOL0     C87780   8.875   6.042   7.013 -0.3571 -0.2833  0.0685
  651MOL0     O87781   8.800   6.005   6.901  0.1840  0.0968  0.2407
  651MOL0     C87782   8.664   5.985   6.924 -0.1222  0.1165  0.3770
  651MOL0     C87783   8.621   5.855   6.928  0.5972  0.2008  0.6407
  651MOL0     C87784   8.483   5.826   6.939  0.1111  0.5592 -0.2698
  651MOL0     C87785   8.400   5.927   6.964  0.5570 -0.4056 -0.4745
  651MOL0     O87786   8.277   5.884   7.000  0.2223  0.1617  0.1793
  651MOL0     C87787   8.164   5.965   6.963 -0.0810  0.3544 -0.0560
  651MOL0     C87788   8.132   5.948   6.817  0.6981  0.7349  0.0652
  651MOL0     C87789   8.005   6.034   6.779  0.4242 -0.6328  0.3760
  651MOL0     C87790   7.875   5.943   6.775 -0.2980 -0.3618 -0.2920
  651MOL0     C87791   7.829   5.892   6.916 -0.1983  0.7246 -0.3765
  651MOL0     C87792   7.705   5.800   6.892  0.5940 -0.9776 -0.2011
  651MOL0     C87793   7.648   5.753   7.022  1.0466  0.9402  0.4159
  651MOL0     C87794   7.542   5.638   6.983  0.4868 -0.0847  0.4460
  651MOL0    Cl87795   7.396   5.703   6.914  0.0153  0.5632 -0.1991
  651MOL0     C87796   8.448   6.061   6.969  0.2227 -0.4513 -0.1904
  651MOL0     C87797   8.585   6.091   6.943 -0.4758 -0.0473  0.6010
  651MOL0     O87798   8.834   6.042   7.129  0.0091 -0.0384  0.0319
  651MOL0     C87799   9.066   6.089   6.859  0.0069  0.3745 -0.1763
  651MOL0     C87800   9.203   6.122   6.830 -0.2501 -0.5880  0.0841
  651MOL0     N87801  10.047   6.306   6.587 -0.1263 -0.6481  0.3022
  651MOL0     N87802  10.082   6.296   6.459  0.5106  0.7940  0.2647
  651MOL0     C87803  10.478   6.802   5.747 -0.2313 -0.4815 -0.5970
  651MOL0     C87804  10.609   6.838   5.719  0.3291  0.0551 -0.1153
  651MOL0     C87805  10.935   7.007   5.469 -0.4109 -0.5419 -0.5812
  651MOL0     C87806  11.041   6.932   5.529 -0.4351 -0.0210  0.7718
  651MOL0     C87807  11.171   6.935   5.480  0.0739 -0.4321 -0.4119
  651MOL0     C87808  11.196   7.020   5.373  0.0236  0.6475 -0.5263
  651MOL0     O87809  11.315   7.035   5.304 -0.1755  0.3004  0.5779
  651MOL0     C87810  11.428   6.955   5.342  0.2076  0.8053 -0.2328
  651MOL0     C87811  11.528   6.992   5.232 -0.4605 -0.4717  0.6309
  651MOL0     C87812  11.486   6.970   5.092  0.3597 -1.1088 -0.6049
  651MOL0     C87813  11.603   6.914   5.023 -0.4212  0.6009  0.8749
  651MOL0     C87814  11.724   6.991   5.045  0.1296  0.8028  0.3029
  651MOL0     C87815  11.819   7.061   5.067 -0.4400  0.6650  0.1145
  651MOL0     C87816  11.098   7.109   5.328 -0.2658  0.3026 -1.0081
  651MOL0     C87817  10.974   7.104   5.375  0.3633 -0.7052  0.0725
  651MOL0     H87818  10.592   6.776   5.383  0.0019  2.3391  0.3400
  651MOL0     H87819  10.364   6.731   5.428  0.2801 -0.9601 -0.1132
  651MOL0     H87820  10.123   6.848   5.616 -0.3926  0.2371  2.1544
  651MOL0     H87821  10.170   6.720   5.504 -0.0780 -0.3457  0.5318
  651MOL0     H87822  10.019   6.713   5.769 -0.6654  0.9811 -0.8043
  651MOL0     H87823   9.948   6.672   5.607  1.1716 -1.4857 -0.5825
  651MOL0     H87824  10.046   6.473   5.593 -0.2553 -4.2845  1.2666
  651MOL0     H87825  10.154   6.483   5.720 -0.1804 -1.3906 -1.5129
  651MOL0     H87826   9.851   6.501   5.754  2.3085  0.5887 -3.1934
  651MOL0     H87827   9.942   6.346   5.770 -1.9612 -0.0715 -1.6135
  651MOL0     H87828  10.080   6.409   5.950  1.6972  1.7564 -2.0181
  651MOL0     H87829  10.013   6.570   5.960  0.2836  0.3061 -0.8530
  651MOL0     H87830   9.778   6.477   5.998  0.4103 -0.3106 -0.9379
  651MOL0     H87831   9.859   6.315   6.002 -1.8606 -1.6598  3.2169
  651MOL0     H87832   9.956   6.549   6.181 -2.0351  0.3822 -1.5476
  651MOL0     H87833   9.800   6.467   6.221  0.1189 -1.1409  0.1547
  651MOL0     H87834  10.086   6.356   6.197 -0.6088  0.5012 -0.3699
  651MOL0     H87835   9.939   6.256   6.187 -0.4986  0.0774  1.4945
  651MOL0     H87836   9.775   6.410   6.443 -0.6969 -1.8800  2.1462
  651MOL0     H87837   9.889   6.287   6.788  1.1559  0.5500 -0.2408
  651MOL0     H87838   9.789   6.428   6.744 -1.7012 -1.3422  1.3900
  651MOL0     H87839   9.742   6.142   6.656 -0.8415  0.2822 -1.3413
  651MOL0     H87840   9.652   6.273   6.586 -0.8732 -1.8555 -0.7262
  651MOL0     H87841   9.581   6.330   6.827 -1.1779 -0.2813 -3.8907
  651MOL0     H87842   9.679   6.196   6.898 -0.1387 -2.0942  0.2867
  651MOL0     H87843   9.522   6.032   6.795  2.6541  0.6262  0.2556
  651MOL0     H87844   9.455   6.162   6.707  2.8034 -1.1674 -2.1961
  651MOL0     H87845   9.324   6.142   7.146 -2.3786  3.2289  1.4275
  651MOL0     H87846   9.161   6.139   7.311  0.2075 -1.8347  0.7665
  651MOL0     H87847   8.999   6.189   7.267  0.4648  1.4131 -1.7575
  651MOL0     H87848   9.028   6.019   7.280  0.4256 -0.3472 -0.6892
  651MOL0     H87849   8.687   5.775   6.897  1.7178  1.2643  0.2093
  651MOL0     H87850   8.451   5.723   6.935  2.2869 -0.1611 -0.2771
  651MOL0     H87851   8.077   5.932   7.020 -0.0636  1.0132  0.3578
  651MOL0     H87852   8.169   6.071   6.991  1.4896  0.0746  0.8151
  651MOL0     H87853   8.219   5.996   6.772  1.5145  0.6712  1.5349
  651MOL0     H87854   8.122   5.842   6.790  2.4750  0.6491 -0.3816
  651MOL0     H87855   8.016   6.057   6.672 -0.2111 -0.7571  0.2755
  651MOL0     H87856   7.978   6.126   6.832 -3.3419  0.5357 -2.9970
  651MOL0     H87857   7.799   6.007   6.730 -0.3032 -1.1841 -1.4914
  651MOL0     H87858   7.890   5.857   6.710 -3.6276 -2.8345  1.8707
  651MOL0     H87859   7.804   5.978   6.979 -0.9227 -0.4575  1.0253
  651MOL0     H87860   7.905   5.825   6.957 -0.9746 -0.3489 -0.6439
  651MOL0     H87861   7.624   5.858   6.847  0.8719 -0.5652 -0.1764
  651MOL0     H87862   7.724   5.706   6.839  1.2635  0.7528 -3.2609
  651MOL0     H87863   7.599   5.838   7.069  1.6374  1.7449 -0.3790
  651MOL0     H87864   7.731   5.718   7.083  0.2777  1.4904  1.8150
  651MOL0     H87865   7.519   5.584   7.075 -0.7958  1.4821  1.0876
  651MOL0     H87866   7.585   5.570   6.909  1.4432 -0.0093  0.9068
  651MOL0     H87867   8.396   6.154   6.990  1.1665 -0.0497  0.3952
  651MOL0     H87868   8.626   6.192   6.942  2.4381 -1.1278 -0.1519
  651MOL0     H87869   8.995   6.060   6.782  1.1315 -2.6628 -0.2321
  651MOL0     H87870   9.249   6.122   6.731  2.5082  2.4526  1.1856
  651MOL0     H87871  10.446   6.801   5.851 -2.6859 -0.2448 -1.2708
  651MOL0     H87872  10.680   6.856   5.799  2.4091 -1.1261 -1.5959
  651MOL0     H87873  11.017   6.854   5.600  0.9733  0.0991  1.4285
  651MOL0     H87874  11.252   6.874   5.519  1.1707  1.6312  0.6373
  651MOL0     H87875  11.462   6.967   5.445  1.3761  0.1297 -0.5214
  651MOL0     H87876  11.399   6.850   5.348  2.0688  0.0898 -2.2974
  651MOL0     H87877  11.623   6.946   5.259 -0.3247  0.2013  1.3489
  651MOL0     H87878  11.566   7.095   5.231  0.4484 -0.7965 -0.7345
  651MOL0     H87879  11.461   7.068   5.049 -2.5249 -0.2900  2.4758
  651MOL0     H87880  11.400   6.903   5.090 -1.0134  0.5040  0.7272
  651MOL0     H87881  11.574   6.918   4.917  0.2943 -2.3779  0.4904
  651MOL0     H87882  11.621   6.812   5.056  1.2146  0.5958  0.0833
  651MOL0     H87883  11.907   7.119   5.081  1.7570 -2.5468  0.6235
  651MOL0     H87884  11.118   7.195   5.265 -1.2318  2.3777  1.3118
  651MOL0     H87885  10.895   7.163   5.330  1.5961  1.7685  0.9903
  652MOL0     O87886   5.190   3.274   8.741  0.5394  0.2143 -0.1407
  652MOL0     C87887   5.212   3.347   8.843  0.5373 -0.0447 -0.4249
  652MOL0     O87888   5.119   3.380   8.943  0.0894  0.1735 -0.3889
  652MOL0     C87889   4.993   3.325   8.941 -0.8566  0.4692  0.5007
  652MOL0     C87890   4.981   3.185   8.938  0.3051  0.2369  0.8851
  652MOL0     C87891   4.850   3.141   8.923  0.6261  0.3590 -1.1962
  652MOL0     C87892   4.734   3.228   8.939  0.5079 -0.1283  0.1773
  652MOL0     O87893   4.611   3.180   8.922 -0.2410 -0.3633 -0.6764
  652MOL0     C87894   4.505   3.278   8.923 -0.0873  1.1102  0.3750
  652MOL0     C87895   4.379   3.189   8.892 -0.7092 -0.8404 -0.4520
  652MOL0     C87896   4.288   3.279   8.818 -0.5049 -0.5487  0.3279
  652MOL0     C87897   4.222   3.211   8.698 -0.0513 -0.0537  0.6239
  652MOL0     C87898   4.097   3.276   8.640  0.1950 -0.9542 -0.7423
  652MOL0     C87899   4.056   3.228   8.492 -0.7405  0.1210 -0.3970
  652MOL0     C87900   3.992   3.341   8.414 -0.8481 -0.0914  0.4279
  652MOL0     C87901   3.916   3.294   8.278  0.4311  0.6963 -0.2758
  652MOL0     N87902   3.787   3.221   8.298  0.2085 -0.8269  0.1681
  652MOL0     C87903   3.774   3.083   8.303 -0.0071  0.3240  0.3449
  652MOL0     C87904   3.649   3.072   8.345  0.2725  0.0294  0.1319
  652MOL0     C87905   3.584   2.932   8.360  0.3969  0.5034  0.5796
  652MOL0     C87906   3.458   2.928   8.271 -0.9869  0.3463 -0.2546
  652MOL0     C87907   3.395   2.785   8.273  0.0549  0.3673  0.5581
  652MOL0     C87908   3.261   2.791   8.196  0.2537  0.3237  0.0246
  652MOL0     O87909   3.157   2.855   8.278  0.2836 -0.4367  0.2349
  652MOL0     C87910   3.023   2.815   8.263 -0.0985 -0.2367  0.1165
  652MOL0     C87911   2.966   2.778   8.142 -0.4353 -0.7717 -0.2740
  652MOL0     C87912   2.831   2.759   8.133  0.5742  0.3295  0.3084
  652MOL0     C87913   2.774   2.743   7.992  0.5215  0.7986  0.7938
  652MOL0     C87914   2.748   2.753   8.245 -0.4519  0.5642 -0.2183
  652MOL0     C87915   2.606   2.727   8.251 -0.1102 -1.0039  0.1444
  652MOL0     O87916   2.544   2.775   8.357 -0.0963 -0.1679  0.2479
  652MOL0     C87917   2.411   2.794   8.362  0.5411 -1.0833  0.1888
  652MOL0     C87918   2.367   2.917   8.408  0.2377  0.5344  0.0051
  652MOL0     C87919   2.228   2.945   8.434 -0.2708  0.3751  0.7967
  652MOL0     C87920   2.134   2.853   8.383 -0.2362  0.0184 -0.0558
  652MOL0     O87921   1.997   2.860   8.384 -0.7367 -0.0156 -0.3163
  652MOL0     C87922   1.923   2.947   8.463  0.4253 -0.4653 -0.5235
  652MOL0     C87923   1.804   3.002   8.390 -0.4669 -0.4691  0.0442
  652MOL0     C87924   1.737   3.116   8.464  0.8848 -0.9420 -0.0581
  652MOL0     C87925   1.595   3.146   8.402  1.0340 -1.0124 -0.7350
  652MOL0     C87926   1.534   3.267   8.480 -0.4170 -0.3839 -0.1093
  652MOL0     C87927   1.397   3.320   8.437 -0.2111 -0.7855  0.0683
  652MOL0     C87928   1.338   3.424   8.536  0.1687 -0.2259 -0.4829
  652MOL0     C87929   1.221   3.513   8.480  0.7166  0.5354  0.5681
  652MOL0    Cl87930   1.270   3.603   8.337 -0.0713 -0.3650 -0.6730
  652MOL0     C87931   2.173   2.738   8.314  0.7660  0.3094  1.4410
  652MOL0     C87932   2.308   2.701   8.319 -0.4129 -0.1538  0.6935
  652MOL0     O87933   2.547   2.658   8.166  0.4691 -0.0516  0.1759
  652MOL0     C87934   2.812   2.774   8.367 -0.0428  0.2175 -0.2675
  652MOL0     C87935   2.948   2.803   8.376 -0.4688  0.3064 -0.0655
  652MOL0     N87936   3.584   3.195   8.358 -0.3868 -0.0595  0.7827
  652MOL0     N87937   3.673   3.286   8.337  0.1478  0.4471  0.0016
  652MOL0     C87938   4.757   3.372   8.957 -0.0768  0.8186 -1.1254
  652MOL0     C87939   4.885   3.411   8.969 -0.0801  0.8870  0.0317
  652MOL0     C87940   5.348   3.411   8.853  0.0727  0.0294  1.1435
  652MOL0     C87941   5.454   3.388   8.761 -0.0670  0.2474  0.2046
  652MOL0     C87942   5.583   3.436   8.770 -0.0480  0.0178  0.1737
  652MOL0     C87943   5.617   3.509   8.886 -0.3228 -0.5798 -0.7550
  652MOL0     O87944   5.740   3.572   8.905  0.5189  0.2615 -0.5629
  652MOL0     C87945   5.823   3.495   8.996 -0.0683  0.6486  0.5303
  652MOL0     C87946   5.917   3.400   8.926  0.9024 -0.1601  0.9581
  652MOL0     C87947   5.982   3.449   8.789  0.4054 -0.0839 -0.5082
  652MOL0     C87948   6.102   3.370   8.747 -0.5529  0.3981  0.3177
  652MOL0     C87949   6.177   3.438   8.638 -0.1553  0.5313 -0.3912
  652MOL0     C87950   6.233   3.504   8.551  0.1080 -0.0231 -0.1110
  652MOL0     C87951   5.517   3.542   8.980  0.0470 -0.1552  0.2176
  652MOL0     C87952   5.384   3.501   8.962  0.2588  0.1855 -0.2754
  652MOL0     H87953   5.071   3.125   8.927 -0.1913 -0.4925  0.6982
  652MOL0     H87954   4.837   3.037   8.895  1.7032  0.9064 -4.0277
  652MOL0     H87955   4.493   3.338   9.014  0.2009  1.8968 -0.0963
  652MOL0     H87956   4.525   3.352   8.845 -0.7591  1.2445  0.3226
  652MOL0     H87957   4.399   3.102   8.829  0.5220  0.1898 -1.5348
  652MOL0     H87958   4.331   3.166   8.987 -2.3656  0.6328 -0.8819
  652MOL0     H87959   4.211   3.303   8.892  0.2106 -4.1598  2.4525
  652MOL0     H87960   4.324   3.377   8.785 -1.0077 -0.2481  0.6599
  652MOL0     H87961   4.287   3.199   8.610 -2.7460 -2.3832 -1.2425
  652MOL0     H87962   4.187   3.111   8.723 -1.8654  0.3553 -0.1047
  652MOL0     H87963   4.011   3.273   8.708  0.5474 -0.0180 -0.2258
  652MOL0     H87964   4.128   3.381   8.642 -1.0233 -0.4916  3.1580
  652MOL0     H87965   4.141   3.187   8.436  0.6613 -0.2407  1.8717
  652MOL0     H87966   3.986   3.146   8.508 -0.9176 -0.1504 -2.3213
  652MOL0     H87967   3.915   3.383   8.479 -0.3767  0.9229  0.3463
  652MOL0     H87968   4.063   3.418   8.382 -1.8998  0.5603 -0.3897
  652MOL0     H87969   3.981   3.221   8.227 -1.0493 -0.3170 -0.7730
  652MOL0     H87970   3.900   3.373   8.205  0.4627 -0.5774 -1.7151
  652MOL0     H87971   3.846   3.003   8.290  0.6821  0.7506  1.3695
  652MOL0     H87972   3.656   2.865   8.310  0.0939  0.4755  0.1734
  652MOL0     H87973   3.551   2.913   8.462 -0.0016  0.5773  0.4641
  652MOL0     H87974   3.485   2.961   8.170  2.1773  0.9485  0.6585
  652MOL0     H87975   3.383   3.003   8.299 -2.2324 -1.4236  1.3701
  652MOL0     H87976   3.380   2.751   8.376  1.6905 -2.4502 -0.0514
  652MOL0     H87977   3.446   2.703   8.223 -0.6795 -1.3641  2.5222
  652MOL0     H87978   3.239   2.685   8.177  2.4664 -0.9247  3.4481
  652MOL0     H87979   3.261   2.852   8.106 -2.8197  0.1546 -0.2126
  652MOL0     H87980   3.028   2.786   8.053  0.3397 -0.7537  0.2561
  652MOL0     H87981   2.711   2.832   7.981 -0.4642 -0.0098 -0.2597
  652MOL0     H87982   2.855   2.738   7.919  0.3814  0.8971  0.6308
  652MOL0     H87983   2.719   2.649   7.981  2.7562 -0.4260 -0.7936
  652MOL0     H87984   2.452   2.977   8.438 -0.0403  0.7887  0.3078
  652MOL0     H87985   2.205   3.040   8.481  1.3779  0.8440  0.7002
  652MOL0     H87986   1.890   2.898   8.555  0.1614  0.2859 -0.2102
  652MOL0     H87987   1.990   3.032   8.479  1.1725 -1.0239 -0.6304
  652MOL0     H87988   1.845   3.023   8.291  1.9987 -1.1340  0.8310
  652MOL0     H87989   1.730   2.923   8.374  0.4860 -1.5174  0.6245
  652MOL0     H87990   1.805   3.201   8.468  0.6075 -0.5425 -2.4520
  652MOL0     H87991   1.717   3.080   8.566  0.1460 -2.0163 -0.5659
  652MOL0     H87992   1.606   3.181   8.299 -1.6577 -1.3399 -1.2161
  652MOL0     H87993   1.524   3.062   8.401 -2.1029  1.4162 -2.8602
  652MOL0     H87994   1.606   3.348   8.491 -1.5240  0.6865 -0.4822
  652MOL0     H87995   1.528   3.237   8.585 -1.0086  1.2275  0.3615
  652MOL0     H87996   1.406   3.369   8.339  0.3032  1.2061  1.0613
  652MOL0     H87997   1.324   3.238   8.434  0.0280 -1.1766  2.6541
  652MOL0     H87998   1.415   3.494   8.572  2.1575 -1.6841 -1.7170
  652MOL0     H87999   1.307   3.375   8.628 -2.5026  1.7302 -0.2342
  652MOL0     H88000   1.190   3.576   8.564 -0.5566 -0.2036  0.6750
  652MOL0     H88001   1.139   3.447   8.452  0.2217  1.7557 -1.0421
  652MOL0     H88002   2.094   2.674   8.277  1.0667  0.1185  1.1150
  652MOL0     H88003   2.337   2.603   8.285 -0.4887  0.8608 -2.7332
  652MOL0     H88004   2.765   2.786   8.464  3.4108  0.5528  1.5238
  652MOL0     H88005   3.009   2.834   8.460 -0.4132  2.6364 -0.8853
  652MOL0     H88006   4.683   3.452   8.963  0.1251  0.9179  0.6020
  652MOL0     H88007   4.907   3.517   8.972  1.7621  0.5385  1.6437
  652MOL0     H88008   5.433   3.318   8.681  1.5078  1.3176 -1.2148
  652MOL0     H88009   5.660   3.411   8.698  1.6830  1.6579  1.3584
  652MOL0     H88010   5.881   3.556   9.066  0.4763 -1.1253  1.6934
  652MOL0     H88011   5.765   3.432   9.064  0.3618  1.3911  1.6161
  652MOL0     H88012   5.864   3.307   8.905 -1.6293  0.8816  2.2240
  652MOL0     H88013   5.999   3.377   8.995  1.3416  1.1295  0.8920
  652MOL0     H88014   6.016   3.550   8.811 -2.8825  1.1272 -0.4562
  652MOL0     H88015   5.907   3.455   8.710 -1.4770  0.0723  1.1895
  652MOL0     H88016   6.082   3.265   8.725  0.5568 -0.1528  1.7469
  652MOL0     H88017   6.169   3.369   8.834 -0.4377 -0.1499  0.2303
  652MOL0     H88018   6.278   3.551   8.466  0.4774  0.1767  0.1970
  652MOL0     H88019   5.537   3.606   9.065  0.2950  0.5481 -0.3633
  652MOL0     H88020   5.314   3.519   9.043  0.7655 -2.5821  0.8931
  653MOL0     O88021   3.918   0.146   0.318  0.3920  0.2609  0.2672
  653MOL0     C88022   3.955   0.090   0.418 -0.3837  0.4041 -0.0752
  653MOL0     O88023   3.914  -0.036   0.465 -0.3092 -0.4461  0.6742
  653MOL0     C88024   3.807  -0.099   0.405 -0.2426  0.3061 -0.3004
  653MOL0     C88025   3.718  -0.164   0.495 -0.8240 -0.5964 -1.0127
  653MOL0     C88026   3.607  -0.235   0.452 -0.1312  0.7798  0.2422
  653MOL0     C88027   3.595  -0.259   0.315 -0.3239  0.9954  0.0778
  653MOL0     O88028   3.505  -0.351   0.275  0.1635 -0.1439  0.7703
  653MOL0     C88029   3.374  -0.338   0.330  0.2760 -0.1092 -0.2609
  653MOL0     C88030   3.276  -0.433   0.257 -0.1955  0.1306 -0.3486
  653MOL0     C88031   3.133  -0.397   0.293  0.2973  0.5320  0.1738
  653MOL0     C88032   3.035  -0.497   0.215 -0.9281  0.9910 -0.8323
  653MOL0     C88033   2.891  -0.484   0.253 -0.8528 -0.0061  0.1142
  653MOL0     C88034   2.800  -0.545   0.144  0.4745  0.1411  0.3594
  653MOL0     C88035   2.657  -0.494   0.155 -0.6424 -0.1578  0.5809
  653MOL0     C88036   2.583  -0.585   0.257 -0.1754 -0.2327  0.2887
  653MOL0     N88037   2.443  -0.535   0.256  0.9608 -0.3646  0.2873
  653MOL0     C88038   2.333  -0.618   0.233  0.2480  0.1625 -0.4891
  653MOL0     C88039   2.232  -0.527   0.229  0.4083 -0.3104  0.1894
  653MOL0     C88040   2.103  -0.583   0.185  0.3037  0.1758  0.1658
  653MOL0     C88041   1.989  -0.489   0.197  0.0371 -0.5333 -0.7823
  653MOL0     C88042   1.860  -0.534   0.130  0.1029 -0.4227  0.4085
  653MOL0     C88043   1.753  -0.425   0.157  0.1923  0.0374  0.2023
  653MOL0     O88044   1.630  -0.456   0.088 -0.2966 -0.7948 -0.2695
  653MOL0     C88045   1.528  -0.514   0.151 -0.9318  0.7261 -0.3614
  653MOL0     C88046   1.413  -0.509   0.084 -1.7258 -0.1782  0.6045
  653MOL0     C88047   1.289  -0.560   0.130 -0.0350  0.2821  0.3668
  653MOL0     C88048   1.158  -0.543   0.045 -0.4436 -0.7590  0.0254
  653MOL0     C88049   1.291  -0.615   0.262  0.4165  1.0422 -0.2583
  653MOL0     C88050   1.177  -0.689   0.319  0.4283 -0.6821  0.0919
  653MOL0     O88051   1.120  -0.648   0.446 -0.6370 -0.3128  0.4075
  653MOL0     C88052   1.004  -0.697   0.491 -0.6551 -0.6061 -1.5950
  653MOL0     C88053   1.001  -0.765   0.615 -0.7336 -0.4972  0.4682
  653MOL0     C88054   0.883  -0.801   0.673  1.0281 -0.1725 -0.0512
  653MOL0     C88055   0.760  -0.779   0.601  0.3508  0.2696 -0.7923
  653MOL0     O88056   0.633  -0.828   0.651 -0.3847 -0.1987  0.0692
  653MOL0     C88057   0.553  -0.740   0.726  0.1061  0.6121  0.0764
  653MOL0     C88058   0.411  -0.773   0.692 -0.2344  0.3387 -0.7204
  653MOL0     C88059   0.374  -0.903   0.770 -0.2695  0.3762 -0.6033
  653MOL0     C88060   0.232  -0.955   0.746 -0.3330  0.0906 -0.2084
  653MOL0     C88061   0.195  -1.071   0.845  0.1319  0.0705 -0.2254
  653MOL0     C88062   0.050  -1.099   0.803 -0.2782 -0.7157  0.3574
  653MOL0     C88063   0.013  -1.229   0.874 -0.3004  0.4646 -0.0648
  653MOL0     C88064  -0.130  -1.275   0.848 -0.6424  1.1204  0.5264
  653MOL0    Cl88065  -0.198  -1.405   0.964  0.0611 -0.4549  0.6523
  653MOL0     C88066   0.760  -0.720   0.481 -0.6329  0.2971  0.3978
  653MOL0     C88067   0.883  -0.669   0.430 -0.1419  0.2752  0.2530
  653MOL0     O88068   1.129  -0.786   0.261  0.1437 -0.2885  0.3958
  653MOL0     C88069   1.414  -0.627   0.326  0.2879  0.3013 -0.3990
  653MOL0     C88070   1.531  -0.572   0.272 -0.7161  0.0491 -1.2251
  653MOL0     N88071   2.271  -0.390   0.249 -0.4128 -0.0253 -0.3014
  653MOL0     N88072   2.403  -0.407   0.271 -0.9111  0.2765 -0.0480
  653MOL0     C88073   3.683  -0.195   0.221 -0.1054 -0.0586  0.1715
  653MOL0     C88074   3.786  -0.112   0.265 -0.5005 -0.6819 -0.1688
  653MOL0     C88075   4.058   0.163   0.497 -0.2484  0.6873 -0.6174
  653MOL0     C88076   4.130   0.094   0.601  0.1747 -0.0693 -0.1708
  653MOL0     C88077   4.240   0.145   0.667  0.1533 -0.5948 -0.0516
  653MOL0     C88078   4.297   0.271   0.634 -0.1736 -0.6545  0.7136
  653MOL0     O88079   4.427   0.293   0.681  0.8187  0.7537 -0.0968
  653MOL0     C88080   4.478   0.415   0.657  0.9001 -0.7055 -0.9909
  653MOL0     C88081   4.630   0.416   0.691 -0.1962 -0.4704  0.0929
  653MOL0     C88082   4.699   0.306   0.608  0.5241 -0.5484  0.0064
  653MOL0     C88083   4.845   0.331   0.607 -0.0108  0.0189 -0.9304
  653MOL0     C88084   4.921   0.228   0.529  0.2817  0.1192  0.2786
  653MOL0     C88085   4.992   0.155   0.463 -0.4162  0.3733  0.2929
  653MOL0     C88086   4.220   0.346   0.542 -0.5465  1.3977  0.1052
  653MOL0     C88087   4.104   0.299   0.480  0.0470  0.9921 -0.0033
  653MOL0     H88088   3.735  -0.159   0.602 -1.4644 -0.5759 -0.9079
  653MOL0     H88089   3.555  -0.288   0.531 -1.7291  1.6105 -0.2048
  653MOL0     H88090   3.370  -0.346   0.439  0.6422  0.9866 -0.1634
  653MOL0     H88091   3.332  -0.239   0.309  0.2374  0.3380  1.7797
  653MOL0     H88092   3.290  -0.434   0.149 -0.0807 -2.9600 -0.3954
  653MOL0     H88093   3.316  -0.531   0.284  0.7387  0.0492 -1.8869
  653MOL0     H88094   3.129  -0.400   0.403 -0.7581  1.1223  0.1663
  653MOL0     H88095   3.120  -0.296   0.253  0.8468  0.4036 -0.3250
  653MOL0     H88096   3.049  -0.474   0.109 -1.3035 -0.2881 -1.1767
  653MOL0     H88097   3.082  -0.594   0.236  2.9949  1.9833 -3.8585
  653MOL0     H88098   2.877  -0.530   0.351 -1.1915 -0.3310 -0.0828
  653MOL0     H88099   2.869  -0.380   0.279  0.8890 -0.0646  2.1049
  653MOL0     H88100   2.832  -0.501   0.050 -0.8480  1.2123  0.3690
  653MOL0     H88101   2.808  -0.654   0.139 -1.5311 -0.0147 -0.4494
  653MOL0     H88102   2.654  -0.389   0.187 -0.0765 -0.2785  1.0471
  653MOL0     H88103   2.608  -0.509   0.059  3.7935 -1.9631 -1.6733
  653MOL0     H88104   2.625  -0.595   0.357 -1.2776 -1.3616  0.6602
  653MOL0     H88105   2.582  -0.683   0.209 -1.4602  0.0387 -0.3045
  653MOL0     H88106   2.333  -0.726   0.224  1.2908  0.2727 -2.4039
  653MOL0     H88107   2.122  -0.614   0.082 -2.5494  0.2132 -0.4704
  653MOL0     H88108   2.084  -0.668   0.251 -0.9462 -1.2313 -1.8642
  653MOL0     H88109   2.016  -0.392   0.154 -0.6605  0.2097  0.4013
  653MOL0     H88110   1.977  -0.456   0.301  1.0178 -0.2121 -0.7603
  653MOL0     H88111   1.823  -0.623   0.181 -1.3166 -0.1907 -0.1416
  653MOL0     H88112   1.866  -0.558   0.023  0.9656  4.5232 -0.9042
  653MOL0     H88113   1.783  -0.330   0.111 -1.3884  0.1985 -0.5691
  653MOL0     H88114   1.739  -0.418   0.265  1.2972 -0.2323  0.3723
  653MOL0     H88115   1.414  -0.462  -0.015  0.6380  1.0186  1.1022
  653MOL0     H88116   1.159  -0.439   0.010 -0.7993 -0.4204  0.9645
  653MOL0     H88117   1.152  -0.611  -0.040  0.8626  0.2101 -0.8833
  653MOL0     H88118   1.064  -0.556   0.101 -0.1166 -1.9628  0.3184
  653MOL0     H88119   1.093  -0.787   0.667  1.0121  3.4416 -0.6198
  653MOL0     H88120   0.877  -0.851   0.769 -0.6335  1.7374  0.8939
  653MOL0     H88121   0.557  -0.743   0.835 -3.2433  1.9315  0.3435
  653MOL0     H88122   0.583  -0.639   0.694  2.1414  0.2042  0.5655
  653MOL0     H88123   0.351  -0.683   0.706  0.9156  1.4618 -2.5748
  653MOL0     H88124   0.411  -0.794   0.584  1.5874 -1.8412 -0.3769
  653MOL0     H88125   0.379  -0.874   0.875  2.1085  1.2097 -0.8757
  653MOL0     H88126   0.446  -0.982   0.747 -0.7827  0.3040 -2.0504
  653MOL0     H88127   0.172  -0.870   0.780  0.5012 -0.2196  2.2758
  653MOL0     H88128   0.229  -0.967   0.638  1.6305  2.2998 -0.5884
  653MOL0     H88129   0.197  -1.033   0.947 -0.5612 -0.4013 -0.0321
  653MOL0     H88130   0.248  -1.166   0.834 -1.4984 -0.6604 -2.4352
  653MOL0     H88131  -0.029  -1.028   0.826  0.9115  0.8164 -0.1546
  653MOL0     H88132   0.048  -1.116   0.695  0.8707 -1.5921  0.4544
  653MOL0     H88133   0.020  -1.200   0.979  1.4595  0.5554 -0.1887
  653MOL0     H88134   0.088  -1.305   0.855  1.7387  2.3808 -0.0828
  653MOL0     H88135  -0.137  -1.307   0.743 -1.0344  4.5290 -0.6137
  653MOL0     H88136  -0.201  -1.192   0.852 -3.2480 -0.9596  0.1362
  653MOL0     H88137   0.669  -0.687   0.432 -1.7293 -2.0592  0.6945
  653MOL0     H88138   0.894  -0.605   0.343 -1.2279 -0.6776 -0.6159
  653MOL0     H88139   1.424  -0.681   0.420  1.8585 -0.2844 -0.8811
  653MOL0     H88140   1.617  -0.587   0.337 -0.1569  0.2635 -1.9020
  653MOL0     H88141   3.670  -0.213   0.115 -0.0186 -3.4439  0.6286
  653MOL0     H88142   3.860  -0.082   0.191  0.4409 -0.9071  0.6653
  653MOL0     H88143   4.087  -0.002   0.627  0.4088  0.2572  1.5913
  653MOL0     H88144   4.297   0.085   0.737  1.4261 -0.1007 -0.6191
  653MOL0     H88145   4.471   0.439   0.551  0.7472 -3.2610 -1.6165
  653MOL0     H88146   4.438   0.488   0.728 -0.1103  0.8102 -3.0181
  653MOL0     H88147   4.633   0.392   0.798 -1.0664  1.8265  0.6943
  653MOL0     H88148   4.674   0.516   0.678  0.1468 -0.0220  3.6893
  653MOL0     H88149   4.657   0.312   0.507  0.2868 -2.2709 -0.0239
  653MOL0     H88150   4.675   0.208   0.649 -0.4635  0.3803  1.8070
  653MOL0     H88151   4.901   0.334   0.701 -0.4407  0.5087 -0.6808
  653MOL0     H88152   4.862   0.426   0.554 -0.0544  0.1558 -0.6990
  653MOL0     H88153   5.061   0.083   0.425 -0.1987  1.2421 -1.0381
  653MOL0     H88154   4.239   0.452   0.532  2.0366  0.9701 -0.0917
  653MOL0     H88155   4.054   0.371   0.416  1.9026  3.2940  0.9643
  654MOL0     O88156  10.963   7.340   3.326  0.1535  0.4788  0.5052
  654MOL0     C88157  11.030   7.410   3.258 -0.4777 -1.1317 -0.0760
  654MOL0     O88158  11.010   7.543   3.234 -0.3052 -0.4846 -0.0591
  654MOL0     C88159  10.900   7.608   3.278  0.9289  0.3154  0.0636
  654MOL0     C88160  10.772   7.563   3.251  0.2769  0.5901 -0.3142
  654MOL0     C88161  10.659   7.651   3.277 -0.0706 -0.0243 -0.4297
  654MOL0     C88162  10.677   7.777   3.336  0.3059 -0.0659 -0.2510
  654MOL0     O88163  10.570   7.865   3.364 -0.2523  0.6112  0.0187
  654MOL0     C88164  10.479   7.871   3.259  0.3753  0.4528  0.0156
  654MOL0     C88165  10.447   8.017   3.232 -0.3418  0.1177 -0.3963
  654MOL0     C88166  10.349   8.043   3.117  0.1687 -0.2069  0.1445
  654MOL0     C88167  10.351   8.183   3.058  0.2148 -0.2697 -0.5428
  654MOL0     C88168  10.285   8.281   3.161  0.3174  0.3563  0.2063
  654MOL0     C88169  10.286   8.420   3.103  0.6666 -0.1832 -0.3589
  654MOL0     C88170  10.244   8.518   3.222  0.1640 -0.0310 -0.5835
  654MOL0     C88171  10.215   8.656   3.169 -0.1069  0.1449 -0.1576
  654MOL0     N88172  10.345   8.699   3.106 -0.1446  0.1163 -0.4141
  654MOL0     C88173  10.451   8.767   3.170  0.4442  0.1434  0.7905
  654MOL0     C88174  10.518   8.819   3.067 -0.1633 -0.1191 -0.0100
  654MOL0     C88175  10.621   8.928   3.096 -0.5794  0.4773 -0.3066
  654MOL0     C88176  10.585   9.068   3.046 -0.9336  0.1183  0.3696
  654MOL0     C88177  10.648   9.098   2.908  0.0463 -0.3725  0.5072
  654MOL0     C88178  10.796   9.066   2.889  0.0523  0.1144 -0.0168
  654MOL0     O88179  10.867   9.116   2.997 -0.2089  0.3208 -0.4437
  654MOL0     C88180  11.004   9.133   2.983 -0.2316 -0.8893 -0.1312
  654MOL0     C88181  11.076   9.215   3.071  0.0480 -0.3619  0.0686
  654MOL0     C88182  11.208   9.260   3.043  0.0816  0.0249  0.0238
  654MOL0     C88183  11.257   9.379   3.123 -0.0459 -0.0618 -0.0976
  654MOL0     C88184  11.285   9.197   2.947  0.0509  0.2041  0.0545
  654MOL0     C88185  11.430   9.195   2.934 -0.5078  0.4810  0.2417
  654MOL0     O88186  11.481   9.163   2.803  0.7224 -0.0144 -0.0058
  654MOL0     C88187  11.619   9.173   2.784  0.4194  0.6448 -0.1786
  654MOL0     C88188  11.715   9.115   2.869 -0.3893 -0.2077  0.4755
  654MOL0     C88189  11.853   9.129   2.833  0.1384 -0.1111 -0.8857
  654MOL0     C88190  11.889   9.192   2.713 -0.3260  0.5344  0.5026
  654MOL0     O88191  12.024   9.205   2.715  0.3383  0.7053  0.3307
  654MOL0     C88192  12.085   9.297   2.627 -0.0934  0.7254  0.4317
  654MOL0     C88193  12.231   9.262   2.623 -0.8186  0.5363  0.2432
  654MOL0     C88194  12.327   9.363   2.557  0.5775  0.9102  0.2774
  654MOL0     C88195  12.470   9.317   2.578  0.2213 -0.1410  0.8247
  654MOL0     C88196  12.568   9.392   2.481 -0.5060  0.8899 -0.2131
  654MOL0     C88197  12.711   9.323   2.491 -0.7061 -0.6124  0.4326
  654MOL0     C88198  12.795   9.410   2.394  0.1658  0.3686  0.2968
  654MOL0     C88199  12.936   9.356   2.376 -0.6967  0.6933  0.1930
  654MOL0    Cl88200  12.936   9.179   2.318  0.0876 -0.1334  0.2867
  654MOL0     C88201  11.786   9.247   2.629  0.0034 -0.7038 -0.2950
  654MOL0     C88202  11.652   9.227   2.663  0.0967  0.0815  0.3234
  654MOL0     O88203  11.494   9.246   3.022 -0.0211  0.4413 -0.1378
  654MOL0     C88204  11.212   9.109   2.859 -0.3425 -0.6729 -0.2303
  654MOL0     C88205  11.072   9.084   2.870  0.7914  0.2560  0.1655
  654MOL0     N88206  10.464   8.789   2.946 -0.2311  0.5102 -0.1467
  654MOL0     N88207  10.353   8.720   2.969  0.3185  0.5096  0.7379
  654MOL0     C88208  10.807   7.816   3.368 -0.4214  0.1728  0.5374
  654MOL0     C88209  10.914   7.729   3.344 -0.1069 -1.1297 -0.2469
  654MOL0     C88210  11.153   7.355   3.199 -0.1999 -0.6412 -0.3615
  654MOL0     C88211  11.222   7.252   3.263 -0.3956  0.7990 -0.3962
  654MOL0     C88212  11.332   7.194   3.201 -0.5222 -1.2111  0.1094
  654MOL0     C88213  11.386   7.243   3.082 -0.8692  0.3022  0.0062
  654MOL0     O88214  11.508   7.187   3.039  0.6910  0.2731 -0.1386
  654MOL0     C88215  11.578   7.258   2.942  0.0186 -0.6198  0.3450
  654MOL0     C88216  11.719   7.210   2.921 -0.1720  0.0510 -0.3403
  654MOL0     C88217  11.816   7.264   3.040  0.3189 -0.0118  0.8998
  654MOL0     C88218  11.870   7.400   3.009 -0.2683  0.4292  0.3172
  654MOL0     C88219  11.929   7.476   3.115  0.2168  0.5970 -0.1358
  654MOL0     C88220  11.972   7.528   3.216  0.4227 -0.8433 -0.1411
  654MOL0     C88221  11.321   7.357   3.023 -1.0403  0.3613 -1.4834
  654MOL0     C88222  11.201   7.406   3.075  0.3921  0.3706 -0.5841
  654MOL0     H88223  10.745   7.465   3.213 -1.4815  0.4059  1.2526
  654MOL0     H88224  10.559   7.616   3.253 -1.0406  1.6007  1.0198
  654MOL0     H88225  10.504   7.818   3.167 -1.9523 -1.2915  0.2843
  654MOL0     H88226  10.385   7.829   3.296  0.2381 -0.4115 -1.2564
  654MOL0     H88227  10.405   8.052   3.326  1.2790  0.2082  0.3372
  654MOL0     H88228  10.536   8.077   3.213 -0.6336  1.0093  0.9281
  654MOL0     H88229  10.375   7.980   3.031 -1.8164 -1.2462  0.2601
  654MOL0     H88230  10.245   8.018   3.140  0.0271 -1.5683 -1.6943
  654MOL0     H88231  10.454   8.212   3.035  0.8174  0.4339  2.6498
  654MOL0     H88232  10.293   8.181   2.965  0.1739 -1.4704 -0.5123
  654MOL0     H88233  10.180   8.251   3.173  0.1158  1.3875  1.1831
  654MOL0     H88234  10.331   8.272   3.259 -1.6052 -3.3985  0.9537
  654MOL0     H88235  10.383   8.440   3.058  0.1464 -0.9033 -1.8566
  654MOL0     H88236  10.209   8.433   3.026 -1.7313  1.5299  2.1078
  654MOL0     H88237  10.149   8.487   3.267 -0.1585  2.5928  0.6959
  654MOL0     H88238  10.319   8.534   3.299 -1.9376  0.7685  1.4122
  654MOL0     H88239  10.186   8.723   3.251 -0.8893  2.8170 -2.4559
  654MOL0     H88240  10.131   8.653   3.098 -3.4507  0.3270  3.4561
  654MOL0     H88241  10.472   8.782   3.275 -0.0799 -0.3263  0.9677
  654MOL0     H88242  10.628   8.947   3.204 -3.0830 -1.4534  0.3120
  654MOL0     H88243  10.719   8.892   3.064  1.0076  3.5407  0.7242
  654MOL0     H88244  10.629   9.140   3.115  0.9443 -1.0365  0.4710
  654MOL0     H88245  10.479   9.091   3.034 -1.0710 -1.6335 -3.3560
  654MOL0     H88246  10.632   9.203   2.883 -1.2344 -0.7569 -0.4573
  654MOL0     H88247  10.598   9.028   2.840  0.6113 -1.5377  1.2454
  654MOL0     H88248  10.828   9.113   2.795 -2.9439 -0.8325 -1.6659
  654MOL0     H88249  10.825   8.961   2.882 -2.5951 -0.9596  2.7360
  654MOL0     H88250  11.033   9.249   3.164  1.4808  2.7457 -0.2777
  654MOL0     H88251  11.291   9.459   3.056  1.9630  0.3279  1.2920
  654MOL0     H88252  11.178   9.412   3.193  1.7451  2.0040  1.0909
  654MOL0     H88253  11.341   9.343   3.183  0.7514  1.6943 -0.0821
  654MOL0     H88254  11.694   9.074   2.967 -1.9373  1.0765  0.7421
  654MOL0     H88255  11.918   9.083   2.906 -1.0310  2.2179  1.8013
  654MOL0     H88256  12.044   9.287   2.525  1.9035  1.2174 -0.4690
  654MOL0     H88257  12.076   9.399   2.666 -0.6596  0.2464  1.6045
  654MOL0     H88258  12.256   9.270   2.729 -2.0932  1.5649  0.4775
  654MOL0     H88259  12.243   9.158   2.590 -0.6993  1.4481 -2.9336
  654MOL0     H88260  12.299   9.462   2.594 -1.1507 -0.0722  1.7657
  654MOL0     H88261  12.299   9.374   2.452  0.0825  1.9315  0.5061
  654MOL0     H88262  12.504   9.332   2.681  1.6286 -0.3625  0.4165
  654MOL0     H88263  12.470   9.209   2.562  1.0225 -0.1031  0.5041
  654MOL0     H88264  12.577   9.495   2.515  1.8432  0.5442  0.3881
  654MOL0     H88265  12.526   9.381   2.381 -0.6520 -1.8653  0.0617
  654MOL0     H88266  12.743   9.338   2.594  1.6234  0.0343 -0.3312
  654MOL0     H88267  12.704   9.217   2.465 -0.4528 -0.8980  1.5160
  654MOL0     H88268  12.796   9.512   2.434 -0.8731 -0.1584  1.7459
  654MOL0     H88269  12.752   9.414   2.294 -0.0274 -1.8928  0.2549
  654MOL0     H88270  12.993   9.375   2.468 -2.2466  2.9044  0.7836
  654MOL0     H88271  12.988   9.404   2.293  0.1752  1.2621  1.0489
  654MOL0     H88272  11.815   9.310   2.546 -0.0288  1.9037  1.5488
  654MOL0     H88273  11.565   9.270   2.614  0.3095 -0.5027 -0.6004
  654MOL0     H88274  11.266   9.060   2.779 -1.7879 -1.3654 -0.8147
  654MOL0     H88275  11.013   9.021   2.803  0.2813  0.0203  0.8319
  654MOL0     H88276  10.832   7.913   3.409 -0.0470  0.1277  0.4197
  654MOL0     H88277  11.013   7.772   3.359 -1.3602  4.2433 -4.1568
  654MOL0     H88278  11.187   7.218   3.360 -0.1961  0.6212 -0.3859
  654MOL0     H88279  11.382   7.112   3.250  0.1638  0.7470  2.9461
  654MOL0     H88280  11.531   7.237   2.845 -0.8839 -1.5542  0.9644
  654MOL0     H88281  11.580   7.364   2.966 -1.0445 -0.0623 -1.7387
  654MOL0     H88282  11.760   7.222   2.820  0.1491 -1.5027 -0.4094
  654MOL0     H88283  11.721   7.101   2.924  2.8892  0.0362 -0.3829
  654MOL0     H88284  11.896   7.190   3.050 -0.3417 -0.8885 -0.0537
  654MOL0     H88285  11.767   7.271   3.137  1.4324  1.6863  1.3790
  654MOL0     H88286  11.795   7.463   2.962 -2.2683 -0.8234  1.6923
  654MOL0     H88287  11.950   7.393   2.934  0.0658  0.3540  0.6712
  654MOL0     H88288  12.018   7.581   3.297  1.8103 -2.8355  0.4336
  654MOL0     H88289  11.364   7.412   2.940  3.2889  1.3088  1.0130
  654MOL0     H88290  11.143   7.485   3.029 -1.8798 -1.1320 -0.4128
  655MOL0     O88291   1.320   7.830   9.918 -0.0145 -0.6231 -0.6323
  655MOL0     C88292   1.289   7.717   9.883 -0.6982  0.4962 -0.3710
  655MOL0     O88293   1.167   7.678   9.839  0.3335 -0.0483  0.2027
  655MOL0     C88294   1.056   7.763   9.829 -0.0992 -0.2548 -0.4398
  655MOL0     C88295   1.029   7.882   9.901  0.7357 -1.4151  0.4016
  655MOL0     C88296   0.912   7.959   9.879  0.4483 -1.2330 -0.3167
  655MOL0     C88297   0.814   7.921   9.793 -0.4923 -0.3125 -0.1373
  655MOL0     O88298   0.709   8.009   9.782 -0.4528  0.6254 -0.1883
  655MOL0     C88299   0.622   7.992   9.670  0.4384  0.3590 -1.2154
  655MOL0     C88300   0.533   8.124   9.665  0.0498 -0.3726  0.0280
  655MOL0     C88301   0.628   8.241   9.624  0.1144 -0.5975 -0.2686
  655MOL0     C88302   0.546   8.377   9.611  0.5792 -0.2255 -0.0236
  655MOL0     C88303   0.640   8.474   9.536  0.6717 -0.7194 -0.2720
  655MOL0     C88304   0.587   8.618   9.527  0.0037 -0.0944  0.5155
  655MOL0     C88305   0.489   8.627   9.412 -0.5484  0.0985 -0.5314
  655MOL0     C88306   0.484   8.773   9.354 -0.1409  1.2860  0.3073
  655MOL0     N88307   0.365   8.798   9.271  0.0563  0.4368 -0.3046
  655MOL0     C88308   0.315   8.696   9.192  0.3109 -0.3639  0.0406
  655MOL0     C88309   0.231   8.766   9.106  0.3924  0.1432  0.2649
  655MOL0     C88310   0.139   8.722   9.003  0.0520  0.6186  0.5438
  655MOL0     C88311   0.047   8.607   9.063 -0.1297  0.1881  0.0128
  655MOL0     C88312  -0.017   8.673   9.186  0.3778 -0.9923 -0.3406
  655MOL0     C88313  -0.130   8.583   9.247  0.0278 -0.7107  0.0636
  655MOL0     O88314  -0.244   8.572   9.163  0.3278  0.3309 -0.1715
  655MOL0     C88315  -0.337   8.676   9.153 -0.4822  0.1297  0.4516
  655MOL0     C88316  -0.349   8.786   9.242 -0.9046  0.3617  0.8774
  655MOL0     C88317  -0.442   8.886   9.220 -0.0645  0.7430 -0.2714
  655MOL0     C88318  -0.452   8.984   9.332 -0.1871  0.7486  0.4992
  655MOL0     C88319  -0.538   8.872   9.112 -0.5817 -1.0963  0.0810
  655MOL0     C88320  -0.649   8.973   9.085 -0.9716  0.2967  0.4001
  655MOL0     O88321  -0.744   8.933   8.996  0.1027  0.3353  0.1074
  655MOL0     C88322  -0.862   9.001   8.989 -0.4185  0.5085 -0.2964
  655MOL0     C88323  -0.874   9.133   8.949 -0.0777 -0.7812 -0.2282
  655MOL0     C88324  -1.002   9.193   8.939  0.3865  0.6907  0.3305
  655MOL0     C88325  -1.116   9.112   8.957 -0.7656 -0.2373 -0.1180
  655MOL0     O88326  -1.240   9.160   8.930 -0.4614  0.0179  0.0043
  655MOL0     C88327  -1.267   9.196   8.792  0.7915  0.3167 -0.3366
  655MOL0     C88328  -1.406   9.140   8.746 -0.6509  0.2069 -0.5665
  655MOL0     C88329  -1.519   9.195   8.833  0.3198 -0.7455 -0.5200
  655MOL0     C88330  -1.643   9.171   8.753  0.6450  0.5370 -0.0163
  655MOL0     C88331  -1.774   9.205   8.829  0.4526  0.3003 -0.8987
  655MOL0     C88332  -1.891   9.155   8.749  0.5971 -0.1611 -0.2539
  655MOL0     C88333  -2.021   9.159   8.818 -0.1256  0.0379 -0.6497
  655MOL0     C88334  -2.046   9.049   8.924  0.2222 -0.5100  0.3319
  655MOL0    Cl88335  -2.213   9.081   9.001  0.1559  0.0776  0.0382
  655MOL0     C88336  -1.108   8.980   8.998  0.3444  0.0228 -0.2654
  655MOL0     C88337  -0.979   8.919   9.010  0.5097  0.0212  1.0381
  655MOL0     O88338  -0.651   9.072   9.156 -0.2351 -0.1064 -0.6456
  655MOL0     C88339  -0.534   8.754   9.034  0.0408 -0.4360  0.2007
  655MOL0     C88340  -0.433   8.658   9.051  0.0169  0.5613  0.2379
  655MOL0     N88341   0.234   8.899   9.145 -0.3204  0.3331 -0.3807
  655MOL0     N88342   0.311   8.912   9.243  0.0426  0.4432 -0.5417
  655MOL0     C88343   0.833   7.798   9.728  0.8635 -0.1820  0.2887
  655MOL0     C88344   0.953   7.718   9.744  0.5661 -0.7616 -0.1268
  655MOL0     C88345   1.398   7.614   9.908  0.2616 -0.8935  0.2743
  655MOL0     C88346   1.389   7.492   9.849 -0.4116  0.0106 -0.2652
  655MOL0     C88347   1.484   7.397   9.862  0.0089  0.8388 -0.8474
  655MOL0     C88348   1.607   7.422   9.926 -1.0550 -0.4080  0.3842
  655MOL0     O88349   1.694   7.316   9.933  0.4372 -0.3343  0.0657
  655MOL0     C88350   1.829   7.342   9.897  0.0699 -1.2043 -0.4220
  655MOL0     C88351   1.892   7.209   9.846 -0.6755  0.3558  0.4212
  655MOL0     C88352   2.045   7.223   9.824  0.6886  0.5134 -0.5438
  655MOL0     C88353   2.080   7.103   9.736  0.9909  0.3927 -0.3015
  655MOL0     C88354   2.224   7.074   9.727  1.3132  0.2387 -0.4758
  655MOL0     C88355   2.347   7.048   9.724  0.3661  0.1480 -0.8310
  655MOL0     C88356   1.630   7.549   9.982  0.3321  0.2988 -0.5655
  655MOL0     C88357   1.525   7.644   9.972  0.1857 -0.8846 -0.5632
  655MOL0     H88358   1.097   7.911   9.980  2.3142 -0.7479 -1.1253
  655MOL0     H88359   0.881   8.048   9.933  0.3919 -0.4853 -1.5206
  655MOL0     H88360   0.670   7.972   9.574  0.3166  0.8466 -1.3818
  655MOL0     H88361   0.553   7.909   9.690 -1.5427  2.0913 -0.5566
  655MOL0     H88362   0.456   8.112   9.588  1.0988 -1.6845 -0.8634
  655MOL0     H88363   0.495   8.136   9.767 -0.4697 -0.2865 -0.1701
  655MOL0     H88364   0.704   8.259   9.701 -2.2420 -1.5109  2.4508
  655MOL0     H88365   0.688   8.212   9.538  1.0596 -1.4880  0.6815
  655MOL0     H88366   0.448   8.355   9.569 -0.5874 -1.6499  3.1311
  655MOL0     H88367   0.521   8.421   9.708 -1.9184  2.0685 -1.5797
  655MOL0     H88368   0.726   8.476   9.603  0.2173 -0.0588  0.3087
  655MOL0     H88369   0.682   8.433   9.443  0.0428 -0.5148 -0.6516
  655MOL0     H88370   0.555   8.664   9.621 -1.1085  1.2602 -0.4855
  655MOL0     H88371   0.673   8.679   9.500 -0.8127  0.9913  0.3159
  655MOL0     H88372   0.509   8.555   9.332  3.1769 -0.2528  0.5235
  655MOL0     H88373   0.395   8.591   9.454  0.4093 -0.2029  1.5199
  655MOL0     H88374   0.577   8.805   9.305  0.5874 -1.0931  0.0425
  655MOL0     H88375   0.468   8.838   9.441  0.9815  1.5682  0.3185
  655MOL0     H88376   0.335   8.590   9.194 -3.2972 -1.1389  1.8465
  655MOL0     H88377   0.080   8.803   8.959  2.1720  1.1160 -1.6530
  655MOL0     H88378   0.202   8.676   8.925  0.1195 -1.9915  2.0332
  655MOL0     H88379   0.109   8.521   9.090 -0.9238  0.0066  1.3887
  655MOL0     H88380  -0.028   8.571   8.991 -1.0636  0.3515  0.8759
  655MOL0     H88381  -0.067   8.767   9.164 -1.5788 -1.3663  2.0386
  655MOL0     H88382   0.049   8.701   9.269  1.9953 -1.7579 -1.3081
  655MOL0     H88383  -0.161   8.614   9.347  0.3341 -0.2646  0.0234
  655MOL0     H88384  -0.086   8.483   9.252  1.1905 -0.1969  0.3889
  655MOL0     H88385  -0.287   8.788   9.330 -3.0050 -0.3451  2.4589
  655MOL0     H88386  -0.554   9.019   9.352 -2.0052 -2.9977 -1.0873
  655MOL0     H88387  -0.420   8.936   9.425 -0.5571  2.0715  1.3434
  655MOL0     H88388  -0.390   9.066   9.295  0.0543  0.2051 -0.3267
  655MOL0     H88389  -0.793   9.199   8.921  0.0677 -0.8669 -0.0106
  655MOL0     H88390  -1.011   9.296   8.908 -2.0915  0.9945  1.7566
  655MOL0     H88391  -1.257   9.304   8.775  1.3177  0.3367  0.0666
  655MOL0     H88392  -1.202   9.147   8.719  0.6798  2.2948 -1.8515
  655MOL0     H88393  -1.409   9.169   8.641 -1.8237 -1.8544 -1.1372
  655MOL0     H88394  -1.397   9.033   8.765  1.2638  0.8420  3.1680
  655MOL0     H88395  -1.517   9.300   8.862  0.8437 -0.7669 -0.4753
  655MOL0     H88396  -1.526   9.141   8.928 -1.0767  3.1533  1.8144
  655MOL0     H88397  -1.638   9.218   8.654 -1.8571  0.4297 -0.2540
  655MOL0     H88398  -1.642   9.064   8.732  0.5015  0.6313 -0.5169
  655MOL0     H88399  -1.783   9.312   8.848 -0.1670  0.1974 -0.6022
  655MOL0     H88400  -1.768   9.151   8.923  2.9848 -1.5971 -2.0237
  655MOL0     H88401  -1.890   9.219   8.660 -1.3114  0.8082  0.3625
  655MOL0     H88402  -1.873   9.049   8.726  0.0613 -0.4205  0.4995
  655MOL0     H88403  -2.113   9.159   8.759  2.1276 -0.5882 -4.4230
  655MOL0     H88404  -2.019   9.252   8.877  0.4065  0.4580 -1.3281
  655MOL0     H88405  -1.964   9.046   8.997  0.7526  1.0365 -0.1553
  655MOL0     H88406  -2.049   8.948   8.883  1.6496 -0.6378  0.4706
  655MOL0     H88407  -1.200   8.921   9.001 -0.6549  1.5711  1.0790
  655MOL0     H88408  -0.968   8.816   9.042  2.1240  0.1779  1.0442
  655MOL0     H88409  -0.609   8.723   8.962  1.7196 -0.3347 -1.6827
  655MOL0     H88410  -0.427   8.565   8.996  1.2456  0.3440  0.7063
  655MOL0     H88411   0.758   7.755   9.663 -0.9465  0.7370  1.6878
  655MOL0     H88412   0.966   7.629   9.684 -3.9889 -0.6272 -1.6869
  655MOL0     H88413   1.292   7.461   9.811 -1.8053 -0.2120  3.1943
  655MOL0     H88414   1.461   7.295   9.834 -0.6547  1.1913 -1.6272
  655MOL0     H88415   1.842   7.426   9.828  2.5742  0.5959  2.0191
  655MOL0     H88416   1.870   7.382   9.990 -3.0669  2.3866 -0.3746
  655MOL0     H88417   1.848   7.179   9.751  0.3884 -0.8284  0.2748
  655MOL0     H88418   1.879   7.128   9.919 -0.7273  0.6911  0.7843
  655MOL0     H88419   2.092   7.215   9.923 -1.3087 -0.8387  0.3630
  655MOL0     H88420   2.076   7.319   9.782  0.4575  0.5815 -0.5602
  655MOL0     H88421   2.041   7.127   9.636 -1.9517 -0.0002  0.6562
  655MOL0     H88422   2.034   7.009   9.767  1.4128  0.4823  0.6221
  655MOL0     H88423   2.451   7.044   9.698  0.7664 -1.0892  0.8480
  655MOL0     H88424   1.721   7.566  10.040 -1.7784  1.5782  2.6416
  655MOL0     H88425   1.534   7.743  10.016 -0.4037 -1.8696  1.9280
  656MOL0     O88426   4.353   2.574   1.821  0.2753  0.4260  0.6628
  656MOL0     C88427   4.409   2.539   1.719  0.1575  0.3886 -0.1446
  656MOL0     O88428   4.357   2.460   1.617 -0.4131 -0.4257 -0.2494
  656MOL0     C88429   4.235   2.411   1.635 -0.4932  0.6635 -0.2184
  656MOL0     C88430   4.129   2.500   1.639  1.1257  0.1260 -0.4851
  656MOL0     C88431   3.998   2.450   1.649  0.2729 -0.1564 -1.2651
  656MOL0     C88432   3.969   2.315   1.666  0.5335 -0.3054 -0.2897
  656MOL0     O88433   3.851   2.256   1.667  0.0383 -0.1908  0.7601
  656MOL0     C88434   3.732   2.318   1.699 -0.3907 -0.3797  0.1290
  656MOL0     C88435   3.731   2.394   1.828  0.2742 -0.1394  0.1474
  656MOL0     C88436   3.787   2.316   1.949 -0.2816  0.4760 -0.0854
  656MOL0     C88437   3.752   2.402   2.072 -0.2804 -0.1391  0.4219
  656MOL0     C88438   3.619   2.362   2.136  0.1337  0.6468  0.0963
  656MOL0     C88439   3.644   2.242   2.225 -0.2300  1.0156  0.1253
  656MOL0     C88440   3.513   2.199   2.290  0.5365 -0.2570 -0.2283
  656MOL0     C88441   3.531   2.080   2.384 -0.0261  0.5381  0.5014
  656MOL0     N88442   3.410   2.051   2.459 -0.6157 -0.0632  0.5540
  656MOL0     C88443   3.308   1.966   2.414  0.4694 -0.1728 -1.0622
  656MOL0     C88444   3.209   1.977   2.510 -0.5038  0.6512 -1.3952
  656MOL0     C88445   3.083   1.902   2.521  0.6945  0.1932 -0.1676
  656MOL0     C88446   2.959   1.997   2.536  0.2894  0.6205  0.2921
  656MOL0     C88447   2.840   1.958   2.436 -0.0559 -0.6939 -0.5466
  656MOL0     C88448   2.722   2.063   2.435  0.0776 -0.5137  0.6927
  656MOL0     O88449   2.630   2.014   2.344  0.2174  0.1389  0.4527
  656MOL0     C88450   2.507   2.075   2.337 -0.4314 -0.5457 -0.3952
  656MOL0     C88451   2.472   2.194   2.412  0.5906  0.2296  0.5860
  656MOL0     C88452   2.347   2.249   2.401  1.2496 -0.2877  0.3364
  656MOL0     C88453   2.321   2.380   2.480  1.0637 -0.0949 -1.1360
  656MOL0     C88454   2.245   2.186   2.321  0.5058 -0.3600 -0.0012
  656MOL0     C88455   2.098   2.225   2.306  0.2009  0.3336  0.3496
  656MOL0     O88456   2.018   2.163   2.216 -0.1530  0.3321  0.2623
  656MOL0     C88457   1.887   2.181   2.220  0.0189 -0.1270 -0.5913
  656MOL0     C88458   1.814   2.086   2.282 -0.4835  0.7149  1.2514
  656MOL0     C88459   1.672   2.085   2.273 -0.1473  0.2052  0.6320
  656MOL0     C88460   1.605   2.183   2.206  0.3586  0.1291  0.3604
  656MOL0     O88461   1.471   2.172   2.190 -0.2676 -0.3381  0.3091
  656MOL0     C88462   1.411   2.261   2.287 -0.1254 -0.4213  0.3600
  656MOL0     C88463   1.253   2.253   2.278  0.0383 -0.1570  0.1443
  656MOL0     C88464   1.177   2.350   2.372 -0.1763  0.0299 -0.9295
  656MOL0     C88465   1.032   2.311   2.395 -0.4348 -0.1216  0.4858
  656MOL0     C88466   0.956   2.386   2.504 -0.6146 -0.5455 -0.2764
  656MOL0     C88467   0.803   2.395   2.486  0.0808 -0.6940 -0.0145
  656MOL0     C88468   0.721   2.464   2.599 -0.3163  0.6650 -0.2051
  656MOL0     C88469   0.593   2.538   2.544  0.1699  0.1266 -0.6903
  656MOL0    Cl88470   0.460   2.442   2.481 -0.5319 -0.2218 -0.0099
  656MOL0     C88471   1.683   2.290   2.152  0.8616 -0.0080  0.1378
  656MOL0     C88472   1.823   2.284   2.150 -0.5029  1.0380  0.0961
  656MOL0     O88473   2.057   2.312   2.384  0.1117  0.0274 -0.4862
  656MOL0     C88474   2.286   2.077   2.240 -0.0870  0.3010  0.3015
  656MOL0     C88475   2.406   2.017   2.260 -0.3835 -0.2314 -0.2091
  656MOL0     N88476   3.267   2.061   2.603  0.1411 -0.0707 -0.4625
  656MOL0     N88477   3.380   2.109   2.567  0.0309  0.1539 -0.2107
  656MOL0     C88478   4.083   2.228   1.680 -0.3592 -0.1479  0.1876
  656MOL0     C88479   4.218   2.277   1.665 -0.7453 -0.2593  0.1790
  656MOL0     C88480   4.560   2.577   1.713  0.1932 -0.2152 -0.5980
  656MOL0     C88481   4.639   2.535   1.609 -0.4310 -0.1125 -0.4163
  656MOL0     C88482   4.775   2.556   1.602  0.5644 -0.2233  0.0675
  656MOL0     C88483   4.846   2.619   1.705 -0.4514  0.6752  0.0155
  656MOL0     O88484   4.981   2.623   1.718 -0.3995 -0.3331  0.0981
  656MOL0     C88485   5.059   2.590   1.612 -0.3413  0.1837 -0.4895
  656MOL0     C88486   5.199   2.587   1.661 -0.7624  0.7472  0.1072
  656MOL0     C88487   5.299   2.584   1.546 -0.3483  0.7074 -0.2755
  656MOL0     C88488   5.338   2.450   1.499 -0.3436  1.0316  1.1252
  656MOL0     C88489   5.458   2.404   1.566 -0.5970  0.4180 -0.0783
  656MOL0     C88490   5.562   2.363   1.607  0.1721  0.1070 -0.7064
  656MOL0     C88491   4.769   2.655   1.818  0.2400 -0.3612 -0.6893
  656MOL0     C88492   4.633   2.631   1.825  1.3828 -0.2451 -0.3109
  656MOL0     H88493   4.149   2.602   1.608  1.6855 -0.4828 -2.2414
  656MOL0     H88494   3.914   2.517   1.637  0.5983  0.4330 -0.3606
  656MOL0     H88495   3.703   2.371   1.607  0.8276  1.0303  0.5400
  656MOL0     H88496   3.660   2.236   1.711  0.2536 -1.1523 -1.0419
  656MOL0     H88497   3.778   2.492   1.818 -1.1819  0.6899  1.0115
  656MOL0     H88498   3.627   2.409   1.859  1.0950  2.5016  1.9723
  656MOL0     H88499   3.749   2.214   1.955  1.1234 -0.1569 -1.4077
  656MOL0     H88500   3.893   2.304   1.928 -0.5290  0.3330 -1.3183
  656MOL0     H88501   3.839   2.396   2.139  0.8972  0.4084 -0.9901
  656MOL0     H88502   3.746   2.509   2.049  1.9701  0.5319  2.4946
  656MOL0     H88503   3.575   2.441   2.198  2.1567  3.2139 -1.4837
  656MOL0     H88504   3.547   2.338   2.057  0.4862  0.2409 -0.1041
  656MOL0     H88505   3.689   2.158   2.170 -2.4831 -1.1905  1.4536
  656MOL0     H88506   3.730   2.267   2.288  1.2680 -1.2549 -0.8700
  656MOL0     H88507   3.461   2.279   2.343 -0.7577 -0.0174 -1.7645
  656MOL0     H88508   3.443   2.168   2.211 -0.2381 -0.4192  0.5072
  656MOL0     H88509   3.609   2.100   2.458 -2.1234  1.6585  2.5437
  656MOL0     H88510   3.560   2.000   2.315 -0.3068  2.0597 -1.4916
  656MOL0     H88511   3.306   1.908   2.323 -1.1830  1.3333 -2.0408
  656MOL0     H88512   3.067   1.853   2.425 -0.2704  2.1342 -1.0358
  656MOL0     H88513   3.079   1.830   2.604  1.4462  0.3108 -0.0245
  656MOL0     H88514   2.982   2.101   2.513  0.5667  0.2198 -1.3857
  656MOL0     H88515   2.922   1.985   2.638 -1.1758 -1.5508 -0.4402
  656MOL0     H88516   2.793   1.864   2.464 -1.2013 -0.9409 -3.0405
  656MOL0     H88517   2.885   1.958   2.336 -1.1585 -1.4932 -1.0573
  656MOL0     H88518   2.762   2.153   2.389 -2.0572  0.0672 -0.1540
  656MOL0     H88519   2.693   2.079   2.539  0.2731 -1.0911  0.8428
  656MOL0     H88520   2.546   2.248   2.470  0.3401  0.3888  0.7600
  656MOL0     H88521   2.263   2.357   2.570  1.2385 -0.3881 -1.0954
  656MOL0     H88522   2.418   2.424   2.506  0.7482  0.5935 -1.0991
  656MOL0     H88523   2.269   2.454   2.418  1.2192 -0.7397 -2.0657
  656MOL0     H88524   1.871   2.001   2.318  1.5530  0.4768 -2.1274
  656MOL0     H88525   1.620   1.996   2.307  2.0238 -2.5416 -2.5872
  656MOL0     H88526   1.440   2.223   2.385 -1.9409 -3.2832 -0.0934
  656MOL0     H88527   1.435   2.367   2.275 -0.9634 -0.2514  0.1200
  656MOL0     H88528   1.232   2.285   2.175  1.4800 -1.9157 -0.7570
  656MOL0     H88529   1.214   2.153   2.302 -0.9389  0.2188  0.1519
  656MOL0     H88530   1.170   2.448   2.323 -0.4758  0.4008 -0.1652
  656MOL0     H88531   1.227   2.352   2.469 -0.2861 -1.6418 -0.8176
  656MOL0     H88532   0.980   2.319   2.300  0.8781 -1.8547 -0.4376
  656MOL0     H88533   1.026   2.208   2.432  1.0260  0.2080  1.7565
  656MOL0     H88534   0.995   2.488   2.506 -0.9686 -0.4107 -0.1279
  656MOL0     H88535   0.972   2.348   2.605  1.2324  0.2912 -0.2091
  656MOL0     H88536   0.797   2.462   2.399  0.9093  2.4695  2.1919
  656MOL0     H88537   0.777   2.294   2.454 -0.4156 -0.1472 -1.4164
  656MOL0     H88538   0.789   2.528   2.657 -0.4350  0.9149 -0.3390
  656MOL0     H88539   0.698   2.373   2.655 -0.8038 -0.8686 -2.7559
  656MOL0     H88540   0.624   2.616   2.474  0.8811  2.3568  1.9443
  656MOL0     H88541   0.560   2.591   2.634 -0.7837 -0.8964 -0.4172
  656MOL0     H88542   1.626   2.356   2.088 -3.1484 -0.8483  2.5265
  656MOL0     H88543   1.886   2.344   2.085  0.3223 -1.0914 -1.1668
  656MOL0     H88544   2.220   2.018   2.176  3.0998 -3.7749  0.3822
  656MOL0     H88545   2.420   1.921   2.211 -0.9543 -1.5892  2.1356
  656MOL0     H88546   4.068   2.123   1.701 -0.5413 -0.3136 -0.7399
  656MOL0     H88547   4.312   2.224   1.665  1.0039  2.5920 -1.7006
  656MOL0     H88548   4.594   2.482   1.526 -2.1209  2.8097 -1.5072
  656MOL0     H88549   4.822   2.524   1.509 -1.2189 -0.7772 -0.7116
  656MOL0     H88550   5.036   2.492   1.568  2.1661 -1.0010  0.6704
  656MOL0     H88551   5.036   2.672   1.543 -3.0785 -1.2608 -1.4776
  656MOL0     H88552   5.215   2.496   1.721  1.1882  0.0802 -1.3097
  656MOL0     H88553   5.222   2.677   1.719 -1.3291 -0.6003  2.6016
  656MOL0     H88554   5.392   2.636   1.570 -0.0577  0.1282 -0.1193
  656MOL0     H88555   5.254   2.635   1.460 -2.0689 -1.6812 -0.9070
  656MOL0     H88556   5.356   2.447   1.392 -0.6925 -0.6940  1.0810
  656MOL0     H88557   5.255   2.379   1.514 -1.6696  2.4914  0.9319
  656MOL0     H88558   5.660   2.324   1.630 -0.2698 -2.4415 -2.6679
  656MOL0     H88559   4.812   2.691   1.911  0.2020 -1.0058 -0.4219
  656MOL0     H88560   4.582   2.655   1.918  0.1163 -2.3460 -0.3910
  657MOL0     O88561  10.216  10.635   0.026 -0.2255 -0.5997 -0.4431
  657MOL0     C88562  10.221  10.521   0.067  0.2343 -0.1909 -0.4081
  657MOL0     O88563  10.107  10.450   0.081 -0.0655  0.3773  0.3015
  657MOL0     C88564   9.984  10.519   0.084 -0.8549  0.4196 -0.2417
  657MOL0     C88565   9.914  10.516   0.200  0.0221  0.2461 -0.8227
  657MOL0     C88566   9.789  10.580   0.219 -0.0694  0.1314  0.4265
  657MOL0     C88567   9.719  10.640   0.106  0.6032 -0.6501 -0.1474
  657MOL0     O88568   9.599  10.702   0.114  0.2398  0.0500  0.0960
  657MOL0     C88569   9.502  10.640   0.190  0.5273  0.2270 -0.8195
  657MOL0     C88570   9.374  10.712   0.210  0.4749 -1.4937  0.7245
  657MOL0     C88571   9.328  10.785   0.085 -0.0054 -0.2069  0.4911
  657MOL0     C88572   9.183  10.831   0.084 -0.2463 -1.0223 -0.2488
  657MOL0     C88573   9.124  10.844  -0.058  0.4485  0.1245  1.2031
  657MOL0     C88574   8.975  10.857  -0.049  0.4090  0.5821 -0.5857
  657MOL0     C88575   8.910  10.861  -0.186 -0.0502  0.1320  0.1753
  657MOL0     C88576   8.760  10.893  -0.186  0.4633 -0.2339  0.1443
  657MOL0     N88577   8.687  10.780  -0.128  0.1329 -0.6297 -0.2173
  657MOL0     C88578   8.630  10.776   0.000  0.0700  0.1069 -0.0354
  657MOL0     C88579   8.558  10.654   0.002 -0.3761  0.0445  0.0970
  657MOL0     C88580   8.492  10.589   0.119  0.3466  0.0485  0.7676
  657MOL0     C88581   8.338  10.622   0.123 -0.3797  0.4200 -0.1592
  657MOL0     C88582   8.330  10.775   0.120  0.8924  0.0721  0.0065
  657MOL0     C88583   8.195  10.835   0.153  0.2713 -0.2458  0.6561
  657MOL0     O88584   8.104  10.819   0.043  0.3532 -0.0451  0.1549
  657MOL0     C88585   7.969  10.861   0.052 -0.5675 -0.9182 -0.4665
  657MOL0     C88586   7.937  10.967   0.139  0.2309  0.0153 -0.0373
  657MOL0     C88587   7.807  11.019   0.134  0.2183 -1.1417 -0.2418
  657MOL0     C88588   7.769  11.139   0.227 -0.3639 -0.1115  0.7667
  657MOL0     C88589   7.711  10.957   0.050 -0.6592  0.1394 -0.0689
  657MOL0     C88590   7.569  10.987   0.057  0.2846  0.6084 -0.6154
  657MOL0     O88591   7.523  11.094  -0.009  0.0162  0.4490  0.3386
  657MOL0     C88592   7.398  11.145   0.014  0.5139 -0.5517 -0.0169
  657MOL0     C88593   7.358  11.198   0.135  0.3325 -0.5074 -1.3911
  657MOL0     C88594   7.228  11.245   0.163  0.5310  0.6108 -0.3926
  657MOL0     C88595   7.132  11.257   0.059 -0.4973 -0.6469 -0.1713
  657MOL0     O88596   7.001  11.299   0.068  0.4188  0.4503 -0.3013
  657MOL0     C88597   6.944  11.298   0.199 -0.3385  0.0022  0.0684
  657MOL0     C88598   6.791  11.305   0.185 -0.3985  0.7033 -0.5450
  657MOL0     C88599   6.738  11.277   0.327  0.1380  0.6075  0.4128
  657MOL0     C88600   6.607  11.191   0.340 -0.1805 -0.2363 -0.1494
  657MOL0     C88601   6.541  11.211   0.471  0.4358 -0.0480  1.0655
  657MOL0     C88602   6.381  11.195   0.469 -0.1690 -0.2796 -0.3552
  657MOL0     C88603   6.319  11.213   0.611 -0.0377  0.9668 -0.7674
  657MOL0     C88604   6.358  11.343   0.687  0.4836 -0.6229 -0.1386
  657MOL0    Cl88605   6.231  11.391   0.800 -0.1081  0.3404  0.2949
  657MOL0     C88606   7.172  11.203  -0.061  0.0101 -0.0641  0.5736
  657MOL0     C88607   7.305  11.166  -0.092 -1.5316  1.0472 -0.7118
  657MOL0     O88608   7.512  10.919   0.144 -1.6852  0.0673 -0.2959
  657MOL0     C88609   7.744  10.851  -0.030  0.7878 -0.5293  0.1124
  657MOL0     C88610   7.880  10.800  -0.031  0.0787 -0.0691 -0.6101
  657MOL0     N88611   8.557  10.605  -0.131 -0.2974 -0.0390 -0.0130
  657MOL0     N88612   8.636  10.682  -0.204  0.4654 -1.1213 -0.2528
  657MOL0     C88613   9.788  10.632  -0.018  0.5984  0.3757 -0.5001
  657MOL0     C88614   9.923  10.587  -0.027  0.6341 -0.1773 -0.3420
  657MOL0     C88615  10.354  10.456   0.108 -0.1955 -0.1606  1.1914
  657MOL0     C88616  10.472  10.514   0.059 -0.7757  0.4451  0.6887
  657MOL0     C88617  10.600  10.459   0.084  0.0778  0.0756 -0.8479
  657MOL0     C88618  10.610  10.356   0.176 -0.4100  0.2477 -0.6509
  657MOL0     O88619  10.744  10.310   0.206  0.3896 -0.3410  0.5505
  657MOL0     C88620  10.774  10.207   0.304 -0.7856  0.0480  0.7671
  657MOL0     C88621  10.801  10.256   0.446 -0.8054  0.7871 -0.7428
  657MOL0     C88622  10.800  10.130   0.546 -0.1733 -0.3032 -1.1871
  657MOL0     C88623  10.840  10.183   0.685 -0.5785 -0.5142 -0.3492
  657MOL0     C88624  10.749  10.287   0.741  0.2335 -0.6115  0.6350
  657MOL0     C88625  10.650  10.341   0.792  0.3025 -0.4922 -0.1147
  657MOL0     C88626  10.493  10.293   0.220  1.0043 -0.0759 -0.4523
  657MOL0     C88627  10.360  10.342   0.190  0.4754 -0.3665  0.4549
  657MOL0     H88628   9.950  10.458   0.285  2.0172  1.4638 -0.7691
  657MOL0     H88629   9.745  10.580   0.319  2.2696  0.3369  1.5396
  657MOL0     H88630   9.478  10.546   0.139  2.2503 -0.4652 -0.4328
  657MOL0     H88631   9.539  10.611   0.289  1.5949 -0.3037 -1.3674
  657MOL0     H88632   9.290  10.659   0.255  1.2149 -2.1519  1.3632
  657MOL0     H88633   9.402  10.795   0.276  0.6614 -0.6631 -0.3615
  657MOL0     H88634   9.386  10.871   0.050 -4.9263  2.7364 -1.4549
  657MOL0     H88635   9.326  10.698   0.017 -1.8165 -1.8469  2.4857
  657MOL0     H88636   9.126  10.759   0.143  1.9434 -2.6058  0.0664
  657MOL0     H88637   9.170  10.924   0.139 -3.7506 -2.5655  1.8746
  657MOL0     H88638   9.162  10.928  -0.116 -2.5088  0.5701 -0.2965
  657MOL0     H88639   9.148  10.750  -0.108 -0.9993 -0.4220  1.4764
  657MOL0     H88640   8.931  10.784   0.019  2.7928  0.2035  0.6468
  657MOL0     H88641   8.954  10.957  -0.010 -1.1472 -0.7283  2.1926
  657MOL0     H88642   8.943  10.952  -0.236 -1.0465  2.0712  2.8491
  657MOL0     H88643   8.928  10.771  -0.246  0.0616 -0.1250  0.5960
  657MOL0     H88644   8.724  10.918  -0.286  0.1906 -2.0234 -0.2233
  657MOL0     H88645   8.740  10.985  -0.130 -0.0087  0.5133 -1.2059
  657MOL0     H88646   8.656  10.848   0.077  0.8902  0.1086 -0.3069
  657MOL0     H88647   8.526  10.487   0.099  1.7261  0.8297 -1.1843
  657MOL0     H88648   8.527  10.616   0.219 -0.4348 -1.8896  1.6283
  657MOL0     H88649   8.293  10.590   0.218 -0.3600  0.0995 -0.2558
  657MOL0     H88650   8.287  10.573   0.040 -0.2090  0.1545 -0.1082
  657MOL0     H88651   8.356  10.808   0.019  1.8948 -0.9725 -0.1017
  657MOL0     H88652   8.403  10.827   0.182  1.2620 -1.1171  0.5899
  657MOL0     H88653   8.209  10.942   0.176 -0.1629 -0.1973  0.7010
  657MOL0     H88654   8.158  10.788   0.245  0.5865  1.3344  1.6513
  657MOL0     H88655   8.004  11.007   0.215  0.8708 -1.0520 -0.0205
  657MOL0     H88656   7.858  11.203   0.234 -1.3126  1.0881  2.3514
  657MOL0     H88657   7.691  11.205   0.189 -0.0749 -0.0672  0.2359
  657MOL0     H88658   7.739  11.104   0.326  1.1789  0.0770  1.3378
  657MOL0     H88659   7.428  11.197   0.218 -1.2463  1.8434  0.1086
  657MOL0     H88660   7.201  11.272   0.265  1.6825  3.3017 -0.7430
  657MOL0     H88661   6.976  11.207   0.252  0.1959 -0.5583 -1.1830
  657MOL0     H88662   6.977  11.382   0.261  1.3719 -0.1101 -0.6395
  657MOL0     H88663   6.750  11.397   0.143  1.0596  1.5303 -0.2194
  657MOL0     H88664   6.771  11.221   0.118  0.4669  0.1487 -0.1300
  657MOL0     H88665   6.723  11.378   0.367  3.6788  1.7894 -0.7570
  657MOL0     H88666   6.815  11.233   0.391  1.4558  3.6707  1.1468
  657MOL0     H88667   6.537  11.216   0.260 -0.1358  1.6280  0.3515
  657MOL0     H88668   6.643  11.088   0.332 -0.6636 -0.2833 -2.3383
  657MOL0     H88669   6.549  11.313   0.510 -0.5001  0.9917 -1.2857
  657MOL0     H88670   6.573  11.137   0.545 -2.0986 -2.7858 -0.3465
  657MOL0     H88671   6.324  11.267   0.409 -1.6511 -0.4997  0.7421
  657MOL0     H88672   6.363  11.097   0.422 -3.0482  1.5832 -3.6454
  657MOL0     H88673   6.338  11.122   0.669 -0.3785 -0.9323 -3.4807
  657MOL0     H88674   6.211  11.206   0.605  0.0905 -3.2018 -0.8335
  657MOL0     H88675   6.368  11.417   0.607 -0.7747 -0.0687  0.1837
  657MOL0     H88676   6.452  11.339   0.744 -0.7685  2.0030  2.3379
  657MOL0     H88677   7.096  11.201  -0.139 -0.4306 -0.8463  1.0066
  657MOL0     H88678   7.332  11.138  -0.193  1.7338 -0.4732  0.4510
  657MOL0     H88679   7.669  10.805  -0.094 -0.4979  1.5487  0.0280
  657MOL0     H88680   7.908  10.727  -0.106  2.7635 -0.2108  0.4325
  657MOL0     H88681   9.737  10.676  -0.103 -0.9638  0.4136  0.4139
  657MOL0     H88682   9.986  10.598  -0.115 -0.9549 -0.3912 -1.5597
  657MOL0     H88683  10.465  10.597  -0.010 -0.1236  0.6095  0.8118
  657MOL0     H88684  10.689  10.512   0.053  1.6527 -1.5646  0.6493
  657MOL0     H88685  10.694  10.134   0.294  0.8398 -1.6586 -0.5943
  657MOL0     H88686  10.868  10.169   0.262  0.0528 -0.1340  2.6861
  657MOL0     H88687  10.709  10.309   0.475 -2.6180 -2.0529 -0.9309
  657MOL0     H88688  10.887  10.323   0.456  0.4712 -0.6395 -1.6948
  657MOL0     H88689  10.878  10.060   0.514 -0.1007 -0.3188 -0.9741
  657MOL0     H88690  10.701  10.085   0.550 -0.5449  0.1266 -3.7322
  657MOL0     H88691  10.935  10.236   0.686 -1.0513  0.5078  3.2888
  657MOL0     H88692  10.856  10.099   0.754  1.2787 -1.4417 -1.8060
  657MOL0     H88693  10.555  10.377   0.826 -0.8330 -2.2634 -1.2517
  657MOL0     H88694  10.506  10.207   0.285  2.3520  1.2947  1.1811
  657MOL0     H88695  10.272  10.292   0.227 -3.0567  2.4942 -3.1329
  658MOL0     O88696   0.347   3.478   6.820  0.2319 -0.1931 -0.6735
  658MOL0     C88697   0.380   3.360   6.787  0.9812  0.0695 -0.0510
  658MOL0     O88698   0.316   3.246   6.830  0.5602  0.3711 -0.1080
  658MOL0     C88699   0.203   3.262   6.900 -0.3814 -0.5347  0.0295
  658MOL0     C88700   0.083   3.223   6.840 -0.4317 -0.2944 -0.6203
  658MOL0     C88701  -0.037   3.237   6.907 -0.6058  0.4015  0.0774
  658MOL0     C88702  -0.045   3.314   7.025  0.1492 -0.5747 -0.5061
  658MOL0     O88703  -0.159   3.346   7.095  0.1678  0.2999  0.1971
  658MOL0     C88704  -0.286   3.322   7.029  0.1824 -0.2470  0.0244
  658MOL0     C88705  -0.406   3.344   7.125  0.1231  0.2132 -0.2792
  658MOL0     C88706  -0.420   3.487   7.169  0.6519  0.1673 -0.6348
  658MOL0     C88707  -0.563   3.528   7.209  0.0519 -0.0623  0.4127
  658MOL0     C88708  -0.565   3.671   7.276 -0.1332  0.8936 -0.1633
  658MOL0     C88709  -0.715   3.708   7.306  0.2534 -0.3852 -0.0458
  658MOL0     C88710  -0.786   3.610   7.405  0.2311  0.6536 -0.1764
  658MOL0     C88711  -0.928   3.652   7.446  0.6143  0.5598  0.2590
  658MOL0     N88712  -1.027   3.642   7.334 -0.4510 -0.1058  0.2403
  658MOL0     C88713  -1.083   3.522   7.301  0.7311 -0.4995 -0.2338
  658MOL0     C88714  -1.171   3.563   7.200  0.8289  0.3634 -0.1951
  658MOL0     C88715  -1.272   3.467   7.148  0.0174 -0.7251  0.0653
  658MOL0     C88716  -1.409   3.531   7.163 -0.2881  0.1821 -0.2747
  658MOL0     C88717  -1.534   3.435   7.138  0.4835  0.2615  0.2078
  658MOL0     C88718  -1.521   3.298   7.198  0.6882  0.3094 -0.3255
  658MOL0     O88719  -1.477   3.208   7.095 -0.7531  0.1711  0.4715
  658MOL0     C88720  -1.570   3.116   7.043 -1.0359 -0.1232 -0.2149
  658MOL0     C88721  -1.702   3.152   7.020  0.1657  1.2370 -0.0894
  658MOL0     C88722  -1.796   3.060   6.964 -1.1859 -0.2397  0.3593
  658MOL0     C88723  -1.931   3.122   6.952  0.2883 -0.3982 -0.3878
  658MOL0     C88724  -1.755   2.924   6.927  0.3526 -0.0705  0.1149
  658MOL0     C88725  -1.843   2.817   6.865 -0.4450  0.9419 -0.2789
  658MOL0     O88726  -1.787   2.691   6.826 -0.7199 -0.3340 -0.1589
  658MOL0     C88727  -1.883   2.616   6.765 -1.1761 -0.2153  0.2452
  658MOL0     C88728  -1.932   2.515   6.843  0.1116  0.1936 -0.5844
  658MOL0     C88729  -2.049   2.448   6.811  0.3327 -0.1654  1.0540
  658MOL0     C88730  -2.099   2.469   6.680 -0.5346 -0.3281 -0.1272
  658MOL0     O88731  -2.220   2.428   6.629  0.3055 -0.2478 -0.9177
  658MOL0     C88732  -2.201   2.299   6.569  1.5538 -0.3234 -0.3466
  658MOL0     C88733  -2.338   2.236   6.526  0.3116  0.4369  0.3948
  658MOL0     C88734  -2.438   2.249   6.648  0.0304 -0.3363 -0.4924
  658MOL0     C88735  -2.581   2.204   6.603  0.3210  0.0068  0.1919
  658MOL0     C88736  -2.690   2.227   6.711 -0.4920 -0.0733  0.0314
  658MOL0     C88737  -2.834   2.204   6.659 -1.2384 -0.3807  0.1073
  658MOL0     C88738  -2.929   2.195   6.777  0.6556 -0.0927  0.1442
  658MOL0     C88739  -3.075   2.164   6.742 -0.0784  0.2216  0.0304
  658MOL0    Cl88740  -3.163   2.294   6.668 -0.2888 -0.1279 -0.5362
  658MOL0     C88741  -2.032   2.557   6.591  0.5167 -0.0342 -0.1112
  658MOL0     C88742  -1.924   2.632   6.630 -0.0743 -0.0522 -0.2935
  658MOL0     O88743  -1.960   2.839   6.861  0.7295  0.1372  0.2539
  658MOL0     C88744  -1.626   2.894   6.960 -0.1499 -0.3819 -0.7237
  658MOL0     C88745  -1.531   2.987   7.013  0.1629 -0.0806  0.0159
  658MOL0     N88746  -1.167   3.697   7.177  0.5120  0.1153  0.3582
  658MOL0     N88747  -1.072   3.744   7.258  0.0592  0.5378  0.6963
  658MOL0     C88748   0.071   3.363   7.084 -0.3722  0.4543 -0.7953
  658MOL0     C88749   0.197   3.322   7.026  0.3679  0.0065 -0.1119
  658MOL0     C88750   0.496   3.332   6.698  0.5062 -0.3015 -0.4608
  658MOL0     C88751   0.585   3.435   6.693 -0.0997 -0.6818  0.2386
  658MOL0     C88752   0.717   3.417   6.635  0.0834 -0.3853  0.2066
  658MOL0     C88753   0.750   3.291   6.583 -0.4358  0.0652 -0.0268
  658MOL0     O88754   0.862   3.257   6.508 -0.1571  0.1945  0.6712
  658MOL0     C88755   0.962   3.356   6.488 -0.4696 -0.2741 -0.5414
  658MOL0     C88756   1.071   3.303   6.394 -0.0847 -0.1764 -0.5113
  658MOL0     C88757   1.173   3.210   6.469  0.2028  0.2095 -0.7503
  658MOL0     C88758   1.288   3.171   6.377  0.2197 -0.5171 -0.7859
  658MOL0     C88759   1.365   3.279   6.321  0.3286  0.5832 -0.0018
  658MOL0     C88760   1.427   3.372   6.284  0.0754 -0.2378  0.2223
  658MOL0     C88761   0.656   3.189   6.595 -0.0251 -0.2189 -0.0810
  658MOL0     C88762   0.527   3.207   6.641 -0.2198 -0.5972 -0.8315
  658MOL0     H88763   0.088   3.160   6.752 -0.4407 -0.4575 -0.5046
  658MOL0     H88764  -0.122   3.184   6.865  0.4656 -0.8070 -0.6747
  658MOL0     H88765  -0.301   3.391   6.946  2.2218 -0.0377 -0.2195
  658MOL0     H88766  -0.278   3.222   6.986  0.9828 -0.7308  1.2412
  658MOL0     H88767  -0.493   3.307   7.070 -1.8554  1.6983  1.7113
  658MOL0     H88768  -0.395   3.275   7.209  0.8137 -1.3222 -1.5770
  658MOL0     H88769  -0.361   3.500   7.260 -1.1862  2.1986  0.3720
  658MOL0     H88770  -0.377   3.555   7.094  0.1648  1.8131  0.5139
  658MOL0     H88771  -0.624   3.531   7.118  0.0316  3.4044  0.4093
  658MOL0     H88772  -0.597   3.453   7.280  0.3557 -0.3053  0.3012
  658MOL0     H88773  -0.502   3.663   7.365  0.3538  0.5714 -0.5227
  658MOL0     H88774  -0.529   3.742   7.200 -0.1924  2.3838  1.1526
  658MOL0     H88775  -0.721   3.807   7.352 -0.0423 -1.0818  1.4763
  658MOL0     H88776  -0.769   3.712   7.211  0.1317  0.4824  0.0529
  658MOL0     H88777  -0.784   3.510   7.362  2.0124  0.9087 -0.7904
  658MOL0     H88778  -0.724   3.605   7.495 -1.4625  2.2995  1.1755
  658MOL0     H88779  -0.928   3.753   7.490  4.2686  1.2621 -0.9987
  658MOL0     H88780  -0.961   3.589   7.529 -0.7839  0.6991 -0.1632
  658MOL0     H88781  -1.076   3.428   7.354 -3.0203 -1.9809 -1.9684
  658MOL0     H88782  -1.239   3.451   7.045  0.3747 -0.1415  0.0878
  658MOL0     H88783  -1.272   3.371   7.202  0.0252  0.1683  1.7171
  658MOL0     H88784  -1.401   3.621   7.102  3.7588  1.4870  1.7844
  658MOL0     H88785  -1.428   3.566   7.265 -1.6356  0.0832 -0.4639
  658MOL0     H88786  -1.546   3.429   7.030  0.9946 -1.6226  0.2251
  658MOL0     H88787  -1.625   3.486   7.170 -0.2372  1.5270 -3.3730
  658MOL0     H88788  -1.624   3.272   7.225  1.1260  0.0984  1.2342
  658MOL0     H88789  -1.465   3.296   7.292 -0.5857 -1.1710  0.4580
  658MOL0     H88790  -1.739   3.252   7.040  2.2275  1.8094  1.1061
  658MOL0     H88791  -1.969   3.090   6.855  2.4369 -2.1287 -0.7320
  658MOL0     H88792  -2.009   3.081   7.017 -2.6370  2.4774 -1.8059
  658MOL0     H88793  -1.938   3.231   6.952  0.6816 -0.3636 -1.5898
  658MOL0     H88794  -1.908   2.509   6.949  2.0569 -1.8687 -1.0533
  658MOL0     H88795  -2.105   2.383   6.878 -0.7919  0.5874  0.8777
  658MOL0     H88796  -2.130   2.305   6.486  2.6309 -0.8154  0.5089
  658MOL0     H88797  -2.156   2.232   6.643  3.0764  3.1553  2.1477
  658MOL0     H88798  -2.386   2.284   6.440 -1.7234  0.2678  1.3770
  658MOL0     H88799  -2.328   2.129   6.506  0.7746  0.2191  1.6923
  658MOL0     H88800  -2.453   2.351   6.686 -0.2115 -0.4959 -0.1487
  658MOL0     H88801  -2.394   2.188   6.727  0.7639  0.2777 -0.4148
  658MOL0     H88802  -2.610   2.272   6.522 -1.4581  0.1255  0.8984
  658MOL0     H88803  -2.582   2.100   6.569 -2.1945  0.5581 -1.7222
  658MOL0     H88804  -2.691   2.331   6.743  0.4014  0.2493 -0.9195
  658MOL0     H88805  -2.658   2.160   6.791 -0.0786  0.0744 -0.0062
  658MOL0     H88806  -2.850   2.298   6.604  1.1563 -0.9661 -1.7618
  658MOL0     H88807  -2.848   2.123   6.588  0.3794 -0.1338 -0.5362
  658MOL0     H88808  -2.928   2.289   6.833  1.0135  1.5666 -2.4706
  658MOL0     H88809  -2.897   2.114   6.843  2.0882  0.3283  0.0009
  658MOL0     H88810  -3.128   2.135   6.833 -0.3875  0.1834 -0.1599
  658MOL0     H88811  -3.077   2.076   6.676  2.2655 -0.2986  0.5605
  658MOL0     H88812  -2.085   2.568   6.497 -1.2533 -1.6296  0.6194
  658MOL0     H88813  -1.886   2.699   6.554 -0.9913  0.3495 -0.4056
  658MOL0     H88814  -1.584   2.801   6.920  0.6062 -0.6831  0.7034
  658MOL0     H88815  -1.428   2.954   7.025  0.4700  0.7798 -0.1988
  658MOL0     H88816   0.074   3.413   7.180  3.2723  2.0632 -1.5672
  658MOL0     H88817   0.293   3.356   7.064  0.7389  1.1344 -1.9153
  658MOL0     H88818   0.560   3.534   6.729 -0.0610  0.5683 -2.8436
  658MOL0     H88819   0.790   3.498   6.637 -0.7325  0.4315 -1.3691
  658MOL0     H88820   0.923   3.451   6.449  0.1545  0.8788  1.4663
  658MOL0     H88821   0.992   3.388   6.588 -0.5410 -0.0663 -0.5844
  658MOL0     H88822   1.122   3.379   6.335  2.5158 -1.1026  0.4058
  658MOL0     H88823   1.019   3.251   6.313 -0.6711 -0.6837  0.1717
  658MOL0     H88824   1.120   3.126   6.515 -1.4120  0.8103 -1.4302
  658MOL0     H88825   1.219   3.258   6.556  0.4885 -1.7573  0.2485
  658MOL0     H88826   1.250   3.110   6.294 -4.4392  1.4487 -0.4030
  658MOL0     H88827   1.354   3.107   6.437  0.5098  1.5463  1.2053
  658MOL0     H88828   1.485   3.448   6.236 -2.9982  1.2138 -1.4737
  658MOL0     H88829   0.671   3.092   6.551  0.6845  1.2151 -3.2742
  658MOL0     H88830   0.458   3.124   6.642 -1.2022  0.2009  0.0353
  659MOL0     O88831  11.289   7.796  11.150  0.0440  0.7057 -0.4845
  659MOL0     C88832  11.306   7.915  11.153 -0.0028 -0.5244  0.6032
  659MOL0     O88833  11.211   8.011  11.150  0.4830 -0.0023  0.7013
  659MOL0     C88834  11.076   7.991  11.107 -0.1092 -0.6094  0.4639
  659MOL0     C88835  11.028   7.873  11.047  0.0036 -0.1007 -0.3426
  659MOL0     C88836  10.906   7.854  11.011  0.1018  0.4492 -0.0096
  659MOL0     C88837  10.807   7.953  11.039  0.8618 -0.4295  0.1647
  659MOL0     O88838  10.668   7.943  11.010  0.0514 -0.1171  0.3623
  659MOL0     C88839  10.613   7.847  10.917  0.1736  0.1116  0.2536
  659MOL0     C88840  10.456   7.839  10.929  0.3137  0.7330 -0.7327
  659MOL0     C88841  10.397   7.980  10.966  0.0215  0.3557 -0.3861
  659MOL0     C88842  10.246   7.992  10.940 -0.9035 -0.2555 -0.2875
  659MOL0     C88843  10.189   8.125  11.012 -0.5146  0.3046  0.2855
  659MOL0     C88844  10.046   8.131  10.954  0.2789 -0.6027 -0.1964
  659MOL0     C88845   9.967   8.230  11.039  0.6862 -0.0660  0.4828
  659MOL0     C88846   9.817   8.220  11.005  0.4517  0.2088  0.2297
  659MOL0     N88847   9.740   8.338  11.042  0.0817 -0.2465 -0.0156
  659MOL0     C88848   9.673   8.424  10.961 -0.0036 -0.4111 -0.0420
  659MOL0     C88849   9.592   8.490  11.055  0.1498 -0.0502  0.7416
  659MOL0     C88850   9.511   8.611  11.025  0.0999 -0.4300  0.1821
  659MOL0     C88851   9.366   8.570  10.984  0.0912  0.1775 -0.0556
  659MOL0     C88852   9.277   8.564  11.103  0.2316  0.5240 -0.7979
  659MOL0     C88853   9.139   8.576  11.043 -0.1052  0.0302 -0.4456
  659MOL0     O88854   9.057   8.569  11.159 -0.4029  0.4878 -0.0181
  659MOL0     C88855   8.923   8.557  11.144 -0.2725  0.3892  1.0840
  659MOL0     C88856   8.851   8.478  11.232 -0.1132  0.0281 -0.3794
  659MOL0     C88857   8.713   8.453  11.210  0.5725  0.1781 -0.3725
  659MOL0     C88858   8.648   8.351  11.298 -0.2845 -0.0500  0.8245
  659MOL0     C88859   8.638   8.509  11.102 -0.1510  0.2671 -0.7571
  659MOL0     C88860   8.501   8.471  11.056  0.5679 -0.0434  0.2683
  659MOL0     O88861   8.450   8.540  10.952  0.4047  0.1135  0.1955
  659MOL0     C88862   8.342   8.499  10.871  0.5312 -0.3514 -0.6886
  659MOL0     C88863   8.284   8.373  10.860 -0.0604 -0.3896 -0.0390
  659MOL0     C88864   8.175   8.340  10.777  0.3589 -0.4112 -0.4870
  659MOL0     C88865   8.118   8.440  10.701 -0.8571  0.2698  0.5652
  659MOL0     O88866   8.025   8.392  10.618  0.4151 -0.3357  0.7557
  659MOL0     C88867   7.933   8.477  10.550 -0.7550 -0.0913  0.0435
  659MOL0     C88868   7.824   8.523  10.642  0.4666  0.4333  0.2129
  659MOL0     C88869   7.718   8.612  10.566  0.5109 -0.0143  0.1505
  659MOL0     C88870   7.617   8.650  10.661  0.0568 -0.3077  0.2366
  659MOL0     C88871   7.514   8.756  10.608  0.2879  0.1588 -0.1289
  659MOL0     C88872   7.414   8.789  10.716  0.6948 -1.0768  0.1887
  659MOL0     C88873   7.317   8.894  10.657  0.4642 -0.0888  0.8274
  659MOL0     C88874   7.218   8.940  10.761 -0.1241  1.0373 -0.3423
  659MOL0    Cl88875   7.270   9.080  10.857 -0.1815  0.0682 -0.0781
  659MOL0     C88876   8.162   8.565  10.714 -0.2984  0.3893 -0.1650
  659MOL0     C88877   8.271   8.594  10.800  0.3147 -0.6636 -0.4024
  659MOL0     O88878   8.447   8.371  11.107 -0.2756 -0.1987  0.2316
  659MOL0     C88879   8.713   8.603  11.024 -0.0621 -0.0382  0.4640
  659MOL0     C88880   8.854   8.626  11.046  1.2714  0.5194  0.6318
  659MOL0     N88881   9.620   8.447  11.184 -0.4628  0.1097 -0.2784
  659MOL0     N88882   9.703   8.353  11.176 -0.1937 -0.7456  0.8075
  659MOL0     C88883  10.849   8.064  11.102  0.2346 -0.1104 -0.0506
  659MOL0     C88884  10.982   8.085  11.128  0.3157 -0.8474 -0.3622
  659MOL0     C88885  11.441   7.957  11.166 -0.0584 -0.5484 -0.6983
  659MOL0     C88886  11.464   8.097  11.189  0.0779  0.2680 -0.3915
  659MOL0     C88887  11.593   8.143  11.206 -0.5273 -0.0708  0.1470
  659MOL0     C88888  11.708   8.058  11.222 -0.7516  0.8093  0.4358
  659MOL0     O88889  11.842   8.099  11.218 -0.7399  0.3939  0.5406
  659MOL0     C88890  11.867   8.228  11.269  0.1600  0.0046 -0.9466
  659MOL0     C88891  12.012   8.255  11.305  0.5251  0.4956 -0.4276
  659MOL0     C88892  12.093   8.217  11.185  0.0013 -0.5411  0.5821
  659MOL0     C88893  12.247   8.237  11.210 -0.5193  0.5399 -0.4247
  659MOL0     C88894  12.290   8.353  11.283  0.1806 -0.3484  0.2830
  659MOL0     C88895  12.321   8.452  11.338 -0.1181 -0.4596  0.0121
  659MOL0     C88896  11.684   7.920  11.205 -0.0414 -0.1433 -0.5508
  659MOL0     C88897  11.547   7.866  11.188  0.1867  0.5435  0.3290
  659MOL0     H88898  11.093   7.788  11.026 -0.1306  0.1378 -1.8214
  659MOL0     H88899  10.874   7.759  10.969 -0.1616  0.7692 -0.5262
  659MOL0     H88900  10.651   7.874  10.819 -0.6917 -1.1756 -0.4744
  659MOL0     H88901  10.666   7.753  10.933  1.9434  0.2928 -3.6591
  659MOL0     H88902  10.412   7.804  10.835 -0.0242 -1.5217  0.2038
  659MOL0     H88903  10.436   7.765  11.007  4.0135 -3.5301 -3.2933
  659MOL0     H88904  10.409   7.985  11.075  0.5948  0.3548 -0.4453
  659MOL0     H88905  10.445   8.064  10.916  0.7231 -0.5149 -1.2182
  659MOL0     H88906  10.210   7.991  10.837 -1.5186  0.3010 -0.0854
  659MOL0     H88907  10.197   7.908  10.990 -0.0733 -1.6885 -1.8207
  659MOL0     H88908  10.192   8.121  11.121  0.9471  1.3923  0.3112
  659MOL0     H88909  10.251   8.210  10.984 -0.1963  0.0868  0.3123
  659MOL0     H88910  10.047   8.152  10.847 -1.7757  0.7155 -0.0322
  659MOL0     H88911  10.004   8.032  10.971  1.5590 -1.9209 -3.8534
  659MOL0     H88912   9.975   8.208  11.146  0.0167  1.5058  0.8834
  659MOL0     H88913  10.003   8.332  11.021  0.5415  0.1306  1.2595
  659MOL0     H88914   9.777   8.140  11.069 -0.9694  2.5126  2.3856
  659MOL0     H88915   9.802   8.201  10.898  1.0076 -0.2536  0.2285
  659MOL0     H88916   9.675   8.435  10.854 -2.5232  1.7541  0.0448
  659MOL0     H88917   9.511   8.677  11.112 -0.3393 -0.9570  0.5856
  659MOL0     H88918   9.569   8.660  10.947  1.3727  0.3828  1.5889
  659MOL0     H88919   9.373   8.482  10.920  2.0421  0.6223 -0.5503
  659MOL0     H88920   9.328   8.650  10.918 -1.5168  0.4577  1.1530
  659MOL0     H88921   9.290   8.651  11.167 -1.6597  2.0273 -2.3347
  659MOL0     H88922   9.305   8.471  11.155  2.6949  1.2080 -0.7728
  659MOL0     H88923   9.120   8.489  10.980  0.0604 -0.6618  0.4314
  659MOL0     H88924   9.134   8.675  10.997  0.6389  0.1249 -0.3229
  659MOL0     H88925   8.910   8.438  11.313 -0.1134  2.6485  1.0289
  659MOL0     H88926   8.621   8.268  11.232 -1.2410  2.9918 -2.9684
  659MOL0     H88927   8.712   8.310  11.376  0.7969 -4.4782 -2.0411
  659MOL0     H88928   8.556   8.394  11.336 -1.1755 -0.5839 -0.6402
  659MOL0     H88929   8.325   8.288  10.915 -1.0905  0.4015  2.0796
  659MOL0     H88930   8.133   8.240  10.781  2.0598 -1.1167  1.3052
  659MOL0     H88931   7.978   8.559  10.494 -0.4753 -1.2480 -1.4857
  659MOL0     H88932   7.901   8.421  10.462  0.2121 -0.0835 -0.3229
  659MOL0     H88933   7.767   8.442  10.688  1.8595 -2.0209 -2.0880
  659MOL0     H88934   7.872   8.581  10.721  0.6248  0.7848 -0.1299
  659MOL0     H88935   7.666   8.551  10.492  0.0387 -1.3363  1.5281
  659MOL0     H88936   7.771   8.694  10.517 -0.0362 -1.0163 -2.2162
  659MOL0     H88937   7.552   8.568  10.692 -1.6019  0.1029 -1.8894
  659MOL0     H88938   7.657   8.704  10.747  0.2884  1.0502 -0.6983
  659MOL0     H88939   7.469   8.710  10.520 -1.4405  2.3543 -0.4731
  659MOL0     H88940   7.567   8.846  10.575 -0.8681  1.9786  2.6495
  659MOL0     H88941   7.373   8.695  10.753  0.6798 -0.8366  0.7900
  659MOL0     H88942   7.471   8.833  10.799  3.6300 -2.0976 -1.1660
  659MOL0     H88943   7.265   8.847  10.573  1.2669 -0.3992  0.5055
  659MOL0     H88944   7.372   8.979  10.616  1.0290 -0.8339  0.0091
  659MOL0     H88945   7.197   8.850  10.819  2.9876  1.7780  2.1921
  659MOL0     H88946   7.126   8.959  10.704 -0.6016 -3.8800 -1.6512
  659MOL0     H88947   8.121   8.640  10.648  1.4884  1.6861  0.1259
  659MOL0     H88948   8.297   8.699  10.814  1.3249 -1.1205  1.5107
  659MOL0     H88949   8.669   8.664  10.945  1.9623  2.3224  1.0618
  659MOL0     H88950   8.903   8.705  10.990  0.1809  2.3398  2.1190
  659MOL0     H88951  10.770   8.134  11.128  2.0027  1.3221  1.7115
  659MOL0     H88952  11.017   8.179  11.171 -3.0572  0.3334  0.1438
  659MOL0     H88953  11.378   8.163  11.184  0.1397  0.3123 -0.8897
  659MOL0     H88954  11.617   8.249  11.211  0.2629 -0.2051 -0.6406
  659MOL0     H88955  11.831   8.306  11.201 -1.3473 -0.5919 -0.8598
  659MOL0     H88956  11.819   8.237  11.367  2.6230  0.1003  0.3384
  659MOL0     H88957  12.041   8.202  11.396  0.1721  0.6336 -0.2323
  659MOL0     H88958  12.016   8.363  11.320 -0.3820  0.4243  0.4052
  659MOL0     H88959  12.064   8.282  11.101  0.4448  0.0346  0.8639
  659MOL0     H88960  12.077   8.115  11.149 -0.1875 -0.9756  1.8599
  659MOL0     H88961  12.310   8.225  11.122  0.0297 -1.5363  0.2000
  659MOL0     H88962  12.276   8.148  11.267 -0.7844  0.7724  0.0866
  659MOL0     H88963  12.344   8.541  11.393 -0.8812 -1.4471  2.0325
  659MOL0     H88964  11.765   7.848  11.215  0.1083  0.1483  0.4888
  659MOL0     H88965  11.530   7.760  11.177  3.9474 -0.0049 -2.4875
  660MOL0     O88966   0.007   3.375   0.073  0.3563  0.1568 -0.3991
  660MOL0     C88967   0.090   3.401   0.161 -1.1000 -0.5890  0.4322
  660MOL0     O88968   0.070   3.457   0.280 -0.1629  0.2959 -0.1436
  660MOL0     C88969  -0.052   3.475   0.348 -0.7139 -0.2069  0.3867
  660MOL0     C88970  -0.037   3.507   0.481 -0.0818  0.2648  0.4211
  660MOL0     C88971  -0.146   3.518   0.568 -0.5732  0.7386  0.7076
  660MOL0     C88972  -0.273   3.512   0.513 -0.0407  0.4594 -0.9968
  660MOL0     O88973  -0.375   3.524   0.610 -0.2600  0.1547  0.1476
  660MOL0     C88974  -0.396   3.653   0.674  0.1059 -0.2074  0.2697
  660MOL0     C88975  -0.461   3.745   0.571  0.8881  0.1980 -0.1358
  660MOL0     C88976  -0.469   3.886   0.643  0.3113 -0.9658 -0.3562
  660MOL0     C88977  -0.581   3.882   0.752 -0.5573  0.2250 -0.2549
  660MOL0     C88978  -0.604   4.024   0.806 -0.0813  0.4672 -0.0319
  660MOL0     C88979  -0.678   4.120   0.697 -0.5179  0.0159 -0.8133
  660MOL0     C88980  -0.745   4.228   0.768  0.6224  0.0961  0.2429
  660MOL0     C88981  -0.779   4.329   0.665 -0.5715  0.0506 -0.0008
  660MOL0     N88982  -0.852   4.445   0.721  0.1139  0.6153  0.5883
  660MOL0     C88983  -0.976   4.447   0.789  0.2247 -0.4631 -0.0642
  660MOL0     C88984  -0.981   4.563   0.856 -0.8807  0.2098  0.2463
  660MOL0     C88985  -1.095   4.602   0.954 -0.4483  0.5033 -0.2596
  660MOL0     C88986  -1.218   4.610   0.858 -0.2787  0.3314 -1.0340
  660MOL0     C88987  -1.329   4.692   0.921  0.0722  0.1264 -0.7232
  660MOL0     C88988  -1.452   4.682   0.840  0.6113 -0.1289 -0.2135
  660MOL0     O88989  -1.449   4.790   0.745  0.2351  0.5538  0.2867
  660MOL0     C88990  -1.565   4.842   0.706  0.6896 -0.0289  0.5058
  660MOL0     C88991  -1.576   4.981   0.663 -0.0652 -0.3815  0.5163
  660MOL0     C88992  -1.695   5.032   0.610  0.6843 -0.1767  0.1396
  660MOL0     C88993  -1.706   5.187   0.572 -0.0981 -0.5853  0.3044
  660MOL0     C88994  -1.798   4.937   0.593 -0.5672 -0.7000  0.8177
  660MOL0     C88995  -1.921   4.976   0.526 -0.1357 -0.2701  0.0340
  660MOL0     O88996  -2.039   4.949   0.595 -0.2688 -0.3960  0.0127
  660MOL0     C88997  -2.149   5.013   0.557  0.6403 -1.0976 -0.2856
  660MOL0     C88998  -2.187   5.113   0.651  0.1437  0.1077  0.5240
  660MOL0     C88999  -2.304   5.185   0.631  0.0716 -0.2479  0.0098
  660MOL0     C89000  -2.381   5.162   0.516  0.2686 -0.5253 -0.4786
  660MOL0     O89001  -2.488   5.251   0.498  0.1040  0.1466  0.1909
  660MOL0     C89002  -2.585   5.211   0.403  0.1757 -0.1310 -0.6947
  660MOL0     C89003  -2.653   5.072   0.429  0.0094  0.0060  0.5491
  660MOL0     C89004  -2.789   5.070   0.358 -0.0998  0.3749  0.4695
  660MOL0     C89005  -2.849   4.929   0.360  0.3073  0.9805 -0.2021
  660MOL0     C89006  -2.875   4.876   0.499  0.3432  0.1260  0.4153
  660MOL0     C89007  -2.971   4.759   0.485 -0.2528  0.7578 -0.4991
  660MOL0     C89008  -3.004   4.693   0.624  0.0274 -0.9675  0.2707
  660MOL0     C89009  -2.886   4.630   0.703 -0.7262  1.3878  0.1793
  660MOL0    Cl89010  -2.934   4.472   0.767 -0.1898 -0.1885 -0.3191
  660MOL0     C89011  -2.339   5.065   0.422 -0.1710 -1.0908  0.5841
  660MOL0     C89012  -2.216   4.991   0.439  1.4307 -0.1343  0.5304
  660MOL0     O89013  -1.909   5.041   0.421 -0.4696  0.0367  0.4760
  660MOL0     C89014  -1.790   4.807   0.639  0.7089  0.1621  0.6511
  660MOL0     C89015  -1.676   4.762   0.694 -0.4671 -0.1538 -0.3310
  660MOL0     N89016  -0.872   4.633   0.806 -0.1102  0.1747  0.6544
  660MOL0     N89017  -0.795   4.566   0.728  0.4796  0.0167  0.1062
  660MOL0     C89018  -0.293   3.478   0.384 -0.9128  1.1839 -0.2931
  660MOL0     C89019  -0.183   3.457   0.297 -0.7421 -0.2817  0.7508
  660MOL0     C89020   0.237   3.370   0.128  0.3910 -0.0572  0.5674
  660MOL0     C89021   0.275   3.344  -0.010 -0.4240  0.3191 -0.7760
  660MOL0     C89022   0.414   3.323  -0.042  0.0830 -0.7185  0.4598
  660MOL0     C89023   0.502   3.326   0.065 -0.3037  0.2054  0.0704
  660MOL0     O89024   0.636   3.298   0.056  0.3417 -0.0783  0.4598
  660MOL0     C89025   0.701   3.318  -0.075  0.1204  0.3175 -0.2603
  660MOL0     C89026   0.849   3.289  -0.060  0.0440 -0.5258  0.0324
  660MOL0     C89027   0.906   3.410   0.009 -0.5406  0.2194 -0.5277
  660MOL0     C89028   0.958   3.511  -0.094 -0.3845 -0.5758 -0.2774
  660MOL0     C89029   1.005   3.633  -0.022 -0.6610  0.0606 -0.3086
  660MOL0     C89030   1.035   3.737   0.037  0.7691 -0.1291 -0.3165
  660MOL0     C89031   0.466   3.346   0.193  0.1391 -0.0415  0.0271
  660MOL0     C89032   0.334   3.369   0.233  0.5033  0.8748 -0.3310
  660MOL0     H89033   0.063   3.525   0.519  0.4308  2.4428 -1.7239
  660MOL0     H89034  -0.123   3.539   0.672  0.7792  2.4228  0.1228
  660MOL0     H89035  -0.467   3.637   0.756 -0.0081  0.4773  0.3172
  660MOL0     H89036  -0.309   3.701   0.719 -0.7409  1.1566  0.5522
  660MOL0     H89037  -0.407   3.753   0.476 -1.1415 -0.2931 -1.3885
  660MOL0     H89038  -0.560   3.706   0.545  0.0531  2.5223 -0.7101
  660MOL0     H89039  -0.376   3.916   0.692 -0.0885 -3.1343  1.9038
  660MOL0     H89040  -0.498   3.954   0.562  0.0474 -2.0345 -1.1916
  660MOL0     H89041  -0.673   3.839   0.711 -0.7103  0.0183  0.2858
  660MOL0     H89042  -0.558   3.823   0.841  2.3681  1.4530 -0.0981
  660MOL0     H89043  -0.666   4.021   0.896  0.6611 -0.9365  0.4640
  660MOL0     H89044  -0.507   4.074   0.819 -0.0844  1.1275 -2.1647
  660MOL0     H89045  -0.600   4.164   0.634  0.9116  2.3914  2.3298
  660MOL0     H89046  -0.745   4.054   0.641 -0.0576 -0.1971 -1.1224
  660MOL0     H89047  -0.830   4.196   0.829  1.3041 -0.2071  1.0464
  660MOL0     H89048  -0.675   4.277   0.836  1.6492  0.4748 -1.0324
  660MOL0     H89049  -0.852   4.276   0.603  0.8409  0.0453 -1.7431
  660MOL0     H89050  -0.696   4.358   0.601 -0.4489 -0.4149 -0.0563
  660MOL0     H89051  -1.052   4.370   0.779  0.1197 -0.1323 -2.4871
  660MOL0     H89052  -1.103   4.532   1.036  1.0682  0.9475  0.2957
  660MOL0     H89053  -1.064   4.701   0.991  1.2368  0.1753 -0.6939
  660MOL0     H89054  -1.243   4.507   0.830  2.6215 -1.0002  0.8220
  660MOL0     H89055  -1.191   4.657   0.763  3.3787  1.0272  0.2060
  660MOL0     H89056  -1.306   4.798   0.930  1.4629 -0.2829  0.9743
  660MOL0     H89057  -1.347   4.653   1.022  3.7690 -0.7592 -0.2836
  660MOL0     H89058  -1.531   4.692   0.915 -0.5390  0.9494 -1.5135
  660MOL0     H89059  -1.471   4.580   0.804  1.4954 -0.1844 -0.5428
  660MOL0     H89060  -1.490   5.048   0.663  0.8076 -1.4818  0.0799
  660MOL0     H89061  -1.761   5.215   0.482 -2.3619  0.9749  2.0352
  660MOL0     H89062  -1.779   5.225   0.645  2.2337 -0.7486  2.8880
  660MOL0     H89063  -1.609   5.235   0.591  1.0635 -2.2978 -1.0391
  660MOL0     H89064  -2.139   5.127   0.748 -0.0557  1.7424  0.4177
  660MOL0     H89065  -2.340   5.253   0.708  0.6944  0.5879 -0.4318
  660MOL0     H89066  -2.655   5.295   0.404  1.8560  1.3591 -1.3950
  660MOL0     H89067  -2.544   5.207   0.302  0.7995 -0.9278 -0.4183
  660MOL0     H89068  -2.583   4.992   0.401  3.8210  2.0263  3.2904
  660MOL0     H89069  -2.675   5.056   0.535  0.3151  0.0939  0.6280
  660MOL0     H89070  -2.793   5.094   0.252  0.6517 -1.8770 -0.1203
  660MOL0     H89071  -2.860   5.143   0.399 -1.9049  0.3508 -2.3588
  660MOL0     H89072  -2.945   4.946   0.308 -0.2026  2.0739  1.0206
  660MOL0     H89073  -2.783   4.864   0.303  1.0492  1.5099  0.0407
  660MOL0     H89074  -2.941   4.946   0.550 -0.0146 -0.4572  0.7643
  660MOL0     H89075  -2.786   4.860   0.561  0.0355  0.2673  0.8988
  660MOL0     H89076  -3.068   4.776   0.437 -1.2854 -2.5737  0.1371
  660MOL0     H89077  -2.917   4.685   0.425  1.3355  1.7902 -0.4045
  660MOL0     H89078  -3.077   4.615   0.602 -1.9258  1.1081 -1.0745
  660MOL0     H89079  -3.053   4.755   0.700  0.2578 -2.0449  1.3255
  660MOL0     H89080  -2.849   4.685   0.790  0.7807 -0.3623  0.7104
  660MOL0     H89081  -2.797   4.625   0.641 -1.5607  0.9483 -1.0244
  660MOL0     H89082  -2.400   5.056   0.333  2.0497 -1.1593 -1.0164
  660MOL0     H89083  -2.183   4.906   0.381  0.3349 -0.0610 -0.2427
  660MOL0     H89084  -1.879   4.747   0.624  0.2176  0.7758  1.0558
  660MOL0     H89085  -1.669   4.657   0.720 -1.2105 -0.1308 -0.0115
  660MOL0     H89086  -0.395   3.456   0.354 -0.3686 -2.2762 -0.0343
  660MOL0     H89087  -0.204   3.409   0.202 -0.4029 -1.7195  1.3748
  660MOL0     H89088   0.205   3.343  -0.093 -2.2767 -1.4694  0.7160
  660MOL0     H89089   0.432   3.307  -0.147 -0.8695  1.8885 -0.1891
  660MOL0     H89090   0.661   3.246  -0.147 -0.0301 -0.5376  0.6605
  660MOL0     H89091   0.699   3.425  -0.099 -1.0779  0.1117 -1.1627
  660MOL0     H89092   0.901   3.263  -0.153 -1.0568  1.6886 -1.2826
  660MOL0     H89093   0.851   3.206   0.011  0.0829  0.5483  1.3272
  660MOL0     H89094   0.982   3.357   0.067 -2.3865 -2.0133  0.0451
  660MOL0     H89095   0.831   3.451   0.077 -1.1647  0.8151 -1.5543
  660MOL0     H89096   0.876   3.562  -0.145 -0.7257  0.1988  1.0029
  660MOL0     H89097   1.027   3.465  -0.166 -3.1693  0.0290 -3.5622
  660MOL0     H89098   1.055   3.827   0.090 -1.3536  0.6935 -0.8321
  660MOL0     H89099   0.543   3.348   0.271  1.0328 -0.3037 -0.8287
  660MOL0     H89100   0.312   3.374   0.339  0.5837  4.1456 -0.3675
  661MOL0     O89101   4.454   4.969   7.117 -0.5265  0.5210  0.3642
  661MOL0     C89102   4.484   4.867   7.064 -0.3929 -0.2347 -0.5416
  661MOL0     O89103   4.398   4.780   6.999  0.3650 -0.3142  0.1365
  661MOL0     C89104   4.266   4.795   7.004  0.9733 -0.8480  0.5361
  661MOL0     C89105   4.176   4.692   7.043 -0.2511 -0.4277  0.4127
  661MOL0     C89106   4.037   4.720   7.068  0.1628  0.3434 -0.9496
  661MOL0     C89107   3.980   4.844   7.025 -0.3859  0.1976  0.2473
  661MOL0     O89108   3.849   4.878   7.052  0.7917 -0.0748 -0.3948
  661MOL0     C89109   3.801   5.004   7.011 -0.7080 -0.1530 -0.3766
  661MOL0     C89110   3.656   5.010   7.065  0.3400 -0.1619  0.9068
  661MOL0     C89111   3.562   4.927   6.969 -0.4034  0.2491 -0.3597
  661MOL0     C89112   3.421   4.916   7.020  0.0086  0.3149  0.3070
  661MOL0     C89113   3.330   4.819   6.939  0.1153  0.9780  0.1459
  661MOL0     C89114   3.302   4.864   6.795 -0.3481 -0.3606  0.6742
  661MOL0     C89115   3.250   4.753   6.698 -0.7453  0.2327  0.0232
  661MOL0     C89116   3.350   4.652   6.658 -0.4989  0.3129 -0.2591
  661MOL0     N89117   3.291   4.557   6.560 -0.0697 -0.7481 -0.7662
  661MOL0     C89118   3.232   4.437   6.592 -0.1847  0.3767  0.1427
  661MOL0     C89119   3.168   4.398   6.480  0.0565  0.4439 -0.2813
  661MOL0     C89120   3.076   4.279   6.478 -0.3555  0.3568 -0.2710
  661MOL0     C89121   2.929   4.317   6.452  0.3361 -0.2789 -0.5576
  661MOL0     C89122   2.840   4.203   6.493  0.9108  0.3820  0.3280
  661MOL0     C89123   2.698   4.223   6.430 -0.0879 -0.1188 -0.0261
  661MOL0     O89124   2.601   4.126   6.466 -0.2918 -0.2093 -0.7432
  661MOL0     C89125   2.616   3.992   6.427 -0.8238 -0.5111 -0.6623
  661MOL0     C89126   2.711   3.941   6.334  1.1146 -0.8782 -0.0748
  661MOL0     C89127   2.695   3.811   6.287 -0.3378  0.5862 -0.0232
  661MOL0     C89128   2.806   3.763   6.191 -0.0811  0.0309  0.3730
  661MOL0     C89129   2.595   3.726   6.337 -0.5303 -0.0359 -0.8468
  661MOL0     C89130   2.593   3.585   6.308 -0.2192  0.4406  0.0605
  661MOL0     O89131   2.479   3.535   6.270  0.3383 -0.0940  0.3482
  661MOL0     C89132   2.475   3.404   6.224  0.4781  0.1337  0.4811
  661MOL0     C89133   2.563   3.332   6.145  0.6912 -0.1111 -0.7341
  661MOL0     C89134   2.544   3.202   6.105  0.5924 -0.2886  0.4148
  661MOL0     C89135   2.425   3.136   6.137  0.8387 -0.0955 -0.0729
  661MOL0     O89136   2.428   3.003   6.093  0.1329  0.3403 -0.6774
  661MOL0     C89137   2.303   2.931   6.095 -0.5635 -0.8306  0.5768
  661MOL0     C89138   2.205   2.972   5.978 -0.1239  0.5327 -0.2727
  661MOL0     C89139   2.080   2.880   5.970 -0.9776  0.7261 -0.1089
  661MOL0     C89140   1.953   2.949   5.948  0.1584 -0.6158  0.3607
  661MOL0     C89141   1.830   2.859   5.946  0.1982 -0.1318  0.5504
  661MOL0     C89142   1.694   2.944   5.920 -0.4728  0.6748  0.6904
  661MOL0     C89143   1.662   3.054   6.017 -0.3909  0.0038 -0.1764
  661MOL0     C89144   1.547   3.136   5.964  0.1952 -0.2214  0.0443
  661MOL0    Cl89145   1.609   3.235   5.828  0.3457 -0.1973 -0.2803
  661MOL0     C89146   2.335   3.207   6.221  0.4860  0.6445 -0.5788
  661MOL0     C89147   2.361   3.337   6.257  0.5160  0.1471  0.1788
  661MOL0     O89148   2.698   3.521   6.336 -0.0363  0.3622 -0.2684
  661MOL0     C89149   2.514   3.776   6.439  0.0641  0.8526 -0.2304
  661MOL0     C89150   2.517   3.908   6.477 -0.3381 -0.4225  0.3523
  661MOL0     N89151   3.184   4.483   6.370 -0.2911 -0.6874  0.2972
  661MOL0     N89152   3.252   4.583   6.428 -0.2607  1.0242 -0.4603
  661MOL0     C89153   4.074   4.931   6.954 -0.2885  0.6075  0.0522
  661MOL0     C89154   4.210   4.909   6.943 -1.2980  0.2791  0.5723
  661MOL0     C89155   4.627   4.826   7.079 -0.5026  0.8471  0.4933
  661MOL0     C89156   4.725   4.903   7.148  0.3117 -0.0833  0.4924
  661MOL0     C89157   4.855   4.850   7.171  0.6528 -0.7786 -0.0669
  661MOL0     C89158   4.891   4.717   7.137  0.0427  0.1859 -0.2842
  661MOL0     O89159   5.001   4.647   7.163 -0.2303 -0.2635  0.1376
  661MOL0     C89160   5.116   4.711   7.223 -0.8246 -0.6844  0.3701
  661MOL0     C89161   5.225   4.608   7.249 -0.5002 -0.2267 -0.5334
  661MOL0     C89162   5.294   4.549   7.121 -0.4488  0.0630  0.5802
  661MOL0     C89163   5.421   4.479   7.164 -0.4381 -0.1879  0.1161
  661MOL0     C89164   5.496   4.428   7.044  1.1793 -0.7553 -0.2803
  661MOL0     C89165   5.569   4.381   6.963  0.5290  0.3504  0.3023
  661MOL0     C89166   4.796   4.644   7.064  0.3952  0.3417 -0.7223
  661MOL0     C89167   4.670   4.693   7.033  0.0827  0.2267  0.0621
  661MOL0     H89168   4.229   4.599   7.065  3.2794  1.1803 -0.5091
  661MOL0     H89169   3.966   4.650   7.111 -1.0900  1.4717 -1.1307
  661MOL0     H89170   3.862   5.083   7.056  1.7966 -3.3257  2.3244
  661MOL0     H89171   3.797   5.008   6.902 -1.8783 -1.1730 -0.3951
  661MOL0     H89172   3.647   4.976   7.169 -0.9413  0.9859  1.2062
  661MOL0     H89173   3.627   5.116   7.061 -1.0893 -0.5626 -2.0659
  661MOL0     H89174   3.566   4.992   6.881  0.0724  0.1209 -0.4378
  661MOL0     H89175   3.608   4.831   6.942  3.0540  1.1521  1.6068
  661MOL0     H89176   3.423   4.885   7.124  0.0314 -0.8821 -0.0321
  661MOL0     H89177   3.382   5.018   7.007  2.1717  1.0773 -0.8413
  661MOL0     H89178   3.380   4.722   6.931 -1.2905  0.2306  0.1408
  661MOL0     H89179   3.234   4.794   6.984 -0.2628 -2.2803 -2.0823
  661MOL0     H89180   3.226   4.943   6.794 -0.0753 -0.0925 -0.5160
  661MOL0     H89181   3.398   4.900   6.757 -1.3082  0.5102 -1.0898
  661MOL0     H89182   3.180   4.701   6.764  0.2885  1.0952  1.8829
  661MOL0     H89183   3.196   4.797   6.614  2.3942  0.2082 -2.2026
  661MOL0     H89184   3.370   4.600   6.752 -0.9605 -0.7524 -0.7312
  661MOL0     H89185   3.442   4.694   6.617 -1.2221  3.0760  0.7207
  661MOL0     H89186   3.226   4.377   6.683 -1.8828 -3.4171 -2.2227
  661MOL0     H89187   3.112   4.206   6.405  1.7535  0.4263  0.6533
  661MOL0     H89188   3.074   4.215   6.567 -0.6647 -0.3815 -0.8003
  661MOL0     H89189   2.914   4.336   6.346  1.5918 -0.3479 -0.7576
  661MOL0     H89190   2.917   4.403   6.520  2.4810  0.3253 -0.8766
  661MOL0     H89191   2.826   4.203   6.602  1.3009  0.0453  0.3844
  661MOL0     H89192   2.879   4.103   6.472 -0.4053 -0.8499  3.1992
  661MOL0     H89193   2.709   4.227   6.322  1.6558  3.1449  0.1501
  661MOL0     H89194   2.659   4.320   6.464  0.1891 -0.3122  0.8640
  661MOL0     H89195   2.787   4.010   6.299  1.5551 -0.4179  1.7055
  661MOL0     H89196   2.844   3.837   6.120 -0.7059  0.4906  0.5053
  661MOL0     H89197   2.888   3.715   6.246  0.6260  1.0472  0.2256
  661MOL0     H89198   2.776   3.671   6.139  2.2266 -1.5718  1.6946
  661MOL0     H89199   2.654   3.381   6.113  0.9353  1.3338  1.9208
  661MOL0     H89200   2.623   3.156   6.046  1.7876  1.3820  0.6559
  661MOL0     H89201   2.321   2.825   6.072  3.7942 -0.1474 -0.0645
  661MOL0     H89202   2.266   2.937   6.198  1.3200 -2.4860  1.4427
  661MOL0     H89203   2.173   3.075   5.994  0.8699  0.4858  2.6827
  661MOL0     H89204   2.247   2.973   5.877  0.5498 -0.6421 -0.0318
  661MOL0     H89205   2.076   2.835   6.070  0.4071  2.3975  0.7547
  661MOL0     H89206   2.094   2.797   5.900  2.3856  1.1012 -0.0112
  661MOL0     H89207   1.939   3.029   6.021  3.3763 -1.0992  1.6658
  661MOL0     H89208   1.972   3.006   5.856  1.9592 -1.0012  0.4612
  661MOL0     H89209   1.822   2.809   6.043  2.3514 -4.4819 -1.2412
  661MOL0     H89210   1.842   2.774   5.878  0.8336 -2.0651  2.9689
  661MOL0     H89211   1.704   2.976   5.816 -2.3777  3.1717  1.1654
  661MOL0     H89212   1.607   2.877   5.915  2.7803 -3.9914 -0.1181
  661MOL0     H89213   1.752   3.111   6.040  0.0048 -0.9181  0.6299
  661MOL0     H89214   1.632   3.005   6.110 -1.7773 -0.9155 -1.0654
  661MOL0     H89215   1.516   3.207   6.040  0.7132 -0.1946  0.2341
  661MOL0     H89216   1.458   3.077   5.937  0.7966 -2.1855  2.0679
  661MOL0     H89217   2.233   3.177   6.243  1.0645 -0.5489  0.6139
  661MOL0     H89218   2.281   3.388   6.311 -0.9770 -1.4988 -0.4176
  661MOL0     H89219   2.455   3.705   6.496 -1.3101  0.8636 -1.5636
  661MOL0     H89220   2.451   3.950   6.552 -2.3213  1.3874 -2.1874
  661MOL0     H89221   4.040   5.022   6.904 -1.8009  0.2298  0.3314
  661MOL0     H89222   4.268   4.984   6.891 -2.0230  1.3373  1.2458
  661MOL0     H89223   4.703   5.006   7.174  2.3955 -0.1662  3.0778
  661MOL0     H89224   4.936   4.913   7.208 -0.5076  0.4086  0.5172
  661MOL0     H89225   5.154   4.782   7.150  2.1505 -2.2860  0.1999
  661MOL0     H89226   5.105   4.766   7.317  3.4741  0.8358  0.2147
  661MOL0     H89227   5.168   4.529   7.299 -1.0125  0.9416  0.8219
  661MOL0     H89228   5.296   4.652   7.321  0.4764  0.5888 -1.9449
  661MOL0     H89229   5.317   4.638   7.061  1.1721  0.4807  1.7708
  661MOL0     H89230   5.222   4.481   7.074 -0.5048  0.2648  0.3706
  661MOL0     H89231   5.408   4.397   7.235 -0.7123 -0.3855 -0.1610
  661MOL0     H89232   5.480   4.561   7.207  2.0069 -0.9062 -1.6195
  661MOL0     H89233   5.622   4.335   6.882 -2.9087 -1.7108 -1.0365
  661MOL0     H89234   4.814   4.541   7.036  0.0692 -0.1401  0.7646
  661MOL0     H89235   4.591   4.641   6.980 -1.7794  3.5960 -0.7960
  662MOL0     O89236  11.206   9.958  10.651  0.1570  0.3220 -0.1552
  662MOL0     C89237  11.252   9.981  10.759  0.3842  0.0009 -0.0382
  662MOL0     O89238  11.179  10.005  10.872  0.1583 -0.1323 -0.2139
  662MOL0     C89239  11.045   9.982  10.866  0.0272 -0.3153  1.1892
  662MOL0     C89240  10.956  10.045  10.774  0.5568 -0.4962 -0.2948
  662MOL0     C89241  10.816  10.033  10.787  1.0406  0.1214  0.4362
  662MOL0     C89242  10.753   9.947  10.886 -0.4342 -0.2457 -0.3170
  662MOL0     O89243  10.619   9.925  10.908  0.1230  0.0793  0.5957
  662MOL0     C89244  10.525   9.945  10.802  0.5304 -0.4213  0.3185
  662MOL0     C89245  10.388   9.913  10.873  0.3531  0.2066 -0.4036
  662MOL0     C89246  10.274   9.906  10.772 -0.1415 -0.0570 -0.6985
  662MOL0     C89247  10.157   9.853  10.842 -0.4889  0.2634  0.2024
  662MOL0     C89248  10.038   9.805  10.760 -0.6230  1.1117  0.3427
  662MOL0     C89249   9.960   9.926  10.696  0.0106  0.7382 -0.1318
  662MOL0     C89250   9.832   9.871  10.625  0.2084 -0.6151  0.4772
  662MOL0     C89251   9.731   9.812  10.733 -0.4689 -0.8058  0.2686
  662MOL0     N89252   9.601   9.806  10.667  0.6451 -0.2205  0.0688
  662MOL0     C89253   9.532   9.691  10.643  0.2287  1.0341  0.1547
  662MOL0     C89254   9.424   9.719  10.561  0.2521 -0.3273 -0.7485
  662MOL0     C89255   9.322   9.622  10.499 -0.0357  0.2307  0.0132
  662MOL0     C89256   9.192   9.640  10.576 -0.2876  0.1971  0.3208
  662MOL0     C89257   9.082   9.570  10.497 -0.3511  0.1222  0.5048
  662MOL0     C89258   8.935   9.590  10.552 -0.0780 -0.2223  0.5438
  662MOL0     O89259   8.834   9.550  10.453  0.1852 -0.6627 -0.0589
  662MOL0     C89260   8.701   9.547  10.483  0.2235 -0.1671 -0.1984
  662MOL0     C89261   8.635   9.608  10.594 -0.2404  0.1675  0.0614
  662MOL0     C89262   8.492   9.606  10.602  0.0328  0.1736  0.3411
  662MOL0     C89263   8.420   9.667  10.722 -0.6023  0.0660  0.0629
  662MOL0     C89264   8.414   9.541  10.501  0.3108  0.2320  0.8518
  662MOL0     C89265   8.268   9.530  10.495 -0.3038 -0.2695  0.4850
  662MOL0     O89266   8.209   9.438  10.415  0.0451 -0.6904  0.6014
  662MOL0     C89267   8.072   9.421  10.428  0.4883 -0.1524  0.6492
  662MOL0     C89268   8.006   9.373  10.312 -0.8790 -0.3183  0.4135
  662MOL0     C89269   7.874   9.332  10.308  0.0883  0.1739 -0.3908
  662MOL0     C89270   7.792   9.345  10.417 -0.1191  0.3480 -0.6144
  662MOL0     O89271   7.656   9.310  10.404  1.2725 -0.2933  0.2844
  662MOL0     C89272   7.563   9.339  10.510 -0.8609  0.0695 -0.0418
  662MOL0     C89273   7.420   9.318  10.464 -0.0950 -0.1534  1.0632
  662MOL0     C89274   7.325   9.345  10.577 -0.2157 -0.1698 -1.1365
  662MOL0     C89275   7.189   9.301  10.527 -0.1387  0.2033 -0.2302
  662MOL0     C89276   7.079   9.349  10.628  0.1071 -0.2537  0.7196
  662MOL0     C89277   6.945   9.299  10.577 -0.5849 -0.0283 -0.3703
  662MOL0     C89278   6.924   9.146  10.598 -0.0772 -0.2323 -0.1240
  662MOL0     C89279   6.779   9.105  10.586  0.2885 -0.7221  0.0793
  662MOL0    Cl89280   6.719   9.154  10.422 -0.4841  0.0269  0.1863
  662MOL0     C89281   7.849   9.405  10.529 -0.3471 -0.2206 -1.4297
  662MOL0     C89282   7.989   9.436  10.542  0.2690  0.0315  0.7175
  662MOL0     O89283   8.206   9.621  10.551 -0.5619 -0.0584  0.2024
  662MOL0     C89284   8.482   9.493  10.391  0.6624  0.0601  0.4683
  662MOL0     C89285   8.620   9.491  10.382 -0.0347 -0.3317  0.4051
  662MOL0     N89286   9.431   9.863  10.546 -0.1137  0.0048 -0.0856
  662MOL0     N89287   9.531   9.910  10.610 -1.0931  0.6826  0.8489
  662MOL0     C89288  10.843   9.876  10.970 -0.9747 -0.8863 -0.0343
  662MOL0     C89289  10.982   9.892  10.952 -0.2688  0.8469  0.3398
  662MOL0     C89290  11.401   9.980  10.775  0.1404  0.3392  0.2467
  662MOL0     C89291  11.494   9.965  10.667 -0.1477  0.0193 -0.2221
  662MOL0     C89292  11.632   9.951  10.692 -0.2240 -0.4133  1.3074
  662MOL0     C89293  11.677   9.972  10.824 -0.0420 -0.4588  1.0461
  662MOL0     O89294  11.812   9.968  10.831 -0.3412 -0.2575 -0.3403
  662MOL0     C89295  11.878  10.031  10.935  0.0916 -0.3364 -0.3161
  662MOL0     C89296  12.007  10.094  10.888 -0.2112  0.3292  0.8862
  662MOL0     C89297  12.089  10.003  10.790 -0.4501  0.2085 -0.6141
  662MOL0     C89298  12.220  10.066  10.751 -0.3797  0.0949  0.2008
  662MOL0     C89299  12.213  10.201  10.712 -0.5280  1.0637  0.0190
  662MOL0     C89300  12.189  10.313  10.673 -0.4451 -0.9963 -0.3147
  662MOL0     C89301  11.586   9.978  10.933  0.0940  0.3369 -0.4360
  662MOL0     C89302  11.455   9.979  10.908  0.1272 -0.0274 -0.0266
  662MOL0     H89303  10.995  10.115  10.701 -2.2979  1.0678 -0.4448
  662MOL0     H89304  10.773  10.094  10.708 -0.1151 -0.9091  0.2431
  662MOL0     H89305  10.528  10.050  10.769 -0.7612  0.1578  1.9122
  662MOL0     H89306  10.544   9.875  10.720 -1.6728  1.6021 -2.0925
  662MOL0     H89307  10.388   9.823  10.935 -1.1480  0.3021 -0.2325
  662MOL0     H89308  10.366   9.989  10.949 -0.0838 -1.1017  0.8244
  662MOL0     H89309  10.257  10.006  10.732  0.4773 -0.3256 -1.6759
  662MOL0     H89310  10.307   9.835  10.695  0.2956  0.0786 -0.6382
  662MOL0     H89311  10.193   9.770  10.905 -1.1772 -1.3368 -1.4234
  662MOL0     H89312  10.116   9.921  10.917  1.9702  0.7111  1.2368
  662MOL0     H89313  10.070   9.731  10.685  1.3564  2.7111 -0.4944
  662MOL0     H89314   9.970   9.753  10.828 -2.9248 -0.8703 -3.1720
  662MOL0     H89315   9.938   9.997  10.777  1.1366  0.2597  0.6204
  662MOL0     H89316  10.020   9.971  10.616 -0.6955  0.8911 -0.5764
  662MOL0     H89317   9.781   9.944  10.562 -0.0783 -0.5746  0.7559
  662MOL0     H89318   9.868   9.790  10.561 -2.6343 -1.8243  0.2462
  662MOL0     H89319   9.735   9.872  10.825 -0.0530  1.6843 -1.2638
  662MOL0     H89320   9.742   9.708  10.762 -2.0766 -1.3973 -1.0514
  662MOL0     H89321   9.567   9.590  10.662  2.9868  2.1479  1.5713
  662MOL0     H89322   9.307   9.658  10.397 -1.7478 -0.8518 -0.1565
  662MOL0     H89323   9.356   9.519  10.493 -0.1358  0.1350  0.9159
  662MOL0     H89324   9.181   9.748  10.593 -0.6086 -0.0516  1.8134
  662MOL0     H89325   9.206   9.594  10.674  0.0538 -1.1287 -0.3304
  662MOL0     H89326   9.104   9.464  10.513 -0.2872 -0.2362 -1.6136
  662MOL0     H89327   9.094   9.602  10.393 -0.1655 -2.5189 -0.3707
  662MOL0     H89328   8.921   9.696  10.575  2.4672 -0.3719  3.4267
  662MOL0     H89329   8.925   9.530  10.642 -0.0877  0.2145  0.8361
  662MOL0     H89330   8.703   9.661  10.660 -1.3368  0.6518  0.8490
  662MOL0     H89331   8.383   9.766  10.694  3.9286  1.9962  0.0389
  662MOL0     H89332   8.355   9.590  10.763  0.2776 -2.0986 -2.3811
  662MOL0     H89333   8.493   9.681  10.803 -3.6927  0.3747  3.0472
  662MOL0     H89334   8.067   9.346  10.226  0.1158  0.1988  0.9447
  662MOL0     H89335   7.836   9.288  10.217  1.6079 -3.5242  0.5719
  662MOL0     H89336   7.593   9.300  10.608  5.3037  0.9083 -1.2542
  662MOL0     H89337   7.572   9.447  10.523  0.6924 -0.0540  0.0393
  662MOL0     H89338   7.400   9.383  10.378  0.7251 -0.0589  0.9282
  662MOL0     H89339   7.428   9.215  10.429  0.7605  0.9544 -2.4661
  662MOL0     H89340   7.323   9.451  10.607  0.4686 -0.5493  0.3704
  662MOL0     H89341   7.358   9.291  10.666 -1.2833  0.8528 -0.0898
  662MOL0     H89342   7.165   9.345  10.429  0.4296 -3.3797 -2.1634
  662MOL0     H89343   7.182   9.193  10.507 -1.1266  0.4269 -1.2185
  662MOL0     H89344   7.094   9.457  10.625  0.9556 -0.3633  0.4515
  662MOL0     H89345   7.107   9.309  10.725 -1.2741 -0.9091  0.8665
  662MOL0     H89346   6.867   9.351  10.632 -1.8757 -0.9705 -1.2415
  662MOL0     H89347   6.941   9.332  10.473 -0.6604  2.3543  0.3326
  662MOL0     H89348   6.962   9.102  10.691  0.9054 -0.0526 -0.4331
  662MOL0     H89349   6.975   9.090  10.519  0.7498  1.7935 -1.1040
  662MOL0     H89350   6.713   9.149  10.661 -0.1479 -0.2681 -0.5686
  662MOL0     H89351   6.764   8.998  10.603 -0.3183 -0.2176  3.3955
  662MOL0     H89352   7.781   9.422  10.611  0.8660  1.7394 -0.7393
  662MOL0     H89353   8.022   9.473  10.639  1.2677 -0.1110  0.4439
  662MOL0     H89354   8.437   9.452  10.301  2.0611  3.3507 -1.9437
  662MOL0     H89355   8.678   9.456  10.297 -1.6224  1.0713 -1.3470
  662MOL0     H89356  10.818   9.805  11.048  1.4860  0.8298  2.5151
  662MOL0     H89357  11.050   9.827  11.008 -0.7589 -1.2258 -1.3424
  662MOL0     H89358  11.473   9.961  10.561  0.5048  3.9395 -0.6454
  662MOL0     H89359  11.695   9.927  10.607 -0.7744  2.4890 -0.0644
  662MOL0     H89360  11.816  10.110  10.978  3.4304  0.8803  2.8227
  662MOL0     H89361  11.897   9.955  11.011  0.3536  1.2357  1.2669
  662MOL0     H89362  12.076  10.125  10.967 -2.2810  0.2270  2.8524
  662MOL0     H89363  11.966  10.183  10.840 -0.8698 -0.4972 -0.1486
  662MOL0     H89364  12.033   9.985  10.698  0.7911 -4.3332 -0.7427
  662MOL0     H89365  12.104   9.910  10.847  0.5840  1.5808  1.4987
  662MOL0     H89366  12.249  10.002  10.667  0.3585 -1.3622  1.5073
  662MOL0     H89367  12.292  10.044  10.830  1.8225  0.1547 -1.6794
  662MOL0     H89368  12.161  10.403  10.621 -3.6688 -1.9368 -0.4161
  662MOL0     H89369  11.628   9.999  11.031 -1.1178 -1.1953  0.4761
  662MOL0     H89370  11.381   9.996  10.986 -1.4143 -0.4113 -1.3628
  663MOL0     O89371   5.207  10.851   0.268  0.2034 -0.4289  0.2595
  663MOL0     C89372   5.197  10.771   0.174  0.8163 -0.5969  0.3481
  663MOL0     O89373   5.080  10.744   0.097 -0.2425 -0.1544 -0.7418
  663MOL0     C89374   4.951  10.788   0.126 -0.8741 -0.1492 -0.0720
  663MOL0     C89375   4.915  10.815   0.253 -0.1454 -0.1661 -0.4546
  663MOL0     C89376   4.789  10.881   0.278  0.7831  0.7271  0.4949
  663MOL0     C89377   4.704  10.910   0.177 -0.4870  0.0251  0.4008
  663MOL0     O89378   4.580  10.963   0.210 -0.0277  0.2105  0.3910
  663MOL0     C89379   4.531  11.054   0.116 -0.1253 -0.6583 -0.1314
  663MOL0     C89380   4.429  11.154   0.171 -1.1003 -0.4296 -0.4374
  663MOL0     C89381   4.370  11.255   0.074  0.1930  0.2976 -1.0188
  663MOL0     C89382   4.259  11.339   0.149 -0.1701 -0.0762  0.3546
  663MOL0     C89383   4.206  11.457   0.064 -0.0581  0.3064 -0.2545
  663MOL0     C89384   4.131  11.412  -0.064 -0.1524 -0.2317  1.0029
  663MOL0     C89385   4.029  11.298  -0.046 -1.0736  0.2598  0.5811
  663MOL0     C89386   3.963  11.278  -0.183  0.1918 -0.2183  0.6242
  663MOL0     N89387   3.889  11.158  -0.182  0.4954  0.9865 -0.4108
  663MOL0     C89388   3.905  11.058  -0.280  0.6773  0.2574 -0.1940
  663MOL0     C89389   3.812  10.965  -0.251 -0.3757 -0.6696  0.6233
  663MOL0     C89390   3.791  10.838  -0.333  0.3322 -0.2330  0.1598
  663MOL0     C89391   3.702  10.863  -0.460 -0.8165  0.1415  0.5189
  663MOL0     C89392   3.562  10.924  -0.440  0.3991 -0.7419 -0.4829
  663MOL0     C89393   3.484  10.971  -0.563  0.4295 -0.2572  0.9387
  663MOL0     O89394   3.364  11.032  -0.510  0.1562 -0.0598  1.7814
  663MOL0     C89395   3.236  11.014  -0.555  0.2515  0.3905  0.5428
  663MOL0     C89396   3.205  10.918  -0.650  0.0041 -0.1614 -0.0931
  663MOL0     C89397   3.068  10.894  -0.689 -0.1604  0.4324  1.0014
  663MOL0     C89398   3.048  10.789  -0.792  0.0226  0.4595 -0.3354
  663MOL0     C89399   2.971  10.972  -0.620  0.0184  1.0517  0.9370
  663MOL0     C89400   2.822  10.963  -0.657 -0.3619  0.2226  0.2367
  663MOL0     O89401   2.741  11.069  -0.622  0.0053  0.1350  0.0646
  663MOL0     C89402   2.611  11.070  -0.661  0.6381 -0.0500 -0.3873
  663MOL0     C89403   2.563  11.029  -0.783 -0.1091  0.1903  0.3488
  663MOL0     C89404   2.423  11.038  -0.820  0.5596 -0.6356  0.4892
  663MOL0     C89405   2.332  11.087  -0.727 -0.0535  0.1549  0.1459
  663MOL0     O89406   2.204  11.113  -0.768 -0.2031  0.4909 -0.1000
  663MOL0     C89407   2.106  11.077  -0.666 -0.4452 -0.4658  0.3225
  663MOL0     C89408   1.974  11.099  -0.736  0.0535 -0.5956  0.6953
  663MOL0     C89409   1.863  11.033  -0.657 -0.1197 -0.1609 -1.2918
  663MOL0     C89410   1.718  11.025  -0.718  0.5386 -0.4159 -0.2614
  663MOL0     C89411   1.666  10.897  -0.765 -0.6952  0.8286  0.3898
  663MOL0     C89412   1.519  10.907  -0.799  1.1839  0.3654 -0.1824
  663MOL0     C89413   1.466  10.771  -0.858  0.7198 -0.2928 -0.7545
  663MOL0     C89414   1.378  10.693  -0.761  0.7316 -0.8097  0.5466
  663MOL0    Cl89415   1.219  10.773  -0.731  0.4463  0.1808 -0.2249
  663MOL0     C89416   2.380  11.125  -0.598 -0.0493  0.3218  1.3224
  663MOL0     C89417   2.516  11.124  -0.570 -0.3682  0.6754 -0.0255
  663MOL0     O89418   2.778  10.861  -0.721  0.2716 -0.1456 -0.3968
  663MOL0     C89419   3.006  11.068  -0.528  0.3966  0.1523 -0.0686
  663MOL0     C89420   3.139  11.088  -0.488 -0.1120  0.6705 -0.2834
  663MOL0     N89421   3.735  11.013  -0.144 -0.0211 -0.0324  0.3663
  663MOL0     N89422   3.789  11.119  -0.100  0.3625 -0.2166 -0.4438
  663MOL0     C89423   4.737  10.882   0.049  0.2216  0.0389  0.0924
  663MOL0     C89424   4.860  10.819   0.022  0.4968 -0.3073  0.2467
  663MOL0     C89425   5.317  10.688   0.127  0.2852  0.4090 -0.0814
  663MOL0     C89426   5.446  10.727   0.166 -0.5432  0.0092  0.0860
  663MOL0     C89427   5.560  10.653   0.117  0.3325  0.5902 -0.7719
  663MOL0     C89428   5.538  10.552   0.023 -0.2325  0.0714  0.4346
  663MOL0     O89429   5.634  10.459  -0.010 -0.0678  0.2097  0.4133
  663MOL0     C89430   5.771  10.487   0.007  0.2888  1.2265  0.7773
  663MOL0     C89431   5.857  10.392  -0.074  0.3855  0.4299  0.0240
  663MOL0     C89432   5.839  10.232  -0.041 -0.2079 -0.3455 -0.2448
  663MOL0     C89433   5.899  10.138  -0.148  0.1297  0.2539  0.2639
  663MOL0     C89434   6.044  10.154  -0.134 -0.2040 -0.4029  0.3095
  663MOL0     C89435   6.163  10.163  -0.118 -0.3498 -0.3796 -0.2848
  663MOL0     C89436   5.408  10.520  -0.012  0.3720  0.2580  0.6583
  663MOL0     C89437   5.297  10.584   0.040 -0.7410  0.6875 -0.1759
  663MOL0     H89438   4.972  10.804   0.345  0.9443  2.3646 -0.7476
  663MOL0     H89439   4.780  10.907   0.383  1.7059 -2.9392  1.6110
  663MOL0     H89440   4.611  11.112   0.068 -0.4054 -0.1960 -0.0533
  663MOL0     H89441   4.482  10.999   0.035 -0.8513  0.2071 -0.3035
  663MOL0     H89442   4.348  11.103   0.223 -0.2334 -0.0914  1.3279
  663MOL0     H89443   4.481  11.225   0.236 -2.7118  1.4226 -1.0744
  663MOL0     H89444   4.454  11.313   0.034  0.3766 -0.1003 -1.2166
  663MOL0     H89445   4.320  11.201  -0.007  1.7386 -3.5528  0.3698
  663MOL0     H89446   4.175  11.277   0.182 -1.4113 -0.2903 -2.9294
  663MOL0     H89447   4.302  11.394   0.234  1.6217  0.2545 -0.7030
  663MOL0     H89448   4.144  11.527   0.122 -1.8921 -1.5017  0.1030
  663MOL0     H89449   4.299  11.507   0.038  0.0702  0.1852 -0.0287
  663MOL0     H89450   4.084  11.497  -0.114  1.1678  0.1890  0.4446
  663MOL0     H89451   4.211  11.385  -0.133 -1.3842  0.2894 -0.6778
  663MOL0     H89452   4.085  11.209  -0.020 -1.4846 -0.8243 -1.9159
  663MOL0     H89453   3.958  11.322   0.034 -1.6025 -3.2205  1.2916
  663MOL0     H89454   4.034  11.248  -0.260 -3.6960 -6.7665 -1.1412
  663MOL0     H89455   3.905  11.365  -0.214 -0.5600 -0.4707  1.2833
  663MOL0     H89456   3.982  11.037  -0.353  0.8863  0.0920  0.0702
  663MOL0     H89457   3.884  10.792  -0.368 -0.1802 -1.3783  0.2457
  663MOL0     H89458   3.749  10.760  -0.269  3.0527 -4.1386 -2.3921
  663MOL0     H89459   3.705  10.776  -0.526 -0.0165  1.9225 -1.9326
  663MOL0     H89460   3.759  10.930  -0.524  0.8570 -2.9738 -1.5040
  663MOL0     H89461   3.560  11.008  -0.369 -2.1939 -1.2298  0.1543
  663MOL0     H89462   3.497  10.859  -0.380 -1.5770  1.5870  0.1111
  663MOL0     H89463   3.454  10.889  -0.630 -3.7043  0.6678  1.4031
  663MOL0     H89464   3.544  11.048  -0.613  1.9518 -1.1897  1.2520
  663MOL0     H89465   3.283  10.870  -0.709  2.0858  0.4979  2.0125
  663MOL0     H89466   3.140  10.767  -0.847 -0.9261 -1.1849 -1.3609
  663MOL0     H89467   3.023  10.694  -0.745  0.9291  0.8305  0.9471
  663MOL0     H89468   2.973  10.825  -0.863 -0.7362 -1.1320 -0.3917
  663MOL0     H89469   2.624  10.993  -0.865 -1.3867 -0.7775 -0.2261
  663MOL0     H89470   2.381  11.013  -0.917 -0.7687 -1.5816  1.2715
  663MOL0     H89471   2.110  10.977  -0.623 -0.7612 -0.6192  0.0025
  663MOL0     H89472   2.108  11.146  -0.581 -0.2453 -0.7464  0.5464
  663MOL0     H89473   1.964  11.207  -0.750  1.5773 -0.4163  0.8408
  663MOL0     H89474   1.981  11.043  -0.830  1.4125  0.4041  0.1813
  663MOL0     H89475   1.845  11.084  -0.562 -2.6727  1.2479 -2.4485
  663MOL0     H89476   1.893  10.935  -0.619  0.2083  0.3108 -0.2948
  663MOL0     H89477   1.640  11.065  -0.653 -0.1507  0.0329 -1.3419
  663MOL0     H89478   1.721  11.099  -0.798  0.0427  1.2409  1.1965
  663MOL0     H89479   1.680  10.820  -0.688 -5.1205 -0.9556 -0.3230
  663MOL0     H89480   1.725  10.870  -0.853 -0.3471  0.3928  0.7536
  663MOL0     H89481   1.454  10.936  -0.715 -0.5821  0.4552 -1.5210
  663MOL0     H89482   1.498  10.985  -0.872 -0.9106  1.8114  1.8013
  663MOL0     H89483   1.559  10.714  -0.871  4.6776  4.8134  1.7251
  663MOL0     H89484   1.413  10.783  -0.952  2.5061  0.3391 -1.7219
  663MOL0     H89485   1.439  10.689  -0.670  2.6513 -0.7464 -0.6800
  663MOL0     H89486   1.360  10.594  -0.802 -0.2929 -1.1296  1.6858
  663MOL0     H89487   2.320  11.163  -0.516  0.1249  0.2704  1.4765
  663MOL0     H89488   2.545  11.161  -0.472 -0.6382  0.7641  0.0200
  663MOL0     H89489   2.936  11.137  -0.481 -1.7406  0.0244 -2.8075
  663MOL0     H89490   3.155  11.167  -0.416  0.3428 -0.6922  1.1696
  663MOL0     H89491   4.668  10.892  -0.034 -1.2799  1.1280  1.4195
  663MOL0     H89492   4.886  10.797  -0.081 -3.8482 -0.0046 -1.0966
  663MOL0     H89493   5.459  10.807   0.238  0.9608  1.0266 -1.2641
  663MOL0     H89494   5.657  10.665   0.163  0.8720 -5.1029  0.2949
  663MOL0     H89495   5.797  10.594   0.003  0.2629  1.1850 -0.8475
  663MOL0     H89496   5.786  10.452   0.110 -3.3650 -1.6089  0.5197
  663MOL0     H89497   5.959  10.433  -0.082  0.3124  1.2165  2.3500
  663MOL0     H89498   5.818  10.399  -0.176  0.9604  1.4414 -0.1419
  663MOL0     H89499   5.734  10.206  -0.022 -1.6990  4.0937 -1.2553
  663MOL0     H89500   5.896  10.217   0.051 -0.8214 -3.6619 -0.2830
  663MOL0     H89501   5.862  10.165  -0.247 -0.1423  3.8355  1.2176
  663MOL0     H89502   5.878  10.034  -0.122  2.1253  0.3486  2.5683
  663MOL0     H89503   6.269  10.170  -0.115 -0.1469 -1.4946 -2.5963
  663MOL0     H89504   5.396  10.440  -0.084 -0.5860  2.3629 -1.6450
  663MOL0     H89505   5.199  10.548   0.009 -0.3096 -1.1000  0.4039
  664MOL0     O89506   5.005   0.929   0.573 -0.4292  0.5998 -0.2318
  664MOL0     C89507   5.034   0.830   0.506 -0.4569 -0.5351  0.9778
  664MOL0     O89508   4.940   0.742   0.450 -0.0631 -0.3390  0.1291
  664MOL0     C89509   4.803   0.735   0.489  0.1726 -0.0885 -1.4964
  664MOL0     C89510   4.750   0.814   0.594  0.3586 -0.0873 -0.1634
  664MOL0     C89511   4.615   0.812   0.632 -0.4412 -0.4079 -0.4212
  664MOL0     C89512   4.523   0.740   0.556  0.3999  0.2742  0.5550
  664MOL0     O89513   4.380   0.731   0.567 -0.2057 -0.4234 -0.5194
  664MOL0     C89514   4.327   0.793   0.678 -0.0868  0.1395 -0.4425
  664MOL0     C89515   4.169   0.784   0.682 -0.3067  1.6219 -0.0607
  664MOL0     C89516   4.123   0.663   0.774 -0.1797 -0.9767 -0.0514
  664MOL0     C89517   3.973   0.643   0.780  0.0459 -0.1948 -0.8002
  664MOL0     C89518   3.927   0.506   0.827 -0.2866 -0.0502  0.7099
  664MOL0     C89519   3.787   0.478   0.778  0.0242 -0.1402 -0.5895
  664MOL0     C89520   3.739   0.338   0.819  0.3053 -0.7434  0.1792
  664MOL0     C89521   3.584   0.318   0.808 -0.1026  0.1113  0.2826
  664MOL0     N89522   3.531   0.356   0.679  0.6920  0.2675  0.5278
  664MOL0     C89523   3.534   0.264   0.573 -0.2641 -0.0573  0.1051
  664MOL0     C89524   3.475   0.324   0.467  0.6906 -0.6072 -0.2170
  664MOL0     C89525   3.467   0.261   0.327 -0.1161  0.1159 -0.6035
  664MOL0     C89526   3.606   0.218   0.280 -0.0168  0.2474  0.9404
  664MOL0     C89527   3.623   0.206   0.122 -0.2330 -0.3236 -0.6167
  664MOL0     C89528   3.531   0.099   0.066  0.1910  0.1970 -0.8912
  664MOL0     O89529   3.397   0.132   0.080  0.4272  0.1462  0.4406
  664MOL0     C89530   3.302   0.044   0.027 -0.5663  0.0110 -0.3848
  664MOL0     C89531   3.327  -0.082  -0.024 -0.2678  0.2804 -0.2576
  664MOL0     C89532   3.223  -0.166  -0.074 -0.1452 -0.3539  0.3431
  664MOL0     C89533   3.269  -0.303  -0.133 -0.3108  0.7458  0.6153
  664MOL0     C89534   3.082  -0.132  -0.057 -0.1846 -0.0959  0.1615
  664MOL0     C89535   2.971  -0.218  -0.103 -1.0766  1.5240 -0.6170
  664MOL0     O89536   2.853  -0.159  -0.090 -0.5552 -0.3444 -0.7268
  664MOL0     C89537   2.740  -0.220  -0.125  0.0526 -0.6060  0.3118
  664MOL0     C89538   2.636  -0.189  -0.036 -1.0142  0.6971 -0.2104
  664MOL0     C89539   2.514  -0.242  -0.046 -0.8848 -0.4585 -1.3608
  664MOL0     C89540   2.478  -0.321  -0.154 -0.6046 -0.0825 -0.0176
  664MOL0     O89541   2.369  -0.403  -0.166  0.0475 -0.3518  0.4351
  664MOL0     C89542   2.253  -0.385  -0.086 -0.6808 -0.1645 -0.5165
  664MOL0     C89543   2.183  -0.245  -0.093  0.0005 -0.0564  0.3262
  664MOL0     C89544   2.153  -0.219  -0.248 -0.3989 -0.1969 -0.1161
  664MOL0     C89545   2.046  -0.315  -0.307  0.4043  0.1508 -0.3791
  664MOL0     C89546   1.909  -0.275  -0.270 -0.7114  0.3639  0.8486
  664MOL0     C89547   1.809  -0.387  -0.299 -0.2814 -0.2946  0.1952
  664MOL0     C89548   1.660  -0.344  -0.280 -0.2437  0.1615  0.7895
  664MOL0     C89549   1.572  -0.443  -0.343  0.6506 -0.0652  0.3909
  664MOL0    Cl89550   1.398  -0.387  -0.341  0.5122  0.4946 -0.1989
  664MOL0     C89551   2.580  -0.343  -0.251 -0.2987  0.6650  0.3819
  664MOL0     C89552   2.710  -0.296  -0.240 -0.4968 -0.5987 -0.9108
  664MOL0     O89553   2.989  -0.339  -0.130  0.1647  0.7905  0.0972
  664MOL0     C89554   3.063  -0.008   0.013 -0.5802  0.2519 -0.0939
  664MOL0     C89555   3.171   0.075   0.045  0.0715  0.0454 -0.1800
  664MOL0     N89556   3.437   0.451   0.516 -0.0769 -0.4398 -0.3832
  664MOL0     N89557   3.474   0.471   0.640  0.0489  0.5867  0.3126
  664MOL0     C89558   4.576   0.661   0.450 -0.1866 -0.3569  0.2483
  664MOL0     C89559   4.714   0.663   0.420  0.3110  0.7020 -0.1873
  664MOL0     C89560   5.172   0.795   0.479  0.0148  0.2286  0.4312
  664MOL0     C89561   5.280   0.871   0.530 -0.4776  0.1162 -0.1093
  664MOL0     C89562   5.418   0.850   0.497 -0.3367 -1.5166  1.5455
  664MOL0     C89563   5.457   0.741   0.424  0.0654  0.5309  0.2565
  664MOL0     O89564   5.588   0.711   0.410  0.0661 -0.2069  0.1478
  664MOL0     C89565   5.667   0.824   0.347  0.9019  0.4051 -0.2063
  664MOL0     C89566   5.797   0.765   0.311 -0.7201 -0.2846  0.3026
  664MOL0     C89567   5.797   0.642   0.216  0.5032 -0.3393 -0.5584
  664MOL0     C89568   5.704   0.660   0.094  0.0399  0.0587  0.2586
  664MOL0     C89569   5.737   0.782   0.021 -0.0604  0.3526  0.1530
  664MOL0     C89570   5.760   0.892  -0.033  0.0177  0.1629 -0.6654
  664MOL0     C89571   5.352   0.660   0.372  0.1629 -0.1482  0.1736
  664MOL0     C89572   5.215   0.690   0.392  0.7905  0.1777  0.1808
  664MOL0     H89573   4.812   0.865   0.667  0.5035 -1.9682  1.0865
  664MOL0     H89574   4.582   0.864   0.721 -2.8935 -1.1777 -0.8012
  664MOL0     H89575   4.367   0.749   0.770 -1.6475 -0.1840  0.1218
  664MOL0     H89576   4.345   0.900   0.666  0.1356  0.0786 -0.6510
  664MOL0     H89577   4.128   0.876   0.724 -1.1422  2.0621 -1.7519
  664MOL0     H89578   4.129   0.762   0.583 -0.4527  3.3623 -0.4185
  664MOL0     H89579   4.164   0.569   0.735 -0.9754 -2.9110  3.3539
  664MOL0     H89580   4.169   0.682   0.872  3.6524  1.3904 -2.0518
  664MOL0     H89581   3.930   0.713   0.852 -1.1336 -0.7187 -0.9688
  664MOL0     H89582   3.944   0.658   0.676 -0.2727  0.3365 -0.6372
  664MOL0     H89583   4.000   0.434   0.789 -0.0046 -0.4390  1.9364
  664MOL0     H89584   3.938   0.503   0.936  0.4316 -2.9095  0.6283
  664MOL0     H89585   3.715   0.554   0.809  2.0973  2.1160 -0.9418
  664MOL0     H89586   3.799   0.485   0.670  3.7068 -0.3939 -0.3351
  664MOL0     H89587   3.791   0.268   0.753 -1.5519  1.0745 -3.4777
  664MOL0     H89588   3.760   0.328   0.926  0.0405  3.3172  0.7484
  664MOL0     H89589   3.547   0.373   0.895  1.2304  2.7809 -0.7311
  664MOL0     H89590   3.561   0.214   0.832  4.0051 -1.1821 -0.5536
  664MOL0     H89591   3.589   0.171   0.578  0.1383  0.2062  0.7203
  664MOL0     H89592   3.398   0.177   0.329 -1.1633  0.9678  0.1096
  664MOL0     H89593   3.423   0.336   0.259 -0.0786  0.7025  0.0054
  664MOL0     H89594   3.640   0.128   0.332 -2.0101  0.6890  3.1739
  664MOL0     H89595   3.674   0.299   0.306 -0.7908  0.7703  1.3601
  664MOL0     H89596   3.729   0.196   0.097 -0.0501 -0.2225  0.0989
  664MOL0     H89597   3.615   0.304   0.075  1.9276  0.4164  0.4400
  664MOL0     H89598   3.554   0.005   0.118 -1.9285 -1.3993 -2.6589
  664MOL0     H89599   3.565   0.097  -0.038  0.8763  0.4922 -0.6767
  664MOL0     H89600   3.434  -0.099  -0.030 -0.0599  1.6470 -0.6482
  664MOL0     H89601   3.208  -0.345  -0.214  1.8738 -2.7489  0.5758
  664MOL0     H89602   3.373  -0.300  -0.167 -0.4311 -1.5672 -0.1891
  664MOL0     H89603   3.273  -0.369  -0.046 -0.0679 -0.3669 -0.2100
  664MOL0     H89604   2.663  -0.129   0.051  0.5834  0.4781 -0.5290
  664MOL0     H89605   2.448  -0.231   0.040  0.3530 -2.5878 -0.0628
  664MOL0     H89606   2.195  -0.475  -0.104 -2.2445  0.8107 -0.4847
  664MOL0     H89607   2.290  -0.393   0.017  0.8599 -1.4282 -1.1137
  664MOL0     H89608   2.079  -0.246  -0.058 -1.0443 -1.7429 -2.4465
  664MOL0     H89609   2.241  -0.160  -0.056  1.4516 -1.4255  1.3106
  664MOL0     H89610   2.243  -0.229  -0.310 -1.7895  1.0670 -2.4871
  664MOL0     H89611   2.125  -0.116  -0.270  1.3566  0.7222  1.6242
  664MOL0     H89612   2.039  -0.316  -0.417 -1.7166  1.9407 -0.3389
  664MOL0     H89613   2.071  -0.418  -0.278 -2.1023  0.1006  1.9813
  664MOL0     H89614   1.878  -0.189  -0.331  1.7371  0.9769  0.3656
  664MOL0     H89615   1.905  -0.252  -0.163  2.0283 -2.4300  1.6740
  664MOL0     H89616   1.821  -0.437  -0.396 -0.4057 -1.0040  0.5406
  664MOL0     H89617   1.836  -0.465  -0.228 -0.5899 -1.2477 -0.7063
  664MOL0     H89618   1.631  -0.259  -0.343 -0.9394 -1.6234 -1.3945
  664MOL0     H89619   1.635  -0.324  -0.175 -2.1195 -0.6523  0.5276
  664MOL0     H89620   1.581  -0.540  -0.293 -1.7592 -1.5209 -1.6815
  664MOL0     H89621   1.592  -0.471  -0.447 -2.3575 -2.1986  0.2455
  664MOL0     H89622   2.554  -0.413  -0.329 -3.1713 -0.5483  2.2595
  664MOL0     H89623   2.785  -0.330  -0.311  0.2547 -0.8309 -0.0306
  664MOL0     H89624   2.964   0.035   0.017  0.4306  2.7197 -0.0281
  664MOL0     H89625   3.140   0.176   0.072  0.4028  0.0669  0.1133
  664MOL0     H89626   4.508   0.592   0.400  0.3062 -1.5950  1.2360
  664MOL0     H89627   4.749   0.592   0.346 -0.3521 -1.6170  1.6329
  664MOL0     H89628   5.256   0.957   0.592  2.5947  1.1999 -0.2574
  664MOL0     H89629   5.500   0.907   0.541  0.2947 -1.4242  0.2750
  664MOL0     H89630   5.608   0.864   0.264 -1.1812 -2.6163 -0.3359
  664MOL0     H89631   5.677   0.900   0.425 -0.9015 -0.8372  1.3394
  664MOL0     H89632   5.849   0.737   0.403 -0.3475 -1.4443 -0.2363
  664MOL0     H89633   5.867   0.844   0.283  0.3977  0.4881  4.5973
  664MOL0     H89634   5.752   0.555   0.266 -0.0667 -0.6488 -1.5786
  664MOL0     H89635   5.897   0.611   0.184  0.3770 -1.6604  0.2204
  664MOL0     H89636   5.599   0.655   0.121 -0.5780  3.0603 -1.1757
  664MOL0     H89637   5.735   0.584   0.021 -0.4705  0.4505 -0.3788
  664MOL0     H89638   5.792   0.981  -0.083 -1.5735 -0.4390 -2.8913
  664MOL0     H89639   5.374   0.574   0.310  1.0104  0.4579 -0.3922
  664MOL0     H89640   5.138   0.616   0.374  0.6669 -0.1785  1.9545
  665MOL0     O89641   6.409   8.088  10.992 -0.3990  0.3606 -0.6168
  665MOL0     C89642   6.331   8.061  11.089 -0.9628 -0.0117  0.2049
  665MOL0     O89643   6.238   8.148  11.134  0.0749  0.3206 -0.5706
  665MOL0     C89644   6.174   8.249  11.069  0.0349 -0.1662 -0.2720
  665MOL0     C89645   6.097   8.327  11.148  0.2283 -1.3161 -0.0137
  665MOL0     C89646   6.027   8.440  11.097  0.9294 -0.0337  0.6416
  665MOL0     C89647   6.026   8.462  10.957  0.6239 -0.3336 -0.5181
  665MOL0     O89648   5.947   8.563  10.889 -0.3241  0.5477 -0.1990
  665MOL0     C89649   5.866   8.650  10.973  0.0326 -1.5145 -0.1841
  665MOL0     C89650   5.781   8.744  10.890 -0.0898 -0.5924 -0.7548
  665MOL0     C89651   5.829   8.795  10.749  0.1701  0.0868  0.2666
  665MOL0     C89652   5.762   8.928  10.707 -0.2535  0.5804 -0.7485
  665MOL0     C89653   5.746   8.957  10.557 -0.8660 -0.4460 -0.1453
  665MOL0     C89654   5.689   9.101  10.540  0.0460  0.5371 -0.2528
  665MOL0     C89655   5.649   9.128  10.394  0.4576  0.7724  0.3081
  665MOL0     C89656   5.630   9.280  10.374  0.6855 -0.9362 -0.2021
  665MOL0     N89657   5.585   9.299  10.236 -0.2714 -0.0150 -0.0673
  665MOL0     C89658   5.674   9.294  10.133  0.1461  0.1868 -0.9079
  665MOL0     C89659   5.598   9.304  10.021 -0.3264  0.3036 -0.5264
  665MOL0     C89660   5.637   9.301   9.881  0.2239 -0.7411 -0.1121
  665MOL0     C89661   5.680   9.445   9.841 -1.1462  0.5495  0.3039
  665MOL0     C89662   5.574   9.556   9.844 -0.0998  0.7323  0.2457
  665MOL0     C89663   5.505   9.541   9.713 -0.2679 -0.1693 -0.5620
  665MOL0     O89664   5.410   9.651   9.710  0.1020 -0.1685  0.1892
  665MOL0     C89665   5.281   9.621   9.740 -0.3408 -0.2031  0.0647
  665MOL0     C89666   5.236   9.519   9.818  0.1566  0.2693  0.0713
  665MOL0     C89667   5.103   9.494   9.852 -0.1655  0.6528 -0.3340
  665MOL0     C89668   5.076   9.372   9.936 -0.1824  0.1751 -1.5526
  665MOL0     C89669   5.000   9.563   9.791  0.4621 -0.3821 -0.3109
  665MOL0     C89670   4.857   9.550   9.824  0.8427  0.1372  0.3557
  665MOL0     O89671   4.790   9.667   9.815 -0.4208 -0.2133 -0.4228
  665MOL0     C89672   4.661   9.666   9.812  0.2396 -0.6544 -0.8577
  665MOL0     C89673   4.582   9.647   9.920  0.5544 -0.1996 -0.3661
  665MOL0     C89674   4.443   9.657   9.918  0.1364 -0.3329 -0.7908
  665MOL0     C89675   4.374   9.679   9.797 -0.5578 -0.3415 -0.2033
  665MOL0     O89676   4.239   9.655   9.806 -0.3622 -0.2077 -0.1817
  665MOL0     C89677   4.170   9.602   9.693 -0.0583  0.0296  0.6827
  665MOL0     C89678   4.116   9.708   9.597  1.4306 -0.7116 -0.7019
  665MOL0     C89679   4.068   9.659   9.461 -0.1660  0.2601  0.1724
  665MOL0     C89680   3.936   9.703   9.418 -0.4437  0.1040 -0.7028
  665MOL0     C89681   3.902   9.636   9.282  0.7592 -0.6767  0.4269
  665MOL0     C89682   3.766   9.695   9.230  0.2705  0.0160  0.2062
  665MOL0     C89683   3.639   9.645   9.311  0.1427  0.8890 -0.6720
  665MOL0     C89684   3.572   9.758   9.384  0.3003 -0.2535 -0.1809
  665MOL0    Cl89685   3.411   9.700   9.450  0.1465  0.3631  0.5960
  665MOL0     C89686   4.451   9.681   9.675 -0.9571  0.3631 -0.6768
  665MOL0     C89687   4.595   9.669   9.692  0.7389 -0.7737 -0.0559
  665MOL0     O89688   4.804   9.441   9.845  0.5215 -0.0520  0.0384
  665MOL0     C89689   5.044   9.669   9.706  0.1286 -0.0275 -0.5766
  665MOL0     C89690   5.178   9.703   9.688 -0.0584  0.4381 -1.0991
  665MOL0     N89691   5.464   9.303  10.057 -0.1696  0.5719 -0.2313
  665MOL0     N89692   5.457   9.302  10.187 -0.2732  0.0515 -0.0931
  665MOL0     C89693   6.100   8.374  10.871 -0.5195 -0.5130  0.3634
  665MOL0     C89694   6.180   8.271  10.930  1.1281  0.0632  0.3768
  665MOL0     C89695   6.345   7.937  11.169  0.0191 -0.9541  0.3368
  665MOL0     C89696   6.420   7.834  11.113  0.0503  0.3876  0.5007
  665MOL0     C89697   6.442   7.716  11.183 -0.6111 -0.5952  0.7763
  665MOL0     C89698   6.366   7.685  11.302 -0.2801 -0.2614 -0.7359
  665MOL0     O89699   6.388   7.567  11.379  0.9335  0.3579  0.3087
  665MOL0     C89700   6.494   7.477  11.335  0.0438  0.1658 -0.3376
  665MOL0     C89701   6.481   7.384  11.456  0.6600 -0.3969 -0.0231
  665MOL0     C89702   6.589   7.278  11.459  0.4900 -0.1898  0.0203
  665MOL0     C89703   6.606   7.221  11.599 -0.7041  0.2561  0.4061
  665MOL0     C89704   6.492   7.143  11.636  0.0981 -0.4389  0.0292
  665MOL0     C89705   6.383   7.096  11.663 -0.2230  0.0533 -0.4056
  665MOL0     C89706   6.279   7.788  11.346  0.2998  0.5673 -0.4645
  665MOL0     C89707   6.271   7.910  11.279 -0.5283  0.1506 -0.3085
  665MOL0     H89708   6.093   8.297  11.252 -1.5660 -0.4420  0.2031
  665MOL0     H89709   5.975   8.503  11.169  1.0018 -0.9248  1.4920
  665MOL0     H89710   5.795   8.597  11.036 -1.2662  1.3994  1.0053
  665MOL0     H89711   5.923   8.703  11.050 -1.1221  0.0184 -0.3389
  665MOL0     H89712   5.696   8.682  10.861  1.1482 -2.1828 -1.1071
  665MOL0     H89713   5.760   8.827  10.958 -1.4026 -1.0332 -0.5908
  665MOL0     H89714   5.935   8.821  10.750 -0.4556  3.0688  1.1578
  665MOL0     H89715   5.817   8.713  10.679  2.8839  1.2157 -1.6948
  665MOL0     H89716   5.666   8.938  10.758  0.6047  0.3951  0.9891
  665MOL0     H89717   5.820   9.009  10.752 -1.1204  1.0205 -0.3954
  665MOL0     H89718   5.841   8.945  10.504  0.3021  1.4129  1.4197
  665MOL0     H89719   5.680   8.880  10.516 -1.1493 -0.3494  0.1221
  665MOL0     H89720   5.612   9.108  10.617 -2.1704 -0.0490 -2.2856
  665MOL0     H89721   5.764   9.175  10.570 -0.9957  0.8849  1.6248
  665MOL0     H89722   5.720   9.092  10.318  0.3718  1.8227 -0.2860
  665MOL0     H89723   5.555   9.076  10.374  0.0129  1.7042 -0.0939
  665MOL0     H89724   5.728   9.326  10.390 -0.8961  2.4500  0.6745
  665MOL0     H89725   5.563   9.327  10.447  1.4532 -1.5627  0.9281
  665MOL0     H89726   5.782   9.293  10.144  0.2423  4.1348  0.1838
  665MOL0     H89727   5.721   9.231   9.876  1.2712  0.5217 -0.9987
  665MOL0     H89728   5.547   9.269   9.827 -1.6254  0.4128  2.1027
  665MOL0     H89729   5.727   9.444   9.743 -2.3819 -0.1808 -0.3007
  665MOL0     H89730   5.757   9.484   9.908 -1.2108  0.1936  0.5922
  665MOL0     H89731   5.619   9.656   9.848 -0.2698  0.9322 -1.8587
  665MOL0     H89732   5.503   9.541   9.927 -1.1944 -0.8977 -0.9290
  665MOL0     H89733   5.459   9.442   9.706  2.5939 -2.1564  3.8142
  665MOL0     H89734   5.579   9.554   9.634  1.4417  2.6093  1.2916
  665MOL0     H89735   5.318   9.459   9.856  1.7707  1.3115 -1.5881
  665MOL0     H89736   4.986   9.397   9.993  0.0818 -2.8100  0.3665
  665MOL0     H89737   5.059   9.284   9.873 -2.2448 -1.8933  1.5823
  665MOL0     H89738   5.150   9.356  10.015 -2.5619  2.6557  1.4318
  665MOL0     H89739   4.630   9.608  10.009 -0.1961  0.4334  0.3347
  665MOL0     H89740   4.387   9.634  10.008  0.3683  1.4910 -0.1410
  665MOL0     H89741   4.234   9.537   9.632  0.6000  2.2676 -1.1671
  665MOL0     H89742   4.092   9.530   9.721  0.1885 -1.0958 -1.3296
  665MOL0     H89743   4.030   9.753   9.648  2.4128  2.2590 -1.4647
  665MOL0     H89744   4.190   9.787   9.585  0.4766 -0.1114 -3.3055
  665MOL0     H89745   4.065   9.549   9.460 -4.9628  0.1207 -3.1472
  665MOL0     H89746   4.139   9.690   9.384 -2.0817  0.3303 -1.6565
  665MOL0     H89747   3.866   9.661   9.490  0.4373 -2.1205 -1.0661
  665MOL0     H89748   3.921   9.812   9.421 -1.6386 -0.0507 -0.5072
  665MOL0     H89749   3.879   9.529   9.283  3.1310 -1.2980 -1.2328
  665MOL0     H89750   3.980   9.650   9.206  0.7029  1.6159  0.7372
  665MOL0     H89751   3.773   9.804   9.226 -1.1838  0.1945  1.6952
  665MOL0     H89752   3.751   9.672   9.124  0.1322  1.4981 -0.1258
  665MOL0     H89753   3.656   9.560   9.376  1.3478  0.7450 -1.1539
  665MOL0     H89754   3.571   9.613   9.231 -0.4788  2.5802 -0.8650
  665MOL0     H89755   3.546   9.829   9.304 -1.3778 -2.2551 -1.5162
  665MOL0     H89756   3.624   9.809   9.466 -0.0597 -2.2123  1.3332
  665MOL0     H89757   4.395   9.693   9.584 -0.5939  0.8875 -0.8362
  665MOL0     H89758   4.651   9.662   9.599  0.0272 -2.3596 -0.3906
  665MOL0     H89759   4.969   9.734   9.663 -0.2409  0.7876  1.1825
  665MOL0     H89760   5.213   9.791   9.635 -1.4870  2.3086  0.8406
  665MOL0     H89761   6.093   8.391  10.764  3.1644  2.5691  0.4249
  665MOL0     H89762   6.251   8.218  10.866  0.4803 -0.2942 -0.0572
  665MOL0     H89763   6.480   7.839  11.023 -0.7081  1.1923  0.0275
  665MOL0     H89764   6.516   7.652  11.136 -2.0197 -0.8375 -1.2635
  665MOL0     H89765   6.480   7.428  11.237  0.9705  0.6954 -0.7472
  665MOL0     H89766   6.585   7.537  11.332 -0.3911  0.8676 -3.4041
  665MOL0     H89767   6.391   7.324  11.442  1.5488 -1.9820  0.8606
  665MOL0     H89768   6.481   7.448  11.545  1.6579  0.7143 -0.7935
  665MOL0     H89769   6.683   7.317  11.418  0.3691  0.4443  0.3395
  665MOL0     H89770   6.562   7.193  11.395  1.7480 -2.4128  2.2172
  665MOL0     H89771   6.610   7.306  11.668 -0.5848  1.2344 -0.7572
  665MOL0     H89772   6.685   7.146  11.604 -0.9466 -0.0429 -0.2405
  665MOL0     H89773   6.281   7.076  11.689  0.5403 -0.0206  2.9746
  665MOL0     H89774   6.213   7.767  11.429 -1.2847  2.3888 -1.1724
  665MOL0     H89775   6.201   7.981  11.321 -0.4485  1.3280 -2.1058
  666MOL0     O89776   9.325   0.655   7.097 -0.6551 -0.2480  0.0414
  666MOL0     C89777   9.385   0.607   7.001 -0.2091 -0.7683 -0.7539
  666MOL0     O89778   9.352   0.496   6.935 -0.3499  0.0594  0.0965
  666MOL0     C89779   9.224   0.443   6.951 -0.9760  0.7164 -0.9143
  666MOL0     C89780   9.111   0.527   6.950 -0.3912 -0.7823  0.2837
  666MOL0     C89781   8.984   0.489   6.981  0.4482  0.0128 -0.0959
  666MOL0     C89782   8.963   0.354   7.003  1.0500 -1.0504 -0.6491
  666MOL0     O89783   8.829   0.312   7.018  0.3152 -0.2679  0.0587
  666MOL0     C89784   8.792   0.221   7.117  0.4074  0.0084  0.1257
  666MOL0     C89785   8.658   0.258   7.173 -0.2887 -1.2531  0.0063
  666MOL0     C89786   8.547   0.307   7.067 -0.5037 -0.0298 -0.7536
  666MOL0     C89787   8.435   0.378   7.147 -0.7009 -0.5115 -0.0171
  666MOL0     C89788   8.338   0.441   7.049  1.0663 -0.1166  0.2680
  666MOL0     C89789   8.225   0.527   7.105  0.1796 -0.0970 -0.6504
  666MOL0     C89790   8.164   0.617   6.994  0.4930 -0.1601 -0.2444
  666MOL0     C89791   8.071   0.544   6.894 -0.1904  0.0895 -0.8894
  666MOL0     N89792   7.945   0.500   6.965 -0.6307 -0.2954 -0.1717
  666MOL0     C89793   7.844   0.578   6.996 -0.3784  0.1752 -0.3506
  666MOL0     C89794   7.757   0.511   7.066  0.4613  0.1711  0.6806
  666MOL0     C89795   7.632   0.573   7.119  0.5515  0.2633  0.6564
  666MOL0     C89796   7.671   0.695   7.205 -0.3723  0.2810 -1.0450
  666MOL0     C89797   7.768   0.671   7.324  0.5076  0.0008  0.8887
  666MOL0     C89798   7.793   0.811   7.386  0.5335 -0.5991  0.2169
  666MOL0     O89799   7.873   0.883   7.291  0.2355  0.8284 -0.3036
  666MOL0     C89800   8.008   0.865   7.296 -0.5212  1.0197  0.5137
  666MOL0     C89801   8.092   0.802   7.393 -0.0149 -0.4860 -0.0999
  666MOL0     C89802   8.236   0.797   7.378 -0.3445 -0.8946  0.2963
  666MOL0     C89803   8.310   0.725   7.488 -0.8035  0.0465  0.1145
  666MOL0     C89804   8.295   0.855   7.266  0.4859  0.2131  0.3730
  666MOL0     C89805   8.441   0.873   7.252  0.2916 -0.3357 -0.5468
  666MOL0     O89806   8.502   0.852   7.119  0.4224 -0.5527  0.2851
  666MOL0     C89807   8.643   0.864   7.116 -0.1987  0.5236 -0.2306
  666MOL0     C89808   8.735   0.766   7.159  0.1204  0.1439  0.4191
  666MOL0     C89809   8.872   0.773   7.143 -0.3329 -0.0470  0.3890
  666MOL0     C89810   8.924   0.892   7.087 -0.7588 -0.1261 -0.7085
  666MOL0     O89811   9.063   0.902   7.100 -0.3973  0.3132  0.0407
  666MOL0     C89812   9.123   1.021   7.054  1.0286 -0.1006 -0.5343
  666MOL0     C89813   9.270   1.012   7.024  0.5374 -0.4698  0.3175
  666MOL0     C89814   9.340   1.152   6.997 -0.2954 -0.6324 -0.4702
  666MOL0     C89815   9.492   1.126   7.016 -0.4747 -0.3854 -0.3700
  666MOL0     C89816   9.575   1.252   6.998  0.1115  0.6324 -0.0838
  666MOL0     C89817   9.695   1.231   6.910  0.3785 -0.4654 -0.2631
  666MOL0     C89818   9.779   1.366   6.885 -0.9540  0.5139  0.5244
  666MOL0     C89819   9.911   1.347   6.804  0.6653 -0.2118 -0.2476
  666MOL0    Cl89820   9.884   1.307   6.633  0.1727  0.4250  0.1933
  666MOL0     C89821   8.833   1.000   7.055 -0.2575 -0.3891  0.3339
  666MOL0     C89822   8.697   0.983   7.073 -1.1713  0.3320  0.2148
  666MOL0     O89823   8.497   0.926   7.355  0.0162  0.0363  0.4782
  666MOL0     C89824   8.213   0.918   7.172 -0.1616  0.2555  0.2484
  666MOL0     C89825   8.081   0.926   7.191 -0.0456 -0.6216  0.7702
  666MOL0     N89826   7.806   0.387   7.080  0.1927  0.3457  0.8810
  666MOL0     N89827   7.916   0.377   7.014  0.5473 -0.5735 -0.0397
  666MOL0     C89828   9.068   0.265   7.004 -0.5788  0.2685  0.1003
  666MOL0     C89829   9.203   0.311   6.987  0.2668 -0.1333  0.2271
  666MOL0     C89830   9.513   0.678   6.976 -0.2982  0.0534 -0.2822
  666MOL0     C89831   9.586   0.657   6.864 -0.2713 -0.7802  0.2765
  666MOL0     C89832   9.714   0.708   6.839 -0.2830  0.0289 -0.2571
  666MOL0     C89833   9.773   0.793   6.937  0.1409 -0.2871 -0.5911
  666MOL0     O89834   9.892   0.857   6.916  0.8682 -0.4900 -0.1953
  666MOL0     C89835   9.989   0.829   7.018  0.7805 -0.0115 -0.3281
  666MOL0     C89836  10.120   0.908   7.006  0.6914  0.2571 -0.1056
  666MOL0     C89837  10.196   0.892   7.141 -0.2976 -0.2339 -0.1373
  666MOL0     C89838  10.309   0.998   7.161  0.2857 -0.2716  0.1641
  666MOL0     C89839  10.380   0.986   7.285  0.3915 -0.1089  0.6886
  666MOL0     C89840  10.451   0.986   7.383 -0.0728  0.0814  0.1354
  666MOL0     C89841   9.691   0.826   7.047 -0.1294 -0.0348  0.1327
  666MOL0     C89842   9.567   0.772   7.065 -1.3143  0.4914  0.2982
  666MOL0     H89843   9.117   0.632   6.923 -0.9582 -0.7118  0.4307
  666MOL0     H89844   8.900   0.556   6.964  0.3887 -0.2392 -0.8324
  666MOL0     H89845   8.784   0.126   7.063  0.7846  1.2535 -2.2655
  666MOL0     H89846   8.865   0.204   7.197  2.0222  0.1029 -1.2582
  666MOL0     H89847   8.628   0.169   7.227 -0.3586 -1.4611 -0.3721
  666MOL0     H89848   8.682   0.348   7.231  1.5982 -0.0959 -2.3501
  666MOL0     H89849   8.586   0.379   6.995 -1.0681  0.3377 -0.6978
  666MOL0     H89850   8.506   0.220   7.013  0.1672 -2.0663  1.8131
  666MOL0     H89851   8.375   0.302   7.199  0.2762 -2.2182 -1.2883
  666MOL0     H89852   8.472   0.452   7.219  2.3166 -1.0729 -0.8836
  666MOL0     H89853   8.398   0.508   6.986  1.4726 -0.5620  0.1742
  666MOL0     H89854   8.290   0.363   6.989 -0.2041  0.5489  0.3871
  666MOL0     H89855   8.151   0.464   7.156  0.9638  0.9149  1.8746
  666MOL0     H89856   8.272   0.586   7.184 -1.4104  0.7219 -0.2687
  666MOL0     H89857   8.095   0.688   7.039 -0.0154 -1.3369  0.9212
  666MOL0     H89858   8.242   0.666   6.935  1.9649 -3.0423 -0.8739
  666MOL0     H89859   8.132   0.464   6.851  1.9649  0.1604  1.7299
  666MOL0     H89860   8.049   0.613   6.813  1.6547 -0.3007 -1.7785
  666MOL0     H89861   7.839   0.681   6.963  2.7314  0.3955 -0.4347
  666MOL0     H89862   7.556   0.608   7.049  1.6714  0.1236 -0.6547
  666MOL0     H89863   7.585   0.492   7.176  0.8413  0.4948  1.2398
  666MOL0     H89864   7.584   0.743   7.251 -0.5810 -1.8934  1.0428
  666MOL0     H89865   7.713   0.771   7.140 -1.1620  0.3401 -1.5034
  666MOL0     H89866   7.856   0.619   7.283 -1.4053 -0.7238 -2.7206
  666MOL0     H89867   7.725   0.615   7.407  1.4494 -1.3316  0.5236
  666MOL0     H89868   7.825   0.805   7.490  0.3953  0.3119  0.3197
  666MOL0     H89869   7.698   0.865   7.389  0.2855 -1.0152 -0.0353
  666MOL0     H89870   8.057   0.752   7.483  1.3271 -0.3125  0.5484
  666MOL0     H89871   8.371   0.645   7.446  4.0868  1.8267  3.0927
  666MOL0     H89872   8.388   0.786   7.533  1.4686 -1.3616 -1.6908
  666MOL0     H89873   8.242   0.677   7.559 -0.6760 -0.3151 -0.0033
  666MOL0     H89874   8.699   0.674   7.205  1.9896 -0.5693  0.5503
  666MOL0     H89875   8.948   0.705   7.179 -0.9615 -0.9467  0.0514
  666MOL0     H89876   9.088   1.039   6.952  1.0941  0.0594 -0.5281
  666MOL0     H89877   9.102   1.107   7.118  0.0273 -1.7783  1.5216
  666MOL0     H89878   9.329   0.969   7.106  3.7415  0.3664 -1.3645
  666MOL0     H89879   9.290   0.956   6.932  0.9149  2.2588 -1.3967
  666MOL0     H89880   9.309   1.241   7.052  0.7476  1.7473 -3.4483
  666MOL0     H89881   9.321   1.176   6.892  0.2782 -1.2353 -0.7204
  666MOL0     H89882   9.512   1.087   7.116  1.7233  0.8732 -0.2237
  666MOL0     H89883   9.534   1.045   6.956 -0.1262 -1.4522  1.2281
  666MOL0     H89884   9.613   1.270   7.099 -2.2336  0.4526  0.8934
  666MOL0     H89885   9.522   1.343   6.967  0.0201  0.6932  0.2403
  666MOL0     H89886   9.748   1.147   6.958  2.5513  1.9032  1.7553
  666MOL0     H89887   9.669   1.198   6.809 -0.3804  3.2431 -1.4020
  666MOL0     H89888   9.806   1.414   6.979  0.7778 -1.4060  1.0802
  666MOL0     H89889   9.711   1.422   6.820 -1.8914  0.2379  1.2473
  666MOL0     H89890   9.979   1.276   6.852 -0.6616 -0.7916  0.8422
  666MOL0     H89891   9.957   1.447   6.802 -1.7807  0.9868  0.3361
  666MOL0     H89892   8.863   1.104   7.044  0.7412 -0.6123  0.8519
  666MOL0     H89893   8.619   1.057   7.055 -0.3476  1.0296 -0.5702
  666MOL0     H89894   8.263   0.978   7.096 -0.9858 -0.6301 -1.0368
  666MOL0     H89895   8.027   0.975   7.110  1.2702  0.0179  0.2520
  666MOL0     H89896   9.044   0.163   7.032  2.5570  0.2087  3.2971
  666MOL0     H89897   9.282   0.236   6.986 -2.4715 -3.2997 -1.8147
  666MOL0     H89898   9.551   0.598   6.780  1.6531 -0.4739 -0.7838
  666MOL0     H89899   9.768   0.691   6.747  2.8850  2.7458  0.8836
  666MOL0     H89900   9.942   0.840   7.116  1.6926  1.8496 -0.0531
  666MOL0     H89901  10.016   0.723   7.013  0.9294  0.0205 -0.2093
  666MOL0     H89902  10.081   1.010   6.997  2.5410  1.2234  1.9106
  666MOL0     H89903  10.173   0.872   6.918 -0.3567 -2.0038  0.1158
  666MOL0     H89904  10.241   0.792   7.144 -0.3469 -0.2441  0.4401
  666MOL0     H89905  10.125   0.909   7.222 -1.0922 -0.9240 -0.6723
  666MOL0     H89906  10.254   1.093   7.153 -2.1714 -1.4465  2.0598
  666MOL0     H89907  10.381   0.985   7.079  1.4972 -0.5129  1.2508
  666MOL0     H89908  10.509   0.994   7.473  0.7360 -2.0928 -0.1288
  666MOL0     H89909   9.713   0.909   7.113 -0.9205 -0.8941  1.5295
  666MOL0     H89910   9.516   0.810   7.153 -1.6217 -2.9427  1.7358
  667MOL0     O89911   9.940  10.343   9.493 -0.0175  0.4337 -0.2281
  667MOL0     C89912   9.998  10.452   9.513  0.1405 -0.3175  0.1308
  667MOL0     O89913   9.943  10.564   9.566  0.0358 -0.7703 -0.5557
  667MOL0     C89914   9.806  10.574   9.563 -0.0220 -0.3103 -0.2184
  667MOL0     C89915   9.766  10.667   9.658  0.0088  0.8756 -0.2596
  667MOL0     C89916   9.630  10.704   9.672 -0.1488  0.7309  0.2064
  667MOL0     C89917   9.539  10.649   9.590 -0.8485  0.3467  0.1567
  667MOL0     O89918   9.409  10.709   9.605 -0.1722  0.6532  0.2478
  667MOL0     C89919   9.301  10.628   9.549 -0.4264 -1.1733 -0.0665
  667MOL0     C89920   9.164  10.681   9.592  0.7607  0.5799 -0.1584
  667MOL0     C89921   9.149  10.679   9.747 -0.1729  0.5249 -0.7410
  667MOL0     C89922   9.004  10.689   9.778 -0.3955 -0.3839  0.3371
  667MOL0     C89923   8.995  10.717   9.927 -0.1721 -0.0092 -0.2725
  667MOL0     C89924   8.854  10.695   9.983 -0.4470  0.6048  0.2455
  667MOL0     C89925   8.754  10.794   9.924 -0.4017  0.1654  0.2813
  667MOL0     C89926   8.617  10.793   9.980  0.1182  0.7093  0.6833
  667MOL0     N89927   8.541  10.671   9.940 -0.2783  0.0780 -0.3621
  667MOL0     C89928   8.543  10.542  10.000 -0.6462  0.3266 -0.5985
  667MOL0     C89929   8.449  10.473   9.935  0.4267  0.2801 -0.1823
  667MOL0     C89930   8.408  10.336   9.972 -0.0164  0.1905  0.1081
  667MOL0     C89931   8.345  10.267   9.857  0.3900  0.4416 -0.3035
  667MOL0     C89932   8.326  10.122   9.898  0.2605 -0.4478 -0.1536
  667MOL0     C89933   8.266  10.039   9.785  0.0137 -0.0910  0.3351
  667MOL0     O89934   8.155  10.105   9.725 -0.1884  0.1267  0.1182
  667MOL0     C89935   8.025  10.108   9.785 -0.0476 -0.3644 -0.0077
  667MOL0     C89936   7.988  10.019   9.891 -0.2912 -0.4358  0.9339
  667MOL0     C89937   7.858  10.012   9.929 -1.0616 -0.5101 -1.2247
  667MOL0     C89938   7.823   9.904  10.032 -1.0491 -0.1030 -0.5919
  667MOL0     C89939   7.761  10.102   9.861 -0.2184 -0.0569  0.3500
  667MOL0     C89940   7.613  10.097   9.882 -0.2302 -0.7083  0.0463
  667MOL0     O89941   7.543  10.212   9.835 -0.1611 -0.1576  0.7034
  667MOL0     C89942   7.406  10.218   9.836 -0.8337  0.0980  0.6043
  667MOL0     C89943   7.322  10.185   9.941 -1.7536  0.2711 -0.2591
  667MOL0     C89944   7.185  10.175   9.928  1.0091  0.0692  0.6082
  667MOL0     C89945   7.132  10.210   9.810  0.6454  0.3661 -0.5846
  667MOL0     O89946   6.990  10.223   9.801 -0.1670 -1.2001  0.7643
  667MOL0     C89947   6.897  10.159   9.893 -0.9262 -0.0225  0.2758
  667MOL0     C89948   6.780  10.102   9.814 -0.6597  0.1228 -0.4111
  667MOL0     C89949   6.709   9.982   9.872  0.0901 -0.1725 -1.0457
  667MOL0     C89950   6.559  10.000   9.880  0.1178  0.6316  0.0429
  667MOL0     C89951   6.495   9.860   9.904  0.3253  0.5500 -0.3296
  667MOL0     C89952   6.346   9.868   9.933 -0.4330 -1.3578  0.1781
  667MOL0     C89953   6.281   9.738   9.987  0.9267 -0.7326 -0.2908
  667MOL0     C89954   6.129   9.769  10.012 -0.1693 -0.6159  0.6161
  667MOL0    Cl89955   6.032   9.609   9.993 -0.5521  0.0947 -0.4642
  667MOL0     C89956   7.205  10.257   9.700 -0.7114  0.4457  0.9654
  667MOL0     C89957   7.344  10.263   9.715 -0.6215  0.2829 -0.0866
  667MOL0     O89958   7.556  10.002   9.938 -0.8638  0.2118 -0.0264
  667MOL0     C89959   7.808  10.184   9.763  0.3815 -0.2119  0.7354
  667MOL0     C89960   7.939  10.199   9.729  0.4751  0.5340  1.7128
  667MOL0     N89961   8.396  10.543   9.832 -1.1101 -0.2500  0.5741
  667MOL0     N89962   8.457  10.660   9.834  0.5166  0.5844 -0.8356
  667MOL0     C89963   9.582  10.539   9.503 -0.5574  0.2269  0.2382
  667MOL0     C89964   9.711  10.505   9.491 -0.3695  0.0832 -0.2730
  667MOL0     C89965  10.140  10.443   9.491 -0.6770 -0.3027  0.3572
  667MOL0     C89966  10.210  10.324   9.444  0.9776 -0.0861  1.1239
  667MOL0     C89967  10.351  10.316   9.455 -0.0277  0.0946  0.8958
  667MOL0     C89968  10.426  10.430   9.488 -0.4643 -0.5460 -0.0369
  667MOL0     O89969  10.557  10.441   9.526 -0.1636  0.1635 -0.5192
  667MOL0     C89970  10.644  10.321   9.513 -0.1577 -0.0870  0.5330
  667MOL0     C89971  10.661  10.269   9.374 -0.7204  0.3274  0.8180
  667MOL0     C89972  10.794  10.192   9.345  0.0457 -0.5562 -0.6377
  667MOL0     C89973  10.909  10.292   9.334 -0.0984 -0.4337  0.1671
  667MOL0     C89974  11.040  10.241   9.288  0.5902  0.2416  1.0671
  667MOL0     C89975  11.149  10.219   9.235 -0.0717 -0.2604 -1.3629
  667MOL0     C89976  10.356  10.543   9.526  0.0752 -0.1535 -0.6806
  667MOL0     C89977  10.218  10.554   9.522 -0.3684 -0.3200 -0.1919
  667MOL0     H89978   9.844  10.713   9.718  1.7717 -1.2389 -0.7916
  667MOL0     H89979   9.600  10.786   9.737 -1.7780  1.3291 -1.2195
  667MOL0     H89980   9.312  10.636   9.441  2.0436  0.2676  0.2284
  667MOL0     H89981   9.306  10.523   9.580 -1.4017 -2.2553 -3.1740
  667MOL0     H89982   9.149  10.780   9.548  3.3014  0.6259 -1.0926
  667MOL0     H89983   9.090  10.610   9.553 -0.8395  0.6924  2.4153
  667MOL0     H89984   9.194  10.587   9.785  2.2938  2.2099  0.6640
  667MOL0     H89985   9.207  10.758   9.795 -0.8578  0.8091 -0.3697
  667MOL0     H89986   8.960  10.779   9.734 -1.4332 -0.6299  0.8517
  667MOL0     H89987   8.947  10.599   9.754  0.0970 -0.3967 -0.8750
  667MOL0     H89988   9.058  10.648   9.983 -0.5723  0.3845  0.6968
  667MOL0     H89989   9.029  10.821   9.934  0.7413 -0.4128  2.0385
  667MOL0     H89990   8.827  10.589   9.980  1.6108 -0.2094  4.0147
  667MOL0     H89991   8.875  10.713  10.089  2.6127  1.1573 -0.3761
  667MOL0     H89992   8.795  10.892   9.951  2.1264 -1.1175  1.4241
  667MOL0     H89993   8.755  10.785   9.815  2.8231  0.4825  0.2025
  667MOL0     H89994   8.565  10.879   9.936  0.2699  0.5114  0.1037
  667MOL0     H89995   8.616  10.807  10.089 -1.7759  0.5696  0.7236
  667MOL0     H89996   8.604  10.511  10.084  0.1556  0.7009 -1.0305
  667MOL0     H89997   8.491  10.281  10.017 -0.3958  0.9209  1.7600
  667MOL0     H89998   8.335  10.342  10.053  0.4742 -2.4035  0.8142
  667MOL0     H89999   8.413  10.265   9.771  0.0948 -0.7915 -0.5254
  667MOL0     H90000   8.251  10.314   9.824  1.5697  1.7696 -1.9917
  667MOL0     H90001   8.259  10.121   9.985  0.5242 -1.1486  0.0493
  667MOL0     H90002   8.422  10.084   9.935  0.2980  1.8136  2.4743
  667MOL0     H90003   8.243   9.939   9.823  1.3681 -0.1557  1.0501
  667MOL0     H90004   8.346  10.019   9.712  1.3571  0.2530  1.6608
  667MOL0     H90005   8.060   9.943   9.920  1.5377  1.1793  0.8197
  667MOL0     H90006   7.757   9.947  10.108 -1.2494 -0.1922 -0.7148
  667MOL0     H90007   7.779   9.822   9.976  3.1938 -2.5749 -0.7259
  667MOL0     H90008   7.912   9.864  10.082 -1.6644  1.0767  1.5751
  667MOL0     H90009   7.368  10.160  10.036 -3.4582 -0.8804  0.2943
  667MOL0     H90010   7.127  10.144  10.014 -0.2675  1.3079  0.2422
  667MOL0     H90011   6.942  10.064   9.922 -3.0648 -1.5507 -1.1274
  667MOL0     H90012   6.869  10.220   9.980  3.6945  0.4274  1.7236
  667MOL0     H90013   6.707  10.180   9.794 -0.2108  0.0804 -2.3524
  667MOL0     H90014   6.819  10.061   9.720  2.4307  0.3415  0.6460
  667MOL0     H90015   6.754   9.958   9.969 -1.3786  2.4787  0.3981
  667MOL0     H90016   6.733   9.899   9.804  0.8106 -0.5178 -0.3957
  667MOL0     H90017   6.530  10.074   9.955 -2.6363  0.3518 -0.6401
  667MOL0     H90018   6.513  10.045   9.792 -0.7784  1.1873  0.7720
  667MOL0     H90019   6.543   9.801   9.983 -1.7922  1.4607  1.7548
  667MOL0     H90020   6.509   9.805   9.810 -0.2948 -0.0213 -0.0944
  667MOL0     H90021   6.342   9.950  10.005  0.6813  0.4089 -1.6459
  667MOL0     H90022   6.293   9.900   9.842 -0.1213 -0.4742  0.3006
  667MOL0     H90023   6.331   9.701  10.077  2.0442  2.1684  0.4228
  667MOL0     H90024   6.289   9.656   9.916 -2.6703 -3.0132  1.6555
  667MOL0     H90025   6.091   9.843   9.942 -0.6678  0.1215  1.6308
  667MOL0     H90026   6.115   9.815  10.111 -1.3015 -0.3707  0.3606
  667MOL0     H90027   7.157  10.283   9.607 -1.8773  0.4012  1.5407
  667MOL0     H90028   7.405  10.296   9.632  0.9884  0.2289  1.0373
  667MOL0     H90029   7.742  10.261   9.724  0.5085  0.2864  1.4859
  667MOL0     H90030   7.958  10.283   9.663  1.8513 -1.2161 -0.2793
  667MOL0     H90031   9.518  10.481   9.438  0.6310  0.9888 -1.6864
  667MOL0     H90032   9.739  10.431   9.416  0.2495  2.0868 -2.1124
  667MOL0     H90033  10.148  10.237   9.427 -2.5066  1.9425  2.4418
  667MOL0     H90034  10.395  10.220   9.428 -0.0007  0.5743 -0.8836
  667MOL0     H90035  10.745  10.352   9.538  0.6996 -1.9699 -0.3789
  667MOL0     H90036  10.613  10.247   9.587  0.1135  0.0359  0.7691
  667MOL0     H90037  10.646  10.354   9.306  3.5102 -0.6234 -1.6997
  667MOL0     H90038  10.586  10.192   9.353  0.5300 -0.6653 -0.1875
  667MOL0     H90039  10.781  10.131   9.255 -1.3046 -0.8948 -0.2300
  667MOL0     H90040  10.818  10.132   9.434  0.0671  1.1265  0.5312
  667MOL0     H90041  10.941  10.339   9.427  1.5659  0.0472 -0.6209
  667MOL0     H90042  10.869  10.374   9.274  0.1134 -1.5155 -1.5288
  667MOL0     H90043  11.246  10.213   9.190  0.1353  2.2009 -1.4003
  667MOL0     H90044  10.403  10.637   9.554 -4.9562  2.9512 -1.4838
  667MOL0     H90045  10.178  10.652   9.548  1.8836  0.7539 -0.5320
  668MOL0     O90046   2.654   6.707   0.139 -0.4753  0.6312 -0.2191
  668MOL0     C90047   2.642   6.584   0.163  0.2977 -0.2666  0.5826
  668MOL0     O90048   2.533   6.523   0.230  0.4821 -0.2487 -0.6740
  668MOL0     C90049   2.416   6.596   0.255  0.1227  0.9660 -0.3168
  668MOL0     C90050   2.292   6.550   0.200 -0.3310 -0.1672 -0.0025
  668MOL0     C90051   2.179   6.627   0.215 -0.1003  0.3827  0.6033
  668MOL0     C90052   2.174   6.736   0.303  0.4105  0.1624  0.1448
  668MOL0     O90053   2.052   6.795   0.329 -0.0982  0.5776 -0.0813
  668MOL0     C90054   2.034   6.879   0.446 -1.1660 -0.3488  0.1750
  668MOL0     C90055   1.890   6.922   0.464  0.3215 -0.1631  0.8333
  668MOL0     C90056   1.844   6.942   0.611 -0.5475  0.3761  0.2887
  668MOL0     C90057   1.843   7.089   0.655 -0.6139  0.2938 -0.0654
  668MOL0     C90058   1.811   7.084   0.805  0.5694  0.2260  0.0315
  668MOL0     C90059   1.772   7.222   0.865 -0.4786  0.2304 -0.1667
  668MOL0     C90060   1.748   7.202   1.016  0.1675 -0.4283 -0.0936
  668MOL0     C90061   1.609   7.260   1.041  0.4211  0.3230  0.6416
  668MOL0     N90062   1.575   7.252   1.182  0.5083 -0.3706  0.8782
  668MOL0     C90063   1.482   7.340   1.239  0.0685  0.4396 -0.0271
  668MOL0     C90064   1.471   7.276   1.360  0.2117 -0.0620 -0.5311
  668MOL0     C90065   1.392   7.329   1.480 -0.3725  0.1182  0.0312
  668MOL0     C90066   1.248   7.269   1.492  0.3406  0.6838  0.3634
  668MOL0     C90067   1.181   7.332   1.620 -0.4761 -0.8654  0.6024
  668MOL0     C90068   1.045   7.272   1.645  0.2843  0.1972  0.0290
  668MOL0     O90069   0.982   7.356   1.753 -0.3048 -0.5360 -0.0722
  668MOL0     C90070   0.872   7.303   1.817 -0.1687 -0.0706 -0.4344
  668MOL0     C90071   0.773   7.231   1.748  0.0350  0.3905 -0.0546
  668MOL0     C90072   0.645   7.196   1.800 -0.6441  0.7603 -0.4551
  668MOL0     C90073   0.556   7.116   1.709 -0.1018  0.6070 -0.0294
  668MOL0     C90074   0.617   7.222   1.947  0.0423 -0.4245 -0.4131
  668MOL0     C90075   0.480   7.199   2.010 -1.2560 -0.3970  0.2296
  668MOL0     O90076   0.487   7.190   2.144 -0.7266 -0.0511 -0.3550
  668MOL0     C90077   0.386   7.132   2.211 -0.2478 -0.7165 -0.5483
  668MOL0     C90078   0.407   7.036   2.307  0.2306  0.2547  0.5104
  668MOL0     C90079   0.291   6.993   2.375  0.0753 -0.3907 -0.4082
  668MOL0     C90080   0.163   7.042   2.345  0.0633 -0.4747  0.1260
  668MOL0     O90081   0.050   7.012   2.419 -0.5271 -1.1897 -0.1793
  668MOL0     C90082  -0.058   6.965   2.337 -0.2590  0.3171  0.3272
  668MOL0     C90083  -0.131   6.843   2.401 -0.6474  0.0701 -0.7321
  668MOL0     C90084  -0.206   6.887   2.532 -0.3353  0.0906  0.1835
  668MOL0     C90085  -0.337   6.948   2.494  0.2064  0.0439 -0.2963
  668MOL0     C90086  -0.404   6.985   2.633  0.5644 -0.2637 -0.1703
  668MOL0     C90087  -0.536   7.046   2.599  0.6815 -0.1207 -0.5368
  668MOL0     C90088  -0.626   7.045   2.721 -0.4930 -0.0365  0.6053
  668MOL0     C90089  -0.714   6.919   2.726  0.4420 -0.0056  0.7816
  668MOL0    Cl90090  -0.840   6.926   2.585  0.2911 -0.0763  0.0465
  668MOL0     C90091   0.152   7.140   2.251 -0.7058 -0.9985  0.8492
  668MOL0     C90092   0.263   7.190   2.186  0.1933  0.4108  0.7822
  668MOL0     O90093   0.387   7.180   1.935  0.2884  0.2576 -0.6400
  668MOL0     C90094   0.720   7.291   2.012 -0.0748  0.0422  0.1514
  668MOL0     C90095   0.835   7.340   1.946 -0.2182 -0.1595 -0.4971
  668MOL0     N90096   1.545   7.165   1.377  0.2951  0.4339  0.4726
  668MOL0     N90097   1.607   7.152   1.273 -0.1273 -0.1424 -0.0092
  668MOL0     C90098   2.291   6.786   0.359 -0.0192 -0.5908 -0.6088
  668MOL0     C90099   2.409   6.708   0.342  0.6103  0.6398 -0.8875
  668MOL0     C90100   2.746   6.495   0.124 -0.0614 -0.5377  1.1185
  668MOL0     C90101   2.884   6.532   0.112  0.8889  0.1448  0.4568
  668MOL0     C90102   2.977   6.439   0.079  0.0980  0.4497  0.7585
  668MOL0     C90103   2.940   6.308   0.040 -0.8916  0.1681  0.5852
  668MOL0     O90104   3.018   6.212  -0.014 -0.0760  0.3504  0.3741
  668MOL0     C90105   3.159   6.243  -0.042  0.0580  0.0787 -0.2728
  668MOL0     C90106   3.213   6.158  -0.150  0.5626 -0.2288  0.8256
  668MOL0     C90107   3.357   6.183  -0.196 -0.6509  0.0810 -0.5742
  668MOL0     C90108   3.438   6.054  -0.237  0.6293 -0.0013  0.6901
  668MOL0     C90109   3.374   5.967  -0.342  1.4542 -0.5514  1.4568
  668MOL0     C90110   3.298   5.921  -0.426  0.1522 -0.9475 -0.7341
  668MOL0     C90111   2.806   6.273   0.049 -0.1060  0.3578 -0.8521
  668MOL0     C90112   2.711   6.365   0.092  0.2953  0.1677 -0.0104
  668MOL0     H90113   2.287   6.466   0.132 -0.1085 -2.7026  2.8891
  668MOL0     H90114   2.090   6.601   0.158  0.1994  0.5497  0.0446
  668MOL0     H90115   2.071   6.822   0.532  0.5178  0.7479  0.2231
  668MOL0     H90116   2.091   6.973   0.441  0.1809 -1.1925 -1.9713
  668MOL0     H90117   1.880   7.008   0.397 -0.9746  0.7435  2.1231
  668MOL0     H90118   1.828   6.842   0.424 -0.2113 -1.8394  4.5264
  668MOL0     H90119   1.739   6.911   0.614 -0.0049 -1.5324  1.3914
  668MOL0     H90120   1.900   6.874   0.675  1.2279  2.1406  0.7002
  668MOL0     H90121   1.942   7.126   0.626 -1.1166 -0.6475 -3.4489
  668MOL0     H90122   1.766   7.141   0.597 -2.0828 -0.0553  1.4976
  668MOL0     H90123   1.729   7.015   0.827  0.8150  0.8225  3.3852
  668MOL0     H90124   1.891   7.039   0.864 -0.0818 -0.0795  0.6987
  668MOL0     H90125   1.847   7.300   0.852 -1.8686  1.2834 -2.3057
  668MOL0     H90126   1.686   7.269   0.818  1.4626  1.8413 -2.3184
  668MOL0     H90127   1.749   7.098   1.048 -1.6001 -0.0982  1.1845
  668MOL0     H90128   1.817   7.267   1.070  2.4381 -0.7366 -2.4320
  668MOL0     H90129   1.535   7.199   0.988  2.2264 -0.8381 -0.6711
  668MOL0     H90130   1.603   7.366   1.017  3.5415  0.4727 -0.0314
  668MOL0     H90131   1.443   7.434   1.199  0.2711  0.4125 -0.2954
  668MOL0     H90132   1.448   7.300   1.570 -2.6526  1.9641  2.1690
  668MOL0     H90133   1.399   7.437   1.492 -0.6996  0.0936  0.4501
  668MOL0     H90134   1.253   7.160   1.492  0.2901  0.6356  2.8040
  668MOL0     H90135   1.186   7.301   1.408  0.4154  1.8432  0.7260
  668MOL0     H90136   1.166   7.440   1.616 -0.0828 -0.8435 -0.6405
  668MOL0     H90137   1.245   7.311   1.706 -0.6515  0.8836  1.1917
  668MOL0     H90138   1.054   7.167   1.672  1.3568  0.0602 -0.7789
  668MOL0     H90139   0.989   7.281   1.552  0.2128  0.9510  0.1385
  668MOL0     H90140   0.797   7.211   1.644 -1.1165  1.5450 -0.5744
  668MOL0     H90141   0.511   7.183   1.635  1.3075 -0.1845 -1.6858
  668MOL0     H90142   0.622   7.054   1.647 -0.0771  1.9743 -1.4162
  668MOL0     H90143   0.486   7.047   1.757 -0.0100  0.1499 -0.5472
  668MOL0     H90144   0.509   7.001   2.320  0.1804  0.4093  1.3937
  668MOL0     H90145   0.290   6.914   2.449  2.0958 -2.8907 -2.8183
  668MOL0     H90146  -0.130   7.045   2.321  0.2017  0.7402  0.3643
  668MOL0     H90147  -0.018   6.932   2.240 -1.3820 -3.6464  1.0080
  668MOL0     H90148  -0.205   6.793   2.336 -0.0547 -0.1763 -1.2301
  668MOL0     H90149  -0.052   6.771   2.424 -1.7914 -0.7281  0.8610
  668MOL0     H90150  -0.152   6.957   2.596 -1.9998  0.8673  0.7911
  668MOL0     H90151  -0.234   6.799   2.592  2.2268 -1.3765 -0.6450
  668MOL0     H90152  -0.320   7.030   2.424  2.5077 -1.2436 -1.3515
  668MOL0     H90153  -0.391   6.875   2.432 -1.0106 -0.1596  0.9386
  668MOL0     H90154  -0.346   7.056   2.692  0.4112 -2.1555  2.4587
  668MOL0     H90155  -0.428   6.897   2.693 -0.6168  1.3952  1.9250
  668MOL0     H90156  -0.508   7.151   2.583  2.0262 -0.0758  1.6645
  668MOL0     H90157  -0.585   7.010   2.509  0.6227 -0.0063 -0.5519
  668MOL0     H90158  -0.680   7.140   2.717  0.0398  0.2739  0.5285
  668MOL0     H90159  -0.572   7.055   2.815  0.6815 -1.3378  0.1131
  668MOL0     H90160  -0.758   6.915   2.826 -1.7513  0.3032 -0.1149
  668MOL0     H90161  -0.647   6.834   2.710  2.4090  1.7040 -0.6428
  668MOL0     H90162   0.063   7.193   2.218  1.4221  3.0277  0.9323
  668MOL0     H90163   0.242   7.275   2.121  0.8325 -0.0074  0.0088
  668MOL0     H90164   0.716   7.327   2.114 -3.2544  0.3180  0.0195
  668MOL0     H90165   0.907   7.389   2.011 -0.1110 -0.4188 -0.4218
  668MOL0     H90166   2.298   6.872   0.424 -2.2469  0.7448 -2.0062
  668MOL0     H90167   2.498   6.745   0.392 -0.3007  3.2138 -1.0448
  668MOL0     H90168   2.914   6.628   0.152  0.1035  0.3238  0.6362
  668MOL0     H90169   3.081   6.471   0.075  0.1811  0.1772  0.7368
  668MOL0     H90170   3.166   6.347  -0.077 -1.1971 -0.4100 -2.1115
  668MOL0     H90171   3.219   6.234   0.049 -0.6098  2.7195  0.5224
  668MOL0     H90172   3.151   6.171  -0.239  3.3080 -1.0895 -1.3436
  668MOL0     H90173   3.193   6.056  -0.114 -1.7347  0.1635  0.8076
  668MOL0     H90174   3.412   6.232  -0.116  0.1049 -2.3488  0.4656
  668MOL0     H90175   3.359   6.233  -0.294 -1.8590 -1.2253 -1.3074
  668MOL0     H90176   3.447   5.995  -0.146  0.8607 -0.8380  0.1428
  668MOL0     H90177   3.538   6.064  -0.280 -0.2515 -3.3928 -2.7833
  668MOL0     H90178   3.237   5.869  -0.497  2.0830 -0.3852 -2.9179
  668MOL0     H90179   2.771   6.173   0.025  2.7085 -0.4680 -1.8999
  668MOL0     H90180   2.607   6.333   0.095  0.5021 -0.5702  3.5370
  669MOL0     O90181  10.424   2.706   8.588  0.1194 -1.4709 -0.5451
  669MOL0     C90182  10.439   2.797   8.666 -0.5488  0.1722 -0.1661
  669MOL0     O90183  10.352   2.837   8.768 -0.2683  0.8564  0.4257
  669MOL0     C90184  10.227   2.776   8.784  0.1668  0.0258  0.2832
  669MOL0     C90185  10.186   2.792   8.916 -0.1927 -0.0780  0.0947
  669MOL0     C90186  10.056   2.756   8.952 -0.7826 -0.2577  0.1736
  669MOL0     C90187   9.969   2.689   8.863 -0.4775 -0.9525 -0.3083
  669MOL0     O90188   9.845   2.666   8.913  0.1083  0.5655 -0.3221
  669MOL0     C90189   9.742   2.626   8.821  0.1032 -0.2078 -0.1482
  669MOL0     C90190   9.611   2.611   8.901  0.1307  0.0544  0.7188
  669MOL0     C90191   9.507   2.559   8.799  0.0965  0.4100 -1.0749
  669MOL0     C90192   9.365   2.571   8.846 -0.4026  1.2171 -0.6769
  669MOL0     C90193   9.253   2.537   8.733 -0.0367  0.9653 -0.1143
  669MOL0     C90194   9.251   2.385   8.700 -0.1121  0.3200 -0.6605
  669MOL0     C90195   9.135   2.343   8.607  0.4266  0.0033  0.7695
  669MOL0     C90196   9.183   2.215   8.525  0.0083 -0.3225  0.4823
  669MOL0     N90197   9.073   2.174   8.435  0.5617  0.1777 -0.0634
  669MOL0     C90198   8.945   2.144   8.477 -0.1482  0.8476 -0.7477
  669MOL0     C90199   8.870   2.114   8.363  0.2706 -0.9474 -0.3405
  669MOL0     C90200   8.725   2.076   8.354  0.9050  0.1899 -0.1804
  669MOL0     C90201   8.632   2.149   8.452 -0.5898  0.2598  0.5235
  669MOL0     C90202   8.650   2.299   8.441  0.9922 -1.0355  0.1503
  669MOL0     C90203   8.599   2.371   8.318  0.1980  0.4382  0.7035
  669MOL0     O90204   8.634   2.509   8.313 -0.6179  0.6255  0.1191
  669MOL0     C90205   8.555   2.602   8.246 -0.1598  0.2732 -0.2284
  669MOL0     C90206   8.615   2.724   8.223 -0.3688  0.3440 -0.2086
  669MOL0     C90207   8.545   2.830   8.161  0.5522  0.2975  0.0823
  669MOL0     C90208   8.619   2.955   8.127  0.0914 -0.0589  0.2290
  669MOL0     C90209   8.410   2.819   8.129 -0.5326  0.4474  0.4506
  669MOL0     C90210   8.327   2.914   8.050  0.0170 -0.3334  0.8211
  669MOL0     O90211   8.208   2.862   8.021  0.1419 -0.2037 -1.0478
  669MOL0     C90212   8.098   2.939   7.978  0.5709 -0.2969  0.3198
  669MOL0     C90213   8.079   3.085   7.978 -0.2531  0.3089 -0.0600
  669MOL0     C90214   7.956   3.145   7.940  0.1231 -0.0375 -0.4491
  669MOL0     C90215   7.849   3.067   7.900 -0.6071  0.0301 -0.5758
  669MOL0     O90216   7.732   3.132   7.883  0.1622  0.1484  0.7122
  669MOL0     C90217   7.681   3.154   7.749 -0.4201 -0.5666 -0.3907
  669MOL0     C90218   7.576   3.265   7.740  0.0175 -0.2238 -0.3780
  669MOL0     C90219   7.503   3.261   7.603  0.9418  0.2686  0.4219
  669MOL0     C90220   7.367   3.200   7.619 -0.4535  0.5002  0.3325
  669MOL0     C90221   7.271   3.215   7.494 -0.2215 -0.6181  0.4956
  669MOL0     C90222   7.131   3.179   7.542 -0.5875  0.3504 -0.5508
  669MOL0     C90223   7.036   3.182   7.426 -0.9161 -0.8972  0.0986
  669MOL0     C90224   6.897   3.132   7.463 -0.4799 -0.8804 -0.1119
  669MOL0    Cl90225   6.809   3.226   7.580  0.4113 -0.2676 -0.1700
  669MOL0     C90226   7.863   2.928   7.888 -0.4791 -0.1161  0.1256
  669MOL0     C90227   7.986   2.866   7.938  0.0074  0.0545 -0.6983
  669MOL0     O90228   8.369   3.021   7.998  0.4117  0.3192  0.0421
  669MOL0     C90229   8.348   2.692   8.150 -0.1576 -0.5521 -0.1014
  669MOL0     C90230   8.423   2.587   8.200  0.2813  0.1481 -0.0349
  669MOL0     N90231   8.954   2.125   8.254  0.5050 -0.9072  0.1236
  669MOL0     N90232   9.077   2.164   8.296  0.1423 -0.5632  0.0901
  669MOL0     C90233  10.017   2.667   8.734  0.5876 -0.4784 -0.2559
  669MOL0     C90234  10.144   2.701   8.697  0.1508 -0.3112  0.2888
  669MOL0     C90235  10.562   2.880   8.652  0.2858 -0.0874  0.5830
  669MOL0     C90236  10.658   2.850   8.555 -0.4537  0.8059 -0.3049
  669MOL0     C90237  10.770   2.932   8.537 -0.0869 -0.0376 -0.4334
  669MOL0     C90238  10.788   3.054   8.607 -0.6776 -0.6542 -0.2945
  669MOL0     O90239  10.901   3.135   8.630  0.0839  0.0919  0.2241
  669MOL0     C90240  10.959   3.172   8.508  0.9551 -0.3385 -0.5955
  669MOL0     C90241  11.063   3.295   8.538  0.2567  0.2647 -0.6171
  669MOL0     C90242  11.114   3.358   8.411  0.0612  0.0380 -0.2718
  669MOL0     C90243  11.179   3.254   8.314  1.0083 -0.4332  0.7204
  669MOL0     C90244  11.305   3.204   8.358  0.0574  0.5266 -0.1819
  669MOL0     C90245  11.411   3.178   8.398 -0.3780 -0.6265 -0.0634
  669MOL0     C90246  10.686   3.088   8.703  0.4600  0.3974 -0.7538
  669MOL0     C90247  10.578   3.004   8.723  0.5459  0.7281 -0.1207
  669MOL0     H90248  10.236   2.851   8.993 -1.2008  0.8110  0.0895
  669MOL0     H90249  10.026   2.776   9.055  0.9901 -4.5196  1.7334
  669MOL0     H90250   9.733   2.707   8.749 -0.0529  0.8003  0.9741
  669MOL0     H90251   9.776   2.535   8.771 -0.5192  0.0865 -1.1246
  669MOL0     H90252   9.636   2.546   8.986  1.5301 -0.0541  0.2548
  669MOL0     H90253   9.597   2.714   8.933 -0.4659  0.1508  0.1687
  669MOL0     H90254   9.522   2.620   8.709 -0.7961 -0.6313 -1.9607
  669MOL0     H90255   9.529   2.455   8.773 -0.2893  0.1139 -0.2434
  669MOL0     H90256   9.335   2.512   8.932 -0.2042  3.1543  0.8010
  669MOL0     H90257   9.342   2.673   8.880 -0.9774  0.9609 -0.2946
  669MOL0     H90258   9.154   2.555   8.776 -0.2677  0.2193 -0.3182
  669MOL0     H90259   9.249   2.585   8.635 -1.5720 -0.4108 -0.7701
  669MOL0     H90260   9.341   2.361   8.644 -0.9433 -0.5688 -1.6611
  669MOL0     H90261   9.249   2.317   8.786  0.3888 -1.0003 -1.6829
  669MOL0     H90262   9.051   2.325   8.675  0.1166  4.4581  1.8266
  669MOL0     H90263   9.117   2.419   8.530  0.5389 -0.5172  0.2183
  669MOL0     H90264   9.204   2.142   8.604  3.2546 -0.1046 -0.0509
  669MOL0     H90265   9.276   2.221   8.468  0.2245 -2.4375  0.5484
  669MOL0     H90266   8.898   2.146   8.575  0.1612 -1.2292 -0.5117
  669MOL0     H90267   8.697   2.076   8.249  0.2469 -0.5091 -0.0116
  669MOL0     H90268   8.713   1.969   8.372  2.7771  0.0756  0.6693
  669MOL0     H90269   8.660   2.128   8.555 -2.0749  4.8724  2.1391
  669MOL0     H90270   8.528   2.124   8.430  0.1746 -0.5112 -2.9060
  669MOL0     H90271   8.754   2.331   8.438  0.5618  0.4190 -0.0762
  669MOL0     H90272   8.599   2.349   8.524  1.7668  1.8769 -0.9870
  669MOL0     H90273   8.491   2.353   8.326  0.6206 -2.3756  1.0787
  669MOL0     H90274   8.629   2.313   8.230  1.2471 -1.8126  2.4372
  669MOL0     H90275   8.721   2.734   8.247  0.2689 -1.3616 -2.0798
  669MOL0     H90276   8.559   3.046   8.132  1.0820  0.5545  1.9232
  669MOL0     H90277   8.698   2.967   8.202 -1.4049  1.9716  1.5715
  669MOL0     H90278   8.664   2.941   8.028 -0.3684 -1.8316  0.2350
  669MOL0     H90279   8.158   3.153   8.007 -0.4672  0.4322  0.2401
  669MOL0     H90280   7.954   3.251   7.963  0.1643 -0.4226  1.4837
  669MOL0     H90281   7.766   3.168   7.682 -1.0096 -2.1354 -1.5286
  669MOL0     H90282   7.631   3.066   7.709  0.7126 -1.2813 -0.2687
  669MOL0     H90283   7.512   3.268   7.830 -1.2355  0.8711 -1.2588
  669MOL0     H90284   7.637   3.356   7.737  1.4336 -1.1211  0.3923
  669MOL0     H90285   7.562   3.208   7.527 -0.0116  0.1603 -0.2635
  669MOL0     H90286   7.501   3.365   7.568  1.4887  0.8781  2.1268
  669MOL0     H90287   7.374   3.096   7.651 -0.3292  1.4231  3.6068
  669MOL0     H90288   7.321   3.250   7.705  3.3271  2.0843  1.6623
  669MOL0     H90289   7.307   3.151   7.414  0.7086 -0.9797  1.1831
  669MOL0     H90290   7.274   3.321   7.466  2.1049 -0.8297 -0.2674
  669MOL0     H90291   7.120   3.084   7.595 -3.0364  0.4040 -0.8218
  669MOL0     H90292   7.100   3.250   7.619  1.3918  0.5223  0.1231
  669MOL0     H90293   7.069   3.115   7.346 -2.9460  1.1090 -2.6032
  669MOL0     H90294   7.045   3.284   7.388 -0.7634 -1.5087 -1.5809
  669MOL0     H90295   6.900   3.034   7.510 -0.0404  0.2509  2.3523
  669MOL0     H90296   6.844   3.108   7.370  2.4193  1.2125 -2.5220
  669MOL0     H90297   7.779   2.864   7.863 -0.2630 -1.0330  1.6751
  669MOL0     H90298   8.008   2.760   7.928  0.9390  0.3760 -2.2627
  669MOL0     H90299   8.243   2.672   8.133 -0.8979  2.5630  0.1353
  669MOL0     H90300   8.371   2.497   8.230 -0.3567  0.8024  0.9151
  669MOL0     H90301   9.957   2.612   8.662  1.9761 -0.3206 -1.5861
  669MOL0     H90302  10.172   2.678   8.594  0.8810  2.2300 -0.1608
  669MOL0     H90303  10.635   2.771   8.485  0.6011  1.2216 -1.1398
  669MOL0     H90304  10.848   2.896   8.471  0.2036  2.2497 -1.4457
  669MOL0     H90305  11.005   3.080   8.472 -0.9619 -1.6095  0.0562
  669MOL0     H90306  10.877   3.200   8.441  2.7922  0.9008 -2.4262
  669MOL0     H90307  11.142   3.250   8.599 -0.6721 -0.3263  0.1704
  669MOL0     H90308  11.011   3.375   8.592 -3.3592 -1.6850 -0.9109
  669MOL0     H90309  11.195   3.423   8.445  0.3394 -1.0375  1.2036
  669MOL0     H90310  11.041   3.413   8.351  0.6161  0.5584 -0.4803
  669MOL0     H90311  11.191   3.300   8.215 -1.2211  0.1408  0.6682
  669MOL0     H90312  11.116   3.166   8.300 -1.0391  0.4753  3.4841
  669MOL0     H90313  11.512   3.176   8.434  0.2542  1.7849 -1.5328
  669MOL0     H90314  10.690   3.174   8.770 -0.6108 -0.5650  0.6010
  669MOL0     H90315  10.503   3.033   8.795 -1.7474 -0.6751 -1.8176
  670MOL0     O90316   4.467   4.487   8.566  0.7548 -0.3789  0.0304
  670MOL0     C90317   4.505   4.437   8.456  0.3627 -0.6673  0.8312
  670MOL0     O90318   4.435   4.437   8.334 -0.5176  0.1675 -0.7540
  670MOL0     C90319   4.312   4.502   8.334 -0.7889  0.5291  0.4939
  670MOL0     C90320   4.193   4.439   8.282 -0.3853  0.2647 -0.0882
  670MOL0     C90321   4.073   4.508   8.276  0.4299 -0.4388 -0.6398
  670MOL0     C90322   4.064   4.638   8.314  0.9733 -0.4298  0.2402
  670MOL0     O90323   3.940   4.690   8.299  0.0615  0.6882  1.1120
  670MOL0     C90324   3.931   4.830   8.269 -0.2725  0.2646 -0.1951
  670MOL0     C90325   3.800   4.855   8.203  0.1757  0.3066 -0.1433
  670MOL0     C90326   3.692   4.800   8.302  0.7910 -0.2510 -0.3991
  670MOL0     C90327   3.554   4.817   8.237  0.0766  0.7509  0.1912
  670MOL0     C90328   3.443   4.797   8.342 -0.1145  0.0256 -0.7504
  670MOL0     C90329   3.303   4.784   8.286  0.1595 -0.1783 -0.5160
  670MOL0     C90330   3.199   4.730   8.389  0.2643 -0.6657 -0.1280
  670MOL0     C90331   3.057   4.770   8.345 -0.3326  0.1844  0.1125
  670MOL0     N90332   2.946   4.691   8.394 -0.1018  0.0415 -0.3579
  670MOL0     C90333   2.850   4.657   8.308  0.3962 -0.1182  0.3532
  670MOL0     C90334   2.784   4.556   8.365 -0.4116 -0.2058 -0.8436
  670MOL0     C90335   2.660   4.480   8.304  0.4515 -0.0207 -0.5115
  670MOL0     C90336   2.540   4.581   8.293 -0.0247  0.1143 -0.1296
  670MOL0     C90337   2.405   4.512   8.280  0.2393  0.0686  0.0621
  670MOL0     C90338   2.282   4.602   8.279  0.4770  0.5365 -1.4912
  670MOL0     O90339   2.172   4.515   8.312  0.5896  0.6732 -0.6167
  670MOL0     C90340   2.051   4.574   8.302  0.0987 -0.3440 -1.1786
  670MOL0     C90341   1.947   4.482   8.272  0.0608 -0.1401 -0.7072
  670MOL0     C90342   1.819   4.525   8.256 -0.9099  0.2370 -0.6950
  670MOL0     C90343   1.714   4.410   8.229 -0.2832 -0.0281 -0.4880
  670MOL0     C90344   1.790   4.664   8.266  0.0917  0.3707  0.1249
  670MOL0     C90345   1.653   4.729   8.253 -0.4907 -0.8808  0.2460
  670MOL0     O90346   1.640   4.859   8.296 -0.3924 -0.1953 -0.7835
  670MOL0     C90347   1.522   4.922   8.258  0.5861  0.3590 -0.2126
  670MOL0     C90348   1.434   4.948   8.360 -0.7501  0.0775  0.3215
  670MOL0     C90349   1.341   5.047   8.353  0.0229 -0.3138  0.2798
  670MOL0     C90350   1.320   5.109   8.225 -0.3266 -0.1840 -0.7815
  670MOL0     O90351   1.212   5.184   8.211 -0.7495  0.2625 -0.1149
  670MOL0     C90352   1.111   5.120   8.134  0.7130  0.2473  0.6306
  670MOL0     C90353   0.969   5.169   8.162  0.5624  0.9125 -0.6256
  670MOL0     C90354   0.923   5.112   8.301 -0.4682 -0.3734  0.6596
  670MOL0     C90355   0.768   5.118   8.300  0.5520  1.0899 -0.4466
  670MOL0     C90356   0.716   5.046   8.433 -0.2191 -0.5274  0.6017
  670MOL0     C90357   0.572   5.043   8.425  0.1384 -0.4050  0.7536
  670MOL0     C90358   0.516   4.969   8.549  0.5024  0.2602  0.3384
  670MOL0     C90359   0.378   5.003   8.603  0.3520  0.4712 -0.4338
  670MOL0    Cl90360   0.271   4.899   8.500 -0.4623 -0.4858  0.2612
  670MOL0     C90361   1.396   5.072   8.114  0.0457 -0.4834  1.2551
  670MOL0     C90362   1.500   4.978   8.131  0.4052  0.2822 -0.5448
  670MOL0     O90363   1.556   4.663   8.208  0.0459  0.3784  0.0959
  670MOL0     C90364   1.897   4.754   8.294  0.4725  0.4196 -0.6047
  670MOL0     C90365   2.033   4.712   8.308 -0.6626 -0.1235 -0.4003
  670MOL0     N90366   2.845   4.527   8.482 -0.6912  0.4067 -0.1254
  670MOL0     N90367   2.949   4.601   8.491  0.1226 -0.2809 -0.4057
  670MOL0     C90368   4.180   4.698   8.359 -0.2515  0.2249  0.4233
  670MOL0     C90369   4.302   4.637   8.370  0.0574  0.5253  0.0674
  670MOL0     C90370   4.644   4.375   8.450  0.0537 -0.4205 -0.4895
  670MOL0     C90371   4.701   4.356   8.329  0.3762  0.5670 -0.2666
  670MOL0     C90372   4.828   4.301   8.326  0.0323  0.3878 -0.1132
  670MOL0     C90373   4.898   4.271   8.431  0.2082 -0.6046 -0.1816
  670MOL0     O90374   5.031   4.244   8.400 -0.1892 -0.3070 -0.4719
  670MOL0     C90375   5.129   4.192   8.501  0.5612  0.5817  0.5271
  670MOL0     C90376   5.249   4.146   8.413 -0.3114 -0.2321  0.3616
  670MOL0     C90377   5.332   4.052   8.501 -0.5201  0.0463 -0.3557
  670MOL0     C90378   5.278   3.924   8.560 -0.3850 -0.4869  0.2217
  670MOL0     C90379   5.388   3.845   8.622  0.5702 -0.2549 -0.3767
  670MOL0     C90380   5.461   3.769   8.684  0.5878  0.1805 -0.4937
  670MOL0     C90381   4.839   4.287   8.556 -0.1510 -0.1179 -0.2207
  670MOL0     C90382   4.711   4.339   8.565  0.4355 -0.6795 -0.8569
  670MOL0     H90383   4.186   4.336   8.248 -1.7349  0.7069 -1.2507
  670MOL0     H90384   3.984   4.453   8.247  0.0103 -0.6728  1.0219
  670MOL0     H90385   3.925   4.878   8.368 -2.4719 -2.0625  0.9282
  670MOL0     H90386   4.017   4.858   8.208  1.8012 -0.6525  2.1260
  670MOL0     H90387   3.789   4.963   8.186  1.7244  0.3519 -1.0684
  670MOL0     H90388   3.805   4.802   8.107  1.3173 -0.2097  0.1857
  670MOL0     H90389   3.722   4.698   8.330  1.7044 -0.4108 -1.8657
  670MOL0     H90390   3.672   4.865   8.388 -0.0142 -0.5250 -0.3690
  670MOL0     H90391   3.539   4.917   8.195 -1.8787  0.4221  0.0193
  670MOL0     H90392   3.549   4.750   8.150  0.1565 -0.0974  0.8318
  670MOL0     H90393   3.463   4.703   8.395  0.4988 -0.9938 -2.6936
  670MOL0     H90394   3.444   4.874   8.420 -0.0526 -1.7021  1.0482
  670MOL0     H90395   3.260   4.880   8.255 -1.9447 -0.8569  0.1300
  670MOL0     H90396   3.305   4.718   8.199  0.0943 -1.8039  0.6883
  670MOL0     H90397   3.204   4.621   8.394 -1.9899 -0.9492 -2.4254
  670MOL0     H90398   3.215   4.774   8.487 -3.1589 -0.6137  0.4983
  670MOL0     H90399   3.054   4.753   8.237 -2.0010 -3.0826  0.5491
  670MOL0     H90400   3.031   4.873   8.369 -5.3038 -0.0706 -2.7979
  670MOL0     H90401   2.829   4.702   8.212  2.2218  2.4032  1.0255
  670MOL0     H90402   2.683   4.442   8.205  1.6295  1.4366 -0.8156
  670MOL0     H90403   2.629   4.390   8.360 -2.6930 -0.6814 -3.0286
  670MOL0     H90404   2.544   4.638   8.199  0.6950 -1.0175 -0.8144
  670MOL0     H90405   2.537   4.652   8.376 -3.1813 -0.8648  0.7324
  670MOL0     H90406   2.392   4.430   8.351 -0.8469  0.5285  0.4138
  670MOL0     H90407   2.408   4.468   8.180  1.7520  0.4749 -0.0951
  670MOL0     H90408   2.282   4.661   8.187  0.9593  0.5772 -1.4662
  670MOL0     H90409   2.289   4.682   8.354 -0.8404  0.7382 -1.5544
  670MOL0     H90410   1.982   4.381   8.257 -0.6961 -0.6144  0.5735
  670MOL0     H90411   1.687   4.395   8.124  1.1151 -0.9201 -0.7474
  670MOL0     H90412   1.745   4.309   8.259 -2.0010 -0.2921  0.5598
  670MOL0     H90413   1.620   4.437   8.277  0.4758  2.2765 -0.1725
  670MOL0     H90414   1.458   4.899   8.454 -1.6571  0.0046  0.5317
  670MOL0     H90415   1.283   5.065   8.443  2.5575  1.0312  1.7342
  670MOL0     H90416   1.139   5.150   8.033 -0.4526 -0.4886  0.0669
  670MOL0     H90417   1.123   5.011   8.139  0.7064  0.2512  0.7239
  670MOL0     H90418   0.960   5.278   8.162 -2.1868  0.8145  1.3618
  670MOL0     H90419   0.902   5.126   8.087  1.5848  1.3047 -1.7914
  670MOL0     H90420   0.968   5.185   8.369 -0.6921 -0.7385  1.2069
  670MOL0     H90421   0.961   5.014   8.332 -3.2407 -1.4160  0.9654
  670MOL0     H90422   0.733   5.222   8.301 -1.7013  0.3855  1.2418
  670MOL0     H90423   0.728   5.058   8.219  2.1842  1.0470 -1.2548
  670MOL0     H90424   0.745   5.103   8.522 -0.9770  1.5097 -0.3895
  670MOL0     H90425   0.759   4.945   8.442  2.3344  0.5059  0.8225
  670MOL0     H90426   0.533   5.146   8.422 -2.1336 -1.1972  0.9548
  670MOL0     H90427   0.534   4.996   8.333 -1.2240  3.7653 -1.0773
  670MOL0     H90428   0.586   4.981   8.632  1.2646 -2.1821  0.1220
  670MOL0     H90429   0.517   4.861   8.531  2.5796 -0.2127  2.7066
  670MOL0     H90430   0.352   5.108   8.591 -1.7382 -0.0360 -0.6820
  670MOL0     H90431   0.372   4.969   8.707  1.1927 -0.7005 -0.7451
  670MOL0     H90432   1.386   5.135   8.026 -1.3033 -0.3518  1.4701
  670MOL0     H90433   1.584   4.971   8.063  0.7917  0.2346 -0.0692
  670MOL0     H90434   1.876   4.861   8.300  0.2743  0.3921 -0.8229
  670MOL0     H90435   2.109   4.789   8.306  0.1010 -0.7381 -4.6591
  670MOL0     H90436   4.184   4.801   8.392  2.4375  0.1304  0.6326
  670MOL0     H90437   4.380   4.697   8.416  0.3912  0.6033 -0.6014
  670MOL0     H90438   4.652   4.378   8.235 -2.6594 -1.0756  0.8100
  670MOL0     H90439   4.881   4.289   8.232 -1.0809  2.7403 -1.1459
  670MOL0     H90440   5.157   4.275   8.568  1.7646  2.8180 -2.5146
  670MOL0     H90441   5.086   4.110   8.560  1.2012  0.5625  0.9793
  670MOL0     H90442   5.308   4.233   8.383  1.2529 -1.3382  0.0785
  670MOL0     H90443   5.216   4.097   8.320 -0.7884 -0.3737  0.6036
  670MOL0     H90444   5.366   4.108   8.589 -1.8071  3.8037 -2.0289
  670MOL0     H90445   5.418   4.031   8.438  0.4135  3.3573 -0.3440
  670MOL0     H90446   5.232   3.863   8.481  1.4490 -0.5401 -0.8669
  670MOL0     H90447   5.209   3.954   8.639  0.4128  1.3245  0.2799
  670MOL0     H90448   5.538   3.712   8.731 -0.9152 -0.7366  0.9887
  670MOL0     H90449   4.896   4.260   8.644  1.0657  0.0946 -0.9207
  670MOL0     H90450   4.667   4.352   8.664  0.3721 -1.1323 -0.8232
  671MOL0     O90451   6.763   6.565   6.105  0.3137  0.4313 -0.4350
  671MOL0     C90452   6.790   6.545   5.989 -0.1149  0.5712  0.9137
  671MOL0     O90453   6.701   6.554   5.889 -0.4817 -0.4904  0.6548
  671MOL0     C90454   6.569   6.545   5.905  0.0589  0.0127 -0.3919
  671MOL0     C90455   6.487   6.448   5.844 -0.8686  0.2461  0.4508
  671MOL0     C90456   6.356   6.450   5.869  1.0295 -0.5773 -0.8640
  671MOL0     C90457   6.288   6.540   5.953 -0.1457  0.0920  0.2024
  671MOL0     O90458   6.154   6.528   5.973  0.0868 -1.2306  0.4727
  671MOL0     C90459   6.077   6.434   5.895 -0.3824  0.8000  0.3904
  671MOL0     C90460   5.928   6.450   5.935 -1.1005  0.0171 -0.0025
  671MOL0     C90461   5.839   6.369   5.845 -0.1698 -0.6898 -0.0968
  671MOL0     C90462   5.732   6.301   5.932 -0.1232 -0.4386 -0.9713
  671MOL0     C90463   5.634   6.235   5.837 -1.2724 -0.0248  0.2298
  671MOL0     C90464   5.525   6.165   5.914  0.5730 -0.5246 -0.4641
  671MOL0     C90465   5.438   6.097   5.811 -0.2462 -0.6991 -0.3862
  671MOL0     C90466   5.308   6.057   5.882  0.4613 -0.2830  0.3680
  671MOL0     N90467   5.216   5.979   5.786  0.4123  0.2328  0.0889
  671MOL0     C90468   5.214   5.984   5.656 -0.4627 -0.0557  0.2670
  671MOL0     C90469   5.095   5.934   5.618 -0.5081 -0.0088 -0.6386
  671MOL0     C90470   5.058   5.910   5.469  0.0183 -0.7314 -0.1275
  671MOL0     C90471   4.912   5.862   5.456 -0.0697  0.0586 -0.5179
  671MOL0     C90472   4.876   5.852   5.307  0.0707 -0.2248  0.0781
  671MOL0     C90473   4.743   5.789   5.290 -0.4972 -0.4984  0.3502
  671MOL0     O90474   4.693   5.789   5.156  0.3371 -0.4443 -0.0754
  671MOL0     C90475   4.561   5.779   5.138 -0.4958  0.5834  1.4228
  671MOL0     C90476   4.473   5.688   5.198 -0.0899 -0.0038 -0.1968
  671MOL0     C90477   4.339   5.681   5.158 -0.2731 -0.0773  0.0582
  671MOL0     C90478   4.257   5.579   5.233  0.0173 -0.4355 -0.4596
  671MOL0     C90479   4.290   5.765   5.053  0.1556  0.4074  0.2264
  671MOL0     C90480   4.146   5.768   5.003  0.0666  0.2665  0.2871
  671MOL0     O90481   4.115   5.852   4.897  0.2370  0.5710 -0.3904
  671MOL0     C90482   3.986   5.856   4.851  0.9723  0.2843  0.1970
  671MOL0     C90483   3.870   5.869   4.935 -0.3561 -0.2322 -0.2209
  671MOL0     C90484   3.741   5.887   4.881  0.6592 -0.0955  1.0774
  671MOL0     C90485   3.726   5.878   4.743  0.5030  0.0263 -0.0533
  671MOL0     O90486   3.601   5.891   4.680 -1.1368 -0.7066 -1.0347
  671MOL0     C90487   3.481   5.896   4.766 -0.5200  1.1041 -0.6673
  671MOL0     C90488   3.366   5.924   4.669 -0.5254  0.0707 -0.1388
  671MOL0     C90489   3.228   5.943   4.730 -0.8562 -0.0041 -0.1364
  671MOL0     C90490   3.130   6.020   4.632 -0.5266  0.2123 -0.7058
  671MOL0     C90491   2.982   6.030   4.669 -0.2297  0.1006  0.6013
  671MOL0     C90492   2.893   6.070   4.550  0.4257 -0.3496  0.3149
  671MOL0     C90493   2.750   6.103   4.601 -0.8904 -0.2453  0.6299
  671MOL0     C90494   2.637   6.091   4.498  0.8647 -0.5966  0.8541
  671MOL0    Cl90495   2.645   6.232   4.386 -0.3601 -0.1775 -0.4791
  671MOL0     C90496   3.832   5.871   4.661 -0.2666 -0.8409 -0.3819
  671MOL0     C90497   3.966   5.854   4.715 -1.3698  0.2772 -0.2035
  671MOL0     O90498   4.066   5.696   5.055 -0.4688 -0.0710  0.6994
  671MOL0     C90499   4.384   5.853   4.992 -0.1174 -0.3134  0.3264
  671MOL0     C90500   4.515   5.861   5.035  0.4602  0.2543  0.1785
  671MOL0     N90501   5.016   5.907   5.730 -0.0098 -0.2672  0.7556
  671MOL0     N90502   5.095   5.928   5.826  0.2573  0.3643 -0.4396
  671MOL0     C90503   6.372   6.640   6.012 -0.1919  0.3262  0.7852
  671MOL0     C90504   6.511   6.647   5.977 -0.0550  0.2990 -0.1839
  671MOL0     C90505   6.934   6.525   5.936 -0.9256 -0.1841 -0.1333
  671MOL0     C90506   6.966   6.529   5.798  0.2765 -0.3211 -0.4239
  671MOL0     C90507   7.106   6.537   5.759  0.0648  0.7274  0.3478
  671MOL0     C90508   7.203   6.522   5.858 -0.7142 -1.4026 -0.2575
  671MOL0     O90509   7.346   6.514   5.841  0.2900  0.1691 -0.9023
  671MOL0     C90510   7.408   6.571   5.726 -0.6100 -0.8811 -0.5661
  671MOL0     C90511   7.560   6.595   5.757 -0.1597  0.1107 -0.1536
  671MOL0     C90512   7.650   6.476   5.773  0.9407  0.6511  0.6378
  671MOL0     C90513   7.656   6.418   5.920 -0.3531  0.6222  0.5011
  671MOL0     C90514   7.759   6.311   5.930  0.6780 -0.5139 -0.3531
  671MOL0     C90515   7.839   6.222   5.929 -0.7732 -0.9172  0.2385
  671MOL0     C90516   7.172   6.506   5.989 -0.2858 -0.6175 -0.6945
  671MOL0     C90517   7.041   6.513   6.030 -0.3629 -0.5600  0.4175
  671MOL0     H90518   6.535   6.372   5.784  2.9361  0.5590  2.7585
  671MOL0     H90519   6.303   6.375   5.812  0.4791 -1.3702  0.6435
  671MOL0     H90520   6.084   6.452   5.787  3.4765  2.0366  0.6902
  671MOL0     H90521   6.111   6.331   5.907 -0.0838  0.6396 -1.5407
  671MOL0     H90522   5.928   6.421   6.041  0.5073  0.7777  0.2479
  671MOL0     H90523   5.901   6.555   5.921 -1.5330 -0.0607  0.2225
  671MOL0     H90524   5.788   6.439   5.778  1.8675 -0.1373 -1.1360
  671MOL0     H90525   5.900   6.303   5.782  1.9361  0.9442  0.1202
  671MOL0     H90526   5.780   6.230   6.000 -0.2259  0.9646  0.6379
  671MOL0     H90527   5.685   6.376   5.997 -1.4909 -0.8580 -1.4514
  671MOL0     H90528   5.602   6.315   5.770 -0.5621  0.5476  0.5593
  671MOL0     H90529   5.676   6.156   5.773  1.3094  0.5601  1.1066
  671MOL0     H90530   5.581   6.094   5.976  0.5211 -0.6579 -0.5698
  671MOL0     H90531   5.476   6.237   5.980  3.4047  0.4333  0.7938
  671MOL0     H90532   5.418   6.158   5.723 -1.6643  0.1884  0.5126
  671MOL0     H90533   5.488   6.006   5.777  1.5831 -0.9555  2.5892
  671MOL0     H90534   5.265   6.149   5.922 -0.3243 -0.7572  0.6380
  671MOL0     H90535   5.332   5.993   5.967 -3.3413 -2.6008 -0.0426
  671MOL0     H90536   5.292   6.016   5.588 -0.7072 -0.6508 -0.3037
  671MOL0     H90537   5.064   6.006   5.417 -2.2339 -0.9228 -0.8313
  671MOL0     H90538   5.126   5.839   5.421  0.1216  0.4623 -1.8581
  671MOL0     H90539   4.852   5.943   5.499  2.0744  3.6157 -3.5439
  671MOL0     H90540   4.904   5.768   5.511  0.0619 -0.0013 -0.5995
  671MOL0     H90541   4.948   5.789   5.254  1.2479  0.9158  0.2940
  671MOL0     H90542   4.871   5.951   5.262 -0.6572 -0.2216  0.1585
  671MOL0     H90543   4.674   5.844   5.354 -1.9247 -0.5080 -1.1242
  671MOL0     H90544   4.734   5.683   5.316  2.6674 -1.0545 -0.3100
  671MOL0     H90545   4.503   5.619   5.277 -1.6021  0.1406  0.5447
  671MOL0     H90546   4.217   5.630   5.321 -3.2611 -0.3489 -1.8427
  671MOL0     H90547   4.174   5.540   5.173 -3.5990 -0.5718  4.0820
  671MOL0     H90548   4.322   5.498   5.265 -0.3281 -0.3145  0.5756
  671MOL0     H90549   3.874   5.875   5.044  0.5618 -1.2969 -0.1744
  671MOL0     H90550   3.662   5.888   4.955 -0.2704 -1.5918  0.1589
  671MOL0     H90551   3.454   5.802   4.816 -0.4974 -0.3022 -3.1197
  671MOL0     H90552   3.489   5.975   4.840 -0.0193  0.1881  0.2806
  671MOL0     H90553   3.405   6.010   4.614  0.3744 -0.3614 -0.1841
  671MOL0     H90554   3.368   5.846   4.593 -0.6950 -1.4726  1.4008
  671MOL0     H90555   3.235   5.996   4.825  1.1307  0.9159 -0.7333
  671MOL0     H90556   3.184   5.845   4.746  1.0736 -1.2727 -2.0100
  671MOL0     H90557   3.170   6.120   4.615  0.9063 -0.5802 -2.3038
  671MOL0     H90558   3.139   5.962   4.540  0.1757 -1.0335  0.1218
  671MOL0     H90559   2.957   6.088   4.758 -1.0308 -2.9706  2.5061
  671MOL0     H90560   2.955   5.930   4.703  1.1279  0.1957  2.0462
  671MOL0     H90561   2.944   6.152   4.500  1.2605 -0.1433  1.4528
  671MOL0     H90562   2.889   5.979   4.489  0.4929 -1.2394  1.5722
  671MOL0     H90563   2.744   6.194   4.661 -0.1151 -0.6623  1.3660
  671MOL0     H90564   2.718   6.023   4.669  1.4794 -1.4535  0.4644
  671MOL0     H90565   2.537   6.086   4.542  0.4283  0.5531  0.0487
  671MOL0     H90566   2.651   5.995   4.447  0.3936  0.1845 -0.8194
  671MOL0     H90567   3.808   5.868   4.555 -0.0658 -0.5357 -0.4383
  671MOL0     H90568   4.054   5.849   4.652 -1.3496  1.4412 -0.2851
  671MOL0     H90569   4.348   5.911   4.908  0.7132 -0.5654 -0.2134
  671MOL0     H90570   4.574   5.935   4.982 -0.6323  1.0244  0.0072
  671MOL0     H90571   6.321   6.720   6.065 -0.8432 -1.1579  2.4759
  671MOL0     H90572   6.568   6.726   6.024  0.5223  0.6185 -1.4006
  671MOL0     H90573   6.888   6.529   5.722  0.1712 -0.5326 -0.3199
  671MOL0     H90574   7.142   6.532   5.657  1.0425  1.3724  0.6539
  671MOL0     H90575   7.379   6.505   5.644 -1.1497 -0.1911 -0.9453
  671MOL0     H90576   7.363   6.665   5.691 -0.1404 -0.2644  0.4388
  671MOL0     H90577   7.570   6.670   5.837 -1.6885  1.5321 -1.2087
  671MOL0     H90578   7.598   6.640   5.665  1.3438 -2.2509 -0.7659
  671MOL0     H90579   7.754   6.504   5.753  1.5819 -1.6581  0.4494
  671MOL0     H90580   7.616   6.396   5.706  0.3055 -0.3491  2.1281
  671MOL0     H90581   7.553   6.381   5.931 -0.0672 -1.1512 -2.0704
  671MOL0     H90582   7.687   6.494   5.993  3.5019 -1.3404  1.1544
  671MOL0     H90583   7.920   6.152   5.924  0.1627  0.1540 -0.1037
  671MOL0     H90584   7.253   6.515   6.061 -1.5596  1.8800  0.5244
  671MOL0     H90585   7.025   6.510   6.137  0.3500  1.2699  0.6191
  672MOL0     O90586   1.040   6.712  10.452 -0.3013 -0.4637 -0.5979
  672MOL0     C90587   1.130   6.761  10.525 -0.0894 -0.2997  0.5169
  672MOL0     O90588   1.133   6.880  10.589 -0.3060  0.2466  1.1612
  672MOL0     C90589   1.030   6.968  10.558 -1.1226  0.2690 -0.2647
  672MOL0     C90590   1.001   7.003  10.425  0.4287  0.4792  0.3347
  672MOL0     C90591   0.885   7.081  10.387 -0.4640 -0.4766  0.4060
  672MOL0     C90592   0.804   7.118  10.489  0.7024  0.6454 -0.2375
  672MOL0     O90593   0.676   7.167  10.460 -0.0706  0.1557 -0.4217
  672MOL0     C90594   0.670   7.302  10.398 -0.0973  0.5145 -0.7725
  672MOL0     C90595   0.531   7.330  10.333  0.0265  0.2170 -0.3565
  672MOL0     C90596   0.497   7.238  10.221 -0.0782  0.1607 -0.1433
  672MOL0     C90597   0.344   7.208  10.219 -0.0529  0.4272 -0.7137
  672MOL0     C90598   0.283   7.159  10.089 -0.2164 -0.0303  0.2498
  672MOL0     C90599   0.140   7.116  10.087  0.5000  0.3180 -0.3687
  672MOL0     C90600   0.035   7.230  10.092 -0.3632 -0.9770  1.3261
  672MOL0     C90601  -0.111   7.190  10.112 -0.9143  0.1600  0.3881
  672MOL0     N90602  -0.150   7.121   9.987 -1.9242  0.3675  0.2255
  672MOL0     C90603  -0.149   6.986   9.975 -0.2897  0.6437 -0.3867
  672MOL0     C90604  -0.210   6.963   9.855  0.5201 -0.5224  0.4812
  672MOL0     C90605  -0.250   6.830   9.800 -0.4768 -0.6019  0.1525
  672MOL0     C90606  -0.328   6.736   9.887 -0.5237  0.0125  0.1606
  672MOL0     C90607  -0.452   6.789   9.958  0.3011  0.1849  0.3529
  672MOL0     C90608  -0.573   6.772   9.871 -0.2463 -0.0050  0.1445
  672MOL0     O90609  -0.670   6.862   9.916  0.2649 -0.0112 -0.4246
  672MOL0     C90610  -0.800   6.840   9.887 -0.8120 -0.6333 -0.1051
  672MOL0     C90611  -0.845   6.749   9.793  0.2769 -0.6553 -0.0148
  672MOL0     C90612  -0.982   6.739   9.752  0.6987  0.3824  0.3264
  672MOL0     C90613  -1.021   6.644   9.640  0.0041  0.0892 -0.1316
  672MOL0     C90614  -1.073   6.827   9.807  0.4786 -0.7066  0.0088
  672MOL0     C90615  -1.216   6.839   9.778  0.2260  0.0658 -0.8232
  672MOL0     O90616  -1.270   6.963   9.757  0.0094 -0.3855  0.2683
  672MOL0     C90617  -1.409   6.983   9.761  0.7551  1.0886  0.7160
  672MOL0     C90618  -1.458   7.094   9.820 -0.2602 -0.2892  0.7754
  672MOL0     C90619  -1.593   7.142   9.789  0.0970 -0.1027 -0.4150
  672MOL0     C90620  -1.682   7.054   9.730 -0.7224  0.0954  1.1194
  672MOL0     O90621  -1.811   7.092   9.711  0.6285 -0.0222  0.3593
  672MOL0     C90622  -1.902   6.981   9.732 -0.6436 -0.2507  0.4159
  672MOL0     C90623  -2.041   7.027   9.779  1.3665 -0.5307 -0.6149
  672MOL0     C90624  -2.129   7.077   9.662  0.2954  0.2162 -0.4437
  672MOL0     C90625  -2.259   7.138   9.704 -0.5149  0.6905  0.7225
  672MOL0     C90626  -2.376   7.041   9.693  0.3399  0.6179  0.1014
  672MOL0     C90627  -2.512   7.102   9.730 -0.6945  0.6477 -0.2098
  672MOL0     C90628  -2.634   7.031   9.687 -0.2241  0.2618 -0.0983
  672MOL0     C90629  -2.762   7.096   9.742  0.6226 -1.4032 -0.0800
  672MOL0    Cl90630  -2.813   7.247   9.656  0.0966  0.2592 -0.5085
  672MOL0     C90631  -1.624   6.931   9.671  0.3847  0.1714 -0.2394
  672MOL0     C90632  -1.492   6.904   9.677 -0.5578  0.0155 -0.3104
  672MOL0     O90633  -1.280   6.740   9.795  0.2635  0.6284  0.0705
  672MOL0     C90634  -1.023   6.916   9.910  0.9673  0.5583  0.0038
  672MOL0     C90635  -0.888   6.921   9.945  0.1805 -0.4122 -0.3693
  672MOL0     N90636  -0.242   7.086   9.798 -1.0240  0.4235 -0.0730
  672MOL0     N90637  -0.202   7.181   9.879 -0.4382  0.2231  0.6194
  672MOL0     C90638   0.829   7.103  10.617  0.0299  0.1991 -0.1500
  672MOL0     C90639   0.945   7.020  10.650 -0.1737 -0.0545  0.2587
  672MOL0     C90640   1.252   6.675  10.529  0.2800 -0.8251 -0.9998
  672MOL0     C90641   1.252   6.543  10.489  0.4416  0.5863 -0.5545
  672MOL0     C90642   1.369   6.464  10.508 -0.3366 -0.8034 -0.1648
  672MOL0     C90643   1.486   6.519  10.559  1.0248 -0.0034  0.0369
  672MOL0     O90644   1.588   6.429  10.579  0.1852 -0.5190 -0.2081
  672MOL0     C90645   1.715   6.477  10.535 -0.2836 -0.1788  0.3309
  672MOL0     C90646   1.813   6.364  10.565  0.3161  0.3597  1.2126
  672MOL0     C90647   1.815   6.247  10.470 -0.3066 -0.1493  0.1141
  672MOL0     C90648   1.894   6.134  10.529 -0.3712 -0.2334 -1.0698
  672MOL0     C90649   1.954   6.043  10.429 -0.1621  0.0630 -0.2376
  672MOL0     C90650   1.991   5.970  10.341 -0.0989  0.2142  0.1608
  672MOL0     C90651   1.481   6.651  10.606  0.2860  0.9050  0.5125
  672MOL0     C90652   1.367   6.722  10.592  0.2699 -0.8207  0.3357
  672MOL0     H90653   1.072   6.970  10.350 -0.4942 -0.3136 -0.2181
  672MOL0     H90654   0.867   7.106  10.283  0.0555 -0.8365  0.2265
  672MOL0     H90655   0.696   7.372  10.479  1.8598 -1.2105  0.1700
  672MOL0     H90656   0.752   7.312  10.326  0.4572 -1.3282 -0.4329
  672MOL0     H90657   0.459   7.301  10.410 -0.4267  1.5287 -0.2476
  672MOL0     H90658   0.510   7.432  10.297  2.7223  0.4415 -1.5640
  672MOL0     H90659   0.530   7.294  10.134 -1.1554  1.0569  0.0046
  672MOL0     H90660   0.553   7.144  10.221  1.8121  1.2258 -1.6101
  672MOL0     H90661   0.330   7.133  10.298  1.5635 -0.1750 -0.9504
  672MOL0     H90662   0.291   7.296  10.255  1.0816  2.2082 -3.1361
  672MOL0     H90663   0.292   7.243  10.019  0.1969 -2.0113 -2.1845
  672MOL0     H90664   0.348   7.076  10.058  1.8864  0.3504  3.1848
  672MOL0     H90665   0.123   7.036  10.013  1.0026  0.1972 -0.3540
  672MOL0     H90666   0.129   7.069  10.185  1.8418  1.7718  0.5168
  672MOL0     H90667   0.069   7.302  10.168 -0.8139  0.4762  0.2012
  672MOL0     H90668   0.037   7.284   9.997 -0.0415 -2.8621  0.2088
  672MOL0     H90669  -0.174   7.278  10.127 -1.6473 -0.4654  1.0471
  672MOL0     H90670  -0.107   7.120  10.196 -1.4870 -1.4791 -0.8830
  672MOL0     H90671  -0.119   6.921  10.057  3.3919  2.3581 -0.1973
  672MOL0     H90672  -0.304   6.849   9.706  0.7338  0.2089 -0.4123
  672MOL0     H90673  -0.161   6.778   9.764  0.1297  0.1020  0.6053
  672MOL0     H90674  -0.261   6.709   9.969 -0.1246  2.8763  0.8804
  672MOL0     H90675  -0.346   6.645   9.829  1.3592  0.6525 -1.5353
  672MOL0     H90676  -0.450   6.896   9.979 -0.1170 -0.3755  3.8927
  672MOL0     H90677  -0.461   6.726  10.047 -1.1223  1.6994  1.3426
  672MOL0     H90678  -0.612   6.670   9.867 -1.8554  0.5995 -0.0313
  672MOL0     H90679  -0.536   6.805   9.773  0.8852 -0.2522  0.4703
  672MOL0     H90680  -0.786   6.690   9.724  1.1710  1.4271 -1.1417
  672MOL0     H90681  -0.940   6.628   9.569 -0.3045  1.0374 -0.7122
  672MOL0     H90682  -1.041   6.544   9.680  0.1922  0.2366  0.3388
  672MOL0     H90683  -1.114   6.676   9.591  1.7107 -0.5430 -4.1836
  672MOL0     H90684  -1.390   7.150   9.883  0.9589 -1.5338  0.6157
  672MOL0     H90685  -1.621   7.239   9.827  0.3775 -0.2000  0.0492
  672MOL0     H90686  -1.921   6.925   9.640  0.2462  0.6128 -0.3251
  672MOL0     H90687  -1.857   6.907   9.800  0.1545 -0.9868 -0.8814
  672MOL0     H90688  -2.095   6.951   9.836 -0.0264  1.4496  0.8534
  672MOL0     H90689  -2.030   7.108   9.853 -1.9040 -1.0103  0.5611
  672MOL0     H90690  -2.153   6.999   9.590 -2.3739 -1.7686  2.2986
  672MOL0     H90691  -2.079   7.161   9.614  0.2225 -0.9776 -2.7483
  672MOL0     H90692  -2.242   7.183   9.803  0.4996 -1.2143  1.4692
  672MOL0     H90693  -2.293   7.219   9.640 -2.9956  0.0111  1.1021
  672MOL0     H90694  -2.351   6.955   9.756  2.0494  2.3827  1.9784
  672MOL0     H90695  -2.389   7.004   9.591  1.8364  1.3319 -0.3781
  672MOL0     H90696  -2.516   7.113   9.838  1.3059 -2.5902  0.3399
  672MOL0     H90697  -2.499   7.196   9.676  1.6636  0.0894 -0.7106
  672MOL0     H90698  -2.631   6.930   9.729  1.0950  0.5790  0.6440
  672MOL0     H90699  -2.632   7.013   9.580  1.4844  0.6558 -0.1745
  672MOL0     H90700  -2.752   7.126   9.846 -0.0697 -1.3373 -0.0299
  672MOL0     H90701  -2.849   7.031   9.729 -1.5980  1.2795  0.3333
  672MOL0     H90702  -1.683   6.882   9.594  0.3206 -0.0370 -0.0560
  672MOL0     H90703  -1.450   6.815   9.631 -0.3841 -0.0356 -0.0549
  672MOL0     H90704  -1.087   6.989   9.959  0.3595 -1.1161  1.7885
  672MOL0     H90705  -0.864   6.995  10.021 -0.5715 -0.0157 -0.5143
  672MOL0     H90706   0.762   7.151  10.687 -2.9555 -1.2330 -1.8167
  672MOL0     H90707   0.957   6.986  10.752 -1.3808  2.3733  1.2932
  672MOL0     H90708   1.171   6.494  10.436  1.9141 -3.3148  0.4959
  672MOL0     H90709   1.376   6.362  10.471 -0.1918 -0.5602 -0.8319
  672MOL0     H90710   1.710   6.506  10.430  2.5834  2.4360  0.7491
  672MOL0     H90711   1.750   6.569  10.584  0.2094 -0.4166  0.4343
  672MOL0     H90712   1.787   6.337  10.668 -0.0706 -0.7756  0.8294
  672MOL0     H90713   1.914   6.408  10.562 -0.0537  1.3818  2.5567
  672MOL0     H90714   1.855   6.286  10.375  2.8968 -2.6740  0.2642
  672MOL0     H90715   1.713   6.209  10.455 -0.9372  0.6280  2.1468
  672MOL0     H90716   1.832   6.075  10.597  1.1217 -0.5698  0.0592
  672MOL0     H90717   1.971   6.177  10.594 -2.1517  0.9994  0.2956
  672MOL0     H90718   2.025   5.900  10.268 -1.0265  0.3297 -0.3951
  672MOL0     H90719   1.570   6.694  10.652  3.1874 -0.4663 -3.2511
  672MOL0     H90720   1.380   6.825  10.622  0.5814 -0.3141 -1.4170
  673MOL0     O90721   2.754   9.395   1.130 -0.9812  0.3263  0.4670
  673MOL0     C90722   2.801   9.331   1.035 -0.1793 -0.0840 -0.3300
  673MOL0     O90723   2.746   9.315   0.912  0.4412 -0.0089 -0.1358
  673MOL0     C90724   2.621   9.363   0.900 -0.2168  0.6415  0.6203
  673MOL0     C90725   2.506   9.288   0.937 -0.2612  0.6416 -0.4072
  673MOL0     C90726   2.375   9.340   0.935 -0.5388  0.4433 -0.3028
  673MOL0     C90727   2.351   9.464   0.883 -0.3661  0.4070  0.3438
  673MOL0     O90728   2.231   9.522   0.872  0.3414 -0.2247  0.4099
  673MOL0     C90729   2.180   9.550   0.738 -0.3731  0.3704 -0.6403
  673MOL0     C90730   2.042   9.610   0.768  0.1967  0.3121  1.2156
  673MOL0     C90731   1.947   9.524   0.846 -0.4074 -0.3348  0.0345
  673MOL0     C90732   1.798   9.576   0.837  0.1401  0.4604  0.7037
  673MOL0     C90733   1.717   9.535   0.960 -0.2547 -0.1089 -0.0730
  673MOL0     C90734   1.570   9.566   0.941 -0.2051  0.1212 -0.0666
  673MOL0     C90735   1.486   9.491   1.043  0.0627 -0.0642 -0.2268
  673MOL0     C90736   1.470   9.348   1.026  0.1021 -0.0212  0.8649
  673MOL0     N90737   1.421   9.315   0.888  0.1182  0.1439  0.1146
  673MOL0     C90738   1.282   9.337   0.851  0.2761 -0.8858  0.0298
  673MOL0     C90739   1.277   9.265   0.732  0.0801  0.0050  0.1875
  673MOL0     C90740   1.162   9.244   0.647  0.6568 -0.9012 -0.3138
  673MOL0     C90741   1.059   9.149   0.705  0.2769 -0.7354  0.3376
  673MOL0     C90742   1.120   9.012   0.746 -0.3719 -0.0873  0.2484
  673MOL0     C90743   1.004   8.912   0.763 -0.6412  0.1169  0.2836
  673MOL0     O90744   0.923   8.957   0.875 -0.3854 -0.6988  0.3651
  673MOL0     C90745   0.790   8.922   0.896 -0.3820  1.1772  0.6919
  673MOL0     C90746   0.731   8.818   0.823  0.9709  0.8994  0.0995
  673MOL0     C90747   0.592   8.784   0.840 -0.6477 -0.7597 -0.0450
  673MOL0     C90748   0.536   8.677   0.760 -0.5540 -0.1776 -0.2521
  673MOL0     C90749   0.521   8.853   0.943 -0.8731 -0.4837  0.1460
  673MOL0     C90750   0.374   8.822   0.974 -0.1817  0.0269 -0.0108
  673MOL0     O90751   0.313   8.704   0.941  0.6903  0.0156 -0.3222
  673MOL0     C90752   0.181   8.685   0.952 -0.0398  1.0835  0.0058
  673MOL0     C90753   0.113   8.668   0.840  0.4556 -0.6796 -0.0092
  673MOL0     C90754  -0.022   8.669   0.845  0.3009  0.0794 -0.2668
  673MOL0     C90755  -0.094   8.676   0.959 -0.2488 -0.3199 -0.3154
  673MOL0     O90756  -0.233   8.667   0.966 -0.1991 -0.5750 -0.1503
  673MOL0     C90757  -0.305   8.655   0.843  0.9202 -0.5070  0.3993
  673MOL0     C90758  -0.457   8.630   0.865  0.6740  0.8804 -0.7114
  673MOL0     C90759  -0.518   8.735   0.956  0.5535 -0.2996 -0.0730
  673MOL0     C90760  -0.502   8.889   0.925 -0.7453  0.4579 -0.0771
  673MOL0     C90761  -0.552   8.937   0.793  0.2115  0.6292  0.9562
  673MOL0     C90762  -0.567   9.092   0.781 -0.3702  0.0951  0.1218
  673MOL0     C90763  -0.607   9.125   0.632  0.5984  1.2594 -0.5601
  673MOL0     C90764  -0.740   9.068   0.576 -0.4631 -0.7311 -0.2199
  673MOL0    Cl90765  -0.870   9.093   0.693 -0.3926  0.5751 -0.2196
  673MOL0     C90766  -0.024   8.693   1.080  0.4687  0.0584  0.0264
  673MOL0     C90767   0.111   8.710   1.071  0.1243 -0.6239 -1.2426
  673MOL0     O90768   0.308   8.918   1.023 -0.0024 -0.7090  0.2389
  673MOL0     C90769   0.584   8.961   1.007 -0.3914  0.5253 -0.7713
  673MOL0     C90770   0.720   8.995   0.989 -0.1079 -0.2371 -0.7452
  673MOL0     N90771   1.395   9.199   0.698  0.0212  0.9335  0.0544
  673MOL0     N90772   1.480   9.235   0.792  0.1690 -0.3700 -0.0588
  673MOL0     C90773   2.459   9.537   0.835 -0.4739  0.3278  0.3032
  673MOL0     C90774   2.597   9.492   0.851  0.0188 -0.2684  0.1755
  673MOL0     C90775   2.936   9.265   1.043  0.5679  0.0552 -0.8772
  673MOL0     C90776   2.976   9.176   0.949 -0.1188 -0.7270  0.6715
  673MOL0     C90777   3.097   9.099   0.969  0.1377 -0.4497  0.7170
  673MOL0     C90778   3.173   9.116   1.085  0.2769 -0.1143  0.5389
  673MOL0     O90779   3.294   9.052   1.102 -0.4568 -0.3034 -0.2784
  673MOL0     C90780   3.339   8.953   1.011 -0.5673 -0.4242 -0.5352
  673MOL0     C90781   3.468   8.884   1.069  0.4090  0.3816 -0.3238
  673MOL0     C90782   3.582   8.984   1.086 -0.0362 -0.2863  0.8295
  673MOL0     C90783   3.708   8.906   1.138 -0.1649  0.0782 -0.4248
  673MOL0     C90784   3.813   8.995   1.185 -0.3457  0.2790  0.3882
  673MOL0     C90785   3.899   9.069   1.228 -1.0118 -0.5752  0.0268
  673MOL0     C90786   3.134   9.210   1.173  0.6219 -0.0755 -0.5964
  673MOL0     C90787   3.010   9.276   1.158  0.7755 -0.3195  0.6972
  673MOL0     H90788   2.536   9.191   0.975  0.1269  1.7456  2.2971
  673MOL0     H90789   2.293   9.279   0.973 -0.3675  0.8142  0.6824
  673MOL0     H90790   2.244   9.625   0.691  1.2506 -0.6450 -0.1170
  673MOL0     H90791   2.188   9.456   0.681  0.8522  0.2040 -0.2174
  673MOL0     H90792   2.049   9.709   0.814 -0.8260  1.2854 -0.5868
  673MOL0     H90793   2.000   9.615   0.667 -2.0892 -0.4108  2.0640
  673MOL0     H90794   1.957   9.418   0.822 -2.3503 -0.9370  1.5888
  673MOL0     H90795   1.971   9.527   0.953  1.1236  0.4592 -0.2919
  673MOL0     H90796   1.793   9.685   0.830  1.0694  0.4674 -0.0163
  673MOL0     H90797   1.748   9.548   0.744  1.9788 -1.3914  0.1990
  673MOL0     H90798   1.738   9.429   0.972 -1.1313 -0.3590 -0.6204
  673MOL0     H90799   1.753   9.576   1.055 -1.2099 -1.0292  0.7036
  673MOL0     H90800   1.556   9.674   0.950  0.1372  0.0452  1.6158
  673MOL0     H90801   1.538   9.539   0.840  1.6374  0.5190 -0.8044
  673MOL0     H90802   1.511   9.516   1.147 -2.2531  1.7602 -0.0083
  673MOL0     H90803   1.385   9.531   1.024  1.5364  2.9876 -2.7034
  673MOL0     H90804   1.404   9.308   1.104 -2.0674  3.2545  0.8844
  673MOL0     H90805   1.568   9.299   1.023 -1.0272 -2.3826 -0.2621
  673MOL0     H90806   1.203   9.394   0.899 -0.1113  0.0566 -1.6426
  673MOL0     H90807   1.102   9.332   0.624 -3.3308 -2.8861  1.4155
  673MOL0     H90808   1.190   9.215   0.545  2.2064  0.1755 -0.2192
  673MOL0     H90809   0.991   9.138   0.620 -0.1163  1.0657  0.3845
  673MOL0     H90810   1.003   9.186   0.792 -2.1345 -0.8016 -1.0942
  673MOL0     H90811   1.192   9.030   0.826  2.5543  0.1841 -2.2515
  673MOL0     H90812   1.184   8.973   0.666 -0.0715 -0.4708  0.6705
  673MOL0     H90813   1.050   8.818   0.794  1.8323  0.6925 -1.3498
  673MOL0     H90814   0.951   8.892   0.669  0.8481 -1.6838 -0.2459
  673MOL0     H90815   0.779   8.748   0.754 -1.1172  0.3486 -0.8911
  673MOL0     H90816   0.440   8.710   0.719 -1.1965  0.5081  1.6564
  673MOL0     H90817   0.603   8.644   0.681 -1.2826  2.4810 -2.1065
  673MOL0     H90818   0.531   8.591   0.828  0.6977  0.6109  0.8799
  673MOL0     H90819   0.155   8.658   0.740 -1.5582 -0.4575 -0.9162
  673MOL0     H90820  -0.066   8.653   0.747  0.0302  2.1422 -0.5181
  673MOL0     H90821  -0.288   8.747   0.785 -1.4898 -0.8420 -0.9709
  673MOL0     H90822  -0.259   8.578   0.781 -0.8874 -1.9573  0.7684
  673MOL0     H90823  -0.511   8.603   0.774  1.7802 -2.1757 -0.5484
  673MOL0     H90824  -0.471   8.538   0.921 -3.3511  0.6814 -1.7743
  673MOL0     H90825  -0.475   8.714   1.055  1.3333  0.0983 -0.3188
  673MOL0     H90826  -0.626   8.717   0.960  0.2277  1.6341  2.0136
  673MOL0     H90827  -0.552   8.952   0.999 -0.3969  0.9561 -0.2579
  673MOL0     H90828  -0.395   8.903   0.942 -0.7240 -0.9054  1.0511
  673MOL0     H90829  -0.642   8.876   0.779  0.5191  0.2974  0.4306
  673MOL0     H90830  -0.472   8.908   0.725 -0.0578  0.1748  0.8306
  673MOL0     H90831  -0.632   9.132   0.859  3.8737  4.1578  2.0943
  673MOL0     H90832  -0.472   9.144   0.797  0.3084 -1.2512  0.6205
  673MOL0     H90833  -0.525   9.098   0.565  0.8343  0.4100  0.0572
  673MOL0     H90834  -0.623   9.233   0.631 -1.1136  1.0333 -0.8030
  673MOL0     H90835  -0.718   8.963   0.557  3.9156 -0.1776  0.6475
  673MOL0     H90836  -0.768   9.112   0.479 -1.3837 -1.6510 -0.3793
  673MOL0     H90837  -0.084   8.701   1.170 -0.4170 -2.2228 -0.3078
  673MOL0     H90838   0.164   8.732   1.164  1.0893 -6.0315 -0.1443
  673MOL0     H90839   0.519   9.019   1.072  0.6462  0.3118  0.4901
  673MOL0     H90840   0.765   9.078   1.043  1.6670  0.4275 -3.0815
  673MOL0     H90841   2.441   9.638   0.799  1.5199  1.1310  1.3693
  673MOL0     H90842   2.685   9.544   0.815  0.9130 -0.5489  1.8082
  673MOL0     H90843   2.910   9.163   0.863 -0.9982 -1.2346  1.4028
  673MOL0     H90844   3.127   9.033   0.888  2.4232  1.1002  0.1992
  673MOL0     H90845   3.266   8.873   0.997 -0.5569 -1.0508  2.4553
  673MOL0     H90846   3.379   8.998   0.919 -0.7520 -0.8119 -0.8048
  673MOL0     H90847   3.498   8.808   0.996 -0.2065 -0.1652 -0.0207
  673MOL0     H90848   3.456   8.824   1.159 -1.4410 -0.1435 -0.8909
  673MOL0     H90849   3.552   9.074   1.142  0.4342 -0.4577  1.3670
  673MOL0     H90850   3.607   9.031   0.991  3.4786  1.9268  2.6381
  673MOL0     H90851   3.745   8.844   1.056  1.3664  2.1414 -1.3770
  673MOL0     H90852   3.677   8.829   1.210  1.1889 -0.1569 -0.0673
  673MOL0     H90853   3.972   9.138   1.264 -1.0159 -0.1393 -0.7730
  673MOL0     H90854   3.186   9.248   1.260 -1.4152  2.6878 -0.4552
  673MOL0     H90855   2.973   9.350   1.228  2.3592  0.4182  0.8000
  674MOL0     O90856   4.317   5.186   1.792  0.3253  0.2585  0.2042
  674MOL0     C90857   4.376   5.084   1.743 -0.0572  0.5149 -0.3494
  674MOL0     O90858   4.314   4.988   1.676  0.4453  0.3667  0.3160
  674MOL0     C90859   4.180   4.999   1.674 -0.4838 -0.0368 -0.1973
  674MOL0     C90860   4.111   5.040   1.558  0.3541  0.2122 -0.2990
  674MOL0     C90861   3.976   5.036   1.554  0.6028  0.5052  0.2999
  674MOL0     C90862   3.895   5.009   1.662 -0.6838  0.5666 -0.5229
  674MOL0     O90863   3.761   5.019   1.671  0.3674 -0.0219  0.1917
  674MOL0     C90864   3.684   4.997   1.551  0.0595  0.4799  0.4848
  674MOL0     C90865   3.531   4.977   1.587 -0.0973 -0.0385 -0.0088
  674MOL0     C90866   3.493   4.869   1.686 -0.2788  0.5543 -0.4949
  674MOL0     C90867   3.345   4.842   1.693  0.0908 -0.0089  0.2551
  674MOL0     C90868   3.310   4.721   1.789  0.2144 -1.0659  0.1033
  674MOL0     C90869   3.160   4.718   1.790  0.8259 -0.0317 -0.5904
  674MOL0     C90870   3.096   4.609   1.878 -0.0672 -0.1923 -0.6230
  674MOL0     C90871   3.093   4.471   1.819  0.2183  0.1807  0.2002
  674MOL0     N90872   2.997   4.461   1.709  0.9632  0.7368  0.3027
  674MOL0     C90873   2.856   4.480   1.713  0.1393  0.6494 -0.1732
  674MOL0     C90874   2.810   4.466   1.586  1.2476  0.2025  0.2745
  674MOL0     C90875   2.667   4.459   1.553  0.3057  0.3278  0.4686
  674MOL0     C90876   2.596   4.339   1.626 -0.3582 -0.5049 -0.3111
  674MOL0     C90877   2.510   4.388   1.745  1.1682 -0.7236 -0.5158
  674MOL0     C90878   2.375   4.447   1.703 -0.4472 -0.8846 -0.1431
  674MOL0     O90879   2.295   4.337   1.647  0.7740  0.0612  0.1834
  674MOL0     C90880   2.158   4.353   1.622  0.0958 -0.3247 -0.7999
  674MOL0     C90881   2.098   4.264   1.533 -0.7296  0.1046  0.1091
  674MOL0     C90882   1.958   4.269   1.505  0.5189  0.5493  0.1508
  674MOL0     C90883   1.902   4.162   1.410 -0.1143  0.2579  0.3892
  674MOL0     C90884   1.886   4.381   1.548 -0.0703  0.2619 -0.6385
  674MOL0     C90885   1.751   4.422   1.499 -0.1341  0.6488  0.1392
  674MOL0     O90886   1.699   4.543   1.539 -0.3042  0.3201  0.2201
  674MOL0     C90887   1.564   4.578   1.530  0.3013 -0.0414  0.5729
  674MOL0     C90888   1.463   4.486   1.499  0.0573 -0.9319 -0.1415
  674MOL0     C90889   1.327   4.518   1.489  0.3831  0.4687  0.5459
  674MOL0     C90890   1.284   4.650   1.515  0.7242  0.1762 -1.0507
  674MOL0     O90891   1.151   4.685   1.521  0.7991 -0.9010  0.3581
  674MOL0     C90892   1.052   4.582   1.510 -1.1883  0.8897 -0.6683
  674MOL0     C90893   0.917   4.645   1.529  0.5097  0.1308  0.5953
  674MOL0     C90894   0.907   4.752   1.412  0.3790 -0.3939 -0.4695
  674MOL0     C90895   0.776   4.819   1.412  0.7388 -1.2963  0.0459
  674MOL0     C90896   0.781   4.948   1.337 -0.8193  0.4620  0.3507
  674MOL0     C90897   0.661   5.027   1.376 -0.4721 -0.7105 -0.7616
  674MOL0     C90898   0.678   5.102   1.512  0.2429  0.1742 -0.0232
  674MOL0     C90899   0.547   5.175   1.535 -0.2845  0.5751  0.1139
  674MOL0    Cl90900   0.546   5.260   1.683 -0.1589 -0.2427 -0.0756
  674MOL0     C90901   1.378   4.747   1.541  0.1784 -0.2030 -0.2416
  674MOL0     C90902   1.515   4.716   1.536 -0.5677  0.6394  0.2982
  674MOL0     O90903   1.713   4.356   1.403  0.3484 -0.3269 -0.0635
  674MOL0     C90904   1.947   4.465   1.647 -0.4655 -0.6010 -0.6639
  674MOL0     C90905   2.085   4.451   1.683  0.5572 -0.1146 -0.2097
  674MOL0     N90906   2.920   4.433   1.508 -0.2418 -0.8644  0.3175
  674MOL0     N90907   3.029   4.434   1.584 -0.0828  0.4073  0.4499
  674MOL0     C90908   3.962   4.979   1.780 -0.4500 -0.9721  0.3155
  674MOL0     C90909   4.103   4.970   1.788 -0.3016 -0.0269 -0.4934
  674MOL0     C90910   4.523   5.077   1.760 -0.1754 -0.6094 -1.0443
  674MOL0     C90911   4.591   4.955   1.760 -0.4133  0.4599 -0.4959
  674MOL0     C90912   4.732   4.949   1.778 -0.1782 -0.7597  0.5221
  674MOL0     C90913   4.801   5.066   1.795  0.1188  0.0508 -0.6243
  674MOL0     O90914   4.935   5.056   1.814  0.2709  0.6275 -0.5992
  674MOL0     C90915   5.024   5.169   1.841 -0.5274 -0.5990 -0.1002
  674MOL0     C90916   5.135   5.129   1.942 -0.2628  0.6163 -0.0721
  674MOL0     C90917   5.080   5.079   2.080  0.2516  0.5785  0.6369
  674MOL0     C90918   5.048   5.198   2.177  0.6375  0.4659 -0.6281
  674MOL0     C90919   5.162   5.267   2.237  0.6573 -0.9965  0.5636
  674MOL0     C90920   5.252   5.318   2.295 -0.7355 -0.3896  0.3493
  674MOL0     C90921   4.740   5.188   1.780  0.0506  0.1658  0.6558
  674MOL0     C90922   4.603   5.192   1.758  0.2982  0.4093  0.4300
  674MOL0     H90923   4.169   5.065   1.469  0.1004 -0.4596 -0.6587
  674MOL0     H90924   3.932   5.063   1.459 -2.4420  0.1484  1.5165
  674MOL0     H90925   3.701   5.090   1.496  0.6667 -0.2767 -0.6384
  674MOL0     H90926   3.725   4.919   1.486  1.7221  1.0917  0.7451
  674MOL0     H90927   3.494   5.074   1.622 -0.5739 -0.7676  1.5659
  674MOL0     H90928   3.478   4.960   1.492 -0.2076 -3.9829  0.6018
  674MOL0     H90929   3.545   4.776   1.659  1.0643  0.5709  1.7784
  674MOL0     H90930   3.516   4.898   1.789  0.8077  1.2909 -0.9280
  674MOL0     H90931   3.299   4.929   1.741 -0.8586 -0.6132  0.4661
  674MOL0     H90932   3.310   4.819   1.592  0.4198 -1.8276  0.5175
  674MOL0     H90933   3.356   4.634   1.741  2.5526  0.2693 -0.2423
  674MOL0     H90934   3.346   4.728   1.892 -0.6573 -0.7777  0.3985
  674MOL0     H90935   3.112   4.811   1.820  0.3331 -0.1018 -1.1408
  674MOL0     H90936   3.115   4.702   1.691 -1.8126  0.8129  0.4081
  674MOL0     H90937   3.154   4.603   1.970 -1.9529  2.9758  0.9305
  674MOL0     H90938   2.994   4.638   1.905 -0.7188 -0.7427 -2.3729
  674MOL0     H90939   3.080   4.393   1.894 -4.9027  0.0317 -0.5003
  674MOL0     H90940   3.192   4.471   1.773 -0.4493  2.2852 -1.4072
  674MOL0     H90941   2.803   4.489   1.807  1.3375  0.5944  0.5216
  674MOL0     H90942   2.625   4.555   1.585  3.4779  1.3878  1.8040
  674MOL0     H90943   2.655   4.458   1.445  1.7048  1.0905  0.2936
  674MOL0     H90944   2.675   4.274   1.667  0.3939 -0.3261 -1.4466
  674MOL0     H90945   2.535   4.278   1.558 -0.7141 -0.8402  0.2900
  674MOL0     H90946   2.565   4.466   1.800  1.9768  0.5248 -2.9420
  674MOL0     H90947   2.496   4.307   1.818  2.0312 -1.1629 -0.8233
  674MOL0     H90948   2.371   4.526   1.627 -1.8887 -3.1852 -2.6874
  674MOL0     H90949   2.332   4.497   1.790 -0.4010  0.7984 -1.0462
  674MOL0     H90950   2.163   4.191   1.487 -2.0811 -1.3710  0.4565
  674MOL0     H90951   1.990   4.097   1.402 -0.1717  0.0289  1.3743
  674MOL0     H90952   1.821   4.115   1.467 -0.4951  1.6305  1.0214
  674MOL0     H90953   1.879   4.200   1.311 -1.4127 -0.5158  0.3680
  674MOL0     H90954   1.485   4.381   1.485  0.9710 -0.4791 -2.3386
  674MOL0     H90955   1.255   4.439   1.469  1.2662 -0.0492 -0.7146
  674MOL0     H90956   1.058   4.549   1.406 -0.8547  0.7709 -0.6115
  674MOL0     H90957   1.051   4.504   1.587 -2.6053  0.5552 -0.9970
  674MOL0     H90958   0.846   4.562   1.524 -0.4026  0.9266  0.0356
  674MOL0     H90959   0.903   4.686   1.630 -2.6725 -0.0953  0.3367
  674MOL0     H90960   0.902   4.706   1.313 -2.0947  2.4390 -1.8111
  674MOL0     H90961   0.986   4.828   1.417 -0.3445  0.3763 -0.7116
  674MOL0     H90962   0.701   4.765   1.354 -0.4512  0.0196  0.2982
  674MOL0     H90963   0.741   4.822   1.516  0.3359  0.1372 -0.1136
  674MOL0     H90964   0.776   4.921   1.231  1.5876 -3.4617  1.0095
  674MOL0     H90965   0.863   5.014   1.367 -1.6378  1.7978 -0.2763
  674MOL0     H90966   0.633   5.098   1.297  0.2402 -0.3210 -0.6670
  674MOL0     H90967   0.585   4.950   1.390  1.5217 -2.2788  2.6769
  674MOL0     H90968   0.768   5.164   1.523  1.0998 -0.6553 -1.8175
  674MOL0     H90969   0.687   5.026   1.590 -2.3152  0.4513  0.6144
  674MOL0     H90970   0.468   5.099   1.529 -0.3439  0.5047  1.5407
  674MOL0     H90971   0.532   5.235   1.445 -2.2792  0.1806  0.1385
  674MOL0     H90972   1.341   4.847   1.559 -0.2448 -0.5393  0.7938
  674MOL0     H90973   1.584   4.799   1.549 -2.7640  2.9327 -1.5480
  674MOL0     H90974   1.886   4.539   1.698  1.1560 -1.2880  2.5674
  674MOL0     H90975   2.121   4.515   1.762 -0.0581  0.3879 -0.3274
  674MOL0     H90976   3.902   4.952   1.866  0.7845  0.8820  1.8651
  674MOL0     H90977   4.153   4.946   1.881  1.8552  1.6739 -1.1290
  674MOL0     H90978   4.534   4.863   1.748  0.2897  0.0155 -0.4692
  674MOL0     H90979   4.774   4.849   1.785  1.1121 -0.1562  4.2514
  674MOL0     H90980   5.074   5.205   1.751  0.5730  1.7754  1.3712
  674MOL0     H90981   4.969   5.251   1.888  0.5024  0.2775 -0.3991
  674MOL0     H90982   5.202   5.214   1.953 -2.2532  2.2652 -0.2285
  674MOL0     H90983   5.194   5.046   1.900  1.3700  1.7943 -0.1963
  674MOL0     H90984   5.152   5.005   2.115  0.6649  0.3145 -0.7458
  674MOL0     H90985   4.984   5.028   2.069 -0.0251  1.2958 -0.4065
  674MOL0     H90986   4.981   5.170   2.259 -0.9990  2.2443 -1.2918
  674MOL0     H90987   5.001   5.278   2.119  0.8866  1.3503  0.3620
  674MOL0     H90988   5.347   5.339   2.340 -0.6169 -1.3121  0.5564
  674MOL0     H90989   4.786   5.287   1.783  0.3587  0.0135  1.0694
  674MOL0     H90990   4.557   5.290   1.762  1.4824  1.0188 -0.1710
  675MOL0     O90991  10.028   1.932   4.142 -0.2575  0.7729  0.1016
  675MOL0     C90992  10.080   1.831   4.190 -0.1277  0.6496  0.8637
  675MOL0     O90993  10.016   1.715   4.226  0.7086 -0.1452  0.9163
  675MOL0     C90994   9.879   1.701   4.197  0.9629  0.2796  0.5561
  675MOL0     C90995   9.779   1.786   4.242 -0.8474 -0.7157  1.0304
  675MOL0     C90996   9.648   1.779   4.213  0.2325  0.5128 -0.0010
  675MOL0     C90997   9.600   1.685   4.120 -0.5235 -0.1947  0.4044
  675MOL0     O90998   9.467   1.682   4.092  0.5812 -0.6695 -0.7611
  675MOL0     C90999   9.421   1.559   4.038 -0.0566  0.2225 -0.0046
  675MOL0     C91000   9.270   1.579   4.002  0.7941  0.4800 -0.0355
  675MOL0     C91001   9.255   1.693   3.902 -0.8232 -0.1074 -0.4177
  675MOL0     C91002   9.114   1.722   3.854  0.4221  0.8972 -1.0296
  675MOL0     C91003   9.122   1.824   3.745  0.9311 -0.3851 -0.3924
  675MOL0     C91004   8.987   1.870   3.713 -0.6219  0.4286 -0.5159
  675MOL0     C91005   8.881   1.782   3.653 -0.8089  0.4923 -0.3952
  675MOL0     C91006   8.913   1.748   3.503 -0.4230  0.1737  0.3523
  675MOL0     N91007   8.844   1.633   3.451 -0.2529 -0.2407  0.4431
  675MOL0     C91008   8.709   1.617   3.466  0.0060 -0.1162  0.7228
  675MOL0     C91009   8.678   1.491   3.432  0.1872 -0.0673  0.3701
  675MOL0     C91010   8.541   1.436   3.420 -0.4912  0.1734  0.5648
  675MOL0     C91011   8.500   1.426   3.271  0.0292  0.0598  0.3567
  675MOL0     C91012   8.404   1.303   3.256  0.8112 -0.1984 -0.2577
  675MOL0     C91013   8.370   1.281   3.104 -0.4794  0.3076 -0.8273
  675MOL0     O91014   8.290   1.381   3.044 -0.6443  0.1041  0.2786
  675MOL0     C91015   8.154   1.385   3.065  0.0731  0.8989  1.1323
  675MOL0     C91016   8.071   1.290   3.132 -0.2008 -0.0627  0.4895
  675MOL0     C91017   7.931   1.315   3.137 -0.1279 -0.1897  0.3894
  675MOL0     C91018   7.851   1.220   3.229 -0.0952  0.6278 -0.4696
  675MOL0     C91019   7.869   1.418   3.066 -0.9140 -0.7129  0.2678
  675MOL0     C91020   7.727   1.447   3.044  0.0456 -0.3693  0.7238
  675MOL0     O91021   7.699   1.539   2.951 -0.4528  0.0254 -0.7195
  675MOL0     C91022   7.569   1.557   2.916 -0.1496 -0.7195  0.2589
  675MOL0     C91023   7.472   1.594   3.004  0.8166  0.1428 -0.0038
  675MOL0     C91024   7.332   1.591   2.978  0.1765 -0.3672  0.2643
  675MOL0     C91025   7.293   1.584   2.851 -0.1950 -0.5614  0.3176
  675MOL0     O91026   7.156   1.599   2.830  0.7813  0.6363  0.2719
  675MOL0     C91027   7.112   1.582   2.698  0.4835  0.1833  0.3389
  675MOL0     C91028   6.966   1.559   2.688 -0.0589  0.0822  0.3049
  675MOL0     C91029   6.865   1.673   2.703  0.3875  0.2213  0.4642
  675MOL0     C91030   6.723   1.617   2.683 -1.0285 -1.0632  0.0003
  675MOL0     C91031   6.627   1.734   2.656 -0.4115  1.6985 -0.7405
  675MOL0     C91032   6.484   1.679   2.654  0.2171  0.2929 -0.2960
  675MOL0     C91033   6.383   1.784   2.653 -0.2373 -0.1444 -0.8601
  675MOL0     C91034   6.242   1.726   2.673  0.0883 -0.3710 -0.1765
  675MOL0    Cl91035   6.127   1.863   2.664 -0.1601 -0.2642  0.1301
  675MOL0     C91036   7.396   1.559   2.752  0.4922 -0.0745 -0.9152
  675MOL0     C91037   7.531   1.544   2.786 -0.2195  0.6529  0.4579
  675MOL0     O91038   7.648   1.383   3.109  0.5761  0.1335  0.1210
  675MOL0     C91039   7.965   1.507   2.991  0.2315 -0.2532 -0.9118
  675MOL0     C91040   8.097   1.486   2.997 -0.2825 -0.2496  0.6198
  675MOL0     N91041   8.800   1.426   3.408 -0.3115  0.9692  0.8091
  675MOL0     N91042   8.898   1.519   3.421 -0.0265  1.3823 -0.2872
  675MOL0     C91043   9.697   1.593   4.073 -0.0677  1.5041 -0.2103
  675MOL0     C91044   9.836   1.601   4.107  1.2029 -0.2836  0.0422
  675MOL0     C91045  10.228   1.833   4.208  1.1935 -0.5473  1.0091
  675MOL0     C91046  10.298   1.729   4.278 -0.3973 -0.5155  1.2350
  675MOL0     C91047  10.433   1.732   4.302 -0.0233  0.2351  0.2295
  675MOL0     C91048  10.505   1.853   4.267  0.4578  0.3158  0.2518
  675MOL0     O91049  10.635   1.874   4.301 -0.0999 -0.9143  0.0835
  675MOL0     C91050  10.705   1.766   4.352  1.0536 -0.3749  0.3483
  675MOL0     C91051  10.849   1.808   4.381  1.4167  0.7931  0.0329
  675MOL0     C91052  10.923   1.853   4.251  0.5689  0.1248 -0.1911
  675MOL0     C91053  11.072   1.882   4.290  0.8152  0.0575 -0.6281
  675MOL0     C91054  11.158   1.890   4.166  0.3800 -0.0656  0.1307
  675MOL0     C91055  11.226   1.913   4.071  0.0943 -0.3242  0.0913
  675MOL0     C91056  10.442   1.952   4.195 -0.2296  0.4844  0.6220
  675MOL0     C91057  10.303   1.941   4.162  0.4283  0.5385  0.1576
  675MOL0     H91058   9.811   1.860   4.315  0.0007  0.4797 -0.4957
  675MOL0     H91059   9.587   1.857   4.257  1.3751  0.0139  2.6322
  675MOL0     H91060   9.472   1.529   3.946 -1.3422 -0.3328 -0.5680
  675MOL0     H91061   9.426   1.477   4.111 -3.1087 -1.5003 -1.5144
  675MOL0     H91062   9.234   1.484   3.961 -2.0080  1.9262 -1.2412
  675MOL0     H91063   9.205   1.600   4.088  1.5654  0.0279  0.6623
  675MOL0     H91064   9.300   1.783   3.944  1.6014 -2.7645  3.2039
  675MOL0     H91065   9.320   1.661   3.820  1.9151 -1.8238  2.2388
  675MOL0     H91066   9.067   1.628   3.823 -1.3403  1.3395  0.1002
  675MOL0     H91067   9.049   1.771   3.928 -0.0521 -1.7874  0.4835
  675MOL0     H91068   9.179   1.912   3.775  1.1058  0.3671 -2.6763
  675MOL0     H91069   9.168   1.785   3.654 -0.3474  0.8719 -1.6390
  675MOL0     H91070   8.955   1.922   3.804  1.8826  0.9616  0.1599
  675MOL0     H91071   8.992   1.954   3.643  0.0209  0.0061 -0.9878
  675MOL0     H91072   8.880   1.688   3.710  0.3423  2.6006  3.5090
  675MOL0     H91073   8.787   1.838   3.650 -0.5564  0.8942 -0.7229
  675MOL0     H91074   9.020   1.726   3.499  0.2666  3.2572 -1.9089
  675MOL0     H91075   8.897   1.843   3.452 -0.5610  2.0838  3.6498
  675MOL0     H91076   8.647   1.702   3.491 -0.1272 -0.9542  3.4969
  675MOL0     H91077   8.558   1.338   3.465  1.7309  0.1260 -0.2658
  675MOL0     H91078   8.476   1.495   3.485 -1.4463 -0.0473 -0.1620
  675MOL0     H91079   8.587   1.407   3.207 -0.8888  1.8801 -1.5444
  675MOL0     H91080   8.446   1.516   3.242 -0.5257 -0.8029 -1.3640
  675MOL0     H91081   8.308   1.329   3.301  0.0948 -3.1162  0.0979
  675MOL0     H91082   8.443   1.218   3.312 -1.0787 -0.8814  0.1052
  675MOL0     H91083   8.317   1.185   3.094  0.2247 -0.4951  1.9737
  675MOL0     H91084   8.467   1.271   3.054  1.2061  1.3614  1.9535
  675MOL0     H91085   8.122   1.201   3.167  1.4309  0.0709 -1.3729
  675MOL0     H91086   7.793   1.268   3.307 -0.0270  1.5869 -0.9939
  675MOL0     H91087   7.787   1.165   3.160  0.0915  1.8564 -1.6756
  675MOL0     H91088   7.920   1.148   3.274 -1.8989 -1.6335 -1.1149
  675MOL0     H91089   7.502   1.625   3.104 -1.0220  1.1974  0.2693
  675MOL0     H91090   7.250   1.616   3.045  2.2647  2.1610  2.1178
  675MOL0     H91091   7.145   1.661   2.629 -0.0504  0.8549  0.8378
  675MOL0     H91092   7.143   1.485   2.658  0.1176 -0.1728  0.9067
  675MOL0     H91093   6.945   1.518   2.589 -0.5733 -0.2199  0.5392
  675MOL0     H91094   6.951   1.483   2.765 -0.0103 -0.2433 -0.0090
  675MOL0     H91095   6.881   1.753   2.630 -2.4712  0.8183  0.4145
  675MOL0     H91096   6.876   1.715   2.803 -0.2850  0.1254  0.5793
  675MOL0     H91097   6.711   1.547   2.601 -2.4151  1.0681 -1.7232
  675MOL0     H91098   6.693   1.576   2.781 -2.2592 -1.0569 -0.3577
  675MOL0     H91099   6.641   1.783   2.559 -0.4396  0.1884 -1.5478
  675MOL0     H91100   6.638   1.813   2.730  1.8762 -2.2457  3.7267
  675MOL0     H91101   6.463   1.600   2.581 -1.5495  0.2954  0.1478
  675MOL0     H91102   6.467   1.618   2.744  2.3041  1.3155  0.8619
  675MOL0     H91103   6.377   1.834   2.557  0.3275  1.1566 -0.2393
  675MOL0     H91104   6.411   1.859   2.728 -1.5003  0.1020 -0.6020
  675MOL0     H91105   6.243   1.679   2.772  2.1550 -0.5381 -0.2279
  675MOL0     H91106   6.204   1.644   2.612 -1.0398 -1.9309  2.4377
  675MOL0     H91107   7.370   1.542   2.648  0.6110  0.3697 -1.0187
  675MOL0     H91108   7.596   1.506   2.708 -1.5195  2.5501 -1.6698
  675MOL0     H91109   7.929   1.595   2.939  0.6510  2.0952  2.4315
  675MOL0     H91110   8.151   1.547   2.925 -1.5649  0.3920  0.1789
  675MOL0     H91111   9.680   1.522   3.993 -0.0435 -0.7853  1.7161
  675MOL0     H91112   9.900   1.526   4.061  3.6440  2.2906 -1.1022
  675MOL0     H91113  10.252   1.633   4.302  2.9636 -3.0662 -1.4876
  675MOL0     H91114  10.479   1.646   4.351  2.5182  1.3850  0.0093
  675MOL0     H91115  10.670   1.731   4.450 -1.5907 -0.3894 -0.5204
  675MOL0     H91116  10.699   1.686   4.277 -1.3322  1.4615 -1.5851
  675MOL0     H91117  10.891   1.718   4.428 -1.5358 -0.3594  0.6902
  675MOL0     H91118  10.844   1.882   4.462 -1.6047  2.6906 -1.6644
  675MOL0     H91119  10.870   1.937   4.205 -2.8637 -1.7735 -0.0501
  675MOL0     H91120  10.914   1.771   4.179 -1.2568  0.6342 -0.6007
  675MOL0     H91121  11.103   1.798   4.353 -1.0239  1.7071  2.7891
  675MOL0     H91122  11.095   1.977   4.339  0.6626 -0.0567 -0.3273
  675MOL0     H91123  11.306   1.936   4.003  1.8118 -0.8592  1.8089
  675MOL0     H91124  10.486   2.050   4.178 -0.4399  0.7314  1.4501
  675MOL0     H91125  10.255   2.019   4.103 -1.6418 -0.1861  0.7673
  676MOL0     O91126   5.474   3.361   1.970  0.2686  0.1380 -0.6846
  676MOL0     C91127   5.496   3.286   1.876  0.2644  0.0511  0.5992
  676MOL0     O91128   5.416   3.274   1.764 -0.1090  0.2033 -0.6549
  676MOL0     C91129   5.291   3.313   1.787 -0.8453 -0.5850 -0.4242
  676MOL0     C91130   5.202   3.286   1.887 -0.0276  0.5229 -0.3005
  676MOL0     C91131   5.069   3.322   1.878 -0.0747 -0.7650  0.3884
  676MOL0     C91132   5.020   3.382   1.766  0.1646 -0.9449 -0.5696
  676MOL0     O91133   4.887   3.420   1.763 -0.1179  0.4480 -0.1249
  676MOL0     C91134   4.818   3.432   1.637 -0.5269 -0.4322 -1.0846
  676MOL0     C91135   4.666   3.413   1.645  0.0444 -0.7406 -0.1409
  676MOL0     C91136   4.600   3.533   1.727 -0.1823  0.1990 -0.5042
  676MOL0     C91137   4.453   3.519   1.726 -0.0409  0.3194  0.0187
  676MOL0     C91138   4.389   3.615   1.826 -0.2270 -0.4096 -0.0289
  676MOL0     C91139   4.245   3.593   1.828  0.1135  0.0917 -0.5685
  676MOL0     C91140   4.174   3.684   1.917 -0.1615  0.5976 -0.3331
  676MOL0     C91141   4.076   3.612   2.002 -0.1235  0.1029  0.3081
  676MOL0     N91142   4.002   3.700   2.093  0.3383 -0.6465  0.2286
  676MOL0     C91143   4.033   3.710   2.229 -0.7310  0.1072  0.6618
  676MOL0     C91144   3.954   3.807   2.270  1.0020 -0.7070 -0.3392
  676MOL0     C91145   3.947   3.857   2.416 -0.6357  0.2192 -0.4861
  676MOL0     C91146   3.852   3.755   2.490 -0.4874  0.2759  0.3402
  676MOL0     C91147   3.841   3.783   2.638 -0.3372  0.2304  0.0113
  676MOL0     C91148   3.770   3.912   2.666 -0.4068 -0.2960 -0.6975
  676MOL0     O91149   3.630   3.901   2.625  0.1259 -0.6027 -0.2406
  676MOL0     C91150   3.535   3.985   2.680  0.6787 -0.1472 -0.1876
  676MOL0     C91151   3.558   4.118   2.731 -0.4881  0.7800 -0.3573
  676MOL0     C91152   3.457   4.183   2.799  0.4548 -0.2766  0.0569
  676MOL0     C91153   3.489   4.329   2.837 -0.7910  0.0748  0.0306
  676MOL0     C91154   3.340   4.122   2.835  0.0560 -0.4547  0.4075
  676MOL0     C91155   3.237   4.189   2.913  0.6001 -0.0895  0.2326
  676MOL0     O91156   3.217   4.326   2.893  0.3819  0.5180 -0.5224
  676MOL0     C91157   3.094   4.373   2.925 -0.4370  0.0874  0.4869
  676MOL0     C91158   3.055   4.401   3.054 -0.3733  1.1972 -0.3044
  676MOL0     C91159   2.919   4.412   3.090  0.3181  0.1542  0.6966
  676MOL0     C91160   2.823   4.430   2.984  0.3506 -0.8162 -0.2194
  676MOL0     O91161   2.686   4.443   2.996 -0.2108 -0.1414  0.2194
  676MOL0     C91162   2.622   4.512   3.105  0.9204 -0.3820 -0.0724
  676MOL0     C91163   2.673   4.665   3.121  1.0197 -0.0794 -0.4888
  676MOL0     C91164   2.580   4.765   3.189  0.6767 -0.1972 -0.6926
  676MOL0     C91165   2.434   4.770   3.135  1.0898  0.9470 -0.0855
  676MOL0     C91166   2.345   4.674   3.219 -0.0646 -0.0097 -0.2116
  676MOL0     C91167   2.282   4.767   3.331 -0.9838 -1.1542 -0.4881
  676MOL0     C91168   2.187   4.678   3.413  1.5257 -0.1894 -0.5401
  676MOL0     C91169   2.109   4.759   3.522 -0.0378  0.1203  0.7547
  676MOL0    Cl91170   1.964   4.831   3.444  0.2253 -0.1802  0.0607
  676MOL0     C91171   2.868   4.420   2.851 -0.5416 -0.3391 -0.1950
  676MOL0     C91172   3.004   4.396   2.819 -0.2850  0.7752  0.2171
  676MOL0     O91173   3.178   4.119   2.993 -0.2019 -0.3936  0.3084
  676MOL0     C91174   3.311   3.994   2.784 -0.4355 -0.0156  0.1240
  676MOL0     C91175   3.406   3.933   2.710  0.0348 -0.2090  0.2313
  676MOL0     N91176   3.873   3.853   2.164  0.6319  0.1314  0.0742
  676MOL0     N91177   3.903   3.791   2.053  0.1152  0.2236  0.0275
  676MOL0     C91178   5.109   3.409   1.660  0.6517 -0.4114 -0.2376
  676MOL0     C91179   5.241   3.365   1.669  0.3088  0.1611  0.1677
  676MOL0     C91180   5.621   3.224   1.869 -0.0655  0.9719  0.0321
  676MOL0     C91181   5.724   3.243   1.968 -0.1440 -0.7057 -0.3168
  676MOL0     C91182   5.853   3.202   1.952  0.2568 -0.0986  0.5751
  676MOL0     C91183   5.881   3.121   1.839  0.4303  0.3048 -0.1920
  676MOL0     O91184   6.000   3.057   1.819  0.0458  0.3429  0.8122
  676MOL0     C91185   6.111   3.098   1.902 -1.2806  0.3512  0.7699
  676MOL0     C91186   6.248   3.044   1.845  0.0016  1.2642  0.6892
  676MOL0     C91187   6.274   2.896   1.868 -0.3404  0.1335 -0.1031
  676MOL0     C91188   6.406   2.842   1.811  0.0660 -0.4690  0.3553
  676MOL0     C91189   6.404   2.704   1.792  0.4445  0.0858  0.2923
  676MOL0     C91190   6.412   2.590   1.766 -0.1922 -0.5022  0.2390
  676MOL0     C91191   5.783   3.098   1.743 -1.1776  0.5728 -0.7070
  676MOL0     C91192   5.656   3.152   1.755 -0.1306  0.2140 -0.2961
  676MOL0     H91193   5.236   3.223   1.969 -1.1724 -0.1259 -0.3103
  676MOL0     H91194   4.999   3.291   1.956 -0.8700 -0.5060 -0.2054
  676MOL0     H91195   4.838   3.532   1.598 -0.5633  0.9414  2.0844
  676MOL0     H91196   4.861   3.356   1.571  2.0762  0.2661 -0.3063
  676MOL0     H91197   4.621   3.433   1.548  0.7996  0.5180 -0.2591
  676MOL0     H91198   4.641   3.311   1.676  1.2683 -0.3870  2.3014
  676MOL0     H91199   4.643   3.527   1.828 -2.4841  4.0630  0.9237
  676MOL0     H91200   4.628   3.633   1.693  0.0769  0.8436  1.4357
  676MOL0     H91201   4.421   3.546   1.625 -3.4820 -1.0462  0.5811
  676MOL0     H91202   4.425   3.416   1.748  0.7079  0.2933  0.9038
  676MOL0     H91203   4.427   3.605   1.927 -1.5899  0.4105  0.6035
  676MOL0     H91204   4.407   3.719   1.796  1.9444 -1.0666 -1.2128
  676MOL0     H91205   4.197   3.618   1.733 -0.7233 -1.8400 -0.7092
  676MOL0     H91206   4.228   3.487   1.847  1.8142 -0.2741 -0.8793
  676MOL0     H91207   4.236   3.732   1.993  1.1878 -2.4311  0.6269
  676MOL0     H91208   4.116   3.755   1.856 -1.0765 -0.9982 -1.3951
  676MOL0     H91209   4.127   3.538   2.063  0.6202  1.1696  1.0036
  676MOL0     H91210   4.006   3.563   1.932  0.3829 -0.0065 -0.1258
  676MOL0     H91211   4.117   3.664   2.279 -0.3848  0.3129  0.2794
  676MOL0     H91212   4.049   3.866   2.454 -0.9720  0.2483  0.4278
  676MOL0     H91213   3.896   3.953   2.420 -0.9207  0.0736 -0.5668
  676MOL0     H91214   3.888   3.654   2.466 -1.5539  0.3054 -1.5533
  676MOL0     H91215   3.753   3.755   2.444  0.0357  3.3978 -1.0461
  676MOL0     H91216   3.943   3.786   2.678 -0.0083  0.6844 -0.8246
  676MOL0     H91217   3.781   3.704   2.684 -1.1405  1.3233  0.8938
  676MOL0     H91218   3.823   4.002   2.633 -1.4984  1.3613  1.7602
  676MOL0     H91219   3.758   3.924   2.774  1.9970 -2.9042 -0.0229
  676MOL0     H91220   3.654   4.163   2.707  0.9933 -1.7371  0.4489
  676MOL0     H91221   3.467   4.368   2.937  1.4985 -0.9699  1.0225
  676MOL0     H91222   3.597   4.344   2.837 -1.0356  2.3098 -1.8530
  676MOL0     H91223   3.445   4.400   2.766  0.1097  0.6788  0.0621
  676MOL0     H91224   3.127   4.379   3.132 -0.0914  0.3402 -0.8023
  676MOL0     H91225   2.882   4.408   3.192  0.0406 -0.4267  0.5757
  676MOL0     H91226   2.515   4.520   3.087  0.8008  3.6248  1.3451
  676MOL0     H91227   2.638   4.450   3.194  1.2524 -0.8821 -0.4762
  676MOL0     H91228   2.767   4.665   3.176  0.6074  0.6988  0.2209
  676MOL0     H91229   2.698   4.706   3.022 -1.0567 -3.3189 -2.5605
  676MOL0     H91230   2.616   4.866   3.167 -0.8954  0.7183  0.7123
  676MOL0     H91231   2.578   4.750   3.297  0.5682 -0.4461 -0.7305
  676MOL0     H91232   2.393   4.871   3.129  0.3726  0.6839  0.2155
  676MOL0     H91233   2.445   4.722   3.037  0.0278 -0.8057  0.5978
  676MOL0     H91234   2.408   4.593   3.256  0.4522  1.3583  2.0851
  676MOL0     H91235   2.276   4.628   3.148  1.2225 -2.2389 -0.1222
  676MOL0     H91236   2.353   4.820   3.396 -2.3113 -1.2208  1.0848
  676MOL0     H91237   2.230   4.847   3.276 -1.2025 -1.4944 -0.7787
  676MOL0     H91238   2.251   4.602   3.459 -1.4537 -1.8630  1.1681
  676MOL0     H91239   2.114   4.643   3.339  0.1543  2.0966 -0.3642
  676MOL0     H91240   2.171   4.839   3.564 -0.2069  1.1620 -0.9011
  676MOL0     H91241   2.079   4.698   3.607 -0.2066 -1.3016 -0.2919
  676MOL0     H91242   2.796   4.423   2.770 -3.0040 -3.2105  1.6542
  676MOL0     H91243   3.037   4.362   2.721 -0.9792  0.7607 -0.0191
  676MOL0     H91244   3.219   3.936   2.792 -0.4865  0.1569  0.9249
  676MOL0     H91245   3.385   3.832   2.677  0.1408 -0.2898  0.4081
  676MOL0     H91246   5.086   3.462   1.569 -0.3259  0.9746  0.7761
  676MOL0     H91247   5.307   3.384   1.586  1.6354 -1.2728  0.8377
  676MOL0     H91248   5.702   3.299   2.059 -0.4513  2.6505 -2.3019
  676MOL0     H91249   5.929   3.218   2.028 -1.7117  2.9261  2.0848
  676MOL0     H91250   6.121   3.205   1.882 -0.1563 -0.0801 -1.1874
  676MOL0     H91251   6.091   3.083   2.009 -0.3340  0.5582  0.9868
  676MOL0     H91252   6.332   3.102   1.886  1.8955 -1.0839  0.3427
  676MOL0     H91253   6.245   3.054   1.736 -1.8876 -1.2534  0.4307
  676MOL0     H91254   6.192   2.837   1.825 -0.8359  0.5799  0.2316
  676MOL0     H91255   6.276   2.876   1.975  0.8719 -0.9516 -0.2938
  676MOL0     H91256   6.486   2.875   1.878  0.1623  3.9820 -1.5527
  676MOL0     H91257   6.425   2.881   1.711  1.4085  0.9616  1.1191
  676MOL0     H91258   6.431   2.485   1.751  1.0316 -0.1282 -1.0492
  676MOL0     H91259   5.812   3.052   1.649  1.4973 -0.8929  0.6995
  676MOL0     H91260   5.589   3.137   1.671  0.5802 -0.3111 -0.7726
  677MOL0     O91261   9.997  10.467  10.902 -0.2185 -0.7519 -1.2341
  677MOL0     C91262  10.064  10.370  10.925  0.5355 -0.0820 -0.3866
  677MOL0     O91263  10.022  10.251  10.972 -0.3060 -0.1069  0.1852
  677MOL0     C91264   9.882  10.228  10.972  0.0781 -0.5161  0.3840
  677MOL0     C91265   9.793  10.259  10.867 -0.0512 -0.2798  0.3635
  677MOL0     C91266   9.652  10.228  10.881  0.1974  0.5577  1.0288
  677MOL0     C91267   9.613  10.148  10.991  0.4942 -0.0700  0.0339
  677MOL0     O91268   9.478  10.119  11.008 -1.0551 -0.0667  0.0662
  677MOL0     C91269   9.429  10.009  10.931 -1.3920  0.6682 -0.1621
  677MOL0     C91270   9.353   9.896  11.008 -0.1456 -0.2138  0.6277
  677MOL0     C91271   9.223   9.955  11.066  0.3668  0.4076 -0.4884
  677MOL0     C91272   9.099   9.891  10.987  0.7105 -0.9023  0.3379
  677MOL0     C91273   8.966   9.886  11.066 -0.1851 -0.5587  0.8759
  677MOL0     C91274   8.919  10.033  11.117 -0.4282  0.0318  0.2563
  677MOL0     C91275   8.895  10.129  10.997 -1.4023  0.4197  0.1180
  677MOL0     C91276   8.846  10.268  11.042  0.0682  0.4510  0.2081
  677MOL0     N91277   8.722  10.266  11.121  0.0495  0.6322 -0.3458
  677MOL0     C91278   8.598  10.256  11.075  0.2492  0.4968 -0.4532
  677MOL0     C91279   8.520  10.236  11.187  0.0487 -0.4612  0.1472
  677MOL0     C91280   8.374  10.203  11.180 -0.4123  0.3215 -0.4037
  677MOL0     C91281   8.282  10.318  11.221 -0.0786  0.5558 -0.4453
  677MOL0     C91282   8.138  10.281  11.225 -0.4922  0.9611 -0.3392
  677MOL0     C91283   8.052  10.384  11.295  0.5516 -0.0570 -0.4257
  677MOL0     O91284   7.919  10.346  11.273 -0.2927  0.6022 -0.2072
  677MOL0     C91285   7.812  10.401  11.337  0.4581  0.8171 -0.4289
  677MOL0     C91286   7.691  10.337  11.338 -0.4275  0.1593 -0.2913
  677MOL0     C91287   7.565  10.386  11.380 -0.0109  1.3349 -0.2067
  677MOL0     C91288   7.451  10.289  11.350 -0.8964  0.5156  0.0499
  677MOL0     C91289   7.563  10.506  11.443 -0.1282  0.3200  0.6297
  677MOL0     C91290   7.440  10.562  11.517 -0.6515  0.2529  0.8409
  677MOL0     O91291   7.315  10.551  11.463 -0.5205 -0.6642  0.2891
  677MOL0     C91292   7.218  10.622  11.526 -0.9425 -0.4146  0.0950
  677MOL0     C91293   7.234  10.761  11.532 -0.6364 -0.5197 -0.3140
  677MOL0     C91294   7.146  10.841  11.605  0.3461  0.7716 -0.3588
  677MOL0     C91295   7.038  10.782  11.671 -0.4315 -0.1442  0.4438
  677MOL0     O91296   6.965  10.878  11.734 -0.2280  0.4177 -0.4306
  677MOL0     C91297   6.893  10.827  11.846  0.5426  0.9235  0.7114
  677MOL0     C91298   6.805  10.933  11.919 -0.2578 -0.1956  0.2324
  677MOL0     C91299   6.738  10.888  12.048 -0.2117  0.6331  0.6830
  677MOL0     C91300   6.671  11.000  12.128  0.3934 -0.6271 -0.4448
  677MOL0     C91301   6.584  10.938  12.241 -0.5222 -0.0659  0.4247
  677MOL0     C91302   6.483  11.038  12.290 -0.0344 -0.7646  0.5501
  677MOL0     C91303   6.405  10.995  12.413 -0.4494  0.7092 -0.7910
  677MOL0     C91304   6.293  11.089  12.443  0.5200  0.0556 -0.2914
  677MOL0    Cl91305   6.352  11.262  12.423 -0.4187  0.1479 -0.6516
  677MOL0     C91306   7.017  10.637  11.653 -0.5227  0.8532  0.1798
  677MOL0     C91307   7.107  10.561  11.584 -0.0874  0.2889  0.1517
  677MOL0     O91308   7.466  10.622  11.619  0.3403 -0.1230 -0.3566
  677MOL0     C91309   7.686  10.578  11.450  0.0388  0.3659 -0.3052
  677MOL0     C91310   7.805  10.525  11.405 -0.2041  0.1608  0.2711
  677MOL0     N91311   8.602  10.246  11.296  0.1314  0.2419 -0.5563
  677MOL0     N91312   8.722  10.266  11.259 -0.9738 -0.4378  0.0689
  677MOL0     C91313   9.701  10.116  11.090  0.0666 -0.2550  0.1123
  677MOL0     C91314   9.836  10.158  11.084  1.1915 -0.1806  0.4058
  677MOL0     C91315  10.210  10.393  10.926 -0.1526  0.2705  0.1897
  677MOL0     C91316  10.266  10.519  10.965 -0.2476 -0.4579  0.2445
  677MOL0     C91317  10.408  10.543  10.947  0.3150  0.5894  0.4445
  677MOL0     C91318  10.489  10.443  10.885 -0.3768  0.3928  0.0262
  677MOL0     O91319  10.622  10.477  10.883 -0.3999 -0.3132  0.4111
  677MOL0     C91320  10.725  10.375  10.865  0.0078  0.5390 -0.3194
  677MOL0     C91321  10.858  10.429  10.827 -1.2908  0.3610  0.0397
  677MOL0     C91322  10.897  10.528  10.926 -0.2161 -0.8057  0.7471
  677MOL0     C91323  10.941  10.467  11.061 -0.5350  0.2356  0.3350
  677MOL0     C91324  10.929  10.569  11.165  0.0582 -0.3354  0.2843
  677MOL0     C91325  10.921  10.659  11.250  1.0826  0.2562 -0.3362
  677MOL0     C91326  10.435  10.315  10.860 -0.3890 -0.4045 -0.2579
  677MOL0     C91327  10.296  10.294  10.885 -0.3545  0.2048 -0.5190
  677MOL0     H91328   9.843  10.315  10.788  2.7469 -0.4472  1.8705
  677MOL0     H91329   9.581  10.250  10.801  0.7187 -0.3823  0.2883
  677MOL0     H91330   9.361  10.058  10.860 -2.2707  0.7947  0.7554
  677MOL0     H91331   9.516   9.963  10.883 -1.5112  0.1369  0.1294
  677MOL0     H91332   9.341   9.802  10.953 -0.0102 -0.4962  1.0784
  677MOL0     H91333   9.420   9.866  11.089 -1.1800 -2.6230  0.6890
  677MOL0     H91334   9.216   9.931  11.172  0.4569  2.4594  0.0267
  677MOL0     H91335   9.222  10.063  11.048  1.4421  0.6090  0.5298
  677MOL0     H91336   9.082   9.945  10.893  0.9770  0.2759  0.9596
  677MOL0     H91337   9.121   9.790  10.950 -0.7113 -2.1270  2.6434
  677MOL0     H91338   8.889   9.831  11.011  1.5889  0.0915 -2.5247
  677MOL0     H91339   8.977   9.824  11.155 -0.8878 -0.9951  0.6690
  677MOL0     H91340   8.827  10.001  11.167  0.5062 -1.9247  0.8523
  677MOL0     H91341   8.983  10.090  11.185 -0.6936  2.8420 -1.7054
  677MOL0     H91342   8.989  10.148  10.944 -1.6490  0.1744 -0.4125
  677MOL0     H91343   8.825  10.071  10.936 -0.3780 -2.6171  1.6550
  677MOL0     H91344   8.824  10.333  10.957  2.0685  0.9353  0.0121
  677MOL0     H91345   8.925  10.311  11.104  0.7890  1.2761 -1.2321
  677MOL0     H91346   8.562  10.241  10.973 -1.2740 -0.7605  0.2289
  677MOL0     H91347   8.347  10.176  11.078 -0.0518  2.7829 -1.2021
  677MOL0     H91348   8.358  10.110  11.235 -1.1489  0.7018  0.0354
  677MOL0     H91349   8.279  10.413  11.166  0.3682  4.0681  4.8800
  677MOL0     H91350   8.316  10.350  11.320 -0.5204 -0.6818  0.1295
  677MOL0     H91351   8.133  10.183  11.273  3.2090  0.1885 -1.2181
  677MOL0     H91352   8.100  10.263  11.124 -1.5926  1.8328 -0.0964
  677MOL0     H91353   8.067  10.485  11.256  2.0691  0.8149  2.1368
  677MOL0     H91354   8.077  10.386  11.401 -0.8813  2.0354 -0.0801
  677MOL0     H91355   7.709  10.234  11.307  1.2236  0.2525  0.2335
  677MOL0     H91356   7.495  10.194  11.383  2.1313  1.4521 -0.9040
  677MOL0     H91357   7.362  10.329  11.397 -0.7812  2.4603 -1.2681
  677MOL0     H91358   7.441  10.279  11.241 -0.1486 -0.0170  0.0139
  677MOL0     H91359   7.316  10.814  11.484 -0.5424 -1.1264 -0.8549
  677MOL0     H91360   7.170  10.947  11.604  1.2480  0.6759  2.5141
  677MOL0     H91361   6.838  10.737  11.817  0.5691  0.7455  1.2110
  677MOL0     H91362   6.965  10.795  11.921  1.1500  0.0657 -0.2199
  677MOL0     H91363   6.870  11.017  11.946  0.1822  0.4768 -2.6019
  677MOL0     H91364   6.723  10.966  11.855  1.9011  3.7599 -0.8566
  677MOL0     H91365   6.811  10.837  12.111 -1.3680 -1.9087  0.0653
  677MOL0     H91366   6.667  10.811  12.015  1.4226 -0.0708 -1.3446
  677MOL0     H91367   6.751  11.062  12.171  0.8720  0.0248 -2.1694
  677MOL0     H91368   6.609  11.066  12.066  1.9616  1.3892 -0.0052
  677MOL0     H91369   6.653  10.923  12.324 -0.8443 -1.3134  0.4787
  677MOL0     H91370   6.532  10.845  12.216  0.4403 -0.5635  0.2458
  677MOL0     H91371   6.535  11.127  12.325 -1.1361 -1.0490  3.0809
  677MOL0     H91372   6.414  11.049  12.205 -0.8703  0.0773  1.3165
  677MOL0     H91373   6.464  10.983  12.504 -0.0377 -1.8531 -1.3246
  677MOL0     H91374   6.372  10.892  12.398  0.6058  0.7366 -4.2056
  677MOL0     H91375   6.256  11.074  12.545  0.7909  1.2564  0.0027
  677MOL0     H91376   6.212  11.075  12.371  0.6916 -1.5596 -0.2164
  677MOL0     H91377   6.924  10.596  11.692  0.0054 -1.5417 -0.9669
  677MOL0     H91378   7.089  10.455  11.593 -3.3850  0.6679 -0.6164
  677MOL0     H91379   7.686  10.679  11.490  0.4162 -0.5297  2.1921
  677MOL0     H91380   7.895  10.581  11.430 -0.4911  0.4253  0.7273
  677MOL0     H91381   9.656  10.055  11.168  0.6993 -0.3001  0.4442
  677MOL0     H91382   9.908  10.126  11.158  2.2470 -0.8134 -0.8414
  677MOL0     H91383  10.196  10.585  11.015  1.0264  2.0944 -1.1089
  677MOL0     H91384  10.442  10.642  10.974 -0.5576  1.4711 -1.5033
  677MOL0     H91385  10.723  10.315  10.957  0.5528  0.7539 -0.1636
  677MOL0     H91386  10.692  10.311  10.783 -1.5915 -0.0889  0.7536
  677MOL0     H91387  10.862  10.477  10.728  1.3896  1.1412  0.4451
  677MOL0     H91388  10.935  10.352  10.817 -0.2401  1.6299 -2.9395
  677MOL0     H91389  10.810  10.593  10.939  0.0995 -0.4943  1.3632
  677MOL0     H91390  10.977  10.594  10.890 -0.8339  0.1205  1.0238
  677MOL0     H91391  11.047  10.440  11.054 -0.4350  0.6795  0.0971
  677MOL0     H91392  10.893  10.371  11.081  1.3473 -1.2085 -1.5599
  677MOL0     H91393  10.893  10.733  11.323 -0.5117 -0.1333 -0.5128
  677MOL0     H91394  10.504  10.244  10.814 -0.0664  0.6163 -1.3928
  677MOL0     H91395  10.271  10.191  10.861  0.3524 -0.5281  1.6374
  678MOL0     O91396   1.776   4.178   8.482  0.0864 -0.0651  0.0378
  678MOL0     C91397   1.850   4.250   8.547  0.5275 -0.3504 -0.0985
  678MOL0     O91398   1.809   4.367   8.604  0.5256  0.4787  0.6881
  678MOL0     C91399   1.668   4.370   8.615 -0.9046 -1.0710 -0.0914
  678MOL0     C91400   1.596   4.473   8.555 -0.5706 -0.7327 -0.9819
  678MOL0     C91401   1.463   4.490   8.561 -0.3519  0.2206 -0.7778
  678MOL0     C91402   1.386   4.394   8.624 -0.0781  0.3289  0.0517
  678MOL0     O91403   1.253   4.430   8.638 -1.0637 -0.0213 -0.0790
  678MOL0     C91404   1.162   4.341   8.681 -1.0319  1.5460  0.0788
  678MOL0     C91405   1.018   4.395   8.667  0.2268  0.4326 -1.2541
  678MOL0     C91406   0.912   4.314   8.731  0.2076  0.2222 -0.4900
  678MOL0     C91407   0.775   4.370   8.692  0.3229  0.1844 -0.2769
  678MOL0     C91408   0.654   4.316   8.770 -0.7113 -0.8766  0.3032
  678MOL0     C91409   0.668   4.338   8.919 -0.4306 -0.1350  0.0368
  678MOL0     C91410   0.532   4.304   8.996 -0.2944  0.0919 -0.0576
  678MOL0     C91411   0.535   4.358   9.143  0.2227  0.4634 -0.5406
  678MOL0     N91412   0.452   4.289   9.247  0.8525  0.3969 -0.6637
  678MOL0     C91413   0.417   4.153   9.265 -0.0941  0.0160  0.1394
  678MOL0     C91414   0.360   4.144   9.387 -0.3017  0.5414  0.4803
  678MOL0     C91415   0.313   4.023   9.452  0.0213  0.6380 -0.5266
  678MOL0     C91416   0.177   3.974   9.414 -0.5080  0.1671 -0.3054
  678MOL0     C91417   0.080   4.078   9.448 -0.3052 -0.2068  0.6208
  678MOL0     C91418  -0.059   4.027   9.425  0.1162  0.1752  0.4512
  678MOL0     O91419  -0.142   4.149   9.416 -0.1384 -0.5485 -0.1534
  678MOL0     C91420  -0.274   4.128   9.434 -0.3550  0.5722  0.8084
  678MOL0     C91421  -0.361   4.119   9.329  0.1490  0.5475 -0.5971
  678MOL0     C91422  -0.499   4.103   9.341  0.2783  0.6940 -0.3968
  678MOL0     C91423  -0.573   4.117   9.216  0.9012  0.4555 -0.3299
  678MOL0     C91424  -0.551   4.077   9.472  0.1799 -1.3512  0.2901
  678MOL0     C91425  -0.694   4.065   9.497  1.3329  0.5628  0.1883
  678MOL0     O91426  -0.789   4.099   9.404 -0.2067  0.3879 -0.2175
  678MOL0     C91427  -0.927   4.071   9.429 -0.6379  0.0923 -0.2339
  678MOL0     C91428  -0.984   3.949   9.399 -0.6636 -0.2598  0.4070
  678MOL0     C91429  -1.114   3.915   9.435 -0.1187  0.7572 -0.3625
  678MOL0     C91430  -1.192   4.003   9.509 -0.4045  0.2929 -0.3790
  678MOL0     O91431  -1.316   3.969   9.526  0.2878  0.5375  0.0960
  678MOL0     C91432  -1.408   4.035   9.430 -0.6433 -0.5157  0.5094
  678MOL0     C91433  -1.549   3.980   9.434 -0.9705 -0.8178  0.1546
  678MOL0     C91434  -1.556   3.841   9.382 -0.4851 -0.8177 -0.4026
  678MOL0     C91435  -1.711   3.813   9.362 -0.8194 -0.7796 -0.4449
  678MOL0     C91436  -1.730   3.668   9.325  0.6296 -0.8433 -0.4043
  678MOL0     C91437  -1.865   3.629   9.261 -0.1047  0.1947 -0.3684
  678MOL0     C91438  -1.979   3.623   9.362 -0.2994  0.5004  0.6504
  678MOL0     C91439  -2.109   3.646   9.289  0.1638  0.3277  0.1379
  678MOL0    Cl91440  -2.170   3.803   9.308 -0.1006 -0.0297 -0.0764
  678MOL0     C91441  -1.131   4.129   9.550  0.8198 -0.5271 -0.3198
  678MOL0     C91442  -1.003   4.154   9.507 -0.4607  0.4552  0.0990
  678MOL0     O91443  -0.721   4.019   9.605  0.6325 -0.7426  0.0632
  678MOL0     C91444  -0.462   4.060   9.575  0.5589  0.9071  0.0062
  678MOL0     C91445  -0.327   4.094   9.560 -0.4873  0.1965  0.4558
  678MOL0     N91446   0.358   4.276   9.443  0.5236 -0.1148  0.5471
  678MOL0     N91447   0.416   4.358   9.356  0.3469  0.2034 -0.6924
  678MOL0     C91448   1.453   4.275   8.673  0.4536 -0.3021 -0.2597
  678MOL0     C91449   1.591   4.265   8.669  0.0166 -0.2661  0.8560
  678MOL0     C91450   1.999   4.222   8.551  1.1955  0.2231  0.0950
  678MOL0     C91451   2.082   4.296   8.636  0.5540  0.0290 -0.3029
  678MOL0     C91452   2.220   4.277   8.631 -0.6643  0.5450 -0.2252
  678MOL0     C91453   2.282   4.187   8.544 -0.1547  0.2082  0.6925
  678MOL0     O91454   2.426   4.175   8.537  0.5037 -0.5629  0.9342
  678MOL0     C91455   2.506   4.258   8.618  0.4741 -0.4370  0.4716
  678MOL0     C91456   2.642   4.195   8.625 -1.2527  0.3620  0.1946
  678MOL0     C91457   2.691   4.174   8.776 -0.7320 -0.6004 -0.2028
  678MOL0     C91458   2.846   4.161   8.800  0.6105 -0.3184  0.1651
  678MOL0     C91459   2.884   4.030   8.745 -0.2493 -0.1266 -0.0210
  678MOL0     C91460   2.925   3.919   8.741 -1.1399 -0.3212  0.3862
  678MOL0     C91461   2.197   4.116   8.462  1.2294  0.3060 -0.2314
  678MOL0     C91462   2.054   4.133   8.463 -0.7973  0.8125  0.0207
  678MOL0     H91463   1.651   4.550   8.503 -0.5152 -0.3220 -0.3325
  678MOL0     H91464   1.427   4.580   8.511  0.8240  1.3522  0.3150
  678MOL0     H91465   1.185   4.245   8.634 -0.2046  1.4466  0.6625
  678MOL0     H91466   1.170   4.339   8.790 -1.9145 -0.8645  0.1369
  678MOL0     H91467   1.019   4.491   8.721  0.9652  0.2732 -0.9722
  678MOL0     H91468   1.000   4.420   8.562  3.5336  4.4454 -1.1580
  678MOL0     H91469   0.917   4.212   8.692 -0.1409 -0.8022  1.9806
  678MOL0     H91470   0.933   4.326   8.838 -1.1958  2.2500 -0.3768
  678MOL0     H91471   0.781   4.474   8.727  1.9123  0.0901 -0.1840
  678MOL0     H91472   0.759   4.354   8.585 -1.8711 -0.5815  0.1165
  678MOL0     H91473   0.562   4.368   8.740 -0.8510 -0.8837  0.7121
  678MOL0     H91474   0.634   4.211   8.746  2.6970 -1.2567 -1.4611
  678MOL0     H91475   0.749   4.275   8.956  0.0061  0.3159 -0.1304
  678MOL0     H91476   0.697   4.443   8.935  1.9730 -0.6712 -0.5155
  678MOL0     H91477   0.445   4.334   8.937  0.9373 -1.3890 -2.7810
  678MOL0     H91478   0.529   4.195   9.000 -0.1414 -0.1202 -3.3829
  678MOL0     H91479   0.493   4.458   9.137 -1.6578 -0.3494 -1.8533
  678MOL0     H91480   0.641   4.357   9.168  0.0942 -2.8565  0.3680
  678MOL0     H91481   0.422   4.067   9.200 -1.4955  0.5446 -0.7255
  678MOL0     H91482   0.385   3.942   9.440  0.8442  0.8578  2.2608
  678MOL0     H91483   0.313   4.043   9.559 -2.3425  2.8729 -0.8526
  678MOL0     H91484   0.161   3.881   9.469  0.3303 -0.1356 -0.5527
  678MOL0     H91485   0.169   3.958   9.306  1.8353  0.0034 -0.4922
  678MOL0     H91486   0.094   4.168   9.387 -1.9310 -1.1076 -1.1885
  678MOL0     H91487   0.090   4.112   9.551  0.0540  0.9312  0.2249
  678MOL0     H91488  -0.085   3.957   9.505 -0.7705 -0.0048  0.0141
  678MOL0     H91489  -0.069   3.973   9.331 -1.7531  2.2097 -0.6082
  678MOL0     H91490  -0.334   4.148   9.228  0.9191  2.3230  0.0680
  678MOL0     H91491  -0.584   4.223   9.191  0.2433  0.0577 -1.8583
  678MOL0     H91492  -0.528   4.057   9.136 -0.6818  0.2311 -1.1001
  678MOL0     H91493  -0.670   4.065   9.221  1.5642 -1.1225 -2.4881
  678MOL0     H91494  -0.918   3.879   9.347  2.1268  3.5394 -1.6222
  678MOL0     H91495  -1.161   3.830   9.388 -0.1528  0.6615 -0.1549
  678MOL0     H91496  -1.409   4.141   9.456 -0.3981  0.3035 -2.4709
  678MOL0     H91497  -1.371   4.023   9.328 -0.6828 -0.8810  0.5341
  678MOL0     H91498  -1.583   3.983   9.538  1.3968  0.9211  0.9662
  678MOL0     H91499  -1.612   4.042   9.369 -0.5085 -0.9058 -0.3776
  678MOL0     H91500  -1.514   3.773   9.456 -0.7943 -0.8586 -0.2606
  678MOL0     H91501  -1.504   3.829   9.287 -3.4870  0.7940 -2.4383
  678MOL0     H91502  -1.767   3.834   9.454  0.1623  0.6073 -0.1170
  678MOL0     H91503  -1.748   3.881   9.284  0.5790 -0.3697 -0.7825
  678MOL0     H91504  -1.704   3.599   9.405  0.8099  1.4860  1.6779
  678MOL0     H91505  -1.653   3.646   9.251  2.0744 -0.7602  1.0097
  678MOL0     H91506  -1.885   3.685   9.169 -0.5352 -0.2582 -0.5537
  678MOL0     H91507  -1.846   3.526   9.230 -0.5762 -0.6490  1.9847
  678MOL0     H91508  -1.975   3.709   9.429 -3.7290  0.9632  0.4297
  678MOL0     H91509  -1.977   3.528   9.416  0.5699  0.0173 -0.1969
  678MOL0     H91510  -2.183   3.573   9.323 -2.2729  2.4221 -0.3526
  678MOL0     H91511  -2.089   3.625   9.183  0.7896 -1.4464  0.5786
  678MOL0     H91512  -1.186   4.203   9.608  1.2783 -1.1760  0.9966
  678MOL0     H91513  -0.959   4.253   9.512 -2.8956  1.7004 -1.2912
  678MOL0     H91514  -0.498   4.031   9.674 -0.5437  0.6676 -0.4529
  678MOL0     H91515  -0.250   4.092   9.635  2.0856 -1.7352 -2.0296
  678MOL0     H91516   1.395   4.208   8.736  1.9769 -1.1734  0.2797
  678MOL0     H91517   1.636   4.174   8.709 -0.8187 -0.4378  1.4214
  678MOL0     H91518   2.053   4.374   8.706  1.4609 -0.3887  0.5546
  678MOL0     H91519   2.276   4.329   8.708  0.7505 -2.1733  0.7032
  678MOL0     H91520   2.508   4.362   8.583 -0.9510 -0.6012 -0.1588
  678MOL0     H91521   2.466   4.250   8.719 -1.7250 -3.4069 -0.5029
  678MOL0     H91522   2.709   4.276   8.594  2.7153 -1.8434  2.1517
  678MOL0     H91523   2.657   4.109   8.558  2.8818  0.8250  0.2338
  678MOL0     H91524   2.638   4.092   8.824 -0.5313 -2.0228 -2.2585
  678MOL0     H91525   2.664   4.264   8.832  0.6266 -0.6409  0.5610
  678MOL0     H91526   2.850   4.160   8.909 -0.5909 -1.1563  0.2205
  678MOL0     H91527   2.906   4.244   8.761  1.7814 -0.3440  1.8428
  678MOL0     H91528   2.971   3.826   8.715  1.1921  0.7174  0.5301
  678MOL0     H91529   2.237   4.052   8.384 -1.5726  0.2336 -1.7303
  678MOL0     H91530   1.982   4.077   8.405 -0.9688 -2.9253  3.4189
  679MOL0     O91531   3.394   7.148   0.761 -0.1525 -0.2516  0.1293
  679MOL0     C91532   3.426   7.136   0.646 -0.5528  1.0035 -0.3349
  679MOL0     O91533   3.345   7.156   0.542 -0.6249  1.2349  0.7119
  679MOL0     C91534   3.216   7.194   0.556 -0.4685  0.3893 -0.3107
  679MOL0     C91535   3.186   7.328   0.567 -0.5174 -0.9878  0.4045
  679MOL0     C91536   3.052   7.369   0.583 -0.4233 -0.8368 -0.2499
  679MOL0     C91537   2.951   7.275   0.588 -0.3527  0.7648  0.7773
  679MOL0     O91538   2.818   7.301   0.579  0.8586  0.0751  0.7685
  679MOL0     C91539   2.778   7.401   0.680 -0.7935  0.4577 -0.2129
  679MOL0     C91540   2.624   7.404   0.702  0.1597 -0.5951  0.3570
  679MOL0     C91541   2.605   7.484   0.827 -0.4780  0.9018 -0.4650
  679MOL0     C91542   2.627   7.385   0.942  0.9585 -0.0940 -0.9288
  679MOL0     C91543   2.577   7.453   1.074 -0.2571 -0.8037  0.0928
  679MOL0     C91544   2.634   7.389   1.203  0.4870 -0.0192  0.2038
  679MOL0     C91545   2.592   7.250   1.211 -0.2214 -0.2632 -0.4806
  679MOL0     C91546   2.604   7.195   1.364  0.4440  0.7140 -0.0039
  679MOL0     N91547   2.554   7.055   1.381  0.6332  1.0012 -0.3592
  679MOL0     C91548   2.470   7.026   1.486  0.4414 -0.5424 -1.6057
  679MOL0     C91549   2.441   6.896   1.473  0.1800 -0.3089  1.2956
  679MOL0     C91550   2.328   6.826   1.554  0.8119  0.5336  1.0457
  679MOL0     C91551   2.275   6.696   1.486  0.1771 -0.2410  0.1433
  679MOL0     C91552   2.189   6.619   1.597 -0.3295  0.0598  0.2329
  679MOL0     C91553   2.186   6.466   1.579 -0.4950  0.2964 -1.0069
  679MOL0     O91554   2.109   6.420   1.466 -0.8019  0.7870 -0.4063
  679MOL0     C91555   1.972   6.420   1.472 -0.4364  0.1363 -0.1846
  679MOL0     C91556   1.902   6.389   1.357 -0.5829 -0.6831  0.1432
  679MOL0     C91557   1.759   6.365   1.350 -0.1588  0.0905  0.6059
  679MOL0     C91558   1.693   6.352   1.226  0.1761 -0.7385  0.3423
  679MOL0     C91559   1.692   6.373   1.478  0.0064 -0.3369 -0.5045
  679MOL0     C91560   1.545   6.354   1.500  0.2255 -0.6100 -0.3459
  679MOL0     O91561   1.490   6.366   1.622 -0.0034 -0.0458 -0.8450
  679MOL0     C91562   1.360   6.319   1.646 -0.4439 -0.2742 -0.4709
  679MOL0     C91563   1.251   6.409   1.666 -0.2094  0.2788  0.2062
  679MOL0     C91564   1.122   6.354   1.678  0.2379 -0.8844  1.3050
  679MOL0     C91565   1.089   6.226   1.686  0.1512 -1.0788 -0.1122
  679MOL0     O91566   0.962   6.185   1.673  0.1819  0.0096 -0.6543
  679MOL0     C91567   0.921   6.049   1.650  0.2348 -0.5992 -0.1105
  679MOL0     C91568   0.778   6.050   1.590 -0.4004  0.6238 -0.6045
  679MOL0     C91569   0.679   6.147   1.657 -0.0464  0.4124  0.0903
  679MOL0     C91570   0.545   6.155   1.570 -0.3622 -0.5020  0.2411
  679MOL0     C91571   0.430   6.249   1.634 -0.4520  0.2465 -1.0520
  679MOL0     C91572   0.298   6.225   1.556 -0.0130  0.0997  0.3984
  679MOL0     C91573   0.187   6.311   1.604  0.0767  0.6075 -0.6152
  679MOL0     C91574   0.146   6.422   1.511 -0.8120 -0.1054 -0.4829
  679MOL0    Cl91575   0.009   6.510   1.592  0.1080 -0.1079  0.6618
  679MOL0     C91576   1.201   6.142   1.673  0.1988  0.0267 -1.4905
  679MOL0     C91577   1.333   6.183   1.657  0.0728 -0.9892  0.1906
  679MOL0     O91578   1.481   6.316   1.409 -0.1138  0.2556  0.9651
  679MOL0     C91579   1.754   6.416   1.588 -0.1929  0.3590  0.2389
  679MOL0     C91580   1.893   6.447   1.590  0.2039  0.5355  0.8878
  679MOL0     N91581   2.512   6.843   1.361 -0.1539 -0.3519  0.2750
  679MOL0     N91582   2.581   6.947   1.314 -0.0727  1.0209  0.4472
  679MOL0     C91583   2.985   7.137   0.581  0.4585  0.1312  0.9233
  679MOL0     C91584   3.118   7.098   0.571  0.0779  0.3415 -1.0269
  679MOL0     C91585   3.569   7.105   0.624  1.0480  0.0857  0.0076
  679MOL0     C91586   3.629   7.097   0.500 -0.2164 -0.6990 -0.4088
  679MOL0     C91587   3.770   7.083   0.484  0.4724  0.2227 -0.2120
  679MOL0     C91588   3.853   7.059   0.601  0.0047  0.0563  1.2377
  679MOL0     O91589   3.985   7.051   0.599 -0.6769 -0.0160 -0.0757
  679MOL0     C91590   4.056   7.061   0.474 -0.0159  0.1949  0.3244
  679MOL0     C91591   4.208   7.072   0.520  0.7594 -0.1397 -0.5108
  679MOL0     C91592   4.302   7.103   0.414  0.6361  0.3757  0.7753
  679MOL0     C91593   4.344   7.249   0.391  0.0430  0.4476 -0.0273
  679MOL0     C91594   4.427   7.302   0.503 -0.0126 -0.6404 -0.3121
  679MOL0     C91595   4.485   7.338   0.604 -0.3097 -0.4073  0.1578
  679MOL0     C91596   3.789   7.058   0.724  0.7082  0.2700 -0.3968
  679MOL0     C91597   3.651   7.080   0.733 -0.2496  0.7157 -0.3978
  679MOL0     H91598   3.268   7.400   0.558 -0.2213 -1.4550 -0.8572
  679MOL0     H91599   3.041   7.477   0.578  1.6472 -0.6183 -1.2894
  679MOL0     H91600   2.826   7.394   0.777 -1.6448  1.5322  0.3116
  679MOL0     H91601   2.810   7.497   0.638  0.0238 -0.1708 -1.0740
  679MOL0     H91602   2.560   7.445   0.623  0.1154 -2.0797 -0.4119
  679MOL0     H91603   2.581   7.304   0.698 -0.7490 -0.2342  0.7184
  679MOL0     H91604   2.669   7.572   0.838  1.2391 -0.2885 -0.6380
  679MOL0     H91605   2.503   7.524   0.829 -0.6823  0.6406  3.6388
  679MOL0     H91606   2.575   7.289   0.936 -1.9300  1.3485 -0.7294
  679MOL0     H91607   2.734   7.371   0.957  0.8596 -1.8389 -1.6710
  679MOL0     H91608   2.604   7.559   1.079 -2.1028 -0.3164  0.2967
  679MOL0     H91609   2.468   7.452   1.077 -0.5224  4.0615  1.4763
  679MOL0     H91610   2.742   7.403   1.204  0.6211 -0.0639 -2.6905
  679MOL0     H91611   2.603   7.437   1.296  2.2895 -1.0024  1.3434
  679MOL0     H91612   2.489   7.228   1.181 -0.5783  0.1449  0.4121
  679MOL0     H91613   2.665   7.190   1.156  0.5657 -1.4193  1.7130
  679MOL0     H91614   2.545   7.256   1.432  0.2761 -0.5144  1.0049
  679MOL0     H91615   2.711   7.202   1.385  0.2682  0.4979  1.0109
  679MOL0     H91616   2.423   7.102   1.548  0.8496 -0.4551 -1.4050
  679MOL0     H91617   2.374   6.792   1.647  0.7864  0.1662  0.9249
  679MOL0     H91618   2.249   6.902   1.562  0.2375  0.1256 -0.3327
  679MOL0     H91619   2.361   6.631   1.468  0.3468  0.2881 -1.0394
  679MOL0     H91620   2.212   6.719   1.400 -0.6740  0.3657  0.9007
  679MOL0     H91621   2.094   6.674   1.598  0.6466  2.0346 -2.1931
  679MOL0     H91622   2.242   6.633   1.691  1.2257 -1.6985 -0.3387
  679MOL0     H91623   2.154   6.428   1.676 -0.6081 -0.1996 -1.2345
  679MOL0     H91624   2.285   6.422   1.573 -1.0708 -1.3541  0.8432
  679MOL0     H91625   1.957   6.370   1.265  0.1160  0.5419  0.2869
  679MOL0     H91626   1.642   6.256   1.221  0.7549 -1.0075 -3.5079
  679MOL0     H91627   1.613   6.427   1.221 -2.4816 -3.3268  1.3614
  679MOL0     H91628   1.759   6.366   1.140 -0.9605  2.0931 -0.1756
  679MOL0     H91629   1.264   6.515   1.683 -2.4087  0.2924  2.3881
  679MOL0     H91630   1.051   6.436   1.687 -0.7641 -1.3512 -1.3240
  679MOL0     H91631   0.978   6.002   1.569 -2.5613  1.2082 -3.4134
  679MOL0     H91632   0.918   6.000   1.748  0.7448  1.6469  1.0834
  679MOL0     H91633   0.791   6.083   1.487  3.8049  2.3283  0.2478
  679MOL0     H91634   0.737   5.949   1.590 -0.7395  0.7259  0.8753
  679MOL0     H91635   0.725   6.245   1.674  3.2012 -1.5436  4.1452
  679MOL0     H91636   0.647   6.111   1.755 -0.6981 -0.1042 -0.3083
  679MOL0     H91637   0.589   6.189   1.476 -0.0700 -1.6800 -0.0696
  679MOL0     H91638   0.501   6.057   1.551  0.0976 -0.4557 -1.1842
  679MOL0     H91639   0.466   6.352   1.639 -2.8013  1.1292 -0.9237
  679MOL0     H91640   0.411   6.212   1.735  1.5882  0.7761 -0.4305
  679MOL0     H91641   0.314   6.221   1.447 -0.8323 -3.0072  0.2906
  679MOL0     H91642   0.270   6.119   1.557 -1.1637  0.3699 -0.8954
  679MOL0     H91643   0.196   6.337   1.709 -1.4049 -1.6188  0.1337
  679MOL0     H91644   0.104   6.241   1.615  1.9097 -1.4326  0.9521
  679MOL0     H91645   0.108   6.375   1.420 -0.7709  0.8150 -0.9906
  679MOL0     H91646   0.228   6.493   1.495  0.1745  0.0342  3.8580
  679MOL0     H91647   1.191   6.034   1.675  0.4576 -0.0944 -3.8812
  679MOL0     H91648   1.410   6.108   1.640  0.0588 -1.6680  2.8240
  679MOL0     H91649   1.700   6.420   1.682  0.6210 -1.5614  0.8298
  679MOL0     H91650   1.937   6.463   1.688 -0.0674 -1.1646  1.3215
  679MOL0     H91651   2.908   7.061   0.588  1.8998 -1.8039 -2.0708
  679MOL0     H91652   3.154   6.996   0.571  0.7573  0.4722  2.0808
  679MOL0     H91653   3.561   7.102   0.416  0.1723 -0.4682 -0.7125
  679MOL0     H91654   3.810   7.079   0.384  0.0954 -0.5659 -0.3393
  679MOL0     H91655   4.045   6.972   0.412  0.2381 -0.9140  1.8315
  679MOL0     H91656   4.021   7.139   0.405  1.3360 -0.9047 -1.7004
  679MOL0     H91657   4.240   6.976   0.562  3.8371  0.5454 -1.0660
  679MOL0     H91658   4.201   7.138   0.607  1.3751 -0.7086 -0.0197
  679MOL0     H91659   4.267   7.062   0.318 -0.6670  3.1328 -0.0453
  679MOL0     H91660   4.393   7.049   0.441 -0.2318 -1.3486  0.4426
  679MOL0     H91661   4.253   7.308   0.381 -0.4185 -0.2940 -0.3244
  679MOL0     H91662   4.406   7.259   0.302 -1.3715 -2.8099 -1.5436
  679MOL0     H91663   4.518   7.362   0.703  2.2715  1.3667 -1.0482
  679MOL0     H91664   3.841   7.034   0.816 -0.1154 -2.7841 -0.6079
  679MOL0     H91665   3.608   7.096   0.832  0.5616 -1.1564  0.3018
  680MOL0     O91666   2.949  10.932   8.184 -0.2669  0.3455  0.4051
  680MOL0     C91667   2.895  11.014   8.259 -0.3128 -0.6213  0.3191
  680MOL0     O91668   2.921  11.032   8.389  0.1166 -0.3468 -0.0827
  680MOL0     C91669   3.043  11.006   8.449 -0.3484  0.2180 -1.2106
  680MOL0     C91670   3.165  11.016   8.385 -1.8287  0.3242 -0.6558
  680MOL0     C91671   3.289  11.003   8.449 -0.0276  0.3291 -0.1875
  680MOL0     C91672   3.282  10.965   8.586  0.0041  0.1296 -0.0793
  680MOL0     O91673   3.392  10.926   8.666 -0.1242 -0.5461 -1.1398
  680MOL0     C91674   3.514  10.892   8.606  0.2236 -0.2143 -0.4892
  680MOL0     C91675   3.614  10.875   8.722  0.4278  0.3595 -0.0201
  680MOL0     C91676   3.753  10.884   8.661 -0.6394 -0.1874 -0.3173
  680MOL0     C91677   3.859  10.856   8.756  0.3176  0.1557 -0.6327
  680MOL0     C91678   3.997  10.871   8.674 -0.0511  0.4975  0.7536
  680MOL0     C91679   4.103  10.843   8.783  0.1998 -0.0134  0.1648
  680MOL0     C91680   4.129  10.972   8.860  0.1524 -0.2343 -0.7222
  680MOL0     C91681   4.194  10.947   9.002 -0.5299  0.2433 -0.2682
  680MOL0     N91682   4.106  10.860   9.082 -0.4955 -0.6085  0.0973
  680MOL0     C91683   3.982  10.900   9.122 -0.0226  0.6184  0.2934
  680MOL0     C91684   3.931  10.784   9.186 -0.6756 -1.4998 -0.1526
  680MOL0     C91685   3.787  10.756   9.229  0.6753  0.2955 -0.2430
  680MOL0     C91686   3.751  10.840   9.350  0.1193 -1.3486 -0.1364
  680MOL0     C91687   3.615  10.817   9.421 -1.0965 -0.5698  0.0709
  680MOL0     C91688   3.494  10.864   9.334  0.5794  0.1009  0.0609
  680MOL0     O91689   3.376  10.816   9.394  0.2522  1.0668 -0.1235
  680MOL0     C91690   3.263  10.836   9.318 -0.4210  0.2329 -0.2177
  680MOL0     C91691   3.253  10.936   9.218 -0.8679 -0.1310 -0.1049
  680MOL0     C91692   3.131  10.973   9.156  0.1238 -0.4641 -0.9849
  680MOL0     C91693   3.130  11.094   9.066 -0.5234 -0.3294  0.2219
  680MOL0     C91694   3.019  10.893   9.182  0.9849  0.0099  0.2527
  680MOL0     C91695   2.881  10.923   9.121 -0.1503  0.4012 -0.0334
  680MOL0     O91696   2.861  11.039   9.042  0.3356  0.2403  0.1601
  680MOL0     C91697   2.737  11.060   8.988  0.2843 -0.3000  0.1405
  680MOL0     C91698   2.634  11.106   9.066 -1.1711  0.5115  0.6615
  680MOL0     C91699   2.508  11.114   9.005 -0.1798 -0.2152 -0.7426
  680MOL0     C91700   2.482  11.072   8.868  0.1153 -0.7297  0.1269
  680MOL0     O91701   2.355  11.077   8.816 -0.3899 -0.5059  0.2816
  680MOL0     C91702   2.250  10.994   8.863  0.2251  0.5652  0.0457
  680MOL0     C91703   2.107  11.026   8.822  0.3505  0.2091  0.1563
  680MOL0     C91704   2.097  11.000   8.671  0.0110 -0.6437  0.9976
  680MOL0     C91705   1.953  11.019   8.626  0.1757  1.0495  0.7055
  680MOL0     C91706   1.918  11.030   8.480 -0.1907  0.2176  1.1886
  680MOL0     C91707   1.765  11.049   8.466 -0.0394 -0.0749 -0.2647
  680MOL0     C91708   1.725  11.091   8.321 -0.5548  0.1750  0.3876
  680MOL0     C91709   1.569  11.096   8.312  0.1075 -0.0814  0.9972
  680MOL0    Cl91710   1.513  11.208   8.175 -0.1998 -0.3556  0.1804
  680MOL0     C91711   2.593  11.037   8.793 -0.1196 -0.5514  0.3715
  680MOL0     C91712   2.717  11.023   8.847 -0.3486  0.3932  0.1328
  680MOL0     O91713   2.787  10.848   9.147 -0.8654  0.5934  0.1558
  680MOL0     C91714   3.032  10.783   9.269 -0.4028  0.2233  0.0547
  680MOL0     C91715   3.150  10.755   9.339 -0.2883 -0.0415  0.1570
  680MOL0     N91716   4.032  10.695   9.188 -0.2292  0.6568 -0.2939
  680MOL0     N91717   4.135  10.739   9.127 -0.5922 -0.1224 -0.3689
  680MOL0     C91718   3.162  10.948   8.652 -0.0852  0.3308 -0.2314
  680MOL0     C91719   3.040  10.967   8.586 -0.1684  0.5102 -0.7196
  680MOL0     C91720   2.778  11.091   8.210  0.3320 -0.0643  0.0653
  680MOL0     C91721   2.707  11.173   8.293  0.6631 -0.0166  0.1195
  680MOL0     C91722   2.592  11.257   8.257 -0.8884  0.2663  0.5433
  680MOL0     C91723   2.542  11.239   8.125  0.3235 -0.3745 -0.3171
  680MOL0     O91724   2.430  11.305   8.089 -0.2873  0.5736  1.2415
  680MOL0     C91725   2.364  11.249   7.973  0.2533 -0.0275  0.5941
  680MOL0     C91726   2.230  11.298   7.962 -0.4444  0.7377  0.5365
  680MOL0     C91727   2.160  11.260   7.826  0.1817  0.0477 -0.2654
  680MOL0     C91728   2.012  11.317   7.803 -0.5026  0.6691  0.1214
  680MOL0     C91729   1.919  11.262   7.897  0.6016  1.0018 -0.7696
  680MOL0     C91730   1.829  11.214   7.962 -0.2893  0.2637  0.1057
  680MOL0     C91731   2.618  11.153   8.044 -0.0533  0.5660 -0.0188
  680MOL0     C91732   2.729  11.078   8.077  0.3618  0.2938  0.2333
  680MOL0     H91733   3.172  11.038   8.279  0.1119 -0.6049 -0.7685
  680MOL0     H91734   3.385  11.008   8.399  1.3755 -4.6949  1.3946
  680MOL0     H91735   3.498  10.804   8.543 -1.2569  0.4436 -1.0792
  680MOL0     H91736   3.552  10.970   8.540  0.4559  0.5740  0.5501
  680MOL0     H91737   3.605  10.961   8.789 -3.0290  1.8374 -2.1307
  680MOL0     H91738   3.585  10.781   8.771  0.1240  0.2827 -0.3472
  680MOL0     H91739   3.759  10.818   8.574 -2.8493 -1.1064  0.1639
  680MOL0     H91740   3.773  10.987   8.631  0.8178 -1.1822 -3.0911
  680MOL0     H91741   3.848  10.915   8.847 -1.0632  0.2680 -0.8442
  680MOL0     H91742   3.848  10.755   8.798 -1.3494  0.8985  0.8839
  680MOL0     H91743   3.998  10.803   8.589 -0.5149  1.0015  0.3433
  680MOL0     H91744   4.012  10.973   8.637  0.8026 -0.7988 -2.8219
  680MOL0     H91745   4.077  10.761   8.851  3.9071 -0.6905  0.9448
  680MOL0     H91746   4.196  10.808   8.738 -1.0828 -2.7900 -0.5473
  680MOL0     H91747   4.204  11.030   8.805 -1.2823  2.6056  0.1079
  680MOL0     H91748   4.039  11.034   8.875 -0.0427 -0.5860 -0.4381
  680MOL0     H91749   4.201  11.040   9.060 -0.0775  0.8938 -1.3320
  680MOL0     H91750   4.292  10.900   8.996 -0.9377 -0.7509  0.6055
  680MOL0     H91751   3.924  10.989   9.101  1.0601  1.3750  0.4274
  680MOL0     H91752   3.715  10.774   9.149 -0.0648 -1.9642 -0.1727
  680MOL0     H91753   3.782  10.649   9.253  0.5451  0.0996 -1.0972
  680MOL0     H91754   3.752  10.946   9.320 -1.8805 -1.3590 -0.3505
  680MOL0     H91755   3.831  10.837   9.424  0.5377  4.0456  0.0278
  680MOL0     H91756   3.621  10.877   9.512 -2.3285  0.2896 -0.3716
  680MOL0     H91757   3.604  10.710   9.442  2.0343 -0.8500  0.7689
  680MOL0     H91758   3.509  10.827   9.232  1.1114 -0.1732  0.2334
  680MOL0     H91759   3.487  10.972   9.317 -1.2488 -0.1223 -0.7892
  680MOL0     H91760   3.339  10.998   9.195  0.0607 -0.5354  2.0869
  680MOL0     H91761   3.105  11.073   8.961  0.3240 -0.3376  0.0150
  680MOL0     H91762   3.051  11.163   9.098 -0.3357 -0.8186  1.8361
  680MOL0     H91763   3.227  11.145   9.068  1.1001 -3.0091 -1.8903
  680MOL0     H91764   2.647  11.136   9.169 -2.4811  1.6296  0.5367
  680MOL0     H91765   2.423  11.157   9.057 -0.3631 -0.0165 -1.1972
  680MOL0     H91766   2.279  10.894   8.829 -0.2040  0.0660  1.1164
  680MOL0     H91767   2.254  10.981   8.972 -3.0609  1.0831  0.3284
  680MOL0     H91768   2.050  10.961   8.888  0.6602  0.5621  0.7760
  680MOL0     H91769   2.082  11.129   8.849 -0.5782  0.3505 -1.1154
  680MOL0     H91770   2.135  10.901   8.647 -0.4094 -0.5707 -0.0104
  680MOL0     H91771   2.158  11.075   8.620 -0.0531 -0.8794  0.5769
  680MOL0     H91772   1.894  10.932   8.658 -2.4129  2.0444 -1.0283
  680MOL0     H91773   1.917  11.110   8.675  0.8410  2.1397 -0.7735
  680MOL0     H91774   1.939  10.938   8.425 -2.7964  0.0703  0.3311
  680MOL0     H91775   1.972  11.113   8.433 -0.3629 -1.7045 -2.8498
  680MOL0     H91776   1.715  10.956   8.494  0.0648  0.4224  1.7655
  680MOL0     H91777   1.737  11.131   8.533  2.3117  0.2696  0.3567
  680MOL0     H91778   1.763  11.015   8.251 -0.1029  1.2090 -0.5112
  680MOL0     H91779   1.763  11.192   8.307 -1.8608  0.4374 -1.6475
  680MOL0     H91780   1.537  11.122   8.413  0.0667 -2.2983  1.6136
  680MOL0     H91781   1.531  10.998   8.279 -0.7029  0.2697  0.8770
  680MOL0     H91782   2.582  11.005   8.690  1.1818  0.4504 -0.1020
  680MOL0     H91783   2.801  10.972   8.801  0.1706 -0.6622  2.1427
  680MOL0     H91784   2.950  10.712   9.282 -1.8181  1.8297  0.2491
  680MOL0     H91785   3.167  10.674   9.409  0.3844  0.5266  0.6703
  680MOL0     H91786   3.155  10.920   8.756 -0.2729  0.1815 -0.2834
  680MOL0     H91787   2.955  10.943   8.649  1.9560 -1.8170  1.5101
  680MOL0     H91788   2.756  11.193   8.388  2.0172  0.2825 -0.6036
  680MOL0     H91789   2.542  11.333   8.315 -0.4057  1.5212 -0.6341
  680MOL0     H91790   2.423  11.273   7.884  1.5945 -3.1417  0.5166
  680MOL0     H91791   2.357  11.140   7.969  2.1192 -0.1645  0.4479
  680MOL0     H91792   2.236  11.407   7.967 -0.4003  0.7538  0.1831
  680MOL0     H91793   2.172  11.256   8.045 -0.9049  2.9616  1.3994
  680MOL0     H91794   2.167  11.151   7.816 -1.5678 -0.0872 -0.4686
  680MOL0     H91795   2.222  11.299   7.745 -0.7638 -0.9012 -1.4944
  680MOL0     H91796   1.971  11.283   7.707 -5.5481 -1.4757  2.6437
  680MOL0     H91797   2.003  11.425   7.812  2.8010  0.9021  1.7612
  680MOL0     H91798   1.752  11.165   8.019  0.6019 -0.5987  0.6000
  680MOL0     H91799   2.591  11.136   7.940  0.7236 -1.3150  0.0442
  680MOL0     H91800   2.762  11.011   7.999 -1.8938 -1.8711  1.0055
  681MOL0     O91801   0.892   1.696   3.663 -0.2809 -0.4320  0.5290
  681MOL0     C91802   0.907   1.718   3.779  0.2201 -0.6075  0.4163
  681MOL0     O91803   0.803   1.746   3.867  0.1208  0.1336 -0.6376
  681MOL0     C91804   0.669   1.761   3.833 -0.1650 -0.1914 -0.7102
  681MOL0     C91805   0.577   1.707   3.919 -0.1794 -0.2598  0.2276
  681MOL0     C91806   0.441   1.710   3.886  0.1313  0.0576  0.0592
  681MOL0     C91807   0.392   1.768   3.763 -0.7488  0.1835 -0.5847
  681MOL0     O91808   0.264   1.770   3.710 -0.3417 -0.3279 -0.6436
  681MOL0     C91809   0.155   1.758   3.795  0.2507  0.2049 -0.5202
  681MOL0     C91810   0.048   1.711   3.706 -0.3371  0.5295  0.4830
  681MOL0     C91811  -0.088   1.696   3.771 -0.4546 -0.0690  0.2703
  681MOL0     C91812  -0.076   1.616   3.899  0.0343  0.2101 -0.5785
  681MOL0     C91813  -0.218   1.580   3.965 -0.2834 -0.2237  0.5813
  681MOL0     C91814  -0.204   1.511   4.103  0.0274  0.7575  0.8529
  681MOL0     C91815  -0.339   1.459   4.152  0.9308 -1.2701 -0.0788
  681MOL0     C91816  -0.313   1.409   4.294  0.3383  0.3043  0.0355
  681MOL0     N91817  -0.434   1.381   4.373  0.7763  0.2754  0.9412
  681MOL0     C91818  -0.470   1.269   4.436 -0.6857  0.4277  0.2817
  681MOL0     C91819  -0.575   1.299   4.509 -0.0179 -0.1651 -0.7889
  681MOL0     C91820  -0.645   1.200   4.592 -0.1721  0.4902  0.2084
  681MOL0     C91821  -0.611   1.205   4.745  0.1954  0.3056  1.1124
  681MOL0     C91822  -0.651   1.072   4.817 -0.8838 -0.8861  0.1241
  681MOL0     C91823  -0.798   1.053   4.828  0.1216 -0.0489  0.1799
  681MOL0     O91824  -0.835   0.922   4.877  0.1680 -0.0656  0.5673
  681MOL0     C91825  -0.966   0.889   4.890  0.3043 -0.0896  0.3337
  681MOL0     C91826  -0.977   0.765   4.953 -0.4879 -0.7037  0.0756
  681MOL0     C91827  -1.096   0.704   4.975 -0.4690  0.8700 -0.4316
  681MOL0     C91828  -1.098   0.553   5.028 -0.3739 -0.1232 -0.1573
  681MOL0     C91829  -1.212   0.777   4.939 -1.1305  0.0989  0.8088
  681MOL0     C91830  -1.349   0.722   4.962  0.3812 -0.4067 -0.4087
  681MOL0     O91831  -1.440   0.741   4.862  0.6240 -0.3327  0.2593
  681MOL0     C91832  -1.558   0.667   4.868 -0.1927  0.1071  0.0831
  681MOL0     C91833  -1.544   0.526   4.857  0.5101 -1.4560  0.8119
  681MOL0     C91834  -1.654   0.450   4.848  0.0064 -0.1444 -0.0264
  681MOL0     C91835  -1.783   0.515   4.847 -0.9918 -0.0552  0.4653
  681MOL0     O91836  -1.904   0.447   4.835 -0.5666 -1.0063  0.2055
  681MOL0     C91837  -1.913   0.309   4.858 -0.0831 -0.4520 -0.5485
  681MOL0     C91838  -2.050   0.265   4.820  0.1537 -0.3557 -0.6165
  681MOL0     C91839  -2.159   0.300   4.921  0.9719  0.5727  0.5942
  681MOL0     C91840  -2.294   0.217   4.889  0.3380 -0.2837  0.6086
  681MOL0     C91841  -2.411   0.255   4.982  0.8431  0.1611 -0.4366
  681MOL0     C91842  -2.547   0.184   4.942 -0.2855 -0.8328 -0.1896
  681MOL0     C91843  -2.673   0.245   5.026  0.0238  0.3747  0.7654
  681MOL0     C91844  -2.698   0.167   5.157  0.4967  0.6176 -0.5086
  681MOL0    Cl91845  -2.811   0.017   5.101  0.0210 -0.4326  0.1843
  681MOL0     C91846  -1.796   0.651   4.858 -0.6361  0.3530  0.1236
  681MOL0     C91847  -1.685   0.734   4.858  0.3348  0.2431  0.8489
  681MOL0     O91848  -1.370   0.657   5.062  0.1172  0.0061 -0.0789
  681MOL0     C91849  -1.206   0.901   4.884  0.0575 -0.2721 -0.0670
  681MOL0     C91850  -1.084   0.958   4.859  0.0890 -0.6505 -0.2069
  681MOL0     N91851  -0.613   1.432   4.489  0.0157  0.3449 -0.0113
  681MOL0     N91852  -0.525   1.476   4.400  1.0911 -0.3028 -0.0080
  681MOL0     C91853   0.480   1.831   3.678 -1.0042 -0.3044 -0.4754
  681MOL0     C91854   0.621   1.812   3.715 -0.3042  0.1422  0.5006
  681MOL0     C91855   1.048   1.737   3.835  0.1314 -0.4981 -0.3247
  681MOL0     C91856   1.060   1.726   3.976 -0.2342  0.1579 -0.2967
  681MOL0     C91857   1.193   1.728   4.028  1.3132  0.5153  0.0715
  681MOL0     C91858   1.306   1.727   3.942  0.0483  0.3253 -0.4122
  681MOL0     O91859   1.441   1.720   3.981 -0.6800  0.2223  0.4698
  681MOL0     C91860   1.469   1.746   4.118  0.6349 -0.4682  0.0510
  681MOL0     C91861   1.436   1.886   4.180 -0.5729 -0.2852  0.0831
  681MOL0     C91862   1.460   1.905   4.333 -0.0776  0.8569 -0.6792
  681MOL0     C91863   1.429   2.043   4.397 -0.1578 -0.5057 -0.1546
  681MOL0     C91864   1.281   2.069   4.385 -1.0793 -0.2139 -0.3895
  681MOL0     C91865   1.164   2.081   4.387 -0.4463  0.6728 -0.1090
  681MOL0     C91866   1.292   1.743   3.813  0.1441 -0.0441 -0.7496
  681MOL0     C91867   1.161   1.753   3.756 -0.5201  0.4113 -0.1600
  681MOL0     H91868   0.621   1.664   4.008  2.1358  0.7459 -0.3634
  681MOL0     H91869   0.368   1.675   3.958 -1.0200  0.2668 -0.9698
  681MOL0     H91870   0.173   1.702   3.887 -3.2308 -1.2993 -0.5836
  681MOL0     H91871   0.116   1.856   3.826 -1.1120  0.4526 -2.7561
  681MOL0     H91872   0.052   1.776   3.618 -1.8121 -3.6476 -3.0873
  681MOL0     H91873   0.089   1.618   3.665  2.7374  0.8647  2.4771
  681MOL0     H91874  -0.136   1.794   3.788 -0.6504 -0.3759  1.6400
  681MOL0     H91875  -0.157   1.647   3.701 -1.4576 -0.9556  1.8149
  681MOL0     H91876  -0.023   1.523   3.873 -1.3857 -0.6823 -0.4016
  681MOL0     H91877  -0.015   1.666   3.974  1.8497 -1.0550 -1.1462
  681MOL0     H91878  -0.282   1.669   3.971 -0.4337 -0.3081  0.2711
  681MOL0     H91879  -0.269   1.518   3.890  1.6800 -1.4341  0.1698
  681MOL0     H91880  -0.130   1.430   4.105 -2.7542 -1.9616  2.3711
  681MOL0     H91881  -0.168   1.592   4.168  2.1846 -0.8453  1.7636
  681MOL0     H91882  -0.402   1.548   4.151  2.7485  0.0760 -0.2267
  681MOL0     H91883  -0.394   1.381   4.098 -0.3141 -1.7869  1.8179
  681MOL0     H91884  -0.267   1.488   4.354 -1.7794  0.4137  1.6335
  681MOL0     H91885  -0.239   1.328   4.293  1.9932  1.7278  1.1446
  681MOL0     H91886  -0.414   1.178   4.453 -0.9609  0.6169  2.5877
  681MOL0     H91887  -0.752   1.204   4.571 -0.3228 -3.6643 -0.6546
  681MOL0     H91888  -0.609   1.108   4.546  0.1042  0.8353 -0.2702
  681MOL0     H91889  -0.658   1.296   4.783 -0.8629  0.6931 -0.9421
  681MOL0     H91890  -0.504   1.220   4.765  0.3718  0.6587 -0.0054
  681MOL0     H91891  -0.615   1.077   4.920  1.6169 -1.9325 -0.6431
  681MOL0     H91892  -0.606   0.983   4.774 -1.8103 -1.1113 -0.3998
  681MOL0     H91893  -0.861   1.065   4.739 -3.4833 -2.8191  2.0691
  681MOL0     H91894  -0.856   1.125   4.886  0.3936 -0.1581  0.5951
  681MOL0     H91895  -0.891   0.701   4.973  2.9852  3.4724 -0.0139
  681MOL0     H91896  -1.119   0.549   5.136  0.7490  2.1334  0.2020
  681MOL0     H91897  -1.178   0.502   4.973  0.3669  0.2277 -1.5914
  681MOL0     H91898  -1.007   0.496   5.008  1.1902  0.6887  3.6428
  681MOL0     H91899  -1.454   0.468   4.873 -0.0835 -2.9519 -0.7996
  681MOL0     H91900  -1.651   0.343   4.830 -1.4108 -0.6482  2.2606
  681MOL0     H91901  -1.845   0.245   4.800  0.7876  1.0296 -1.2206
  681MOL0     H91902  -1.912   0.281   4.963 -2.1699  0.3212 -0.2665
  681MOL0     H91903  -2.078   0.285   4.716 -1.6877 -0.3004 -0.1610
  681MOL0     H91904  -2.046   0.156   4.832  0.3283 -0.3232 -0.3736
  681MOL0     H91905  -2.187   0.405   4.921 -2.3820 -0.2253 -0.2759
  681MOL0     H91906  -2.122   0.262   5.017 -0.3207  1.0638  1.3044
  681MOL0     H91907  -2.320   0.250   4.789 -0.0010  1.1365  1.1495
  681MOL0     H91908  -2.288   0.108   4.898 -0.8261 -0.4116  0.0528
  681MOL0     H91909  -2.430   0.362   4.977 -0.5306 -0.0823 -0.6745
  681MOL0     H91910  -2.388   0.235   5.087 -0.8073  0.3735 -0.0132
  681MOL0     H91911  -2.557   0.202   4.835  1.6100 -1.3482 -0.4749
  681MOL0     H91912  -2.542   0.077   4.964 -3.0485 -0.8112  1.0641
  681MOL0     H91913  -2.763   0.253   4.965  2.2182  0.1353 -2.8458
  681MOL0     H91914  -2.651   0.349   5.052 -1.0924  0.7617  0.2140
  681MOL0     H91915  -2.751   0.229   5.230 -1.1373 -0.5014 -0.7066
  681MOL0     H91916  -2.602   0.133   5.198 -0.6589  1.3546  3.1560
  681MOL0     H91917  -1.895   0.696   4.858 -0.1646  1.4490  0.8186
  681MOL0     H91918  -1.691   0.841   4.871  0.0743  0.6013 -1.7326
  681MOL0     H91919  -1.300   0.952   4.868 -0.2580 -0.5290  0.9300
  681MOL0     H91920  -1.075   1.053   4.807 -1.3276 -0.8796 -0.9023
  681MOL0     H91921   0.447   1.886   3.590 -2.4437 -3.1967 -1.8741
  681MOL0     H91922   0.687   1.831   3.630 -0.4279  1.5712  0.6905
  681MOL0     H91923   0.976   1.726   4.045 -3.1645  1.4916 -3.5240
  681MOL0     H91924   1.203   1.716   4.136 -1.8056 -1.6168  0.2598
  681MOL0     H91925   1.415   1.664   4.168 -0.5077 -0.4303 -1.0388
  681MOL0     H91926   1.572   1.722   4.146  0.5963 -2.2478 -1.1229
  681MOL0     H91927   1.336   1.922   4.152 -0.8810 -0.2482  1.1692
  681MOL0     H91928   1.502   1.964   4.140  0.8627 -0.8183  1.3078
  681MOL0     H91929   1.566   1.891   4.355  0.0155  0.4679 -1.3577
  681MOL0     H91930   1.419   1.819   4.386  1.5083  1.1415  1.0922
  681MOL0     H91931   1.477   2.121   4.337 -0.2504 -1.4303 -1.4713
  681MOL0     H91932   1.468   2.052   4.499 -0.2442 -0.3474 -0.1358
  681MOL0     H91933   1.057   2.087   4.381 -0.3606  1.4038 -1.3583
  681MOL0     H91934   1.384   1.734   3.757 -1.3686  0.9598 -3.5514
  681MOL0     H91935   1.159   1.771   3.649  1.1507 -0.6082 -0.4011
  682MOL0     O91936   5.278   9.051   2.846  0.0539 -0.3191 -0.5116
  682MOL0     C91937   5.288   9.127   2.751 -0.8341 -0.1313 -0.4128
  682MOL0     O91938   5.191   9.154   2.662 -1.0727 -0.3225  0.1974
  682MOL0     C91939   5.069   9.099   2.670  1.2062 -0.8094  0.3160
  682MOL0     C91940   4.965   9.189   2.665 -0.3656 -0.4909 -0.5133
  682MOL0     C91941   4.842   9.144   2.680  0.5828  0.2229  0.1189
  682MOL0     C91942   4.812   9.004   2.699 -0.0422  0.0802  0.4006
  682MOL0     O91943   4.686   8.949   2.706 -0.3811 -0.3210 -0.4098
  682MOL0     C91944   4.589   9.036   2.762 -0.0948  0.2996 -0.5856
  682MOL0     C91945   4.475   8.957   2.831  0.0223 -0.0421 -1.0343
  682MOL0     C91946   4.362   8.931   2.736 -0.1471 -0.0539  0.4877
  682MOL0     C91947   4.264   8.827   2.794  0.2084  0.3551  0.3612
  682MOL0     C91948   4.164   8.783   2.681 -0.3379  0.6635  0.8494
  682MOL0     C91949   4.029   8.714   2.722 -0.6765  0.1697 -0.1911
  682MOL0     C91950   3.949   8.651   2.605  0.8142  1.2146  0.0502
  682MOL0     C91951   3.797   8.657   2.641 -0.1107 -0.3304 -0.5594
  682MOL0     N91952   3.737   8.790   2.668 -1.3490  0.2828  0.5061
  682MOL0     C91953   3.750   8.889   2.571  0.6637  0.8167  0.6137
  682MOL0     C91954   3.681   8.991   2.626  0.5699  0.1084 -0.2262
  682MOL0     C91955   3.656   9.118   2.550  0.1823 -0.7816 -0.4231
  682MOL0     C91956   3.519   9.116   2.481  0.0744  0.5401 -1.0056
  682MOL0     C91957   3.398   9.125   2.572 -0.3786 -0.2993 -0.0587
  682MOL0     C91958   3.259   9.102   2.505  0.2169 -0.1596 -0.7929
  682MOL0     O91959   3.145   9.136   2.594 -0.7683  0.5437  0.5875
  682MOL0     C91960   3.023   9.160   2.545 -0.1570 -0.7466 -0.4288
  682MOL0     C91961   2.931   9.235   2.617  0.4166  0.7134  0.3107
  682MOL0     C91962   2.804   9.263   2.567  0.4731 -0.2430  0.4537
  682MOL0     C91963   2.720   9.360   2.640  0.6791  0.4768  0.9439
  682MOL0     C91964   2.763   9.214   2.442  0.5149  0.4285  0.7526
  682MOL0     C91965   2.632   9.247   2.369  0.2987  0.5074 -0.3835
  682MOL0     O91966   2.638   9.236   2.230  0.1781 -0.0484 -0.0075
  682MOL0     C91967   2.532   9.291   2.158 -0.8283  1.7118  0.1230
  682MOL0     C91968   2.408   9.240   2.172  0.0387 -0.9048  0.1988
  682MOL0     C91969   2.299   9.300   2.114  0.2558  0.4889 -0.6321
  682MOL0     C91970   2.313   9.392   2.017 -0.5743 -0.5804  0.3661
  682MOL0     O91971   2.205   9.438   1.943  0.9173 -0.1346 -0.1366
  682MOL0     C91972   2.085   9.352   1.929 -0.0575 -0.0483  0.0205
  682MOL0     C91973   1.982   9.403   2.033  1.0058 -0.4864 -0.0375
  682MOL0     C91974   1.843   9.325   1.998 -0.4200 -0.1073 -0.3027
  682MOL0     C91975   1.768   9.385   1.880 -0.0572 -0.3767  0.8589
  682MOL0     C91976   1.641   9.307   1.845  0.2455 -0.3851  0.5751
  682MOL0     C91977   1.521   9.322   1.946 -0.0141 -0.4020 -0.6641
  682MOL0     C91978   1.406   9.219   1.932  0.2077 -0.2544  0.5745
  682MOL0     C91979   1.325   9.201   2.059 -0.3657 -0.3690  0.7958
  682MOL0    Cl91980   1.236   9.345   2.107 -0.4802  0.0964 -0.1659
  682MOL0     C91981   2.443   9.443   1.996  0.2320  0.4696 -0.2534
  682MOL0     C91982   2.559   9.400   2.068  0.9646 -0.1153 -0.8405
  682MOL0     O91983   2.531   9.275   2.438 -0.1445 -0.4458 -0.1453
  682MOL0     C91984   2.851   9.124   2.373  0.0358 -0.4072  0.1094
  682MOL0     C91985   2.985   9.110   2.422 -0.1545 -0.1821 -0.3948
  682MOL0     N91986   3.639   8.955   2.757 -0.2398  0.2852 -0.2284
  682MOL0     N91987   3.668   8.831   2.777 -0.5848 -0.2884  0.7034
  682MOL0     C91988   4.922   8.912   2.703 -0.0870 -0.3161 -0.3863
  682MOL0     C91989   5.049   8.962   2.685 -0.1888 -0.5864  0.3043
  682MOL0     C91990   5.418   9.177   2.715  0.5643 -0.5623 -0.4655
  682MOL0     C91991   5.427   9.276   2.617  0.1073  0.1477  1.1764
  682MOL0     C91992   5.549   9.316   2.575 -0.3895 -0.0231  0.6739
  682MOL0     C91993   5.673   9.253   2.611 -0.1731  0.6086  0.8616
  682MOL0     O91994   5.796   9.296   2.573 -0.4526  0.0073 -0.1994
  682MOL0     C91995   5.908   9.207   2.587 -0.3034 -0.1068  0.5061
  682MOL0     C91996   6.007   9.231   2.479 -0.6997  0.3600 -0.1080
  682MOL0     C91997   5.967   9.184   2.336 -0.0482 -1.1942 -0.4181
  682MOL0     C91998   6.097   9.192   2.250 -0.6717 -0.5297 -0.3009
  682MOL0     C91999   6.161   9.054   2.240 -0.2803  0.6200 -0.8979
  682MOL0     C92000   6.237   8.954   2.227  0.5327  0.7980 -0.6109
  682MOL0     C92001   5.661   9.151   2.708 -0.0178 -0.2238  1.0211
  682MOL0     C92002   5.539   9.117   2.762  0.0763 -0.3730 -0.4170
  682MOL0     H92003   4.992   9.294   2.670  0.9021 -0.8345  0.4765
  682MOL0     H92004   4.766   9.220   2.688  1.7020  1.2325  2.2812
  682MOL0     H92005   4.632   9.087   2.849  1.2058 -1.4152 -0.1727
  682MOL0     H92006   4.549   9.101   2.684  1.7858  0.1662 -1.7333
  682MOL0     H92007   4.529   8.873   2.875  1.8637  0.8291 -1.5087
  682MOL0     H92008   4.426   9.005   2.915  2.3426 -1.2534  1.1511
  682MOL0     H92009   4.292   9.014   2.727 -2.9535 -1.9352  3.0456
  682MOL0     H92010   4.406   8.902   2.640 -1.5720  3.1745 -1.2822
  682MOL0     H92011   4.324   8.744   2.833  0.5875  1.2288  1.7014
  682MOL0     H92012   4.212   8.859   2.885  0.7753 -1.3849  1.3501
  682MOL0     H92013   4.127   8.864   2.618 -0.5404  0.0888  0.2089
  682MOL0     H92014   4.217   8.724   2.605  0.3346  1.6863  0.5034
  682MOL0     H92015   4.051   8.637   2.797 -1.0670  1.1669  0.9811
  682MOL0     H92016   3.976   8.789   2.782 -0.8624  1.0490 -1.4250
  682MOL0     H92017   3.961   8.701   2.508 -1.5772  0.9043 -0.4878
  682MOL0     H92018   3.979   8.546   2.598 -0.4318  0.9189 -1.6478
  682MOL0     H92019   3.784   8.611   2.740  0.6494 -0.9389 -0.7304
  682MOL0     H92020   3.750   8.601   2.560  2.2904 -2.3226 -0.7057
  682MOL0     H92021   3.796   8.882   2.473 -1.7848 -1.9270 -0.5032
  682MOL0     H92022   3.642   9.197   2.625 -2.4529 -2.4261  0.9652
  682MOL0     H92023   3.735   9.134   2.476 -0.8343  1.3121 -1.1595
  682MOL0     H92024   3.514   9.021   2.427  1.1923 -0.3808  0.4322
  682MOL0     H92025   3.522   9.199   2.410  0.2013 -0.5320 -2.3035
  682MOL0     H92026   3.395   9.231   2.600 -2.4005 -0.4321  0.4286
  682MOL0     H92027   3.402   9.054   2.655 -3.0419 -0.5851 -0.0886
  682MOL0     H92028   3.252   8.996   2.481 -2.4690  0.1720 -1.8887
  682MOL0     H92029   3.245   9.161   2.414 -1.4094 -0.9467 -1.0984
  682MOL0     H92030   2.964   9.265   2.716  0.1615  0.8152  0.3641
  682MOL0     H92031   2.724   9.457   2.589 -0.2405 -1.0581 -2.3498
  682MOL0     H92032   2.622   9.312   2.650  2.5317 -3.2916  3.4289
  682MOL0     H92033   2.755   9.382   2.741  0.2535 -0.9291  1.4152
  682MOL0     H92034   2.400   9.150   2.232 -1.1301 -0.5587  0.5978
  682MOL0     H92035   2.208   9.255   2.151  0.7756  0.7598  1.0328
  682MOL0     H92036   2.038   9.363   1.830 -1.9761 -2.6557  0.5249
  682MOL0     H92037   2.105   9.248   1.953  3.2004  0.7259  1.0331
  682MOL0     H92038   2.003   9.400   2.140  1.4265  2.4110  0.0420
  682MOL0     H92039   1.969   9.510   2.011  2.4738 -0.2900 -0.0237
  682MOL0     H92040   1.787   9.313   2.091  0.9664 -1.5268  0.4019
  682MOL0     H92041   1.883   9.230   1.961  0.5017 -0.0812  0.5781
  682MOL0     H92042   1.762   9.493   1.896  1.0459 -0.2341  0.4142
  682MOL0     H92043   1.826   9.377   1.788 -3.3035 -0.2122 -1.3619
  682MOL0     H92044   1.676   9.207   1.819  0.6893  0.2273 -1.4038
  682MOL0     H92045   1.607   9.348   1.749  3.2857  2.0263  0.3875
  682MOL0     H92046   1.555   9.319   2.050 -0.2960  0.8082 -0.5335
  682MOL0     H92047   1.478   9.420   1.927 -0.0078  0.1389  1.8376
  682MOL0     H92048   1.444   9.125   1.891  0.3289  0.7199 -1.7007
  682MOL0     H92049   1.337   9.263   1.860  1.5701  1.5359  0.2996
  682MOL0     H92050   1.399   9.175   2.135  0.0040  1.2989  1.0418
  682MOL0     H92051   1.269   9.108   2.062 -0.8352 -0.0757  1.2745
  682MOL0     H92052   2.458   9.520   1.922  2.5573  0.2826 -0.0513
  682MOL0     H92053   2.661   9.427   2.042  2.2922 -2.1931  1.7885
  682MOL0     H92054   2.829   9.084   2.275  0.0444 -0.4555  0.1271
  682MOL0     H92055   3.051   9.050   2.361 -1.0225 -3.3387  1.5178
  682MOL0     H92056   4.897   8.807   2.709 -1.0859 -0.0458  0.4992
  682MOL0     H92057   5.137   8.899   2.696 -0.8560 -1.3542  1.4002
  682MOL0     H92058   5.336   9.325   2.582  1.2624  1.2132 -0.4732
  682MOL0     H92059   5.572   9.401   2.512  2.9025  0.4786  2.3372
  682MOL0     H92060   5.965   9.237   2.675  0.6144  2.2593 -0.7975
  682MOL0     H92061   5.882   9.101   2.590 -1.8963  0.2710  2.4754
  682MOL0     H92062   6.089   9.165   2.507 -0.1852  0.8363 -0.4945
  682MOL0     H92063   6.032   9.336   2.496  1.5576 -0.3710  1.5668
  682MOL0     H92064   5.908   9.266   2.296  1.5545  0.3886  0.3515
  682MOL0     H92065   5.915   9.088   2.348 -1.4658 -0.2759  1.3357
  682MOL0     H92066   6.170   9.266   2.284 -1.9688  1.0382 -0.8183
  682MOL0     H92067   6.071   9.215   2.147 -0.4484 -0.7862 -0.4173
  682MOL0     H92068   6.291   8.861   2.219 -2.4149 -0.9795 -1.5989
  682MOL0     H92069   5.748   9.099   2.748  0.3159 -0.7367 -0.3166
  682MOL0     H92070   5.521   9.033   2.827 -2.7576 -0.0429 -0.6588
  683MOL0     O92071   4.713   1.250   2.636 -0.9532  0.2046  0.0841
  683MOL0     C92072   4.777   1.334   2.578 -0.1148 -0.2793 -0.0210
  683MOL0     O92073   4.733   1.394   2.465  0.3093  0.5295 -0.1297
  683MOL0     C92074   4.605   1.378   2.419 -0.0494 -0.3924 -1.2458
  683MOL0     C92075   4.489   1.357   2.495  0.1017 -0.0192  0.1496
  683MOL0     C92076   4.369   1.342   2.428  0.2557 -0.4300 -0.5990
  683MOL0     C92077   4.353   1.343   2.293  0.0113 -0.6106 -0.9252
  683MOL0     O92078   4.239   1.312   2.233  0.0904  0.1304 -0.6356
  683MOL0     C92079   4.200   1.384   2.108 -0.1477 -0.0001 -0.0121
  683MOL0     C92080   4.051   1.365   2.103  0.0185  0.1002  0.0507
  683MOL0     C92081   4.005   1.443   1.971  0.5051  0.6383  0.2634
  683MOL0     C92082   3.855   1.413   1.943 -0.9698 -0.4997  0.0664
  683MOL0     C92083   3.759   1.490   2.038  0.7042  0.6689  0.0196
  683MOL0     C92084   3.615   1.481   1.990 -0.3082 -0.2757  0.2366
  683MOL0     C92085   3.519   1.563   2.082 -0.2621  0.0006 -0.1878
  683MOL0     C92086   3.384   1.553   2.013  0.0921  0.5930  0.0918
  683MOL0     N92087   3.278   1.599   2.107 -0.1820  0.6227  0.0359
  683MOL0     C92088   3.176   1.522   2.141  0.7477 -0.8131  0.6372
  683MOL0     C92089   3.085   1.606   2.197 -1.0049  0.1681 -0.2077
  683MOL0     C92090   2.954   1.552   2.254  0.1005 -0.6656  0.2576
  683MOL0     C92091   2.831   1.580   2.165  0.5300 -1.0207  0.2492
  683MOL0     C92092   2.708   1.511   2.228  0.4312 -0.0131 -0.1768
  683MOL0     C92093   2.573   1.562   2.167 -0.1774 -0.1872 -0.7432
  683MOL0     O92094   2.469   1.541   2.260 -0.1123 -0.2062  0.4350
  683MOL0     C92095   2.342   1.583   2.229  0.5363 -0.8704  0.0332
  683MOL0     C92096   2.257   1.595   2.336 -0.1310  0.4910 -0.4340
  683MOL0     C92097   2.123   1.634   2.328 -0.2396 -0.0453 -0.1839
  683MOL0     C92098   2.054   1.641   2.455  0.5401  0.8798 -0.0170
  683MOL0     C92099   2.072   1.671   2.196  0.3417 -0.2760 -0.9241
  683MOL0     C92100   1.933   1.701   2.169 -0.2955  0.5767  0.7171
  683MOL0     O92101   1.840   1.684   2.274 -0.1518  0.0541  0.1882
  683MOL0     C92102   1.703   1.692   2.249  0.8709 -0.4847 -0.1562
  683MOL0     C92103   1.628   1.595   2.326 -0.7271 -0.0422  0.0325
  683MOL0     C92104   1.497   1.583   2.308  0.3727  0.3258 -0.6552
  683MOL0     C92105   1.427   1.664   2.221  0.2693  0.0842  1.0754
  683MOL0     O92106   1.295   1.665   2.209 -0.4038  0.5146 -0.6596
  683MOL0     C92107   1.253   1.568   2.117  0.1191 -0.3158 -0.1149
  683MOL0     C92108   1.101   1.551   2.129  1.2416 -0.3647 -0.0599
  683MOL0     C92109   1.046   1.532   2.272 -0.2009  0.1763 -0.8602
  683MOL0     C92110   1.091   1.394   2.323  0.1901 -0.1179 -0.4125
  683MOL0     C92111   0.985   1.357   2.426  0.6717  0.5060  0.3560
  683MOL0     C92112   1.021   1.226   2.495 -1.0445 -0.7942  0.3258
  683MOL0     C92113   0.907   1.187   2.590  0.0485  0.0217  0.3260
  683MOL0     C92114   0.918   1.043   2.637 -0.0632  0.1568  0.2345
  683MOL0    Cl92115   1.012   1.048   2.784  0.3469 -0.2028 -0.4581
  683MOL0     C92116   1.498   1.755   2.146  0.4120 -0.6086 -0.2678
  683MOL0     C92117   1.635   1.768   2.151  0.2069  0.1698  0.7055
  683MOL0     O92118   1.899   1.734   2.053  0.4621  0.3750 -0.1030
  683MOL0     C92119   2.153   1.652   2.088  0.2526  0.7635  0.1302
  683MOL0     C92120   2.291   1.616   2.103  0.3553 -0.4028  0.4621
  683MOL0     N92121   3.141   1.728   2.196 -0.3885 -0.2160 -1.5393
  683MOL0     N92122   3.258   1.727   2.142 -0.1560  0.3280 -0.2963
  683MOL0     C92123   4.470   1.381   2.221 -0.6207 -0.1864  0.0473
  683MOL0     C92124   4.596   1.397   2.288 -0.4496  0.1479  0.6229
  683MOL0     C92125   4.918   1.353   2.621 -0.5488  1.0562  0.2666
  683MOL0     C92126   5.007   1.427   2.539  0.0350  0.4916  0.0399
  683MOL0     C92127   5.137   1.454   2.587  1.1053  0.3991  0.3592
  683MOL0     C92128   5.185   1.409   2.706 -0.9432  0.8024  0.1825
  683MOL0     O92129   5.307   1.437   2.760 -0.2470  0.0692 -0.5461
  683MOL0     C92130   5.398   1.517   2.685 -0.8216 -0.2169  0.2251
  683MOL0     C92131   5.539   1.534   2.743 -0.3638  0.3417 -0.5470
  683MOL0     C92132   5.625   1.636   2.666  0.9351 -0.2426 -0.3708
  683MOL0     C92133   5.584   1.785   2.671  0.6868 -0.2529 -0.2602
  683MOL0     C92134   5.694   1.846   2.600 -0.1326  0.6546  0.5691
  683MOL0     C92135   5.788   1.889   2.537  0.3460 -0.9244 -0.5168
  683MOL0     C92136   5.105   1.327   2.775  0.0587 -0.1548 -0.3762
  683MOL0     C92137   4.969   1.307   2.737 -1.1016 -0.2929  0.1378
  683MOL0     H92138   4.484   1.344   2.603  0.0046  0.8014  0.2481
  683MOL0     H92139   4.281   1.314   2.485 -0.4155 -0.2466 -1.5289
  683MOL0     H92140   4.224   1.491   2.106  1.6142 -0.2693 -4.8892
  683MOL0     H92141   4.248   1.341   2.020  2.7184  0.7874  1.0549
  683MOL0     H92142   4.030   1.258   2.091  1.6828 -0.5108  1.9365
  683MOL0     H92143   4.002   1.397   2.195  0.1744 -2.5872  1.1717
  683MOL0     H92144   4.018   1.548   1.995 -1.6448  0.4101  2.8760
  683MOL0     H92145   4.066   1.418   1.884  0.1527 -1.5203  0.5655
  683MOL0     H92146   3.823   1.439   1.842  0.8875  0.6650 -0.2786
  683MOL0     H92147   3.832   1.306   1.943 -1.6256 -0.4260 -2.3870
  683MOL0     H92148   3.768   1.467   2.144  1.5477  1.8480  0.2234
  683MOL0     H92149   3.784   1.596   2.031 -1.9438  1.3682  0.3393
  683MOL0     H92150   3.610   1.511   1.885  1.0720  0.6296  0.4157
  683MOL0     H92151   3.593   1.375   2.010  0.8293 -0.6497 -0.4255
  683MOL0     H92152   3.520   1.523   2.184  1.4078  0.4395 -0.0047
  683MOL0     H92153   3.559   1.665   2.082  4.5211 -1.5986  0.3700
  683MOL0     H92154   3.361   1.450   1.984 -2.1342  2.0288 -4.0315
  683MOL0     H92155   3.387   1.607   1.918  0.6733 -2.1100 -1.5336
  683MOL0     H92156   3.159   1.419   2.111 -1.1743 -0.1018 -0.8340
  683MOL0     H92157   2.966   1.443   2.261  2.1587 -0.4197  1.5497
  683MOL0     H92158   2.936   1.589   2.355  0.0570 -2.4054  0.9320
  683MOL0     H92159   2.846   1.539   2.065  2.1049  3.5952 -1.6806
  683MOL0     H92160   2.821   1.689   2.156  1.6727 -1.0109 -1.2947
  683MOL0     H92161   2.703   1.546   2.331  1.6766  0.4995 -0.2681
  683MOL0     H92162   2.727   1.404   2.237 -0.6133 -0.3520 -1.6206
  683MOL0     H92163   2.549   1.518   2.070  0.6390 -0.2330 -0.9353
  683MOL0     H92164   2.589   1.669   2.149  1.4469 -0.2192  0.2658
  683MOL0     H92165   2.305   1.579   2.432 -1.2844 -1.2601 -0.1121
  683MOL0     H92166   1.978   1.563   2.447 -0.1847  1.5648  0.0200
  683MOL0     H92167   2.110   1.619   2.546 -1.2460 -0.7471  0.7572
  683MOL0     H92168   2.022   1.743   2.477 -1.3365  0.0865  1.2131
  683MOL0     H92169   1.690   1.537   2.394 -0.2476 -1.6533 -1.7176
  683MOL0     H92170   1.444   1.509   2.367 -2.6915  1.3744 -1.9211
  683MOL0     H92171   1.282   1.598   2.015 -0.3536  0.9399  0.0995
  683MOL0     H92172   1.294   1.472   2.148 -0.3431 -1.0908 -1.7770
  683MOL0     H92173   1.051   1.637   2.083  1.9909  0.4992  0.6921
  683MOL0     H92174   1.070   1.464   2.071 -3.1765  1.5546 -0.9754
  683MOL0     H92175   0.937   1.538   2.272 -0.2088  3.0048  2.3246
  683MOL0     H92176   1.069   1.617   2.337 -1.2193  0.7667 -1.2517
  683MOL0     H92177   1.103   1.318   2.245 -3.4192 -0.3575 -0.9463
  683MOL0     H92178   1.190   1.402   2.367  1.4089  0.3018 -3.0572
  683MOL0     H92179   0.892   1.357   2.368  0.1976  1.5252  1.0804
  683MOL0     H92180   0.975   1.447   2.488 -0.6920  1.0387 -0.5833
  683MOL0     H92181   1.044   1.157   2.413  2.7478  0.7731 -0.1082
  683MOL0     H92182   1.114   1.247   2.547 -0.0171 -0.0387 -1.6809
  683MOL0     H92183   0.811   1.186   2.537 -0.9775  3.8141  1.7757
  683MOL0     H92184   0.904   1.251   2.678  1.2334  3.0983 -1.6934
  683MOL0     H92185   0.969   0.979   2.565 -2.3324 -0.6033 -0.8077
  683MOL0     H92186   0.823   0.991   2.651  1.0487 -2.1433 -0.3354
  683MOL0     H92187   1.436   1.824   2.090  0.9942 -0.5611 -0.8617
  683MOL0     H92188   1.691   1.839   2.091  0.3493 -2.3908 -2.4545
  683MOL0     H92189   2.116   1.671   1.988  0.2313  0.9104  0.1660
  683MOL0     H92190   2.353   1.613   2.014  1.6720  1.1102  1.2749
  683MOL0     H92191   4.475   1.387   2.113 -3.9066  1.5791 -0.1056
  683MOL0     H92192   4.691   1.405   2.235  0.9564 -1.6592  2.6936
  683MOL0     H92193   4.983   1.449   2.436  0.6496 -1.7440 -0.6314
  683MOL0     H92194   5.198   1.529   2.538  0.7896  0.7241  0.4598
  683MOL0     H92195   5.415   1.477   2.585  0.4754 -0.3074  0.4633
  683MOL0     H92196   5.351   1.615   2.671 -0.6416 -0.2546 -0.7365
  683MOL0     H92197   5.591   1.438   2.744  0.1822  0.6359  0.3298
  683MOL0     H92198   5.529   1.564   2.848 -0.2182  1.0729 -0.7334
  683MOL0     H92199   5.635   1.611   2.560  3.3599  1.0150 -0.5134
  683MOL0     H92200   5.729   1.633   2.701  1.1316  3.5035 -0.2278
  683MOL0     H92201   5.580   1.820   2.775  2.4207 -0.6791 -0.0296
  683MOL0     H92202   5.488   1.803   2.622  0.1562 -0.3195  0.7124
  683MOL0     H92203   5.871   1.933   2.486 -1.6237  3.3848 -0.4072
  683MOL0     H92204   5.139   1.283   2.868 -0.6307 -0.4934 -0.2777
  683MOL0     H92205   4.902   1.260   2.809 -3.7066  2.1662 -0.4931
  684MOL0     O92206   4.858   3.353   6.423 -0.3207 -0.2200  0.3979
  684MOL0     C92207   4.819   3.396   6.314  0.0709  0.2793 -0.5907
  684MOL0     O92208   4.715   3.485   6.297 -0.2469  0.4765 -0.4522
  684MOL0     C92209   4.626   3.507   6.397  0.2646  0.0431  0.2361
  684MOL0     C92210   4.584   3.644   6.411  0.2746  0.3601  0.2125
  684MOL0     C92211   4.483   3.690   6.494  0.1548  0.0332 -0.1500
  684MOL0     C92212   4.430   3.587   6.583  0.8305 -0.4189  0.5137
  684MOL0     O92213   4.342   3.612   6.681 -0.4391  0.2131  0.3175
  684MOL0     C92214   4.261   3.733   6.676 -0.3000  0.4612 -0.1509
  684MOL0     C92215   4.170   3.703   6.802  0.8346 -0.2943  0.2781
  684MOL0     C92216   4.217   3.720   6.945 -0.5587 -0.2429  0.2063
  684MOL0     C92217   4.133   3.638   7.043  0.3031  0.1526 -0.7074
  684MOL0     C92218   4.159   3.667   7.196  0.5827  0.5915  0.6633
  684MOL0     C92219   4.278   3.585   7.242 -0.1677 -0.3555 -0.5639
  684MOL0     C92220   4.326   3.642   7.378  0.5979 -0.2513  0.6211
  684MOL0     C92221   4.471   3.585   7.413 -0.1375  0.0077  0.5354
  684MOL0     N92222   4.455   3.446   7.448  0.1981  0.1803  0.2832
  684MOL0     C92223   4.422   3.405   7.577 -0.3152 -0.4859 -0.1504
  684MOL0     C92224   4.382   3.276   7.578 -0.3209  0.4340  0.1624
  684MOL0     C92225   4.368   3.186   7.701 -0.5408  0.2623 -0.6625
  684MOL0     C92226   4.229   3.114   7.704  0.5056  0.6769  0.3172
  684MOL0     C92227   4.206   2.991   7.795 -0.0039 -0.4222 -0.5911
  684MOL0     C92228   4.068   2.944   7.782  0.7784 -0.2948  0.6180
  684MOL0     O92229   3.988   3.012   7.873 -0.8373 -0.2388  0.0319
  684MOL0     C92230   3.855   3.014   7.864 -0.0341  0.3726 -0.3306
  684MOL0     C92231   3.778   2.959   7.755  0.3997  0.7209  0.4811
  684MOL0     C92232   3.636   2.963   7.755 -1.1508 -0.1918 -0.1102
  684MOL0     C92233   3.563   2.910   7.638  0.1314 -1.1319  0.6660
  684MOL0     C92234   3.571   3.020   7.868  1.1727  0.5479 -0.3089
  684MOL0     C92235   3.425   3.007   7.881  0.4204 -0.6337 -0.0773
  684MOL0     O92236   3.363   3.115   7.935  0.6791 -0.0775  0.0646
  684MOL0     C92237   3.236   3.099   7.974 -0.2051 -0.0160  0.0527
  684MOL0     C92238   3.141   3.076   7.880  0.0186 -0.6820 -0.1897
  684MOL0     C92239   3.007   3.061   7.916  0.4230  0.3588  0.0713
  684MOL0     C92240   2.963   3.090   8.042  0.1140 -0.1930  0.0922
  684MOL0     O92241   2.832   3.069   8.063 -0.4884  0.4892 -0.2957
  684MOL0     C92242   2.753   3.147   8.153  0.3966 -0.3504  0.0834
  684MOL0     C92243   2.600   3.120   8.132  0.1069  0.8581 -0.1051
  684MOL0     C92244   2.521   3.206   8.238 -0.4995  0.0398  0.0954
  684MOL0     C92245   2.374   3.192   8.205 -0.7992 -0.3865  0.4848
  684MOL0     C92246   2.286   3.273   8.302  0.3727 -0.2192  0.2893
  684MOL0     C92247   2.143   3.270   8.252  0.1198 -0.3243  0.4600
  684MOL0     C92248   2.044   3.356   8.335  0.7446  0.5580  0.0737
  684MOL0     C92249   1.912   3.359   8.262  0.2779  0.3812  0.6783
  684MOL0    Cl92250   1.813   3.477   8.349  0.4878  0.2239 -0.1188
  684MOL0     C92251   3.062   3.111   8.138  0.3310  0.3099  0.0203
  684MOL0     C92252   3.195   3.128   8.107 -1.5497  0.2310  0.1286
  684MOL0     O92253   3.378   2.892   7.856  0.0304 -0.2204  1.1407
  684MOL0     C92254   3.647   3.078   7.964 -0.0060 -0.2403  0.0026
  684MOL0     C92255   3.787   3.072   7.972  0.2715 -0.4185  0.0542
  684MOL0     N92256   4.390   3.232   7.450 -0.4137 -0.3525 -0.1960
  684MOL0     N92257   4.428   3.328   7.371 -0.3491 -0.6243  0.2557
  684MOL0     C92258   4.467   3.458   6.570  0.1804 -0.0812 -0.4443
  684MOL0     C92259   4.572   3.418   6.485  0.3192 -0.4220  0.5487
  684MOL0     C92260   4.868   3.342   6.191 -0.0739  0.0007  0.3249
  684MOL0     C92261   4.800   3.345   6.064 -0.3529 -0.1094 -0.2433
  684MOL0     C92262   4.859   3.296   5.949  0.2496 -0.8433  0.2842
  684MOL0     C92263   4.984   3.234   5.949 -0.3732  0.2754 -0.3466
  684MOL0     O92264   5.061   3.200   5.847 -0.3864  0.1920  0.4407
  684MOL0     C92265   4.985   3.186   5.723 -0.7182  0.4303  0.8259
  684MOL0     C92266   5.078   3.140   5.601 -0.7325 -0.2475  0.3412
  684MOL0     C92267   5.156   3.268   5.573 -0.2837 -0.3614  0.4611
  684MOL0     C92268   5.260   3.249   5.461  0.0310 -0.1331  0.0696
  684MOL0     C92269   5.371   3.161   5.510  0.3887 -0.6513  0.9740
  684MOL0     C92270   5.457   3.083   5.552  0.0113 -0.5837 -0.1085
  684MOL0     C92271   5.042   3.229   6.070 -0.2915 -0.2366 -0.7572
  684MOL0     C92272   4.987   3.278   6.187  0.1787  0.3513 -0.2618
  684MOL0     H92273   4.627   3.718   6.345 -1.0647  1.0386  0.0842
  684MOL0     H92274   4.448   3.791   6.512 -0.4116 -0.6003  2.9159
  684MOL0     H92275   4.316   3.826   6.694  3.9850 -1.5646 -1.6853
  684MOL0     H92276   4.201   3.735   6.584  1.2893  0.6559 -1.2147
  684MOL0     H92277   4.081   3.766   6.795 -0.6587 -2.3931 -0.9109
  684MOL0     H92278   4.141   3.599   6.785  0.0577  0.4834 -4.3979
  684MOL0     H92279   4.323   3.696   6.938  0.1569  2.9230 -2.3631
  684MOL0     H92280   4.224   3.824   6.980 -0.5612 -0.0931 -0.2400
  684MOL0     H92281   4.028   3.656   7.018 -0.1856 -0.5536  0.7256
  684MOL0     H92282   4.147   3.530   7.038 -0.7363 -0.3990  3.7991
  684MOL0     H92283   4.181   3.774   7.189 -0.5646  0.8945  1.3233
  684MOL0     H92284   4.068   3.648   7.254 -0.5437 -0.5553 -1.3540
  684MOL0     H92285   4.243   3.482   7.256  0.1027 -0.5760 -1.4276
  684MOL0     H92286   4.356   3.575   7.166 -0.8560 -2.9387 -1.0248
  684MOL0     H92287   4.333   3.750   7.361 -1.0550 -0.4046 -1.4360
  684MOL0     H92288   4.258   3.621   7.462 -1.4740  2.1348 -0.3439
  684MOL0     H92289   4.518   3.640   7.495 -0.4349 -1.1415  1.4943
  684MOL0     H92290   4.539   3.610   7.331 -2.4837  1.3800 -1.1358
  684MOL0     H92291   4.440   3.465   7.665  0.7321  0.1331 -0.7635
  684MOL0     H92292   4.449   3.113   7.712  0.8512  1.8583  0.2327
  684MOL0     H92293   4.375   3.251   7.789 -1.9814 -2.0647  1.3052
  684MOL0     H92294   4.222   3.063   7.607  0.8966  0.0054  0.6320
  684MOL0     H92295   4.151   3.190   7.713 -0.4109 -0.1994 -0.0651
  684MOL0     H92296   4.229   3.024   7.897  0.0571  0.4026 -0.8683
  684MOL0     H92297   4.276   2.913   7.765  0.9876  0.2048  0.0216
  684MOL0     H92298   4.053   2.838   7.803 -0.2218 -0.0278  1.2993
  684MOL0     H92299   4.033   2.956   7.679  1.0358  0.1764  0.5820
  684MOL0     H92300   3.819   2.920   7.663 -1.7903  0.0049 -0.2593
  684MOL0     H92301   3.558   2.801   7.645  0.8083 -1.2021  0.1767
  684MOL0     H92302   3.461   2.948   7.631  1.5825  3.0399 -1.2146
  684MOL0     H92303   3.617   2.917   7.543 -0.5885 -2.0440  0.1695
  684MOL0     H92304   3.163   3.070   7.774  1.4009  1.1798 -0.0584
  684MOL0     H92305   2.944   3.024   7.836  1.5695  0.1224 -0.7310
  684MOL0     H92306   2.790   3.139   8.255  3.2556  0.7790 -0.7712
  684MOL0     H92307   2.778   3.249   8.124  1.7861 -0.4553  0.8222
  684MOL0     H92308   2.564   3.141   8.030 -1.3415  1.1026  0.4407
  684MOL0     H92309   2.589   3.012   8.128  2.5591  0.5656 -2.5463
  684MOL0     H92310   2.548   3.312   8.228 -0.0707 -0.0435  0.3451
  684MOL0     H92311   2.543   3.166   8.337  0.4692 -0.0740 -0.1600
  684MOL0     H92312   2.348   3.235   8.108  1.9658  4.2388  1.4561
  684MOL0     H92313   2.343   3.087   8.198  1.6904 -1.3106  1.8245
  684MOL0     H92314   2.328   3.373   8.298  4.2646 -1.7013 -1.9700
  684MOL0     H92315   2.276   3.223   8.399 -1.7708 -1.2524 -0.3890
  684MOL0     H92316   2.128   3.294   8.147 -3.3933 -1.1418  0.6380
  684MOL0     H92317   2.108   3.166   8.262 -0.7168 -0.1055 -0.1090
  684MOL0     H92318   2.083   3.457   8.348  2.1882 -0.2553  3.0833
  684MOL0     H92319   2.027   3.324   8.438  0.8376  1.9767  0.5545
  684MOL0     H92320   1.866   3.260   8.250  1.6925 -0.5907  2.5891
  684MOL0     H92321   1.926   3.404   8.164  2.1483 -0.3458  0.5622
  684MOL0     H92322   3.032   3.119   8.242  0.3120  1.1685 -0.0439
  684MOL0     H92323   3.258   3.162   8.188  0.3170  0.5581 -1.4089
  684MOL0     H92324   3.600   3.149   8.032 -0.0464  2.0447 -2.2550
  684MOL0     H92325   3.845   3.125   8.047  1.1839  0.1081 -1.0017
  684MOL0     H92326   4.426   3.390   6.644  2.2091  1.5746  2.4552
  684MOL0     H92327   4.606   3.315   6.478  2.2276 -0.0170  2.5682
  684MOL0     H92328   4.701   3.389   6.052 -0.4986 -0.7988 -1.7541
  684MOL0     H92329   4.807   3.314   5.855 -1.1365 -1.1844  0.9697
  684MOL0     H92330   4.914   3.109   5.755  0.4202  0.1104  2.7214
  684MOL0     H92331   4.935   3.274   5.682 -0.6228 -0.7028 -1.9455
  684MOL0     H92332   5.020   3.113   5.513  1.5038  0.4793 -1.4560
  684MOL0     H92333   5.143   3.056   5.628 -0.0804  0.0891 -0.1297
  684MOL0     H92334   5.202   3.311   5.662 -0.0156  1.8343 -0.6743
  684MOL0     H92335   5.083   3.340   5.535  0.1764 -1.0353 -1.8354
  684MOL0     H92336   5.295   3.350   5.437 -2.9997  1.3485  1.3128
  684MOL0     H92337   5.223   3.211   5.366  2.7888  0.4089 -1.3139
  684MOL0     H92338   5.532   3.018   5.593 -1.1967 -1.6575  0.4748
  684MOL0     H92339   5.145   3.195   6.075  0.6647  2.5059 -0.6301
  684MOL0     H92340   5.054   3.262   6.271  1.0509 -0.3163 -1.0612
  685MOL0     O92341   9.045   0.074   1.876 -0.2334  0.2565  0.2985
  685MOL0     C92342   9.075  -0.033   1.830 -0.5750 -0.2321 -0.6108
  685MOL0     O92343   8.995  -0.112   1.760 -0.5647  0.6635 -0.1825
  685MOL0     C92344   8.870  -0.071   1.717  0.4686  0.6992  0.3963
  685MOL0     C92345   8.779  -0.177   1.692  0.3571 -0.0154  0.3856
  685MOL0     C92346   8.646  -0.148   1.648  0.3201  0.3980 -0.2665
  685MOL0     C92347   8.608  -0.015   1.628  0.6659  0.1610 -0.1988
  685MOL0     O92348   8.484   0.034   1.581  0.5694  0.2025 -0.1556
  685MOL0     C92349   8.414  -0.062   1.509  0.4357 -0.4277  0.3776
  685MOL0     C92350   8.286   0.001   1.452  0.3124  0.2340 -0.5248
  685MOL0     C92351   8.177   0.040   1.560 -0.8406  0.2731 -0.4469
  685MOL0     C92352   8.051   0.087   1.502 -0.1641 -0.7357 -0.0141
  685MOL0     C92353   7.948   0.105   1.609  0.4658 -0.4799 -0.1260
  685MOL0     C92354   7.830   0.198   1.575  0.2797  0.4765  0.1813
  685MOL0     C92355   7.734   0.226   1.687  0.3374  0.6877  0.2794
  685MOL0     C92356   7.621   0.113   1.700 -0.2686 -0.6024  0.0397
  685MOL0     N92357   7.513   0.130   1.787  0.7260 -0.3969 -0.2572
  685MOL0     C92358   7.515   0.126   1.928 -0.9259  0.5859 -1.1806
  685MOL0     C92359   7.387   0.160   1.960  0.1207  0.1007 -0.8387
  685MOL0     C92360   7.322   0.161   2.092 -0.0272  0.5230 -0.6604
  685MOL0     C92361   7.324   0.305   2.146 -0.3358  0.2577  0.4234
  685MOL0     C92362   7.199   0.400   2.114 -1.0874  0.1144  0.9752
  685MOL0     C92363   7.085   0.369   2.208 -0.9795 -0.0801 -0.4536
  685MOL0     O92364   7.000   0.486   2.228  0.9287 -0.4370  0.1534
  685MOL0     C92365   6.886   0.434   2.292  0.1624  0.1952 -0.6116
  685MOL0     C92366   6.862   0.434   2.430 -0.8783 -0.5694  0.8942
  685MOL0     C92367   6.742   0.392   2.491 -1.0807 -0.0429 -0.1238
  685MOL0     C92368   6.735   0.386   2.638 -0.3122  0.6383  0.6833
  685MOL0     C92369   6.632   0.345   2.415 -0.2776  0.1635 -0.3355
  685MOL0     C92370   6.496   0.296   2.460 -0.5212 -0.7440 -0.4420
  685MOL0     O92371   6.447   0.351   2.575 -0.3077 -0.1438 -0.1076
  685MOL0     C92372   6.326   0.297   2.617  0.4406 -0.6524 -0.1307
  685MOL0     C92373   6.320   0.163   2.661 -0.7503  0.3234  0.6450
  685MOL0     C92374   6.195   0.104   2.697  0.3517 -0.0789  0.5718
  685MOL0     C92375   6.076   0.178   2.687 -1.0499  0.6634  0.1756
  685MOL0     O92376   5.957   0.110   2.699 -0.2935 -0.8504 -0.0456
  685MOL0     C92377   5.836   0.192   2.674  0.3843 -0.1179  0.4999
  685MOL0     C92378   5.703   0.100   2.689 -0.5199 -0.6145 -0.0027
  685MOL0     C92379   5.578   0.193   2.663  0.6297  0.3482 -0.1167
  685MOL0     C92380   5.452   0.121   2.716 -0.8124 -0.7547  0.2930
  685MOL0     C92381   5.338   0.213   2.677  0.9932  0.5234 -0.9413
  685MOL0     C92382   5.212   0.127   2.669  0.3965  0.3832 -0.4326
  685MOL0     C92383   5.093   0.214   2.690 -1.0440 -0.6229  0.5982
  685MOL0     C92384   4.963   0.134   2.667  0.0018 -0.1935  0.2190
  685MOL0    Cl92385   4.815   0.233   2.711  0.0942 -0.0054  0.1693
  685MOL0     C92386   6.089   0.313   2.642 -0.2218  0.3196 -0.9235
  685MOL0     C92387   6.210   0.370   2.609  0.4306  0.2762  0.4027
  685MOL0     O92388   6.425   0.231   2.383 -0.3237 -1.0723  0.2691
  685MOL0     C92389   6.663   0.333   2.275 -0.3430 -0.2580  0.6188
  685MOL0     C92390   6.784   0.369   2.223 -0.3086  0.1589  0.4696
  685MOL0     N92391   7.317   0.174   1.845 -0.1633  0.4502 -0.0127
  685MOL0     N92392   7.384   0.145   1.744  0.0222  0.5625  0.1932
  685MOL0     C92393   8.703   0.082   1.643  0.3550 -0.5463 -0.2087
  685MOL0     C92394   8.835   0.058   1.680 -0.4220 -0.0593  0.5576
  685MOL0     C92395   9.222  -0.066   1.850 -0.3660 -0.2672 -0.6077
  685MOL0     C92396   9.262  -0.204   1.842 -0.6453 -1.2084 -0.3922
  685MOL0     C92397   9.397  -0.238   1.869  0.5188  0.1274 -0.0152
  685MOL0     C92398   9.496  -0.140   1.891 -0.0367 -0.3365  0.2829
  685MOL0     O92399   9.627  -0.167   1.916  0.0768 -0.3949 -0.3254
  685MOL0     C92400   9.660  -0.297   1.956 -0.8131  1.4021 -0.1517
  685MOL0     C92401   9.816  -0.313   1.957 -0.7776 -0.3325  0.1114
  685MOL0     C92402   9.889  -0.241   2.077  0.3381  0.1184 -0.3973
  685MOL0     C92403  10.050  -0.251   2.091 -0.1241 -0.4444 -0.6875
  685MOL0     C92404  10.128  -0.256   1.964  1.0939 -0.9326  0.6265
  685MOL0     C92405  10.185  -0.273   1.856  0.1272 -0.1504 -1.1705
  685MOL0     C92406   9.450  -0.003   1.896 -0.3602 -0.0693  0.6068
  685MOL0     C92407   9.316   0.034   1.874 -0.0304  0.4452  0.0215
  685MOL0     H92408   8.805  -0.282   1.706  0.8131  0.0091 -0.1897
  685MOL0     H92409   8.577  -0.230   1.634 -1.4439  2.0836 -2.1639
  685MOL0     H92410   8.462  -0.104   1.420 -2.3188 -0.4974 -1.2236
  685MOL0     H92411   8.380  -0.153   1.561 -1.9515 -0.6921 -1.4546
  685MOL0     H92412   8.314   0.093   1.400  2.3281 -0.5572 -0.9240
  685MOL0     H92413   8.235  -0.071   1.388 -1.2311  0.2711  0.6090
  685MOL0     H92414   8.151  -0.043   1.627 -3.4078  0.3599 -1.2552
  685MOL0     H92415   8.222   0.119   1.621 -0.6833 -0.4752  0.4307
  685MOL0     H92416   8.070   0.182   1.451 -3.5960  1.4800  2.4517
  685MOL0     H92417   8.010   0.022   1.424 -1.4038  1.6248 -1.4652
  685MOL0     H92418   7.910   0.008   1.642  1.4048 -0.7280  0.2866
  685MOL0     H92419   7.999   0.153   1.694 -0.7953  1.1660 -0.2464
  685MOL0     H92420   7.872   0.296   1.548  1.9683 -0.0002  0.9698
  685MOL0     H92421   7.779   0.161   1.486 -1.3655  1.8006  0.5151
  685MOL0     H92422   7.777   0.232   1.787 -1.4126 -0.6272  1.1635
  685MOL0     H92423   7.681   0.319   1.665  0.0608  0.5537  0.3703
  685MOL0     H92424   7.671   0.023   1.737  1.2265 -1.1796 -3.0295
  685MOL0     H92425   7.582   0.091   1.600 -2.0753  0.2356  0.5134
  685MOL0     H92426   7.591   0.093   2.000 -2.0565  0.7127  0.1115
  685MOL0     H92427   7.216   0.137   2.079  0.4925 -0.4777 -3.6898
  685MOL0     H92428   7.362   0.091   2.166 -2.0240 -0.7483 -0.7207
  685MOL0     H92429   7.403   0.359   2.094  0.9610 -1.4965  0.4937
  685MOL0     H92430   7.336   0.308   2.255  0.2107 -0.2574  0.3803
  685MOL0     H92431   7.166   0.388   2.010  1.4328 -0.8475  0.2289
  685MOL0     H92432   7.236   0.503   2.119 -0.3767 -0.1245  0.7449
  685MOL0     H92433   7.124   0.337   2.305 -2.1897 -1.1991 -0.3176
  685MOL0     H92434   7.038   0.279   2.168 -1.0129 -1.0693  1.6733
  685MOL0     H92435   6.950   0.475   2.479  0.4468 -1.0086 -1.0162
  685MOL0     H92436   6.657   0.455   2.672 -0.1937  0.7586  0.7123
  685MOL0     H92437   6.713   0.284   2.671 -1.1950  0.4524 -0.3957
  685MOL0     H92438   6.830   0.418   2.682  0.3511  0.9831 -0.9254
  685MOL0     H92439   6.408   0.100   2.654 -1.1190  0.0032 -3.1652
  685MOL0     H92440   6.188  -0.001   2.723  1.5689 -0.1146  0.7964
  685MOL0     H92441   5.825   0.273   2.746 -0.2242 -1.2784  1.7632
  685MOL0     H92442   5.834   0.232   2.572 -0.1841  0.9076  0.9025
  685MOL0     H92443   5.706   0.038   2.599 -0.4835  3.7154 -3.3246
  685MOL0     H92444   5.702   0.053   2.788 -1.4958 -0.6529 -0.0208
  685MOL0     H92445   5.575   0.218   2.556 -0.8422  1.2879  0.1045
  685MOL0     H92446   5.600   0.286   2.716  0.0109  0.4870 -0.1010
  685MOL0     H92447   5.444   0.035   2.650 -1.4268 -0.0480 -0.5900
  685MOL0     H92448   5.466   0.096   2.821  0.0055  1.8460  0.8894
  685MOL0     H92449   5.355   0.275   2.589  0.6898  2.0659  0.0478
  685MOL0     H92450   5.327   0.285   2.758 -1.3411 -0.7959  0.0300
  685MOL0     H92451   5.210   0.068   2.576 -0.9231 -3.8337  2.0105
  685MOL0     H92452   5.209   0.048   2.745 -2.4043  0.1782 -0.6558
  685MOL0     H92453   5.106   0.297   2.620 -1.6124 -2.8042 -2.2684
  685MOL0     H92454   5.094   0.269   2.784 -0.4127 -0.5938  0.5762
  685MOL0     H92455   4.953   0.051   2.738 -2.0446 -1.1456 -1.0736
  685MOL0     H92456   4.958   0.110   2.560  0.5487 -1.5991  0.4924
  685MOL0     H92457   5.999   0.373   2.645  0.8796  1.9950  1.1124
  685MOL0     H92458   6.214   0.477   2.588  0.2972  0.2078  0.0192
  685MOL0     H92459   6.583   0.306   2.205 -1.0929  0.7433  1.0709
  685MOL0     H92460   6.801   0.364   2.116  1.6896 -4.1404  0.7709
  685MOL0     H92461   8.667   0.185   1.644  0.7591 -0.4019 -0.3822
  685MOL0     H92462   8.891   0.151   1.687 -1.1466  0.7586 -2.6148
  685MOL0     H92463   9.203  -0.295   1.837  0.9574 -2.2422 -1.4017
  685MOL0     H92464   9.429  -0.342   1.874  4.5775  1.2349  1.2600
  685MOL0     H92465   9.624  -0.319   2.057  0.8024 -4.1685 -0.4766
  685MOL0     H92466   9.620  -0.378   1.895  0.3805 -1.4689  2.5779
  685MOL0     H92467   9.856  -0.268   1.865  1.3718 -0.2163  1.0587
  685MOL0     H92468   9.848  -0.418   1.958  1.9310  0.2449 -3.6060
  685MOL0     H92469   9.849  -0.281   2.171  0.5585  2.2042  0.6470
  685MOL0     H92470   9.860  -0.136   2.071 -2.5390 -0.5675 -0.0480
  685MOL0     H92471  10.077  -0.343   2.144 -3.4387 -1.3691 -0.3664
  685MOL0     H92472  10.071  -0.164   2.155  0.9182 -3.9321  4.3192
  685MOL0     H92473  10.248  -0.280   1.769  3.2028  1.1280  0.7724
  685MOL0     H92474   9.521   0.077   1.917 -1.7106  1.1337  0.7042
  685MOL0     H92475   9.282   0.136   1.877 -0.1196  0.3820  1.5664
  686MOL0     O92476   9.214   7.693   7.437  0.6362 -0.2735  0.1759
  686MOL0     C92477   9.297   7.763   7.379 -1.3052 -0.3216 -0.2446
  686MOL0     O92478   9.269   7.865   7.286 -0.5394  0.7797  0.3106
  686MOL0     C92479   9.139   7.887   7.252 -0.4292  0.8158 -0.6744
  686MOL0     C92480   9.079   8.010   7.262 -0.1386  0.3832  0.0662
  686MOL0     C92481   8.945   8.034   7.259 -0.1014  0.1747  0.2147
  686MOL0     C92482   8.853   7.930   7.244 -0.4951  0.5420 -0.1234
  686MOL0     O92483   8.714   7.936   7.241 -0.3198  0.6467 -0.5533
  686MOL0     C92484   8.651   8.060   7.276 -0.4997 -0.4173  0.8702
  686MOL0     C92485   8.501   8.051   7.262 -0.6015  0.3785 -0.1653
  686MOL0     C92486   8.430   8.047   7.396  0.2183  0.4793  0.4958
  686MOL0     C92487   8.282   8.014   7.373 -0.4478  0.0804 -0.7447
  686MOL0     C92488   8.213   8.002   7.506  0.2846  0.1186  0.2211
  686MOL0     C92489   8.057   7.990   7.489 -0.3449  0.0196 -0.2747
  686MOL0     C92490   8.003   7.969   7.629 -0.3877  0.3071  0.0907
  686MOL0     C92491   7.859   7.923   7.636  0.3348  0.8699 -0.2185
  686MOL0     N92492   7.763   8.026   7.589 -0.6598 -0.3890  0.0987
  686MOL0     C92493   7.754   8.163   7.628 -0.7184 -0.4809  0.5617
  686MOL0     C92494   7.674   8.222   7.542  0.8155 -0.9739  1.2668
  686MOL0     C92495   7.606   8.352   7.553  0.1755  0.4937  0.5794
  686MOL0     C92496   7.684   8.451   7.463 -0.6203  0.0390 -0.2583
  686MOL0     C92497   7.660   8.439   7.312 -0.5880 -0.1302 -1.0420
  686MOL0     C92498   7.524   8.470   7.275  0.8859 -0.0396  0.4938
  686MOL0     O92499   7.508   8.613   7.273 -0.7894 -0.1708  0.2311
  686MOL0     C92500   7.400   8.683   7.235  0.3679 -0.3037  1.1829
  686MOL0     C92501   7.279   8.618   7.215 -0.8347  0.2414 -0.0496
  686MOL0     C92502   7.163   8.689   7.189 -0.0182 -0.3262  0.4419
  686MOL0     C92503   7.040   8.607   7.166  1.0578 -0.4194 -0.4719
  686MOL0     C92504   7.159   8.833   7.187  0.1340  0.0961  0.0045
  686MOL0     C92505   7.042   8.924   7.163 -0.4340 -0.3461 -0.3821
  686MOL0     O92506   6.917   8.867   7.152 -0.3282 -0.8061  0.4197
  686MOL0     C92507   6.811   8.945   7.117  0.2582  0.6751 -0.0942
  686MOL0     C92508   6.818   9.051   7.026 -0.9268 -0.3685 -0.3810
  686MOL0     C92509   6.708   9.119   6.979 -0.3590 -0.4876 -0.3379
  686MOL0     C92510   6.584   9.085   7.025 -0.1069  0.6402 -0.1142
  686MOL0     O92511   6.476   9.157   6.983 -0.2699 -0.2455 -0.6166
  686MOL0     C92512   6.483   9.273   6.899  0.2255 -0.6479  0.1771
  686MOL0     C92513   6.344   9.339   6.893 -0.4885  0.2443  0.2097
  686MOL0     C92514   6.242   9.253   6.822 -0.5301 -0.0586  0.2689
  686MOL0     C92515   6.114   9.326   6.769  0.1867  0.0711  0.6959
  686MOL0     C92516   5.990   9.238   6.732  0.1213 -0.6041 -0.9208
  686MOL0     C92517   5.883   9.328   6.667 -0.1474 -0.2466 -0.5144
  686MOL0     C92518   5.755   9.253   6.627 -0.2001 -0.5516 -0.2537
  686MOL0     C92519   5.678   9.206   6.746 -0.9465 -0.0938  0.4542
  686MOL0    Cl92520   5.512   9.151   6.693 -0.0776  0.4957 -0.3144
  686MOL0     C92521   6.568   8.969   7.104  0.0493  0.4243 -0.4730
  686MOL0     C92522   6.683   8.902   7.152 -0.4103 -0.5451 -0.6078
  686MOL0     O92523   7.071   9.046   7.149  0.5382 -0.2314  0.5089
  686MOL0     C92524   7.287   8.890   7.202  0.6828  0.1307 -0.4488
  686MOL0     C92525   7.400   8.817   7.226 -0.3679 -0.3719  0.1876
  686MOL0     N92526   7.654   8.133   7.438 -0.2996  0.0994  0.5459
  686MOL0     N92527   7.711   8.023   7.463 -0.1685  0.1982 -0.2597
  686MOL0     C92528   8.907   7.807   7.215 -0.2542 -1.2946 -1.0476
  686MOL0     C92529   9.046   7.776   7.220 -0.5755 -0.5052  0.4897
  686MOL0     C92530   9.446   7.737   7.397  0.2426 -0.0308 -0.0374
  686MOL0     C92531   9.542   7.803   7.314 -0.6347 -0.8420 -0.4203
  686MOL0     C92532   9.677   7.777   7.338 -0.1289 -0.4660  0.2465
  686MOL0     C92533   9.722   7.686   7.433  0.3771  0.2386 -0.5550
  686MOL0     O92534   9.856   7.666   7.447 -0.7068  0.5645  0.1688
  686MOL0     C92535   9.910   7.605   7.571  1.1106  0.6789  0.5422
  686MOL0     C92536  10.050   7.667   7.597 -0.0755 -0.2585 -0.5924
  686MOL0     C92537  10.129   7.594   7.711 -0.1791 -0.0638  0.7524
  686MOL0     C92538  10.262   7.673   7.725 -0.8215  0.6159 -0.8852
  686MOL0     C92539  10.342   7.671   7.604 -0.1478  0.4202  0.1622
  686MOL0     C92540  10.414   7.662   7.505 -0.3411  0.2645 -0.1760
  686MOL0     C92541   9.626   7.624   7.518 -0.8544  0.5568  0.0219
  686MOL0     C92542   9.490   7.652   7.507  0.6239 -0.7427  0.5812
  686MOL0     H92543   9.142   8.097   7.276 -1.8500  1.8955 -1.1584
  686MOL0     H92544   8.906   8.134   7.267 -1.0999  0.0821 -2.4785
  686MOL0     H92545   8.667   8.078   7.383 -4.5629  1.5550  1.3534
  686MOL0     H92546   8.690   8.135   7.208 -0.9442 -0.6692  0.3328
  686MOL0     H92547   8.476   8.147   7.215 -1.3236  0.7706  0.9835
  686MOL0     H92548   8.474   7.968   7.195  1.6834 -2.2946  1.9778
  686MOL0     H92549   8.471   7.966   7.457 -1.1514 -1.3761 -0.9444
  686MOL0     H92550   8.443   8.141   7.451  2.3359 -0.6818  2.1250
  686MOL0     H92551   8.232   8.089   7.311  1.1895  0.6795 -1.3962
  686MOL0     H92552   8.277   7.923   7.312  0.7064  1.1325 -2.4961
  686MOL0     H92553   8.245   7.917   7.566  2.6589  0.4671 -0.4753
  686MOL0     H92554   8.237   8.087   7.571  1.9166 -1.7707  2.1983
  686MOL0     H92555   8.021   8.074   7.430  0.4451 -0.0426 -0.8611
  686MOL0     H92556   8.034   7.905   7.424  0.9698  0.0069 -0.7448
  686MOL0     H92557   8.062   7.884   7.666 -0.6345  0.3822  0.6633
  686MOL0     H92558   8.015   8.055   7.695 -2.9920 -0.1281  1.2549
  686MOL0     H92559   7.824   7.892   7.735  1.3880  2.2038  0.6046
  686MOL0     H92560   7.840   7.836   7.573  1.4825  1.5155 -1.4999
  686MOL0     H92561   7.796   8.209   7.717 -0.8849  1.8201 -0.4897
  686MOL0     H92562   7.497   8.350   7.540  0.1092 -2.3704  1.0052
  686MOL0     H92563   7.615   8.380   7.658  0.0100  2.2589  0.1597
  686MOL0     H92564   7.790   8.432   7.483 -0.1483  2.1647 -0.4629
  686MOL0     H92565   7.665   8.556   7.490 -0.1912 -0.1204  0.6838
  686MOL0     H92566   7.694   8.341   7.276  0.9438  0.2447 -0.6903
  686MOL0     H92567   7.731   8.503   7.259 -0.1295 -1.1083 -1.6406
  686MOL0     H92568   7.451   8.423   7.343  0.5388  0.5168  0.5112
  686MOL0     H92569   7.498   8.426   7.179 -2.9385  0.3794  1.1367
  686MOL0     H92570   7.268   8.511   7.227  1.0670 -0.1126 -1.0111
  686MOL0     H92571   6.972   8.613   7.251 -0.1256  0.0356 -1.4300
  686MOL0     H92572   6.978   8.639   7.082 -3.0958 -0.7403  2.1919
  686MOL0     H92573   7.048   8.499   7.150 -2.3690 -1.2253  2.1788
  686MOL0     H92574   6.910   9.084   6.979  0.3014  3.1665  3.7920
  686MOL0     H92575   6.724   9.197   6.906  1.1016  1.2533  1.7449
  686MOL0     H92576   6.555   9.346   6.937 -1.1187 -0.4242  2.4817
  686MOL0     H92577   6.507   9.248   6.795  0.7121  2.0864 -0.4646
  686MOL0     H92578   6.309   9.373   6.991  0.1034  3.8276 -0.6671
  686MOL0     H92579   6.347   9.431   6.833  1.3526  0.6968  0.9184
  686MOL0     H92580   6.214   9.175   6.893 -0.5128  0.0912  0.4407
  686MOL0     H92581   6.284   9.204   6.734 -0.9208  1.2665 -0.6850
  686MOL0     H92582   6.075   9.395   6.845  1.8829  0.3277  1.3672
  686MOL0     H92583   6.148   9.385   6.683  1.9540 -0.5518  0.9264
  686MOL0     H92584   5.950   9.190   6.822 -0.7141 -1.5430 -1.7668
  686MOL0     H92585   6.010   9.159   6.660 -1.9129 -1.9857 -0.0508
  686MOL0     H92586   5.861   9.406   6.740 -0.7686 -2.6826  2.0593
  686MOL0     H92587   5.923   9.388   6.584 -2.2295  0.6325 -0.9594
  686MOL0     H92588   5.789   9.165   6.572  2.3440 -0.1431  0.5600
  686MOL0     H92589   5.690   9.311   6.561  0.9848 -1.8708 -2.6689
  686MOL0     H92590   5.666   9.288   6.816 -2.7972  0.2916 -0.2748
  686MOL0     H92591   5.728   9.113   6.778  0.6177 -0.5507 -2.8880
  686MOL0     H92592   6.470   8.929   7.128  0.8854 -1.1666  0.4931
  686MOL0     H92593   6.665   8.815   7.214 -0.1623  0.7627  1.3984
  686MOL0     H92594   7.298   8.998   7.195 -5.5289  1.6075  4.0079
  686MOL0     H92595   7.493   8.873   7.231  0.3705 -1.6220  0.8133
  686MOL0     H92596   8.835   7.731   7.186 -1.0769 -0.4164 -1.3416
  686MOL0     H92597   9.081   7.673   7.211  1.7094  0.0646  1.9665
  686MOL0     H92598   9.513   7.882   7.246  0.9089 -2.5522 -3.2384
  686MOL0     H92599   9.747   7.826   7.271 -0.4008  0.4572  0.6242
  686MOL0     H92600   9.840   7.633   7.650 -1.0558  2.0694 -1.7511
  686MOL0     H92601   9.912   7.495   7.573  1.2191  0.6819  2.4495
  686MOL0     H92602  10.038   7.775   7.606 -0.9683 -0.3004 -1.0697
  686MOL0     H92603  10.104   7.651   7.503  1.0000 -1.1992  0.1599
  686MOL0     H92604  10.155   7.491   7.683  1.2992 -0.1473  2.2988
  686MOL0     H92605  10.065   7.599   7.800 -0.4426  0.2933  0.5467
  686MOL0     H92606  10.318   7.623   7.804 -0.3676  1.2607 -0.7857
  686MOL0     H92607  10.240   7.774   7.763 -0.9765  1.3751 -2.9002
  686MOL0     H92608  10.478   7.658   7.419  1.0951 -1.4402  0.8981
  686MOL0     H92609   9.659   7.568   7.605  0.0279  2.5936  1.0670
  686MOL0     H92610   9.417   7.612   7.577 -1.4848 -0.3376 -1.3033
  687MOL0     O92611   6.435   5.826   3.390  0.4673 -0.1397 -0.1853
  687MOL0     C92612   6.471   5.717   3.438  0.2830 -0.1443 -0.0991
  687MOL0     O92613   6.387   5.613   3.465  0.7262 -0.6211 -0.0307
  687MOL0     C92614   6.256   5.627   3.463  0.6543  0.3949  0.3485
  687MOL0     C92615   6.186   5.582   3.571  0.0720  0.7416  0.0218
  687MOL0     C92616   6.053   5.598   3.582  0.3755  0.0042  0.8983
  687MOL0     C92617   5.979   5.642   3.470  0.3807  0.3830  0.1248
  687MOL0     O92618   5.851   5.654   3.502 -0.0490  0.3751 -0.5324
  687MOL0     C92619   5.773   5.745   3.424 -0.3358 -0.1302 -0.5191
  687MOL0     C92620   5.714   5.854   3.502  0.1601  0.9460 -0.1471
  687MOL0     C92621   5.606   5.792   3.595 -0.6713 -0.2334 -0.2972
  687MOL0     C92622   5.540   5.900   3.681 -0.7677  1.1756 -0.6432
  687MOL0     C92623   5.428   5.847   3.777  0.2344 -0.2062 -0.1538
  687MOL0     C92624   5.495   5.751   3.882 -0.1883  0.6504 -0.4966
  687MOL0     C92625   5.385   5.702   3.981  0.2139 -1.1612  0.3786
  687MOL0     C92626   5.423   5.567   4.042  0.0408 -0.0882  0.2297
  687MOL0     N92627   5.336   5.536   4.158 -0.0120  0.2627 -0.1117
  687MOL0     C92628   5.382   5.552   4.287 -0.0123  0.0900  0.2837
  687MOL0     C92629   5.284   5.515   4.369 -0.1067  0.2372  0.9050
  687MOL0     C92630   5.290   5.496   4.520 -0.2258  0.1730  0.1956
  687MOL0     C92631   5.168   5.568   4.585  0.1249  0.4411 -0.2512
  687MOL0     C92632   5.154   5.716   4.557  0.2550 -0.2719  0.0938
  687MOL0     C92633   5.010   5.761   4.586  0.2357 -0.2842  0.0732
  687MOL0     O92634   4.913   5.689   4.509 -0.4982 -0.0697 -0.2931
  687MOL0     C92635   4.776   5.725   4.489 -0.7388 -0.2335 -0.3915
  687MOL0     C92636   4.714   5.823   4.560  0.8389 -0.6959  0.6413
  687MOL0     C92637   4.578   5.853   4.551 -0.3665  0.1962 -0.6622
  687MOL0     C92638   4.527   5.972   4.626  0.2955 -0.2521  0.0376
  687MOL0     C92639   4.494   5.771   4.469  0.6808  0.3362 -0.4377
  687MOL0     C92640   4.342   5.779   4.465 -0.2663 -0.5509 -0.4604
  687MOL0     O92641   4.276   5.723   4.362  0.5734 -0.0747 -0.6011
  687MOL0     C92642   4.147   5.765   4.338 -0.0555 -0.9245 -0.7324
  687MOL0     C92643   4.124   5.892   4.292 -0.1749  0.0172 -0.2621
  687MOL0     C92644   3.994   5.943   4.276  0.5084 -0.1523  0.0763
  687MOL0     C92645   3.885   5.865   4.309 -0.0969  0.3075  0.2354
  687MOL0     O92646   3.756   5.890   4.288  0.1102  0.4822  0.1813
  687MOL0     C92647   3.711   6.019   4.251  0.0704  0.1746 -0.0335
  687MOL0     C92648   3.563   6.023   4.303  0.4528  0.1175 -0.3657
  687MOL0     C92649   3.498   6.149   4.268 -0.6807 -0.1607  0.2114
  687MOL0     C92650   3.364   6.167   4.330  0.0066 -0.7416  0.1709
  687MOL0     C92651   3.301   6.302   4.312  0.6278 -0.8238  0.3523
  687MOL0     C92652   3.162   6.318   4.381 -0.0511  0.2612  0.3456
  687MOL0     C92653   3.091   6.449   4.358  0.2034  0.0999  0.3342
  687MOL0     C92654   2.954   6.448   4.424  0.3923  0.1383  0.0450
  687MOL0    Cl92655   2.858   6.572   4.362  0.4816 -0.0552  0.5303
  687MOL0     C92656   3.911   5.730   4.346 -0.5655  0.4013  0.5212
  687MOL0     C92657   4.042   5.680   4.364  0.5411  0.0098 -0.5886
  687MOL0     O92658   4.284   5.827   4.566 -0.0982 -0.4590 -0.2910
  687MOL0     C92659   4.558   5.671   4.394  0.0840  0.2669  0.7998
  687MOL0     C92660   4.695   5.650   4.399  0.0922  0.9979 -0.6694
  687MOL0     N92661   5.178   5.470   4.285 -0.3461  0.0163  0.4999
  687MOL0     N92662   5.210   5.488   4.158  0.2311  0.8140  0.6911
  687MOL0     C92663   6.048   5.669   3.347 -1.0351  0.2790  1.0266
  687MOL0     C92664   6.188   5.673   3.348  0.6155  0.6293 -0.0144
  687MOL0     C92665   6.617   5.700   3.467  1.1592 -0.3075  0.1147
  687MOL0     C92666   6.665   5.644   3.582 -0.9650  0.6072 -0.7081
  687MOL0     C92667   6.796   5.629   3.612  0.3447 -0.6026 -0.2398
  687MOL0     C92668   6.885   5.683   3.523 -0.4344 -0.1738  0.2426
  687MOL0     O92669   7.021   5.693   3.549  0.9950  0.4263  0.0559
  687MOL0     C92670   7.086   5.611   3.651  0.0581  0.3774  0.5723
  687MOL0     C92671   7.239   5.624   3.653 -0.4391 -0.7806 -0.2219
  687MOL0     C92672   7.292   5.733   3.745  0.2475 -0.5784 -0.5287
  687MOL0     C92673   7.444   5.732   3.745  0.1984 -0.4095  0.4036
  687MOL0     C92674   7.492   5.845   3.669  0.5271  0.5280  0.6952
  687MOL0     C92675   7.528   5.941   3.603  0.2217 -0.1144  0.5546
  687MOL0     C92676   6.846   5.758   3.406  0.1639  0.3494 -0.5054
  687MOL0     C92677   6.709   5.759   3.380 -0.8202  0.1754  0.0996
  687MOL0     H92678   6.234   5.528   3.652  0.3044  1.2184  0.2099
  687MOL0     H92679   6.007   5.569   3.676  0.3354  1.0104  1.2044
  687MOL0     H92680   5.829   5.786   3.340  0.8617 -0.7885 -0.0733
  687MOL0     H92681   5.687   5.691   3.385 -1.4764 -1.1018  2.9285
  687MOL0     H92682   5.789   5.916   3.552  1.0876  0.1280 -0.5058
  687MOL0     H92683   5.665   5.918   3.427  2.3603 -0.1691 -2.6599
  687MOL0     H92684   5.522   5.751   3.539 -1.3665 -0.1797  0.6680
  687MOL0     H92685   5.656   5.725   3.666 -1.2897  0.1977  0.5714
  687MOL0     H92686   5.619   5.943   3.743 -2.2467  1.8517  0.8427
  687MOL0     H92687   5.496   5.976   3.615  0.9944  3.5959  0.8274
  687MOL0     H92688   5.384   5.931   3.831  1.0163 -0.1950  0.4669
  687MOL0     H92689   5.349   5.788   3.728 -2.2080  1.3954  1.6129
  687MOL0     H92690   5.535   5.659   3.837 -4.2721 -2.1987  1.0656
  687MOL0     H92691   5.572   5.809   3.933 -2.3982  3.5598 -0.2096
  687MOL0     H92692   5.389   5.788   4.049  5.1534  1.6050 -2.8065
  687MOL0     H92693   5.289   5.685   3.932  1.0185 -5.4056 -0.1136
  687MOL0     H92694   5.526   5.569   4.078 -0.4258 -0.8252  1.6822
  687MOL0     H92695   5.422   5.497   3.958  1.7638 -0.1835  0.2579
  687MOL0     H92696   5.484   5.580   4.311 -0.2576 -1.1214  3.1019
  687MOL0     H92697   5.291   5.388   4.537 -0.3031 -0.4542 -3.1636
  687MOL0     H92698   5.384   5.530   4.566  0.5521  0.0133 -1.1953
  687MOL0     H92699   5.168   5.545   4.692 -3.3646 -0.7331 -0.3572
  687MOL0     H92700   5.080   5.507   4.563  1.1475 -0.7987 -1.0563
  687MOL0     H92701   5.188   5.738   4.456 -0.4207 -1.4430 -0.4035
  687MOL0     H92702   5.220   5.777   4.621  0.5119  0.9239 -1.2653
  687MOL0     H92703   4.996   5.869   4.573  2.3578  0.2658  1.7795
  687MOL0     H92704   4.980   5.743   4.689  1.8923  0.8306  0.7939
  687MOL0     H92705   4.772   5.893   4.619  1.4254 -0.0065 -0.6949
  687MOL0     H92706   4.485   5.931   4.718 -0.7268 -0.9555 -0.7169
  687MOL0     H92707   4.604   6.044   4.654  0.3577 -0.0659 -0.5778
  687MOL0     H92708   4.448   6.026   4.572 -0.9011 -0.7174  1.2571
  687MOL0     H92709   4.214   5.941   4.256  0.5985  0.7163  2.4061
  687MOL0     H92710   3.971   6.041   4.236  0.5503 -0.1105  0.1554
  687MOL0     H92711   3.772   6.092   4.305 -0.5105  0.4780  0.2292
  687MOL0     H92712   3.708   6.040   4.144  0.9470  0.6693  0.0373
  687MOL0     H92713   3.506   5.948   4.247  0.5032 -0.3180  0.1600
  687MOL0     H92714   3.543   5.996   4.407 -0.7458  0.5246 -0.4796
  687MOL0     H92715   3.479   6.160   4.160  2.0149  3.6459 -0.0988
  687MOL0     H92716   3.557   6.238   4.293  1.6949 -1.2829 -1.0458
  687MOL0     H92717   3.297   6.085   4.303  1.4650 -1.4531 -1.4336
  687MOL0     H92718   3.376   6.164   4.439  1.0946  0.0356  0.0924
  687MOL0     H92719   3.296   6.333   4.207  2.2020 -0.7061  0.2923
  687MOL0     H92720   3.364   6.380   4.355 -2.3076  1.7409  0.3351
  687MOL0     H92721   3.093   6.246   4.335 -1.7497  1.4937  0.8314
  687MOL0     H92722   3.174   6.291   4.486 -2.1560 -1.0931  0.2951
  687MOL0     H92723   3.084   6.456   4.249 -1.0134 -1.5318  0.2715
  687MOL0     H92724   3.150   6.532   4.398 -0.2458 -0.5275  2.4399
  687MOL0     H92725   2.955   6.449   4.534 -1.7429  0.6118  0.1130
  687MOL0     H92726   2.899   6.357   4.399  0.5219  0.3198 -0.9090
  687MOL0     H92727   3.823   5.668   4.364 -1.1797  1.7343  2.4129
  687MOL0     H92728   4.064   5.580   4.397  2.8319  0.5717 -0.2575
  687MOL0     H92729   4.505   5.609   4.321  1.2500  0.5106 -0.2864
  687MOL0     H92730   4.747   5.573   4.343  0.2843 -0.1629  1.0491
  687MOL0     H92731   5.995   5.706   3.260  1.9125  2.7528  0.0995
  687MOL0     H92732   6.243   5.706   3.260  0.7771 -3.2759 -1.5882
  687MOL0     H92733   6.591   5.606   3.651  2.1011 -0.3443  2.3579
  687MOL0     H92734   6.815   5.599   3.714 -2.0808 -1.0916  0.1271
  687MOL0     H92735   7.047   5.630   3.752 -1.6265  3.3804 -0.5210
  687MOL0     H92736   7.072   5.505   3.629 -0.3799  0.6954 -0.7968
  687MOL0     H92737   7.282   5.642   3.554 -1.7137  3.8951 -0.1562
  687MOL0     H92738   7.277   5.527   3.687  0.1066 -0.5068 -0.0413
  687MOL0     H92739   7.252   5.721   3.846 -0.9850  2.6737 -0.5340
  687MOL0     H92740   7.263   5.826   3.697  1.2056 -0.8500 -1.6922
  687MOL0     H92741   7.488   5.640   3.706  0.3018 -0.3441  0.3661
  687MOL0     H92742   7.483   5.736   3.847  0.2277 -1.0985  0.4281
  687MOL0     H92743   7.564   6.027   3.551  1.4724  0.2481  1.9682
  687MOL0     H92744   6.924   5.797   3.341  0.5176 -0.6237 -0.6816
  687MOL0     H92745   6.661   5.805   3.294 -3.5232 -0.9803  0.8996
  688MOL0     O92746   5.216   7.949   3.422 -0.5913  0.2143 -1.0963
  688MOL0     C92747   5.255   8.018   3.339  0.0518 -0.0671 -0.0172
  688MOL0     O92748   5.178   8.095   3.262  0.1396 -0.0784  0.6347
  688MOL0     C92749   5.042   8.101   3.274  0.5588 -0.4862  0.1973
  688MOL0     C92750   4.973   8.045   3.170 -1.1376 -0.7059  0.6151
  688MOL0     C92751   4.837   8.042   3.159  0.0899 -0.3497 -0.5160
  688MOL0     C92752   4.761   8.104   3.262  0.4197  0.5897  0.4629
  688MOL0     O92753   4.627   8.106   3.232 -0.0063 -0.4020 -0.6544
  688MOL0     C92754   4.550   8.172   3.325  0.7047 -0.7144 -0.6562
  688MOL0     C92755   4.400   8.170   3.289 -0.3113 -0.7437 -0.3410
  688MOL0     C92756   4.308   8.211   3.396  0.5911  0.0679 -0.3043
  688MOL0     C92757   4.167   8.265   3.346 -0.2920  0.2351 -0.8115
  688MOL0     C92758   4.053   8.231   3.448  0.0989 -0.0983 -0.3708
  688MOL0     C92759   3.917   8.259   3.403  0.0192 -0.4614  0.5600
  688MOL0     C92760   3.814   8.288   3.515  0.0545 -0.2422 -0.0217
  688MOL0     C92761   3.687   8.357   3.461 -0.2050  0.7510  0.6242
  688MOL0     N92762   3.607   8.258   3.396  0.9131  0.2532  0.7764
  688MOL0     C92763   3.523   8.174   3.466  0.3158 -0.9384  0.1991
  688MOL0     C92764   3.486   8.078   3.377  0.5594 -0.1848  0.0594
  688MOL0     C92765   3.364   7.985   3.389  0.3371  0.0281 -0.4034
  688MOL0     C92766   3.240   8.078   3.389 -1.0975 -1.0127  0.4753
  688MOL0     C92767   3.121   7.992   3.413  0.0901 -1.3163 -0.0271
  688MOL0     C92768   3.011   8.084   3.465  0.8537  0.8063 -0.1634
  688MOL0     O92769   2.920   7.988   3.513  0.6827  0.2448  0.4258
  688MOL0     C92770   2.795   7.987   3.457 -0.1661  0.0075  0.3170
  688MOL0     C92771   2.723   8.102   3.418  0.0984 -0.2783 -0.2255
  688MOL0     C92772   2.597   8.098   3.352  0.2499  0.4401 -0.1089
  688MOL0     C92773   2.520   8.226   3.349 -0.3614  0.0518  0.1013
  688MOL0     C92774   2.547   7.968   3.306  0.5520 -1.3344  0.3267
  688MOL0     C92775   2.434   7.960   3.213  0.1693 -0.2712  0.6924
  688MOL0     O92776   2.395   7.830   3.186 -0.5280  0.5548 -0.5430
  688MOL0     C92777   2.276   7.826   3.124 -0.4095  0.1787  1.0142
  688MOL0     C92778   2.270   7.800   2.989  0.8853  0.1499  0.0311
  688MOL0     C92779   2.148   7.793   2.921  0.1093 -0.0354  0.0651
  688MOL0     C92780   2.032   7.816   2.993 -0.4618 -0.3837  0.6479
  688MOL0     O92781   1.904   7.813   2.938  0.4003 -0.4044 -0.2008
  688MOL0     C92782   1.864   7.686   2.881 -0.4001 -0.6112  0.2633
  688MOL0     C92783   1.801   7.593   2.983 -0.4404 -0.2473  0.5505
  688MOL0     C92784   1.682   7.666   3.059 -0.4554  0.2131 -0.2871
  688MOL0     C92785   1.549   7.661   2.979 -0.2441 -0.2950 -0.5714
  688MOL0     C92786   1.486   7.519   2.964  0.5023 -0.0699 -0.1767
  688MOL0     C92787   1.402   7.473   3.074  0.3925  0.0162  0.8226
  688MOL0     C92788   1.272   7.545   3.090 -0.1838  0.9726  0.8633
  688MOL0     C92789   1.171   7.460   3.159  1.1346  0.3817 -0.3777
  688MOL0    Cl92790   1.033   7.572   3.209  0.4158  0.1464 -0.0579
  688MOL0     C92791   2.034   7.864   3.127 -0.0353  1.1492  0.0124
  688MOL0     C92792   2.156   7.859   3.195 -0.5662 -0.0396  0.0857
  688MOL0     O92793   2.401   8.061   3.154 -0.6470  0.3182 -0.6859
  688MOL0     C92794   2.625   7.854   3.339  0.0075 -0.1200 -0.1857
  688MOL0     C92795   2.742   7.864   3.412  0.4950  0.1826 -0.2916
  688MOL0     N92796   3.551   8.096   3.249 -0.6772  0.6934  0.0552
  688MOL0     N92797   3.629   8.204   3.271 -0.7655  0.2885 -0.0019
  688MOL0     C92798   4.829   8.155   3.373  0.6013 -0.2246  0.3277
  688MOL0     C92799   4.969   8.163   3.377 -0.0887 -0.2976 -0.2818
  688MOL0     C92800   5.406   8.034   3.327 -0.8610  0.0961 -0.9792
  688MOL0     C92801   5.486   8.000   3.434  0.3471  0.4797  0.0130
  688MOL0     C92802   5.618   8.043   3.439 -0.3424  0.0768  0.3693
  688MOL0     C92803   5.670   8.105   3.323  0.6304  0.4847  0.0762
  688MOL0     O92804   5.797   8.152   3.309  0.0211 -0.3135  0.0123
  688MOL0     C92805   5.903   8.062   3.350 -0.0924  0.0719  1.1663
  688MOL0     C92806   6.015   8.072   3.249 -0.0261 -0.2163  0.2370
  688MOL0     C92807   5.982   7.995   3.117  0.0427 -1.2314 -0.3714
  688MOL0     C92808   6.091   7.994   3.010  0.7369 -0.1900 -0.4530
  688MOL0     C92809   6.042   7.910   2.899 -0.1841 -0.8664  0.3828
  688MOL0     C92810   6.001   7.834   2.811  0.1810 -0.5545 -0.4108
  688MOL0     C92811   5.593   8.126   3.214  0.1289  0.0600  0.2408
  688MOL0     C92812   5.458   8.093   3.213 -0.1172 -0.0798  0.6713
  688MOL0     H92813   5.037   8.007   3.091 -0.9917  2.3568 -0.9205
  688MOL0     H92814   4.781   8.007   3.073  0.9092  3.1249 -2.6507
  688MOL0     H92815   4.553   8.129   3.425 -3.9040  1.0846  0.5138
  688MOL0     H92816   4.561   8.281   3.332 -1.3855 -0.5819  2.3978
  688MOL0     H92817   4.393   8.250   3.215  0.6014  0.6859  1.0397
  688MOL0     H92818   4.383   8.070   3.250  0.0666 -1.8236  2.0707
  688MOL0     H92819   4.295   8.124   3.461  1.1602 -2.0587 -2.8916
  688MOL0     H92820   4.361   8.289   3.452  5.0626 -0.2607 -3.5194
  688MOL0     H92821   4.171   8.373   3.331  4.2982  0.4855  0.4736
  688MOL0     H92822   4.144   8.217   3.250 -0.6551 -0.4942 -0.3686
  688MOL0     H92823   4.066   8.124   3.468  0.1621  0.0007  0.1228
  688MOL0     H92824   4.074   8.283   3.542 -0.3727  0.0923 -0.3646
  688MOL0     H92825   3.919   8.346   3.336  0.8453 -2.2439 -1.8816
  688MOL0     H92826   3.880   8.176   3.343  1.6396 -1.2683  0.6255
  688MOL0     H92827   3.782   8.193   3.558 -2.2452  0.2975 -0.4172
  688MOL0     H92828   3.862   8.359   3.583 -0.7365  0.8050 -0.5269
  688MOL0     H92829   3.702   8.444   3.396 -1.1475 -0.6080 -1.5066
  688MOL0     H92830   3.630   8.392   3.548 -1.2355 -1.0134  0.7024
  688MOL0     H92831   3.479   8.192   3.564  0.1113  1.4273 -0.2657
  688MOL0     H92832   3.351   7.914   3.307  0.2849 -0.4820  0.0412
  688MOL0     H92833   3.370   7.934   3.485  2.6647 -0.1814 -0.5839
  688MOL0     H92834   3.233   8.128   3.292 -0.4673  2.8917  2.2482
  688MOL0     H92835   3.247   8.159   3.461  0.0583 -0.0721 -0.6516
  688MOL0     H92836   3.153   7.917   3.486 -0.5755  0.3691  2.0764
  688MOL0     H92837   3.096   7.943   3.319  1.6642 -1.9923 -0.1316
  688MOL0     H92838   2.968   8.149   3.388 -5.8816 -1.6095  0.9063
  688MOL0     H92839   3.050   8.142   3.548 -1.5912 -0.3405  1.9158
  688MOL0     H92840   2.765   8.196   3.452 -0.6411  0.3602 -1.0399
  688MOL0     H92841   2.567   8.299   3.415 -2.1223 -0.4160  2.0067
  688MOL0     H92842   2.509   8.269   3.249 -0.5473  1.3599  0.6678
  688MOL0     H92843   2.422   8.216   3.398  0.2850  4.1667  2.7480
  688MOL0     H92844   2.355   7.764   2.933  0.6501 -0.2760 -0.0581
  688MOL0     H92845   2.146   7.781   2.813  3.0960  2.3487 -0.3665
  688MOL0     H92846   1.786   7.705   2.806  0.1893  2.0431  0.2257
  688MOL0     H92847   1.947   7.635   2.831  0.3161  1.3558 -0.6707
  688MOL0     H92848   1.771   7.501   2.933  0.3261  0.6292 -1.6589
  688MOL0     H92849   1.880   7.571   3.055  0.1114  1.7055  0.6035
  688MOL0     H92850   1.698   7.774   3.068 -3.2136  0.5695  1.3418
  688MOL0     H92851   1.671   7.625   3.160 -1.6915 -0.9251 -0.8521
  688MOL0     H92852   1.470   7.716   3.030  0.3100 -0.1372  0.1317
  688MOL0     H92853   1.556   7.710   2.881 -1.6154 -2.0774 -1.6226
  688MOL0     H92854   1.567   7.446   2.957  0.1778 -0.4414 -0.1110
  688MOL0     H92855   1.434   7.522   2.868 -0.0824  4.5344  0.0769
  688MOL0     H92856   1.387   7.367   3.053  1.4937 -0.4366  2.1301
  688MOL0     H92857   1.469   7.476   3.161  1.6266 -0.9527 -0.0543
  688MOL0     H92858   1.231   7.562   2.990 -0.9630 -1.4729  0.6777
  688MOL0     H92859   1.285   7.640   3.143 -2.7932  0.4629  2.6228
  688MOL0     H92860   1.216   7.417   3.250  1.8305  0.0462 -0.8699
  688MOL0     H92861   1.126   7.383   3.097 -2.9263  0.7176  1.7847
  688MOL0     H92862   1.941   7.890   3.177  1.5616  0.2282  3.7322
  688MOL0     H92863   2.144   7.880   3.301 -1.7310  2.6246 -0.4759
  688MOL0     H92864   2.603   7.753   3.307  1.2737 -1.7193  3.4364
  688MOL0     H92865   2.788   7.768   3.435  0.9006  0.5628  0.5346
  688MOL0     H92866   4.771   8.191   3.458  0.0582 -0.4534  0.0583
  688MOL0     H92867   5.032   8.195   3.459 -0.5935 -2.8425  1.2245
  688MOL0     H92868   5.450   7.960   3.528  0.8531 -0.2417 -0.0945
  688MOL0     H92869   5.686   8.032   3.523 -0.4934 -3.5728  0.1769
  688MOL0     H92870   5.945   8.086   3.449 -0.0095  1.8150  0.7484
  688MOL0     H92871   5.866   7.960   3.354  1.0282 -0.3835  0.4093
  688MOL0     H92872   6.108   8.035   3.293  1.0336 -0.1904 -1.8609
  688MOL0     H92873   6.034   8.177   3.227  0.1232 -0.8570 -3.1975
  688MOL0     H92874   5.893   8.039   3.073 -0.3143 -0.9866  0.5612
  688MOL0     H92875   5.965   7.893   3.155  3.2534 -1.5174  0.6558
  688MOL0     H92876   6.176   7.947   3.061  0.9501 -1.3595 -1.8100
  688MOL0     H92877   6.121   8.093   2.974 -1.0906  1.2361  1.7236
  688MOL0     H92878   5.955   7.763   2.745  0.3976 -3.3964  2.2776
  688MOL0     H92879   5.643   8.174   3.130 -2.1040 -2.0389 -2.4601
  688MOL0     H92880   5.392   8.121   3.132 -1.2172 -2.8482  0.4787
  689MOL0     O92881   5.342  10.364  10.152  0.2497 -0.0950 -0.3337
  689MOL0     C92882   5.291  10.418  10.246 -1.0665  0.4399  0.4511
  689MOL0     O92883   5.159  10.419  10.275 -0.0228 -0.5212  0.6685
  689MOL0     C92884   5.070  10.358  10.184  0.3847 -0.5803  0.2730
  689MOL0     C92885   5.041  10.219  10.183  0.2798 -0.5289 -0.4529
  689MOL0     C92886   4.969  10.173  10.067  0.7659 -0.3509 -0.7928
  689MOL0     C92887   4.910  10.256   9.973 -0.4492  0.1582 -0.3092
  689MOL0     O92888   4.855  10.205   9.859  0.5771 -0.0917  0.4221
  689MOL0     C92889   4.853  10.062   9.821  0.3905 -0.4982  1.8168
  689MOL0     C92890   4.808  10.065   9.678 -0.1146  0.1368 -0.9455
  689MOL0     C92891   4.653  10.090   9.659 -0.5084  0.0717 -0.5644
  689MOL0     C92892   4.615  10.119   9.504 -0.5568 -0.6484 -0.0843
  689MOL0     C92893   4.463  10.113   9.474  0.2126  0.1632  0.2428
  689MOL0     C92894   4.394  10.246   9.515  0.2785  0.1494  0.2222
  689MOL0     C92895   4.240  10.233   9.509 -0.8773 -0.4832 -0.0742
  689MOL0     C92896   4.188  10.196   9.375 -0.8737 -0.3642 -0.0598
  689MOL0     N92897   4.043  10.222   9.367  0.3961 -0.3731  0.4876
  689MOL0     C92898   3.996  10.331   9.294  0.6065  1.0796  0.4506
  689MOL0     C92899   3.860  10.295   9.259  0.1839 -0.6742 -0.1798
  689MOL0     C92900   3.781  10.360   9.157 -0.3538  0.3963 -0.7713
  689MOL0     C92901   3.646  10.410   9.206  0.2037  0.3576  0.3221
  689MOL0     C92902   3.565  10.497   9.105 -0.5158 -0.6541  0.3235
  689MOL0     C92903   3.424  10.540   9.148 -0.1089 -0.2565 -0.0149
  689MOL0     O92904   3.344  10.601   9.038  0.3238 -0.0708 -0.6517
  689MOL0     C92905   3.233  10.540   8.978  0.0408  0.7538  0.4434
  689MOL0     C92906   3.133  10.619   8.922  0.5580 -0.4376 -0.5319
  689MOL0     C92907   3.019  10.559   8.856 -0.3005  0.1695 -0.9392
  689MOL0     C92908   2.912  10.650   8.807  1.1097  0.1408 -0.1639
  689MOL0     C92909   3.011  10.417   8.840  0.0592  0.0578  0.0133
  689MOL0     C92910   2.907  10.358   8.761 -0.3680  0.5790 -0.2760
  689MOL0     O92911   2.832  10.258   8.822  0.4926 -0.3588  0.3887
  689MOL0     C92912   2.712  10.207   8.781  0.2112 -0.4054  0.7814
  689MOL0     C92913   2.641  10.261   8.665  0.6764 -0.7423  0.6801
  689MOL0     C92914   2.511  10.217   8.637  0.5688 -0.4196 -0.3624
  689MOL0     C92915   2.451  10.122   8.722  0.8187 -1.2619  0.4219
  689MOL0     O92916   2.322  10.069   8.696  0.0453 -0.1320 -0.3374
  689MOL0     C92917   2.284  10.041   8.559  0.7418 -0.2075  0.0003
  689MOL0     C92918   2.149   9.958   8.569 -0.4947  0.0472  1.3235
  689MOL0     C92919   2.071   9.952   8.430 -0.0601  0.2776  0.3898
  689MOL0     C92920   2.015   9.819   8.392  0.3283  0.2506  0.5252
  689MOL0     C92921   1.941   9.813   8.253  0.0358  0.2101  0.2296
  689MOL0     C92922   1.870   9.670   8.261 -0.1562  0.0590 -0.4960
  689MOL0     C92923   1.799   9.625   8.134 -0.3277  0.1970 -0.4099
  689MOL0     C92924   1.884   9.519   8.057 -0.0526  0.4248  0.2546
  689MOL0    Cl92925   1.817   9.477   7.894 -0.3011 -0.3211  0.1144
  689MOL0     C92926   2.511  10.087   8.841  0.3390  0.4372  0.3900
  689MOL0     C92927   2.643  10.124   8.858 -0.0873 -0.0739 -0.6042
  689MOL0     O92928   2.894  10.389   8.642  0.0516  0.2043  0.0650
  689MOL0     C92929   3.122  10.342   8.897 -0.1705 -0.4265 -0.6790
  689MOL0     C92930   3.237  10.404   8.955  0.1336  0.7056 -0.7298
  689MOL0     N92931   3.832  10.175   9.323  0.0654 -0.0694 -0.2518
  689MOL0     N92932   3.940  10.137   9.383 -0.6497  1.1962 -0.3753
  689MOL0     C92933   4.931  10.394   9.988 -0.0149  0.4649 -0.3731
  689MOL0     C92934   5.012  10.447  10.091  0.2817  0.8241 -0.5981
  689MOL0     C92935   5.383  10.501  10.331  0.0444 -0.2589 -0.2581
  689MOL0     C92936   5.332  10.558  10.447  0.5815 -0.8300 -0.1473
  689MOL0     C92937   5.411  10.649  10.517 -0.4473  0.9357 -0.1981
  689MOL0     C92938   5.538  10.690  10.470  0.1385  0.3307 -1.1352
  689MOL0     O92939   5.621  10.779  10.536  0.5912 -0.3770 -0.4017
  689MOL0     C92940   5.571  10.851  10.650  0.0029 -0.3932  0.2204
  689MOL0     C92941   5.681  10.917  10.729 -0.0520 -0.3081 -0.6783
  689MOL0     C92942   5.621  10.995  10.849 -0.5544  0.4180 -0.3691
  689MOL0     C92943   5.745  11.014  10.952  0.7587 -0.8166  0.7230
  689MOL0     C92944   5.834  11.121  10.905  0.4949 -0.9720 -0.2355
  689MOL0     C92945   5.900  11.218  10.868  0.1322 -0.0724 -0.2450
  689MOL0     C92946   5.590  10.624  10.361 -0.2832 -0.5296  0.7745
  689MOL0     C92947   5.516  10.527  10.291 -0.5168 -0.4488 -0.7120
  689MOL0     H92948   5.075  10.142  10.252 -2.2836  0.7159  2.4562
  689MOL0     H92949   4.972  10.066  10.046 -0.0022 -1.1092  2.4209
  689MOL0     H92950   4.954  10.020   9.825  0.8010  0.1045 -0.5819
  689MOL0     H92951   4.793  10.006   9.893 -1.6656  0.5796  1.0336
  689MOL0     H92952   4.867  10.136   9.620 -0.2264 -0.3743 -1.7027
  689MOL0     H92953   4.838   9.964   9.649  0.7239  0.0657  0.1283
  689MOL0     H92954   4.597  10.007   9.703 -2.3787  1.2462 -0.6115
  689MOL0     H92955   4.622  10.181   9.711  1.4426 -0.4306  1.6398
  689MOL0     H92956   4.647  10.222   9.488  0.9400 -0.5672  2.8884
  689MOL0     H92957   4.653  10.046   9.432  2.2979  1.1344 -0.5290
  689MOL0     H92958   4.443  10.098   9.368  0.8685 -2.8112  0.4657
  689MOL0     H92959   4.410  10.029   9.521 -1.8245  1.0270 -0.3826
  689MOL0     H92960   4.423  10.252   9.621  1.9142 -3.0352  0.0587
  689MOL0     H92961   4.422  10.334   9.457 -1.0933  1.2144  1.1115
  689MOL0     H92962   4.204  10.161   9.584 -1.4291 -0.5442 -0.3987
  689MOL0     H92963   4.195  10.328   9.538 -1.4313  0.2372 -3.0178
  689MOL0     H92964   4.211  10.090   9.358 -2.4601 -1.1235  2.0722
  689MOL0     H92965   4.245  10.251   9.300 -0.7887 -0.2612  0.0769
  689MOL0     H92966   4.062  10.410   9.257 -0.9542  1.3334 -2.0522
  689MOL0     H92967   3.835  10.449   9.123 -0.9371  1.5460  1.1493
  689MOL0     H92968   3.757  10.288   9.078 -0.1538 -3.0945  2.0858
  689MOL0     H92969   3.651  10.477   9.292  1.0087 -1.6408  1.9173
  689MOL0     H92970   3.588  10.323   9.239  0.7925  1.0167  3.4312
  689MOL0     H92971   3.549  10.443   9.011 -0.8466 -1.1724  0.6731
  689MOL0     H92972   3.615  10.592   9.088  0.7420 -1.1506  1.1584
  689MOL0     H92973   3.418  10.601   9.239 -3.9917 -2.3636  1.3718
  689MOL0     H92974   3.368  10.451   9.178  0.0384 -0.2293  0.3379
  689MOL0     H92975   3.136  10.727   8.921  1.3419 -0.4403  0.3654
  689MOL0     H92976   2.921  10.668   8.700  3.8466  1.6729  0.2209
  689MOL0     H92977   2.817  10.605   8.837 -0.6636  2.2267 -2.2024
  689MOL0     H92978   2.915  10.744   8.863  1.4112 -2.0032  3.8360
  689MOL0     H92979   2.681  10.345   8.610  0.3289 -1.8713 -1.3822
  689MOL0     H92980   2.469  10.261   8.546 -0.3163 -0.1150  0.1792
  689MOL0     H92981   2.272  10.130   8.497 -0.6033 -0.8601 -0.7344
  689MOL0     H92982   2.362   9.981   8.510  1.6131 -0.2762  1.4093
  689MOL0     H92983   2.163   9.856   8.606 -1.2290 -0.6208 -0.1633
  689MOL0     H92984   2.087  10.003   8.647  0.7041 -1.4684  3.2466
  689MOL0     H92985   2.144   9.978   8.353 -0.4514 -1.5740 -0.6623
  689MOL0     H92986   1.981  10.015   8.425 -1.2200 -1.0371  2.6799
  689MOL0     H92987   2.100   9.750   8.392 -1.3808 -1.9640  0.0918
  689MOL0     H92988   1.956   9.799   8.483  0.9377  2.5840  1.4970
  689MOL0     H92989   2.014   9.818   8.172  0.4965 -0.9921  0.5483
  689MOL0     H92990   1.861   9.885   8.236 -2.0059 -2.2106 -0.9834
  689MOL0     H92991   1.942   9.595   8.296 -0.7606  0.4474  1.7779
  689MOL0     H92992   1.796   9.671   8.342  2.5731  1.1970  2.1226
  689MOL0     H92993   1.771   9.710   8.070  0.3526  0.3061 -0.5716
  689MOL0     H92994   1.706   9.574   8.161 -1.3794  2.5184  0.6286
  689MOL0     H92995   1.890   9.430   8.120 -1.3931  0.3273  0.2885
  689MOL0     H92996   1.986   9.556   8.043  0.6005 -1.8488 -1.7329
  689MOL0     H92997   2.459  10.026   8.913  0.1955  1.4573  1.1818
  689MOL0     H92998   2.700  10.092   8.945 -1.1119 -0.2628  0.0106
  689MOL0     H92999   3.122  10.234   8.899  1.3865 -0.4432  0.7985
  689MOL0     H93000   3.325  10.342   8.974  0.7078  1.3583 -1.1905
  689MOL0     H93001   4.890  10.445   9.901 -0.5140 -1.1170 -1.0894
  689MOL0     H93002   5.033  10.553  10.087 -0.0152  0.9538  0.6310
  689MOL0     H93003   5.235  10.538  10.491  0.8022 -3.0181 -0.5650
  689MOL0     H93004   5.365  10.689  10.606  2.4384  0.4610  1.6482
  689MOL0     H93005   5.499  10.928  10.620  1.4064  0.2980 -1.5329
  689MOL0     H93006   5.523  10.776  10.714 -0.5221 -1.5978 -1.5130
  689MOL0     H93007   5.740  10.988  10.670 -1.7752  1.6754 -0.1073
  689MOL0     H93008   5.753  10.842  10.764  1.7025  0.9478 -1.4372
  689MOL0     H93009   5.547  10.928  10.894  0.5370 -2.3560 -2.4553
  689MOL0     H93010   5.581  11.095  10.830  0.1813  0.7068 -0.4555
  689MOL0     H93011   5.796  10.918  10.966  1.1557 -0.4884  1.6117
  689MOL0     H93012   5.703  11.056  11.044  1.3667  0.1871  0.5634
  689MOL0     H93013   5.985  11.279  10.846  2.1067 -0.6720  4.4449
  689MOL0     H93014   5.692  10.637  10.325 -0.2747 -0.4184  0.8410
  689MOL0     H93015   5.553  10.467  10.209 -2.2102 -0.1033 -1.7652
  690MOL0     O93016   8.564   1.118   2.873  0.0916  0.2392  0.0601
  690MOL0     C93017   8.629   1.076   2.773 -0.6784  1.2247 -0.0375
  690MOL0     O93018   8.604   1.106   2.642  0.5124  0.3608 -0.0215
  690MOL0     C93019   8.472   1.100   2.598 -0.3604 -0.1451  0.2888
  690MOL0     C93020   8.430   1.190   2.503  0.4721  0.0585  0.1332
  690MOL0     C93021   8.307   1.183   2.447  0.5865  0.8528 -0.3559
  690MOL0     C93022   8.218   1.072   2.478 -0.7662 -0.1095 -1.2805
  690MOL0     O93023   8.093   1.067   2.429 -0.0312  0.0548  0.2680
  690MOL0     C93024   8.014   0.945   2.453 -1.1707 -0.9662  0.2047
  690MOL0     C93025   7.908   0.914   2.355  0.0193 -0.5518  0.2826
  690MOL0     C93026   7.824   1.039   2.311 -0.9034  0.5496 -0.1667
  690MOL0     C93027   7.729   1.091   2.419 -0.7040 -0.0232  0.6812
  690MOL0     C93028   7.634   1.199   2.361  0.1244  0.0911 -0.1385
  690MOL0     C93029   7.535   1.248   2.468  0.6004  0.9977  0.3822
  690MOL0     C93030   7.394   1.196   2.429  0.8990  0.1044  0.2108
  690MOL0     C93031   7.293   1.255   2.530  0.1799  0.5053 -0.6868
  690MOL0     N93032   7.156   1.210   2.496 -0.1298 -0.6455 -0.1723
  690MOL0     C93033   7.081   1.264   2.396 -0.1691  0.3504  0.6303
  690MOL0     C93034   6.958   1.213   2.401  0.1811  0.4021 -0.0365
  690MOL0     C93035   6.833   1.241   2.313 -0.1683  0.4496 -0.9599
  690MOL0     C93036   6.728   1.293   2.412  0.2827  0.6211  0.1014
  690MOL0     C93037   6.632   1.169   2.435 -0.8443 -0.6778  0.7464
  690MOL0     C93038   6.548   1.213   2.548  0.4825  0.2403 -0.0009
  690MOL0     O93039   6.438   1.124   2.545 -0.4980  0.4662  0.1259
  690MOL0     C93040   6.302   1.156   2.572 -0.3372 -0.1767  0.3576
  690MOL0     C93041   6.219   1.049   2.578 -0.1345  0.2763 -0.1395
  690MOL0     C93042   6.085   1.052   2.599 -0.5121 -0.7370  0.0557
  690MOL0     C93043   6.016   0.916   2.608 -1.0245 -0.3825 -0.2013
  690MOL0     C93044   6.022   1.177   2.612  0.4245  0.0016  0.0372
  690MOL0     C93045   5.878   1.192   2.645  0.0230 -0.1218 -0.3294
  690MOL0     O93046   5.822   1.097   2.729 -0.0313 -0.1837  0.1582
  690MOL0     C93047   5.689   1.083   2.735 -0.3085 -0.1721  1.1452
  690MOL0     C93048   5.636   1.065   2.860  0.2045 -0.1735  0.3242
  690MOL0     C93049   5.494   1.044   2.870 -0.3125  0.0603 -0.1294
  690MOL0     C93050   5.415   1.033   2.762  0.7297  0.4775 -0.4291
  690MOL0     O93051   5.283   1.009   2.770  0.8323  0.2326 -0.8105
  690MOL0     C93052   5.230   0.994   2.906 -0.4961  0.0807  0.2112
  690MOL0     C93053   5.081   0.950   2.888 -0.1463 -0.4572 -0.3775
  690MOL0     C93054   5.012   0.989   3.017 -0.1786  0.0174  0.1985
  690MOL0     C93055   4.870   0.942   3.005  0.0759  0.8465 -0.3904
  690MOL0     C93056   4.768   1.031   2.935 -0.1999 -0.5987 -0.1732
  690MOL0     C93057   4.629   0.977   2.944 -0.3489 -0.2904  0.3698
  690MOL0     C93058   4.520   1.067   2.886  0.7756 -0.3530 -0.1961
  690MOL0     C93059   4.485   1.191   2.978  0.0263 -1.1007  0.3853
  690MOL0    Cl93060   4.478   1.342   2.880 -0.0667  0.4227 -0.2035
  690MOL0     C93061   5.467   1.039   2.631  0.4061  0.7552 -0.4505
  690MOL0     C93062   5.604   1.070   2.618  0.4678 -0.0976  0.6903
  690MOL0     O93063   5.822   1.299   2.618 -0.4438 -0.5749  0.0088
  690MOL0     C93064   6.105   1.292   2.605 -0.1925 -0.4526  0.5208
  690MOL0     C93065   6.248   1.286   2.586 -0.1791 -0.0932  0.2273
  690MOL0     N93066   6.961   1.122   2.511 -0.0418  0.6113  0.1965
  690MOL0     N93067   7.074   1.121   2.559  0.5882 -0.6278 -0.4242
  690MOL0     C93068   8.268   0.991   2.579 -0.0464 -0.0763 -0.7897
  690MOL0     C93069   8.388   1.007   2.644  0.1980 -0.5390 -1.2368
  690MOL0     C93070   8.759   1.008   2.801  0.4506 -0.6597 -0.7258
  690MOL0     C93071   8.867   0.995   2.703 -0.1607  1.0552  0.0136
  690MOL0     C93072   8.987   0.931   2.734 -0.6007  0.3678 -0.4930
  690MOL0     C93073   9.011   0.874   2.863  0.0359 -1.0829 -0.3543
  690MOL0     O93074   9.127   0.801   2.895  0.8627  0.1510 -0.5244
  690MOL0     C93075   9.257   0.848   2.850 -0.6005 -0.4382 -0.8596
  690MOL0     C93076   9.364   0.789   2.949 -0.5140 -0.8302  0.3700
  690MOL0     C93077   9.362   0.833   3.097  0.6506  0.2959  0.0016
  690MOL0     C93078   9.301   0.971   3.135 -0.2847 -0.0997  0.0788
  690MOL0     C93079   9.385   1.084   3.086  0.5557  0.1449 -0.7767
  690MOL0     C93080   9.473   1.160   3.053  0.0898 -0.0083 -0.3740
  690MOL0     C93081   8.910   0.890   2.960  0.1122  0.5886  0.7562
  690MOL0     C93082   8.781   0.944   2.927 -0.3881  1.2881  0.3918
  690MOL0     H93083   8.499   1.271   2.480  1.6360 -1.3874 -1.8147
  690MOL0     H93084   8.265   1.259   2.381 -1.0762  0.3316  0.0374
  690MOL0     H93085   8.093   0.870   2.445  0.2684  0.6903 -3.8603
  690MOL0     H93086   7.963   0.956   2.548 -0.9875 -0.2916  0.2299
  690MOL0     H93087   7.959   0.882   2.263 -0.6764 -1.9937  0.3772
  690MOL0     H93088   7.849   0.825   2.376 -1.0950 -0.6241 -2.6694
  690MOL0     H93089   7.891   1.120   2.282  1.2338 -1.8949 -2.5365
  690MOL0     H93090   7.766   1.020   2.221 -0.3113  1.3431 -0.7248
  690MOL0     H93091   7.663   1.006   2.442 -3.2611  1.6976  0.1588
  690MOL0     H93092   7.786   1.128   2.505  0.9307  3.9267 -1.8731
  690MOL0     H93093   7.697   1.289   2.351  1.1942 -0.6427 -0.1470
  690MOL0     H93094   7.589   1.177   2.264  3.2812 -1.6448 -1.3544
  690MOL0     H93095   7.559   1.215   2.570 -0.7462  2.2661  1.1567
  690MOL0     H93096   7.545   1.357   2.476  1.1624  0.9144  0.8723
  690MOL0     H93097   7.354   1.226   2.331 -2.0153  0.3754  1.3864
  690MOL0     H93098   7.382   1.087   2.435 -1.4641  0.2297 -1.0569
  690MOL0     H93099   7.292   1.364   2.540 -3.5560  0.4986  0.4818
  690MOL0     H93100   7.312   1.215   2.630 -0.8280  2.8108  0.5033
  690MOL0     H93101   7.104   1.336   2.319 -0.0956 -0.7678 -0.4121
  690MOL0     H93102   6.850   1.307   2.227 -1.8630 -1.0918 -2.5701
  690MOL0     H93103   6.804   1.157   2.250 -1.1053 -0.3661  0.4968
  690MOL0     H93104   6.673   1.373   2.364 -1.1247 -2.0216 -3.0636
  690MOL0     H93105   6.775   1.329   2.504  4.7578 -2.0657 -0.8182
  690MOL0     H93106   6.691   1.083   2.467  0.7666 -0.9144 -2.4548
  690MOL0     H93107   6.581   1.137   2.343 -0.6182  3.3477 -0.9966
  690MOL0     H93108   6.530   1.320   2.536  0.3923  0.2238 -0.0153
  690MOL0     H93109   6.600   1.199   2.643 -2.9386  0.0924  2.0086
  690MOL0     H93110   6.256   0.947   2.567 -0.6572 -0.3247  2.6750
  690MOL0     H93111   6.017   0.867   2.705  2.6606 -1.5366 -0.6506
  690MOL0     H93112   5.914   0.910   2.569 -1.9485 -2.3455  2.2660
  690MOL0     H93113   6.066   0.851   2.535 -0.6651 -0.1787 -0.1393
  690MOL0     H93114   5.680   1.052   2.959  0.1702 -1.1568  0.2233
  690MOL0     H93115   5.452   1.049   2.970  0.8720 -0.6772  0.4388
  690MOL0     H93116   5.277   0.918   2.970  1.7136 -0.3802 -1.8010
  690MOL0     H93117   5.227   1.094   2.949  0.5107 -0.0255  0.5511
  690MOL0     H93118   5.028   1.016   2.817 -0.3612  1.8504  1.7889
  690MOL0     H93119   5.072   0.843   2.868  1.0129 -0.1650 -2.8768
  690MOL0     H93120   5.004   1.097   3.030  2.3679  0.2129  0.5387
  690MOL0     H93121   5.070   0.945   3.098  1.6907  2.3030  0.1924
  690MOL0     H93122   4.869   0.841   2.963  0.8491  2.3143 -4.4181
  690MOL0     H93123   4.830   0.924   3.105 -2.2031  1.3040 -1.1728
  690MOL0     H93124   4.780   1.043   2.827  2.3727  0.1576  0.1435
  690MOL0     H93125   4.767   1.132   2.977  1.6579  0.9288 -3.4163
  690MOL0     H93126   4.631   0.890   2.877  1.4998 -0.1491  0.1805
  690MOL0     H93127   4.605   0.942   3.044 -0.0624 -1.2618  0.1119
  690MOL0     H93128   4.429   1.009   2.867  0.4760 -0.1600  0.6144
  690MOL0     H93129   4.544   1.098   2.784 -1.8743 -1.4788 -1.2474
  690MOL0     H93130   4.563   1.210   3.052  0.8897  2.2353 -1.1759
  690MOL0     H93131   4.390   1.175   3.028 -1.2269  1.6211 -0.9416
  690MOL0     H93132   5.398   1.027   2.548 -2.0034  2.7509  1.1330
  690MOL0     H93133   5.633   1.099   2.518  1.4632  1.1850  1.3346
  690MOL0     H93134   6.053   1.383   2.636 -4.5320 -2.7230  0.7150
  690MOL0     H93135   6.311   1.374   2.585 -2.2523  1.5255 -2.8194
  690MOL0     H93136   8.201   0.920   2.627  0.3934 -0.5424 -0.8515
  690MOL0     H93137   8.422   0.933   2.716  0.0928  0.6223  0.0525
  690MOL0     H93138   8.859   1.031   2.601 -0.1834 -1.3850 -0.9173
  690MOL0     H93139   9.068   0.921   2.663 -0.8557 -2.8390 -0.4765
  690MOL0     H93140   9.279   0.814   2.749  0.1251 -0.9252 -0.5458
  690MOL0     H93141   9.268   0.957   2.856 -0.7555 -0.4689  0.3166
  690MOL0     H93142   9.455   0.830   2.904 -0.5221  0.1073  1.1608
  690MOL0     H93143   9.371   0.681   2.934 -1.2577 -0.4491 -3.6209
  690MOL0     H93144   9.464   0.818   3.135  0.0702  0.8488  1.8437
  690MOL0     H93145   9.300   0.755   3.143  1.2063  0.0032  0.2689
  690MOL0     H93146   9.289   0.976   3.244 -0.1489  0.9363  0.0581
  690MOL0     H93147   9.205   0.985   3.085 -0.2738  1.3843  0.4260
  690MOL0     H93148   9.559   1.222   3.036 -0.5429  1.1170  0.3785
  690MOL0     H93149   8.939   0.847   3.055  1.9465 -0.3828 -0.1934
  690MOL0     H93150   8.709   0.945   3.009  1.4178  1.3083  2.0394
  691MOL0     O93151   6.772   4.276   7.289 -0.3903 -0.1736  0.5976
  691MOL0     C93152   6.837   4.173   7.277 -0.3279 -0.5790  0.0188
  691MOL0     O93153   6.792   4.050   7.257 -0.5524  0.4861 -0.6012
  691MOL0     C93154   6.663   4.017   7.251  0.2721 -0.3934 -0.5894
  691MOL0     C93155   6.625   3.883   7.268  0.2561 -0.6747 -0.0332
  691MOL0     C93156   6.488   3.849   7.244  0.2211 -0.6322  0.4527
  691MOL0     C93157   6.388   3.939   7.212  0.0727 -0.6194 -0.8976
  691MOL0     O93158   6.258   3.898   7.217 -0.1797  0.1782  0.4477
  691MOL0     C93159   6.156   4.002   7.243 -0.1150  1.1518 -0.3284
  691MOL0     C93160   6.020   3.938   7.224  0.6785 -0.2463  1.0080
  691MOL0     C93161   5.913   4.022   7.286 -0.0313 -0.0358 -0.0828
  691MOL0     C93162   5.847   4.127   7.189  0.2096  0.3212  0.1220
  691MOL0     C93163   5.742   4.207   7.259  0.8117 -0.6832 -0.4628
  691MOL0     C93164   5.784   4.317   7.359 -0.3641 -0.2040 -0.3477
  691MOL0     C93165   5.685   4.425   7.397 -0.0291  0.3370  0.4440
  691MOL0     C93166   5.738   4.511   7.513 -0.2673 -1.0101 -1.0422
  691MOL0     N93167   5.642   4.607   7.571 -0.3920 -0.6706 -0.2211
  691MOL0     C93168   5.507   4.606   7.549  0.0435  0.2789 -0.7221
  691MOL0     C93169   5.460   4.718   7.621 -0.5246 -0.6629 -0.2879
  691MOL0     C93170   5.318   4.729   7.651 -0.4856 -0.0884 -0.5222
  691MOL0     C93171   5.262   4.871   7.629  0.6020  0.0470  0.2509
  691MOL0     C93172   5.109   4.884   7.632  0.6286  0.2772 -0.4420
  691MOL0     C93173   5.058   5.028   7.611  0.6177  0.8698  0.2117
  691MOL0     O93174   4.916   5.038   7.596  0.4299 -0.4885 -0.4458
  691MOL0     C93175   4.864   5.164   7.572  1.1987 -0.7829  0.8293
  691MOL0     C93176   4.729   5.165   7.563 -0.8751  0.1592  0.1877
  691MOL0     C93177   4.652   5.278   7.545  0.0214  0.2240  1.1382
  691MOL0     C93178   4.508   5.259   7.516 -0.7991  0.1954  0.0427
  691MOL0     C93179   4.715   5.407   7.534 -0.5664  0.0528  0.8644
  691MOL0     C93180   4.642   5.534   7.510  0.1482 -0.1335  0.3655
  691MOL0     O93181   4.700   5.606   7.413  0.6224 -0.2892  0.2175
  691MOL0     C93182   4.657   5.737   7.403  0.2061  0.2324 -0.5370
  691MOL0     C93183   4.726   5.835   7.472  0.4315 -0.4865  0.2965
  691MOL0     C93184   4.692   5.968   7.453 -0.0135 -1.2243 -1.0695
  691MOL0     C93185   4.593   6.010   7.360 -0.3451  0.3689  0.0217
  691MOL0     O93186   4.567   6.143   7.345 -0.3275 -0.0079  0.3685
  691MOL0     C93187   4.546   6.181   7.205 -0.1617 -0.7972  0.5112
  691MOL0     C93188   4.669   6.157   7.117  0.3797 -0.1284 -0.2404
  691MOL0     C93189   4.664   6.244   6.991  0.2492  0.1121 -0.0394
  691MOL0     C93190   4.529   6.236   6.916  0.1083  0.0410 -0.0229
  691MOL0     C93191   4.541   6.320   6.787 -0.1046  0.4646  0.0792
  691MOL0     C93192   4.419   6.320   6.697  1.1591  0.4153 -0.0747
  691MOL0     C93193   4.290   6.361   6.781 -0.6890 -0.4012 -0.5396
  691MOL0     C93194   4.176   6.365   6.692  0.5570 -0.3429 -0.4464
  691MOL0    Cl93195   4.043   6.407   6.808  0.2892 -0.8063 -0.1531
  691MOL0     C93196   4.530   5.902   7.292  1.0129 -0.4537  0.6424
  691MOL0     C93197   4.558   5.768   7.314 -1.6301 -0.2962 -0.2817
  691MOL0     O93198   4.538   5.564   7.570  0.6129  0.6376  0.5999
  691MOL0     C93199   4.862   5.406   7.534  0.6309  0.5051 -0.0203
  691MOL0     C93200   4.929   5.287   7.557  0.0634  0.7352 -0.5022
  691MOL0     N93201   5.569   4.790   7.667  0.0039  0.7498 -0.6797
  691MOL0     N93202   5.673   4.721   7.642 -1.4158  0.0017 -0.0602
  691MOL0     C93203   6.431   4.072   7.192 -0.7281 -0.4353 -0.0523
  691MOL0     C93204   6.560   4.105   7.208 -0.3404  0.4138 -0.0651
  691MOL0     C93205   6.980   4.188   7.302  0.6802 -0.1428  0.0575
  691MOL0     C93206   7.073   4.143   7.206  0.7329 -1.1148  0.4887
  691MOL0     C93207   7.211   4.166   7.223 -0.0407  0.5394  0.2532
  691MOL0     C93208   7.250   4.233   7.339 -0.0944 -0.5316  0.0627
  691MOL0     O93209   7.386   4.235   7.342 -0.2206 -0.0607 -0.8341
  691MOL0     C93210   7.454   4.297   7.449 -0.3491  0.9609 -0.7400
  691MOL0     C93211   7.607   4.291   7.427  0.0799 -0.6136  0.4172
  691MOL0     C93212   7.689   4.382   7.519  0.5170 -0.9707  0.3607
  691MOL0     C93213   7.832   4.401   7.455 -0.7592 -0.4618  1.0094
  691MOL0     C93214   7.900   4.516   7.520 -0.4404 -0.3830 -0.2704
  691MOL0     C93215   7.956   4.602   7.586  0.6949 -0.3633  0.8867
  691MOL0     C93216   7.155   4.281   7.433 -0.8049  0.1691  0.5844
  691MOL0     C93217   7.024   4.269   7.406  0.1821 -0.2594 -0.3576
  691MOL0     H93218   6.694   3.800   7.280  1.2549  0.0067 -0.8132
  691MOL0     H93219   6.477   3.741   7.252 -0.3277 -0.4657  2.6859
  691MOL0     H93220   6.165   4.032   7.347  1.6654  0.4419 -0.2465
  691MOL0     H93221   6.163   4.085   7.172 -1.3993  0.8444 -0.8542
  691MOL0     H93222   6.002   3.940   7.116  0.7480  1.6840  0.9994
  691MOL0     H93223   6.010   3.833   7.253 -2.7887 -0.9161 -1.9011
  691MOL0     H93224   5.836   3.947   7.306  0.2334 -0.5041 -0.7854
  691MOL0     H93225   5.947   4.061   7.383  0.7875 -1.9351  0.4475
  691MOL0     H93226   5.916   4.197   7.140  1.3262 -1.4752 -1.0042
  691MOL0     H93227   5.808   4.072   7.104 -0.4759  0.0086  0.6323
  691MOL0     H93228   5.676   4.246   7.181  1.1817  0.2308 -0.3380
  691MOL0     H93229   5.690   4.132   7.320  0.4303  0.3708  0.5513
  691MOL0     H93230   5.822   4.262   7.445 -1.6659 -4.1076 -2.0551
  691MOL0     H93231   5.866   4.372   7.311 -1.4909  0.3113 -1.7516
  691MOL0     H93232   5.681   4.493   7.312  0.8875  1.7120  1.4522
  691MOL0     H93233   5.589   4.375   7.411  1.1097 -2.1103  0.0686
  691MOL0     H93234   5.825   4.572   7.489 -0.5367 -0.1730  0.0040
  691MOL0     H93235   5.765   4.446   7.596 -1.2506 -0.6788 -0.4484
  691MOL0     H93236   5.439   4.531   7.509 -1.5466  1.5005 -0.4050
  691MOL0     H93237   5.260   4.652   7.598 -0.7913 -0.8647  0.8911
  691MOL0     H93238   5.319   4.706   7.758  1.5799 -0.8630 -0.6635
  691MOL0     H93239   5.310   4.910   7.538  0.2939 -0.1635 -0.0049
  691MOL0     H93240   5.313   4.926   7.709  0.4596 -0.3145  0.5899
  691MOL0     H93241   5.079   4.843   7.729 -2.6379  0.8688 -1.1128
  691MOL0     H93242   5.062   4.812   7.565  2.1000 -1.2613  0.0822
  691MOL0     H93243   5.107   5.054   7.517 -2.0391  1.8426 -1.0100
  691MOL0     H93244   5.097   5.083   7.697  1.5470 -1.8888  1.6837
  691MOL0     H93245   4.676   5.071   7.574 -1.3545  0.2786 -0.9210
  691MOL0     H93246   4.490   5.171   7.452  1.8628  0.7790 -1.6868
  691MOL0     H93247   4.449   5.245   7.607 -1.1927  0.0359 -0.2330
  691MOL0     H93248   4.482   5.349   7.460  1.9311  1.5555  0.8374
  691MOL0     H93249   4.800   5.808   7.547  1.0571 -1.3780 -0.6166
  691MOL0     H93250   4.740   6.052   7.502 -1.7893  0.7407 -2.5000
  691MOL0     H93251   4.462   6.126   7.161  0.1866 -1.1135  0.2274
  691MOL0     H93252   4.520   6.287   7.205  0.0375 -0.7356 -1.1330
  691MOL0     H93253   4.756   6.188   7.175 -1.2253  3.4515  0.5411
  691MOL0     H93254   4.678   6.051   7.088  0.0555 -0.0253 -0.7373
  691MOL0     H93255   4.748   6.241   6.920 -0.6051  1.1981 -1.1386
  691MOL0     H93256   4.680   6.349   7.015 -3.0973  0.5294  0.8814
  691MOL0     H93257   4.501   6.133   6.893  1.5285 -0.2057 -0.7616
  691MOL0     H93258   4.456   6.287   6.979 -1.7762  0.2644 -2.2627
  691MOL0     H93259   4.616   6.275   6.721 -0.5345 -1.4486  0.8282
  691MOL0     H93260   4.573   6.422   6.812  2.5389 -0.2172 -0.1351
  691MOL0     H93261   4.431   6.393   6.617  1.3293  0.5762  0.0985
  691MOL0     H93262   4.398   6.218   6.662 -1.6066  0.1247  2.0870
  691MOL0     H93263   4.307   6.459   6.827 -4.6064  0.0810  0.1672
  691MOL0     H93264   4.264   6.306   6.872  1.3707  2.8533  2.2648
  691MOL0     H93265   4.152   6.271   6.642  0.1799 -0.8758  0.7073
  691MOL0     H93266   4.179   6.448   6.621 -3.3518 -0.0657 -0.4990
  691MOL0     H93267   4.456   5.925   7.216 -2.8174 -3.9006  2.8995
  691MOL0     H93268   4.503   5.688   7.264 -2.2664  0.1135 -0.2561
  691MOL0     H93269   4.910   5.503   7.525 -0.5162  1.6561  3.9629
  691MOL0     H93270   5.037   5.294   7.551  0.1069 -0.0298 -0.6624
  691MOL0     H93271   6.353   4.147   7.191 -0.7410 -0.4440 -1.7501
  691MOL0     H93272   6.567   4.213   7.208  0.6261  0.3653 -1.2230
  691MOL0     H93273   7.033   4.083   7.125  1.3279 -0.7120 -0.1082
  691MOL0     H93274   7.277   4.132   7.144  0.3100 -1.1901  1.2436
  691MOL0     H93275   7.428   4.402   7.468  0.6962  2.1443 -4.8545
  691MOL0     H93276   7.415   4.233   7.529 -5.4390  1.1014 -2.6877
  691MOL0     H93277   7.618   4.315   7.321 -3.1258 -2.8270 -0.5905
  691MOL0     H93278   7.648   4.190   7.433  0.1043 -0.8842 -2.6858
  691MOL0     H93279   7.709   4.358   7.624  0.2197 -1.1795  0.3717
  691MOL0     H93280   7.639   4.480   7.525  2.1650 -0.1591  1.4375
  691MOL0     H93281   7.832   4.432   7.350 -1.9213  3.2520  1.9471
  691MOL0     H93282   7.892   4.311   7.472 -1.1485 -0.9123  0.1005
  691MOL0     H93283   7.981   4.686   7.647  1.6684 -0.7686  1.0736
  691MOL0     H93284   7.201   4.326   7.520  0.8712  2.0538 -1.1500
  691MOL0     H93285   6.949   4.311   7.473  0.1520  0.3397 -0.7595
  692MOL0     O93286   1.254   4.390   1.760  0.1337  0.7209  0.1293
  692MOL0     C93287   1.261   4.268   1.764 -0.1425  0.0204  0.1754
  692MOL0     O93288   1.154   4.178   1.744 -0.4066 -0.2975 -0.4703
  692MOL0     C93289   1.025   4.221   1.708 -0.8548 -0.2503 -0.2993
  692MOL0     C93290   0.958   4.324   1.781  0.1263 -0.9793  0.3909
  692MOL0     C93291   0.835   4.368   1.738  0.1004 -0.8406  0.0316
  692MOL0     C93292   0.776   4.310   1.632 -0.2523 -0.4208 -0.0909
  692MOL0     O93293   0.649   4.357   1.619  0.5474 -0.5285  0.5572
  692MOL0     C93294   0.584   4.337   1.490 -0.5553  0.1914 -0.6633
  692MOL0     C93295   0.450   4.410   1.486  0.2194 -0.0306  0.2401
  692MOL0     C93296   0.459   4.558   1.463 -0.5525  0.1631  0.1768
  692MOL0     C93297   0.330   4.625   1.420  0.6350 -0.1092 -0.9695
  692MOL0     C93298   0.337   4.767   1.368  0.4638 -0.0155 -0.0832
  692MOL0     C93299   0.228   4.821   1.282  0.1049  0.0867 -0.4117
  692MOL0     C93300   0.218   4.972   1.279 -0.4383  0.0787  0.0764
  692MOL0     C93301   0.316   5.043   1.178  0.3692  0.5152  0.1196
  692MOL0     N93302   0.320   5.187   1.197  0.2193 -0.6456 -0.8497
  692MOL0     C93303   0.222   5.271   1.228 -0.5634  0.5655 -0.8286
  692MOL0     C93304   0.272   5.393   1.229  0.2846  0.4624 -0.1807
  692MOL0     C93305   0.199   5.522   1.239  0.3979 -0.1248 -0.3676
  692MOL0     C93306   0.091   5.545   1.135  0.4048  0.5527  0.7422
  692MOL0     C93307   0.015   5.677   1.136  0.0197  0.0296  0.5229
  692MOL0     C93308  -0.047   5.722   1.004 -0.2682  0.7897  0.8990
  692MOL0     O93309  -0.131   5.843   1.009 -0.2415  0.3764 -0.0448
  692MOL0     C93310  -0.251   5.842   1.063  0.1660  0.0862  0.2027
  692MOL0     C93311  -0.307   5.968   1.043 -0.5822  0.2359  0.3962
  692MOL0     C93312  -0.437   5.991   1.080  0.6403 -0.2061 -0.5295
  692MOL0     C93313  -0.488   6.133   1.032 -0.6282 -0.4758 -0.2644
  692MOL0     C93314  -0.508   5.896   1.162 -0.5885 -0.1583  0.1692
  692MOL0     C93315  -0.647   5.910   1.210 -0.3823  0.9240  0.0963
  692MOL0     O93316  -0.707   5.806   1.271  0.7216  0.1505  0.6733
  692MOL0     C93317  -0.828   5.843   1.307 -0.2372 -0.1466  0.7785
  692MOL0     C93318  -0.938   5.819   1.209  0.4188  0.5929  0.4398
  692MOL0     C93319  -1.067   5.851   1.247  0.2015 -0.6983  0.4649
  692MOL0     C93320  -1.094   5.912   1.370 -0.3264 -0.2091 -0.5370
  692MOL0     O93321  -1.218   5.954   1.419 -0.3570  0.1211  0.3148
  692MOL0     C93322  -1.324   5.905   1.344  0.4277  0.1185  0.2758
  692MOL0     C93323  -1.446   5.996   1.370 -0.4187 -0.1353 -0.0055
  692MOL0     C93324  -1.432   6.128   1.286 -0.5206 -0.7330 -0.7696
  692MOL0     C93325  -1.534   6.240   1.306 -0.0042  0.3659  0.5480
  692MOL0     C93326  -1.680   6.201   1.290  0.6134  0.4055  0.3849
  692MOL0     C93327  -1.767   6.330   1.291  0.6419 -1.0870 -0.4295
  692MOL0     C93328  -1.920   6.297   1.289  0.0041 -0.1400  0.2579
  692MOL0     C93329  -2.010   6.414   1.256  0.9509  0.2027  0.1822
  692MOL0    Cl93330  -2.185   6.352   1.265 -0.0143  0.0974 -0.3469
  692MOL0     C93331  -0.985   5.919   1.465  0.2229 -0.5204 -0.4281
  692MOL0     C93332  -0.852   5.884   1.433  0.7822 -0.0671  0.4402
  692MOL0     O93333  -0.689   6.019   1.203 -0.0965 -1.0215  0.7821
  692MOL0     C93334  -0.440   5.776   1.183  0.5701 -0.5254 -0.3535
  692MOL0     C93335  -0.316   5.744   1.133 -0.3642  1.2467  0.0425
  692MOL0     N93336   0.408   5.378   1.209  0.5137  0.2366  0.3816
  692MOL0     N93337   0.439   5.250   1.196 -0.6479 -0.0128 -0.0478
  692MOL0     C93338   0.832   4.206   1.561  0.1230  0.6578  0.6240
  692MOL0     C93339   0.962   4.162   1.600 -0.1712 -0.2268 -0.2493
  692MOL0     C93340   1.392   4.199   1.792  0.1871  0.5337  0.3532
  692MOL0     C93341   1.511   4.275   1.807  0.6812  0.1884 -0.2149
  692MOL0     C93342   1.642   4.224   1.805  0.5622  0.2229 -0.7259
  692MOL0     C93343   1.659   4.084   1.797 -0.5561 -0.0317  0.4007
  692MOL0     O93344   1.784   4.026   1.804  0.7004  0.5088 -0.0319
  692MOL0     C93345   1.901   4.102   1.833 -0.6176  0.6591 -0.0175
  692MOL0     C93346   2.014   4.005   1.884 -0.0184  0.2836 -0.3596
  692MOL0     C93347   2.102   3.941   1.773 -0.5925  0.0779 -0.2944
  692MOL0     C93348   2.022   3.836   1.695 -0.1405  0.5518  0.2428
  692MOL0     C93349   2.122   3.771   1.614 -0.3401  0.6927  0.6557
  692MOL0     C93350   2.208   3.712   1.554 -0.4609  0.2333 -0.4179
  692MOL0     C93351   1.542   4.010   1.804  1.2185 -0.2890  0.6578
  692MOL0     C93352   1.413   4.062   1.802  0.6110  0.4261  0.4327
  692MOL0     H93353   1.002   4.377   1.865 -2.7164  0.3205  1.1620
  692MOL0     H93354   0.788   4.434   1.810  1.8056 -0.3384  0.7391
  692MOL0     H93355   0.652   4.379   1.415  1.2069 -0.1531  0.6621
  692MOL0     H93356   0.564   4.231   1.478  0.9194 -0.7041  3.1813
  692MOL0     H93357   0.400   4.363   1.401  3.8192 -0.5254 -1.7982
  692MOL0     H93358   0.391   4.382   1.574  1.5844 -0.1649  1.1378
  692MOL0     H93359   0.500   4.602   1.555 -1.5478  0.3456  0.5483
  692MOL0     H93360   0.524   4.590   1.381 -1.4789  1.3413 -0.1280
  692MOL0     H93361   0.291   4.564   1.338 -0.3148 -1.2049  0.2407
  692MOL0     H93362   0.255   4.621   1.500  4.5979 -1.0551  3.1487
  692MOL0     H93363   0.353   4.824   1.461 -3.0498  0.2774  0.4964
  692MOL0     H93364   0.429   4.773   1.311 -0.1190 -0.9239 -1.1468
  692MOL0     H93365   0.217   4.782   1.181 -0.2748  1.6652 -1.0066
  692MOL0     H93366   0.136   4.789   1.332 -0.7471  0.0343 -1.9566
  692MOL0     H93367   0.116   4.995   1.248 -0.7522  1.0930  1.6919
  692MOL0     H93368   0.239   5.023   1.374 -0.6583  0.2375  0.0408
  692MOL0     H93369   0.301   5.016   1.073  0.7269 -0.5975  0.3403
  692MOL0     H93370   0.415   5.001   1.197  0.9074  0.5256 -2.3140
  692MOL0     H93371   0.121   5.230   1.223 -0.3576 -0.0420 -0.1447
  692MOL0     H93372   0.165   5.531   1.343  0.3373 -2.9804 -0.0529
  692MOL0     H93373   0.273   5.600   1.225  0.5229 -0.3033 -0.6923
  692MOL0     H93374   0.017   5.466   1.148  0.6992  0.3626  1.2573
  692MOL0     H93375   0.145   5.532   1.040 -1.8136 -1.6413 -0.3173
  692MOL0     H93376   0.078   5.760   1.169 -1.5101  0.6117  2.1437
  692MOL0     H93377  -0.062   5.668   1.214 -0.2266  1.5644  0.4838
  692MOL0     H93378  -0.107   5.641   0.962 -0.5487  0.2501  2.2921
  692MOL0     H93379   0.040   5.752   0.944  0.8949 -2.2274  0.9438
  692MOL0     H93380  -0.253   6.044   0.987 -2.5226 -0.6923 -3.0173
  692MOL0     H93381  -0.524   6.201   1.110 -0.2916 -1.6423  0.9399
  692MOL0     H93382  -0.407   6.187   0.982  0.4597 -2.9240 -1.3426
  692MOL0     H93383  -0.571   6.126   0.962 -1.8887 -0.1659  1.1494
  692MOL0     H93384  -0.921   5.783   1.108  1.3058  1.0671  0.4068
  692MOL0     H93385  -1.138   5.829   1.168  0.7088  2.6401 -1.1002
  692MOL0     H93386  -1.310   5.885   1.238  0.3940 -0.9178  0.4561
  692MOL0     H93387  -1.346   5.810   1.393  3.3105 -0.4683  0.6311
  692MOL0     H93388  -1.536   5.946   1.334  0.9576 -3.3061  0.6705
  692MOL0     H93389  -1.455   6.000   1.479 -1.5578 -2.7044  0.0496
  692MOL0     H93390  -1.433   6.090   1.183  0.2727 -0.7766 -0.7724
  692MOL0     H93391  -1.334   6.174   1.301 -0.8944  0.4381 -1.7670
  692MOL0     H93392  -1.523   6.285   1.405  1.6266  0.2102  0.4574
  692MOL0     H93393  -1.519   6.314   1.226  0.8499 -0.4278 -0.0467
  692MOL0     H93394  -1.698   6.125   1.366  2.9000 -2.1633 -1.4258
  692MOL0     H93395  -1.697   6.146   1.197 -1.6824  0.2784  0.8288
  692MOL0     H93396  -1.735   6.383   1.381 -1.8055 -1.6925  0.8920
  692MOL0     H93397  -1.748   6.400   1.209  0.7377 -0.6304 -0.0234
  692MOL0     H93398  -1.947   6.250   1.384 -1.0920  0.9854  0.5473
  692MOL0     H93399  -1.940   6.230   1.205 -0.7280 -0.4082  0.6351
  692MOL0     H93400  -1.982   6.455   1.158  0.0161  1.1691  0.3093
  692MOL0     H93401  -2.002   6.497   1.326 -1.7831  2.5167 -2.0443
  692MOL0     H93402  -1.011   5.972   1.557 -1.4136 -0.2771 -1.0009
  692MOL0     H93403  -0.773   5.892   1.507 -0.8476  0.1338  2.2255
  692MOL0     H93404  -0.501   5.697   1.226 -1.6038  1.2109 -0.0674
  692MOL0     H93405  -0.286   5.641   1.145 -2.0256  0.5535 -1.2895
  692MOL0     H93406   0.779   4.177   1.471 -2.0034  0.8461  1.7511
  692MOL0     H93407   1.025   4.104   1.534  0.7053  1.6587 -1.1564
  692MOL0     H93408   1.503   4.383   1.813 -0.8878  0.0375  1.0902
  692MOL0     H93409   1.728   4.291   1.808  0.7242 -0.0200  1.3019
  692MOL0     H93410   1.937   4.151   1.743 -2.4979  1.0283 -0.6173
  692MOL0     H93411   1.880   4.173   1.914  0.6543  0.5616  0.4078
  692MOL0     H93412   1.974   3.923   1.945 -1.8766  0.3377 -1.4099
  692MOL0     H93413   2.083   4.061   1.947  0.8188 -0.7901 -0.2974
  692MOL0     H93414   2.188   3.895   1.822  0.3679  1.8686 -0.1939
  692MOL0     H93415   2.136   4.017   1.701  0.5716  0.8138  0.9847
  692MOL0     H93416   1.944   3.889   1.639 -2.9624 -0.2301  3.1248
  692MOL0     H93417   1.976   3.762   1.761  1.2459 -1.2027 -0.6760
  692MOL0     H93418   2.296   3.669   1.508 -0.4171 -0.3875  0.2385
  692MOL0     H93419   1.563   3.904   1.807 -2.2194 -1.0802  3.9971
  692MOL0     H93420   1.324   4.003   1.787  2.1167 -1.5440 -1.4516
  693MOL0     O93421   2.593   8.725   0.250  0.1790 -0.3754 -0.4542
  693MOL0     C93422   2.665   8.812   0.288 -1.2286  0.0724 -0.2270
  693MOL0     O93423   2.645   8.944   0.277 -0.2283  0.2388  0.8473
  693MOL0     C93424   2.539   8.988   0.211  0.3057  0.1683  0.2219
  693MOL0     C93425   2.558   9.104   0.133 -1.1890  0.1787  0.6668
  693MOL0     C93426   2.448   9.166   0.069  0.0559 -0.0985 -0.2309
  693MOL0     C93427   2.315   9.111   0.076  0.5390 -0.3498  0.1118
  693MOL0     O93428   2.215   9.192   0.029 -0.1974  0.4398 -0.9981
  693MOL0     C93429   2.081   9.156   0.055  0.2994 -0.6491  0.8814
  693MOL0     C93430   1.993   9.262  -0.007 -0.1830 -0.2545 -0.6710
  693MOL0     C93431   1.854   9.267   0.049  0.2236  0.4734  0.1730
  693MOL0     C93432   1.755   9.187  -0.044  0.2396 -0.0474 -0.8009
  693MOL0     C93433   1.622   9.169   0.037  0.7992 -0.4086 -0.5603
  693MOL0     C93434   1.568   9.306   0.086  0.5089 -0.2633  0.7790
  693MOL0     C93435   1.416   9.284   0.103 -0.6407  0.6605 -0.6777
  693MOL0     C93436   1.344   9.408   0.153 -0.2249 -0.3270  0.8493
  693MOL0     N93437   1.201   9.383   0.160  0.5111  0.2315  0.3467
  693MOL0     C93438   1.115   9.446   0.068  0.6198 -0.6118 -0.4441
  693MOL0     C93439   0.988   9.402   0.101  0.0037 -0.1219  0.6404
  693MOL0     C93440   0.859   9.425   0.028  0.0155 -0.4334  0.1229
  693MOL0     C93441   0.780   9.302  -0.011 -1.2745  0.0036 -0.4561
  693MOL0     C93442   0.643   9.342  -0.020  0.5232  0.8257  0.4026
  693MOL0     C93443   0.554   9.230  -0.060 -0.3034  0.1151  0.3469
  693MOL0     O93444   0.428   9.279  -0.012  0.4129  0.2142 -0.1220
  693MOL0     C93445   0.313   9.192  -0.011  0.0278  0.2932  0.0322
  693MOL0     C93446   0.203   9.250   0.045 -0.8876  0.6403  0.1771
  693MOL0     C93447   0.081   9.180   0.054  0.1030  0.5776  0.1806
  693MOL0     C93448  -0.033   9.254   0.121  0.1087 -0.4264  0.5065
  693MOL0     C93449   0.068   9.057  -0.018  0.0664 -0.1735 -0.3508
  693MOL0     C93450  -0.058   8.980  -0.028  0.2212 -0.2277 -0.2208
  693MOL0     O93451  -0.048   8.865  -0.097 -0.3701 -0.8065  0.6749
  693MOL0     C93452  -0.153   8.786  -0.134 -0.8514 -0.2866 -0.0716
  693MOL0     C93453  -0.146   8.737  -0.271  0.3350  0.1200 -0.1521
  693MOL0     C93454  -0.253   8.662  -0.327 -0.2896 -0.6144  0.0276
  693MOL0     C93455  -0.365   8.633  -0.242 -0.3855  0.3834  0.6946
  693MOL0     O93456  -0.452   8.559  -0.310  0.4133  0.4732  0.2229
  693MOL0     C93457  -0.582   8.565  -0.267 -0.3153 -0.5730  0.3127
  693MOL0     C93458  -0.676   8.490  -0.364  0.4670  1.1476 -0.2562
  693MOL0     C93459  -0.816   8.480  -0.301  0.4897 -0.4609  0.5240
  693MOL0     C93460  -0.907   8.584  -0.346 -1.0360  0.0372  0.3065
  693MOL0     C93461  -1.041   8.557  -0.277  0.5850  0.1943 -0.1602
  693MOL0     C93462  -1.137   8.662  -0.331  0.7312  0.3417 -0.4509
  693MOL0     C93463  -1.191   8.630  -0.472  0.6925 -0.1673 -0.0673
  693MOL0     C93464  -1.307   8.733  -0.496  0.1944  0.4131  0.5053
  693MOL0    Cl93465  -1.247   8.902  -0.471  0.1256  0.0499 -0.2115
  693MOL0     C93466  -0.365   8.673  -0.106  0.9316 -0.3005  0.4886
  693MOL0     C93467  -0.261   8.750  -0.059 -0.5197  0.6006  0.6837
  693MOL0     O93468  -0.162   9.021   0.021  1.0613  0.7319  0.1543
  693MOL0     C93469   0.184   8.999  -0.071  0.5000 -0.5379  0.0038
  693MOL0     C93470   0.304   9.070  -0.071  0.3793  0.0919 -0.0632
  693MOL0     N93471   1.002   9.328   0.216  0.5206  0.3006 -0.0849
  693MOL0     N93472   1.127   9.317   0.249  0.6725  0.0914  0.1734
  693MOL0     C93473   2.291   8.992   0.144 -0.7269  0.2537 -0.0338
  693MOL0     C93474   2.407   8.942   0.218  0.3491 -0.4770  0.6366
  693MOL0     C93475   2.804   8.769   0.314 -0.9220 -0.8880 -0.0401
  693MOL0     C93476   2.836   8.640   0.357 -0.3306 -0.0842  0.3728
  693MOL0     C93477   2.968   8.600   0.368  0.7159 -0.3280  0.1716
  693MOL0     C93478   3.075   8.686   0.345  0.6828 -0.1893  0.6422
  693MOL0     O93479   3.208   8.653   0.361 -0.1095  0.0841  0.0153
  693MOL0     C93480   3.245   8.515   0.375 -0.2715  0.4171  0.3888
  693MOL0     C93481   3.398   8.506   0.380  0.1002  0.0235  0.3090
  693MOL0     C93482   3.450   8.361   0.366 -0.0429  0.5305  0.2576
  693MOL0     C93483   3.428   8.284   0.492  0.9935  0.4786 -0.1686
  693MOL0     C93484   3.537   8.199   0.523  0.1448  0.1101 -0.6067
  693MOL0     C93485   3.624   8.128   0.553 -0.3998 -0.0407 -0.1408
  693MOL0     C93486   3.047   8.825   0.315  0.8262 -0.0636 -0.2850
  693MOL0     C93487   2.915   8.862   0.299  0.1288  0.3028  0.0109
  693MOL0     H93488   2.658   9.142   0.115 -2.1248  0.8113 -5.1786
  693MOL0     H93489   2.458   9.250  -0.000  1.7199  0.4779  0.6539
  693MOL0     H93490   2.062   9.057   0.013 -0.7510  0.3840 -1.2029
  693MOL0     H93491   2.066   9.157   0.164 -1.2585  0.0339  0.6827
  693MOL0     H93492   2.035   9.362   0.010  2.4197 -1.1432 -1.3364
  693MOL0     H93493   1.983   9.240  -0.114 -1.3828 -1.8390 -0.2632
  693MOL0     H93494   1.852   9.218   0.147  0.0756 -2.7520 -1.3085
  693MOL0     H93495   1.817   9.367   0.073 -1.8140 -0.3908  0.8310
  693MOL0     H93496   1.724   9.254  -0.124 -1.3295  0.0295 -0.1719
  693MOL0     H93497   1.792   9.090  -0.080 -0.7326 -1.1407  0.9385
  693MOL0     H93498   1.543   9.121  -0.022 -1.4489  0.3294  1.6437
  693MOL0     H93499   1.637   9.099   0.120  1.7925 -1.2805 -1.4441
  693MOL0     H93500   1.610   9.340   0.181  0.4800  3.8047 -0.4530
  693MOL0     H93501   1.595   9.374   0.004  1.5463 -2.1963 -0.5589
  693MOL0     H93502   1.382   9.267   0.001  1.8834  1.2792 -1.6774
  693MOL0     H93503   1.395   9.204   0.175 -1.0696  2.7134  1.6472
  693MOL0     H93504   1.368   9.493   0.087  1.4495 -1.7576 -0.4812
  693MOL0     H93505   1.377   9.434   0.254 -0.8665 -1.5256  1.3861
  693MOL0     H93506   1.144   9.512  -0.013 -0.2754  0.2795 -0.0535
  693MOL0     H93507   0.798   9.490   0.092 -1.6023 -0.5283 -1.2789
  693MOL0     H93508   0.874   9.485  -0.062 -1.8091 -0.2272 -0.0690
  693MOL0     H93509   0.786   9.231   0.072 -1.4002  2.6662  1.9794
  693MOL0     H93510   0.806   9.244  -0.100  3.0430  1.9270 -0.6961
  693MOL0     H93511   0.644   9.428  -0.088  1.2200  0.0811 -0.5590
  693MOL0     H93512   0.613   9.374   0.080 -0.9345 -0.6088  0.4522
  693MOL0     H93513   0.575   9.138  -0.005 -0.8175  1.2137  2.4466
  693MOL0     H93514   0.563   9.218  -0.169 -2.1841 -0.0175  0.1609
  693MOL0     H93515   0.217   9.354   0.073 -0.0621  0.9022 -1.1402
  693MOL0     H93516  -0.058   9.195   0.210  0.7011 -0.5666  0.5856
  693MOL0     H93517   0.013   9.347   0.154  2.4925 -0.9118 -1.1377
  693MOL0     H93518  -0.116   9.283   0.056  2.2750  2.1722 -1.3081
  693MOL0     H93519  -0.055   8.766  -0.323  0.3611  0.1405 -0.0934
  693MOL0     H93520  -0.241   8.620  -0.426 -2.3206 -0.7977 -0.1818
  693MOL0     H93521  -0.594   8.514  -0.171 -0.5479 -1.2067 -0.0443
  693MOL0     H93522  -0.612   8.670  -0.256  0.5810 -0.1679 -0.8987
  693MOL0     H93523  -0.672   8.540  -0.462  2.0598 -0.3280 -0.9957
  693MOL0     H93524  -0.647   8.386  -0.378 -1.8913  0.4704 -0.6384
  693MOL0     H93525  -0.810   8.502  -0.194  2.4664  0.5077  0.2710
  693MOL0     H93526  -0.868   8.386  -0.322 -1.1229  0.0867  1.9099
  693MOL0     H93527  -0.876   8.686  -0.320  0.6693 -0.0294 -1.2774
  693MOL0     H93528  -0.919   8.583  -0.455 -1.1105 -3.3146  0.2620
  693MOL0     H93529  -1.037   8.561  -0.168 -0.1752 -1.2646 -0.0489
  693MOL0     H93530  -1.079   8.460  -0.311 -2.2393  1.8588 -2.0781
  693MOL0     H93531  -1.215   8.679  -0.256  1.2529  1.6388 -0.1771
  693MOL0     H93532  -1.081   8.756  -0.331 -0.0043  0.8089 -2.1656
  693MOL0     H93533  -1.232   8.530  -0.485  2.8069 -0.9295 -1.3838
  693MOL0     H93534  -1.110   8.661  -0.539  1.7211  2.1721  2.0481
  693MOL0     H93535  -1.392   8.714  -0.430 -1.0637 -0.6999 -1.3705
  693MOL0     H93536  -1.333   8.720  -0.601 -0.1875  0.1351  0.6307
  693MOL0     H93537  -0.457   8.646  -0.055  0.2035 -0.5269 -0.9044
  693MOL0     H93538  -0.265   8.777   0.046 -2.6086 -2.2783  1.4428
  693MOL0     H93539   0.188   8.908  -0.129  3.7006 -0.3140 -0.3055
  693MOL0     H93540   0.380   9.033  -0.140 -2.0251 -0.9558 -2.3298
  693MOL0     H93541   2.192   8.947   0.154 -0.7467  0.2348 -0.3023
  693MOL0     H93542   2.378   8.852   0.272 -1.4944 -0.5313 -0.3718
  693MOL0     H93543   2.766   8.559   0.369  2.0574 -2.4863 -0.8271
  693MOL0     H93544   2.998   8.497   0.389 -1.4092 -0.4413  3.5096
  693MOL0     H93545   3.216   8.469   0.470  3.1604  0.5559  1.6598
  693MOL0     H93546   3.203   8.451   0.298 -1.7428 -0.5789  1.9347
  693MOL0     H93547   3.435   8.543   0.476  0.5260  3.0276 -0.9165
  693MOL0     H93548   3.446   8.568   0.304 -0.1980  1.0944  0.9800
  693MOL0     H93549   3.558   8.353   0.349  0.0527 -2.2956  1.7564
  693MOL0     H93550   3.394   8.318   0.283 -1.4303  0.3271  1.2693
  693MOL0     H93551   3.345   8.217   0.465  2.4069 -0.4983 -2.3007
  693MOL0     H93552   3.406   8.349   0.577  0.2422 -0.1645  0.1450
  693MOL0     H93553   3.701   8.055   0.567 -0.2752  0.2825  0.9240
  693MOL0     H93554   3.123   8.902   0.318 -0.0086  0.7440  1.1193
  693MOL0     H93555   2.883   8.966   0.295  3.3362  1.5262  2.0128
  694MOL0     O93556   0.537   6.653   1.657 -1.0949  0.3191  0.7279
  694MOL0     C93557   0.636   6.722   1.624 -0.7064  0.0278  0.6224
  694MOL0     O93558   0.646   6.811   1.518 -0.6061 -0.5801 -0.0785
  694MOL0     C93559   0.541   6.851   1.447 -0.0729 -0.4754 -0.4662
  694MOL0     C93560   0.423   6.897   1.509  0.4945 -0.2432 -0.1524
  694MOL0     C93561   0.319   6.948   1.432  0.7686 -0.1324  0.1933
  694MOL0     C93562   0.333   6.966   1.296  0.4290 -0.3282 -0.5772
  694MOL0     O93563   0.221   7.009   1.225  0.1279  0.0260 -0.4260
  694MOL0     C93564   0.233   7.049   1.085 -0.7972  0.4768  0.6103
  694MOL0     C93565   0.099   7.061   1.019  0.1100 -0.5802  0.5341
  694MOL0     C93566   0.008   7.168   1.082 -0.6771 -0.3543  0.1515
  694MOL0     C93567  -0.133   7.175   1.022 -0.6855 -0.0302  0.4799
  694MOL0     C93568  -0.219   7.275   1.111 -0.1496 -0.0776  0.6200
  694MOL0     C93569  -0.360   7.295   1.054 -0.3461 -0.8412  0.2006
  694MOL0     C93570  -0.455   7.342   1.167  0.2056 -0.3440  0.1320
  694MOL0     C93571  -0.495   7.225   1.262 -1.3452  0.4664  0.3848
  694MOL0     N93572  -0.616   7.251   1.342 -0.6164  0.9267 -0.0603
  694MOL0     C93573  -0.741   7.287   1.296 -0.2272 -0.2239  0.1215
  694MOL0     C93574  -0.816   7.302   1.402 -0.4538 -0.3054 -0.5499
  694MOL0     C93575  -0.962   7.321   1.379 -0.2371  0.6089  0.1715
  694MOL0     C93576  -1.012   7.472   1.381  0.4914  0.2676  0.7424
  694MOL0     C93577  -0.943   7.545   1.487 -0.5306  0.2221  0.1849
  694MOL0     C93578  -1.012   7.684   1.508 -1.3612  1.0109  0.7413
  694MOL0     O93579  -1.143   7.646   1.544 -0.2171 -0.4129 -0.3146
  694MOL0     C93580  -1.234   7.747   1.568  0.5119  0.2524  0.5979
  694MOL0     C93581  -1.370   7.711   1.566  0.0437 -0.2454  0.8306
  694MOL0     C93582  -1.478   7.806   1.570 -0.5610  0.8363 -0.1681
  694MOL0     C93583  -1.620   7.746   1.589  0.2874  0.9252  0.5351
  694MOL0     C93584  -1.448   7.943   1.577 -0.6094  0.4877 -0.2206
  694MOL0     C93585  -1.561   8.040   1.560  0.0871 -0.3924  0.6065
  694MOL0     O93586  -1.532   8.147   1.489 -0.2439  0.7729 -0.2596
  694MOL0     C93587  -1.629   8.209   1.422 -0.9481 -0.7252 -1.2239
  694MOL0     C93588  -1.659   8.343   1.450 -0.4122 -0.2585  0.4206
  694MOL0     C93589  -1.760   8.414   1.378  0.3446 -0.4611  0.1957
  694MOL0     C93590  -1.831   8.349   1.271 -0.1188 -1.1664  0.6186
  694MOL0     O93591  -1.920   8.435   1.204 -0.1713  0.0564  0.0406
  694MOL0     C93592  -2.007   8.392   1.104  0.7607  0.5225  0.4553
  694MOL0     C93593  -2.106   8.500   1.058  0.0751 -0.1428  0.3742
  694MOL0     C93594  -2.180   8.568   1.176  0.5132 -0.4415 -0.7631
  694MOL0     C93595  -2.097   8.697   1.233 -0.0584 -0.5066  0.4203
  694MOL0     C93596  -2.175   8.755   1.356  0.7417  0.6974  0.1713
  694MOL0     C93597  -2.294   8.838   1.305  0.9691  0.6711 -0.1006
  694MOL0     C93598  -2.354   8.912   1.421  0.2605  0.0429 -0.1769
  694MOL0     C93599  -2.474   8.988   1.367 -0.1084 -0.3353 -0.5753
  694MOL0    Cl93600  -2.606   8.881   1.311 -0.1028  0.0494 -0.7252
  694MOL0     C93601  -1.797   8.221   1.244 -0.2252  0.2490  0.5866
  694MOL0     C93602  -1.702   8.145   1.319  0.2948  0.1536  0.0492
  694MOL0     O93603  -1.669   8.016   1.603  0.5033 -0.4998  0.7376
  694MOL0     C93604  -1.308   7.979   1.573  0.2238  0.1685  0.2751
  694MOL0     C93605  -1.209   7.883   1.571  0.0184 -0.0094  0.0791
  694MOL0     N93606  -0.741   7.281   1.515  0.1536  0.0830  0.1766
  694MOL0     N93607  -0.622   7.242   1.482 -0.3419  0.2899  0.4226
  694MOL0     C93608   0.460   6.936   1.233  0.0831 -0.3197  0.0772
  694MOL0     C93609   0.565   6.875   1.307  0.1367  0.1895 -0.3311
  694MOL0     C93610   0.760   6.706   1.714 -0.1496  0.4804  0.0363
  694MOL0     C93611   0.785   6.599   1.797 -1.1106  0.2471  0.7741
  694MOL0     C93612   0.899   6.594   1.883 -0.0776 -0.1822 -0.7232
  694MOL0     C93613   0.992   6.700   1.891  0.2254 -0.1790  0.3673
  694MOL0     O93614   1.106   6.683   1.964 -0.0292 -0.1601 -0.9131
  694MOL0     C93615   1.200   6.791   1.991 -0.4775 -0.1817 -0.1658
  694MOL0     C93616   1.320   6.776   1.899 -0.0092  0.3070 -0.3472
  694MOL0     C93617   1.398   6.908   1.902 -0.0246  0.3293  0.2361
  694MOL0     C93618   1.331   7.031   1.835 -0.7041 -0.7653  0.7461
  694MOL0     C93619   1.433   7.137   1.823  0.2515 -0.2761  0.4486
  694MOL0     C93620   1.523   7.218   1.817 -0.0581  0.0124  0.3836
  694MOL0     C93621   0.969   6.814   1.810  0.6612  0.1196 -0.6404
  694MOL0     C93622   0.851   6.817   1.730 -0.0328  0.2561 -0.2965
  694MOL0     H93623   0.406   6.893   1.616  0.8937 -1.4709 -0.1240
  694MOL0     H93624   0.223   6.976   1.476  0.1572 -1.3349 -0.3219
  694MOL0     H93625   0.275   7.150   1.081 -2.3819  1.1406 -0.3825
  694MOL0     H93626   0.293   6.975   1.032 -1.6371 -0.2979  0.7204
  694MOL0     H93627   0.117   7.082   0.914  2.7700 -2.9511  0.4011
  694MOL0     H93628   0.051   6.963   1.013 -1.9996  0.4852 -2.6698
  694MOL0     H93629   0.002   7.143   1.188 -1.6664  0.9365  0.4270
  694MOL0     H93630   0.069   7.259   1.079  1.1665 -1.4479  2.0308
  694MOL0     H93631  -0.130   7.201   0.916 -1.8865 -0.4621  0.3273
  694MOL0     H93632  -0.183   7.078   1.014 -0.5415 -0.1239  0.6880
  694MOL0     H93633  -0.216   7.239   1.214 -0.0386 -0.5050  0.4701
  694MOL0     H93634  -0.168   7.371   1.126 -0.4838  0.4692 -1.3785
  694MOL0     H93635  -0.365   7.379   0.984 -1.1332  1.3607  2.7413
  694MOL0     H93636  -0.394   7.205   1.003 -0.9382 -0.0572 -0.8335
  694MOL0     H93637  -0.404   7.417   1.230  4.4539 -0.8029 -2.3407
  694MOL0     H93638  -0.548   7.388   1.133  0.5793  0.1652 -0.2240
  694MOL0     H93639  -0.407   7.199   1.320 -0.4424  0.9272 -0.7382
  694MOL0     H93640  -0.522   7.143   1.194  2.5257 -0.4567 -0.2798
  694MOL0     H93641  -0.761   7.322   1.195  2.0695  1.3974  0.1662
  694MOL0     H93642  -0.995   7.262   1.293 -0.1212 -1.9715  1.7768
  694MOL0     H93643  -1.006   7.262   1.461  0.5217  0.3133  0.3694
  694MOL0     H93644  -1.120   7.485   1.383  0.3043 -0.7941 -0.8736
  694MOL0     H93645  -0.980   7.519   1.287 -1.5399 -0.0876 -0.1730
  694MOL0     H93646  -0.836   7.560   1.471 -0.3018  1.3078  2.2891
  694MOL0     H93647  -0.946   7.478   1.574 -1.5178 -1.1100 -0.8244
  694MOL0     H93648  -1.013   7.748   1.419  1.6008 -0.4995 -0.5187
  694MOL0     H93649  -0.960   7.752   1.577  0.1249  2.3696 -1.5953
  694MOL0     H93650  -1.394   7.605   1.561  0.4366 -0.2699 -0.9428
  694MOL0     H93651  -1.658   7.767   1.690 -4.2660 -0.7131 -0.6118
  694MOL0     H93652  -1.696   7.798   1.530 -1.0107  0.3982  1.6844
  694MOL0     H93653  -1.613   7.644   1.551  1.0313  0.8873  0.7437
  694MOL0     H93654  -1.593   8.393   1.520  1.5626 -0.6061 -1.1097
  694MOL0     H93655  -1.790   8.515   1.403 -1.9979 -1.7267  2.9933
  694MOL0     H93656  -1.941   8.368   1.021  0.5349  1.0174  0.1262
  694MOL0     H93657  -2.055   8.298   1.132 -2.4318  1.2120 -2.0555
  694MOL0     H93658  -2.050   8.570   0.995 -2.3429  0.6116 -1.0670
  694MOL0     H93659  -2.183   8.461   0.992 -0.1937  0.7862  0.1262
  694MOL0     H93660  -2.187   8.498   1.260 -0.9843 -0.8310 -1.1967
  694MOL0     H93661  -2.283   8.592   1.148 -0.5251  1.3830  3.6992
  694MOL0     H93662  -1.995   8.673   1.265  0.0497  1.5359  1.8445
  694MOL0     H93663  -2.081   8.779   1.163  0.9272 -0.3198  0.8562
  694MOL0     H93664  -2.110   8.822   1.413 -1.1216  1.2592  1.7236
  694MOL0     H93665  -2.211   8.672   1.417  1.8454  0.3689  0.3808
  694MOL0     H93666  -2.266   8.905   1.223  2.1914  0.7351  0.3537
  694MOL0     H93667  -2.372   8.768   1.271  1.8179  0.1602 -1.0494
  694MOL0     H93668  -2.281   8.977   1.470  0.0259 -0.4928  0.9133
  694MOL0     H93669  -2.382   8.833   1.492  1.1067 -0.8893 -0.8501
  694MOL0     H93670  -2.448   9.052   1.283  0.5824  1.0162  0.6175
  694MOL0     H93671  -2.518   9.045   1.450 -1.0003 -1.3562 -0.3231
  694MOL0     H93672  -1.851   8.169   1.166 -2.4107 -0.5671  2.5331
  694MOL0     H93673  -1.699   8.039   1.299 -2.5838  0.1699 -0.9595
  694MOL0     H93674  -1.280   8.083   1.574 -0.4281  0.3669  2.1238
  694MOL0     H93675  -1.107   7.915   1.552  0.7645 -1.9289  0.6303
  694MOL0     H93676   0.469   6.963   1.128 -0.4205  0.0427  0.1229
  694MOL0     H93677   0.653   6.834   1.259  1.4553 -1.1208  2.9456
  694MOL0     H93678   0.713   6.518   1.798  0.5459 -1.3212 -0.2164
  694MOL0     H93679   0.918   6.498   1.929 -2.5053 -0.1767  0.4246
  694MOL0     H93680   1.162   6.894   1.988 -1.1336 -0.4132 -2.8043
  694MOL0     H93681   1.253   6.778   2.085  3.0031 -0.3092 -1.9753
  694MOL0     H93682   1.301   6.744   1.796  0.6520 -0.7997 -0.1407
  694MOL0     H93683   1.372   6.694   1.949 -1.2585 -0.1476  0.2509
  694MOL0     H93684   1.487   6.885   1.842 -1.9039 -0.3666 -2.4918
  694MOL0     H93685   1.426   6.919   2.007 -0.5314 -2.2087  0.7160
  694MOL0     H93686   1.246   7.062   1.897  0.5006 -0.1633  2.1645
  694MOL0     H93687   1.294   6.995   1.739  1.8243 -2.3071  0.2501
  694MOL0     H93688   1.605   7.287   1.807  0.2389 -0.3375  0.4140
  694MOL0     H93689   1.043   6.893   1.807 -0.7445  1.5939  1.1620
  694MOL0     H93690   0.849   6.899   1.658  0.9413 -1.5342 -2.4775
  695MOL0     O93691   8.003   6.447   1.735  0.4616 -0.6185  0.5291
  695MOL0     C93692   8.089   6.376   1.790  0.3613 -0.3880  0.7581
  695MOL0     O93693   8.078   6.244   1.803 -0.4655  0.2311  0.3342
  695MOL0     C93694   7.968   6.168   1.774 -0.2288 -0.0895 -0.6599
  695MOL0     C93695   7.837   6.207   1.821 -0.0113 -0.2545  0.3011
  695MOL0     C93696   7.733   6.119   1.798 -0.1243  0.2706  0.4406
  695MOL0     C93697   7.750   5.990   1.738 -0.0170 -0.0527 -0.7485
  695MOL0     O93698   7.644   5.900   1.749 -0.0781  0.5705 -0.3918
  695MOL0     C93699   7.656   5.761   1.702  0.2178 -0.2121  0.0894
  695MOL0     C93700   7.519   5.701   1.706 -0.7463 -0.1218  0.5843
  695MOL0     C93701   7.470   5.633   1.833  0.7307 -1.4253 -0.7116
  695MOL0     C93702   7.472   5.729   1.956 -0.4187  0.6464  0.9080
  695MOL0     C93703   7.367   5.841   1.943 -0.3097  0.4745 -0.4027
  695MOL0     C93704   7.233   5.787   1.987 -0.5521  1.1902 -0.6282
  695MOL0     C93705   7.212   5.793   2.134 -0.3972  0.0172  0.0195
  695MOL0     C93706   7.065   5.765   2.170  0.1989  0.1340 -0.0559
  695MOL0     N93707   6.983   5.884   2.142 -0.6003 -0.0632 -0.2144
  695MOL0     C93708   6.898   5.899   2.036  0.6031  0.4981  0.3999
  695MOL0     C93709   6.840   6.021   2.070  0.4612 -0.3427  0.3205
  695MOL0     C93710   6.736   6.110   2.014  0.4098  0.0026 -0.4472
  695MOL0     C93711   6.584   6.079   2.041 -0.1338 -0.1260  0.0486
  695MOL0     C93712   6.537   5.963   1.950 -0.8985  0.2272  0.9526
  695MOL0     C93713   6.391   5.924   1.996 -0.0152 -0.0530  0.3888
  695MOL0     O93714   6.295   6.033   1.964 -0.1495  0.8452  0.6367
  695MOL0     C93715   6.154   6.009   1.968  0.6360  0.2737  0.4678
  695MOL0     C93716   6.075   6.115   1.942 -0.0506 -0.6834 -0.1533
  695MOL0     C93717   5.934   6.105   1.948 -0.3626 -1.3467  0.5280
  695MOL0     C93718   5.850   6.233   1.900  0.5345 -0.4889 -0.6040
  695MOL0     C93719   5.877   5.987   2.002 -0.0148 -0.2034 -0.0147
  695MOL0     C93720   5.730   5.964   2.028 -0.4914  0.2216  0.0280
  695MOL0     O93721   5.654   6.080   2.071 -0.0012  0.7050 -0.0631
  695MOL0     C93722   5.513   6.075   2.074  0.3457 -0.2410 -0.0774
  695MOL0     C93723   5.445   6.001   1.982  0.6483 -0.4755 -1.0140
  695MOL0     C93724   5.307   6.004   1.989 -0.6242  0.2139  0.7997
  695MOL0     C93725   5.235   6.082   2.075  0.0966  1.5857 -0.8583
  695MOL0     O93726   5.101   6.042   2.098  0.2256 -0.2050 -0.1242
  695MOL0     C93727   5.011   6.138   2.153 -0.2288 -1.1052  0.1147
  695MOL0     C93728   4.997   6.264   2.061  0.2225  0.0854 -0.0517
  695MOL0     C93729   4.961   6.253   1.910  0.0903 -0.0991 -0.0629
  695MOL0     C93730   4.819   6.198   1.890 -0.3895  0.1901 -0.9334
  695MOL0     C93731   4.759   6.234   1.758  0.3283  0.3963  0.4344
  695MOL0     C93732   4.831   6.183   1.643 -0.6982  0.0215  0.2504
  695MOL0     C93733   4.779   6.232   1.507  1.0080 -0.0764  0.0503
  695MOL0     C93734   4.882   6.194   1.400  0.2933  0.6281 -0.1271
  695MOL0    Cl93735   5.038   6.288   1.422 -0.6957  0.5378  0.0764
  695MOL0     C93736   5.305   6.173   2.154 -0.0854  0.7753 -0.0492
  695MOL0     C93737   5.447   6.160   2.162  0.3093 -0.3250 -0.6255
  695MOL0     O93738   5.694   5.851   2.012  0.4772  0.3343 -0.4928
  695MOL0     C93739   5.965   5.881   2.045  0.2642  0.6603  0.8148
  695MOL0     C93740   6.099   5.889   2.019 -0.6343  0.3830  1.0397
  695MOL0     N93741   6.909   6.073   2.176  0.0345  0.0721 -0.6364
  695MOL0     N93742   6.997   5.995   2.214  0.1527 -0.4615  0.1577
  695MOL0     C93743   7.874   5.955   1.685  0.0627 -0.3985 -0.6610
  695MOL0     C93744   7.983   6.047   1.704 -0.4307 -1.0427  0.3119
  695MOL0     C93745   8.215   6.435   1.838  0.9200 -0.1102  0.0771
  695MOL0     C93746   8.321   6.358   1.888 -0.3424  0.3028  0.4976
  695MOL0     C93747   8.436   6.419   1.939  0.1289 -0.5884 -0.4376
  695MOL0     C93748   8.458   6.556   1.944  0.1499 -0.5516 -0.0620
  695MOL0     O93749   8.565   6.631   1.989 -0.0962 -0.2237  0.1624
  695MOL0     C93750   8.661   6.566   2.073  0.2104  1.0592  0.1223
  695MOL0     C93751   8.804   6.533   2.014  0.0769  0.7185  0.7091
  695MOL0     C93752   8.806   6.431   1.893  0.2838 -1.0345 -0.5283
  695MOL0     C93753   8.931   6.355   1.872 -0.0177  0.1382 -0.0930
  695MOL0     C93754   8.898   6.241   1.794  0.4465 -0.2482  0.5032
  695MOL0     C93755   8.864   6.138   1.742 -0.8290  0.1491  0.6934
  695MOL0     C93756   8.355   6.636   1.882  1.2995 -0.3698 -0.4727
  695MOL0     C93757   8.242   6.568   1.828  0.4701 -1.0396  0.1251
  695MOL0     H93758   7.819   6.296   1.880 -0.3493 -1.6384  2.3732
  695MOL0     H93759   7.636   6.145   1.839 -0.6077 -0.0753 -0.4411
  695MOL0     H93760   7.705   5.764   1.604 -1.4253  2.1379 -0.7816
  695MOL0     H93761   7.727   5.713   1.770  1.8141 -0.3352 -1.5927
  695MOL0     H93762   7.454   5.785   1.679 -0.4918  0.9813  3.1733
  695MOL0     H93763   7.513   5.631   1.621 -1.8339  0.9126 -0.2281
  695MOL0     H93764   7.375   5.578   1.830 -0.6392  0.8362 -0.5924
  695MOL0     H93765   7.543   5.554   1.855  1.7783 -0.3477 -0.2320
  695MOL0     H93766   7.443   5.660   2.036  1.9610 -0.2320  1.0843
  695MOL0     H93767   7.570   5.768   1.986 -0.0913 -2.2549  4.2536
  695MOL0     H93768   7.392   5.915   2.020  0.3690 -0.7925  0.6528
  695MOL0     H93769   7.360   5.879   1.841 -3.7048 -0.7695 -0.7624
  695MOL0     H93770   7.162   5.857   1.942 -0.4409  1.6797 -0.0623
  695MOL0     H93771   7.221   5.687   1.945  2.0726  1.1906 -1.5579
  695MOL0     H93772   7.273   5.719   2.184 -0.5196  1.4597  2.4482
  695MOL0     H93773   7.241   5.892   2.170  2.0452 -0.0054 -1.6592
  695MOL0     H93774   7.049   5.752   2.277 -2.5491  1.9297 -0.1667
  695MOL0     H93775   7.027   5.670   2.131 -2.9457  1.0548  0.5545
  695MOL0     H93776   6.857   5.823   1.969  0.1408  2.1220 -1.2398
  695MOL0     H93777   6.761   6.208   2.058  1.1497 -0.7241  0.8094
  695MOL0     H93778   6.753   6.137   1.909 -0.0276 -0.6668 -0.6895
  695MOL0     H93779   6.520   6.163   2.012  0.1407  0.5989  1.4806
  695MOL0     H93780   6.572   6.063   2.149 -1.5531  1.3022  0.1494
  695MOL0     H93781   6.597   5.872   1.955  3.2384  2.7620  2.3620
  695MOL0     H93782   6.533   5.989   1.844 -2.7523 -2.9116  0.1019
  695MOL0     H93783   6.392   5.909   2.105 -0.9846  1.3077  0.6153
  695MOL0     H93784   6.357   5.829   1.954 -3.4348  1.3065 -0.2907
  695MOL0     H93785   6.117   6.212   1.917 -1.6317  0.7198  2.3225
  695MOL0     H93786   5.913   6.313   1.861  2.5416 -1.0228  1.3111
  695MOL0     H93787   5.783   6.195   1.823  1.0937 -2.0347 -0.3798
  695MOL0     H93788   5.791   6.277   1.980  2.7713 -0.6939  1.2912
  695MOL0     H93789   5.500   5.956   1.900  1.0887 -0.5937 -0.6558
  695MOL0     H93790   5.249   5.942   1.921 -0.2405 -2.1361  2.5035
  695MOL0     H93791   4.918   6.083   2.169 -2.2828  2.1445  0.0506
  695MOL0     H93792   5.061   6.156   2.249  0.9220 -2.0165 -0.2891
  695MOL0     H93793   4.916   6.323   2.105  1.0166  0.7500  0.5546
  695MOL0     H93794   5.088   6.323   2.072 -0.9803  2.0789 -0.1725
  695MOL0     H93795   5.032   6.187   1.858 -0.1799 -2.4357  2.3167
  695MOL0     H93796   4.967   6.352   1.864  0.2126  0.6162  1.4172
  695MOL0     H93797   4.821   6.091   1.912  1.9055  0.1140 -1.2530
  695MOL0     H93798   4.758   6.257   1.960  1.7604  0.7935  0.5278
  695MOL0     H93799   4.738   6.341   1.749 -1.1122  0.2234  1.3076
  695MOL0     H93800   4.663   6.181   1.765  0.4245  0.4608  2.8261
  695MOL0     H93801   4.938   6.204   1.644 -0.6868  0.5164 -2.3701
  695MOL0     H93802   4.825   6.074   1.643  2.8209 -0.3220 -1.2402
  695MOL0     H93803   4.768   6.340   1.520  3.9252  0.4260 -0.8936
  695MOL0     H93804   4.686   6.176   1.492  0.9219 -0.0172  0.3646
  695MOL0     H93805   4.830   6.223   1.309 -2.5362  2.1451  1.8298
  695MOL0     H93806   4.900   6.086   1.409 -2.6963  0.1954  2.4256
  695MOL0     H93807   5.244   6.230   2.224  0.9223  0.6306  0.9672
  695MOL0     H93808   5.513   6.229   2.214  1.6912  0.5673 -3.3519
  695MOL0     H93809   5.934   5.781   2.074 -3.8679  1.6708  0.4533
  695MOL0     H93810   6.168   5.806   2.031 -1.6049 -0.8057 -1.0601
  695MOL0     H93811   7.890   5.852   1.654 -2.7360 -1.0599 -0.1902
  695MOL0     H93812   8.077   6.017   1.660 -0.3077 -1.3686  0.7828
  695MOL0     H93813   8.308   6.251   1.876 -1.6322  0.4241  0.7309
  695MOL0     H93814   8.511   6.350   1.975  0.5750  0.0946 -0.0257
  695MOL0     H93815   8.674   6.632   2.159 -0.3660  0.6693  0.5184
  695MOL0     H93816   8.621   6.479   2.126  0.6017  1.7229  1.5290
  695MOL0     H93817   8.874   6.511   2.096  0.1276 -0.8506  0.2763
  695MOL0     H93818   8.834   6.628   1.971  0.7227 -0.4853 -1.6416
  695MOL0     H93819   8.764   6.483   1.806 -2.2142 -2.3253 -0.2082
  695MOL0     H93820   8.726   6.361   1.919  0.3839 -0.9893 -0.0889
  695MOL0     H93821   8.970   6.321   1.968  1.1917 -1.7633 -1.1951
  695MOL0     H93822   9.008   6.413   1.820 -1.3505  1.0508 -1.1287
  695MOL0     H93823   8.841   6.050   1.686  0.3330  0.4566 -0.3065
  695MOL0     H93824   8.368   6.744   1.877  2.5345 -0.4564  0.4335
  695MOL0     H93825   8.168   6.626   1.774  1.7661 -0.4546 -1.0724
  696MOL0     O93826   3.266   1.764   5.564  0.2943  0.9989  0.1052
  696MOL0     C93827   3.333   1.668   5.538 -1.0104  0.0288  0.4605
  696MOL0     O93828   3.291   1.541   5.519  0.3735  0.0486 -0.2550
  696MOL0     C93829   3.154   1.512   5.542 -0.6196 -0.2699  0.0857
  696MOL0     C93830   3.130   1.398   5.626  0.0548 -0.6100 -0.5847
  696MOL0     C93831   2.998   1.371   5.658  0.0925 -0.0343  0.5586
  696MOL0     C93832   2.892   1.446   5.615  0.5098  0.7744  0.1719
  696MOL0     O93833   2.759   1.424   5.643 -0.5681  0.1046  0.1974
  696MOL0     C93834   2.711   1.293   5.675 -0.5280 -0.0003  0.3223
  696MOL0     C93835   2.552   1.275   5.654  0.2244  0.0845  0.4666
  696MOL0     C93836   2.460   1.310   5.769 -1.0980 -0.1694 -0.4608
  696MOL0     C93837   2.314   1.293   5.718  0.3414 -0.4474  0.4166
  696MOL0     C93838   2.223   1.315   5.833  0.8315 -0.5093 -0.2287
  696MOL0     C93839   2.200   1.196   5.932  0.2409  0.6250 -0.1918
  696MOL0     C93840   2.087   1.098   5.906 -0.0691  1.0785  0.3312
  696MOL0     C93841   1.937   1.149   5.884 -0.7297  0.9293 -0.8469
  696MOL0     N93842   1.838   1.030   5.888 -0.1769  0.0091 -0.2774
  696MOL0     C93843   1.720   1.028   5.816 -0.1503 -0.3171 -0.0471
  696MOL0     C93844   1.666   0.915   5.840  0.4513  0.6978 -0.0248
  696MOL0     C93845   1.538   0.859   5.786  0.1076 -0.0281  0.3413
  696MOL0     C93846   1.456   0.817   5.898  0.5309 -0.0712 -0.5610
  696MOL0     C93847   1.313   0.784   5.860 -0.2240  0.0160 -0.0884
  696MOL0     C93848   1.257   0.700   5.973  0.7950  0.1660 -0.2142
  696MOL0     O93849   1.115   0.684   5.938  0.5431  0.1840  0.2693
  696MOL0     C93850   1.084   0.582   5.853  0.0416 -0.4899 -0.9309
  696MOL0     C93851   0.949   0.556   5.834  0.5450  0.2517  0.7290
  696MOL0     C93852   0.891   0.466   5.739 -0.4572 -0.3467  0.7979
  696MOL0     C93853   0.745   0.480   5.714  0.6900 -0.1545  0.5210
  696MOL0     C93854   0.984   0.397   5.658  0.5235  0.3955  0.0103
  696MOL0     C93855   0.945   0.311   5.544 -0.3547 -0.3653 -0.5760
  696MOL0     O93856   0.812   0.290   5.524  0.0153 -0.1993 -0.0469
  696MOL0     C93857   0.764   0.236   5.407  1.6016 -0.0524 -0.8024
  696MOL0     C93858   0.650   0.160   5.416  0.5711 -0.1334 -0.5842
  696MOL0     C93859   0.573   0.122   5.306 -0.2319 -0.6321 -0.0552
  696MOL0     C93860   0.616   0.154   5.177  1.0745 -0.7673 -0.0183
  696MOL0     O93861   0.527   0.110   5.074 -0.1092 -0.3438 -0.0660
  696MOL0     C93862   0.592   0.114   4.942 -0.2134  0.5491  0.8386
  696MOL0     C93863   0.488   0.093   4.836 -0.3865 -0.3077 -0.6740
  696MOL0     C93864   0.419   0.224   4.795  0.0571 -0.1022  0.2914
  696MOL0     C93865   0.278   0.215   4.735 -0.1625 -0.5806 -0.5770
  696MOL0     C93866   0.279   0.127   4.611 -0.0362 -0.1384 -0.0689
  696MOL0     C93867   0.143   0.143   4.544 -0.1212 -0.1029  0.2880
  696MOL0     C93868   0.159   0.080   4.404  0.0624 -0.3066 -0.4103
  696MOL0     C93869   0.016   0.084   4.333 -0.7039 -0.3910  0.4274
  696MOL0    Cl93870  -0.100  -0.017   4.433  0.1734 -0.0308 -0.0809
  696MOL0     C93871   0.735   0.231   5.161  0.6260 -0.1040 -1.0538
  696MOL0     C93872   0.798   0.277   5.281 -0.6053 -0.3709 -0.1858
  696MOL0     O93873   1.032   0.261   5.480  0.4705  0.5690  0.0141
  696MOL0     C93874   1.121   0.399   5.700 -0.2178 -0.0613  0.8603
  696MOL0     C93875   1.173   0.491   5.786 -1.0634 -0.9608  0.3653
  696MOL0     N93876   1.743   0.850   5.931  0.5398  0.2605 -0.2108
  696MOL0     N93877   1.844   0.912   5.961 -0.6821  0.0043 -0.1405
  696MOL0     C93878   2.918   1.558   5.535 -0.0467 -0.3436  0.2697
  696MOL0     C93879   3.047   1.589   5.496 -0.2758  0.2561 -0.6559
  696MOL0     C93880   3.478   1.683   5.528 -0.0823  0.3003 -0.3941
  696MOL0     C93881   3.559   1.570   5.538 -1.0063  0.0249  0.0565
  696MOL0     C93882   3.695   1.581   5.517 -0.6002  0.2459  0.2706
  696MOL0     C93883   3.759   1.711   5.508  0.1120 -0.3345 -0.4678
  696MOL0     O93884   3.891   1.736   5.489 -0.3902  0.1667 -0.2225
  696MOL0     C93885   3.970   1.627   5.465 -0.9707 -0.5414 -0.1512
  696MOL0     C93886   4.107   1.663   5.404 -0.4255 -0.0397  0.4847
  696MOL0     C93887   4.214   1.571   5.465 -0.0716  0.1953 -0.4708
  696MOL0     C93888   4.357   1.607   5.413  0.6614 -0.1675  0.5257
  696MOL0     C93889   4.461   1.546   5.500  0.5766  0.3075  0.1669
  696MOL0     C93890   4.536   1.499   5.587 -0.3623 -0.1181 -0.5637
  696MOL0     C93891   3.682   1.819   5.523 -0.0929 -0.2679 -0.0152
  696MOL0     C93892   3.537   1.813   5.508 -0.3727  0.2001 -0.9237
  696MOL0     H93893   3.208   1.335   5.667  0.4452  1.4224  2.0404
  696MOL0     H93894   2.981   1.278   5.710  2.5034 -4.0335 -4.8870
  696MOL0     H93895   2.759   1.215   5.615 -0.0254  0.5712 -0.0328
  696MOL0     H93896   2.728   1.275   5.781  1.0644 -1.2753 -0.1105
  696MOL0     H93897   2.510   1.324   5.565 -2.3286 -2.9082 -0.1623
  696MOL0     H93898   2.539   1.171   5.623 -0.7236  1.6235 -5.7906
  696MOL0     H93899   2.485   1.227   5.836  0.0368 -0.1223 -0.7953
  696MOL0     H93900   2.476   1.414   5.800 -4.6964  0.8139 -1.4246
  696MOL0     H93901   2.296   1.378   5.653 -0.8592 -1.0574 -0.0948
  696MOL0     H93902   2.289   1.196   5.673  0.4495  0.1254 -0.9121
  696MOL0     H93903   2.261   1.407   5.878 -2.1770  0.7914 -0.0824
  696MOL0     H93904   2.124   1.342   5.794  1.8107 -1.5780 -3.9162
  696MOL0     H93905   2.293   1.139   5.927  0.2332  0.7253 -3.3242
  696MOL0     H93906   2.179   1.241   6.029  0.3994 -1.1970  0.7197
  696MOL0     H93907   2.111   1.034   5.820 -1.3057  0.0770  0.6978
  696MOL0     H93908   2.087   1.033   5.994  0.1723 -0.6174 -0.8519
  696MOL0     H93909   1.925   1.223   5.805  2.0387 -0.1886 -2.4460
  696MOL0     H93910   1.926   1.199   5.981  0.1074 -3.0163  1.5397
  696MOL0     H93911   1.691   1.112   5.753  0.3103  2.6614  3.3427
  696MOL0     H93912   1.481   0.925   5.720  0.8445  0.6182  0.3257
  696MOL0     H93913   1.559   0.765   5.734 -0.5065  0.0424 -0.0343
  696MOL0     H93914   1.467   0.899   5.968  0.9165  0.0047 -0.7084
  696MOL0     H93915   1.496   0.729   5.950  0.7500  0.2295 -0.2165
  696MOL0     H93916   1.298   0.729   5.767 -5.9209  0.1954  0.3923
  696MOL0     H93917   1.249   0.872   5.846 -1.3011 -0.4043  1.8499
  696MOL0     H93918   1.261   0.761   6.064 -0.9993 -0.3479  0.2495
  696MOL0     H93919   1.306   0.604   5.987 -2.3305 -1.4935  0.1669
  696MOL0     H93920   0.883   0.612   5.900  0.3321 -0.2993  0.9949
  696MOL0     H93921   0.690   0.531   5.794  1.2282 -1.0309  1.4769
  696MOL0     H93922   0.721   0.521   5.615 -2.3265 -0.3620  1.0844
  696MOL0     H93923   0.715   0.376   5.725  0.4998 -0.2007 -0.3655
  696MOL0     H93924   0.623   0.135   5.518  0.7794 -2.1913 -0.9797
  696MOL0     H93925   0.485   0.059   5.320  0.2113 -0.9502  1.4909
  696MOL0     H93926   0.638   0.207   4.905 -0.9129 -0.3147 -2.6075
  696MOL0     H93927   0.659   0.028   4.936 -0.6220  0.3101 -0.8056
  696MOL0     H93928   0.536   0.042   4.753  1.5621  0.3183  0.0262
  696MOL0     H93929   0.412   0.028   4.880 -2.3868  1.8640 -0.7099
  696MOL0     H93930   0.484   0.270   4.720  1.3998 -0.2756  1.3072
  696MOL0     H93931   0.409   0.294   4.879 -1.8181  3.4390 -2.6188
  696MOL0     H93932   0.213   0.179   4.815 -0.1530  1.1443  0.2409
  696MOL0     H93933   0.253   0.316   4.701  0.0450 -0.9509 -1.8774
  696MOL0     H93934   0.287   0.022   4.642 -1.9468  0.1851  1.7979
  696MOL0     H93935   0.361   0.151   4.543 -0.0023  1.0918  0.3995
  696MOL0     H93936   0.056   0.096   4.591 -1.9091  1.9634 -0.7749
  696MOL0     H93937   0.117   0.245   4.516 -1.5267 -0.6721 -0.6111
  696MOL0     H93938   0.194  -0.023   4.407 -0.2547 -0.4481 -1.4334
  696MOL0     H93939   0.233   0.137   4.346 -0.1158  0.9963  0.5881
  696MOL0     H93940   0.015   0.054   4.228 -1.4714  0.6650  0.1186
  696MOL0     H93941  -0.020   0.188   4.332 -1.3302 -0.5257 -2.8473
  696MOL0     H93942   0.772   0.249   5.061  1.3275 -0.2076 -0.8239
  696MOL0     H93943   0.877   0.349   5.266 -0.6954 -0.2106  0.0974
  696MOL0     H93944   1.187   0.322   5.662 -0.9060  0.8413 -2.5372
  696MOL0     H93945   1.280   0.483   5.801 -0.2014  1.7298 -2.9571
  696MOL0     H93946   2.835   1.612   5.492 -2.3158 -3.7698 -0.0611
  696MOL0     H93947   3.070   1.678   5.437 -0.8598 -0.4922 -2.0493
  696MOL0     H93948   3.516   1.474   5.565 -1.0341  0.1349  0.4187
  696MOL0     H93949   3.767   1.499   5.513 -0.0790  0.6522  1.0422
  696MOL0     H93950   3.998   1.590   5.565  2.9141  2.9730  0.3139
  696MOL0     H93951   3.928   1.555   5.395  1.6751 -1.2908 -1.1022
  696MOL0     H93952   4.139   1.762   5.438  1.5385 -0.9991  1.6349
  696MOL0     H93953   4.108   1.658   5.295  0.3681  2.1603  0.3500
  696MOL0     H93954   4.193   1.464   5.456  2.5007 -0.3915 -0.0570
  696MOL0     H93955   4.208   1.588   5.573 -1.4383 -0.2321 -0.4612
  696MOL0     H93956   4.375   1.714   5.403  0.0832 -0.1035  0.1216
  696MOL0     H93957   4.376   1.560   5.316  2.6564 -1.5937  1.5267
  696MOL0     H93958   4.613   1.463   5.651 -1.8115  0.5162  1.6733
  696MOL0     H93959   3.720   1.921   5.526 -0.1066 -0.2264  4.4462
  696MOL0     H93960   3.488   1.909   5.498 -0.2473  0.2505 -1.0686
  697MOL0     O93961  10.996   9.798   7.768  0.2621  0.2582 -0.1097
  697MOL0     C93962  11.034   9.732   7.672 -0.0551  0.4265  0.3429
  697MOL0     O93963  10.957   9.685   7.563 -0.5923 -0.2468  0.0824
  697MOL0     C93964  10.826   9.664   7.587  0.0309  0.1849 -0.3753
  697MOL0     C93965  10.790   9.606   7.711  1.0200  0.7291 -0.0457
  697MOL0     C93966  10.655   9.569   7.736 -0.5637  0.0052 -0.2398
  697MOL0     C93967  10.556   9.588   7.640  0.1535  0.9151  0.5680
  697MOL0     O93968  10.430   9.545   7.633  0.1974  0.3857  0.6771
  697MOL0     C93969  10.361   9.533   7.760 -0.2274 -0.1727  0.5152
  697MOL0     C93970  10.323   9.672   7.820 -0.2384  0.0803  0.6678
  697MOL0     C93971  10.280   9.776   7.718  0.1351  0.0608  0.0717
  697MOL0     C93972  10.232   9.916   7.769 -0.3600 -0.1285  0.1151
  697MOL0     C93973  10.106   9.920   7.855 -0.2867  0.7562  0.7069
  697MOL0     C93974   9.995   9.844   7.795 -0.2098  0.1457 -0.2104
  697MOL0     C93975   9.877   9.827   7.902  0.1536  0.4782 -0.0273
  697MOL0     C93976   9.777   9.715   7.859  0.2702 -0.6212  0.0760
  697MOL0     N93977   9.832   9.577   7.856  0.7827  0.1035  0.7907
  697MOL0     C93978   9.810   9.473   7.767 -0.7005  0.2849  0.5090
  697MOL0     C93979   9.882   9.369   7.821 -0.3660  0.3068 -0.0135
  697MOL0     C93980   9.887   9.238   7.761 -0.1416  0.6299  0.2105
  697MOL0     C93981  10.020   9.176   7.726  0.3955 -0.0320  0.0818
  697MOL0     C93982  10.094   9.251   7.611  1.2014  0.4664  0.0804
  697MOL0     C93983  10.218   9.174   7.597 -0.4563 -0.3601  0.2821
  697MOL0     O93984  10.303   9.237   7.500  0.0186 -0.1106  0.5165
  697MOL0     C93985  10.427   9.189   7.482 -0.1969 -0.0632  0.2628
  697MOL0     C93986  10.451   9.052   7.483 -0.3232 -0.0413  0.4286
  697MOL0     C93987  10.580   9.002   7.462 -0.0125  0.7509  0.3842
  697MOL0     C93988  10.587   8.851   7.460 -0.0953  0.6155 -1.2567
  697MOL0     C93989  10.690   9.085   7.443  0.1552 -0.4482 -0.0178
  697MOL0     C93990  10.828   9.032   7.425 -0.0076  0.3923  0.6206
  697MOL0     O93991  10.922   9.125   7.413 -0.1878  0.1822  0.3835
  697MOL0     C93992  11.043   9.092   7.358 -0.0389 -0.1128  0.1373
  697MOL0     C93993  11.062   9.102   7.221  0.0417 -1.2447 -0.5318
  697MOL0     C93994  11.190   9.066   7.171  1.4644 -0.1599  1.0865
  697MOL0     C93995  11.296   9.024   7.253  0.9934 -0.7856  0.0319
  697MOL0     O93996  11.426   9.000   7.214 -0.4328 -0.5823  0.4478
  697MOL0     C93997  11.454   9.002   7.071 -0.1995  0.4315 -1.1562
  697MOL0     C93998  11.599   8.978   7.044  0.5131  0.4445 -0.0305
  697MOL0     C93999  11.643   8.836   7.038 -0.5046  0.1497 -0.5179
  697MOL0     C94000  11.795   8.840   7.031  0.4585  0.0753 -0.2871
  697MOL0     C94001  11.863   8.699   7.014  0.1742 -1.5598 -0.8779
  697MOL0     C94002  12.011   8.727   6.978  0.0920  0.1910  0.1740
  697MOL0     C94003  12.030   8.804   6.851  0.3045 -0.2945 -0.1209
  697MOL0     C94004  12.163   8.767   6.782 -0.1931  0.0606 -0.3150
  697MOL0    Cl94005  12.201   8.900   6.669  0.0058  0.1138  0.5055
  697MOL0     C94006  11.267   9.024   7.382  0.3896  0.6318 -0.6582
  697MOL0     C94007  11.147   9.052   7.434  0.4417  0.4179 -0.2979
  697MOL0     O94008  10.850   8.917   7.415 -0.7810  0.3411 -0.5641
  697MOL0     C94009  10.668   9.219   7.451  0.5320 -0.8371 -0.6008
  697MOL0     C94010  10.537   9.271   7.462  0.3982  0.4082 -0.2517
  697MOL0     N94011   9.948   9.414   7.937 -0.2044  0.5334  0.3189
  697MOL0     N94012   9.926   9.538   7.947  1.2645  0.5585  1.0253
  697MOL0     C94013  10.588   9.653   7.520 -0.6284 -0.1118  0.2165
  697MOL0     C94014  10.723   9.687   7.489 -0.0238 -0.8725  0.1002
  697MOL0     C94015  11.182   9.715   7.665  0.6446 -0.2113 -0.1437
  697MOL0     C94016  11.244   9.690   7.537 -0.7287  1.0046 -0.4782
  697MOL0     C94017  11.383   9.688   7.541 -0.7098  1.4748 -0.0034
  697MOL0     C94018  11.459   9.697   7.655 -0.2946 -1.2906  0.4976
  697MOL0     O94019  11.595   9.681   7.644 -0.1536  0.2655 -0.4660
  697MOL0     C94020  11.679   9.646   7.757 -0.3640  0.6993 -0.3478
  697MOL0     C94021  11.817   9.689   7.709 -1.0364  0.9445  0.6566
  697MOL0     C94022  11.864   9.628   7.575 -0.1017  0.8749  0.0835
  697MOL0     C94023  12.017   9.626   7.559 -0.7389 -0.1819 -0.3327
  697MOL0     C94024  12.069   9.759   7.536 -0.6522 -0.2048 -0.3605
  697MOL0     C94025  12.130   9.863   7.512  0.2084 -0.4241  0.6835
  697MOL0     C94026  11.398   9.736   7.776  0.2706 -0.5111  0.6440
  697MOL0     C94027  11.258   9.731   7.783 -0.3998 -0.1810  0.0652
  697MOL0     H94028  10.873   9.574   7.773  0.9298 -2.5150 -1.4000
  697MOL0     H94029  10.627   9.514   7.825  0.2930 -1.4806 -0.8528
  697MOL0     H94030  10.263   9.486   7.749 -1.0353  1.0515  2.0498
  697MOL0     H94031  10.415   9.473   7.834  0.0532  1.2287  1.4850
  697MOL0     H94032  10.246   9.663   7.898 -1.2494 -1.8479 -0.4751
  697MOL0     H94033  10.400   9.723   7.879 -0.6439  3.2647 -1.2996
  697MOL0     H94034  10.356   9.793   7.641  1.3274 -1.9695  0.7290
  697MOL0     H94035  10.197   9.739   7.659  0.4723  1.6329 -1.4759
  697MOL0     H94036  10.305   9.949   7.844 -0.2609 -2.5804  1.1953
  697MOL0     H94037  10.222   9.991   7.690  3.5809  0.5672  0.0552
  697MOL0     H94038  10.130   9.885   7.956  0.2851 -0.0610  0.2953
  697MOL0     H94039  10.080  10.026   7.854 -3.9848 -0.0262 -0.2936
  697MOL0     H94040   9.961   9.890   7.702  0.9149  1.7671  0.1431
  697MOL0     H94041  10.029   9.741   7.779  0.6076  0.1050  1.6365
  697MOL0     H94042   9.922   9.801   7.998 -1.5952  0.4432  0.8251
  697MOL0     H94043   9.826   9.920   7.927  0.7166  0.1939  2.5142
  697MOL0     H94044   9.733   9.737   7.761 -2.1953 -0.1430  1.2205
  697MOL0     H94045   9.692   9.721   7.928  2.1291 -3.0567  2.8154
  697MOL0     H94046   9.742   9.454   7.684 -0.8492 -1.8611  1.0707
  697MOL0     H94047   9.852   9.169   7.838 -1.1584 -0.0258 -0.8073
  697MOL0     H94048   9.824   9.234   7.672  2.3762 -1.4514 -1.6529
  697MOL0     H94049   9.994   9.073   7.698 -0.3956  0.3056 -0.4448
  697MOL0     H94050  10.082   9.163   7.816  2.5402 -1.0164 -1.4601
  697MOL0     H94051  10.116   9.355   7.639  3.5061 -0.2210  1.0463
  697MOL0     H94052  10.042   9.251   7.515  1.6486 -0.8117 -0.1782
  697MOL0     H94053  10.197   9.069   7.572  0.5121 -0.6898  0.8164
  697MOL0     H94054  10.278   9.167   7.687 -0.4470  1.9071  0.5070
  697MOL0     H94055  10.373   8.977   7.487  1.9118 -2.6324 -1.0762
  697MOL0     H94056  10.653   8.816   7.540 -0.2928 -1.5470 -1.9652
  697MOL0     H94057  10.491   8.801   7.475  0.2134 -0.7765 -3.4549
  697MOL0     H94058  10.631   8.812   7.368  0.3496  0.1842 -0.8639
  697MOL0     H94059  10.986   9.129   7.149  2.2954 -1.9588 -3.3695
  697MOL0     H94060  11.210   9.072   7.065 -0.4197  0.6422  0.7344
  697MOL0     H94061  11.395   8.920   7.030 -2.8142  1.7766 -0.2596
  697MOL0     H94062  11.424   9.092   7.016 -1.6606  1.2562  0.8336
  697MOL0     H94063  11.613   9.025   6.946  5.7964 -1.4589 -0.4834
  697MOL0     H94064  11.659   9.034   7.117  2.5246 -1.9519  0.2757
  697MOL0     H94065  11.607   8.774   6.956  3.0418 -0.7064 -1.6022
  697MOL0     H94066  11.612   8.791   7.133  0.1903  1.1696  0.2035
  697MOL0     H94067  11.821   8.908   6.949 -2.3256  0.5840 -0.8454
  697MOL0     H94068  11.840   8.896   7.113  1.8499 -0.1368 -0.8637
  697MOL0     H94069  11.809   8.642   6.938 -0.7312 -1.1249 -0.5694
  697MOL0     H94070  11.859   8.641   7.107  0.3530  1.5018  1.1778
  697MOL0     H94071  12.069   8.780   7.054  2.0818  1.2148 -1.9412
  697MOL0     H94072  12.062   8.630   6.979 -1.8391 -0.8998  2.4827
  697MOL0     H94073  12.043   8.911   6.867 -0.4376 -0.2318  0.0801
  697MOL0     H94074  11.941   8.793   6.788 -0.4661 -2.1165  1.2114
  697MOL0     H94075  12.137   8.678   6.724 -5.0785  0.2008  1.2085
  697MOL0     H94076  12.248   8.748   6.848 -0.3393  0.8210  0.0951
  697MOL0     H94077  11.340   8.986   7.452 -1.0227 -0.4921  0.2601
  697MOL0     H94078  11.124   9.029   7.537  1.1940 -0.6526 -0.3471
  697MOL0     H94079  10.752   9.288   7.441  0.6850 -0.8880  0.3214
  697MOL0     H94080  10.526   9.378   7.468  2.2651  0.5965  0.4955
  697MOL0     H94081  10.512   9.663   7.443 -0.8279 -0.3270  0.3826
  697MOL0     H94082  10.751   9.729   7.393 -1.1270 -0.4273 -0.0426
  697MOL0     H94083  11.186   9.685   7.445 -1.3995  1.3314 -0.0800
  697MOL0     H94084  11.425   9.681   7.441 -1.4152 -3.3289 -0.1862
  697MOL0     H94085  11.656   9.689   7.855  2.5562 -0.9664  1.2370
  697MOL0     H94086  11.683   9.537   7.772 -2.0594  0.5488 -0.8481
  697MOL0     H94087  11.883   9.670   7.795  0.9667  0.3183 -0.9551
  697MOL0     H94088  11.828   9.798   7.699 -0.5674  0.8062 -0.4661
  697MOL0     H94089  11.817   9.676   7.489  1.2042  1.6066 -0.2465
  697MOL0     H94090  11.833   9.523   7.570 -2.2412  1.4114  0.8793
  697MOL0     H94091  12.047   9.568   7.472 -0.5612 -1.0642  0.3074
  697MOL0     H94092  12.059   9.579   7.649 -0.9888  2.7029  1.4285
  697MOL0     H94093  12.185   9.954   7.496 -1.2390  0.6570  1.5863
  697MOL0     H94094  11.456   9.756   7.865 -0.1998 -0.3352  0.9162
  697MOL0     H94095  11.219   9.750   7.882 -0.0708 -0.7741  0.3141
  698MOL0     O94096   1.090   9.399   6.245  0.3211  0.6371  0.0757
  698MOL0     C94097   1.101   9.491   6.320  0.1844  0.2258  1.0781
  698MOL0     O94098   1.005   9.567   6.362  0.9063 -0.2934 -0.1028
  698MOL0     C94099   0.881   9.571   6.301 -0.3124  0.0445 -0.7053
  698MOL0     C94100   0.870   9.541   6.168 -0.0231 -0.2773 -0.0195
  698MOL0     C94101   0.747   9.546   6.104 -0.4213 -0.7290 -0.0675
  698MOL0     C94102   0.631   9.574   6.179  1.3355 -0.0430  0.6583
  698MOL0     O94103   0.515   9.572   6.109 -0.1395 -0.6109 -0.2034
  698MOL0     C94104   0.385   9.594   6.165 -0.2225 -0.1492 -0.8845
  698MOL0     C94105   0.292   9.673   6.070 -0.0474 -0.0447 -0.7670
  698MOL0     C94106   0.274   9.608   5.936 -0.0825  0.2704  0.1086
  698MOL0     C94107   0.356   9.666   5.813 -0.3012 -0.2319  0.0724
  698MOL0     C94108   0.340   9.569   5.695  0.5063 -0.3925 -0.3971
  698MOL0     C94109   0.440   9.600   5.585 -0.3986 -0.0129  0.2151
  698MOL0     C94110   0.485   9.744   5.549 -0.4094 -0.1129 -0.0643
  698MOL0     C94111   0.604   9.746   5.450 -0.2606  0.9964 -1.0912
  698MOL0     N94112   0.594   9.662   5.332 -0.1118  0.0901 -0.1581
  698MOL0     C94113   0.538   9.687   5.215  0.6927 -0.6570  0.6440
  698MOL0     C94114   0.569   9.586   5.133  1.3491  0.0950  0.2119
  698MOL0     C94115   0.527   9.554   4.991 -0.2786 -0.3711  0.1344
  698MOL0     C94116   0.388   9.607   4.960  0.2629 -0.0724 -0.1341
  698MOL0     C94117   0.323   9.519   4.852  0.2474 -0.6696 -0.1203
  698MOL0     C94118   0.238   9.588   4.756  0.8321 -0.7512 -0.4342
  698MOL0     O94119   0.117   9.640   4.812  0.1899 -0.3217  0.6596
  698MOL0     C94120   0.012   9.667   4.721  0.9163  0.3845 -0.0308
  698MOL0     C94121  -0.119   9.682   4.769 -0.1070  0.2032  0.0033
  698MOL0     C94122  -0.231   9.687   4.681  0.7104  0.0039  0.2843
  698MOL0     C94123  -0.364   9.725   4.738 -0.8484 -1.1221 -1.6803
  698MOL0     C94124  -0.211   9.680   4.542  0.6298 -0.1748 -0.2713
  698MOL0     C94125  -0.313   9.680   4.431  0.2146 -0.1911  0.0650
  698MOL0     O94126  -0.434   9.661   4.485 -0.6267 -0.2531 -0.5760
  698MOL0     C94127  -0.538   9.643   4.396 -0.5030 -0.0503 -0.7746
  698MOL0     C94128  -0.651   9.718   4.414 -0.6182 -0.8070 -0.6974
  698MOL0     C94129  -0.764   9.687   4.346 -0.0191  0.4375  1.2019
  698MOL0     C94130  -0.766   9.579   4.255  0.5139 -0.0623 -0.4959
  698MOL0     O94131  -0.886   9.544   4.196  0.4054 -0.9232  0.1159
  698MOL0     C94132  -0.885   9.437   4.097  0.0504  0.4987 -0.4840
  698MOL0     C94133  -1.035   9.395   4.073  0.1089 -0.5176  0.7967
  698MOL0     C94134  -1.124   9.502   4.022 -0.0927 -0.6653  0.6087
  698MOL0     C94135  -1.264   9.441   3.996  0.8262  0.5633  0.7213
  698MOL0     C94136  -1.359   9.551   3.951  0.1179  0.2198 -0.1508
  698MOL0     C94137  -1.465   9.498   3.848 -1.0933 -0.1416 -1.5001
  698MOL0     C94138  -1.583   9.598   3.833  0.7146  0.1784  0.3225
  698MOL0     C94139  -1.691   9.535   3.745 -0.3279 -1.0388  0.6168
  698MOL0    Cl94140  -1.839   9.638   3.756 -0.0104  0.1352 -0.1424
  698MOL0     C94141  -0.648   9.503   4.235  1.2623 -0.6763  0.3021
  698MOL0     C94142  -0.541   9.528   4.309  0.5889 -0.7213  0.2084
  698MOL0     O94143  -0.277   9.690   4.313  0.8623  0.1990 -0.4357
  698MOL0     C94144  -0.083   9.671   4.499 -0.1808  0.1928  0.7264
  698MOL0     C94145   0.030   9.670   4.584  0.7231  0.0861  1.0382
  698MOL0     N94146   0.657   9.501   5.200  1.0186  1.1704 -0.2601
  698MOL0     N94147   0.674   9.552   5.318 -0.4419  0.1815  0.1235
  698MOL0     C94148   0.642   9.594   6.318  0.4926 -0.3636  0.8509
  698MOL0     C94149   0.767   9.607   6.376 -1.3448 -0.3386 -0.5011
  698MOL0     C94150   1.229   9.504   6.384 -0.6137 -0.4788 -0.4395
  698MOL0     C94151   1.263   9.630   6.441 -0.0074  0.3916  0.4370
  698MOL0     C94152   1.384   9.652   6.490 -0.8452 -0.2690 -0.3807
  698MOL0     C94153   1.492   9.556   6.491  0.6530 -0.4220 -0.3194
  698MOL0     O94154   1.624   9.576   6.523  0.2034 -0.0256 -0.1717
  698MOL0     C94155   1.681   9.707   6.496  1.2618  0.4353 -0.2588
  698MOL0     C94156   1.820   9.717   6.545 -0.1266 -0.2437  0.5895
  698MOL0     C94157   1.820   9.695   6.696  0.1152  0.3397  0.2443
  698MOL0     C94158   1.921   9.787   6.778  0.2482 -0.2654 -0.1419
  698MOL0     C94159   2.069   9.766   6.759 -0.2856 -0.6403  0.1083
  698MOL0     C94160   2.192   9.758   6.763 -0.6193  0.8885  0.0504
  698MOL0     C94161   1.460   9.429   6.436  1.5095 -0.1158 -0.0791
  698MOL0     C94162   1.331   9.407   6.377  0.8552 -0.8003 -0.1424
  698MOL0     H94163   0.954   9.514   6.104  1.4337 -1.1111  2.1360
  698MOL0     H94164   0.740   9.538   5.996 -0.3625  1.5997 -0.3007
  698MOL0     H94165   0.336   9.497   6.181  1.2333 -1.0743 -1.8131
  698MOL0     H94166   0.384   9.657   6.254 -0.4941  0.5196 -1.3506
  698MOL0     H94167   0.193   9.696   6.110 -1.1173 -0.6639 -2.9439
  698MOL0     H94168   0.327   9.776   6.058 -2.5162  0.8333 -0.8291
  698MOL0     H94169   0.296   9.502   5.944  2.7570  0.7698  0.0502
  698MOL0     H94170   0.169   9.625   5.911 -1.0600 -1.0509  2.9176
  698MOL0     H94171   0.318   9.764   5.784 -2.1949 -1.4686 -1.8808
  698MOL0     H94172   0.461   9.672   5.845  0.1741 -0.9079 -1.2797
  698MOL0     H94173   0.354   9.467   5.732  0.0084 -1.3812 -2.7445
  698MOL0     H94174   0.241   9.567   5.649 -0.5708 -1.1979  1.8197
  698MOL0     H94175   0.520   9.532   5.615 -0.1140  1.1878  2.3931
  698MOL0     H94176   0.412   9.553   5.490 -0.2847 -2.2680  1.2318
  698MOL0     H94177   0.401   9.793   5.499  0.8586  0.0991 -2.1163
  698MOL0     H94178   0.518   9.796   5.639  0.9119 -1.7498  0.4549
  698MOL0     H94179   0.693   9.713   5.504  0.2000  2.6233 -0.8067
  698MOL0     H94180   0.608   9.852   5.423  0.9184  0.9952 -0.9439
  698MOL0     H94181   0.479   9.776   5.192  1.5344 -0.3135 -0.2510
  698MOL0     H94182   0.584   9.617   4.923  0.1500  0.0873  0.9020
  698MOL0     H94183   0.544   9.447   4.977  0.5421 -0.4942  1.7671
  698MOL0     H94184   0.401   9.706   4.914  0.1496  0.2794  0.5750
  698MOL0     H94185   0.328   9.608   5.051  0.2846  1.0702 -0.1089
  698MOL0     H94186   0.267   9.449   4.914 -2.3484  2.0351  0.8385
  698MOL0     H94187   0.408   9.475   4.799  0.6188 -0.3074  0.1646
  698MOL0     H94188   0.217   9.514   4.679  2.4950  0.8112 -2.5315
  698MOL0     H94189   0.303   9.667   4.716  0.1620 -0.1675 -0.3946
  698MOL0     H94190  -0.130   9.689   4.876  0.5795 -2.1087  0.2983
  698MOL0     H94191  -0.432   9.640   4.731  0.6671 -2.3888 -1.6146
  698MOL0     H94192  -0.340   9.747   4.842  0.9238 -0.9366 -2.0913
  698MOL0     H94193  -0.404   9.817   4.693  1.0921  0.4343 -0.3885
  698MOL0     H94194  -0.644   9.807   4.476  3.7867 -0.6497 -1.0763
  698MOL0     H94195  -0.854   9.746   4.362  0.8330  2.6507 -1.3833
  698MOL0     H94196  -0.840   9.470   4.003 -1.5899 -1.9947 -2.2779
  698MOL0     H94197  -0.824   9.350   4.126  3.5859  2.8251 -0.2488
  698MOL0     H94198  -1.040   9.312   4.001 -0.6330 -0.4718  0.7884
  698MOL0     H94199  -1.081   9.359   4.165  2.4110 -0.6659  1.9497
  698MOL0     H94200  -1.093   9.554   3.931 -3.1530 -0.2245 -0.2915
  698MOL0     H94201  -1.127   9.581   4.097  2.5895  1.4440 -1.3076
  698MOL0     H94202  -1.253   9.364   3.919 -1.2177 -0.5727  1.4826
  698MOL0     H94203  -1.304   9.404   4.091 -1.4062  0.9752  0.0029
  698MOL0     H94204  -1.295   9.628   3.906 -0.7795  2.5294  2.2413
  698MOL0     H94205  -1.405   9.590   4.042  0.6767  0.8642 -0.1281
  698MOL0     H94206  -1.411   9.492   3.753  1.4832  3.2359 -0.4463
  698MOL0     H94207  -1.494   9.397   3.878 -2.1838  0.8212  0.9764
  698MOL0     H94208  -1.563   9.694   3.785 -2.5505 -0.0125 -1.7655
  698MOL0     H94209  -1.630   9.615   3.930 -2.1416 -0.7391 -0.7866
  698MOL0     H94210  -1.727   9.435   3.773 -5.7268  0.3544 -0.1402
  698MOL0     H94211  -1.655   9.545   3.642 -0.7515  1.7364  0.6663
  698MOL0     H94212  -0.651   9.425   4.160 -2.0135  0.0073 -0.4250
  698MOL0     H94213  -0.451   9.467   4.307  0.4790 -0.8660 -0.9238
  698MOL0     H94214  -0.062   9.656   4.393 -2.6298 -0.2237  0.2392
  698MOL0     H94215   0.130   9.676   4.542  0.5667  2.5011  0.8612
  698MOL0     H94216   0.555   9.624   6.375  1.1919  0.3397  1.5885
  698MOL0     H94217   0.778   9.623   6.483 -0.6002 -1.9621 -0.2954
  698MOL0     H94218   1.193   9.711   6.458  0.2267  0.3119  1.8906
  698MOL0     H94219   1.411   9.750   6.529  2.8472 -1.4701  0.5528
  698MOL0     H94220   1.675   9.720   6.387  1.9075  2.8799 -0.0729
  698MOL0     H94221   1.623   9.788   6.541  1.9975  2.1573 -2.2176
  698MOL0     H94222   1.867   9.811   6.513 -1.8974  0.1047 -1.1431
  698MOL0     H94223   1.878   9.638   6.497  1.3718  0.0484  1.8242
  698MOL0     H94224   1.828   9.588   6.720 -0.1891  0.4218  0.7182
  698MOL0     H94225   1.718   9.716   6.728 -1.4954 -3.0420 -2.0316
  698MOL0     H94226   1.886   9.780   6.881  1.5398  0.1585  0.3448
  698MOL0     H94227   1.897   9.891   6.751  2.7128  0.4996  0.3843
  698MOL0     H94228   2.299   9.753   6.771 -0.6226  0.7030 -0.0196
  698MOL0     H94229   1.537   9.354   6.427  0.9364 -0.9478  1.5149
  698MOL0     H94230   1.310   9.308   6.337  2.9669 -0.5375 -2.0737
  699MOL0     O94231   7.562   4.105   9.167 -0.5160 -0.7139  0.3668
  699MOL0     C94232   7.620   3.999   9.155 -0.1072  0.7546 -0.9517
  699MOL0     O94233   7.577   3.891   9.073  0.4258  0.2846 -0.3884
  699MOL0     C94234   7.469   3.914   8.997 -0.3921 -0.4145  1.0332
  699MOL0     C94235   7.484   3.951   8.861  0.2864 -1.8295  0.5166
  699MOL0     C94236   7.373   3.960   8.770 -0.7012  0.5236 -0.4052
  699MOL0     C94237   7.245   3.946   8.828  0.1868  0.2839  0.3003
  699MOL0     O94238   7.128   3.942   8.758  0.3924 -0.0396 -0.2746
  699MOL0     C94239   7.087   4.068   8.701 -0.3331  0.0931  0.6021
  699MOL0     C94240   7.025   4.040   8.564  0.3734  0.0802  0.0113
  699MOL0     C94241   6.913   4.138   8.531  1.2835  0.5186 -0.5704
  699MOL0     C94242   6.860   4.128   8.387 -0.0973 -0.0299 -0.5805
  699MOL0     C94243   6.765   4.255   8.354  0.8898  0.4463 -0.7403
  699MOL0     C94244   6.720   4.253   8.209 -0.0060  0.3668  0.0245
  699MOL0     C94245   6.645   4.378   8.160  0.5365  1.0094  0.0682
  699MOL0     C94246   6.504   4.398   8.225  1.4280  0.3875  0.8532
  699MOL0     N94247   6.408   4.289   8.191 -0.7668 -0.2718  0.4281
  699MOL0     C94248   6.394   4.176   8.273  0.0712  0.0967 -0.2880
  699MOL0     C94249   6.295   4.116   8.205  0.5740  0.0650  1.1848
  699MOL0     C94250   6.238   3.972   8.242 -0.3428  0.2066 -0.6401
  699MOL0     C94251   6.118   3.923   8.158  0.3039 -0.3634  0.1895
  699MOL0     C94252   6.054   3.789   8.179 -0.0396 -0.1770  0.7094
  699MOL0     C94253   5.917   3.768   8.119 -0.5770 -0.0192  0.2184
  699MOL0     O94254   5.829   3.874   8.167 -0.1076  0.3229  1.0673
  699MOL0     C94255   5.701   3.867   8.133  0.0592 -0.2370 -0.3175
  699MOL0     C94256   5.652   3.778   8.033  0.2692  0.7090  0.7808
  699MOL0     C94257   5.519   3.786   7.987 -0.5713  0.6075 -0.8515
  699MOL0     C94258   5.472   3.674   7.903  0.0101  0.4916  0.6081
  699MOL0     C94259   5.440   3.895   8.018 -1.8074 -0.3726 -0.6993
  699MOL0     C94260   5.305   3.913   7.972  0.1144 -0.5633  0.1140
  699MOL0     O94261   5.223   3.954   8.069 -0.1228 -0.5867 -0.3139
  699MOL0     C94262   5.097   4.001   8.036 -0.2445 -0.6992  1.5572
  699MOL0     C94263   4.987   3.980   8.118 -0.7347 -0.4156  0.0573
  699MOL0     C94264   4.865   4.047   8.090 -0.6752  0.2241 -0.1425
  699MOL0     C94265   4.847   4.130   7.978  0.7709 -0.0681  0.6662
  699MOL0     O94266   4.730   4.197   7.945  0.0788  0.3912 -0.0117
  699MOL0     C94267   4.612   4.181   8.017  0.1194  0.0361 -0.2943
  699MOL0     C94268   4.502   4.275   7.975 -0.1837 -0.6341  0.6717
  699MOL0     C94269   4.495   4.285   7.811  0.1921  0.3739 -0.6946
  699MOL0     C94270   4.396   4.372   7.755 -0.6542  0.0989 -0.5467
  699MOL0     C94271   4.356   4.350   7.609  0.6893  0.4450  0.2697
  699MOL0     C94272   4.455   4.421   7.504  0.2640  0.4554  0.7447
  699MOL0     C94273   4.402   4.436   7.361  0.3650 -0.0897  0.9165
  699MOL0     C94274   4.514   4.444   7.253  0.9855  0.1750 -0.3446
  699MOL0    Cl94275   4.421   4.427   7.101 -0.1064  0.4122 -0.1266
  699MOL0     C94276   4.956   4.157   7.900 -0.5991  0.4416 -0.0263
  699MOL0     C94277   5.078   4.089   7.923 -0.3059 -0.5168 -0.1818
  699MOL0     O94278   5.272   3.891   7.853  0.2198  0.4675 -0.5681
  699MOL0     C94279   5.488   3.987   8.118 -0.4809 -0.3188 -0.0773
  699MOL0     C94280   5.618   3.975   8.177 -0.0021 -0.0504  0.5533
  699MOL0     N94281   6.243   4.188   8.099  0.5545 -0.1611  0.2190
  699MOL0     N94282   6.317   4.294   8.088  0.4375  0.1999 -0.0172
  699MOL0     C94283   7.230   3.895   8.967  0.0948  0.0529 -0.5209
  699MOL0     C94284   7.347   3.879   9.048 -0.6071  0.3840  0.9510
  699MOL0     C94285   7.747   3.976   9.227 -0.4491 -0.8484  0.0419
  699MOL0     C94286   7.808   3.849   9.237  0.8398  0.3244 -0.5190
  699MOL0     C94287   7.927   3.832   9.297  0.6588 -0.1467  0.6532
  699MOL0     C94288   8.001   3.944   9.339 -0.2004 -0.0489  0.0033
  699MOL0     O94289   8.131   3.910   9.379  0.2208 -0.4676 -0.3766
  699MOL0     C94290   8.224   4.015   9.423  0.7818  0.4581 -0.0044
  699MOL0     C94291   8.368   3.967   9.420 -0.2463 -0.1724  0.3855
  699MOL0     C94292   8.387   3.842   9.515  0.3679 -0.1106  0.5470
  699MOL0     C94293   8.511   3.754   9.496 -0.2301 -0.1480 -0.1937
  699MOL0     C94294   8.626   3.839   9.520  0.5075 -0.2611 -0.5774
  699MOL0     C94295   8.736   3.897   9.531  0.2675 -0.0583 -0.3492
  699MOL0     C94296   7.935   4.074   9.356 -0.4443  0.1731  0.9115
  699MOL0     C94297   7.806   4.088   9.304 -0.2352 -0.3422  0.0889
  699MOL0     H94298   7.583   3.972   8.822 -0.1909  0.6113  0.4450
  699MOL0     H94299   7.373   3.964   8.662  0.6314 -1.4618 -0.5217
  699MOL0     H94300   7.013   4.121   8.761 -0.1392 -0.2718  1.1795
  699MOL0     H94301   7.167   4.142   8.690 -0.8397  0.4518 -0.8146
  699MOL0     H94302   7.108   4.035   8.492 -0.5288 -5.9938 -1.1758
  699MOL0     H94303   6.982   3.940   8.549 -1.5107  0.9322 -0.5669
  699MOL0     H94304   6.831   4.131   8.602  1.1297 -0.9409 -0.8657
  699MOL0     H94305   6.948   4.240   8.550 -0.5295  0.9344  0.8049
  699MOL0     H94306   6.940   4.134   8.312 -0.6175  1.1979 -1.0679
  699MOL0     H94307   6.803   4.036   8.374 -3.4039  1.9572 -1.3468
  699MOL0     H94308   6.669   4.253   8.405  0.8554  1.5095 -0.7497
  699MOL0     H94309   6.816   4.348   8.380 -2.1304  1.4530  2.2214
  699MOL0     H94310   6.808   4.237   8.145  1.4517  0.5887  1.8737
  699MOL0     H94311   6.658   4.166   8.187  1.5100 -0.3507 -1.6464
  699MOL0     H94312   6.705   4.468   8.177  0.8928  1.1034 -1.5092
  699MOL0     H94313   6.639   4.364   8.052 -1.4069  1.1646  0.1244
  699MOL0     H94314   6.462   4.492   8.188 -0.0641 -0.2194  0.9061
  699MOL0     H94315   6.507   4.408   8.334 -0.2128 -0.2549  0.9937
  699MOL0     H94316   6.442   4.147   8.367  0.5629  0.4748 -0.4139
  699MOL0     H94317   6.317   3.897   8.233  1.6237  1.8021  2.1047
  699MOL0     H94318   6.204   3.966   8.345  1.7086 -2.2727 -0.0154
  699MOL0     H94319   6.162   3.940   8.059  4.3998  0.4565  1.9388
  699MOL0     H94320   6.041   4.000   8.171 -1.1152 -1.7617  0.3887
  699MOL0     H94321   6.038   3.788   8.287 -3.8569  0.4891  0.2840
  699MOL0     H94322   6.118   3.707   8.145  0.1303  0.2550 -0.0455
  699MOL0     H94323   5.875   3.672   8.151  0.0012  0.5972  3.1651
  699MOL0     H94324   5.927   3.770   8.010 -0.6014  1.2239  0.2354
  699MOL0     H94325   5.700   3.693   7.986 -0.1304  2.1985 -2.6249
  699MOL0     H94326   5.535   3.585   7.911 -2.2528 -1.3503 -0.7097
  699MOL0     H94327   5.373   3.644   7.938  0.9041  0.2365  3.0839
  699MOL0     H94328   5.466   3.696   7.796  3.5968 -1.4439 -0.1417
  699MOL0     H94329   4.992   3.912   8.202  0.9000 -0.6173 -0.1808
  699MOL0     H94330   4.781   4.020   8.152  0.4198  0.5525  1.5578
  699MOL0     H94331   4.563   4.085   7.996 -2.1105  1.3343 -1.4770
  699MOL0     H94332   4.634   4.188   8.124  2.0590 -0.8275 -0.6026
  699MOL0     H94333   4.401   4.245   8.005 -0.1392 -0.8460  0.6098
  699MOL0     H94334   4.518   4.375   8.015  0.1160  0.7931 -2.6982
  699MOL0     H94335   4.479   4.188   7.764 -0.1929  0.2783 -0.3700
  699MOL0     H94336   4.594   4.314   7.773  1.3214  0.7687  2.3235
  699MOL0     H94337   4.309   4.358   7.818 -1.7006  0.0421 -1.9529
  699MOL0     H94338   4.440   4.472   7.768 -1.7885  0.3679  1.4905
  699MOL0     H94339   4.257   4.395   7.596  1.3892  2.0475  0.2391
  699MOL0     H94340   4.345   4.242   7.598 -3.1395  0.6787  0.2282
  699MOL0     H94341   4.478   4.522   7.539 -0.3664  0.4476  1.1922
  699MOL0     H94342   4.544   4.358   7.503 -1.0293 -1.5593  3.1691
  699MOL0     H94343   4.336   4.523   7.361  0.8792  0.3119  0.2613
  699MOL0     H94344   4.348   4.344   7.339  1.6204 -0.7413  0.4958
  699MOL0     H94345   4.590   4.368   7.273 -1.3745 -2.0596  0.7061
  699MOL0     H94346   4.555   4.545   7.264 -1.6603  1.3001 -0.0680
  699MOL0     H94347   4.952   4.234   7.823 -0.1984  3.3893  2.7192
  699MOL0     H94348   5.157   4.110   7.851  0.2839 -2.4068 -0.1392
  699MOL0     H94349   5.422   4.065   8.154 -0.4415 -0.3170 -0.0096
  699MOL0     H94350   5.643   4.040   8.260 -2.3198  0.9068  0.5736
  699MOL0     H94351   7.135   3.854   8.998  0.4620 -0.8317 -0.5270
  699MOL0     H94352   7.344   3.823   9.141 -0.3590 -0.4738  0.4539
  699MOL0     H94353   7.765   3.761   9.190 -3.4545  1.2553  1.2415
  699MOL0     H94354   7.977   3.736   9.309 -0.0150 -0.5096  0.5732
  699MOL0     H94355   8.217   4.106   9.362  0.1429 -1.2263 -2.6327
  699MOL0     H94356   8.194   4.045   9.523 -0.8666  0.7677 -0.5656
  699MOL0     H94357   8.439   4.048   9.439  0.9543 -0.6309 -1.7560
  699MOL0     H94358   8.389   3.932   9.319 -0.3746  1.6939 -0.3266
  699MOL0     H94359   8.294   3.786   9.511 -0.6582  1.5699 -2.6436
  699MOL0     H94360   8.385   3.882   9.617 -0.7002  1.7231 -0.1408
  699MOL0     H94361   8.528   3.718   9.394  3.1727  1.0879 -0.1989
  699MOL0     H94362   8.506   3.668   9.563 -0.1151 -2.0807 -2.5057
  699MOL0     H94363   8.829   3.949   9.543 -0.2072  0.6756  0.2512
  699MOL0     H94364   7.977   4.156   9.413 -0.7423  2.3946 -1.8232
  699MOL0     H94365   7.753   4.182   9.312  2.4485  1.2111  1.3318
  700MOL0     O94366   2.593   5.852   1.508 -0.1721 -0.0833  0.5430
  700MOL0     C94367   2.528   5.954   1.504  0.3941 -0.5051  0.1963
  700MOL0     O94368   2.581   6.081   1.477 -0.6222 -0.6513 -0.8446
  700MOL0     C94369   2.711   6.080   1.443 -0.1495  0.7411  0.5687
  700MOL0     C94370   2.819   6.101   1.531  0.9630 -0.3107  0.6104
  700MOL0     C94371   2.953   6.084   1.508 -0.3757  1.3992 -0.1003
  700MOL0     C94372   2.989   6.046   1.374  0.2901 -0.0603 -1.0342
  700MOL0     O94373   3.118   6.024   1.324  0.4481 -0.6306  0.3728
  700MOL0     C94374   3.224   6.096   1.381 -0.1498  0.3108 -0.2319
  700MOL0     C94375   3.362   6.079   1.316  0.0910 -0.3847 -0.0627
  700MOL0     C94376   3.373   6.156   1.187 -0.2878 -0.6126  0.4217
  700MOL0     C94377   3.314   6.072   1.070  0.4227  0.1417 -0.7727
  700MOL0     C94378   3.307   6.159   0.945  0.4929  0.1990  0.1781
  700MOL0     C94379   3.251   6.076   0.826 -0.0912 -0.3876  0.5442
  700MOL0     C94380   3.101   6.070   0.827  0.6687  0.0041  0.4740
  700MOL0     C94381   3.027   6.206   0.837 -0.0680  0.3967 -0.7755
  700MOL0     N94382   2.887   6.168   0.857  0.3631 -0.7384 -0.1183
  700MOL0     C94383   2.821   6.077   0.778  0.5698 -0.0183 -0.2674
  700MOL0     C94384   2.699   6.072   0.847  0.4203  0.3114 -0.2965
  700MOL0     C94385   2.597   5.966   0.829  0.8993 -0.0744 -0.4690
  700MOL0     C94386   2.589   5.882   0.958  0.3023  0.3867 -1.0669
  700MOL0     C94387   2.496   5.758   0.936 -0.1318 -0.1330 -0.0936
  700MOL0     C94388   2.498   5.665   1.050  0.2370 -0.7410  0.3858
  700MOL0     O94389   2.383   5.581   1.044 -0.9447  0.1977  0.8982
  700MOL0     C94390   2.258   5.633   1.054  0.1003  0.3196 -0.2100
  700MOL0     C94391   2.154   5.574   0.975 -0.0393  0.1178 -0.1576
  700MOL0     C94392   2.019   5.605   0.995 -0.1938  0.2630 -0.5021
  700MOL0     C94393   1.915   5.543   0.903 -0.2601 -0.6482  0.1246
  700MOL0     C94394   1.980   5.682   1.108  0.9079 -0.8672 -0.0307
  700MOL0     C94395   1.836   5.695   1.151  0.0873 -0.5529  0.8523
  700MOL0     O94396   1.749   5.596   1.137 -0.1289 -0.3010 -0.1769
  700MOL0     C94397   1.615   5.616   1.169 -0.2895  0.1405  0.6364
  700MOL0     C94398   1.556   5.554   1.273 -0.2625 -0.8347 -0.2702
  700MOL0     C94399   1.419   5.558   1.297  0.3713 -0.7956 -0.4327
  700MOL0     C94400   1.341   5.645   1.217  0.1568 -0.3927  1.4002
  700MOL0     O94401   1.206   5.650   1.254 -0.1762 -0.2583 -0.8041
  700MOL0     C94402   1.112   5.712   1.168  0.5548 -1.1170 -0.1449
  700MOL0     C94403   1.081   5.630   1.053  0.1608 -0.1719  0.1079
  700MOL0     C94404   0.987   5.681   0.960 -0.4980 -0.0375  1.2853
  700MOL0     C94405   0.851   5.698   1.022  0.2516 -0.2078  0.7653
  700MOL0     C94406   0.746   5.733   0.917 -0.1681  0.1005 -0.1618
  700MOL0     C94407   0.613   5.784   0.976 -0.2121  0.5303  0.8310
  700MOL0     C94408   0.527   5.668   1.024 -0.3843  0.2278 -0.5947
  700MOL0     C94409   0.412   5.633   0.934 -0.3121 -0.0362  0.7958
  700MOL0    Cl94410   0.311   5.787   0.940 -0.2413  0.3112 -0.2123
  700MOL0     C94411   1.400   5.708   1.110  0.6814 -0.3554 -0.8375
  700MOL0     C94412   1.532   5.685   1.079 -0.6211  0.4174 -0.7532
  700MOL0     O94413   1.808   5.798   1.209 -0.2063  0.4761 -0.0029
  700MOL0     C94414   2.082   5.741   1.182  0.5659 -0.1414  0.0293
  700MOL0     C94415   2.217   5.714   1.158 -1.0325  0.2503  0.3628
  700MOL0     N94416   2.692   6.158   0.951  0.6719 -0.1285 -0.3665
  700MOL0     N94417   2.803   6.222   0.953 -0.2389  0.1273  0.6730
  700MOL0     C94418   2.890   6.034   1.282 -0.5460  0.4374  0.3346
  700MOL0     C94419   2.751   6.055   1.308 -0.2140  0.1760  0.4663
  700MOL0     C94420   2.383   5.944   1.526  0.6702 -0.0097 -0.3828
  700MOL0     C94421   2.302   6.059   1.528  0.4792 -0.0621 -0.0694
  700MOL0     C94422   2.161   6.052   1.529 -0.0331  0.6734 -0.9193
  700MOL0     C94423   2.095   5.920   1.539 -0.5727  0.1948  0.5834
  700MOL0     O94424   1.959   5.898   1.546 -0.1390 -0.8013 -0.5795
  700MOL0     C94425   1.876   6.006   1.513  0.4076 -0.6906 -0.3985
  700MOL0     C94426   1.744   5.930   1.519 -0.3393 -1.0267  0.2579
  700MOL0     C94427   1.618   6.004   1.464 -0.7572  0.0269  0.0742
  700MOL0     C94428   1.494   5.912   1.467  0.1905 -0.2809  0.0088
  700MOL0     C94429   1.372   5.972   1.409 -0.4703 -0.0660 -0.0495
  700MOL0     C94430   1.264   6.013   1.362 -0.2780  0.3279 -0.4799
  700MOL0     C94431   2.179   5.807   1.555  0.5839 -0.9268  0.0770
  700MOL0     C94432   2.316   5.825   1.552 -0.0439  0.1145 -0.0023
  700MOL0     H94433   2.777   6.119   1.630  2.8918 -2.2084  1.8741
  700MOL0     H94434   3.022   6.093   1.591  2.6935  3.1921 -2.6118
  700MOL0     H94435   3.187   6.199   1.377 -2.9868 -0.5916 -0.0115
  700MOL0     H94436   3.237   6.066   1.485  0.5131 -2.4408 -1.0140
  700MOL0     H94437   3.437   6.117   1.387 -1.9676  0.1070  1.9563
  700MOL0     H94438   3.397   5.976   1.301 -1.3687 -0.9064 -0.0073
  700MOL0     H94439   3.331   6.257   1.185  1.1041 -0.0189 -0.6925
  700MOL0     H94440   3.481   6.157   1.167 -0.1884 -0.2473  0.9629
  700MOL0     H94441   3.380   5.988   1.044  0.5161 -0.0241 -0.0363
  700MOL0     H94442   3.217   6.031   1.098 -0.4641 -0.7607 -4.5872
  700MOL0     H94443   3.259   6.258   0.947  1.2467  0.5734  1.9546
  700MOL0     H94444   3.407   6.195   0.918  0.3804  2.3627  2.2731
  700MOL0     H94445   3.290   6.116   0.733  1.0366  0.2830  1.2792
  700MOL0     H94446   3.287   5.973   0.837 -1.9075 -1.0684  0.4290
  700MOL0     H94447   3.083   6.021   0.731 -1.8825  2.9043 -0.6900
  700MOL0     H94448   3.061   6.009   0.908 -2.3945  1.4463  0.1753
  700MOL0     H94449   3.041   6.256   0.741 -1.0147 -0.5768 -1.4454
  700MOL0     H94450   3.055   6.274   0.918  0.3504 -0.6804  0.0083
  700MOL0     H94451   2.865   6.025   0.694 -0.9949 -0.1575 -1.0372
  700MOL0     H94452   2.501   6.017   0.815  1.8651  1.9188 -0.2623
  700MOL0     H94453   2.632   5.917   0.738 -1.4860  2.1257 -2.7416
  700MOL0     H94454   2.551   5.951   1.033  0.3790  0.9119 -1.5068
  700MOL0     H94455   2.690   5.850   0.986 -0.6649 -1.9366  0.0319
  700MOL0     H94456   2.531   5.704   0.848 -0.9807  0.9701 -1.1471
  700MOL0     H94457   2.395   5.795   0.914 -0.0783 -0.7299 -1.4206
  700MOL0     H94458   2.502   5.727   1.140 -0.8563  0.9500 -0.6660
  700MOL0     H94459   2.576   5.589   1.043 -2.1945 -3.2662 -3.1100
  700MOL0     H94460   2.190   5.508   0.897  0.5070 -0.2404  0.3907
  700MOL0     H94461   1.875   5.452   0.947  1.7531 -0.1931  3.1853
  700MOL0     H94462   1.839   5.614   0.870  1.9385 -0.2765 -5.2249
  700MOL0     H94463   1.961   5.511   0.809  0.4859 -1.0788  0.6257
  700MOL0     H94464   1.616   5.504   1.348 -1.1731 -2.0320 -0.3113
  700MOL0     H94465   1.365   5.507   1.376 -0.9355  1.1327 -0.0133
  700MOL0     H94466   1.023   5.736   1.228  0.6070  0.6059 -0.7032
  700MOL0     H94467   1.151   5.804   1.125  0.8747 -2.5066 -3.0852
  700MOL0     H94468   1.176   5.616   1.001  0.8555 -0.2875  1.3896
  700MOL0     H94469   1.041   5.533   1.083 -2.0292  0.4957 -0.4570
  700MOL0     H94470   0.975   5.611   0.877 -0.4504  0.3312  0.9675
  700MOL0     H94471   1.028   5.775   0.922 -0.0632 -1.0821 -1.0138
  700MOL0     H94472   0.816   5.600   1.057 -0.5427 -0.4623 -0.6462
  700MOL0     H94473   0.863   5.781   1.092  1.8558 -0.0414  0.3401
  700MOL0     H94474   0.744   5.655   0.841  0.6312 -0.2646  0.1755
  700MOL0     H94475   0.801   5.813   0.867  3.4182 -1.4932  0.8778
  700MOL0     H94476   0.614   5.862   1.052 -2.7507  0.6466  0.8298
  700MOL0     H94477   0.559   5.827   0.891 -1.7221 -3.1316 -0.2479
  700MOL0     H94478   0.493   5.689   1.126  0.3070 -1.7083  0.0938
  700MOL0     H94479   0.584   5.574   1.023  0.0593  0.4908 -2.2817
  700MOL0     H94480   0.363   5.547   0.979 -3.1231  0.7503 -0.5662
  700MOL0     H94481   0.433   5.622   0.827 -0.8227  1.6141  0.4920
  700MOL0     H94482   1.347   5.770   1.038  1.6606 -0.9973 -2.1499
  700MOL0     H94483   1.586   5.709   0.988  0.6380 -0.4950 -0.2790
  700MOL0     H94484   2.056   5.812   1.259  1.5880 -1.4602  1.6420
  700MOL0     H94485   2.292   5.762   1.221 -1.7434  0.5715  0.9870
  700MOL0     H94486   2.908   6.005   1.179  0.2215  3.1989 -0.3964
  700MOL0     H94487   2.678   6.050   1.228  0.2639 -2.2586  0.1001
  700MOL0     H94488   2.344   6.157   1.510 -0.6558 -0.0476 -3.2504
  700MOL0     H94489   2.094   6.137   1.522 -0.4831  0.3198 -0.9277
  700MOL0     H94490   1.876   6.089   1.584  0.2265  0.7731 -2.0432
  700MOL0     H94491   1.886   6.034   1.408 -1.1252 -3.6005 -1.4104
  700MOL0     H94492   1.717   5.899   1.620 -2.4022 -1.2192 -0.3094
  700MOL0     H94493   1.762   5.839   1.460  2.9461  0.3980 -1.2137
  700MOL0     H94494   1.636   6.040   1.363  1.7922 -2.9810 -0.7056
  700MOL0     H94495   1.591   6.092   1.524 -0.5353 -0.9636  1.6970
  700MOL0     H94496   1.463   5.882   1.567 -0.1985  1.6220  0.5087
  700MOL0     H94497   1.515   5.817   1.417 -1.6262 -0.3358 -0.7273
  700MOL0     H94498   1.168   6.044   1.325 -1.1191 -0.7679  0.6893
  700MOL0     H94499   2.125   5.715   1.575  0.0135 -0.6540 -0.2036
  700MOL0     H94500   2.367   5.732   1.577  0.0673  0.3557  0.6956
  701MOL0     O94501   0.972   6.472   9.063 -0.2944  0.1057  0.0007
  701MOL0     C94502   0.990   6.364   9.006  0.1500 -0.0385 -0.0217
  701MOL0     O94503   0.900   6.255   9.005 -0.1296  0.0040 -0.2116
  701MOL0     C94504   0.768   6.249   9.057  0.1888 -0.1920 -0.1949
  701MOL0     C94505   0.702   6.353   9.130  0.2371 -0.1290  0.1169
  701MOL0     C94506   0.574   6.325   9.175 -0.3352  0.0460 -0.1689
  701MOL0     C94507   0.508   6.199   9.139 -0.4708  0.7508  1.0222
  701MOL0     O94508   0.386   6.155   9.180 -0.1487 -0.1350 -0.1692
  701MOL0     C94509   0.285   6.257   9.178  0.0332 -1.3742  0.1415
  701MOL0     C94510   0.179   6.194   9.276  0.3347 -0.4215 -0.1599
  701MOL0     C94511   0.076   6.292   9.329 -0.1209 -0.6600  0.0822
  701MOL0     C94512  -0.017   6.360   9.228 -0.5232 -0.4669  0.4800
  701MOL0     C94513  -0.141   6.421   9.290  0.0444 -0.4495 -1.1045
  701MOL0     C94514  -0.105   6.546   9.369 -0.4092 -0.6629 -0.3013
  701MOL0     C94515  -0.228   6.622   9.445 -0.3824 -0.2497 -0.1179
  701MOL0     C94516  -0.332   6.669   9.342  0.8893  0.6203  0.4248
  701MOL0     N94517  -0.457   6.739   9.398  0.0732 -0.3387  0.0695
  701MOL0     C94518  -0.518   6.861   9.383  0.2043  0.2906  0.4823
  701MOL0     C94519  -0.633   6.856   9.446  0.0683 -0.3384 -0.3103
  701MOL0     C94520  -0.724   6.972   9.473  0.4500  0.0438 -0.5635
  701MOL0     C94521  -0.838   6.977   9.364  0.2692 -0.1740 -0.4867
  701MOL0     C94522  -0.928   7.097   9.399 -0.3202  0.0769 -0.3791
  701MOL0     C94523  -1.010   7.081   9.526 -0.6317  0.1229 -0.6611
  701MOL0     O94524  -1.113   7.182   9.534 -0.3412  0.1350  0.7718
  701MOL0     C94525  -1.234   7.156   9.477  0.1111  0.3237 -0.0795
  701MOL0     C94526  -1.333   7.248   9.497 -0.1873 -0.0827 -0.3704
  701MOL0     C94527  -1.463   7.248   9.449  1.2119 -0.3305  0.7096
  701MOL0     C94528  -1.552   7.358   9.504 -0.4151 -0.4208 -0.1444
  701MOL0     C94529  -1.494   7.136   9.362  0.1747 -0.0221 -0.3086
  701MOL0     C94530  -1.636   7.119   9.307 -0.6035 -0.8091  0.7956
  701MOL0     O94531  -1.679   6.990   9.306 -0.2389 -0.6074 -0.6074
  701MOL0     C94532  -1.806   6.954   9.269 -0.3534 -0.5831  0.3498
  701MOL0     C94533  -1.919   7.026   9.309 -0.3609 -0.2095 -0.8364
  701MOL0     C94534  -2.042   6.987   9.271  0.3464 -0.7790 -0.2745
  701MOL0     C94535  -2.065   6.870   9.200 -0.1696 -0.4698  0.4329
  701MOL0     O94536  -2.192   6.833   9.164  0.1354  0.2116  0.6116
  701MOL0     C94537  -2.224   6.830   9.026  0.7407 -0.7697 -0.6441
  701MOL0     C94538  -2.365   6.878   9.014  0.4248  0.2241  0.4853
  701MOL0     C94539  -2.381   7.028   9.060  0.2439 -0.1885  0.0944
  701MOL0     C94540  -2.292   7.123   8.981  0.0606  0.0853 -0.6651
  701MOL0     C94541  -2.334   7.272   9.001 -0.3693 -0.4800  0.1784
  701MOL0     C94542  -2.328   7.329   9.144 -0.4097  0.0208 -0.3523
  701MOL0     C94543  -2.179   7.343   9.200  0.8186  0.0222  0.8561
  701MOL0     C94544  -2.168   7.397   9.338 -0.1871 -0.6202 -0.1522
  701MOL0    Cl94545  -2.000   7.398   9.388  0.3482 -0.0636  0.5002
  701MOL0     C94546  -1.952   6.792   9.168  0.4022 -0.2932  0.1429
  701MOL0     C94547  -1.824   6.829   9.207 -0.3356 -1.0762  0.8561
  701MOL0     O94548  -1.694   7.212   9.252 -0.7293 -0.0146  0.0133
  701MOL0     C94549  -1.393   7.040   9.333  0.4884  0.4834 -0.4283
  701MOL0     C94550  -1.272   7.043   9.402 -0.4124 -1.0735  0.8319
  701MOL0     N94551  -0.640   6.732   9.514  0.3305  0.0572  0.9522
  701MOL0     N94552  -0.535   6.669   9.489  0.1601  0.4141 -0.2969
  701MOL0     C94553   0.576   6.097   9.063 -1.2004 -1.2424  0.5574
  701MOL0     C94554   0.714   6.124   9.033 -0.2526 -0.1300  0.0236
  701MOL0     C94555   1.122   6.351   8.941 -0.4232 -0.4855  0.6632
  701MOL0     C94556   1.220   6.454   8.944  0.0874 -0.1248  0.3077
  701MOL0     C94557   1.341   6.455   8.868  0.3555  0.3775  0.3009
  701MOL0     C94558   1.374   6.342   8.784 -0.2266  0.1426 -0.0785
  701MOL0     O94559   1.489   6.329   8.722  0.2833 -0.4191  0.1389
  701MOL0     C94560   1.610   6.402   8.755  0.5078 -0.0649  0.3622
  701MOL0     C94561   1.726   6.319   8.730 -0.3569  0.3934  0.9610
  701MOL0     C94562   1.847   6.379   8.793 -0.5137  0.4982 -0.3031
  701MOL0     C94563   1.971   6.332   8.722 -0.6572 -0.0124 -0.3890
  701MOL0     C94564   1.985   6.182   8.725 -0.3142  0.5667 -0.3126
  701MOL0     C94565   2.008   6.066   8.758  0.3806  1.0407 -0.4086
  701MOL0     C94566   1.277   6.238   8.778  0.4681 -0.2458  1.0624
  701MOL0     C94567   1.151   6.240   8.850 -1.0153  0.2711 -0.0182
  701MOL0     H94568   0.752   6.444   9.163  0.3515 -1.1538  3.0928
  701MOL0     H94569   0.524   6.384   9.252 -3.2172  0.7689 -2.4248
  701MOL0     H94570   0.325   6.355   9.207  1.4187 -1.9953  0.4160
  701MOL0     H94571   0.238   6.249   9.080 -0.4806 -4.8127  0.5705
  701MOL0     H94572   0.124   6.120   9.217 -2.3746 -0.0982  1.7720
  701MOL0     H94573   0.217   6.149   9.368  1.8701  1.5453  0.2509
  701MOL0     H94574   0.008   6.228   9.386 -0.3486  1.1807  1.9685
  701MOL0     H94575   0.124   6.365   9.395 -3.9115  2.9879 -0.8047
  701MOL0     H94576   0.040   6.433   9.171  0.2327 -2.5449 -1.5607
  701MOL0     H94577  -0.045   6.288   9.150  2.9654 -0.7384 -0.6765
  701MOL0     H94578  -0.208   6.466   9.217  1.3231  0.4383 -1.7838
  701MOL0     H94579  -0.197   6.354   9.356  0.0308  1.2541  0.7411
  701MOL0     H94580  -0.030   6.513   9.441 -0.9641 -3.5749 -0.9321
  701MOL0     H94581  -0.052   6.621   9.310  1.0948 -0.8164  0.8235
  701MOL0     H94582  -0.270   6.543   9.508  0.7384  0.0262  1.0083
  701MOL0     H94583  -0.197   6.706   9.508 -0.2680 -1.3536  1.3306
  701MOL0     H94584  -0.358   6.578   9.287 -0.5932  1.4431 -0.2878
  701MOL0     H94585  -0.277   6.735   9.274 -0.4043  2.0185  0.6713
  701MOL0     H94586  -0.488   6.951   9.329  0.3214  1.2196  2.0208
  701MOL0     H94587  -0.770   6.953   9.570 -1.1593 -0.3318 -1.3600
  701MOL0     H94588  -0.673   7.069   9.478  0.3682  0.1281 -1.1912
  701MOL0     H94589  -0.886   6.878   9.364  2.7566 -1.4860  1.9061
  701MOL0     H94590  -0.790   6.984   9.266  1.6128  0.0014  0.1704
  701MOL0     H94591  -1.001   7.108   9.318 -0.0176  1.3070 -0.4992
  701MOL0     H94592  -0.864   7.185   9.403 -2.5194  1.8150 -1.2038
  701MOL0     H94593  -0.950   7.089   9.617 -0.9848  1.7768 -0.5384
  701MOL0     H94594  -1.057   6.983   9.525 -1.0402  0.3184 -0.9017
  701MOL0     H94595  -1.301   7.333   9.557  0.0638  0.1698 -0.8569
  701MOL0     H94596  -1.640   7.371   9.441  0.2630  0.6817 -0.9012
  701MOL0     H94597  -1.584   7.330   9.604  0.2748 -0.0841  0.1801
  701MOL0     H94598  -1.501   7.455   9.507 -1.3543  0.0604  1.4051
  701MOL0     H94599  -1.910   7.115   9.370 -0.8839 -2.9124  3.6158
  701MOL0     H94600  -2.126   7.045   9.308 -0.5510 -1.7327 -0.7706
  701MOL0     H94601  -2.143   6.878   8.971  0.2071  1.3558  0.3241
  701MOL0     H94602  -2.219   6.725   8.998  0.3626 -2.3876  4.3366
  701MOL0     H94603  -2.403   6.872   8.912 -0.1927  1.3309  0.6330
  701MOL0     H94604  -2.429   6.813   9.076 -1.7374  3.0481  1.4485
  701MOL0     H94605  -2.352   7.042   9.165 -0.9710  0.1670  0.3918
  701MOL0     H94606  -2.482   7.067   9.049  0.3551 -0.5976 -3.4278
  701MOL0     H94607  -2.193   7.102   9.023 -0.2978  0.1956  0.2445
  701MOL0     H94608  -2.286   7.094   8.876 -0.8043 -0.9759 -0.4358
  701MOL0     H94609  -2.429   7.297   8.953  0.4071  0.9010 -0.7207
  701MOL0     H94610  -2.258   7.325   8.942 -0.0391  0.9904  1.8484
  701MOL0     H94611  -2.373   7.429   9.143 -0.9822 -0.2126 -2.1609
  701MOL0     H94612  -2.388   7.261   9.205  0.6662 -1.1781 -0.5880
  701MOL0     H94613  -2.127   7.412   9.134 -1.2424 -0.2672 -1.1953
  701MOL0     H94614  -2.129   7.246   9.190 -0.8035 -0.7291 -0.3648
  701MOL0     H94615  -2.230   7.340   9.407  1.8408 -3.1816 -0.3263
  701MOL0     H94616  -2.196   7.503   9.344  0.7538 -0.4090  0.8356
  701MOL0     H94617  -1.958   6.700   9.109  1.4799 -2.4823  3.1851
  701MOL0     H94618  -1.734   6.773   9.184 -0.5138 -0.7961 -0.5857
  701MOL0     H94619  -1.423   6.959   9.267 -2.1614 -1.2044  2.5288
  701MOL0     H94620  -1.207   6.958   9.391  2.1274  1.0949 -3.3542
  701MOL0     H94621   0.521   6.007   9.038 -2.5720 -0.7405  1.6614
  701MOL0     H94622   0.775   6.048   8.985 -0.0961 -2.0825  3.0569
  701MOL0     H94623   1.199   6.537   9.012 -1.9855 -1.0714  0.9202
  701MOL0     H94624   1.410   6.536   8.887  3.0214 -1.0552 -2.2617
  701MOL0     H94625   1.630   6.496   8.704  2.4482 -0.1812  0.8359
  701MOL0     H94626   1.614   6.415   8.863  1.2005  0.0286  0.3268
  701MOL0     H94627   1.736   6.317   8.621  3.3340 -1.3650  1.1881
  701MOL0     H94628   1.716   6.218   8.769  1.1637  0.4498  1.5504
  701MOL0     H94629   1.856   6.350   8.898  1.4579 -0.9477 -0.8136
  701MOL0     H94630   1.851   6.488   8.782 -1.2362  0.5440 -0.1413
  701MOL0     H94631   2.064   6.371   8.765  0.4311 -0.3869 -2.2709
  701MOL0     H94632   1.967   6.376   8.621 -0.4663 -0.3884 -0.5630
  701MOL0     H94633   2.026   5.962   8.779  2.5652  0.2660 -4.8463
  701MOL0     H94634   1.302   6.157   8.710 -1.5412  1.7818 -2.3708
  701MOL0     H94635   1.080   6.162   8.827 -1.7311  1.5237 -2.3661
  702MOL0     O94636   2.661   7.362  11.273  0.2555  0.1197 -0.2066
  702MOL0     C94637   2.618   7.250  11.239 -0.5927  0.4141  0.6684
  702MOL0     O94638   2.485   7.206  11.217 -0.0850 -0.9843  0.4728
  702MOL0     C94639   2.381   7.291  11.254 -0.0381 -0.3779  0.3629
  702MOL0     C94640   2.272   7.280  11.170  0.0574  0.8367 -0.5192
  702MOL0     C94641   2.156   7.355  11.186  0.5000 -1.0911 -0.6497
  702MOL0     C94642   2.149   7.452  11.284 -0.1434 -0.6041  0.3026
  702MOL0     O94643   2.025   7.503  11.322  0.4037  0.2626 -0.0758
  702MOL0     C94644   2.002   7.643  11.343 -0.5365  0.2471  1.0113
  702MOL0     C94645   1.936   7.708  11.228  0.8183  0.2393  0.2071
  702MOL0     C94646   1.913   7.854  11.248 -0.1728 -0.0783  0.1706
  702MOL0     C94647   1.795   7.914  11.166  0.3182  0.5110 -0.7514
  702MOL0     C94648   1.787   8.069  11.176 -0.0526 -0.3170 -1.4550
  702MOL0     C94649   1.676   8.117  11.079 -0.0317  0.0475  0.4018
  702MOL0     C94650   1.539   8.049  11.098 -0.4586 -0.2006  0.6837
  702MOL0     C94651   1.424   8.129  11.029 -0.1398 -0.2191 -0.0178
  702MOL0     N94652   1.296   8.064  11.035  0.0440  0.1889  0.1894
  702MOL0     C94653   1.217   8.046  10.923  1.0850 -1.3040 -1.2500
  702MOL0     C94654   1.108   7.977  10.973 -0.9077 -0.4203  0.3939
  702MOL0     C94655   0.996   7.937  10.875  0.8950 -0.3637 -0.0169
  702MOL0     C94656   0.888   8.040  10.844 -0.1522 -0.2162 -0.3770
  702MOL0     C94657   0.820   8.011  10.710  0.3780  0.4657  0.0414
  702MOL0     C94658   0.678   8.058  10.688  0.2511 -0.4487 -1.6690
  702MOL0     O94659   0.582   8.004  10.781 -0.6689 -0.0458  0.3914
  702MOL0     C94660   0.452   8.010  10.734  0.3903  0.8705  0.4496
  702MOL0     C94661   0.379   7.900  10.766 -0.2519 -0.2088 -0.0984
  702MOL0     C94662   0.245   7.883  10.727  1.0602 -0.6270  1.1510
  702MOL0     C94663   0.171   7.759  10.773 -0.8236 -0.0368  0.0265
  702MOL0     C94664   0.178   7.984  10.652 -0.2464  0.0369  0.0598
  702MOL0     C94665   0.039   7.984  10.621 -0.3773  1.0676 -0.1054
  702MOL0     O94666   0.020   7.992  10.485  0.0555  0.1691  0.9798
  702MOL0     C94667  -0.108   7.955  10.439  0.0512 -0.0130 -0.5535
  702MOL0     C94668  -0.147   7.819  10.460  0.6572  0.4435 -0.3165
  702MOL0     C94669  -0.253   7.765  10.394  0.6086  0.4729 -0.3399
  702MOL0     C94670  -0.331   7.841  10.301 -0.3094 -0.0974  0.6397
  702MOL0     O94671  -0.439   7.786  10.240 -0.3985 -0.5379  0.1579
  702MOL0     C94672  -0.495   7.847  10.121  0.9837 -0.3197  0.5370
  702MOL0     C94673  -0.568   7.749  10.041 -0.3591 -0.3783  0.4292
  702MOL0     C94674  -0.649   7.815   9.925 -0.0300  1.1053 -0.4404
  702MOL0     C94675  -0.783   7.880   9.964 -0.6139  0.0562  0.3082
  702MOL0     C94676  -0.850   7.948   9.849  0.5704  0.5248  0.4914
  702MOL0     C94677  -0.952   8.067   9.895 -0.1717  0.0874  0.2863
  702MOL0     C94678  -1.076   8.007   9.969  0.1290 -0.4208  0.0487
  702MOL0     C94679  -1.095   8.080  10.099 -0.0098 -0.3863  1.1482
  702MOL0    Cl94680  -1.140   8.256  10.070 -0.4522  0.3197  0.1428
  702MOL0     C94681  -0.284   7.975  10.278 -0.2000 -0.6550  0.1428
  702MOL0     C94682  -0.167   8.026  10.334 -0.6925  0.9039 -0.9076
  702MOL0     O94683  -0.041   7.985  10.717 -0.3868  0.5404  0.9059
  702MOL0     C94684   0.258   8.097  10.615  0.4166 -0.2825 -0.1132
  702MOL0     C94685   0.394   8.108  10.643 -0.4914  0.0733  0.0921
  702MOL0     N94686   1.125   7.954  11.115  0.1583  0.4240 -0.1261
  702MOL0     N94687   1.243   7.999  11.145  0.4608  0.2408 -0.1999
  702MOL0     C94688   2.264   7.468  11.365  0.4892 -0.7271 -0.3697
  702MOL0     C94689   2.377   7.398  11.352 -0.4972  0.4368  0.4277
  702MOL0     C94690   2.731   7.160  11.210  1.3059  0.3307 -0.0802
  702MOL0     C94691   2.845   7.204  11.149 -0.1537 -0.1347 -0.0895
  702MOL0     C94692   2.965   7.124  11.143  0.5804 -0.4177  0.4709
  702MOL0     C94693   2.953   6.994  11.176  0.8269  0.5449 -0.6713
  702MOL0     O94694   3.072   6.925  11.165 -0.5502  0.4183  0.0436
  702MOL0     C94695   3.067   6.781  11.177 -0.2289  0.6030  0.8483
  702MOL0     C94696   3.218   6.729  11.178 -0.1194  0.0373 -0.0515
  702MOL0     C94697   3.251   6.626  11.073 -0.2644  0.1781  0.2119
  702MOL0     C94698   3.398   6.583  11.064  0.9546 -0.3436 -0.7539
  702MOL0     C94699   3.437   6.516  11.189 -0.5548  0.6041 -0.2711
  702MOL0     C94700   3.485   6.464  11.287 -0.2025  0.1142  0.1959
  702MOL0     C94701   2.829   6.941  11.223  0.6095 -0.5915  0.2608
  702MOL0     C94702   2.723   7.027  11.253  0.7424  0.9152  0.4511
  702MOL0     H94703   2.277   7.207  11.091  0.5013  1.7044 -1.3096
  702MOL0     H94704   2.068   7.330  11.127 -1.3699 -1.7361  2.2074
  702MOL0     H94705   1.934   7.658  11.427 -1.2304  0.2617  0.4498
  702MOL0     H94706   2.099   7.686  11.373  0.8211 -3.2548  2.1315
  702MOL0     H94707   2.013   7.704  11.151  1.2602  1.8769  0.5234
  702MOL0     H94708   1.854   7.640  11.203  0.7121  1.1853 -2.3458
  702MOL0     H94709   1.892   7.879  11.353  0.6413  1.6756 -0.0414
  702MOL0     H94710   2.010   7.903  11.234 -1.2838  2.8186  1.6689
  702MOL0     H94711   1.805   7.897  11.059 -1.3113  0.9035 -0.9906
  702MOL0     H94712   1.707   7.864  11.206  0.6364  0.7128  0.2348
  702MOL0     H94713   1.763   8.102  11.278 -1.0037  1.1139 -2.1106
  702MOL0     H94714   1.881   8.118  11.147  0.2530  1.8618  2.5137
  702MOL0     H94715   1.678   8.226  11.085  1.8281  0.0750 -0.2706
  702MOL0     H94716   1.715   8.098  10.979  0.1279 -1.0856  0.6709
  702MOL0     H94717   1.539   7.947  11.060 -1.0839  0.2876 -0.7185
  702MOL0     H94718   1.528   8.050  11.206  2.4919  0.2189  1.0614
  702MOL0     H94719   1.452   8.153  10.926  2.5695  0.8517  0.8844
  702MOL0     H94720   1.415   8.228  11.075 -3.2442  0.7047 -2.2461
  702MOL0     H94721   1.239   8.073  10.820  2.3385 -0.8641 -0.8908
  702MOL0     H94722   1.043   7.918  10.778  0.3749 -1.0802 -0.1396
  702MOL0     H94723   0.949   7.842  10.901 -1.7153  1.4091  2.2730
  702MOL0     H94724   0.931   8.141  10.844 -2.0552  0.6744  1.1798
  702MOL0     H94725   0.810   8.043  10.921 -1.4895  3.0525 -1.6633
  702MOL0     H94726   0.821   7.903  10.690 -0.9786  0.0633  1.9020
  702MOL0     H94727   0.885   8.059  10.636  0.2695 -0.5967 -0.7721
  702MOL0     H94728   0.653   8.038  10.583  0.9785  0.2125 -1.9760
  702MOL0     H94729   0.685   8.164  10.710  1.9459 -1.4258  4.1130
  702MOL0     H94730   0.433   7.826  10.823  2.2501  0.9938 -0.7640
  702MOL0     H94731   0.087   7.746  10.703 -1.6507 -2.0620  1.3026
  702MOL0     H94732   0.245   7.679  10.768 -0.8141 -0.0984  1.0355
  702MOL0     H94733   0.134   7.768  10.876 -0.9851 -1.3436  0.1036
  702MOL0     H94734  -0.077   7.760  10.517  2.4694 -1.1260 -3.8393
  702MOL0     H94735  -0.280   7.660  10.406  0.5061  0.4352 -0.8791
  702MOL0     H94736  -0.559   7.933  10.142  0.2229 -1.1129  1.5454
  702MOL0     H94737  -0.413   7.877  10.054 -1.0427  0.8829 -1.5226
  702MOL0     H94738  -0.497   7.680   9.994  2.9832  4.6465 -2.9803
  702MOL0     H94739  -0.626   7.689  10.112 -0.7243  2.7707  3.0349
  702MOL0     H94740  -0.670   7.739   9.849 -1.6680  0.2699  0.7476
  702MOL0     H94741  -0.584   7.886   9.875  0.7384 -0.3539 -1.5805
  702MOL0     H94742  -0.849   7.805  10.009 -0.2568  0.1757  1.0461
  702MOL0     H94743  -0.762   7.953  10.043 -0.4903  1.4672 -0.9911
  702MOL0     H94744  -0.904   7.871   9.793  1.1138 -3.2955  4.6328
  702MOL0     H94745  -0.771   7.995   9.790  1.6321 -1.4523  0.2413
  702MOL0     H94746  -0.882   8.112   9.966  0.0659 -1.5223  1.1323
  702MOL0     H94747  -0.979   8.132   9.812  1.0876  0.7041  0.3318
  702MOL0     H94748  -1.057   7.901   9.988 -1.5198 -0.8487 -0.5306
  702MOL0     H94749  -1.168   8.015   9.910 -0.5078 -0.6919  0.9917
  702MOL0     H94750  -1.001   8.087  10.156  2.8986  1.5085 -3.3544
  702MOL0     H94751  -1.174   8.022  10.148 -1.3963 -0.0146 -0.5675
  702MOL0     H94752  -0.333   8.040  10.207  0.7826 -0.3624 -0.2723
  702MOL0     H94753  -0.120   8.118  10.301 -1.5849  0.6755 -2.9772
  702MOL0     H94754   0.211   8.170  10.550 -1.1597  2.5981  3.8046
  702MOL0     H94755   0.450   8.195  10.610 -0.7816 -0.3022 -1.4649
  702MOL0     H94756   2.268   7.533  11.451  0.0120  1.9751 -2.2360
  702MOL0     H94757   2.462   7.416  11.417 -0.1359 -5.1356  2.0154
  702MOL0     H94758   2.855   7.299  11.098  0.8911 -0.3113 -0.2441
  702MOL0     H94759   3.059   7.155  11.098  0.3230 -1.4763 -0.8712
  702MOL0     H94760   3.010   6.742  11.262 -2.3255  0.7772 -0.4060
  702MOL0     H94761   3.010   6.749  11.090 -1.4976  2.8318  0.7750
  702MOL0     H94762   3.237   6.693  11.280 -0.2185  0.5666  0.1563
  702MOL0     H94763   3.287   6.814  11.170  0.4320  0.0301  3.3070
  702MOL0     H94764   3.224   6.666  10.975  2.1569  0.6259 -0.3436
  702MOL0     H94765   3.194   6.537  11.102 -0.8059  0.2847 -0.4862
  702MOL0     H94766   3.461   6.667  11.034 -1.6552  1.7191 -0.7908
  702MOL0     H94767   3.417   6.514  10.981  4.6119 -0.2149 -0.1964
  702MOL0     H94768   3.539   6.432  11.375  1.9509  0.0046 -1.0894
  702MOL0     H94769   2.822   6.834  11.237  2.4470 -0.6982  0.6513
  702MOL0     H94770   2.630   6.987  11.291  1.9616 -1.2396  1.3325
  703MOL0     O94771   1.982   7.117   2.488  0.2101 -0.2579 -0.8990
  703MOL0     C94772   2.035   7.032   2.561 -0.1667  1.1489  0.1609
  703MOL0     O94773   1.968   6.919   2.617 -0.6304 -0.0540 -0.1225
  703MOL0     C94774   1.840   6.919   2.670 -0.0493 -0.6338 -0.3016
  703MOL0     C94775   1.767   6.805   2.701 -0.7618  0.0485  0.2268
  703MOL0     C94776   1.641   6.809   2.750 -0.3648 -0.0011  0.5090
  703MOL0     C94777   1.583   6.927   2.778 -0.4116 -0.0806 -0.5078
  703MOL0     O94778   1.464   6.929   2.833 -0.2382  0.0199 -0.8529
  703MOL0     C94779   1.385   7.051   2.842  0.0516  0.0087 -0.6108
  703MOL0     C94780   1.256   6.999   2.902  0.1494 -0.0605  0.2155
  703MOL0     C94781   1.165   7.108   2.971 -0.4130  0.5803 -0.5098
  703MOL0     C94782   1.038   7.043   3.036 -1.2476  1.0997 -0.2153
  703MOL0     C94783   0.997   7.119   3.159 -0.3189  0.1428 -0.1078
  703MOL0     C94784   0.888   7.052   3.243 -0.8964  0.2508  0.0591
  703MOL0     C94785   0.947   6.928   3.310  0.5191 -0.0368  0.4380
  703MOL0     C94786   0.831   6.875   3.405 -0.1438  0.0172  0.2400
  703MOL0     N94787   0.713   6.848   3.326  0.1911  0.0552 -0.6369
  703MOL0     C94788   0.597   6.914   3.325 -0.6165 -0.6613 -0.3380
  703MOL0     C94789   0.520   6.857   3.234  0.2806 -0.4577  0.1176
  703MOL0     C94790   0.382   6.900   3.189 -0.7668 -0.5414  0.0717
  703MOL0     C94791   0.283   6.808   3.269  0.4367  0.3728  0.4464
  703MOL0     C94792   0.149   6.811   3.199 -0.4455  0.4828  0.3902
  703MOL0     C94793   0.035   6.757   3.270 -0.3587  0.9195  0.5280
  703MOL0     O94794   0.008   6.832   3.388 -0.2380  0.3940 -0.2017
  703MOL0     C94795  -0.113   6.811   3.453 -1.1227  0.1564  0.4855
  703MOL0     C94796  -0.138   6.683   3.522  0.0458 -0.2643  1.0362
  703MOL0     C94797  -0.262   6.672   3.585  0.4907 -0.7383  0.3736
  703MOL0     C94798  -0.286   6.538   3.651 -0.3465  0.3468  0.2078
  703MOL0     C94799  -0.361   6.771   3.583  0.0120 -0.3318  0.4617
  703MOL0     C94800  -0.500   6.764   3.636  1.0774 -0.7423  0.0983
  703MOL0     O94801  -0.560   6.882   3.665  0.4345  0.1124 -0.0763
  703MOL0     C94802  -0.674   6.881   3.735 -0.2920  1.2852 -0.3432
  703MOL0     C94803  -0.682   6.864   3.871  0.1180  0.2068  0.7004
  703MOL0     C94804  -0.814   6.855   3.934 -0.2936 -0.3034 -0.4262
  703MOL0     C94805  -0.925   6.886   3.854  0.8607  0.4931  0.7180
  703MOL0     O94806  -1.049   6.887   3.898  0.5830 -0.0919  0.0421
  703MOL0     C94807  -1.084   6.819   4.019  0.1340  0.5557  0.5440
  703MOL0     C94808  -1.221   6.846   4.048  0.5174 -0.0783 -0.6991
  703MOL0     C94809  -1.322   6.827   3.937  0.4347 -0.8898  0.7695
  703MOL0     C94810  -1.465   6.841   3.993  0.6554 -0.4465 -0.3015
  703MOL0     C94811  -1.564   6.818   3.879 -0.8342  0.0435 -0.0371
  703MOL0     C94812  -1.575   6.668   3.832  0.1209 -0.4850  0.0013
  703MOL0     C94813  -1.674   6.646   3.720  0.0909  0.4543 -0.1209
  703MOL0     C94814  -1.705   6.503   3.683  0.7413  0.0026 -0.4330
  703MOL0    Cl94815  -1.880   6.485   3.606  0.4642 -0.0977  0.1466
  703MOL0     C94816  -0.911   6.907   3.716  0.3986  0.5519  0.7676
  703MOL0     C94817  -0.792   6.896   3.648 -0.0785 -0.2247 -0.6501
  703MOL0     O94818  -0.550   6.655   3.657  0.3409 -0.5195  0.8648
  703MOL0     C94819  -0.333   6.886   3.510 -0.1012  0.8836  0.6820
  703MOL0     C94820  -0.215   6.913   3.442 -0.5156 -0.4034 -0.2539
  703MOL0     N94821   0.592   6.760   3.175  0.0064 -0.8971 -0.1905
  703MOL0     N94822   0.702   6.749   3.232  0.0223  0.1775  0.3157
  703MOL0     C94823   1.655   7.046   2.762 -1.1120  0.1282 -0.2251
  703MOL0     C94824   1.785   7.037   2.706 -0.1389 -0.3563  1.0062
  703MOL0     C94825   2.182   7.041   2.572 -1.0721 -0.2730 -0.4898
  703MOL0     C94826   2.255   7.113   2.475 -0.3951 -0.2028  0.2148
  703MOL0     C94827   2.392   7.136   2.497 -0.6399  0.0682  0.2384
  703MOL0     C94828   2.465   7.064   2.593 -0.5463  0.4578 -0.2040
  703MOL0     O94829   2.601   7.062   2.605 -0.1966  0.1273 -0.5919
  703MOL0     C94830   2.680   7.153   2.526 -0.1983 -1.0133 -0.0903
  703MOL0     C94831   2.825   7.168   2.576  0.1881 -0.2306 -0.6451
  703MOL0     C94832   2.917   7.251   2.494  0.7914 -0.3123  0.3847
  703MOL0     C94833   3.064   7.203   2.494 -0.7606  0.7901  0.4458
  703MOL0     C94834   3.137   7.313   2.444 -0.3263 -0.3102  0.5775
  703MOL0     C94835   3.217   7.397   2.400  0.9650 -0.3658  0.0604
  703MOL0     C94836   2.393   6.973   2.664 -0.9973 -0.0194 -0.3824
  703MOL0     C94837   2.257   6.968   2.667  0.6464 -0.2231 -0.0700
  703MOL0     H94838   1.808   6.711   2.667 -1.9307 -0.4972  0.2928
  703MOL0     H94839   1.582   6.719   2.763 -0.5998  0.2479  1.2514
  703MOL0     H94840   1.432   7.124   2.908 -2.4304  0.6387  0.5896
  703MOL0     H94841   1.364   7.100   2.747  1.7778  3.6825  0.7387
  703MOL0     H94842   1.198   6.945   2.827 -2.9876  0.1579  2.2961
  703MOL0     H94843   1.290   6.918   2.968  1.6895  0.4883  0.1412
  703MOL0     H94844   1.221   7.148   3.057 -4.7304  0.0416  2.9412
  703MOL0     H94845   1.129   7.185   2.902  2.5642  1.9763 -0.6820
  703MOL0     H94846   0.952   7.039   2.969 -1.1363 -1.1562 -0.3104
  703MOL0     H94847   1.056   6.937   3.059  0.7311  1.4985  0.2230
  703MOL0     H94848   1.085   7.128   3.223 -0.3746 -1.5225  0.2576
  703MOL0     H94849   0.972   7.224   3.140  2.5613  1.0536  0.5841
  703MOL0     H94850   0.852   7.118   3.323 -0.1515  0.5129  0.1896
  703MOL0     H94851   0.808   7.018   3.178 -0.6249 -0.3121  0.0105
  703MOL0     H94852   0.976   6.855   3.234 -0.0426 -2.1358  2.1464
  703MOL0     H94853   1.031   6.955   3.375  1.2513 -0.8971 -0.1363
  703MOL0     H94854   0.811   6.950   3.482  0.9052 -1.2263  1.7880
  703MOL0     H94855   0.872   6.789   3.459  2.0673 -0.5584 -2.1478
  703MOL0     H94856   0.572   7.009   3.372 -1.9436 -0.6562 -1.0172
  703MOL0     H94857   0.374   7.008   3.203 -0.2303 -0.6949  1.8065
  703MOL0     H94858   0.380   6.876   3.082  0.1494  0.6038 -0.2123
  703MOL0     H94859   0.268   6.840   3.372 -0.2594 -0.5682  0.6459
  703MOL0     H94860   0.312   6.703   3.271 -1.3468 -0.1295  1.0361
  703MOL0     H94861   0.171   6.749   3.111  0.0096  0.0487  0.8056
  703MOL0     H94862   0.118   6.912   3.170 -1.7047  0.2168  0.7664
  703MOL0     H94863   0.061   6.656   3.302 -0.9861  0.7487  0.5194
  703MOL0     H94864  -0.056   6.743   3.210  0.0846  0.8718 -0.1362
  703MOL0     H94865  -0.060   6.607   3.520  0.4508 -0.1736 -4.7771
  703MOL0     H94866  -0.339   6.553   3.746 -2.3248  0.2111 -0.8067
  703MOL0     H94867  -0.339   6.475   3.579 -1.1614 -0.4148  1.4446
  703MOL0     H94868  -0.195   6.479   3.662 -1.1752 -1.3824 -1.5632
  703MOL0     H94869  -0.594   6.860   3.935 -0.0142  0.0348  0.8742
  703MOL0     H94870  -0.826   6.851   4.042  0.2598  0.8550 -0.3089
  703MOL0     H94871  -1.061   6.713   4.003  1.0136  0.9670 -1.1979
  703MOL0     H94872  -1.028   6.849   4.109 -0.3637 -1.1194  1.4592
  703MOL0     H94873  -1.254   6.787   4.134  0.6437 -0.7115 -1.0757
  703MOL0     H94874  -1.217   6.952   4.075 -0.0018  0.0426 -1.1008
  703MOL0     H94875  -1.302   6.733   3.884 -1.1182  0.3746 -2.3045
  703MOL0     H94876  -1.299   6.902   3.860 -2.5281  1.6263  2.1278
  703MOL0     H94877  -1.487   6.768   4.071 -1.3968 -2.7429 -2.8348
  703MOL0     H94878  -1.476   6.941   4.037 -0.9782  0.7909 -3.1869
  703MOL0     H94879  -1.532   6.883   3.797 -0.8454 -0.0858 -0.1438
  703MOL0     H94880  -1.663   6.858   3.901  0.0964  1.7103  1.4282
  703MOL0     H94881  -1.475   6.629   3.811 -0.4544 -1.8768 -0.2573
  703MOL0     H94882  -1.616   6.615   3.919 -2.5689  1.0796 -0.2025
  703MOL0     H94883  -1.641   6.692   3.626 -1.5645  2.2908  0.1408
  703MOL0     H94884  -1.768   6.690   3.753  0.4020  2.0540 -1.2297
  703MOL0     H94885  -1.685   6.441   3.772 -0.3874 -0.5484 -0.5471
  703MOL0     H94886  -1.626   6.475   3.612  0.7622 -1.7909  0.2352
  703MOL0     H94887  -1.003   6.923   3.661 -0.8619 -0.1261  2.5929
  703MOL0     H94888  -0.769   6.921   3.545 -1.4339 -0.0291 -0.9303
  703MOL0     H94889  -0.411   6.961   3.518 -0.7442  0.1454  1.6588
  703MOL0     H94890  -0.180   7.004   3.395  2.1215 -0.5923  1.1832
  703MOL0     H94891   1.610   7.144   2.775  2.2867  2.0775 -1.6975
  703MOL0     H94892   1.840   7.130   2.694  0.6903 -1.0145 -0.5815
  703MOL0     H94893   2.201   7.158   2.392  0.2161  0.8946  0.3866
  703MOL0     H94894   2.439   7.206   2.428 -0.8842 -1.2767 -1.3445
  703MOL0     H94895   2.686   7.122   2.421  1.9164  0.7846 -0.5711
  703MOL0     H94896   2.636   7.252   2.539  0.1314 -1.0759  1.7196
  703MOL0     H94897   2.873   7.070   2.589 -0.4495 -0.3467  1.1439
  703MOL0     H94898   2.832   7.217   2.674  3.3769 -0.1337 -0.7934
  703MOL0     H94899   2.913   7.356   2.526  2.1010  0.3668 -1.5025
  703MOL0     H94900   2.871   7.258   2.395 -2.9103  0.0823  1.9771
  703MOL0     H94901   3.087   7.123   2.424 -0.6820  0.1715  1.1668
  703MOL0     H94902   3.097   7.169   2.592 -0.0371  1.9472  0.6254
  703MOL0     H94903   3.285   7.471   2.364  1.1278 -1.5424 -2.2749
  703MOL0     H94904   2.442   6.904   2.733  0.4803 -0.8244 -2.1249
  703MOL0     H94905   2.209   6.901   2.738  2.2306 -0.4802  0.8252
  704MOL0     O94906   7.046   9.322   4.735 -0.2022 -0.5031  0.9766
  704MOL0     C94907   7.009   9.207   4.713 -0.2725  0.6151 -0.8452
  704MOL0     O94908   6.893   9.149   4.761 -0.7543  0.4574  0.0456
  704MOL0     C94909   6.823   9.215   4.849  0.2054  0.0029 -0.0924
  704MOL0     C94910   6.870   9.295   4.953  0.0542  0.0789 -0.7093
  704MOL0     C94911   6.782   9.359   5.037  0.2110  0.2915  0.0502
  704MOL0     C94912   6.648   9.362   5.012  0.1647  0.3391 -0.0193
  704MOL0     O94913   6.550   9.424   5.092 -0.6477  0.3725 -0.0940
  704MOL0     C94914   6.580   9.440   5.234 -0.4019  0.4685  0.3801
  704MOL0     C94915   6.454   9.514   5.284  0.2521 -0.6296 -0.6648
  704MOL0     C94916   6.478   9.585   5.420  0.1766  0.0015  0.2641
  704MOL0     C94917   6.357   9.656   5.466  0.5318  0.1996 -0.2232
  704MOL0     C94918   6.379   9.732   5.596  0.0964  0.0247  0.2915
  704MOL0     C94919   6.269   9.841   5.621 -0.7820  0.2571  0.1474
  704MOL0     C94920   6.127   9.776   5.646 -1.2495 -0.2579  0.0000
  704MOL0     C94921   6.018   9.882   5.695 -0.5629 -0.7001 -0.7488
  704MOL0     N94922   5.891   9.814   5.675 -0.0849 -0.0743 -0.0156
  704MOL0     C94923   5.812   9.753   5.771  0.9037 -0.2999 -0.2772
  704MOL0     C94924   5.710   9.698   5.700  0.4437  0.4117 -0.1958
  704MOL0     C94925   5.591   9.621   5.752 -0.4709  0.5605  0.1643
  704MOL0     C94926   5.462   9.700   5.734 -0.2381 -0.2493  0.6037
  704MOL0     C94927   5.443   9.826   5.816  0.4931  0.0354 -0.1672
  704MOL0     C94928   5.305   9.884   5.806  0.5482 -0.4241 -0.1625
  704MOL0     O94929   5.305  10.019   5.873  0.2957  0.8594 -0.1866
  704MOL0     C94930   5.189  10.089   5.891 -0.1156 -0.3684  1.1284
  704MOL0     C94931   5.204  10.192   5.978 -0.1392  0.4170 -0.6173
  704MOL0     C94932   5.096  10.265   6.014  0.5688  0.0014 -1.1129
  704MOL0     C94933   5.117  10.368   6.129  0.6272 -0.5030  0.5221
  704MOL0     C94934   4.967  10.235   5.968  0.2731  0.2972 -0.2711
  704MOL0     C94935   4.840  10.313   5.994  1.1668 -0.7838  0.1827
  704MOL0     O94936   4.853  10.451   6.009 -0.0317  0.3211 -0.1962
  704MOL0     C94937   4.741  10.527   6.021  0.6049  0.8904 -0.4199
  704MOL0     C94938   4.728  10.635   5.938 -0.2640 -0.1782 -0.1814
  704MOL0     C94939   4.622  10.725   5.961 -0.3171  0.3660  0.0660
  704MOL0     C94940   4.534  10.713   6.062 -1.0879 -0.1432 -0.6573
  704MOL0     O94941   4.446  10.815   6.082  0.3744  0.0482 -0.0272
  704MOL0     C94942   4.320  10.809   6.014  0.0428 -0.8569 -0.8242
  704MOL0     C94943   4.209  10.837   6.117 -0.5289  0.8851 -0.3387
  704MOL0     C94944   4.075  10.797   6.056  0.3586 -0.6089  1.2729
  704MOL0     C94945   4.037  10.891   5.941 -0.6650  0.2177  0.6593
  704MOL0     C94946   3.883  10.895   5.922  0.3409 -0.0384  0.8094
  704MOL0     C94947   3.834  10.997   5.827  0.1235 -0.2626  0.2150
  704MOL0     C94948   3.676  11.023   5.841 -0.3813  0.3358 -0.2494
  704MOL0     C94949   3.596  10.900   5.785  0.2143  0.3873 -0.0099
  704MOL0    Cl94950   3.420  10.936   5.773  0.0578 -0.4498 -0.0272
  704MOL0     C94951   4.548  10.595   6.153  0.8811  0.1064 -0.2140
  704MOL0     C94952   4.654  10.508   6.130 -0.2295  0.0970  0.0234
  704MOL0     O94953   4.734  10.251   6.008  0.0553 -0.5389 -0.2701
  704MOL0     C94954   4.957  10.124   5.886  0.3986 -0.3512 -0.4392
  704MOL0     C94955   5.064  10.043   5.848 -0.2210 -0.0024 -0.2280
  704MOL0     N94956   5.734   9.728   5.569  0.2091 -0.1789  0.1377
  704MOL0     N94957   5.837   9.804   5.554 -0.0376  0.4178 -0.6416
  704MOL0     C94958   6.600   9.291   4.899  0.0275  0.0856  0.1890
  704MOL0     C94959   6.685   9.214   4.828  1.1098  0.0263  0.1014
  704MOL0     C94960   7.099   9.120   4.630  0.1959  0.4757  0.0075
  704MOL0     C94961   7.217   9.178   4.567  0.4520 -0.5498 -0.3741
  704MOL0     C94962   7.281   9.103   4.474 -0.0583 -0.0226 -0.6677
  704MOL0     C94963   7.239   8.969   4.443 -0.1435  0.2922 -0.1714
  704MOL0     O94964   7.300   8.923   4.327  0.6142  0.3040 -0.3118
  704MOL0     C94965   7.249   8.797   4.265  0.0601 -0.3598  0.1436
  704MOL0     C94966   7.362   8.752   4.170 -0.2309 -0.9643  1.2522
  704MOL0     C94967   7.502   8.732   4.229  0.0303 -0.7353  0.7893
  704MOL0     C94968   7.608   8.682   4.129  0.1202 -0.0486 -0.0558
  704MOL0     C94969   7.746   8.697   4.188  0.3717  0.5059  0.3417
  704MOL0     C94970   7.862   8.693   4.225  0.3671  0.1318 -0.3371
  704MOL0     C94971   7.136   8.910   4.516  0.1538  0.1835  0.5692
  704MOL0     C94972   7.068   8.988   4.612 -0.7559  0.0274 -0.1677
  704MOL0     H94973   6.975   9.291   4.979 -0.4512 -2.6831  1.4101
  704MOL0     H94974   6.820   9.417   5.121 -0.3496  0.0334  0.4909
  704MOL0     H94975   6.598   9.344   5.283  0.7383 -0.0955 -1.0688
  704MOL0     H94976   6.668   9.505   5.245  1.9382 -2.3903 -0.2574
  704MOL0     H94977   6.413   9.586   5.212  1.9253  0.8585 -0.1923
  704MOL0     H94978   6.374   9.443   5.305  0.8604 -1.0382  0.3107
  704MOL0     H94979   6.510   9.513   5.495  1.2409  0.3545  0.1643
  704MOL0     H94980   6.557   9.656   5.394 -0.8055  0.3790 -1.9347
  704MOL0     H94981   6.320   9.731   5.395 -2.0550  0.2251  1.0146
  704MOL0     H94982   6.277   9.581   5.475  1.9628 -1.4687 -0.7968
  704MOL0     H94983   6.400   9.659   5.675  0.2900  0.3281  0.5183
  704MOL0     H94984   6.475   9.782   5.585 -0.2907  0.8635  0.6969
  704MOL0     H94985   6.284   9.900   5.712  0.0977  2.4162 -1.2953
  704MOL0     H94986   6.259   9.911   5.538 -0.4130 -0.5622 -0.5976
  704MOL0     H94987   6.091   9.732   5.553 -1.5498  1.8334 -0.9400
  704MOL0     H94988   6.132   9.697   5.722  1.3142 -1.4630 -1.2914
  704MOL0     H94989   6.023   9.976   5.640 -3.1841  0.8370  1.4048
  704MOL0     H94990   6.038   9.904   5.800 -0.3095  2.6122 -1.3862
  704MOL0     H94991   5.818   9.744   5.879 -0.1176 -0.5518 -0.2371
  704MOL0     H94992   5.587   9.522   5.705  1.8184  0.8666 -0.8115
  704MOL0     H94993   5.611   9.616   5.859  1.5496  1.3512 -0.1330
  704MOL0     H94994   5.380   9.634   5.764 -0.0979 -0.8700 -0.3591
  704MOL0     H94995   5.437   9.704   5.628  1.5447  0.7921  0.1856
  704MOL0     H94996   5.508   9.908   5.783 -1.9873  2.9259  1.5840
  704MOL0     H94997   5.471   9.807   5.920  1.0656 -0.8305 -0.4704
  704MOL0     H94998   5.232   9.819   5.856  1.6985  0.6982  3.2562
  704MOL0     H94999   5.271   9.903   5.703  1.4327 -1.6376 -0.7094
  704MOL0     H95000   5.303  10.215   6.017 -0.5776 -0.5021  1.1581
  704MOL0     H95001   5.217  10.358   6.171  0.0623  0.4608  2.1839
  704MOL0     H95002   5.082  10.470   6.114 -1.6777 -1.0077  1.8906
  704MOL0     H95003   5.060  10.331   6.215  0.6034 -2.9079 -0.4431
  704MOL0     H95004   4.799  10.657   5.859  0.7968  1.5659  1.1872
  704MOL0     H95005   4.618  10.815   5.901 -1.1719  0.2628 -0.0406
  704MOL0     H95006   4.318  10.885   5.937  1.7105 -0.6312 -0.6954
  704MOL0     H95007   4.304  10.709   5.972 -2.7005 -0.9764  0.2942
  704MOL0     H95008   4.225  10.782   6.211 -0.3125  3.5277  1.2817
  704MOL0     H95009   4.208  10.943   6.144 -2.6139  1.6853 -3.0754
  704MOL0     H95010   3.997  10.792   6.132 -0.8747  2.7299  0.4371
  704MOL0     H95011   4.074  10.697   6.013  1.0732  0.4076 -1.2963
  704MOL0     H95012   4.067  10.990   5.976 -1.4289  1.6259 -2.3036
  704MOL0     H95013   4.099  10.877   5.852 -1.8518  2.7495 -0.6961
  704MOL0     H95014   3.844  10.920   6.021 -1.6067 -1.1739  0.4018
  704MOL0     H95015   3.849  10.798   5.884 -0.2187  0.9615 -1.3787
  704MOL0     H95016   3.879  11.097   5.835 -1.7287  0.8420 -2.0231
  704MOL0     H95017   3.846  10.958   5.726 -1.1335 -0.6753  0.2111
  704MOL0     H95018   3.657  11.110   5.778 -0.7825 -0.1297 -0.7719
  704MOL0     H95019   3.647  11.046   5.944  0.5294  2.5868 -0.4343
  704MOL0     H95020   3.627  10.807   5.833  0.7701 -1.5097 -3.7025
  704MOL0     H95021   3.637  10.881   5.686  2.2014 -0.6249  0.9357
  704MOL0     H95022   4.479  10.576   6.234  1.3087 -0.3364  0.0510
  704MOL0     H95023   4.668  10.429   6.203  1.3115  1.2477  1.0400
  704MOL0     H95024   4.858  10.094   5.852 -1.6245  3.6451  1.2453
  704MOL0     H95025   5.048   9.961   5.779 -1.0067  0.1333 -0.2139
  704MOL0     H95026   6.498   9.296   4.863 -0.6096 -2.3291  1.4584
  704MOL0     H95027   6.651   9.163   4.738 -0.3982 -0.3605  0.8667
  704MOL0     H95028   7.248   9.281   4.585 -3.0952  0.5061  0.4926
  704MOL0     H95029   7.365   9.143   4.420 -0.3136  0.5629 -0.6372
  704MOL0     H95030   7.231   8.713   4.332  0.4329  0.0612  0.7838
  704MOL0     H95031   7.159   8.814   4.207  1.6703 -0.2717 -2.5008
  704MOL0     H95032   7.370   8.831   4.095  2.6126 -0.7499  1.6710
  704MOL0     H95033   7.344   8.660   4.115  2.5338 -2.2952  2.3476
  704MOL0     H95034   7.485   8.660   4.310  2.0261 -2.5773 -0.3424
  704MOL0     H95035   7.540   8.825   4.271 -0.6253  0.2617 -0.7263
  704MOL0     H95036   7.601   8.743   4.039  0.6833 -0.3263 -0.2936
  704MOL0     H95037   7.587   8.578   4.101 -1.8668  0.6411 -1.3188
  704MOL0     H95038   7.965   8.709   4.250  0.2909  0.9108 -0.5077
  704MOL0     H95039   7.096   8.811   4.497 -0.3192  0.2633  1.1342
  704MOL0     H95040   6.979   8.945   4.656 -1.1013 -0.2041 -1.0815
  705MOL0     O95041   7.948   0.239   0.238  0.8682  0.5307  0.5564
  705MOL0     C95042   7.926   0.184   0.126 -0.0387 -0.2717 -0.2632
  705MOL0     O95043   7.801   0.185   0.066 -0.3778 -0.2294 -0.5076
  705MOL0     C95044   7.709   0.266   0.131 -0.3063 -0.1306  0.4070
  705MOL0     C95045   7.701   0.400   0.086  0.7664  0.3019  0.0767
  705MOL0     C95046   7.626   0.492   0.157  0.0309  0.4138 -0.4555
  705MOL0     C95047   7.567   0.453   0.274 -0.0740  0.7665  0.1586
  705MOL0     O95048   7.485   0.541   0.342  0.7823 -0.1652  0.0489
  705MOL0     C95049   7.509   0.551   0.479 -0.0225 -0.4999  0.0564
  705MOL0     C95050   7.425   0.669   0.530 -0.3289  0.3272  0.4606
  705MOL0     C95051   7.269   0.650   0.539 -0.3984  0.5370  0.1432
  705MOL0     C95052   7.204   0.715   0.414 -0.1609  0.0542 -0.2543
  705MOL0     C95053   7.056   0.737   0.436  0.2826  0.1734  0.3277
  705MOL0     C95054   7.001   0.826   0.321  0.2368  0.8460 -0.5252
  705MOL0     C95055   6.857   0.863   0.354  0.0017  0.9607  0.1015
  705MOL0     C95056   6.771   0.740   0.366  1.5333  0.2499  0.4577
  705MOL0     N95057   6.630   0.776   0.380  0.1804  0.2995 -0.1060
  705MOL0     C95058   6.553   0.851   0.289 -0.5301  0.9957 -0.0304
  705MOL0     C95059   6.444   0.892   0.371 -0.8013 -1.0199 -0.3360
  705MOL0     C95060   6.339   0.982   0.321 -0.5102  0.2302  0.1777
  705MOL0     C95061   6.262   1.046   0.431 -0.2156 -0.2396 -0.6814
  705MOL0     C95062   6.162   0.942   0.497  0.6296 -0.3121 -0.6455
  705MOL0     C95063   6.060   0.991   0.606  0.6608 -0.4968  0.3642
  705MOL0     O95064   5.962   1.082   0.548  0.0141 -0.4385  0.1595
  705MOL0     C95065   5.840   1.097   0.599  0.0831  0.2313  0.4454
  705MOL0     C95066   5.750   1.167   0.514 -0.4624 -0.1134  0.5462
  705MOL0     C95067   5.614   1.185   0.551 -1.1690  0.0206  0.3516
  705MOL0     C95068   5.518   1.250   0.464  0.5203  0.0678 -0.0155
  705MOL0     C95069   5.579   1.135   0.686 -0.2345 -0.0611  0.0739
  705MOL0     C95070   5.439   1.153   0.727  0.1180  0.0704  0.0667
  705MOL0     O95071   5.380   1.283   0.710  0.2682 -0.3712 -0.2005
  705MOL0     C95072   5.247   1.282   0.752  0.0421 -0.1034 -0.0455
  705MOL0     C95073   5.222   1.337   0.880  0.6932 -0.0318 -0.0392
  705MOL0     C95074   5.086   1.343   0.922 -0.2237 -0.0954  0.8271
  705MOL0     C95075   4.984   1.287   0.841  0.3659  0.9451 -1.0495
  705MOL0     O95076   4.852   1.293   0.891  0.1402 -0.1224 -0.0099
  705MOL0     C95077   4.765   1.184   0.872  0.1861  0.0566 -0.3927
  705MOL0     C95078   4.626   1.210   0.937 -0.8212  0.6199 -0.0281
  705MOL0     C95079   4.520   1.109   0.914  0.0915  0.2100  0.0718
  705MOL0     C95080   4.409   1.126   1.013 -0.0884  0.5550  0.0824
  705MOL0     C95081   4.287   1.038   0.989 -0.3039  0.8176  0.6678
  705MOL0     C95082   4.154   1.072   1.062 -0.1026 -0.5068 -0.2458
  705MOL0     C95083   4.035   1.006   1.002  0.2824  0.0841  0.3161
  705MOL0     C95084   3.928   0.983   1.108  0.1705  0.0373 -0.0759
  705MOL0    Cl95085   3.781   0.942   1.038 -0.3415  0.4791 -0.4113
  705MOL0     C95086   5.012   1.222   0.725  0.2754  0.3530 -0.2719
  705MOL0     C95087   5.142   1.224   0.675  0.2645 -0.5387 -0.2431
  705MOL0     O95088   5.393   1.054   0.784  0.0645 -0.3967 -0.5112
  705MOL0     C95089   5.661   1.056   0.762  0.2380 -0.1135 -1.0168
  705MOL0     C95090   5.800   1.049   0.722  0.6859  0.0276  0.0026
  705MOL0     N95091   6.459   0.842   0.493  0.0790  0.0036 -0.1343
  705MOL0     N95092   6.559   0.764   0.500  0.5829 -0.0201  0.2388
  705MOL0     C95093   7.581   0.323   0.329  0.7509  0.0352  0.7601
  705MOL0     C95094   7.652   0.230   0.252 -0.5949 -0.5207  0.2812
  705MOL0     C95095   8.025   0.083   0.074 -0.0266  0.2419 -0.5204
  705MOL0     C95096   8.158   0.082   0.119 -0.6209 -0.1398 -0.3938
  705MOL0     C95097   8.243  -0.021   0.078  0.4128  0.2173 -0.4214
  705MOL0     C95098   8.199  -0.109  -0.018 -0.3307 -0.4345  0.1947
  705MOL0     O95099   8.282  -0.199  -0.075  0.0644 -0.1502  0.5093
  705MOL0     C95100   8.423  -0.172  -0.071 -0.2225 -0.8512 -0.2119
  705MOL0     C95101   8.468  -0.041  -0.139  0.7186  0.5490 -0.3783
  705MOL0     C95102   8.403  -0.012  -0.279 -0.5382  0.0591  0.0424
  705MOL0     C95103   8.434  -0.098  -0.404 -1.0203  0.1711 -0.4481
  705MOL0     C95104   8.405  -0.029  -0.528  0.0828  0.6979 -0.3998
  705MOL0     C95105   8.367   0.005  -0.635  0.4447 -0.3520  0.0545
  705MOL0     C95106   8.073  -0.103  -0.064  0.3367  0.4314 -0.1969
  705MOL0     C95107   7.980  -0.014  -0.020  0.1042 -0.9644 -0.2022
  705MOL0     H95108   7.744   0.437  -0.006  0.7683  0.0951 -0.0046
  705MOL0     H95109   7.604   0.588   0.113 -2.1701  0.1075 -0.1790
  705MOL0     H95110   7.477   0.462   0.534  0.5847 -1.5071 -1.1597
  705MOL0     H95111   7.615   0.573   0.498  0.2696 -2.2388  0.5809
  705MOL0     H95112   7.460   0.679   0.633  1.5977 -2.3000  0.1493
  705MOL0     H95113   7.459   0.761   0.482 -1.4068  1.9446  2.6044
  705MOL0     H95114   7.247   0.543   0.542  2.1581 -0.0306  0.1325
  705MOL0     H95115   7.237   0.700   0.631 -1.2661  0.6700 -0.2199
  705MOL0     H95116   7.246   0.815   0.404 -0.8145  0.6420  2.2035
  705MOL0     H95117   7.225   0.656   0.325 -0.8780 -1.1246  0.3361
  705MOL0     H95118   6.997   0.645   0.438  1.4554 -0.6057  1.7474
  705MOL0     H95119   7.043   0.787   0.532 -2.4712 -1.4639  0.9254
  705MOL0     H95120   7.056   0.919   0.308  0.8284  0.6322  0.4013
  705MOL0     H95121   7.020   0.772   0.228  1.8138 -1.1393  0.8770
  705MOL0     H95122   6.847   0.921   0.446  0.0347  0.8199  0.1933
  705MOL0     H95123   6.822   0.927   0.272 -0.6371  1.8677  1.0623
  705MOL0     H95124   6.796   0.676   0.451  0.2854 -1.5357 -0.4416
  705MOL0     H95125   6.783   0.679   0.275  0.8671  1.6730 -0.6223
  705MOL0     H95126   6.581   0.875   0.187 -2.0616  1.5889 -0.3347
  705MOL0     H95127   6.398   1.058   0.268  1.5878 -0.4260  1.4421
  705MOL0     H95128   6.275   0.936   0.245 -1.5486 -0.2471  1.2988
  705MOL0     H95129   6.199   1.120   0.380  1.6456  0.8890 -1.4634
  705MOL0     H95130   6.325   1.094   0.507  1.6466 -1.1506 -1.5839
  705MOL0     H95131   6.217   0.860   0.545  0.6750  0.7355  1.1865
  705MOL0     H95132   6.103   0.899   0.416  1.9245 -3.5816 -0.0139
  705MOL0     H95133   6.121   1.042   0.681  2.1801  0.3665 -1.3723
  705MOL0     H95134   6.003   0.912   0.656 -0.3503 -0.9194 -1.3760
  705MOL0     H95135   5.778   1.228   0.429  0.2212  3.4770  3.1303
  705MOL0     H95136   5.548   1.248   0.359 -3.9966  1.7901 -1.5757
  705MOL0     H95137   5.422   1.198   0.475 -0.5073  2.0299  0.8316
  705MOL0     H95138   5.510   1.357   0.486 -1.6620  0.1813 -1.0927
  705MOL0     H95139   5.299   1.372   0.947  1.3068 -0.0346 -0.7298
  705MOL0     H95140   5.062   1.402   1.010  0.4616  0.7360  0.4698
  705MOL0     H95141   4.737   1.170   0.767  1.0547  1.6857 -0.8821
  705MOL0     H95142   4.811   1.091   0.904 -1.5827 -1.1692 -1.2352
  705MOL0     H95143   4.635   1.234   1.044  0.9864 -1.0634  0.2662
  705MOL0     H95144   4.591   1.302   0.890 -1.9618  1.7089  2.7218
  705MOL0     H95145   4.567   1.011   0.928  5.0559  2.3581  0.4819
  705MOL0     H95146   4.482   1.112   0.811 -1.3623 -2.9509  0.3828
  705MOL0     H95147   4.447   1.093   1.110 -0.7394 -1.1590 -0.2106
  705MOL0     H95148   4.384   1.233   1.011 -1.3450  0.3996  2.8724
  705MOL0     H95149   4.323   0.945   1.032  1.9254  1.6338  0.6970
  705MOL0     H95150   4.272   1.027   0.881 -0.5515  4.7924  0.1205
  705MOL0     H95151   4.164   1.043   1.167 -0.6802 -0.4472 -0.1690
  705MOL0     H95152   4.124   1.177   1.057 -2.9753 -1.2858 -1.3582
  705MOL0     H95153   4.052   0.911   0.950 -1.1801  0.0753 -0.1949
  705MOL0     H95154   3.995   1.073   0.925 -1.0821 -2.5647 -1.4400
  705MOL0     H95155   3.921   1.071   1.172  2.1040  0.2640 -0.1002
  705MOL0     H95156   3.957   0.904   1.178  2.0348  1.1822  0.5211
  705MOL0     H95157   4.939   1.166   0.667 -0.5649  2.4429 -1.3082
  705MOL0     H95158   5.173   1.167   0.588 -0.0634 -1.5135  0.2723
  705MOL0     H95159   5.626   1.005   0.851 -0.3344  0.1218 -1.1015
  705MOL0     H95160   5.867   1.013   0.799  0.9844 -1.8401 -1.0605
  705MOL0     H95161   7.540   0.287   0.422  0.5281 -0.9583  0.2963
  705MOL0     H95162   7.667   0.128   0.285 -0.1938 -0.2164  1.0586
  705MOL0     H95163   8.192   0.162   0.184  0.1987 -1.4867  0.9013
  705MOL0     H95164   8.344  -0.024   0.116  0.7275  4.3227 -0.5936
  705MOL0     H95165   8.478  -0.159   0.023  0.8949  2.7889 -1.2218
  705MOL0     H95166   8.475  -0.254  -0.122 -2.8295 -0.9664 -2.9355
  705MOL0     H95167   8.576  -0.053  -0.152  0.5429 -0.9017 -0.6583
  705MOL0     H95168   8.454   0.043  -0.070  0.5307 -0.4247  0.8062
  705MOL0     H95169   8.422   0.093  -0.301 -1.2757  0.0438 -0.7189
  705MOL0     H95170   8.295  -0.027  -0.281 -0.4320 -0.6941 -0.7994
  705MOL0     H95171   8.367  -0.184  -0.408 -1.7722  0.5740  1.8576
  705MOL0     H95172   8.542  -0.118  -0.396 -0.7792  1.1707 -1.0014
  705MOL0     H95173   8.323   0.038  -0.727 -1.3964 -1.4226  0.4844
  705MOL0     H95174   8.031  -0.183  -0.125 -0.8002  1.3097 -0.5870
  705MOL0     H95175   7.881  -0.009  -0.063 -0.2802  2.7541  0.7595
  706MOL0     O95176  11.170   8.233   2.850  0.2989 -0.8311  0.1723
  706MOL0     C95177  11.249   8.221   2.765 -0.0700 -0.0510 -0.6410
  706MOL0     O95178  11.216   8.245   2.634 -0.1941  0.1004  1.0445
  706MOL0     C95179  11.090   8.287   2.608 -0.5232  0.8659 -0.0725
  706MOL0     C95180  10.991   8.187   2.601  0.3370 -0.4068 -0.3122
  706MOL0     C95181  10.856   8.223   2.597 -0.3056  0.0077 -0.0591
  706MOL0     C95182  10.821   8.353   2.592  0.2493  0.5431 -0.6300
  706MOL0     O95183  10.690   8.384   2.579  0.7222  0.6424 -0.3010
  706MOL0     C95184  10.658   8.455   2.462 -0.0418 -0.4557  0.8475
  706MOL0     C95185  10.504   8.458   2.438 -0.0400  0.5275 -0.2383
  706MOL0     C95186  10.426   8.552   2.526  0.7820 -0.0282 -0.3220
  706MOL0     C95187  10.305   8.487   2.599 -0.2628 -0.0250  0.2752
  706MOL0     C95188  10.207   8.591   2.658  0.1237 -0.3846 -0.2373
  706MOL0     C95189  10.079   8.525   2.727 -0.4532  0.3888 -0.0328
  706MOL0     C95190  10.014   8.617   2.828 -0.1321  0.7539 -0.7010
  706MOL0     C95191   9.876   8.675   2.770 -0.7720  0.3471 -1.0070
  706MOL0     N95192   9.802   8.742   2.873  0.1360  0.6559 -0.0504
  706MOL0     C95193   9.814   8.866   2.915 -1.0183 -0.3855  0.0564
  706MOL0     C95194   9.702   8.892   2.995 -0.2985  0.2003  0.2383
  706MOL0     C95195   9.672   9.031   3.053  0.2876  0.7173 -0.3904
  706MOL0     C95196   9.565   9.115   2.987 -0.1396  0.1592 -0.3768
  706MOL0     C95197   9.434   9.045   2.965  1.0879  0.0333  0.1673
  706MOL0     C95198   9.318   9.120   2.901  0.0511  0.6342 -0.0958
  706MOL0     O95199   9.300   9.243   2.978  0.4398  0.6633  0.1617
  706MOL0     C95200   9.173   9.285   3.003 -0.5240 -0.4748 -0.0879
  706MOL0     C95201   9.127   9.302   3.135 -0.7087  0.5510  0.1742
  706MOL0     C95202   8.992   9.332   3.168  0.2011 -0.3673  1.0369
  706MOL0     C95203   8.959   9.337   3.312 -0.0682 -0.8975  0.8442
  706MOL0     C95204   8.896   9.348   3.062  0.4380 -0.4658  0.5752
  706MOL0     C95205   8.754   9.378   3.082  0.1717  0.3460  0.0970
  706MOL0     O95206   8.677   9.372   2.968 -0.1536 -0.3721  0.0705
  706MOL0     C95207   8.548   9.418   2.951  0.5692  0.1767 -0.7110
  706MOL0     C95208   8.510   9.422   2.815 -0.1994  0.2496 -1.0108
  706MOL0     C95209   8.386   9.477   2.783  0.5938  0.2022 -0.0160
  706MOL0     C95210   8.298   9.525   2.884 -0.4163 -0.0404  0.2029
  706MOL0     O95211   8.175   9.577   2.848 -0.6295  0.4372  0.3554
  706MOL0     C95212   8.149   9.610   2.711  0.0270 -0.5811  0.1413
  706MOL0     C95213   8.084   9.481   2.643  0.7609  0.0210  0.8684
  706MOL0     C95214   8.047   9.492   2.499  0.3668 -0.4074 -0.0793
  706MOL0     C95215   7.983   9.629   2.456 -0.5506 -0.2283 -0.0710
  706MOL0     C95216   7.987   9.651   2.303 -0.2097 -0.2369  0.1049
  706MOL0     C95217   7.894   9.548   2.228  0.1151  0.2123 -0.3170
  706MOL0     C95218   7.911   9.568   2.076 -0.1263 -0.2105 -0.3437
  706MOL0     C95219   7.825   9.477   1.995  0.2823  0.1017 -0.1818
  706MOL0    Cl95220   7.891   9.313   1.980 -0.1063  0.1089 -0.4655
  706MOL0     C95221   8.343   9.510   3.022 -0.3814 -0.6662  0.0728
  706MOL0     C95222   8.471   9.468   3.056  0.2879  0.1684 -0.1041
  706MOL0     O95223   8.714   9.392   3.197 -0.2712 -0.4704 -0.0343
  706MOL0     C95224   8.945   9.331   2.932 -0.1541 -0.8649  0.0501
  706MOL0     C95225   9.076   9.297   2.908 -0.3145 -0.1514  0.2592
  706MOL0     N95226   9.621   8.778   2.997  0.3275  0.0582 -0.9258
  706MOL0     N95227   9.682   8.689   2.921  0.2904  0.2627 -0.2460
  706MOL0     C95228  10.918   8.456   2.593  0.7720 -0.0209  0.1968
  706MOL0     C95229  11.053   8.419   2.606 -0.8683  0.1090  0.3004
  706MOL0     C95230  11.392   8.216   2.790 -1.1714 -0.7622  0.3843
  706MOL0     C95231  11.448   8.229   2.919 -0.0145 -0.4898  0.6355
  706MOL0     C95232  11.586   8.241   2.936 -0.1277  0.7617  0.2237
  706MOL0     C95233  11.674   8.235   2.830  0.4054 -0.0018  0.1046
  706MOL0     O95234  11.813   8.251   2.841 -0.5754 -0.0985  0.1715
  706MOL0     C95235  11.872   8.228   2.965 -0.8629  0.1589  0.2083
  706MOL0     C95236  12.012   8.184   2.933  1.0052 -0.3941  0.6699
  706MOL0     C95237  12.096   8.290   2.858 -0.0678 -0.4839 -1.6363
  706MOL0     C95238  12.245   8.248   2.844 -0.1190  0.1163 -0.4688
  706MOL0     C95239  12.332   8.355   2.780 -0.1677 -0.3271 -0.6468
  706MOL0     C95240  12.408   8.440   2.743  0.2394  0.1228  0.8843
  706MOL0     C95241  11.617   8.217   2.707  0.2072 -0.6994  0.5634
  706MOL0     C95242  11.477   8.203   2.679 -0.2248 -0.3744  0.3119
  706MOL0     H95243  11.013   8.081   2.607  0.5689 -0.2907  1.5464
  706MOL0     H95244  10.777   8.150   2.588 -1.2826  0.7296  2.1142
  706MOL0     H95245  10.699   8.556   2.462  0.1899 -0.4827 -1.7388
  706MOL0     H95246  10.707   8.410   2.376  1.0237  0.8037  0.7680
  706MOL0     H95247  10.485   8.480   2.332  0.3962  1.3169 -0.1643
  706MOL0     H95248  10.475   8.354   2.453  0.6686 -0.0047 -2.2829
  706MOL0     H95249  10.499   8.592   2.598 -0.1330  1.7889 -0.3528
  706MOL0     H95250  10.381   8.636   2.472 -0.8776  0.8977  2.2824
  706MOL0     H95251  10.243   8.437   2.525 -0.2247  0.1953  0.0933
  706MOL0     H95252  10.334   8.418   2.679  2.0537 -1.3806 -1.5813
  706MOL0     H95253  10.268   8.650   2.727 -0.3291 -0.1489 -0.0348
  706MOL0     H95254  10.180   8.667   2.585  0.0472  1.4874  1.6503
  706MOL0     H95255  10.003   8.499   2.653 -1.3032 -1.1177  1.2972
  706MOL0     H95256  10.116   8.436   2.778  0.0273  2.4621  3.5686
  706MOL0     H95257  10.001   8.578   2.929  0.2494  1.7285 -0.2673
  706MOL0     H95258  10.085   8.698   2.848 -1.9422  2.2047  0.1351
  706MOL0     H95259   9.820   8.591   2.727 -0.3420 -0.1895 -0.5447
  706MOL0     H95260   9.897   8.747   2.691 -1.4751 -0.1660 -1.6736
  706MOL0     H95261   9.900   8.928   2.893 -1.0892 -0.6098 -0.9184
  706MOL0     H95262   9.650   9.025   3.160  0.9648  0.1165 -0.2724
  706MOL0     H95263   9.765   9.089   3.048  0.6279  0.1157 -1.2712
  706MOL0     H95264   9.599   9.153   2.890 -0.1615  0.4422 -0.2739
  706MOL0     H95265   9.541   9.204   3.046 -2.8124  0.5165 -1.8795
  706MOL0     H95266   9.413   9.003   3.063  0.3962 -0.4309 -0.1732
  706MOL0     H95267   9.443   8.953   2.906  0.3310 -2.0464  3.0633
  706MOL0     H95268   9.234   9.050   2.892  0.0515  0.2433  2.3578
  706MOL0     H95269   9.355   9.137   2.800  3.0577 -2.2118  0.3505
  706MOL0     H95270   9.204   9.295   3.211  1.8625 -0.4801 -2.3287
  706MOL0     H95271   8.931   9.435   3.351 -1.1010 -1.6114  1.9531
  706MOL0     H95272   8.884   9.261   3.334  1.2853 -2.2975  0.8321
  706MOL0     H95273   9.050   9.314   3.369  1.6094  0.8375 -0.9832
  706MOL0     H95274   8.577   9.394   2.734 -0.1335  0.7004 -1.1129
  706MOL0     H95275   8.362   9.470   2.677  2.4931 -2.2035 -0.3537
  706MOL0     H95276   8.082   9.696   2.704  1.7049  0.6315 -2.4250
  706MOL0     H95277   8.230   9.656   2.653 -0.9837 -1.0446 -1.7144
  706MOL0     H95278   8.157   9.401   2.654 -0.0861 -0.5097  3.0907
  706MOL0     H95279   7.995   9.450   2.700 -0.9100 -0.5935 -1.8778
  706MOL0     H95280   7.974   9.414   2.473 -0.6794  1.4180 -3.1576
  706MOL0     H95281   8.139   9.486   2.440  1.3206  0.8250  1.2121
  706MOL0     H95282   7.884   9.635   2.503  0.1767  2.1992  1.3427
  706MOL0     H95283   8.048   9.709   2.492  0.3417 -0.1977 -1.6783
  706MOL0     H95284   8.089   9.640   2.264 -0.8246  0.1980 -1.7285
  706MOL0     H95285   7.950   9.751   2.279 -0.5620 -0.6142 -0.9873
  706MOL0     H95286   7.906   9.443   2.254 -0.4523 -0.1015 -1.2768
  706MOL0     H95287   7.795   9.574   2.266  0.0867  0.2449 -0.4119
  706MOL0     H95288   8.012   9.545   2.044 -0.3985 -1.0023 -0.6394
  706MOL0     H95289   7.879   9.671   2.053 -2.1897 -0.8481 -0.5629
  706MOL0     H95290   7.815   9.522   1.896 -0.3427  0.8180  0.1990
  706MOL0     H95291   7.721   9.479   2.029  0.5952  1.0433  0.7514
  706MOL0     H95292   8.278   9.543   3.103  0.8567  0.6724  0.5649
  706MOL0     H95293   8.495   9.473   3.162  0.1893  1.5268 -0.1316
  706MOL0     H95294   8.877   9.338   2.848 -1.2859  0.5274  1.0274
  706MOL0     H95295   9.104   9.269   2.807 -2.8916 -0.3771 -0.4673
  706MOL0     H95296  10.887   8.559   2.576  0.3943 -0.3676 -1.3606
  706MOL0     H95297  11.136   8.487   2.624  0.3483 -0.8436 -1.4649
  706MOL0     H95298  11.379   8.232   3.003 -0.8088 -2.5676  0.1213
  706MOL0     H95299  11.620   8.251   3.039 -0.4582 -0.3149  0.4450
  706MOL0     H95300  11.878   8.319   3.025  3.4143 -0.7042  1.4894
  706MOL0     H95301  11.824   8.145   3.018 -1.0818 -0.6978 -1.2808
  706MOL0     H95302  12.001   8.102   2.862  0.0787  0.0283  0.3234
  706MOL0     H95303  12.065   8.144   3.021  2.4170 -0.9500 -0.4001
  706MOL0     H95304  12.089   8.391   2.898 -0.8363 -0.1875 -2.5006
  706MOL0     H95305  12.049   8.298   2.760 -1.9907  0.1666 -0.7019
  706MOL0     H95306  12.245   8.150   2.795  0.7248 -0.0620 -0.1243
  706MOL0     H95307  12.287   8.228   2.943 -1.4314 -3.9467 -0.5483
  706MOL0     H95308  12.469   8.524   2.717  3.0149 -1.8295  0.6207
  706MOL0     H95309  11.688   8.220   2.625 -0.8980  0.7815 -0.3853
  706MOL0     H95310  11.447   8.180   2.578 -0.7684  1.1315  0.1064
  707MOL0     O95311  10.088   7.769   5.178 -0.6126 -0.2403  0.1240
  707MOL0     C95312  10.181   7.818   5.120  0.1124 -0.3811  0.1112
  707MOL0     O95313  10.187   7.852   4.987  0.0292 -0.3568  0.1841
  707MOL0     C95314  10.073   7.856   4.908  0.1500  0.6265 -0.5202
  707MOL0     C95315  10.098   7.855   4.772 -0.0337 -0.2485  0.0492
  707MOL0     C95316   9.988   7.866   4.675 -1.3670  0.7160 -0.1632
  707MOL0     C95317   9.857   7.871   4.728 -0.9257  0.2453  0.6695
  707MOL0     O95318   9.758   7.918   4.640  0.0013 -0.1448 -0.3671
  707MOL0     C95319   9.615   7.911   4.684 -0.6341 -0.0777  0.4451
  707MOL0     C95320   9.535   7.891   4.562 -0.7699 -1.1994 -0.3249
  707MOL0     C95321   9.408   7.810   4.577  0.4215 -0.6428  0.1797
  707MOL0     C95322   9.293   7.887   4.653 -0.4168  0.7689  0.1241
  707MOL0     C95323   9.171   7.804   4.645 -0.9339  0.1193  0.4833
  707MOL0     C95324   9.044   7.869   4.715  0.2748  0.6579  0.4456
  707MOL0     C95325   8.913   7.787   4.676 -0.0509  0.1232 -0.6452
  707MOL0     C95326   8.858   7.821   4.543  0.2703 -0.0315  0.0243
  707MOL0     N95327   8.728   7.749   4.522 -0.7306  0.1274 -0.2834
  707MOL0     C95328   8.609   7.785   4.573  0.5720 -0.7863  0.6453
  707MOL0     C95329   8.520   7.687   4.543 -0.4158  0.5634 -0.1849
  707MOL0     C95330   8.376   7.695   4.571  1.0138 -0.7023  0.6136
  707MOL0     C95331   8.331   7.580   4.665  0.4737 -0.0763  0.2502
  707MOL0     C95332   8.193   7.593   4.718 -0.0217  0.8302  0.0667
  707MOL0     C95333   8.143   7.482   4.816 -0.3579 -0.5770 -0.7526
  707MOL0     O95334   8.139   7.372   4.729 -0.0822 -0.0884 -0.1383
  707MOL0     C95335   8.047   7.283   4.771  0.4347  1.0971  1.3461
  707MOL0     C95336   8.070   7.203   4.887 -0.0539  0.1542  0.2457
  707MOL0     C95337   7.976   7.109   4.939 -0.3022 -0.4442 -0.7280
  707MOL0     C95338   7.999   7.056   5.074 -1.0870 -0.6016  0.5020
  707MOL0     C95339   7.863   7.079   4.866  1.1301 -0.2289  0.1727
  707MOL0     C95340   7.752   6.989   4.912  0.0154  0.0276  0.4867
  707MOL0     O95341   7.638   6.991   4.834  0.2829 -0.3582 -0.2060
  707MOL0     C95342   7.514   6.942   4.873  0.2323  0.0761  0.3228
  707MOL0     C95343   7.469   6.940   5.000 -0.4308  0.4120 -0.8978
  707MOL0     C95344   7.346   6.889   5.037  0.3797 -0.6796  0.1165
  707MOL0     C95345   7.258   6.845   4.935 -1.2926  0.6203  0.6986
  707MOL0     O95346   7.129   6.802   4.960  0.6714 -0.3997 -0.0541
  707MOL0     C95347   7.095   6.737   5.079 -0.8073  0.0849 -0.0134
  707MOL0     C95348   6.947   6.700   5.065  0.2628  0.2691  0.1307
  707MOL0     C95349   6.929   6.601   4.952  0.0755  0.1333  0.3534
  707MOL0     C95350   6.787   6.547   4.950  0.4435  0.1019 -0.6507
  707MOL0     C95351   6.773   6.409   5.026  0.1169 -0.6273  0.3574
  707MOL0     C95352   6.628   6.382   5.057  0.0612  0.3948  0.9875
  707MOL0     C95353   6.543   6.364   4.938  0.0396 -0.2640  0.5756
  707MOL0     C95354   6.406   6.308   4.973 -0.5504 -0.2085  0.5705
  707MOL0    Cl95355   6.316   6.455   5.030 -0.0821  0.3254  0.0370
  707MOL0     C95356   7.303   6.842   4.800 -0.5691 -0.8193  0.6206
  707MOL0     C95357   7.436   6.892   4.770  0.2040 -1.2650  0.5195
  707MOL0     O95358   7.756   6.902   5.002  0.2519  0.0424 -0.1778
  707MOL0     C95359   7.845   7.146   4.739 -0.3923 -0.3272 -0.6151
  707MOL0     C95360   7.935   7.240   4.691 -0.5403 -0.3252  0.3347
  707MOL0     N95361   8.594   7.583   4.483 -0.2270  0.0806 -0.3051
  707MOL0     N95362   8.715   7.627   4.462  0.3798  0.1321  0.3156
  707MOL0     C95363   9.837   7.872   4.866  0.6919 -0.4541 -0.2164
  707MOL0     C95364   9.939   7.855   4.955 -0.2387  0.9795 -0.3048
  707MOL0     C95365  10.303   7.831   5.189  0.1337  0.2346  0.0744
  707MOL0     C95366  10.409   7.915   5.148 -1.3458 -0.0197 -0.1010
  707MOL0     C95367  10.526   7.929   5.227  0.6605  0.2516 -0.1950
  707MOL0     C95368  10.540   7.851   5.338 -0.0707 -1.3040 -0.3586
  707MOL0     O95369  10.650   7.836   5.420  0.0972 -0.3882  0.2216
  707MOL0     C95370  10.767   7.908   5.380  0.1576  0.2343  0.9864
  707MOL0     C95371  10.893   7.860   5.468  0.8229  0.0569  0.0043
  707MOL0     C95372  11.035   7.894   5.402  0.9341 -0.1025 -1.0665
  707MOL0     C95373  11.150   7.815   5.463 -0.4478  0.9314  0.1979
  707MOL0     C95374  11.279   7.849   5.389  0.3322 -0.2844 -0.6779
  707MOL0     C95375  11.368   7.898   5.319 -0.2535  0.1609 -0.4043
  707MOL0     C95376  10.434   7.761   5.374  0.2063  0.5585 -0.7022
  707MOL0     C95377  10.318   7.761   5.305 -0.4985 -1.1729 -0.5627
  707MOL0     H95378  10.197   7.844   4.730 -0.2138  2.2541 -1.2195
  707MOL0     H95379  10.002   7.849   4.568  4.4155 -1.4480  0.5877
  707MOL0     H95380   9.589   7.839   4.762  0.6747 -2.1301 -0.9129
  707MOL0     H95381   9.586   8.010   4.720 -3.3222  0.3314 -2.4363
  707MOL0     H95382   9.507   7.989   4.523 -2.8829 -1.6076  0.0628
  707MOL0     H95383   9.600   7.843   4.488 -0.2240 -0.0718 -0.6051
  707MOL0     H95384   9.381   7.788   4.473 -0.1984  3.0351 -0.6044
  707MOL0     H95385   9.440   7.719   4.627  1.0316 -0.5883 -0.1010
  707MOL0     H95386   9.323   7.902   4.757 -3.1390 -1.5431  1.3697
  707MOL0     H95387   9.270   7.983   4.606  2.4835  0.8565 -1.3802
  707MOL0     H95388   9.158   7.793   4.537  2.8288 -0.8034 -0.0212
  707MOL0     H95389   9.174   7.704   4.690 -0.4170  0.6047  1.5586
  707MOL0     H95390   9.065   7.865   4.823  2.5911 -0.6683  0.0160
  707MOL0     H95391   9.046   7.973   4.683 -1.7122  0.7788  0.5787
  707MOL0     H95392   8.932   7.679   4.676 -0.3791  0.0550  0.4455
  707MOL0     H95393   8.842   7.810   4.755  3.2594  1.0529  2.3173
  707MOL0     H95394   8.931   7.788   4.468  0.9347 -1.0615  1.1014
  707MOL0     H95395   8.847   7.930   4.546  2.6630  0.2341  1.8947
  707MOL0     H95396   8.584   7.876   4.626 -0.7842  0.5369 -2.1043
  707MOL0     H95397   8.358   7.799   4.602  1.5379 -0.5757  0.5037
  707MOL0     H95398   8.331   7.680   4.472  1.3076 -3.1455  0.7955
  707MOL0     H95399   8.396   7.582   4.753 -0.5191  1.8012  1.0042
  707MOL0     H95400   8.342   7.483   4.616 -0.7010 -0.9391  1.6341
  707MOL0     H95401   8.118   7.610   4.640 -1.6374 -4.8324 -0.0418
  707MOL0     H95402   8.193   7.687   4.775  0.4032  0.9828 -0.1843
  707MOL0     H95403   8.049   7.512   4.863  0.2952 -1.3997  1.1773
  707MOL0     H95404   8.213   7.469   4.899 -0.7312  2.3838  0.1479
  707MOL0     H95405   8.166   7.226   4.933 -0.2676  1.1529  0.2076
  707MOL0     H95406   8.085   7.115   5.106 -2.0683  2.1472 -1.5016
  707MOL0     H95407   7.926   7.091   5.148  0.1644  0.9751  1.0479
  707MOL0     H95408   8.007   6.947   5.080  0.0734 -0.5509  0.0321
  707MOL0     H95409   7.518   6.987   5.085 -1.6856 -1.8964  1.2451
  707MOL0     H95410   7.310   6.882   5.139 -0.2815 -0.3422 -0.0847
  707MOL0     H95411   7.161   6.650   5.089  0.9024  1.4478  1.2504
  707MOL0     H95412   7.112   6.795   5.170  1.8487 -2.3147  1.1740
  707MOL0     H95413   6.927   6.640   5.154 -0.9888 -1.1322 -1.0327
  707MOL0     H95414   6.887   6.791   5.054 -0.7153 -0.5502 -2.0192
  707MOL0     H95415   7.000   6.518   4.954  0.8353  0.7764  1.4146
  707MOL0     H95416   6.950   6.656   4.859  3.0624  1.2782  1.5769
  707MOL0     H95417   6.712   6.619   4.985  1.2843  0.1799  1.0814
  707MOL0     H95418   6.757   6.517   4.849 -0.4228  2.1685 -1.0523
  707MOL0     H95419   6.839   6.417   5.114  0.9927 -1.7597 -0.1697
  707MOL0     H95420   6.809   6.320   4.974 -1.0874 -0.8808 -0.0735
  707MOL0     H95421   6.620   6.290   5.114  1.4468 -0.0865  0.4442
  707MOL0     H95422   6.580   6.468   5.106  2.3301  2.1916  0.2580
  707MOL0     H95423   6.587   6.292   4.868 -0.8370 -0.6633  0.4208
  707MOL0     H95424   6.542   6.455   4.877  2.3565 -0.4227  0.1931
  707MOL0     H95425   6.406   6.231   5.051 -4.9189  1.5659  2.6516
  707MOL0     H95426   6.363   6.272   4.880  2.7827  1.9238 -2.0250
  707MOL0     H95427   7.247   6.807   4.714  1.1386 -2.3816  0.0854
  707MOL0     H95428   7.474   6.883   4.669 -0.3558 -0.5448  0.2372
  707MOL0     H95429   7.753   7.128   4.685 -1.6392  1.7356  0.6670
  707MOL0     H95430   7.904   7.291   4.600 -0.3442  0.8581  0.9227
  707MOL0     H95431   9.738   7.895   4.903  0.4629  0.5177 -1.3511
  707MOL0     H95432   9.902   7.861   5.057 -1.5870 -0.0203 -0.7037
  707MOL0     H95433  10.397   7.977   5.060 -0.2729 -0.4281 -0.5524
  707MOL0     H95434  10.602   7.991   5.180  0.1004  1.4152  0.3810
  707MOL0     H95435  10.772   7.874   5.277 -3.4266 -1.3049  1.1755
  707MOL0     H95436  10.752   8.016   5.395  0.8581  0.3878  0.6294
  707MOL0     H95437  10.879   7.753   5.484  0.0394  0.3341  1.2926
  707MOL0     H95438  10.879   7.906   5.566 -0.9526 -3.6184  1.6698
  707MOL0     H95439  11.053   8.001   5.414 -2.8699  0.6145 -0.4816
  707MOL0     H95440  11.026   7.879   5.294 -0.4959 -0.5692 -0.9064
  707MOL0     H95441  11.131   7.708   5.457 -0.3897  0.9172  0.2609
  707MOL0     H95442  11.161   7.842   5.569 -1.5849  0.5517  0.4282
  707MOL0     H95443  11.438   7.936   5.248 -1.1523 -0.1961 -1.5303
  707MOL0     H95444  10.442   7.684   5.450 -0.4134 -1.2927 -2.4351
  707MOL0     H95445  10.249   7.685   5.338  2.7262 -3.2313  2.1181
  708MOL0     O95446   6.034   1.322   7.992  0.2178 -0.1289 -0.0090
  708MOL0     C95447   6.097   1.266   8.080  0.0256 -0.0094  0.1454
  708MOL0     O95448   6.162   1.324   8.181  0.2130 -1.1134  0.0114
  708MOL0     C95449   6.140   1.451   8.220  1.0473 -0.4154  0.3667
  708MOL0     C95450   6.036   1.544   8.192  0.1964  0.6983 -0.2205
  708MOL0     C95451   6.020   1.675   8.245 -0.6985  0.0965  0.1515
  708MOL0     C95452   6.108   1.705   8.345  0.7600 -0.7440  0.2870
  708MOL0     O95453   6.098   1.825   8.409  0.2709 -0.4918 -0.3389
  708MOL0     C95454   6.051   1.945   8.343 -0.6700 -0.0282  0.7737
  708MOL0     C95455   6.116   2.070   8.407  0.0623 -0.1254 -0.5809
  708MOL0     C95456   6.087   2.188   8.315 -0.1504 -0.1397  0.2910
  708MOL0     C95457   6.152   2.314   8.370 -0.2232 -0.3356 -1.2151
  708MOL0     C95458   6.053   2.382   8.461 -0.0598 -0.8279 -0.1281
  708MOL0     C95459   6.121   2.515   8.512 -0.2826  0.5174  0.0680
  708MOL0     C95460   6.024   2.618   8.573 -0.3618  0.7279 -0.4443
  708MOL0     C95461   6.082   2.753   8.587  0.1319  0.1008 -0.5917
  708MOL0     N95462   6.100   2.817   8.455  0.2418  0.6021  0.0591
  708MOL0     C95463   6.007   2.896   8.388 -0.1932  0.5152 -0.5233
  708MOL0     C95464   6.072   2.938   8.275  0.0636 -0.5518  0.2617
  708MOL0     C95465   6.013   3.018   8.162 -0.5191  0.3869 -0.2586
  708MOL0     C95466   5.994   3.164   8.210  0.0805  1.1144 -0.2791
  708MOL0     C95467   6.104   3.230   8.300 -0.0196 -0.3960  0.2013
  708MOL0     C95468   6.244   3.224   8.235  0.2694 -0.0787 -0.5712
  708MOL0     O95469   6.266   3.359   8.182  0.3507  0.1566  0.0530
  708MOL0     C95470   6.395   3.391   8.139  0.6102  0.6034  0.6536
  708MOL0     C95471   6.411   3.512   8.071  0.5575 -0.8841 -0.0950
  708MOL0     C95472   6.532   3.559   8.019 -0.4635 -0.6879  0.3207
  708MOL0     C95473   6.534   3.686   7.937 -0.0639  0.7413  0.3327
  708MOL0     C95474   6.650   3.480   8.045 -0.8306  0.1142 -0.9408
  708MOL0     C95475   6.793   3.513   8.000 -0.4572 -0.3708 -0.4444
  708MOL0     O95476   6.879   3.413   7.958 -0.8838 -0.4410  0.4821
  708MOL0     C95477   7.002   3.449   7.910  0.5131 -0.3961  0.1588
  708MOL0     C95478   7.022   3.564   7.825  0.3714  0.1606 -1.1018
  708MOL0     C95479   7.156   3.602   7.801  0.5367 -0.9215 -0.7834
  708MOL0     C95480   7.260   3.536   7.857  0.2604  0.5464 -0.0438
  708MOL0     O95481   7.385   3.583   7.820  0.2261  0.2693  0.5196
  708MOL0     C95482   7.469   3.635   7.925  0.5225  0.5056  0.0194
  708MOL0     C95483   7.600   3.670   7.862  0.8958  0.0387 -0.7771
  708MOL0     C95484   7.700   3.696   7.975  0.8901 -0.6856 -0.4808
  708MOL0     C95485   7.839   3.758   7.951  0.0578  0.4049 -0.4575
  708MOL0     C95486   7.924   3.726   8.070 -0.0857  0.9254  0.6120
  708MOL0     C95487   8.066   3.778   8.050 -0.0159 -0.1166 -0.7215
  708MOL0     C95488   8.145   3.773   8.178 -0.9821  0.3030  0.1042
  708MOL0     C95489   8.269   3.849   8.156 -0.1501  0.2664 -0.0058
  708MOL0    Cl95490   8.337   3.916   8.309 -0.1039 -0.1066 -0.4198
  708MOL0     C95491   7.241   3.421   7.940  0.5375 -0.2898  0.1646
  708MOL0     C95492   7.112   3.372   7.959 -0.1063 -0.4853 -0.6038
  708MOL0     O95493   6.833   3.631   8.015 -0.5598  0.0176 -0.0503
  708MOL0     C95494   6.640   3.351   8.106 -0.9373 -0.4263  0.9660
  708MOL0     C95495   6.508   3.308   8.145  0.4702  0.0823 -0.7098
  708MOL0     N95496   6.195   2.868   8.265  0.3940 -0.3173  0.1730
  708MOL0     N95497   6.210   2.802   8.373 -0.2667  0.1582 -0.0113
  708MOL0     C95498   6.216   1.622   8.376  0.2914 -0.1129 -0.0980
  708MOL0     C95499   6.233   1.508   8.310 -1.2485  1.0240  0.4482
  708MOL0     C95500   6.093   1.122   8.085  0.9472 -0.1373 -0.5835
  708MOL0     C95501   6.074   1.040   7.968  0.0942  0.6399  0.5889
  708MOL0     C95502   6.044   0.903   7.988  0.1761  0.5946 -0.8110
  708MOL0     C95503   6.013   0.853   8.115  0.0190  0.5496 -0.7789
  708MOL0     O95504   5.977   0.717   8.110 -0.0651  0.2258  0.2998
  708MOL0     C95505   5.926   0.661   8.231 -0.6333  0.1282 -0.1586
  708MOL0     C95506   5.881   0.522   8.198  0.6642 -0.3893 -0.0045
  708MOL0     C95507   5.741   0.501   8.148 -0.3506  0.2636  0.6203
  708MOL0     C95508   5.710   0.356   8.113 -0.3546 -0.4774 -0.3557
  708MOL0     C95509   5.566   0.345   8.073 -0.8971  0.1826 -0.0414
  708MOL0     C95510   5.454   0.339   8.026  0.1906  0.1179  0.4513
  708MOL0     C95511   6.033   0.934   8.219 -0.7978  0.1458 -0.8890
  708MOL0     C95512   6.074   1.070   8.214 -0.8201 -0.7904  0.4580
  708MOL0     H95513   5.971   1.517   8.109 -0.0614  1.0245 -0.1242
  708MOL0     H95514   5.949   1.751   8.211 -0.8509 -0.0445  0.1511
  708MOL0     H95515   6.073   1.944   8.236  0.2440  1.5606  0.9102
  708MOL0     H95516   5.942   1.960   8.346 -0.5006  1.7026 -0.3169
  708MOL0     H95517   6.075   2.088   8.507  1.7514  0.4434  0.0445
  708MOL0     H95518   6.224   2.054   8.410  0.2082  0.5652 -1.7211
  708MOL0     H95519   6.121   2.165   8.213 -2.1638  1.6277 -0.8512
  708MOL0     H95520   5.980   2.208   8.303 -0.0050  0.3674 -0.2088
  708MOL0     H95521   6.246   2.286   8.419 -0.3708 -0.1170 -0.8057
  708MOL0     H95522   6.183   2.372   8.283 -0.0458 -0.5673 -1.3087
  708MOL0     H95523   5.963   2.416   8.409 -0.8121 -0.4442  1.3577
  708MOL0     H95524   6.025   2.325   8.551  0.7230 -0.4176  0.3859
  708MOL0     H95525   6.204   2.496   8.581  1.5183  0.6089 -1.9817
  708MOL0     H95526   6.157   2.562   8.421  1.1642 -0.6156  0.0183
  708MOL0     H95527   5.928   2.628   8.521 -1.2771  0.7384  1.1895
  708MOL0     H95528   5.990   2.583   8.671 -2.1567  1.0065 -0.9183
  708MOL0     H95529   6.173   2.743   8.646 -1.1680  1.4952  1.8471
  708MOL0     H95530   6.001   2.809   8.636 -1.2296 -1.3427 -1.1109
  708MOL0     H95531   5.907   2.931   8.409  0.8468  2.6772  1.3202
  708MOL0     H95532   6.070   3.007   8.069 -0.1004  0.3262  0.0033
  708MOL0     H95533   5.915   2.980   8.134 -0.1728 -1.4558  0.8688
  708MOL0     H95534   5.905   3.157   8.274  0.3951 -2.4612 -0.0172
  708MOL0     H95535   5.975   3.233   8.127  0.8411 -0.4407 -1.7989
  708MOL0     H95536   6.107   3.186   8.400 -1.1613  0.4720  0.6433
  708MOL0     H95537   6.075   3.335   8.312 -0.6752 -0.0617 -3.3125
  708MOL0     H95538   6.248   3.147   8.158 -0.2779 -2.2568  1.4395
  708MOL0     H95539   6.317   3.202   8.314 -0.9186 -1.0820  0.2892
  708MOL0     H95540   6.330   3.584   8.071  3.1234  2.2500  0.0171
  708MOL0     H95541   6.546   3.781   7.989  1.6064  1.3109 -1.0078
  708MOL0     H95542   6.619   3.684   7.868 -0.5380  1.5442 -0.2844
  708MOL0     H95543   6.444   3.692   7.875  1.0877 -0.2458 -1.5440
  708MOL0     H95544   6.936   3.620   7.790  0.8201  0.9559 -0.9550
  708MOL0     H95545   7.173   3.690   7.739  1.1272  1.7828  2.8775
  708MOL0     H95546   7.416   3.724   7.958 -0.3834  0.3470 -0.9547
  708MOL0     H95547   7.473   3.566   8.010 -1.8585  0.6874  0.3559
  708MOL0     H95548   7.636   3.587   7.801 -1.6016 -0.3162 -1.8800
  708MOL0     H95549   7.599   3.758   7.797 -1.0189  1.9300  1.6087
  708MOL0     H95550   7.704   3.606   8.037 -2.6824  0.3475  1.5696
  708MOL0     H95551   7.650   3.765   8.044  1.3062 -2.0127  1.2027
  708MOL0     H95552   7.876   3.718   7.857 -0.8218  1.0105 -1.0733
  708MOL0     H95553   7.816   3.864   7.934 -4.0626 -0.0169  1.2936
  708MOL0     H95554   7.946   3.625   8.105  3.9176  2.2173  2.3532
  708MOL0     H95555   7.872   3.779   8.150  0.7553  2.4971  0.1607
  708MOL0     H95556   8.119   3.711   7.982  0.6056  0.0470 -0.4078
  708MOL0     H95557   8.058   3.881   8.015  3.5287  1.2079  1.7901
  708MOL0     H95558   8.167   3.670   8.209 -4.0270 -0.3461  0.4003
  708MOL0     H95559   8.099   3.824   8.263  0.7286  0.5603  0.9267
  708MOL0     H95560   8.254   3.937   8.094 -0.0560  0.3457  0.0843
  708MOL0     H95561   8.347   3.785   8.112 -0.4774  0.9356 -1.6576
  708MOL0     H95562   7.330   3.364   7.963  0.4935 -1.6421 -2.5988
  708MOL0     H95563   7.090   3.282   8.016 -1.0891  1.4835  2.3619
  708MOL0     H95564   6.729   3.291   8.120 -1.2825 -1.1521  0.1567
  708MOL0     H95565   6.498   3.209   8.188  1.1823  0.6625  0.8491
  708MOL0     H95566   6.295   1.661   8.440  0.3609 -1.9854  1.0501
  708MOL0     H95567   6.320   1.447   8.327  0.8072  2.3701 -3.7210
  708MOL0     H95568   6.095   1.084   7.871  0.1273 -1.0778 -0.2277
  708MOL0     H95569   6.033   0.837   7.903 -2.0725  1.2805 -1.1270
  708MOL0     H95570   6.008   0.658   8.303 -0.0449  0.5097 -0.8088
  708MOL0     H95571   5.842   0.718   8.272 -0.5543  0.0935  0.0519
  708MOL0     H95572   5.894   0.462   8.289 -1.3802  0.4105  0.8865
  708MOL0     H95573   5.944   0.477   8.121  0.6368 -1.0157  0.3268
  708MOL0     H95574   5.733   0.556   8.053 -1.5588 -2.1844 -0.7902
  708MOL0     H95575   5.670   0.550   8.216 -0.0152  0.8479  0.5539
  708MOL0     H95576   5.714   0.294   8.204 -3.4301 -1.6067 -0.8564
  708MOL0     H95577   5.769   0.320   8.029  1.9213  0.0315  0.9513
  708MOL0     H95578   5.356   0.340   7.985  0.2589 -0.5024  0.2725
  708MOL0     H95579   6.013   0.902   8.320  0.4843 -2.7655 -1.4571
  708MOL0     H95580   6.082   1.125   8.308  2.8733 -1.9376  0.9522
  709MOL0     O95581   2.815   5.940   5.246 -0.1816 -0.3314 -0.1328
  709MOL0     C95582   2.802   5.983   5.133 -0.9275 -0.1700 -0.3831
  709MOL0     O95583   2.897   5.988   5.043 -0.6903 -0.1911 -0.6789
  709MOL0     C95584   3.029   5.967   5.075 -0.0753  0.9007  0.1454
  709MOL0     C95585   3.083   5.848   5.027 -0.4966 -0.1352 -0.7665
  709MOL0     C95586   3.220   5.825   5.027 -0.0295  0.2480  0.0983
  709MOL0     C95587   3.298   5.928   5.076 -0.1132 -0.4200 -0.7433
  709MOL0     O95588   3.437   5.909   5.088  0.5843 -0.4354 -0.1910
  709MOL0     C95589   3.463   5.875   5.223 -0.7915 -0.8653 -0.4802
  709MOL0     C95590   3.618   5.836   5.245  0.2740  0.6567 -0.4259
  709MOL0     C95591   3.661   5.793   5.391  0.9328  0.2204  1.0764
  709MOL0     C95592   3.801   5.727   5.384 -0.0484  0.0737 -0.5590
  709MOL0     C95593   3.862   5.715   5.530  0.0129 -0.4854  0.2614
  709MOL0     C95594   4.000   5.635   5.536 -0.0751 -0.0103 -0.9700
  709MOL0     C95595   4.045   5.625   5.683  0.0304  0.0186  1.1380
  709MOL0     C95596   4.160   5.536   5.706  0.4795 -0.0103  0.4693
  709MOL0     N95597   4.285   5.585   5.644 -0.0084 -0.4977  0.7714
  709MOL0     C95598   4.358   5.680   5.704 -0.9313  0.7690  0.4911
  709MOL0     C95599   4.474   5.685   5.630  0.5602  0.1243 -0.2466
  709MOL0     C95600   4.577   5.795   5.650  0.2837 -0.8370 -0.1864
  709MOL0     C95601   4.696   5.730   5.726  0.3989 -0.0602 -0.4183
  709MOL0     C95602   4.672   5.660   5.870  0.3856 -0.5751  0.7952
  709MOL0     C95603   4.645   5.770   5.976  0.4994 -0.6608  0.2538
  709MOL0     O95604   4.510   5.816   5.940  0.1618 -0.4044 -0.1756
  709MOL0     C95605   4.463   5.912   6.028 -0.2230  0.3000  0.6432
  709MOL0     C95606   4.523   5.949   6.152  1.1978  0.5701 -0.9142
  709MOL0     C95607   4.461   6.036   6.249  1.3510  0.3439  1.1957
  709MOL0     C95608   4.516   6.063   6.390  0.2059 -0.2276  0.3659
  709MOL0     C95609   4.351   6.113   6.206 -0.1415  0.3474 -0.1017
  709MOL0     C95610   4.271   6.213   6.284 -0.0829 -0.0743  0.1698
  709MOL0     O95611   4.146   6.180   6.322  0.2824 -0.1662 -0.4825
  709MOL0     C95612   4.045   6.268   6.363  0.5524 -0.2140  0.5420
  709MOL0     C95613   3.917   6.205   6.380 -0.6841  0.0646  0.0778
  709MOL0     C95614   3.808   6.274   6.423 -0.1174 -0.9818 -0.2355
  709MOL0     C95615   3.815   6.410   6.450 -0.8492 -0.0593  0.1812
  709MOL0     O95616   3.702   6.475   6.491 -0.2001  0.3471  0.0655
  709MOL0     C95617   3.707   6.610   6.530 -0.3272  0.1684  0.1955
  709MOL0     C95618   3.572   6.657   6.584  0.0877  0.8535  0.9204
  709MOL0     C95619   3.467   6.649   6.466  0.4324 -0.0417  0.0659
  709MOL0     C95620   3.327   6.675   6.514 -0.3906  0.0273  0.3164
  709MOL0     C95621   3.304   6.830   6.521 -0.4461  0.3178 -0.1649
  709MOL0     C95622   3.163   6.855   6.579  0.4461  0.3318 -0.0170
  709MOL0     C95623   3.132   7.004   6.570  0.0007 -1.2040 -0.0409
  709MOL0     C95624   2.986   7.009   6.627 -0.0252  0.0128  0.0837
  709MOL0    Cl95625   2.952   7.183   6.650 -0.0808 -0.4467 -0.0271
  709MOL0     C95626   3.934   6.479   6.423 -0.5767 -0.9741  0.1114
  709MOL0     C95627   4.040   6.408   6.375  0.0284  0.6842  0.3414
  709MOL0     O95628   4.338   6.304   6.330  0.3732  0.3173 -0.0053
  709MOL0     C95629   4.296   6.077   6.085  0.0468 -0.8804 -0.8397
  709MOL0     C95630   4.352   5.975   6.001  1.1000 -0.7046  0.0839
  709MOL0     N95631   4.473   5.586   5.534  0.1680  0.0990  0.2538
  709MOL0     N95632   4.358   5.532   5.544 -0.6119  0.4633  0.1108
  709MOL0     C95633   3.243   6.045   5.130 -0.2058  0.2414 -0.8112
  709MOL0     C95634   3.108   6.067   5.118 -0.7931 -0.3766 -0.2846
  709MOL0     C95635   2.671   6.028   5.092 -1.5606 -0.8360  0.0061
  709MOL0     C95636   2.615   5.999   4.966  0.3555 -0.1052 -0.2312
  709MOL0     C95637   2.483   6.032   4.939  0.2075  0.4037  0.1920
  709MOL0     C95638   2.399   6.107   5.028  0.1481  0.6186  0.3508
  709MOL0     O95639   2.268   6.138   5.006 -0.4167  0.3725  0.1204
  709MOL0     C95640   2.206   6.119   4.881  0.1523  0.3509  0.1627
  709MOL0     C95641   2.204   6.244   4.804  0.1264 -0.2532  0.6188
  709MOL0     C95642   2.347   6.271   4.745  0.0429 -0.0412  0.3341
  709MOL0     C95643   2.345   6.405   4.660 -0.6778 -0.1968 -0.3649
  709MOL0     C95644   2.477   6.442   4.621 -1.0327  0.5819  0.3262
  709MOL0     C95645   2.588   6.482   4.595 -0.6187 -0.0040  0.8355
  709MOL0     C95646   2.457   6.140   5.150 -0.8847 -0.5972  0.2465
  709MOL0     C95647   2.595   6.113   5.181 -0.0333  0.0360  0.8162
  709MOL0     H95648   3.018   5.769   4.991 -0.1194 -1.2925  0.9898
  709MOL0     H95649   3.263   5.734   4.986  0.0057  0.2902  0.0423
  709MOL0     H95650   3.438   5.961   5.285  1.1325  1.3344 -2.5610
  709MOL0     H95651   3.412   5.789   5.268 -1.0896  0.0889  1.0863
  709MOL0     H95652   3.655   5.753   5.183  0.6647  0.1076  0.5197
  709MOL0     H95653   3.677   5.924   5.221  0.1605  0.1988 -2.7212
  709MOL0     H95654   3.657   5.880   5.457  1.2645 -1.4419  3.4020
  709MOL0     H95655   3.584   5.724   5.427 -0.4594  1.0853 -0.1175
  709MOL0     H95656   3.794   5.628   5.339 -0.8962 -0.8472  1.4737
  709MOL0     H95657   3.870   5.793   5.329  0.2937 -0.9125 -1.3301
  709MOL0     H95658   3.883   5.817   5.564  0.1565  0.4907 -2.4643
  709MOL0     H95659   3.788   5.675   5.599 -1.5132  0.7210 -0.5905
  709MOL0     H95660   3.994   5.537   5.488  0.3851  0.8796 -2.9397
  709MOL0     H95661   4.083   5.690   5.490  0.0516 -0.4172 -1.2277
  709MOL0     H95662   4.081   5.723   5.718 -0.5451  0.2127  1.1950
  709MOL0     H95663   3.956   5.589   5.736 -1.0760 -1.0769 -1.3450
  709MOL0     H95664   4.121   5.442   5.667 -1.7620 -0.4072  3.3863
  709MOL0     H95665   4.179   5.517   5.812  0.3366  1.4549  0.7858
  709MOL0     H95666   4.337   5.741   5.791  0.4276  2.2810 -0.1876
  709MOL0     H95667   4.595   5.840   5.552 -3.2712  1.9273  0.2041
  709MOL0     H95668   4.551   5.883   5.710 -0.5100  2.0225 -4.2651
  709MOL0     H95669   4.765   5.810   5.758  0.5212 -0.8016  1.2894
  709MOL0     H95670   4.751   5.666   5.657  1.0868  1.1077 -0.9941
  709MOL0     H95671   4.765   5.611   5.899  0.3422 -0.1893  1.5881
  709MOL0     H95672   4.593   5.585   5.870  0.3008 -0.4906  1.9585
  709MOL0     H95673   4.726   5.841   5.962 -0.7927  0.5622 -1.5045
  709MOL0     H95674   4.638   5.729   6.077 -2.3408  2.6175  1.5944
  709MOL0     H95675   4.615   5.903   6.187  0.7468  1.9684  2.4673
  709MOL0     H95676   4.608   6.121   6.390  0.3348 -0.4191  1.2386
  709MOL0     H95677   4.445   6.107   6.461  0.5371 -0.6568  0.9654
  709MOL0     H95678   4.552   5.966   6.426  1.0719 -0.1072 -0.1490
  709MOL0     H95679   3.908   6.098   6.364  3.3718 -0.6795  1.5849
  709MOL0     H95680   3.710   6.230   6.432  0.3070 -2.1769 -1.2467
  709MOL0     H95681   3.779   6.603   6.612 -0.6357  0.8071  0.5359
  709MOL0     H95682   3.740   6.673   6.447 -0.5705  0.1862  0.1138
  709MOL0     H95683   3.523   6.593   6.659 -0.6289  0.2653 -0.0254
  709MOL0     H95684   3.575   6.760   6.619  0.2039  1.6983 -1.4309
  709MOL0     H95685   3.475   6.552   6.416  2.9892 -0.8661  1.8952
  709MOL0     H95686   3.499   6.731   6.401 -0.3513 -0.7718 -1.3027
  709MOL0     H95687   3.254   6.624   6.450  1.6372 -1.7734 -0.6972
  709MOL0     H95688   3.316   6.637   6.616  2.3715  1.1206  1.1107
  709MOL0     H95689   3.316   6.861   6.417 -1.1343 -3.2287 -1.4275
  709MOL0     H95690   3.369   6.889   6.586 -0.0836 -0.3150  0.0609
  709MOL0     H95691   3.087   6.802   6.520  1.2698  0.9367 -1.7057
  709MOL0     H95692   3.154   6.823   6.683 -1.8228 -0.0466 -0.2786
  709MOL0     H95693   3.128   7.045   6.469 -2.5186  0.1661  0.4984
  709MOL0     H95694   3.206   7.044   6.639 -0.7494 -0.6372  0.4592
  709MOL0     H95695   2.982   6.945   6.716  2.1371 -3.0531 -1.8546
  709MOL0     H95696   2.921   6.963   6.552  0.6944 -3.9266  1.6591
  709MOL0     H95697   3.944   6.586   6.439 -1.8622 -0.9031  0.5528
  709MOL0     H95698   4.130   6.457   6.340  0.5262 -0.0835  0.5286
  709MOL0     H95699   4.207   6.116   6.037  2.0053  0.7520 -3.3644
  709MOL0     H95700   4.304   5.952   5.906  2.7926 -0.8265 -0.7672
  709MOL0     H95701   3.304   6.123   5.174 -1.6278  0.3531  1.0669
  709MOL0     H95702   3.081   6.165   5.158  3.8187  1.2097 -0.3601
  709MOL0     H95703   2.667   5.941   4.892 -0.1368 -2.9047  1.4819
  709MOL0     H95704   2.454   6.005   4.838 -0.2815 -1.1188  0.7133
  709MOL0     H95705   2.255   6.039   4.826  0.3716  1.1615 -0.8498
  709MOL0     H95706   2.103   6.086   4.897 -0.1998  0.4788 -1.6363
  709MOL0     H95707   2.177   6.331   4.863  0.9000  2.8660 -3.2097
  709MOL0     H95708   2.127   6.249   4.727 -0.0762  1.0041  0.8942
  709MOL0     H95709   2.381   6.188   4.683 -0.2501  0.2089 -0.1710
  709MOL0     H95710   2.415   6.281   4.830 -1.0903  2.3710  1.0666
  709MOL0     H95711   2.302   6.487   4.719 -0.1582 -1.6226  2.1578
  709MOL0     H95712   2.291   6.386   4.567  0.9991  0.5898 -1.5581
  709MOL0     H95713   2.684   6.517   4.562 -0.8512  0.3809  0.5644
  709MOL0     H95714   2.391   6.198   5.215  1.2857 -0.5126  2.5109
  709MOL0     H95715   2.649   6.130   5.274  2.9555  0.0571 -0.8023
  710MOL0     O95716  11.198   1.848   2.227  0.4922 -0.4186 -0.0420
  710MOL0     C95717  11.211   1.735   2.281 -0.0744  0.1287  0.7732
  710MOL0     O95718  11.101   1.651   2.310 -0.3027  0.0358 -0.7570
  710MOL0     C95719  10.969   1.703   2.301  0.1409  0.0581 -0.6980
  710MOL0     C95720  10.914   1.752   2.185 -0.2933  0.1342  0.0874
  710MOL0     C95721  10.789   1.797   2.187 -0.4413 -0.9575  0.4417
  710MOL0     C95722  10.714   1.814   2.298  0.9534 -0.3212 -1.0386
  710MOL0     O95723  10.598   1.885   2.298 -0.5008 -0.0848 -0.5446
  710MOL0     C95724  10.570   1.999   2.207 -0.4076 -0.1759  0.1117
  710MOL0     C95725  10.430   1.983   2.142  0.0603  0.4332  0.0795
  710MOL0     C95726  10.424   2.042   1.999 -0.3607  0.4010 -0.3434
  710MOL0     C95727  10.458   2.195   2.008  0.3558 -0.2699 -0.2415
  710MOL0     C95728  10.341   2.274   2.070 -0.0592  0.3006  0.1160
  710MOL0     C95729  10.222   2.282   1.972 -0.5313 -1.0502  0.7795
  710MOL0     C95730  10.118   2.380   2.019  0.4721  0.1389 -0.3652
  710MOL0     C95731   9.987   2.362   1.937 -0.4871 -0.7016  0.2974
  710MOL0     N95732   9.888   2.456   1.985 -0.3205  0.3968 -0.4027
  710MOL0     C95733   9.784   2.422   2.064 -0.8345  0.5003 -0.2056
  710MOL0     C95734   9.703   2.535   2.063 -0.0355 -0.0703 -0.3047
  710MOL0     C95735   9.595   2.546   2.168  1.2169  0.6928  1.0163
  710MOL0     C95736   9.463   2.522   2.087 -0.0001 -0.2379 -0.4068
  710MOL0     C95737   9.411   2.650   2.014 -0.4702  0.6240 -0.4073
  710MOL0     C95738   9.259   2.640   1.996  0.1213  0.2047 -0.5578
  710MOL0     O95739   9.210   2.512   1.971 -0.1615 -0.4609 -1.1171
  710MOL0     C95740   9.072   2.486   1.952  0.1073 -0.1072 -0.9668
  710MOL0     C95741   9.045   2.371   1.878 -0.7317  0.1069 -1.0815
  710MOL0     C95742   8.918   2.331   1.850  0.4069  0.7198  0.0703
  710MOL0     C95743   8.898   2.208   1.761 -0.1033  0.1954 -0.1784
  710MOL0     C95744   8.809   2.412   1.904  0.1191  0.3171  0.6985
  710MOL0     C95745   8.663   2.372   1.892 -0.3005  0.8764  0.2913
  710MOL0     O95746   8.638   2.241   1.871 -0.7471  0.1006 -0.3275
  710MOL0     C95747   8.510   2.202   1.883  0.8978  0.6916 -0.4801
  710MOL0     C95748   8.440   2.187   1.766 -1.1533 -0.4985  0.1470
  710MOL0     C95749   8.313   2.133   1.776 -0.1083  0.8111  0.1091
  710MOL0     C95750   8.258   2.107   1.900  0.1749 -0.1713 -0.2983
  710MOL0     O95751   8.135   2.079   1.940  0.4756 -0.0582  0.1602
  710MOL0     C95752   8.043   2.032   1.840  0.1515  0.3127  0.0091
  710MOL0     C95753   7.907   1.996   1.899  0.1318 -0.0105 -0.4810
  710MOL0     C95754   7.796   1.983   1.788 -0.6115 -0.5191 -0.1251
  710MOL0     C95755   7.664   1.956   1.868 -0.3432 -0.1245  0.3557
  710MOL0     C95756   7.538   1.945   1.773  0.0548 -0.4865 -0.5905
  710MOL0     C95757   7.408   1.937   1.855  0.2017  0.5810 -0.6047
  710MOL0     C95758   7.276   1.920   1.778  0.4088  1.2873 -0.0955
  710MOL0     C95759   7.170   1.881   1.871  0.7078 -0.1628 -0.1200
  710MOL0    Cl95760   7.016   1.847   1.785  0.2925  0.0286 -0.5971
  710MOL0     C95761   8.331   2.109   2.016  0.0701  0.7084 -0.5418
  710MOL0     C95762   8.461   2.158   2.009  0.0997  0.4273 -0.2029
  710MOL0     O95763   8.581   2.469   1.880 -0.5747  0.0070  0.0768
  710MOL0     C95764   8.841   2.528   1.975  0.5075  0.3271  1.5383
  710MOL0     C95765   8.969   2.567   1.995  0.5827 -0.4966  0.3706
  710MOL0     N95766   9.767   2.634   1.995  0.3408 -0.0524  0.4142
  710MOL0     N95767   9.876   2.584   1.948 -0.2178 -0.2486  0.2051
  710MOL0     C95768  10.758   1.761   2.417 -0.3880 -0.6795  0.3455
  710MOL0     C95769  10.886   1.706   2.416  0.0806 -0.9241  0.3134
  710MOL0     C95770  11.351   1.702   2.331 -0.5886 -0.2526  0.2685
  710MOL0     C95771  11.363   1.593   2.421 -0.2934  0.0028  0.2002
  710MOL0     C95772  11.488   1.550   2.456  0.0274  0.2286  0.4440
  710MOL0     C95773  11.597   1.620   2.425 -0.5756 -0.1482 -0.3513
  710MOL0     O95774  11.721   1.576   2.470  0.1622 -0.0846  0.2508
  710MOL0     C95775  11.763   1.439   2.454 -0.4733 -0.0261  0.2867
  710MOL0     C95776  11.791   1.414   2.302  0.6333 -0.8919  0.2583
  710MOL0     C95777  11.886   1.525   2.251  0.1917 -0.0615 -0.3895
  710MOL0     C95778  11.890   1.515   2.100  0.5675 -0.2757 -0.4943
  710MOL0     C95779  11.983   1.412   2.062  0.0190 -0.3279  0.0535
  710MOL0     C95780  12.060   1.324   2.046 -0.9516  0.0608 -0.5019
  710MOL0     C95781  11.589   1.739   2.352  0.9899 -0.1531  0.0627
  710MOL0     C95782  11.468   1.772   2.295 -0.8617 -0.2629  0.0427
  710MOL0     H95783  10.973   1.755   2.094 -2.4261  1.2587 -1.3663
  710MOL0     H95784  10.762   1.828   2.086  1.9447 -1.7431 -0.4997
  710MOL0     H95785  10.584   2.080   2.278  1.2680  0.0399 -0.4269
  710MOL0     H95786  10.645   2.011   2.128  0.0892  2.4935  0.9036
  710MOL0     H95787  10.408   1.876   2.131  2.8651 -0.2931  0.7252
  710MOL0     H95788  10.358   2.032   2.208  1.8327  1.3819  1.4102
  710MOL0     H95789  10.498   1.991   1.937 -1.8737  0.5832 -2.3742
  710MOL0     H95790  10.325   2.028   1.955  0.1480 -2.0427 -0.8570
  710MOL0     H95791  10.547   2.228   2.063 -1.2964  2.7255  0.8742
  710MOL0     H95792  10.467   2.235   1.906  0.9690  0.2766  0.0181
  710MOL0     H95793  10.317   2.226   2.165 -0.8565 -0.8504 -0.6362
  710MOL0     H95794  10.372   2.379   2.076 -0.4485  0.7039 -3.1773
  710MOL0     H95795  10.247   2.304   1.868 -0.0346  0.6396  1.2241
  710MOL0     H95796  10.168   2.187   1.964 -1.4961 -0.5071  0.6994
  710MOL0     H95797  10.090   2.358   2.123 -1.3787 -1.0277 -1.0390
  710MOL0     H95798  10.153   2.483   2.022  2.5834 -0.5391  0.0875
  710MOL0     H95799   9.950   2.261   1.951  2.1305 -1.7908 -0.0004
  710MOL0     H95800  10.004   2.376   1.830  0.5958  2.2403  0.7494
  710MOL0     H95801   9.768   2.331   2.120 -3.1641 -0.4969 -2.2746
  710MOL0     H95802   9.593   2.467   2.243  0.0070  0.5706  0.8787
  710MOL0     H95803   9.594   2.643   2.219 -4.1843  0.9995  0.9274
  710MOL0     H95804   9.396   2.499   2.170  1.7504  2.7876  2.0687
  710MOL0     H95805   9.472   2.442   2.013 -1.3863 -1.6442  0.8598
  710MOL0     H95806   9.447   2.656   1.911 -1.0674 -1.1552 -0.7698
  710MOL0     H95807   9.443   2.742   2.062 -0.7418 -0.1563  1.3426
  710MOL0     H95808   9.223   2.711   1.921  0.0394  0.8010  0.0335
  710MOL0     H95809   9.213   2.671   2.091  1.3831  3.0936 -0.7928
  710MOL0     H95810   9.131   2.323   1.831  0.0968  1.5527 -1.0867
  710MOL0     H95811   8.981   2.180   1.694  1.1572  1.2083  0.8967
  710MOL0     H95812   8.879   2.121   1.825  0.3368  0.2094 -0.0259
  710MOL0     H95813   8.811   2.238   1.703  0.0405 -0.4923 -0.7670
  710MOL0     H95814   8.482   2.218   1.671 -0.4600  2.4484  1.2934
  710MOL0     H95815   8.245   2.134   1.691  1.0611  0.4016 -0.8515
  710MOL0     H95816   8.029   2.104   1.759 -4.0064  1.2318  1.3229
  710MOL0     H95817   8.085   1.940   1.798 -0.4923 -0.5730  1.2417
  710MOL0     H95818   7.910   1.906   1.961 -0.2055 -0.4737 -1.1265
  710MOL0     H95819   7.895   2.076   1.973  3.0606 -1.3799  1.6831
  710MOL0     H95820   7.815   1.901   1.719 -1.6842 -0.8190 -0.0784
  710MOL0     H95821   7.789   2.071   1.723 -0.5743 -1.1611 -0.9988
  710MOL0     H95822   7.678   1.863   1.924 -0.0711 -0.1335  0.2743
  710MOL0     H95823   7.659   2.036   1.942  0.5195 -0.6162  0.9621
  710MOL0     H95824   7.543   1.860   1.704  2.9086 -0.7656 -0.1623
  710MOL0     H95825   7.545   2.035   1.711 -1.0419  0.0976  0.1015
  710MOL0     H95826   7.428   1.857   1.926  2.7469 -0.7090 -2.5906
  710MOL0     H95827   7.397   2.026   1.917  0.5067  1.1801 -1.3831
  710MOL0     H95828   7.287   1.841   1.703 -1.0259  0.4797  0.4817
  710MOL0     H95829   7.250   2.012   1.726  2.4248  0.4157 -2.8829
  710MOL0     H95830   7.154   1.970   1.933  3.3719  2.1254 -2.4571
  710MOL0     H95831   7.198   1.798   1.936  0.7323  0.2358  0.3842
  710MOL0     H95832   8.280   2.076   2.106  0.8999 -0.6724 -0.5410
  710MOL0     H95833   8.520   2.161   2.100 -0.0839 -0.4418 -0.0456
  710MOL0     H95834   8.765   2.592   2.019  0.0892 -0.4743  1.9895
  710MOL0     H95835   8.985   2.654   2.058 -1.2772  0.8564 -0.9078
  710MOL0     H95836  10.708   1.767   2.513 -0.7196  0.2961  0.1179
  710MOL0     H95837  10.938   1.680   2.508  1.9649  0.8040 -0.1935
  710MOL0     H95838  11.275   1.541   2.456 -0.8482 -0.0278 -1.1948
  710MOL0     H95839  11.500   1.463   2.520 -0.2344 -0.9997 -1.1070
  710MOL0     H95840  11.853   1.435   2.516  0.4759  2.5167 -0.7918
  710MOL0     H95841  11.696   1.361   2.491 -2.6393 -0.6253 -4.2505
  710MOL0     H95842  11.700   1.418   2.241  1.1871  0.9960 -0.5241
  710MOL0     H95843  11.841   1.317   2.287  0.2227 -1.3096  1.4296
  710MOL0     H95844  11.983   1.505   2.299 -1.5058  0.9553  3.9290
  710MOL0     H95845  11.853   1.625   2.280  0.5806 -0.7435  2.7958
  710MOL0     H95846  11.919   1.611   2.054 -1.7670 -0.8574 -3.5535
  710MOL0     H95847  11.794   1.488   2.056  0.2690 -0.1932  0.1038
  710MOL0     H95848  12.133   1.247   2.033 -0.8975 -0.0910  0.6157
  710MOL0     H95849  11.675   1.792   2.311 -1.7995  2.3239 -3.2282
  710MOL0     H95850  11.467   1.845   2.214 -0.9158  3.3603  3.0493
  711MOL0     O95851   4.255  10.559   6.395  0.3301  0.4146  0.4583
  711MOL0     C95852   4.234  10.504   6.501  0.7266 -0.4749 -0.8111
  711MOL0     O95853   4.113  10.504   6.570  0.1534 -0.0490 -0.5772
  711MOL0     C95854   3.997  10.542   6.507  0.3220  0.0023 -0.3758
  711MOL0     C95855   3.884  10.468   6.519  0.2372  0.7423 -0.4928
  711MOL0     C95856   3.758  10.499   6.474  0.1459  0.0332 -0.9217
  711MOL0     C95857   3.746  10.618   6.402 -0.0501  0.0804 -0.0537
  711MOL0     O95858   3.623  10.649   6.350 -0.1551  0.3396  0.2803
  711MOL0     C95859   3.625  10.644   6.214 -0.1540 -0.6517  0.0675
  711MOL0     C95860   3.493  10.604   6.161  0.1280 -0.1787  0.3799
  711MOL0     C95861   3.492  10.593   6.005 -0.2490 -0.1825  0.3457
  711MOL0     C95862   3.352  10.612   5.948  0.5295 -0.5079  0.3856
  711MOL0     C95863   3.349  10.552   5.808 -0.1567  0.4219  0.5221
  711MOL0     C95864   3.223  10.573   5.724  0.4760  0.7261  0.0341
  711MOL0     C95865   3.093  10.529   5.804  0.2040  0.5475 -0.0459
  711MOL0     C95866   3.020  10.650   5.860 -0.5605  0.8069 -0.1619
  711MOL0     N95867   2.930  10.713   5.756 -0.2965 -0.4463 -0.9028
  711MOL0     C95868   2.831  10.661   5.688  0.1064 -0.0554  0.5329
  711MOL0     C95869   2.790  10.764   5.616  0.1302 -0.3817  0.0272
  711MOL0     C95870   2.680  10.736   5.512  0.5228 -0.3021 -0.7814
  711MOL0     C95871   2.743  10.650   5.400  0.7040 -0.7604  0.4983
  711MOL0     C95872   2.642  10.601   5.293  0.2020 -0.3775  0.3830
  711MOL0     C95873   2.564  10.718   5.226 -1.2659  0.3778  0.1008
  711MOL0     O95874   2.443  10.743   5.297  0.0021  0.1079 -0.3342
  711MOL0     C95875   2.366  10.847   5.252  0.1277 -0.6960  0.6173
  711MOL0     C95876   2.250  10.874   5.333 -0.1505  0.7569  0.7269
  711MOL0     C95877   2.156  10.972   5.294 -0.3843  0.0628  0.2730
  711MOL0     C95878   2.033  10.970   5.369  0.2990 -0.5709  0.1296
  711MOL0     C95879   2.191  11.045   5.169 -0.2005 -0.8495 -0.2974
  711MOL0     C95880   2.094  11.157   5.125  0.1450  0.6296 -0.3003
  711MOL0     O95881   2.126  11.211   5.005  0.4908  0.4769 -0.1679
  711MOL0     C95882   2.085  11.338   4.969 -0.0060 -0.7836  0.7941
  711MOL0     C95883   2.038  11.446   5.051 -0.0267 -0.3725  0.4927
  711MOL0     C95884   1.998  11.569   5.007 -0.3990  0.8523  0.2549
  711MOL0     C95885   2.015  11.595   4.871  0.1442 -0.0093 -0.4860
  711MOL0     O95886   1.989  11.721   4.810 -0.3032 -0.6469 -0.0818
  711MOL0     C95887   1.902  11.808   4.891  1.0072  0.7178 -0.6083
  711MOL0     C95888   1.868  11.945   4.830 -0.6080 -0.4246  0.2775
  711MOL0     C95889   1.795  11.927   4.694 -0.3217  0.4683 -0.4696
  711MOL0     C95890   1.679  12.022   4.671 -0.3296  0.2765 -0.5995
  711MOL0     C95891   1.652  12.062   4.520 -0.5368 -0.0232 -0.7689
  711MOL0     C95892   1.533  12.150   4.516 -0.1740 -0.8162  0.1447
  711MOL0     C95893   1.522  12.234   4.389 -0.0006  0.7231  0.0552
  711MOL0     C95894   1.417  12.347   4.395 -0.9144  1.2297 -0.0048
  711MOL0    Cl95895   1.248  12.281   4.373  0.0289 -0.2941  0.3773
  711MOL0     C95896   2.076  11.499   4.784  0.6152 -0.5935 -1.1665
  711MOL0     C95897   2.108  11.369   4.829  0.1163 -0.1980  0.4108
  711MOL0     O95898   2.014  11.198   5.206 -0.3976 -0.1547 -0.5524
  711MOL0     C95899   2.308  11.019   5.100  0.6825 -1.4268 -0.8141
  711MOL0     C95900   2.392  10.922   5.139 -0.1163  0.6436 -0.1092
  711MOL0     N95901   2.866  10.874   5.632 -0.0504  0.5746  0.7970
  711MOL0     N95902   2.951  10.842   5.722 -0.4437 -0.3556  0.3191
  711MOL0     C95903   3.857  10.702   6.386 -0.0502 -0.1206  0.3156
  711MOL0     C95904   3.978  10.669   6.445  0.4699 -0.0986  0.2334
  711MOL0     C95905   4.340  10.423   6.577  0.5650 -1.2818  0.3837
  711MOL0     C95906   4.462  10.391   6.526 -0.0436 -0.2619  0.2345
  711MOL0     C95907   4.576  10.348   6.602  0.1019 -0.3034 -0.0955
  711MOL0     C95908   4.557  10.336   6.731 -0.3644 -0.0843 -0.3854
  711MOL0     O95909   4.663  10.276   6.798 -0.0957 -0.4992  0.4773
  711MOL0     C95910   4.651  10.273   6.943  1.0497  0.0926 -0.2948
  711MOL0     C95911   4.748  10.168   7.003  0.8531 -0.7368  0.3783
  711MOL0     C95912   4.892  10.213   6.972  0.8318 -0.2283  0.6187
  711MOL0     C95913   4.994  10.130   7.033  0.6597 -1.5232 -0.3554
  711MOL0     C95914   5.006  10.157   7.173  0.2855 -0.7729  0.4108
  711MOL0     C95915   5.040  10.192   7.287  0.2523  0.2810 -0.5059
  711MOL0     C95916   4.439  10.388   6.795 -0.6216 -0.6855  0.7229
  711MOL0     C95917   4.336  10.440   6.719 -0.2672  1.0942  0.4977
  711MOL0     H95918   3.914  10.376   6.568  0.5377 -0.7529 -3.2936
  711MOL0     H95919   3.681  10.426   6.497  1.2612 -0.8216  0.2473
  711MOL0     H95920   3.665  10.741   6.182  1.6188 -1.0787  0.8909
  711MOL0     H95921   3.692  10.562   6.187 -1.7863 -2.2374  0.6985
  711MOL0     H95922   3.461  10.508   6.202  2.2559 -1.1001  0.0067
  711MOL0     H95923   3.415  10.675   6.192  2.1765  1.7289  1.4660
  711MOL0     H95924   3.561  10.670   5.971  0.5704 -1.2234 -0.4109
  711MOL0     H95925   3.526  10.492   5.979  1.8523 -0.1079  2.5061
  711MOL0     H95926   3.267  10.583   6.010 -2.0163  2.7939 -1.2452
  711MOL0     H95927   3.331  10.719   5.936 -1.4113 -0.9423 -0.4425
  711MOL0     H95928   3.435  10.592   5.753 -2.0011  3.7700 -0.2058
  711MOL0     H95929   3.350  10.443   5.819 -1.0474  0.2893 -0.5172
  711MOL0     H95930   3.206  10.680   5.706  1.8591  1.3540  2.0626
  711MOL0     H95931   3.229  10.520   5.628 -0.3986  1.9438 -0.7210
  711MOL0     H95932   3.027  10.469   5.739  1.7419 -3.0621  1.4300
  711MOL0     H95933   3.112  10.453   5.881  0.3089 -1.3134 -1.8119
  711MOL0     H95934   3.090  10.723   5.903 -1.6312  1.1803  1.0191
  711MOL0     H95935   2.955  10.631   5.946 -2.7209  3.3228 -1.0735
  711MOL0     H95936   2.794  10.559   5.681  0.0522 -0.0312  0.4570
  711MOL0     H95937   2.592  10.696   5.561  0.1079  2.5882  1.0799
  711MOL0     H95938   2.645  10.830   5.469 -1.7589 -1.0508 -0.6872
  711MOL0     H95939   2.782  10.556   5.441 -1.9835 -1.5990  1.3087
  711MOL0     H95940   2.821  10.707   5.348 -1.6722  0.0960 -2.4423
  711MOL0     H95941   2.568  10.542   5.348 -1.3804  0.3785 -0.8173
  711MOL0     H95942   2.687  10.529   5.224 -2.6733  0.4503 -2.6659
  711MOL0     H95943   2.539  10.697   5.121  1.1650 -0.0065 -0.4755
  711MOL0     H95944   2.630  10.805   5.231 -0.8824  0.0668  0.6191
  711MOL0     H95945   2.238  10.805   5.416  0.1211  0.1682  0.2835
  711MOL0     H95946   2.012  10.874   5.417 -2.5958  0.4400  1.1025
  711MOL0     H95947   2.042  11.049   5.444  0.2123 -0.8769  0.4607
  711MOL0     H95948   1.943  10.984   5.307  0.2487 -3.9255 -0.7483
  711MOL0     H95949   2.028  11.434   5.159  1.4938  0.9992  0.8310
  711MOL0     H95950   1.950  11.628   5.085  0.1023  0.1895  1.0860
  711MOL0     H95951   1.803  11.764   4.903  1.1940  0.5804  0.5435
  711MOL0     H95952   1.936  11.832   4.992 -1.6508  1.3002  0.2333
  711MOL0     H95953   1.807  12.007   4.897  1.3001  2.0921 -0.1741
  711MOL0     H95954   1.963  11.996   4.811 -0.7601 -0.7023 -1.4062
  711MOL0     H95955   1.756  11.825   4.692 -0.5591  0.5626 -2.0010
  711MOL0     H95956   1.868  11.939   4.612  1.7450  0.3882  1.2668
  711MOL0     H95957   1.595  11.987   4.731  0.0031 -1.0305 -0.8658
  711MOL0     H95958   1.714  12.117   4.713  2.0563  0.5110 -2.8493
  711MOL0     H95959   1.643  11.968   4.465 -0.1418  0.2077 -1.2439
  711MOL0     H95960   1.736  12.122   4.483  0.2496  0.2507  1.3182
  711MOL0     H95961   1.447  12.084   4.531  1.0575 -3.1433 -2.1045
  711MOL0     H95962   1.533  12.225   4.595  0.6677 -1.5561  0.8566
  711MOL0     H95963   1.494  12.175   4.301  0.0378  2.8757 -1.4577
  711MOL0     H95964   1.618  12.278   4.361 -0.2791  0.2207 -1.8780
  711MOL0     H95965   1.448  12.413   4.313  0.2020 -2.6580 -3.0586
  711MOL0     H95966   1.422  12.401   4.489 -3.3052 -0.9679  1.5323
  711MOL0     H95967   2.090  11.533   4.682  0.1609  2.0779 -0.4182
  711MOL0     H95968   2.158  11.294   4.768  0.5920 -0.5273  1.1894
  711MOL0     H95969   2.337  11.077   5.012  2.8341 -0.2595  0.5660
  711MOL0     H95970   2.476  10.895   5.076 -0.5833 -2.8535  0.5964
  711MOL0     H95971   3.846  10.793   6.327  2.3390 -0.4585 -0.7857
  711MOL0     H95972   4.066  10.732   6.444  2.1008 -2.2355 -0.8361
  711MOL0     H95973   4.492  10.400   6.422 -0.3510 -2.0850 -0.0494
  711MOL0     H95974   4.676  10.334   6.564  1.4558  1.0124  2.6703
  711MOL0     H95975   4.677  10.373   6.978 -0.0457 -0.6128  2.8828
  711MOL0     H95976   4.550  10.249   6.980  1.6267  0.2956  1.5383
  711MOL0     H95977   4.728  10.067   6.967  0.4857 -0.2374 -0.8512
  711MOL0     H95978   4.716  10.170   7.108 -1.5212  0.3198 -0.3061
  711MOL0     H95979   4.914  10.319   6.988 -0.5619  0.0686  0.7385
  711MOL0     H95980   4.907  10.202   6.864  2.1645  2.3284  0.4809
  711MOL0     H95981   5.092  10.144   6.988  1.5263 -2.0067  1.2848
  711MOL0     H95982   4.966  10.025   7.020 -0.2010 -1.4166  0.4790
  711MOL0     H95983   5.069  10.225   7.384  0.3802 -0.0487 -0.4322
  711MOL0     H95984   4.416  10.410   6.898 -0.5318  2.0038  0.2489
  711MOL0     H95985   4.249  10.481   6.769 -0.9090 -0.1591  0.4732
  712MOL0     O95986  11.074   8.441   4.073 -0.1867 -0.2517 -0.4945
  712MOL0     C95987  11.076   8.402   3.961 -0.5141  0.3082 -0.9826
  712MOL0     O95988  10.972   8.385   3.879 -0.1008 -0.8219 -0.4209
  712MOL0     C95989  10.848   8.398   3.924  1.5528 -0.4461 -0.2184
  712MOL0     C95990  10.762   8.291   3.899  0.2072 -0.7296  0.1837
  712MOL0     C95991  10.630   8.291   3.943  0.0657  0.6334  0.1374
  712MOL0     C95992  10.584   8.396   4.020 -0.4087  0.7052  0.0781
  712MOL0     O95993  10.468   8.364   4.085  0.4670 -0.3471  0.5702
  712MOL0     C95994  10.422   8.438   4.200 -0.0957 -0.3387  0.3747
  712MOL0     C95995  10.336   8.563   4.156 -0.5639 -0.0506 -0.3088
  712MOL0     C95996  10.209   8.536   4.080  0.5246  0.2046  0.3313
  712MOL0     C95997  10.091   8.477   4.169  0.2741 -0.2002  0.0877
  712MOL0     C95998   9.954   8.465   4.099  0.3621 -0.1037 -0.5927
  712MOL0     C95999   9.865   8.390   4.192  0.2248  0.5112 -0.3846
  712MOL0     C96000   9.733   8.366   4.119 -0.8746 -0.2641  0.4511
  712MOL0     C96001   9.629   8.340   4.223  0.5945  0.7635  0.2025
  712MOL0     N96002   9.501   8.319   4.147  0.1440 -0.2506 -0.8443
  712MOL0     C96003   9.425   8.417   4.075  0.5026  0.5835  0.1338
  712MOL0     C96004   9.314   8.347   4.035 -0.5951 -0.6815  1.1221
  712MOL0     C96005   9.209   8.411   3.941  0.3253 -0.0251  0.6131
  712MOL0     C96006   9.118   8.516   3.997 -0.2770 -0.1323  0.0484
  712MOL0     C96007   9.033   8.592   3.888 -0.8573 -0.2399  0.3227
  712MOL0     C96008   8.958   8.703   3.959 -0.8099 -0.2159 -0.1987
  712MOL0     O96009   8.889   8.794   3.867 -0.5669  0.1650  0.2800
  712MOL0     C96010   8.752   8.793   3.887  0.0191  0.1531 -0.1716
  712MOL0     C96011   8.688   8.882   3.980  0.2441  0.1771 -0.0758
  712MOL0     C96012   8.551   8.879   4.005 -0.3686  0.1673  0.3844
  712MOL0     C96013   8.492   8.979   4.093 -0.3233 -0.1365 -0.5547
  712MOL0     C96014   8.475   8.771   3.944 -0.7085  0.2198  0.5668
  712MOL0     C96015   8.336   8.733   3.979  0.0576 -0.1463  1.0058
  712MOL0     O96016   8.258   8.692   3.870 -0.7324 -0.0479 -0.9551
  712MOL0     C96017   8.128   8.662   3.888  0.3329  0.6330  0.5375
  712MOL0     C96018   8.029   8.750   3.917  0.4070  0.4569  0.5565
  712MOL0     C96019   7.898   8.714   3.929 -0.9566  0.1951  0.0137
  712MOL0     C96020   7.861   8.581   3.892 -0.3800 -0.0363  0.1273
  712MOL0     O96021   7.729   8.551   3.881  0.2936  0.5048  0.2022
  712MOL0     C96022   7.676   8.594   3.758  0.2133 -0.0453  0.0648
  712MOL0     C96023   7.568   8.501   3.720 -0.4757  0.1383  0.2472
  712MOL0     C96024   7.516   8.535   3.586  0.0841  0.9266 -0.4056
  712MOL0     C96025   7.379   8.466   3.553 -0.0359  0.5728  0.1698
  712MOL0     C96026   7.289   8.534   3.448 -0.1917  1.0554 -0.3768
  712MOL0     C96027   7.174   8.623   3.496  0.6404 -0.0052 -0.9290
  712MOL0     C96028   7.246   8.735   3.584 -0.5119 -1.4257 -0.1754
  712MOL0     C96029   7.144   8.822   3.646 -0.5546 -0.0410 -0.2481
  712MOL0    Cl96030   7.002   8.865   3.538  0.1955 -0.0738  0.0357
  712MOL0     C96031   7.964   8.489   3.851  0.0698  0.0146 -0.4845
  712MOL0     C96032   8.092   8.533   3.854  0.0552 -0.2640  0.4883
  712MOL0     O96033   8.296   8.745   4.095  0.1627  1.1764 -0.1862
  712MOL0     C96034   8.542   8.695   3.845 -0.2441  0.3800  0.0280
  712MOL0     C96035   8.675   8.706   3.813 -0.3810  0.6994 -0.5878
  712MOL0     N96036   9.330   8.219   4.081  0.5779  0.3732 -0.1645
  712MOL0     N96037   9.436   8.202   4.143 -0.5726 -0.4839 -0.3673
  712MOL0     C96038  10.661   8.502   4.052 -0.2025 -0.2046  0.2395
  712MOL0     C96039  10.791   8.507   3.994  0.2808 -1.1628  0.1499
  712MOL0     C96040  11.212   8.373   3.907  0.4741 -0.1492  0.0274
  712MOL0     C96041  11.241   8.370   3.765 -0.0733 -0.1717  0.2216
  712MOL0     C96042  11.372   8.352   3.731 -0.0016  0.6265  0.6638
  712MOL0     C96043  11.475   8.323   3.816  0.5796  0.4011  0.0237
  712MOL0     O96044  11.597   8.295   3.758 -1.3249 -0.3931 -0.0401
  712MOL0     C96045  11.714   8.256   3.831 -0.3478  0.2587  0.2479
  712MOL0     C96046  11.798   8.161   3.753 -0.3170 -0.7083 -0.2267
  712MOL0     C96047  11.923   8.114   3.831 -0.3575  1.1547 -0.5738
  712MOL0     C96048  12.031   8.220   3.861  0.1233 -0.2250 -0.5728
  712MOL0     C96049  12.076   8.275   3.730  0.7751 -0.8123 -0.0677
  712MOL0     C96050  12.117   8.304   3.619  0.2494 -0.0032 -0.4124
  712MOL0     C96051  11.449   8.320   3.957  0.1616 -0.4472 -0.1837
  712MOL0     C96052  11.316   8.340   3.995  0.5837  0.1583 -0.5656
  712MOL0     H96053  10.799   8.202   3.849 -1.3611 -0.9651 -0.6287
  712MOL0     H96054  10.566   8.206   3.920 -2.7401  3.2925 -2.8246
  712MOL0     H96055  10.356   8.375   4.260  2.8815 -3.4050  0.7323
  712MOL0     H96056  10.507   8.462   4.265  1.1724 -0.4818 -1.1656
  712MOL0     H96057  10.310   8.631   4.238 -0.1585 -0.6680  0.3462
  712MOL0     H96058  10.400   8.613   4.082  0.4410 -0.4567  0.2657
  712MOL0     H96059  10.169   8.619   4.021 -1.4388  0.1981  1.5522
  712MOL0     H96060  10.224   8.457   4.005 -0.3946  2.2915 -2.2047
  712MOL0     H96061  10.125   8.381   4.209  3.4693  0.4581 -0.7632
  712MOL0     H96062  10.088   8.545   4.255 -4.6451  0.3163 -0.2092
  712MOL0     H96063   9.917   8.566   4.079 -1.3037 -0.4725  0.4066
  712MOL0     H96064   9.962   8.410   4.005  0.7833  0.7398 -1.0627
  712MOL0     H96065   9.906   8.292   4.215  1.5025  0.5450 -2.2967
  712MOL0     H96066   9.854   8.446   4.286  2.2299 -0.8289  0.7192
  712MOL0     H96067   9.694   8.453   4.065  0.1190 -0.1682 -0.1292
  712MOL0     H96068   9.744   8.281   4.052 -1.4760  0.3915 -0.4979
  712MOL0     H96069   9.620   8.420   4.297 -0.6763  2.1281 -1.3554
  712MOL0     H96070   9.671   8.248   4.266 -1.4377 -0.2981  0.0504
  712MOL0     H96071   9.457   8.517   4.048  3.1414 -0.4640 -0.9164
  712MOL0     H96072   9.261   8.455   3.855  2.7553 -1.5215  1.1930
  712MOL0     H96073   9.146   8.332   3.899 -0.1069  0.7714 -0.2645
  712MOL0     H96074   9.171   8.586   4.063 -1.4245 -0.9474  1.9358
  712MOL0     H96075   9.041   8.463   4.054  1.6342 -0.8159  2.1532
  712MOL0     H96076   8.963   8.526   3.838 -1.2894  1.0941 -0.8999
  712MOL0     H96077   9.102   8.634   3.814 -4.5469  1.5712 -2.4337
  712MOL0     H96078   9.025   8.758   4.026 -0.7378  0.2856 -0.6740
  712MOL0     H96079   8.882   8.665   4.028 -3.7268  6.1309  0.7462
  712MOL0     H96080   8.743   8.956   4.037  0.1006 -0.9050  1.5381
  712MOL0     H96081   8.466   8.923   4.183 -2.5609  3.8649  1.5384
  712MOL0     H96082   8.564   9.055   4.125  1.4733 -2.2998  0.8771
  712MOL0     H96083   8.397   9.017   4.055 -0.5406  0.4152  0.4883
  712MOL0     H96084   8.061   8.851   3.944 -1.5667  1.8148 -1.7452
  712MOL0     H96085   7.824   8.792   3.944  1.2545  2.3554  0.3115
  712MOL0     H96086   7.634   8.695   3.765  0.5228  0.1055 -0.2698
  712MOL0     H96087   7.744   8.586   3.673 -1.3385 -2.2672 -1.0812
  712MOL0     H96088   7.608   8.399   3.715 -0.7704  0.0702 -1.2610
  712MOL0     H96089   7.484   8.507   3.790 -2.0022  1.1256 -1.5550
  712MOL0     H96090   7.586   8.504   3.508 -2.1421 -1.1491 -1.6964
  712MOL0     H96091   7.504   8.644   3.586 -0.8709  0.8441  1.0407
  712MOL0     H96092   7.397   8.362   3.523 -1.9094  1.2293 -4.0292
  712MOL0     H96093   7.316   8.453   3.642 -1.6567 -2.4721 -1.2451
  712MOL0     H96094   7.240   8.451   3.396  0.0190  0.3192  0.5666
  712MOL0     H96095   7.351   8.592   3.379  0.6321 -0.2248 -0.7266
  712MOL0     H96096   7.113   8.668   3.417 -1.2400  0.2681  0.5994
  712MOL0     H96097   7.099   8.571   3.556  0.6291 -1.4004 -2.0845
  712MOL0     H96098   7.314   8.799   3.527  0.5187  0.8868  3.3260
  712MOL0     H96099   7.300   8.686   3.665 -0.8907 -0.8250  0.4503
  712MOL0     H96100   7.191   8.911   3.688 -1.2225 -0.2211  0.9031
  712MOL0     H96101   7.101   8.769   3.731  0.5051 -2.3416 -1.0553
  712MOL0     H96102   7.941   8.386   3.823 -2.6891 -0.5248  3.1085
  712MOL0     H96103   8.173   8.466   3.826 -0.3101 -1.4909  2.1539
  712MOL0     H96104   8.485   8.620   3.791 -0.8135 -0.7948  2.1585
  712MOL0     H96105   8.726   8.649   3.735 -1.4053  0.1593 -0.8753
  712MOL0     H96106  10.615   8.577   4.115 -2.1331  1.2963 -2.7464
  712MOL0     H96107  10.858   8.589   4.016  0.1851 -1.6686  2.6183
  712MOL0     H96108  11.166   8.384   3.689  0.3877 -0.5935 -0.3176
  712MOL0     H96109  11.401   8.345   3.626 -2.3363 -2.4545  0.0958
  712MOL0     H96110  11.783   8.341   3.842  0.4164 -0.2076 -0.7949
  712MOL0     H96111  11.685   8.213   3.927  0.2166 -1.2784 -0.2393
  712MOL0     H96112  11.835   8.200   3.658  2.4803  0.2534  1.1626
  712MOL0     H96113  11.738   8.072   3.729  0.0347 -1.1551  0.5336
  712MOL0     H96114  11.961   8.021   3.788 -0.1750  0.3463  1.2610
  712MOL0     H96115  11.885   8.089   3.930  0.4075  0.3617 -0.4699
  712MOL0     H96116  12.120   8.175   3.907  0.6721  0.3318 -1.0715
  712MOL0     H96117  11.991   8.297   3.928  3.7855  2.0728 -0.7735
  712MOL0     H96118  12.155   8.347   3.528  0.8275 -1.7362 -1.0377
  712MOL0     H96119  11.527   8.301   4.030  0.7635 -0.0376 -0.7126
  712MOL0     H96120  11.302   8.338   4.102  3.2749  1.6912 -0.1248
  713MOL0     O96121   4.118   0.141   1.539  0.3462  0.0229  0.0500
  713MOL0     C96122   4.191   0.228   1.587 -0.1717  0.3545  0.5983
  713MOL0     O96123   4.168   0.363   1.592  0.5326  0.2827 -0.3824
  713MOL0     C96124   4.053   0.407   1.528  0.2013  0.4406 -0.0052
  713MOL0     C96125   4.039   0.400   1.384 -0.0576  0.2672 -0.1429
  713MOL0     C96126   3.934   0.451   1.317 -0.0296 -0.6325  0.7899
  713MOL0     C96127   3.826   0.504   1.386  0.2290  0.7807 -0.1322
  713MOL0     O96128   3.719   0.551   1.318  0.0048 -0.0084  0.1162
  713MOL0     C96129   3.597   0.603   1.386 -0.0808 -0.1520  0.8743
  713MOL0     C96130   3.494   0.649   1.277 -0.3211  0.4365  0.0593
  713MOL0     C96131   3.465   0.537   1.167  0.0034  0.4218  0.6393
  713MOL0     C96132   3.343   0.564   1.091  0.2679  0.2928 -0.2185
  713MOL0     C96133   3.363   0.678   0.987 -0.2563 -0.1469  0.5823
  713MOL0     C96134   3.286   0.634   0.863 -1.2457 -0.4611 -0.8874
  713MOL0     C96135   3.302   0.739   0.752 -0.5036  0.2438  0.2083
  713MOL0     C96136   3.218   0.710   0.623  0.3401 -0.8611 -0.3529
  713MOL0     N96137   3.088   0.646   0.638 -0.0759  0.6704  0.1942
  713MOL0     C96138   3.055   0.528   0.591  0.3478  0.4161 -0.5451
  713MOL0     C96139   2.920   0.517   0.607 -0.1676  0.3241  0.3690
  713MOL0     C96140   2.839   0.395   0.560  0.6663  0.4020  0.0127
  713MOL0     C96141   2.748   0.349   0.680 -0.0730 -0.8739  0.7338
  713MOL0     C96142   2.651   0.232   0.649 -1.2192 -0.3545 -0.0897
  713MOL0     C96143   2.499   0.249   0.700 -0.0570 -0.8836 -0.3579
  713MOL0     O96144   2.410   0.161   0.637 -0.1348  0.6343  0.2912
  713MOL0     C96145   2.277   0.168   0.662 -0.2903 -0.8689 -0.2148
  713MOL0     C96146   2.197   0.182   0.556  0.4241 -0.0807 -0.0684
  713MOL0     C96147   2.056   0.170   0.569  0.3189  0.1234  0.4531
  713MOL0     C96148   1.982   0.194   0.440  0.0252  1.3043 -0.8795
  713MOL0     C96149   1.989   0.162   0.696 -0.4129  0.0710  0.1992
  713MOL0     C96150   1.839   0.157   0.713  0.2934  0.2004 -0.5299
  713MOL0     O96151   1.798   0.171   0.841  0.5961 -0.1277 -1.4092
  713MOL0     C96152   1.668   0.131   0.884 -0.9938 -0.0729  0.1735
  713MOL0     C96153   1.580   0.045   0.826  0.1571 -0.0426  0.2690
  713MOL0     C96154   1.449   0.020   0.874 -0.5473  0.8258  0.0773
  713MOL0     C96155   1.400   0.094   0.979  0.4864  0.1338 -0.0719
  713MOL0     O96156   1.265   0.100   1.008  0.3408  1.1270  0.1125
  713MOL0     C96157   1.170   0.120   0.893 -0.0217 -0.0366 -0.6895
  713MOL0     C96158   1.073   0.228   0.937  0.1592 -0.1246  0.4431
  713MOL0     C96159   1.009   0.199   1.078  1.3229  0.4817  0.0708
  713MOL0     C96160   0.888   0.294   1.108  0.0520  0.3735 -0.2098
  713MOL0     C96161   0.843   0.298   1.258 -0.6310  0.4649  0.5718
  713MOL0     C96162   0.728   0.389   1.269  0.4797 -0.0589  0.3677
  713MOL0     C96163   0.655   0.372   1.401 -0.5286  0.2538 -0.3326
  713MOL0     C96164   0.524   0.442   1.397 -0.0345  0.0903 -0.7175
  713MOL0    Cl96165   0.404   0.373   1.286 -0.2793 -0.3758 -0.3895
  713MOL0     C96166   1.488   0.169   1.053  0.6249 -0.7607  0.7977
  713MOL0     C96167   1.625   0.183   1.012 -0.2566  0.3927  0.0091
  713MOL0     O96168   1.762   0.134   0.627  0.7543 -0.1569  0.2275
  713MOL0     C96169   2.080   0.144   0.804  0.0815  0.5099  0.6709
  713MOL0     C96170   2.216   0.143   0.788 -0.5245  0.1849  0.3789
  713MOL0     N96171   2.879   0.627   0.675 -0.0616  0.2862  0.6972
  713MOL0     N96172   2.977   0.710   0.681 -0.0325  0.0027 -0.2661
  713MOL0     C96173   3.827   0.504   1.529 -0.3241  0.1065  0.6143
  713MOL0     C96174   3.947   0.464   1.599  0.6908  0.3358  0.7408
  713MOL0     C96175   4.315   0.189   1.666 -0.2346  0.1301  0.1010
  713MOL0     C96176   4.372   0.293   1.746 -0.4787  0.2224 -0.0557
  713MOL0     C96177   4.491   0.257   1.815  0.6528  0.3909  0.5989
  713MOL0     C96178   4.541   0.126   1.809 -0.1984  0.3632 -0.4348
  713MOL0     O96179   4.655   0.076   1.865  0.1143  0.6836  0.0544
  713MOL0     C96180   4.758   0.166   1.886 -0.4250 -0.1922 -0.6851
  713MOL0     C96181   4.857   0.096   1.985  0.2392 -0.0400 -0.1498
  713MOL0     C96182   4.988   0.167   2.018 -0.2734 -0.9772  0.6522
  713MOL0     C96183   4.961   0.295   2.097  0.1470 -0.6365  0.3436
  713MOL0     C96184   4.896   0.255   2.226  0.2345 -0.2845 -0.8301
  713MOL0     C96185   4.842   0.224   2.331 -0.0654  0.4921 -0.0085
  713MOL0     C96186   4.479   0.027   1.728 -0.8589  0.1271 -0.2378
  713MOL0     C96187   4.367   0.058   1.662  0.3301  1.1316  0.1782
  713MOL0     H96188   4.123   0.371   1.322  0.5570  0.0550  0.7625
  713MOL0     H96189   3.929   0.462   1.209  4.0950  2.9636  0.6941
  713MOL0     H96190   3.547   0.526   1.445  0.2388 -1.4344 -0.4758
  713MOL0     H96191   3.621   0.690   1.449 -1.5526  1.7072 -0.9968
  713MOL0     H96192   3.401   0.675   1.328 -0.6752 -2.9940  1.4437
  713MOL0     H96193   3.538   0.738   1.233  0.2548 -0.0164 -0.2950
  713MOL0     H96194   3.553   0.535   1.101 -1.6937  1.0339 -1.7500
  713MOL0     H96195   3.451   0.439   1.213  2.9925 -0.9642 -1.0781
  713MOL0     H96196   3.308   0.473   1.040 -2.3937  0.5969  0.9074
  713MOL0     H96197   3.260   0.584   1.159 -1.9216  0.9419 -2.8955
  713MOL0     H96198   3.322   0.772   1.024  2.6038  1.2534  0.4911
  713MOL0     H96199   3.465   0.697   0.951 -0.7681  0.9799 -0.3802
  713MOL0     H96200   3.319   0.535   0.832 -1.1063 -0.7108  0.0195
  713MOL0     H96201   3.180   0.635   0.891 -0.9975  1.4999  0.1228
  713MOL0     H96202   3.262   0.833   0.791  0.1471 -0.2677  2.2956
  713MOL0     H96203   3.411   0.747   0.742 -0.4149 -0.0939  0.8315
  713MOL0     H96204   3.279   0.653   0.551 -1.5768  0.3123 -3.0787
  713MOL0     H96205   3.205   0.807   0.574 -0.6778 -2.4555 -3.5192
  713MOL0     H96206   3.114   0.454   0.537 -1.3127 -0.8340 -0.7371
  713MOL0     H96207   2.768   0.416   0.480  1.0770  5.7210  0.6702
  713MOL0     H96208   2.909   0.318   0.526 -1.1186 -0.3937 -2.1252
  713MOL0     H96209   2.691   0.433   0.721 -0.6206 -1.6103  1.5262
  713MOL0     H96210   2.812   0.318   0.763  1.4764  0.8384  0.2373
  713MOL0     H96211   2.688   0.146   0.705 -0.4321 -1.3170 -1.9832
  713MOL0     H96212   2.635   0.213   0.542  0.6202  1.7261 -0.8211
  713MOL0     H96213   2.466   0.353   0.686  1.8189 -0.0696  0.8751
  713MOL0     H96214   2.501   0.229   0.807  4.5183  0.1996 -0.0729
  713MOL0     H96215   2.245   0.200   0.461  1.1859  1.9181  0.6368
  713MOL0     H96216   1.915   0.280   0.449  0.0171  1.2601 -0.5113
  713MOL0     H96217   2.058   0.220   0.366  0.6080 -0.7686 -1.0877
  713MOL0     H96218   1.930   0.105   0.403  1.1682  1.6164 -3.4033
  713MOL0     H96219   1.607  -0.020   0.743  1.1768 -1.4438  1.6405
  713MOL0     H96220   1.390  -0.058   0.828 -0.0896 -1.0150  2.4122
  713MOL0     H96221   1.225   0.151   0.803  2.3493 -0.4669  0.5425
  713MOL0     H96222   1.120   0.026   0.872 -3.4108  1.5802 -0.5050
  713MOL0     H96223   1.130   0.321   0.951  3.1163 -2.0538  2.6275
  713MOL0     H96224   1.003   0.227   0.854  2.7379  0.3241 -1.8753
  713MOL0     H96225   1.085   0.205   1.157 -0.5604  0.7745  1.9878
  713MOL0     H96226   0.972   0.096   1.083  1.8433  0.3338  1.7413
  713MOL0     H96227   0.922   0.398   1.101  1.5856  0.2104  2.9625
  713MOL0     H96228   0.814   0.273   1.031 -0.9660 -0.1156  0.8608
  713MOL0     H96229   0.919   0.348   1.319 -0.8835  1.6323 -0.0531
  713MOL0     H96230   0.817   0.200   1.299 -1.1624 -0.4784 -1.8438
  713MOL0     H96231   0.757   0.493   1.254 -0.4783  0.4474  1.8058
  713MOL0     H96232   0.647   0.367   1.198  0.5335 -3.4049  1.1571
  713MOL0     H96233   0.722   0.416   1.476 -1.1196 -0.3229  0.5558
  713MOL0     H96234   0.633   0.267   1.423 -0.4117  0.6628  2.0122
  713MOL0     H96235   0.541   0.545   1.364  1.3373 -0.5084 -2.0442
  713MOL0     H96236   0.470   0.452   1.492  1.0092 -1.5934  0.0912
  713MOL0     H96237   1.442   0.219   1.138 -2.3057 -1.0704 -0.4664
  713MOL0     H96238   1.690   0.237   1.080 -4.0004  0.4695  3.9771
  713MOL0     H96239   2.043   0.137   0.906 -0.3720 -1.0904  0.4271
  713MOL0     H96240   2.275   0.128   0.878  0.7114  0.2993 -0.3818
  713MOL0     H96241   3.744   0.529   1.595  1.2176  0.2270  2.6080
  713MOL0     H96242   3.947   0.468   1.707  3.2977  0.0832  0.8168
  713MOL0     H96243   4.339   0.396   1.752 -3.3933 -0.6472  0.2918
  713MOL0     H96244   4.539   0.346   1.855  2.1913 -0.2163  0.1866
  713MOL0     H96245   4.811   0.204   1.798 -0.0352  0.5205 -0.1520
  713MOL0     H96246   4.703   0.245   1.938  1.0671 -0.3964  1.3312
  713MOL0     H96247   4.886   0.007   1.929  1.9397 -0.6405  1.5947
  713MOL0     H96248   4.814   0.057   2.078  1.8109 -3.3501 -0.6689
  713MOL0     H96249   5.041   0.187   1.925 -2.8512 -1.8978 -1.1146
  713MOL0     H96250   5.054   0.110   2.084  0.5537  0.8941  1.5126
  713MOL0     H96251   4.898   0.365   2.041 -1.9721 -3.4466 -1.0533
  713MOL0     H96252   5.057   0.345   2.112 -0.4416  0.3174  1.1237
  713MOL0     H96253   4.797   0.198   2.424  3.7667 -1.5666  1.5081
  713MOL0     H96254   4.520  -0.073   1.721  0.1714  0.1481  3.3069
  713MOL0     H96255   4.324  -0.014   1.592 -1.1088  2.2876 -0.1970
  714MOL0     O96256   7.500   9.872   3.358 -0.6122 -0.4284 -0.4205
  714MOL0     C96257   7.575   9.900   3.458  0.3669 -0.0546 -0.4737
  714MOL0     O96258   7.557   9.847   3.583  0.2113  0.2289 -0.2422
  714MOL0     C96259   7.439   9.793   3.613  0.0868  0.6430 -0.0261
  714MOL0     C96260   7.379   9.682   3.539  0.9111  0.0479 -0.3311
  714MOL0     C96261   7.247   9.642   3.577  0.8134  0.1292  1.1944
  714MOL0     C96262   7.172   9.697   3.680 -0.6878 -0.3628 -0.6453
  714MOL0     O96263   7.049   9.649   3.730  0.0490  0.1621  0.4957
  714MOL0     C96264   7.003   9.525   3.665  0.3510  0.4380  0.1664
  714MOL0     C96265   6.855   9.493   3.686 -0.6550  0.7814 -0.1123
  714MOL0     C96266   6.800   9.518   3.828 -0.1205  0.0220  0.2073
  714MOL0     C96267   6.865   9.422   3.925 -0.2408  0.7699 -0.1291
  714MOL0     C96268   6.798   9.448   4.062  0.3114 -0.1695  0.3912
  714MOL0     C96269   6.859   9.363   4.175  0.3750  0.2852 -0.7845
  714MOL0     C96270   6.792   9.405   4.307 -0.5794 -0.0958 -0.1815
  714MOL0     C96271   6.837   9.311   4.424  0.0776  0.7133 -0.3582
  714MOL0     N96272   6.747   9.189   4.439  0.2962  0.0158 -0.6550
  714MOL0     C96273   6.791   9.060   4.436 -0.0491  0.6946 -0.1268
  714MOL0     C96274   6.677   8.982   4.451  0.0073 -0.7546 -0.0731
  714MOL0     C96275   6.681   8.831   4.456  0.3859 -0.5584 -0.5163
  714MOL0     C96276   6.648   8.793   4.609 -0.3034  0.3135 -0.0879
  714MOL0     C96277   6.669   8.643   4.641 -0.0344  0.5610 -0.3446
  714MOL0     C96278   6.582   8.592   4.754 -0.4962 -0.0216 -0.4547
  714MOL0     O96279   6.446   8.607   4.713 -0.2567 -0.0975 -0.1810
  714MOL0     C96280   6.362   8.700   4.768  0.0905 -0.7826  0.0769
  714MOL0     C96281   6.221   8.675   4.754 -0.0788  0.3436 -0.4976
  714MOL0     C96282   6.122   8.755   4.816 -0.5255 -0.0458  0.3408
  714MOL0     C96283   5.982   8.720   4.784 -0.4501 -0.3431  0.7303
  714MOL0     C96284   6.163   8.866   4.894  0.4833 -0.2583 -0.1250
  714MOL0     C96285   6.069   8.967   4.955 -0.1453 -0.4271 -0.4616
  714MOL0     O96286   5.949   8.921   4.986  0.0044 -0.3580  0.3031
  714MOL0     C96287   5.863   9.021   5.026 -0.4085  0.1024 -0.7816
  714MOL0     C96288   5.829   9.028   5.165  0.9177  0.3039 -0.3938
  714MOL0     C96289   5.722   9.106   5.208  0.5403 -0.4947 -0.4171
  714MOL0     C96290   5.673   9.201   5.121  0.3945 -0.0134 -0.3814
  714MOL0     O96291   5.579   9.291   5.174 -0.6520  0.6302  0.6148
  714MOL0     C96292   5.504   9.369   5.077  0.2574  0.2055  0.1563
  714MOL0     C96293   5.424   9.470   5.148  0.5333 -0.0789 -0.6160
  714MOL0     C96294   5.517   9.575   5.221 -0.1785 -0.0085 -0.0673
  714MOL0     C96295   5.613   9.657   5.141 -0.2648 -0.1294 -0.5898
  714MOL0     C96296   5.686   9.765   5.229 -0.1955  0.1456  0.3667
  714MOL0     C96297   5.773   9.843   5.134 -0.0077  0.3331 -0.3448
  714MOL0     C96298   5.823   9.953   5.218  0.5983  0.5928  0.3604
  714MOL0     C96299   5.899  10.064   5.152  0.8450 -0.0444  0.3877
  714MOL0    Cl96300   6.056   9.999   5.092  0.1221 -0.2663 -0.2562
  714MOL0     C96301   5.706   9.201   4.983 -0.0413  0.0400 -0.3366
  714MOL0     C96302   5.793   9.104   4.938 -0.2023  0.2823 -0.2593
  714MOL0     O96303   6.108   9.083   4.970  0.0230  0.2006  0.4628
  714MOL0     C96304   6.300   8.887   4.907 -0.2802 -0.1683  0.0579
  714MOL0     C96305   6.405   8.810   4.846  0.2555  0.4364  0.0146
  714MOL0     N96306   6.565   9.066   4.459  0.1336  0.2618  0.4942
  714MOL0     N96307   6.613   9.188   4.441 -0.2773 -0.8111  0.1824
  714MOL0     C96308   7.240   9.798   3.747 -1.3227  0.1566 -0.0617
  714MOL0     C96309   7.373   9.837   3.724  0.4063  0.2656 -0.5329
  714MOL0     C96310   7.705   9.967   3.435 -0.2218  0.8025 -0.4280
  714MOL0     C96311   7.746   9.990   3.303 -0.5479 -0.2238 -0.4687
  714MOL0     C96312   7.878  10.036   3.275  0.7312  0.7712  0.6666
  714MOL0     C96313   7.964  10.067   3.375 -0.6249 -0.3868 -0.4297
  714MOL0     O96314   8.087  10.115   3.339  0.1776 -0.2276 -0.3876
  714MOL0     C96315   8.199  10.020   3.341  0.6490 -0.1982  0.1565
  714MOL0     C96316   8.283  10.040   3.218  0.7759  0.5182 -0.5245
  714MOL0     C96317   8.397   9.936   3.211  0.8606  0.5902 -0.2280
  714MOL0     C96318   8.519   9.946   3.308  0.5628 -0.8282  0.4292
  714MOL0     C96319   8.612   9.839   3.268 -0.4762  0.7225  0.3584
  714MOL0     C96320   8.674   9.744   3.248  0.8349 -0.0280 -1.0143
  714MOL0     C96321   7.939  10.026   3.506  0.2582  0.0761 -0.1366
  714MOL0     C96322   7.812   9.975   3.537  0.0547  0.1373 -0.0793
  714MOL0     H96323   7.434   9.643   3.455  0.9255 -1.3386  0.2984
  714MOL0     H96324   7.216   9.555   3.519  1.5348  2.1702 -2.5907
  714MOL0     H96325   7.014   9.515   3.557 -0.3335 -2.6155  0.2786
  714MOL0     H96326   7.062   9.443   3.706  0.6279  0.8594  0.6304
  714MOL0     H96327   6.799   9.554   3.614  0.5416 -0.3815 -2.1458
  714MOL0     H96328   6.834   9.394   3.646  2.0512  0.7693 -1.7649
  714MOL0     H96329   6.820   9.623   3.850 -0.2787 -0.1136  1.0491
  714MOL0     H96330   6.691   9.505   3.821  0.1208 -1.6812 -1.0682
  714MOL0     H96331   6.848   9.320   3.890 -0.5417  0.0216  2.0323
  714MOL0     H96332   6.974   9.433   3.925 -0.1303  0.6978 -3.4686
  714MOL0     H96333   6.805   9.554   4.088  1.6035 -0.1559  0.0471
  714MOL0     H96334   6.690   9.432   4.070  0.4587 -1.0645  0.6541
  714MOL0     H96335   6.848   9.256   4.155  0.7042 -0.4549  2.3581
  714MOL0     H96336   6.968   9.371   4.187  0.1799 -0.2011  2.3256
  714MOL0     H96337   6.820   9.510   4.319  0.0894 -0.1653 -1.0126
  714MOL0     H96338   6.685   9.387   4.291 -0.3284 -1.0325 -0.9578
  714MOL0     H96339   6.857   9.365   4.517 -0.0121  0.7041 -0.3327
  714MOL0     H96340   6.934   9.277   4.387 -0.6082 -0.7778 -0.9150
  714MOL0     H96341   6.895   9.030   4.421 -0.0013  0.8559 -0.1193
  714MOL0     H96342   6.595   8.780   4.412  0.0376 -3.2258  2.8110
  714MOL0     H96343   6.777   8.788   4.427  0.3979 -2.0709  1.5250
  714MOL0     H96344   6.542   8.809   4.632 -0.0608 -1.1785  2.4447
  714MOL0     H96345   6.714   8.845   4.679  0.5981  1.2142 -1.5718
  714MOL0     H96346   6.774   8.627   4.667  0.0988  0.9558 -0.6248
  714MOL0     H96347   6.643   8.578   4.556 -4.0160 -0.4215  1.4171
  714MOL0     H96348   6.612   8.636   4.849  0.0565  1.0481 -1.1011
  714MOL0     H96349   6.597   8.485   4.773 -2.1594 -0.0140  1.1751
  714MOL0     H96350   6.201   8.582   4.701  1.0660 -0.4325  0.3950
  714MOL0     H96351   5.928   8.812   4.760 -2.8268 -0.7887  3.7202
  714MOL0     H96352   5.969   8.664   4.691 -3.1789  0.5567  0.4890
  714MOL0     H96353   5.936   8.685   4.877 -3.6815  2.6525  0.4547
  714MOL0     H96354   5.891   8.973   5.235  0.1898 -1.3588 -1.0000
  714MOL0     H96355   5.683   9.088   5.308 -5.0775 -0.1736 -2.1684
  714MOL0     H96356   5.570   9.423   5.008  0.7520 -0.3493  0.1891
  714MOL0     H96357   5.435   9.299   5.029  0.5133  0.2512 -0.2840
  714MOL0     H96358   5.362   9.519   5.073  1.4805  2.2459  0.0154
  714MOL0     H96359   5.360   9.419   5.221  0.9226  0.5695  0.2020
  714MOL0     H96360   5.580   9.520   5.292  1.0295  1.6028  0.1713
  714MOL0     H96361   5.448   9.638   5.279  0.1259  1.5275 -1.3105
  714MOL0     H96362   5.679   9.586   5.091 -0.3133 -1.4539  1.1516
  714MOL0     H96363   5.552   9.705   5.063  0.9716 -0.2659 -1.6677
  714MOL0     H96364   5.750   9.720   5.305  0.0102 -0.0340  0.0863
  714MOL0     H96365   5.619   9.838   5.276 -2.1099 -0.3846 -1.3724
  714MOL0     H96366   5.853   9.776   5.103 -0.1634  0.6681 -1.4919
  714MOL0     H96367   5.711   9.887   5.056 -0.3577  1.0649  0.3235
  714MOL0     H96368   5.896   9.913   5.289  1.9263  1.0077 -0.7176
  714MOL0     H96369   5.738  10.005   5.264 -0.7959 -1.0985 -0.1875
  714MOL0     H96370   5.921  10.145   5.222  3.2338 -1.2902  1.2135
  714MOL0     H96371   5.833  10.095   5.071 -0.7132  0.4849  1.8179
  714MOL0     H96372   5.668   9.277   4.915 -2.4391  1.2673  2.1519
  714MOL0     H96373   5.821   9.098   4.833 -0.3816  0.2879 -0.3073
  714MOL0     H96374   6.329   8.975   4.964  1.7465 -0.3267 -0.6476
  714MOL0     H96375   6.509   8.839   4.858  0.1219  0.9517 -0.0400
  714MOL0     H96376   7.191   9.849   3.830 -2.6564 -0.2652 -0.5495
  714MOL0     H96377   7.426   9.906   3.788 -0.5600  2.0309 -1.5573
  714MOL0     H96378   7.679   9.965   3.222  0.1807 -1.3631 -0.7360
  714MOL0     H96379   7.911  10.063   3.175  0.9386 -2.0474 -0.1165
  714MOL0     H96380   8.259  10.035   3.431  0.2528 -0.0274  0.3936
  714MOL0     H96381   8.161   9.918   3.351 -4.5760  1.5788  1.7261
  714MOL0     H96382   8.317  10.143   3.230  1.6416  0.2518 -0.6469
  714MOL0     H96383   8.223  10.015   3.130 -0.6710 -1.5537  0.9309
  714MOL0     H96384   8.435   9.930   3.108 -1.2924 -0.4122 -1.0205
  714MOL0     H96385   8.350   9.838   3.222 -1.4899  1.8848  2.5402
  714MOL0     H96386   8.478   9.929   3.408  0.2220  0.9688  0.6179
  714MOL0     H96387   8.560  10.045   3.290 -0.2257 -0.1539  2.1383
  714MOL0     H96388   8.724   9.650   3.257 -1.3472 -1.0751  2.0297
  714MOL0     H96389   8.015  10.032   3.582 -0.4660  2.0190  0.5116
  714MOL0     H96390   7.792   9.924   3.631 -1.8324  1.8117  0.4948
  715MOL0     O96391   6.976   1.518   6.163  0.6808 -0.0892 -0.6263
  715MOL0     C96392   7.051   1.486   6.250 -0.6663 -0.6695 -0.4034
  715MOL0     O96393   7.021   1.410   6.356  0.6922  0.4137 -0.4867
  715MOL0     C96394   6.896   1.341   6.363  0.4331 -0.4544  0.7474
  715MOL0     C96395   6.811   1.353   6.473  0.7584  0.1334 -0.4417
  715MOL0     C96396   6.694   1.276   6.472  0.2292 -0.3391  0.5287
  715MOL0     C96397   6.651   1.187   6.369  0.3733 -0.9104  0.1886
  715MOL0     O96398   6.528   1.139   6.369 -0.5949  0.1625  0.1498
  715MOL0     C96399   6.478   1.093   6.495 -0.0922 -0.1734 -0.5753
  715MOL0     C96400   6.360   0.988   6.468  0.3531  0.5997 -0.0342
  715MOL0     C96401   6.310   0.901   6.585 -0.2858  0.1817  0.5577
  715MOL0     C96402   6.288   0.967   6.720  0.1852  0.1871 -0.0659
  715MOL0     C96403   6.278   0.866   6.839 -0.0399 -0.6849  0.3702
  715MOL0     C96404   6.164   0.767   6.823  0.2224  0.5028  0.1146
  715MOL0     C96405   6.126   0.710   6.957 -0.8391 -0.5674  0.7284
  715MOL0     C96406   5.997   0.630   6.941  0.9162  0.8907  0.6557
  715MOL0     N96407   5.882   0.690   6.867 -0.1755 -0.1370  0.1614
  715MOL0     C96408   5.878   0.690   6.721 -0.3150 -0.3950 -0.5714
  715MOL0     C96409   5.796   0.791   6.693  0.2637  0.2377  0.3173
  715MOL0     C96410   5.768   0.818   6.545  0.9992  0.3942  0.0363
  715MOL0     C96411   5.685   0.696   6.488  0.3021 -1.1556  0.2255
  715MOL0     C96412   5.544   0.692   6.560  0.1275 -0.5275  0.3088
  715MOL0     C96413   5.444   0.794   6.519  0.5084 -0.0093 -0.3056
  715MOL0     O96414   5.305   0.764   6.582  0.1019 -0.0666  0.5279
  715MOL0     C96415   5.204   0.854   6.559 -0.7991 -0.2317  0.1598
  715MOL0     C96416   5.214   0.982   6.500  0.2703  0.3255  0.0466
  715MOL0     C96417   5.106   1.070   6.510  0.1801 -0.2014  0.5517
  715MOL0     C96418   5.139   1.211   6.462  0.3660  0.6578  0.4315
  715MOL0     C96419   4.976   1.030   6.565 -0.5292 -0.8495  0.1783
  715MOL0     C96420   4.868   1.122   6.591 -0.0959  0.1092 -0.6061
  715MOL0     O96421   4.782   1.078   6.682  0.0316  0.0113  0.2085
  715MOL0     C96422   4.664   1.149   6.699  0.0080  0.3348  0.6418
  715MOL0     C96423   4.660   1.283   6.749  0.1229 -0.0286  0.6584
  715MOL0     C96424   4.532   1.344   6.776 -0.7498  0.9343 -1.1031
  715MOL0     C96425   4.419   1.265   6.752  0.7525  0.1103  0.3071
  715MOL0     O96426   4.290   1.312   6.769 -0.0389  0.1956  0.3252
  715MOL0     C96427   4.275   1.440   6.834 -0.5006  0.2449 -0.6678
  715MOL0     C96428   4.129   1.470   6.858  0.4150  0.1780 -0.1310
  715MOL0     C96429   4.061   1.357   6.936  0.4433 -0.3182 -0.0081
  715MOL0     C96430   3.912   1.391   6.963  0.5578 -0.4471  0.3244
  715MOL0     C96431   3.834   1.264   7.002  0.4294 -0.5019 -0.4335
  715MOL0     C96432   3.688   1.299   7.038  0.0913 -0.0569 -0.3216
  715MOL0     C96433   3.605   1.183   7.092 -1.0948 -0.4029  0.9514
  715MOL0     C96434   3.473   1.227   7.147  0.2773 -0.9064 -0.0870
  715MOL0    Cl96435   3.370   1.086   7.200  0.0168 -0.1872  0.1631
  715MOL0     C96436   4.425   1.142   6.690  0.3527  0.2030  0.0308
  715MOL0     C96437   4.547   1.084   6.663 -0.0577  0.3330  0.0918
  715MOL0     O96438   4.851   1.220   6.516 -0.1627  0.1721 -0.6791
  715MOL0     C96439   4.971   0.893   6.605 -0.0555 -0.2198 -0.1852
  715MOL0     C96440   5.083   0.809   6.603  0.5292  0.4921 -0.0987
  715MOL0     N96441   5.744   0.843   6.811 -0.2472 -0.4515  0.1688
  715MOL0     N96442   5.793   0.784   6.913 -0.0811 -0.1188  0.4549
  715MOL0     C96443   6.734   1.183   6.266  0.5816  0.4073  0.9332
  715MOL0     C96444   6.858   1.253   6.261  0.2438 -0.1725 -0.2297
  715MOL0     C96445   7.185   1.542   6.247  0.3324  0.2434 -0.9632
  715MOL0     C96446   7.226   1.644   6.166  0.1541 -0.5850  1.2330
  715MOL0     C96447   7.353   1.697   6.174  0.2683  0.8274 -0.0594
  715MOL0     C96448   7.453   1.649   6.257 -0.9542 -0.2204 -0.7293
  715MOL0     O96449   7.583   1.700   6.243  0.0778 -0.4743  0.9723
  715MOL0     C96450   7.694   1.636   6.320 -0.3600  0.3095 -0.4596
  715MOL0     C96451   7.820   1.664   6.236 -0.2526  0.0292 -0.3028
  715MOL0     C96452   7.821   1.605   6.105  0.0799  0.0170  0.3301
  715MOL0     C96453   7.948   1.618   6.020  1.3809 -0.8548 -0.8209
  715MOL0     C96454   8.068   1.578   6.090  0.2782 -0.1676  1.1623
  715MOL0     C96455   8.168   1.548   6.151 -0.4184 -0.8650 -0.1561
  715MOL0     C96456   7.412   1.542   6.348  0.1312  0.0299  0.2713
  715MOL0     C96457   7.286   1.481   6.330  0.2235  1.0157 -0.1476
  715MOL0     H96458   6.821   1.426   6.553 -3.1925  1.3370 -0.8447
  715MOL0     H96459   6.648   1.275   6.571 -2.7437  2.0330 -0.6472
  715MOL0     H96460   6.552   1.046   6.560  1.4876  1.2063 -1.2850
  715MOL0     H96461   6.446   1.181   6.551 -0.9275 -0.1463 -1.0824
  715MOL0     H96462   6.270   1.033   6.426 -0.7409 -1.1449  0.3114
  715MOL0     H96463   6.394   0.910   6.400  0.8905  0.4338  0.4161
  715MOL0     H96464   6.216   0.857   6.549 -0.0331  0.0253  0.0839
  715MOL0     H96465   6.385   0.823   6.600 -0.7837 -0.2540  0.8162
  715MOL0     H96466   6.376   1.029   6.740 -0.7760  1.1371  1.4007
  715MOL0     H96467   6.195   1.024   6.720  1.0537  1.9079 -3.8606
  715MOL0     H96468   6.369   0.808   6.856  0.7118  0.2170 -0.5031
  715MOL0     H96469   6.255   0.939   6.918  1.9591  1.3273 -0.8108
  715MOL0     H96470   6.081   0.825   6.780 -0.7897 -1.8781 -1.3444
  715MOL0     H96471   6.183   0.684   6.754 -0.8807  0.2853  0.0550
  715MOL0     H96472   6.205   0.642   6.989  0.2067  0.6926  0.8962
  715MOL0     H96473   6.108   0.796   7.023 -1.0209 -1.7142  2.2254
  715MOL0     H96474   5.969   0.603   7.044  0.8080 -0.4878  0.2884
  715MOL0     H96475   6.017   0.532   6.895 -0.4150 -0.5477  2.9272
  715MOL0     H96476   5.934   0.638   6.644  3.9549  2.3993  0.2617
  715MOL0     H96477   5.715   0.912   6.528  0.4094  0.2121  0.8046
  715MOL0     H96478   5.862   0.822   6.488 -0.2846 -2.1212 -2.4708
  715MOL0     H96479   5.739   0.602   6.500 -0.2674 -1.5385 -0.1453
  715MOL0     H96480   5.662   0.720   6.384  0.6736 -2.7738 -0.2566
  715MOL0     H96481   5.549   0.700   6.669 -0.3994  0.1971  0.2839
  715MOL0     H96482   5.511   0.592   6.532  1.1967 -0.4886 -1.2110
  715MOL0     H96483   5.432   0.802   6.411  2.2025 -1.6145 -0.6566
  715MOL0     H96484   5.472   0.890   6.563  1.7361 -0.3092 -0.4010
  715MOL0     H96485   5.307   1.026   6.465 -0.2883  1.1590 -0.4105
  715MOL0     H96486   5.122   1.232   6.356  0.3576  0.2741  0.3582
  715MOL0     H96487   5.080   1.282   6.522 -2.4601 -1.2875  0.1570
  715MOL0     H96488   5.239   1.244   6.492  0.8430 -0.0613 -0.3288
  715MOL0     H96489   4.749   1.339   6.773  0.0679 -0.1884  1.2523
  715MOL0     H96490   4.527   1.449   6.803 -0.8996  0.6323  0.0936
  715MOL0     H96491   4.315   1.439   6.936  0.6761 -1.8243 -1.0928
  715MOL0     H96492   4.319   1.519   6.773  1.4622 -0.3649 -0.1263
  715MOL0     H96493   4.113   1.567   6.905  0.1228  0.3289 -0.5366
  715MOL0     H96494   4.082   1.488   6.761  0.6279  1.0436 -0.0861
  715MOL0     H96495   4.115   1.330   7.027  0.8192 -0.3001 -0.2184
  715MOL0     H96496   4.077   1.266   6.878  2.1972 -0.7231  1.0146
  715MOL0     H96497   3.913   1.455   7.052 -0.8194 -0.9000  0.6871
  715MOL0     H96498   3.870   1.436   6.873 -0.2147 -0.7550  0.5179
  715MOL0     H96499   3.883   1.228   7.093  0.4827  5.8420  2.6864
  715MOL0     H96500   3.838   1.187   6.925  0.3440  1.2372 -2.2629
  715MOL0     H96501   3.688   1.369   7.122  2.3954 -2.4321  1.8319
  715MOL0     H96502   3.641   1.340   6.947 -2.7179 -0.0647  1.0194
  715MOL0     H96503   3.666   1.142   7.173 -1.3128  1.5369  2.1716
  715MOL0     H96504   3.593   1.117   7.006  0.0917  0.6162 -0.0494
  715MOL0     H96505   3.420   1.289   7.075 -1.1051  4.0961  4.5624
  715MOL0     H96506   3.480   1.288   7.237  0.4871 -1.4752  0.2927
  715MOL0     H96507   4.338   1.079   6.670  1.1694 -1.9122  2.4774
  715MOL0     H96508   4.549   0.984   6.620 -0.4926  0.3590  0.0047
  715MOL0     H96509   4.880   0.847   6.642  0.8094 -3.1997 -1.4429
  715MOL0     H96510   5.063   0.712   6.647 -0.2571  1.2300  1.2469
  715MOL0     H96511   6.710   1.121   6.180  0.2395  1.7373  0.0365
  715MOL0     H96512   6.923   1.237   6.176  0.9598  0.2764  0.2226
  715MOL0     H96513   7.151   1.685   6.099 -0.5454  1.0606  2.9103
  715MOL0     H96514   7.376   1.784   6.114 -2.6380  1.9722  0.3022
  715MOL0     H96515   7.697   1.667   6.425 -0.8808 -0.2867 -0.2654
  715MOL0     H96516   7.682   1.529   6.306  0.7502  0.2905 -1.4987
  715MOL0     H96517   7.904   1.625   6.294 -1.6398 -1.1089  1.0331
  715MOL0     H96518   7.834   1.773   6.236 -2.0353  0.2876 -0.5565
  715MOL0     H96519   7.744   1.660   6.049 -1.1848 -3.4672 -1.6487
  715MOL0     H96520   7.789   1.501   6.109  1.7508 -0.5200  0.3643
  715MOL0     H96521   7.963   1.725   6.002  0.0830 -0.9799 -2.9642
  715MOL0     H96522   7.931   1.564   5.927  0.1680  1.7646 -2.2387
  715MOL0     H96523   8.262   1.519   6.193  0.7580 -0.4669 -2.3854
  715MOL0     H96524   7.483   1.505   6.421 -0.5677 -0.1947  0.8473
  715MOL0     H96525   7.274   1.387   6.383  4.1695 -0.0286 -0.8023
  716MOL0     O96526   9.425   7.017   5.986  0.1206  0.2207 -0.2707
  716MOL0     C96527   9.409   7.123   5.938  0.4918 -0.5620  0.2906
  716MOL0     O96528   9.289   7.172   5.884  0.3720 -0.7459  0.2990
  716MOL0     C96529   9.182   7.086   5.904  0.3624  0.1574  0.6177
  716MOL0     C96530   9.153   6.986   5.807  0.4117  0.3567  1.3247
  716MOL0     C96531   9.047   6.893   5.821  0.4340 -0.3378  0.5941
  716MOL0     C96532   8.970   6.904   5.934 -0.0123  0.6360  0.0402
  716MOL0     O96533   8.861   6.826   5.938  0.2964  0.5266 -0.1562
  716MOL0     C96534   8.761   6.877   5.845 -0.1775  1.0554 -0.1070
  716MOL0     C96535   8.640   6.788   5.868  0.3673  1.1745  0.1626
  716MOL0     C96536   8.500   6.855   5.855  0.0387  0.2716  0.5213
  716MOL0     C96537   8.398   6.738   5.889  0.1571  0.3087 -0.1783
  716MOL0     C96538   8.255   6.786   5.881  0.4150  0.7430  0.3155
  716MOL0     C96539   8.193   6.789   5.744 -0.7562 -0.3206 -0.1098
  716MOL0     C96540   8.153   6.658   5.679  0.4002  0.0877 -0.6029
  716MOL0     C96541   8.062   6.683   5.559  0.9248  0.3018  0.5103
  716MOL0     N96542   8.054   6.574   5.456 -0.4670  0.7795  0.0872
  716MOL0     C96543   8.003   6.443   5.473  0.2913 -0.0191 -0.5244
  716MOL0     C96544   8.003   6.400   5.347 -0.2862  0.0179  0.3366
  716MOL0     C96545   7.965   6.260   5.302  0.2999  0.0976  1.1379
  716MOL0     C96546   7.815   6.248   5.287 -0.4487 -0.6161  0.6504
  716MOL0     C96547   7.738   6.238   5.417 -0.2708 -0.4805  0.8684
  716MOL0     C96548   7.597   6.209   5.382 -0.7238 -0.0136 -0.2162
  716MOL0     O96549   7.521   6.213   5.504 -0.1329  0.1641  0.9628
  716MOL0     C96550   7.383   6.193   5.482 -0.8793  0.5457 -0.1663
  716MOL0     C96551   7.294   6.223   5.586 -0.5424  1.1623  0.7743
  716MOL0     C96552   7.149   6.187   5.574 -0.1937  0.4664  0.2261
  716MOL0     C96553   7.075   6.210   5.702 -0.0979 -0.2669  0.7063
  716MOL0     C96554   7.100   6.116   5.463  0.3906 -0.0454 -0.0727
  716MOL0     C96555   6.961   6.058   5.457  0.3918  0.5915  0.1577
  716MOL0     O96556   6.933   5.959   5.360 -0.4487  0.4464 -0.0709
  716MOL0     C96557   6.810   5.932   5.313  0.3584  0.3335  0.0384
  716MOL0     C96558   6.726   6.036   5.270 -0.8811  0.0577 -0.3713
  716MOL0     C96559   6.590   6.017   5.254 -0.6098 -0.6539 -0.1862
  716MOL0     C96560   6.543   5.883   5.265 -0.1908 -1.1399  0.2053
  716MOL0     O96561   6.416   5.846   5.249  0.6528 -0.3741 -0.3731
  716MOL0     C96562   6.306   5.945   5.233 -0.4551 -0.6945  0.6644
  716MOL0     C96563   6.176   5.874   5.268  0.2147  0.1160  1.0012
  716MOL0     C96564   6.124   5.789   5.152  0.3999  0.0536 -0.0319
  716MOL0     C96565   5.987   5.740   5.171 -0.6256 -0.2725 -0.0326
  716MOL0     C96566   5.937   5.625   5.083  0.1040 -0.2073 -0.2095
  716MOL0     C96567   5.786   5.608   5.111  0.4102  0.7761  0.3005
  716MOL0     C96568   5.719   5.490   5.034 -0.4610  0.5176 -0.4879
  716MOL0     C96569   5.572   5.467   5.076 -0.2068 -0.2662 -0.0559
  716MOL0    Cl96570   5.483   5.398   4.939 -0.4426  0.2364  0.1009
  716MOL0     C96571   6.637   5.778   5.299  0.1587 -0.6127  0.3307
  716MOL0     C96572   6.770   5.799   5.319  0.0871  0.4399  0.4290
  716MOL0     O96573   6.867   6.109   5.529  0.5584 -0.5012  0.0431
  716MOL0     C96574   7.183   6.102   5.358 -0.0637 -0.5724  0.1206
  716MOL0     C96575   7.321   6.124   5.370 -1.0612  0.7543 -0.1058
  716MOL0     N96576   8.046   6.494   5.254  0.6040  0.2232  0.2436
  716MOL0     N96577   8.055   6.598   5.323 -0.6148 -0.1033 -0.6006
  716MOL0     C96578   8.995   7.001   6.035  0.7555 -0.2811 -0.3933
  716MOL0     C96579   9.102   7.087   6.023  0.6110  0.3854  0.6624
  716MOL0     C96580   9.528   7.198   5.914 -0.0438 -0.9847  0.6919
  716MOL0     C96581   9.652   7.146   5.948 -0.4067 -0.9855 -0.0220
  716MOL0     C96582   9.764   7.226   5.918 -0.1025 -0.3645 -0.2341
  716MOL0     C96583   9.757   7.351   5.848  0.4426  0.1108  0.1467
  716MOL0     O96584   9.875   7.410   5.817 -1.1437  0.6811 -0.0648
  716MOL0     C96585   9.875   7.553   5.774  0.2269  0.5601 -0.0646
  716MOL0     C96586  10.022   7.594   5.782 -0.2617 -0.4317  0.2931
  716MOL0     C96587  10.108   7.545   5.671 -0.3396  1.0661 -0.0317
  716MOL0     C96588  10.260   7.552   5.716 -0.0604 -0.6508 -0.0584
  716MOL0     C96589  10.296   7.694   5.712  0.2644  0.1181  0.5814
  716MOL0     C96590  10.327   7.811   5.704  0.4531  0.6957 -0.1534
  716MOL0     C96591   9.627   7.397   5.820 -0.5380 -0.4836 -0.1557
  716MOL0     C96592   9.519   7.323   5.852 -0.0581  0.0343 -0.4097
  716MOL0     H96593   9.214   6.995   5.718 -0.0227  2.8963  1.2184
  716MOL0     H96594   9.022   6.820   5.745  2.7406  0.6813 -1.2575
  716MOL0     H96595   8.748   6.985   5.852  2.4071  1.5884 -1.7603
  716MOL0     H96596   8.798   6.842   5.748 -0.8850 -3.1453  0.9434
  716MOL0     H96597   8.638   6.702   5.800 -2.2397  2.9402 -2.2660
  716MOL0     H96598   8.647   6.736   5.963 -4.0511  0.4233  0.2801
  716MOL0     H96599   8.472   6.922   5.936 -0.8071 -0.4853  0.8711
  716MOL0     H96600   8.494   6.893   5.752  3.1427  1.8360  0.7855
  716MOL0     H96601   8.418   6.646   5.833  2.5867 -0.0757  1.1810
  716MOL0     H96602   8.413   6.708   5.993  0.7442  1.4310  0.0687
  716MOL0     H96603   8.209   6.709   5.943 -0.1261 -0.7924 -1.8940
  716MOL0     H96604   8.251   6.883   5.932 -0.4273  0.4496  0.8259
  716MOL0     H96605   8.100   6.846   5.758 -0.8771  0.1608 -2.5064
  716MOL0     H96606   8.262   6.842   5.679 -2.8962  1.4434 -1.0859
  716MOL0     H96607   8.238   6.595   5.650 -1.3720 -1.9457 -1.6620
  716MOL0     H96608   8.097   6.610   5.760 -0.1502 -1.9816 -2.1091
  716MOL0     H96609   8.082   6.775   5.503  2.0622 -1.0603 -1.4244
  716MOL0     H96610   7.964   6.692   5.606  1.4604  0.5534  1.6059
  716MOL0     H96611   7.962   6.397   5.562  1.3618 -0.0178 -0.0101
  716MOL0     H96612   8.005   6.237   5.203 -1.6731 -2.2346  0.8120
  716MOL0     H96613   8.012   6.189   5.371 -2.0178 -0.4546  2.2341
  716MOL0     H96614   7.789   6.162   5.225  1.3994 -2.2642  2.0578
  716MOL0     H96615   7.776   6.328   5.223 -1.2085 -1.4780  0.0010
  716MOL0     H96616   7.744   6.333   5.471 -0.9786  0.0492  0.0351
  716MOL0     H96617   7.776   6.159   5.482  2.8782  0.9090  0.8821
  716MOL0     H96618   7.587   6.111   5.333 -3.0258 -0.0181  0.1682
  716MOL0     H96619   7.562   6.287   5.313  3.4298  4.0349  1.7631
  716MOL0     H96620   7.326   6.278   5.674 -3.5187  3.9897  0.3046
  716MOL0     H96621   7.029   6.120   5.744 -0.4116  0.0361  1.0134
  716MOL0     H96622   7.141   6.231   5.786 -0.1948 -4.4425  2.0805
  716MOL0     H96623   6.994   6.283   5.695 -0.4506 -0.4941  2.2273
  716MOL0     H96624   6.777   6.132   5.262 -0.1476 -0.0378  2.2308
  716MOL0     H96625   6.519   6.098   5.238 -1.7165 -1.4025  0.7944
  716MOL0     H96626   6.318   6.026   5.305  2.4188 -1.6320  1.3778
  716MOL0     H96627   6.296   5.978   5.129  0.2843  0.6292  0.9933
  716MOL0     H96628   6.180   5.820   5.363 -2.2058  0.4908  1.3812
  716MOL0     H96629   6.103   5.956   5.273  1.6962  1.6569 -1.0405
  716MOL0     H96630   6.189   5.702   5.138  0.3903 -0.0579  0.5936
  716MOL0     H96631   6.135   5.848   5.061  4.3768  1.2177  0.9887
  716MOL0     H96632   5.967   5.709   5.274  0.5178 -0.6039  0.1100
  716MOL0     H96633   5.920   5.824   5.150 -2.2957 -0.8064  2.5969
  716MOL0     H96634   5.991   5.532   5.106  1.7505  0.7303 -0.1025
  716MOL0     H96635   5.955   5.661   4.982 -2.9760  0.9384 -0.4435
  716MOL0     H96636   5.780   5.587   5.218 -0.1384  2.6586  0.6745
  716MOL0     H96637   5.726   5.695   5.081  1.8140  1.4941 -0.5399
  716MOL0     H96638   5.772   5.395   5.050 -2.8471 -0.6297  1.1339
  716MOL0     H96639   5.722   5.522   4.929 -0.1524  1.8324 -0.0983
  716MOL0     H96640   5.525   5.562   5.102  1.8734  1.3099 -1.6777
  716MOL0     H96641   5.562   5.398   5.160 -1.8116 -1.4470 -1.1635
  716MOL0     H96642   6.595   5.678   5.297 -1.2703 -0.0197  0.0657
  716MOL0     H96643   6.832   5.720   5.359  0.9041 -0.1954 -1.9078
  716MOL0     H96644   7.134   6.063   5.270 -0.8229  0.5585  0.0092
  716MOL0     H96645   7.388   6.088   5.294  1.7936  2.7787  1.2593
  716MOL0     H96646   8.925   7.006   6.118 -1.5923 -0.6686 -2.2419
  716MOL0     H96647   9.130   7.147   6.109  2.5207 -0.7631  0.8996
  716MOL0     H96648   9.674   7.050   5.993 -0.6651 -1.8537 -1.6737
  716MOL0     H96649   9.867   7.194   5.930  1.2811  3.8763  1.1861
  716MOL0     H96650   9.841   7.575   5.672 -0.6444  1.0894  0.3268
  716MOL0     H96651   9.815   7.613   5.844  0.1362  1.7933 -1.1530
  716MOL0     H96652  10.062   7.562   5.878  0.2647 -2.0761 -0.4371
  716MOL0     H96653  10.029   7.703   5.770 -1.7070 -0.3251  0.1873
  716MOL0     H96654  10.077   7.608   5.587 -0.9977  0.8129  0.0188
  716MOL0     H96655  10.078   7.442   5.647 -1.5429  0.8204  2.2703
  716MOL0     H96656  10.313   7.497   5.637  0.7223  1.5618 -1.1721
  716MOL0     H96657  10.290   7.512   5.814  0.3208 -1.5147 -0.5190
  716MOL0     H96658  10.341   7.917   5.707 -0.8478  0.8936  2.3931
  716MOL0     H96659   9.618   7.496   5.777  0.9674  0.0078  0.5963
  716MOL0     H96660   9.420   7.367   5.843 -0.8862 -1.1759  1.9846
  717MOL0     O96661   0.603  10.456   5.662 -0.0707  0.3007  0.9127
  717MOL0     C96662   0.596  10.513   5.554 -0.1501 -0.5109  0.2702
  717MOL0     O96663   0.487  10.572   5.497  1.0384  0.4841  0.1447
  717MOL0     C96664   0.366  10.569   5.559  0.4991 -0.2038 -0.2193
  717MOL0     C96665   0.250  10.499   5.509 -0.5174 -0.0011  0.6169
  717MOL0     C96666   0.128  10.504   5.573  0.3242 -0.1422  0.7670
  717MOL0     C96667   0.122  10.579   5.696  0.6269  0.3011 -0.7295
  717MOL0     O96668   0.010  10.595   5.775 -0.2788  0.1826  0.4989
  717MOL0     C96669  -0.115  10.560   5.728  0.1031 -0.3238 -0.7080
  717MOL0     C96670  -0.189  10.665   5.642  0.3406  1.2875 -0.7048
  717MOL0     C96671  -0.329  10.618   5.629  0.1381  0.5787  0.0287
  717MOL0     C96672  -0.414  10.689   5.516 -0.0809 -0.3660  0.2545
  717MOL0     C96673  -0.559  10.646   5.524  0.0151  0.1141 -0.3198
  717MOL0     C96674  -0.602  10.529   5.433  0.0582  0.2949 -0.1347
  717MOL0     C96675  -0.535  10.390   5.468 -0.1799 -0.6312  0.3795
  717MOL0     C96676  -0.611  10.269   5.431 -0.1128  0.3185 -0.5956
  717MOL0     N96677  -0.622  10.263   5.285 -0.4546  0.1307  0.1261
  717MOL0     C96678  -0.703  10.335   5.201  0.0139  0.0374  0.0990
  717MOL0     C96679  -0.670  10.299   5.074 -0.7362  0.2423  0.1545
  717MOL0     C96680  -0.736  10.360   4.959 -0.3204  0.2375 -0.1742
  717MOL0     C96681  -0.870  10.286   4.938 -0.7530  0.0435  0.8586
  717MOL0     C96682  -0.988  10.327   5.028  1.2940 -0.1733 -0.1610
  717MOL0     C96683  -1.122  10.248   5.007  0.0167  0.5640 -0.1296
  717MOL0     O96684  -1.101  10.113   5.052 -0.0025 -0.2203 -0.1894
  717MOL0     C96685  -1.198  10.021   5.018  0.4492  0.1755 -0.6004
  717MOL0     C96686  -1.166   9.885   5.053 -0.0425 -0.3092  0.3786
  717MOL0     C96687  -1.239   9.778   5.004  1.2881 -0.1439  1.2282
  717MOL0     C96688  -1.179   9.636   5.016 -0.4195 -0.2862 -0.5679
  717MOL0     C96689  -1.366   9.806   4.932 -0.1984  0.4856  0.4204
  717MOL0     C96690  -1.457   9.689   4.874 -0.4606  0.3571  0.2208
  717MOL0     O96691  -1.433   9.561   4.912 -0.9095 -0.4132 -0.4048
  717MOL0     C96692  -1.531   9.470   4.884 -0.0932 -0.7723  0.3153
  717MOL0     C96693  -1.650   9.481   4.951  0.3036 -0.3369 -1.0479
  717MOL0     C96694  -1.757   9.395   4.929 -0.3249 -0.9545 -0.6611
  717MOL0     C96695  -1.733   9.275   4.858 -0.1856  0.2540 -0.2650
  717MOL0     O96696  -1.814   9.168   4.842  0.1177 -0.4221 -0.7280
  717MOL0     C96697  -1.960   9.183   4.870 -0.3578 -0.7720 -0.4272
  717MOL0     C96698  -2.042   9.126   4.752 -0.1191 -0.5881 -1.0335
  717MOL0     C96699  -2.193   9.166   4.781  0.6245  0.2811 -0.2879
  717MOL0     C96700  -2.294   9.074   4.697 -0.4639  0.7224 -0.7652
  717MOL0     C96701  -2.426   9.063   4.775  0.3511 -0.1459  0.4151
  717MOL0     C96702  -2.526   8.971   4.703 -0.6668 -1.0490  0.4147
  717MOL0     C96703  -2.648   8.930   4.782  0.8902  0.3453  0.1667
  717MOL0     C96704  -2.709   9.047   4.852  0.7101 -0.8129  1.0286
  717MOL0    Cl96705  -2.861   9.003   4.939 -0.0207 -0.1075 -0.3366
  717MOL0     C96706  -1.604   9.261   4.797 -0.0889 -0.6434 -0.2973
  717MOL0     C96707  -1.504   9.361   4.805  0.7250  0.1944  0.4631
  717MOL0     O96708  -1.537   9.727   4.790  0.1197 -0.2819 -0.0469
  717MOL0     C96709  -1.407   9.946   4.915 -0.3671  0.4428  0.3118
  717MOL0     C96710  -1.324  10.046   4.965  0.0278 -0.3172  0.4439
  717MOL0     N96711  -0.567  10.205   5.081 -0.5979  0.5480 -0.1954
  717MOL0     N96712  -0.548  10.171   5.210  0.3731  0.5124 -0.1799
  717MOL0     C96713   0.232  10.641   5.749  0.1428  0.4316  0.5099
  717MOL0     C96714   0.349  10.648   5.677  0.2399  0.2525  0.1242
  717MOL0     C96715   0.723  10.520   5.483 -0.4256  0.2798  0.4343
  717MOL0     C96716   0.842  10.444   5.520 -0.1567 -0.1084  0.3986
  717MOL0     C96717   0.955  10.467   5.443 -0.5202 -0.1176 -0.9430
  717MOL0     C96718   0.961  10.536   5.321  0.5509  0.5217 -0.0011
  717MOL0     O96719   1.077  10.544   5.265  0.5907  0.7040 -0.8400
  717MOL0     C96720   1.096  10.589   5.135 -0.3118 -0.2346 -0.3979
  717MOL0     C96721   1.162  10.732   5.110  0.1601  0.2048 -0.3766
  717MOL0     C96722   1.310  10.734   5.138 -0.8136  0.6698  0.0099
  717MOL0     C96723   1.366  10.703   5.279 -0.4084  0.4774  0.2604
  717MOL0     C96724   1.504  10.749   5.292 -0.1123  0.1886 -0.3311
  717MOL0     C96725   1.615  10.794   5.309 -0.7958  0.1334  0.3876
  717MOL0     C96726   0.842  10.593   5.280  0.0479  0.5247  0.9577
  717MOL0     C96727   0.731  10.591   5.356  0.1196 -0.1829  0.1597
  717MOL0     H96728   0.262  10.449   5.413  0.5590  2.3702 -0.5604
  717MOL0     H96729   0.050  10.448   5.523  1.1357 -1.6834  1.1301
  717MOL0     H96730  -0.112  10.467   5.671 -0.2170 -0.9965  0.3499
  717MOL0     H96731  -0.176  10.540   5.817  0.2676 -2.1316 -0.9677
  717MOL0     H96732  -0.194  10.761   5.694  0.1478  0.0582  1.7295
  717MOL0     H96733  -0.141  10.672   5.544  2.0406 -0.3100 -0.0513
  717MOL0     H96734  -0.334  10.510   5.612 -1.3725  0.2461  2.2409
  717MOL0     H96735  -0.382  10.628   5.724  1.8203 -3.0061  1.5382
  717MOL0     H96736  -0.410  10.797   5.532  2.7141 -0.4073  0.2801
  717MOL0     H96737  -0.380  10.654   5.418 -2.9922 -0.1392 -0.9503
  717MOL0     H96738  -0.572  10.613   5.628  0.2965 -1.2923 -0.7112
  717MOL0     H96739  -0.629  10.729   5.508 -0.4193  0.0948  1.3077
  717MOL0     H96740  -0.709  10.518   5.454 -0.6008  1.0683 -2.6997
  717MOL0     H96741  -0.572  10.540   5.328  2.7019  0.2355  0.5380
  717MOL0     H96742  -0.439  10.389   5.415  0.3281  1.2255  1.1616
  717MOL0     H96743  -0.514  10.389   5.576  1.3247 -1.7226  0.1189
  717MOL0     H96744  -0.714  10.272   5.467 -0.8633 -0.7859 -2.5276
  717MOL0     H96745  -0.565  10.184   5.483 -1.5724  1.5525  3.0470
  717MOL0     H96746  -0.788  10.398   5.226 -0.4984 -0.4971 -0.2758
  717MOL0     H96747  -0.751  10.465   4.986  0.0912  0.4484 -0.7435
  717MOL0     H96748  -0.668  10.369   4.874  2.4808  1.0818  2.0105
  717MOL0     H96749  -0.848  10.180   4.949 -0.6876 -0.0157  0.2123
  717MOL0     H96750  -0.906  10.299   4.835  2.6788  0.2945 -0.4211
  717MOL0     H96751  -1.014  10.433   5.018  0.3427 -0.4980 -1.3622
  717MOL0     H96752  -0.961  10.317   5.133 -0.5468  0.8409  0.4549
  717MOL0     H96753  -1.153  10.234   4.903 -0.0142  0.5825 -0.1226
  717MOL0     H96754  -1.201  10.293   5.068 -1.1176 -3.1179  1.3561
  717MOL0     H96755  -1.067   9.861   5.091  0.7355 -0.8416 -1.8271
  717MOL0     H96756  -1.179   9.582   4.921 -0.6447 -1.9719  0.3481
  717MOL0     H96757  -1.077   9.637   5.054 -0.8231 -2.0409  0.6842
  717MOL0     H96758  -1.234   9.579   5.092 -0.0316 -1.2367 -0.9752
  717MOL0     H96759  -1.656   9.551   5.034  0.5978 -2.3535  0.7764
  717MOL0     H96760  -1.847   9.415   4.986  0.0907 -2.1347  0.4360
  717MOL0     H96761  -1.984   9.140   4.967  3.2026  1.2953  1.6172
  717MOL0     H96762  -1.993   9.287   4.876 -0.7136 -0.7872 -1.7389
  717MOL0     H96763  -2.015   9.178   4.660 -0.1378  0.0661 -0.6760
  717MOL0     H96764  -2.029   9.017   4.752  0.8107 -0.5034  0.1331
  717MOL0     H96765  -2.209   9.272   4.758  0.0706  0.0189 -1.1504
  717MOL0     H96766  -2.211   9.151   4.888 -1.4718  3.3623 -0.0649
  717MOL0     H96767  -2.318   9.127   4.604  1.9619  0.1223 -1.8194
  717MOL0     H96768  -2.258   8.976   4.667  0.6029  0.5897  0.8329
  717MOL0     H96769  -2.482   9.153   4.801  1.5144  0.3105  1.4597
  717MOL0     H96770  -2.407   9.012   4.870 -1.1988  1.1451  1.4688
  717MOL0     H96771  -2.558   9.023   4.612 -1.1792 -0.1239  1.1076
  717MOL0     H96772  -2.473   8.883   4.667  0.3052  0.0266 -0.8655
  717MOL0     H96773  -2.613   8.860   4.859  1.0762 -0.7491 -0.8711
  717MOL0     H96774  -2.721   8.889   4.712  0.1098  0.2851  0.9931
  717MOL0     H96775  -2.737   9.125   4.781  1.2074 -1.9553 -0.5014
  717MOL0     H96776  -2.646   9.098   4.925 -0.0818  2.3100 -0.2927
  717MOL0     H96777  -1.579   9.170   4.743  0.7966 -0.4362 -0.2530
  717MOL0     H96778  -1.405   9.334   4.769  1.2536  1.9725  0.5143
  717MOL0     H96779  -1.496   9.977   4.862 -0.7407 -2.4180 -0.9125
  717MOL0     H96780  -1.366  10.146   4.959  1.0777  0.2612  2.1779
  717MOL0     H96781   0.218  10.694   5.843  1.3742  0.1148  0.8935
  717MOL0     H96782   0.427  10.717   5.710 -0.8942  1.2383  0.8347
  717MOL0     H96783   0.839  10.384   5.610  0.1877  1.8424  1.7929
  717MOL0     H96784   1.049  10.428   5.479 -1.1343 -2.6346 -1.8559
  717MOL0     H96785   1.161  10.515   5.087 -0.3546 -0.2394 -0.4486
  717MOL0     H96786   1.003  10.583   5.078 -2.6072 -0.5305  3.1010
  717MOL0     H96787   1.117  10.812   5.170  1.7060  2.5386 -2.1502
  717MOL0     H96788   1.156  10.756   5.003 -1.0315  3.2888  0.2592
  717MOL0     H96789   1.352  10.825   5.093  4.5968 -0.8924  1.1815
  717MOL0     H96790   1.340  10.653   5.071 -2.0953  0.1422  0.0478
  717MOL0     H96791   1.377  10.596   5.298  1.2353  0.6503  0.4399
  717MOL0     H96792   1.296  10.732   5.358 -1.4054 -0.1396 -0.3771
  717MOL0     H96793   1.709  10.842   5.326 -1.8986  1.4191  3.5291
  717MOL0     H96794   0.842  10.643   5.183 -0.8654 -0.3252  0.4997
  717MOL0     H96795   0.642  10.642   5.321 -0.7331 -1.0218  1.0484
  718MOL0     O96796  10.313   1.554   2.303  0.3416 -0.3605  0.5659
  718MOL0     C96797  10.330   1.441   2.272  0.7294  0.6404  0.4914
  718MOL0     O96798  10.225   1.349   2.249  0.0526 -0.0137 -0.2724
  718MOL0     C96799  10.086   1.381   2.242 -0.3757  0.1520  0.7437
  718MOL0     C96800  10.034   1.510   2.243 -0.4344 -0.3008 -0.0717
  718MOL0     C96801   9.903   1.547   2.235  0.1197  0.2407 -0.4698
  718MOL0     C96802   9.808   1.442   2.217  0.3064  1.2130  0.3779
  718MOL0     O96803   9.675   1.462   2.211  0.5394  0.3996  0.4249
  718MOL0     C96804   9.627   1.595   2.177 -0.4278 -0.0312  0.7160
  718MOL0     C96805   9.508   1.578   2.098  0.5871 -0.7296 -0.3052
  718MOL0     C96806   9.444   1.708   2.062  0.5357 -0.5560 -0.1526
  718MOL0     C96807   9.327   1.688   1.960  0.6410  0.0917 -0.1800
  718MOL0     C96808   9.262   1.818   1.919  0.5222 -0.5002 -0.2554
  718MOL0     C96809   9.331   1.903   1.812 -0.2325 -0.5749 -0.2758
  718MOL0     C96810   9.233   2.013   1.767  0.1637  0.3645  0.9702
  718MOL0     C96811   9.285   2.090   1.641  0.1689  0.4271 -0.6189
  718MOL0     N96812   9.425   2.137   1.653  0.0384  0.9802  0.0415
  718MOL0     C96813   9.468   2.264   1.690  0.2720  0.4335  0.0059
  718MOL0     C96814   9.606   2.259   1.667  0.2538  0.2223 -0.2976
  718MOL0     C96815   9.701   2.375   1.702  0.1152  0.3108 -0.1462
  718MOL0     C96816   9.678   2.486   1.600  0.2151 -0.3874 -0.8003
  718MOL0     C96817   9.688   2.630   1.651  0.4728 -0.0577 -0.3093
  718MOL0     C96818   9.674   2.737   1.546  0.5344  0.2591 -0.6600
  718MOL0     O96819   9.533   2.741   1.501 -0.3568 -0.6556 -0.8496
  718MOL0     C96820   9.442   2.810   1.576  0.4398 -0.1200  1.2472
  718MOL0     C96821   9.453   2.864   1.702 -0.4689 -0.0322 -0.1173
  718MOL0     C96822   9.352   2.928   1.770 -1.4576 -0.0255 -0.0228
  718MOL0     C96823   9.383   2.997   1.903  0.9972  0.5830 -0.4690
  718MOL0     C96824   9.226   2.941   1.707  0.1360 -0.2133  0.6108
  718MOL0     C96825   9.109   3.024   1.753  0.7922  0.3821  0.1476
  718MOL0     O96826   9.083   3.142   1.684  0.2633 -0.0380 -0.0522
  718MOL0     C96827   8.974   3.225   1.707 -1.2299  0.2536  0.5111
  718MOL0     C96828   8.847   3.194   1.771 -0.1370  0.4763  0.2124
  718MOL0     C96829   8.738   3.276   1.757  0.1936 -0.9623  0.1575
  718MOL0     C96830   8.748   3.398   1.685 -0.3850  0.0604  0.0336
  718MOL0     O96831   8.643   3.487   1.677  0.7023  0.9514  0.0298
  718MOL0     C96832   8.628   3.554   1.551  0.5666 -0.2974  0.7057
  718MOL0     C96833   8.476   3.566   1.533 -0.0185  0.4243 -0.6610
  718MOL0     C96834   8.408   3.674   1.619  1.4042 -0.2491  0.4835
  718MOL0     C96835   8.258   3.692   1.566  0.6084  0.4139 -0.3384
  718MOL0     C96836   8.199   3.816   1.630 -0.2640 -0.3326 -1.3000
  718MOL0     C96837   8.049   3.827   1.605  0.6342  0.1458 -0.4924
  718MOL0     C96838   7.970   3.953   1.659  0.7581  0.5569 -0.2071
  718MOL0     C96839   7.819   3.936   1.664 -0.5033  0.3954  0.5214
  718MOL0    Cl96840   7.767   3.931   1.498 -0.3088 -0.1183 -0.3354
  718MOL0     C96841   8.878   3.427   1.631 -0.1346  0.4634 -0.2532
  718MOL0     C96842   8.992   3.347   1.644 -0.2048 -0.4119 -0.2445
  718MOL0     O96843   9.052   2.979   1.854 -0.3433  0.2594  0.3147
  718MOL0     C96844   9.209   2.884   1.580  0.0738 -0.3230 -0.1550
  718MOL0     C96845   9.315   2.818   1.516 -0.1428 -0.0316 -0.8997
  718MOL0     N96846   9.638   2.134   1.619  0.5684  0.0711  0.4775
  718MOL0     N96847   9.532   2.057   1.616  0.2190  0.1017  0.4241
  718MOL0     C96848   9.860   1.310   2.207  0.4226 -0.6574 -0.0712
  718MOL0     C96849   9.997   1.277   2.226 -0.3704  0.2699  0.0498
  718MOL0     C96850  10.462   1.391   2.271  0.0070 -0.1354 -0.5559
  718MOL0     C96851  10.582   1.477   2.287  0.6431 -0.3994 -0.2921
  718MOL0     C96852  10.709   1.420   2.277  0.7213 -0.3185 -0.1664
  718MOL0     C96853  10.727   1.285   2.232 -0.1537  0.2579  0.7528
  718MOL0     O96854  10.849   1.211   2.219  0.4756 -0.2030  0.0488
  718MOL0     C96855  10.970   1.272   2.277  0.0572 -0.2199 -0.1592
  718MOL0     C96856  11.071   1.171   2.287 -0.2531 -1.0023  0.1559
  718MOL0     C96857  11.207   1.247   2.331  1.1798  0.1286  0.1537
  718MOL0     C96858  11.247   1.228   2.476  0.3517  0.0270  0.5217
  718MOL0     C96859  11.168   1.319   2.557 -0.1340 -0.0555 -0.1121
  718MOL0     C96860  11.106   1.399   2.616  0.1746 -0.5900  1.2449
  718MOL0     C96861  10.616   1.211   2.188 -1.1654 -0.0442  0.1733
  718MOL0     C96862  10.490   1.264   2.217  0.4615 -0.6275 -1.0043
  718MOL0     H96863  10.099   1.597   2.247  1.1514 -1.4466 -0.0292
  718MOL0     H96864   9.879   1.653   2.243  1.3810  0.4543  1.1755
  718MOL0     H96865   9.630   1.658   2.266  2.5561  0.8512  0.0928
  718MOL0     H96866   9.700   1.635   2.106 -0.3420 -0.5439  0.5124
  718MOL0     H96867   9.535   1.518   2.010  2.0450 -0.4519 -0.0686
  718MOL0     H96868   9.433   1.516   2.147 -2.7495  0.8685 -2.9493
  718MOL0     H96869   9.403   1.751   2.153 -2.1181 -2.5858 -0.2683
  718MOL0     H96870   9.520   1.780   2.031  1.0415 -0.1874  1.8031
  718MOL0     H96871   9.355   1.639   1.866 -3.7727 -0.5055 -1.4149
  718MOL0     H96872   9.259   1.624   2.018  1.1842  0.0343  0.4004
  718MOL0     H96873   9.162   1.792   1.884  0.9194  0.3202 -2.1706
  718MOL0     H96874   9.253   1.875   2.012  1.2000 -1.9900  0.7472
  718MOL0     H96875   9.430   1.937   1.843  0.0677 -1.7449  0.0886
  718MOL0     H96876   9.354   1.842   1.724  2.7709  0.6091 -0.4197
  718MOL0     H96877   9.136   1.969   1.742  1.1289 -0.5003 -1.5554
  718MOL0     H96878   9.222   2.085   1.848 -1.9447  0.3958  0.7218
  718MOL0     H96879   9.219   2.177   1.630  0.3271  0.6196 -0.0560
  718MOL0     H96880   9.281   2.023   1.555 -1.9580 -0.6182  0.2042
  718MOL0     H96881   9.407   2.337   1.742 -0.9836 -1.5426  1.4675
  718MOL0     H96882   9.667   2.405   1.802  0.1545 -0.7376  0.1920
  718MOL0     H96883   9.804   2.339   1.707 -0.0798 -0.3595 -0.8283
  718MOL0     H96884   9.578   2.469   1.558  0.0837 -1.6462 -0.0488
  718MOL0     H96885   9.749   2.473   1.518 -0.1516  2.2207 -1.6321
  718MOL0     H96886   9.789   2.645   1.692  0.9645 -1.7739 -0.8192
  718MOL0     H96887   9.618   2.656   1.732  0.9679  0.9099 -0.1696
  718MOL0     H96888   9.738   2.718   1.459  1.6089  0.4170  0.0718
  718MOL0     H96889   9.712   2.832   1.585 -1.8431  1.1702 -0.3899
  718MOL0     H96890   9.548   2.848   1.751  0.3126  1.4127 -1.0805
  718MOL0     H96891   9.484   2.964   1.930 -0.3188 -3.5994  0.0617
  718MOL0     H96892   9.371   3.106   1.907 -0.0016  0.5868 -2.3199
  718MOL0     H96893   9.323   2.952   1.982  2.2672 -0.0363  0.1815
  718MOL0     H96894   8.829   3.102   1.826 -1.8630 -0.6641 -2.1037
  718MOL0     H96895   8.641   3.247   1.797 -0.2826  1.7149  1.0963
  718MOL0     H96896   8.676   3.652   1.551  1.5855 -0.7848  0.3635
  718MOL0     H96897   8.677   3.498   1.471  2.0744  0.4561  1.0683
  718MOL0     H96898   8.453   3.586   1.428 -2.6738  0.5622 -0.1145
  718MOL0     H96899   8.420   3.474   1.553 -1.9266  0.8658 -3.4553
  718MOL0     H96900   8.450   3.773   1.598 -3.9054  1.5365 -4.5023
  718MOL0     H96901   8.410   3.635   1.721  0.3581 -2.1569 -0.1736
  718MOL0     H96902   8.254   3.696   1.457 -1.0985  1.7332 -0.2691
  718MOL0     H96903   8.199   3.605   1.596  1.1330  0.1844  0.0218
  718MOL0     H96904   8.241   3.910   1.594  2.0262 -1.1460 -0.9103
  718MOL0     H96905   8.221   3.824   1.736 -1.6212 -1.3380 -0.9115
  718MOL0     H96906   8.033   3.816   1.497 -0.5931 -3.4332 -0.0697
  718MOL0     H96907   8.002   3.742   1.655  1.1876  0.8081  1.2500
  718MOL0     H96908   8.010   4.037   1.600  0.7465  1.0851  0.5280
  718MOL0     H96909   7.992   3.965   1.765 -0.6817  0.2166  0.1492
  718MOL0     H96910   7.767   4.020   1.711 -2.7388 -0.4369 -0.3517
  718MOL0     H96911   7.800   3.847   1.723  1.1935  0.1833  0.8079
  718MOL0     H96912   8.887   3.523   1.581  0.9573 -0.2000 -1.4096
  718MOL0     H96913   9.085   3.378   1.598 -0.5335  2.6000  0.8895
  718MOL0     H96914   9.115   2.906   1.532  0.0338 -0.8198 -0.3181
  718MOL0     H96915   9.299   2.780   1.416  1.9678  0.1964 -1.3751
  718MOL0     H96916   9.784   1.237   2.180  2.7642 -2.6210 -1.7626
  718MOL0     H96917  10.036   1.178   2.206  2.5110  0.6856  2.7581
  718MOL0     H96918  10.576   1.584   2.305 -0.5380 -0.7546  1.6990
  718MOL0     H96919  10.793   1.484   2.301 -0.7913  1.1329  1.4831
  718MOL0     H96920  11.005   1.362   2.227  0.4066 -0.1456  0.2131
  718MOL0     H96921  10.958   1.308   2.380  2.7712  0.6185 -0.0500
  718MOL0     H96922  11.082   1.116   2.193  0.8196  0.9364 -0.9114
  718MOL0     H96923  11.047   1.092   2.359  1.8017 -0.5536  1.4285
  718MOL0     H96924  11.203   1.353   2.303  2.3365  0.0452 -0.3620
  718MOL0     H96925  11.287   1.196   2.277  2.9215  0.9281  1.8435
  718MOL0     H96926  11.348   1.252   2.510  0.0591  1.5258  0.4085
  718MOL0     H96927  11.225   1.126   2.510  1.7303 -0.4564  0.0566
  718MOL0     H96928  11.065   1.477   2.677 -2.3654 -2.0163  1.5226
  718MOL0     H96929  10.625   1.113   2.141  0.2353  1.9004 -4.1711
  718MOL0     H96930  10.412   1.195   2.185  0.5787 -0.3963 -1.8262
  719MOL0     O96931   0.883   2.324   0.839  0.7437 -0.0607 -0.5677
  719MOL0     C96932   0.853   2.250   0.927  0.9052  0.3650 -0.6191
  719MOL0     O96933   0.910   2.125   0.945  0.1757 -0.4192 -0.0780
  719MOL0     C96934   0.985   2.073   0.843 -0.3989 -0.5576  0.7491
  719MOL0     C96935   1.106   2.007   0.884 -0.1832  0.0554 -0.1947
  719MOL0     C96936   1.193   1.957   0.791 -0.1390 -0.5644  0.6605
  719MOL0     C96937   1.161   1.945   0.652  0.3247 -1.1077  0.0706
  719MOL0     O96938   1.250   1.878   0.576  0.2109 -0.0214 -0.3579
  719MOL0     C96939   1.250   1.916   0.438 -0.5509 -0.1777  1.0249
  719MOL0     C96940   1.360   1.853   0.353  0.1178 -0.2040  0.5047
  719MOL0     C96941   1.375   1.709   0.370 -0.5133  0.8283  0.1044
  719MOL0     C96942   1.479   1.659   0.268 -0.4826 -0.0674 -0.6875
  719MOL0     C96943   1.512   1.517   0.285 -0.3956  0.4044  0.1842
  719MOL0     C96944   1.381   1.427   0.279  0.5516  0.2742  0.0965
  719MOL0     C96945   1.424   1.289   0.227  0.1302  0.1648 -0.1217
  719MOL0     C96946   1.309   1.194   0.221 -0.5173 -0.4410  0.0308
  719MOL0     N96947   1.201   1.230   0.133 -0.0918  0.2055  0.1073
  719MOL0     C96948   1.213   1.296   0.007  0.0268 -0.4476  0.4603
  719MOL0     C96949   1.091   1.282  -0.048  0.4516 -1.6319  0.3978
  719MOL0     C96950   1.041   1.324  -0.184 -0.9786 -0.2890  0.5598
  719MOL0     C96951   0.904   1.393  -0.174 -0.8588 -0.0356  1.5518
  719MOL0     C96952   0.840   1.418  -0.316 -0.5585  0.3895 -0.0953
  719MOL0     C96953   0.709   1.504  -0.302 -0.1449  0.2652  0.5275
  719MOL0     O96954   0.624   1.420  -0.228  0.3249  0.2852  0.7418
  719MOL0     C96955   0.499   1.464  -0.198 -0.1473 -0.0394 -1.1196
  719MOL0     C96956   0.432   1.399  -0.093 -0.0084 -0.2849  0.3828
  719MOL0     C96957   0.305   1.444  -0.049 -0.3817  0.2177  0.3928
  719MOL0     C96958   0.237   1.353   0.047 -0.1437 -0.1663 -0.1270
  719MOL0     C96959   0.254   1.571  -0.095  0.7516  0.8814  0.6883
  719MOL0     C96960   0.114   1.621  -0.071 -0.1724 -0.7927  0.0222
  719MOL0     O96961   0.086   1.756  -0.105  0.1932  0.1228 -0.1927
  719MOL0     C96962  -0.052   1.776  -0.127 -0.5785  0.2056 -0.7260
  719MOL0     C96963  -0.149   1.697  -0.213 -0.8923  0.6024 -0.4482
  719MOL0     C96964  -0.280   1.740  -0.225 -0.6267 -0.0758  0.6335
  719MOL0     C96965  -0.325   1.843  -0.153  1.3714  0.6261 -0.7970
  719MOL0     O96966  -0.453   1.889  -0.179  0.1843  0.0208 -0.0160
  719MOL0     C96967  -0.491   2.015  -0.132 -0.1992  0.1579 -0.0711
  719MOL0     C96968  -0.625   2.047  -0.198 -0.2830  0.0857  0.4981
  719MOL0     C96969  -0.663   2.192  -0.147 -0.2921 -0.5135 -1.3295
  719MOL0     C96970  -0.787   2.250  -0.215 -0.0339  0.1154 -0.5799
  719MOL0     C96971  -0.758   2.265  -0.363 -0.2102 -0.1802  0.3424
  719MOL0     C96972  -0.832   2.388  -0.407 -0.0012 -0.5440 -0.2501
  719MOL0     C96973  -0.795   2.431  -0.545 -0.0061  0.6219 -0.2166
  719MOL0     C96974  -0.842   2.578  -0.573  0.9460  0.7193 -0.8563
  719MOL0    Cl96975  -1.026   2.591  -0.545 -0.3044  0.0599  0.1354
  719MOL0     C96976  -0.240   1.906  -0.064 -0.3967 -0.8340  0.3980
  719MOL0     C96977  -0.105   1.888  -0.055 -0.7396  0.0041 -0.2551
  719MOL0     O96978   0.036   1.544  -0.013 -0.6251 -0.3170  0.3919
  719MOL0     C96979   0.332   1.637  -0.190 -0.5451 -0.6060  0.4283
  719MOL0     C96980   0.451   1.580  -0.244 -0.0357  0.2895  0.4795
  719MOL0     N96981   1.010   1.229   0.049  0.2220 -0.2832  0.4131
  719MOL0     N96982   1.074   1.204   0.159 -0.4076 -1.0093 -0.1160
  719MOL0     C96983   1.044   2.000   0.615  0.4671 -1.0667 -0.2972
  719MOL0     C96984   0.957   2.073   0.703 -0.0244 -0.1141 -0.1891
  719MOL0     C96985   0.730   2.279   1.004 -0.3568 -0.4071  0.3729
  719MOL0     C96986   0.678   2.406   0.985  0.4097  0.1898 -0.4728
  719MOL0     C96987   0.561   2.439   1.056  0.6343  0.3430  0.1027
  719MOL0     C96988   0.488   2.351   1.132  0.3678  1.2946 -0.1938
  719MOL0     O96989   0.369   2.397   1.184  0.0108  0.0166  0.3483
  719MOL0     C96990   0.299   2.318   1.278 -0.9203  0.9218  0.7108
  719MOL0     C96991   0.164   2.383   1.339 -0.9050 -0.3573  0.1324
  719MOL0     C96992   0.222   2.480   1.451  0.9156  0.2463 -1.0806
  719MOL0     C96993   0.120   2.528   1.554 -0.2082  0.1308  0.1989
  719MOL0     C96994   0.030   2.625   1.482 -0.2802  0.8153 -0.0680
  719MOL0     C96995  -0.025   2.726   1.446  0.0621  0.0701 -0.5572
  719MOL0     C96996   0.547   2.225   1.155 -0.5039  0.3663 -0.5173
  719MOL0     C96997   0.671   2.186   1.091 -0.7918 -0.3215 -0.2893
  719MOL0     H96998   1.134   2.012   0.989 -1.5703 -0.4472  0.2272
  719MOL0     H96999   1.287   1.916   0.827 -0.3783 -1.5226  0.2144
  719MOL0     H97000   1.157   1.883   0.391  0.3508 -1.6728  0.2464
  719MOL0     H97001   1.241   2.025   0.427 -0.9013 -0.3683 -0.8492
  719MOL0     H97002   1.341   1.873   0.247  0.8879  1.0904  0.5835
  719MOL0     H97003   1.452   1.910   0.374  0.2681  0.0124 -0.6750
  719MOL0     H97004   1.401   1.674   0.471  0.5932  2.0005  0.2422
  719MOL0     H97005   1.283   1.661   0.335 -1.7055  3.0654 -0.0549
  719MOL0     H97006   1.452   1.684   0.165  0.4392  0.9846 -0.6999
  719MOL0     H97007   1.572   1.713   0.284 -1.8755  2.4898 -0.6908
  719MOL0     H97008   1.586   1.486   0.210  0.7939  0.7187  1.2020
  719MOL0     H97009   1.549   1.501   0.386 -1.6814 -2.2769  0.3207
  719MOL0     H97010   1.329   1.435   0.375 -1.9284  0.7117 -1.2119
  719MOL0     H97011   1.310   1.463   0.204 -1.5882 -1.1679  1.3117
  719MOL0     H97012   1.465   1.304   0.127  5.1991 -1.9392  1.3235
  719MOL0     H97013   1.510   1.246   0.280  0.7925  1.3876 -0.1558
  719MOL0     H97014   1.273   1.168   0.321  2.2662 -4.2248  0.2501
  719MOL0     H97015   1.350   1.102   0.177 -1.0450  1.3827 -4.9957
  719MOL0     H97016   1.307   1.329  -0.035  1.1436 -1.7939  1.7823
  719MOL0     H97017   1.119   1.389  -0.225 -1.2581 -0.4333 -0.2163
  719MOL0     H97018   1.037   1.231  -0.242 -1.1191  0.7219 -1.1294
  719MOL0     H97019   0.906   1.489  -0.122 -0.9510  1.0171 -0.3094
  719MOL0     H97020   0.836   1.330  -0.116 -0.6502 -1.0214  0.7493
  719MOL0     H97021   0.825   1.317  -0.355  0.4768 -0.5402  1.7742
  719MOL0     H97022   0.902   1.472  -0.388  1.2511 -0.3963  0.8170
  719MOL0     H97023   0.674   1.524  -0.403  0.1334  1.4123  0.6422
  719MOL0     H97024   0.717   1.602  -0.253 -0.6089  1.2162 -1.2116
  719MOL0     H97025   0.480   1.307  -0.060 -0.1175 -0.6671 -0.4990
  719MOL0     H97026   0.133   1.330   0.024 -0.6376 -0.1788  1.9526
  719MOL0     H97027   0.301   1.264   0.051  1.0963  0.6727 -0.5605
  719MOL0     H97028   0.237   1.402   0.144 -1.0339 -0.1704 -0.1185
  719MOL0     H97029  -0.107   1.620  -0.277 -0.7403 -0.0067  0.3694
  719MOL0     H97030  -0.357   1.684  -0.277 -2.1493  0.2920  2.3862
  719MOL0     H97031  -0.508   2.005  -0.024  0.6385  1.1964  0.1776
  719MOL0     H97032  -0.417   2.092  -0.157 -0.2378  0.1554 -0.1942
  719MOL0     H97033  -0.626   2.043  -0.307 -1.8070 -1.5793  0.5283
  719MOL0     H97034  -0.703   1.976  -0.167 -0.1274 -0.9002 -1.2542
  719MOL0     H97035  -0.573   2.249  -0.170 -0.2182  0.4182  0.9897
  719MOL0     H97036  -0.672   2.196  -0.038  0.0229 -2.2746 -1.2173
  719MOL0     H97037  -0.874   2.187  -0.193  0.0175  1.0498  3.0678
  719MOL0     H97038  -0.811   2.348  -0.171 -0.6256  0.8518 -2.4655
  719MOL0     H97039  -0.782   2.177  -0.424 -0.5466  1.5827 -2.1998
  719MOL0     H97040  -0.654   2.294  -0.375  0.0852 -1.2754  0.1079
  719MOL0     H97041  -0.940   2.370  -0.407 -0.2259  0.5680 -2.3786
  719MOL0     H97042  -0.817   2.469  -0.336  0.9504 -1.7061  0.9357
  719MOL0     H97043  -0.845   2.362  -0.613 -0.7189  0.9519 -0.0445
  719MOL0     H97044  -0.688   2.424  -0.565 -0.1667  0.8827 -1.2252
  719MOL0     H97045  -0.825   2.605  -0.677 -0.5631  0.7102 -1.1293
  719MOL0     H97046  -0.789   2.642  -0.501  1.0510 -2.1931  1.8912
  719MOL0     H97047  -0.268   1.986   0.004 -0.6735 -0.4417 -0.1677
  719MOL0     H97048  -0.046   1.953   0.009 -0.9264 -1.2883  1.2914
  719MOL0     H97049   0.303   1.735  -0.227  2.0931 -0.2382 -0.8784
  719MOL0     H97050   0.507   1.638  -0.317 -1.7873  1.2775 -0.1402
  719MOL0     H97051   1.010   1.975   0.515  5.6707 -1.4944 -2.2714
  719MOL0     H97052   0.864   2.118   0.670 -0.4510 -2.0930 -1.9048
  719MOL0     H97053   0.720   2.482   0.920 -2.3197  1.4764 -0.8830
  719MOL0     H97054   0.514   2.535   1.039 -0.5353 -0.4419 -1.2227
  719MOL0     H97055   0.272   2.226   1.225  0.6036  0.6226  0.3883
  719MOL0     H97056   0.374   2.300   1.356  2.2586  1.1452 -2.0785
  719MOL0     H97057   0.093   2.311   1.379 -1.0233 -0.0470  0.4941
  719MOL0     H97058   0.103   2.437   1.265 -1.1956  0.8564  1.2068
  719MOL0     H97059   0.259   2.572   1.406 -0.0488  2.5081  2.4120
  719MOL0     H97060   0.287   2.433   1.526 -0.4485 -1.9116 -1.1432
  719MOL0     H97061   0.165   2.586   1.634 -1.8118  2.5549 -0.5619
  719MOL0     H97062   0.074   2.437   1.594  0.6018 -0.1331  0.5560
  719MOL0     H97063  -0.073   2.812   1.404 -0.0430 -0.0935 -0.7723
  719MOL0     H97064   0.494   2.152   1.215 -0.6847  0.5565 -0.4463
  719MOL0     H97065   0.717   2.088   1.097  2.4479  1.1873  3.6417
  720MOL0     O97066   4.144   1.459   7.749  0.1547  0.2848  0.0793
  720MOL0     C97067   4.223   1.545   7.798 -0.4779  0.0706 -0.4402
  720MOL0     O97068   4.201   1.624   7.900  0.8229  0.3388 -0.5709
  720MOL0     C97069   4.079   1.622   7.963  0.5616 -0.0048 -0.4063
  720MOL0     C97070   3.956   1.644   7.894  0.7996 -0.2285  0.4214
  720MOL0     C97071   3.834   1.631   7.964  0.8284  0.4596 -0.1896
  720MOL0     C97072   3.830   1.616   8.104  0.1251 -0.1006 -0.1000
  720MOL0     O97073   3.715   1.627   8.173  0.6477  0.4778 -0.1807
  720MOL0     C97074   3.696   1.556   8.294  0.5306  0.5011 -0.3956
  720MOL0     C97075   3.568   1.611   8.358 -0.2725  0.1684  0.6466
  720MOL0     C97076   3.534   1.521   8.465  0.2143  0.0328  0.0126
  720MOL0     C97077   3.398   1.565   8.529  0.1507 -0.0242 -0.2451
  720MOL0     C97078   3.347   1.469   8.638 -0.0355  0.4719  0.4609
  720MOL0     C97079   3.204   1.515   8.688  0.0028  0.0087 -1.0007
  720MOL0     C97080   3.172   1.431   8.813 -0.3987  0.3513  0.3360
  720MOL0     C97081   3.026   1.442   8.841  0.9617  0.4314  0.1309
  720MOL0     N97082   2.996   1.403   8.978 -0.2061 -0.3093  0.8648
  720MOL0     C97083   3.014   1.275   9.019  0.2973 -0.3693 -0.1957
  720MOL0     C97084   2.999   1.293   9.151  0.1521  0.2733 -0.3501
  720MOL0     C97085   3.016   1.195   9.257 -0.5593 -0.6337  0.1677
  720MOL0     C97086   3.161   1.143   9.244  0.5327 -0.3553 -0.2295
  720MOL0     C97087   3.203   1.099   9.385 -0.8421  0.3358 -0.2149
  720MOL0     C97088   3.123   0.977   9.433  0.2310  0.4533 -0.0622
  720MOL0     O97089   3.136   0.861   9.346 -0.4880  0.2460 -0.7686
  720MOL0     C97090   3.039   0.757   9.339  0.2733  0.4548 -1.1653
  720MOL0     C97091   2.905   0.775   9.379  0.1924  0.6595 -0.4103
  720MOL0     C97092   2.809   0.677   9.361  0.3657 -0.5007  1.0248
  720MOL0     C97093   2.659   0.720   9.387 -0.7459 -0.7124 -0.3747
  720MOL0     C97094   2.844   0.547   9.318  0.4246  1.4135 -0.2905
  720MOL0     C97095   2.744   0.431   9.313  0.3717 -0.2983  0.6951
  720MOL0     O97096   2.614   0.458   9.307  0.1280  0.6914 -0.5950
  720MOL0     C97097   2.524   0.363   9.267 -0.3790  0.2491  0.0835
  720MOL0     C97098   2.542   0.253   9.178 -0.0143  0.7256  0.1727
  720MOL0     C97099   2.427   0.185   9.122 -0.0134  0.1352  0.4216
  720MOL0     C97100   2.301   0.238   9.141  0.3593  0.0092  0.1671
  720MOL0     O97101   2.192   0.183   9.083  0.8328  0.4550 -0.3586
  720MOL0     C97102   2.218   0.125   8.952  0.3851  0.0310 -0.4541
  720MOL0     C97103   2.086   0.101   8.881 -0.0516  0.5308  0.0941
  720MOL0     C97104   2.051   0.230   8.812  0.1424 -0.2971  0.6556
  720MOL0     C97105   1.903   0.236   8.773  0.8282 -0.7398  0.2055
  720MOL0     C97106   1.878   0.336   8.658 -0.7096 -0.1780  0.2709
  720MOL0     C97107   1.728   0.343   8.633  0.0231  0.0775  0.4403
  720MOL0     C97108   1.643   0.413   8.734 -0.1256  0.4589  0.3247
  720MOL0     C97109   1.514   0.470   8.669 -0.4180 -0.6599  0.1164
  720MOL0    Cl97110   1.431   0.584   8.794  0.2065 -0.1091 -0.0819
  720MOL0     C97111   2.282   0.337   9.240  0.3236 -0.5171  0.6035
  720MOL0     C97112   2.393   0.390   9.299 -0.1803 -0.8478  0.9646
  720MOL0     O97113   2.797   0.316   9.312 -0.6764 -0.0362 -0.1564
  720MOL0     C97114   2.978   0.525   9.280  1.2101  0.3623 -0.0385
  720MOL0     C97115   3.072   0.631   9.287  0.5408  0.4042 -0.8388
  720MOL0     N97116   2.954   1.422   9.185 -0.4107 -0.1060 -0.5550
  720MOL0     N97117   2.964   1.489   9.073 -0.4779 -0.3482 -0.1207
  720MOL0     C97118   3.951   1.611   8.168 -0.4639  0.4776 -0.5749
  720MOL0     C97119   4.070   1.614   8.101 -1.1404  0.3417 -0.1957
  720MOL0     C97120   4.358   1.555   7.730 -0.3737  0.3699 -0.2856
  720MOL0     C97121   4.452   1.656   7.764 -0.4991 -0.1930  0.5458
  720MOL0     C97122   4.567   1.669   7.697  0.4213 -0.8972 -0.8324
  720MOL0     C97123   4.596   1.588   7.587 -0.7184  0.4112  0.9723
  720MOL0     O97124   4.703   1.606   7.499  0.0052  0.2218 -0.0973
  720MOL0     C97125   4.832   1.640   7.555  0.4187  0.5024 -0.0502
  720MOL0     C97126   4.938   1.625   7.456 -0.6947  0.3996  0.2663
  720MOL0     C97127   4.957   1.479   7.405 -0.9871 -0.1455  0.2251
  720MOL0     C97128   4.979   1.367   7.512 -0.0160 -0.4465  0.4904
  720MOL0     C97129   4.857   1.340   7.586  0.6613 -0.6239  0.7291
  720MOL0     C97130   4.763   1.315   7.656  0.3826  0.8540  0.0469
  720MOL0     C97131   4.498   1.494   7.542  0.2529 -0.5118  0.1324
  720MOL0     C97132   4.380   1.483   7.611  0.6705 -0.8875  0.1467
  720MOL0     H97133   3.953   1.659   7.787 -2.0974  1.7718  0.6704
  720MOL0     H97134   3.732   1.639   7.927  0.3453 -1.9127  0.4558
  720MOL0     H97135   3.692   1.447   8.289 -0.2608  0.4020  1.6388
  720MOL0     H97136   3.777   1.585   8.360  1.6162  1.6497 -2.1393
  720MOL0     H97137   3.598   1.712   8.386  1.5123 -0.4809  1.1953
  720MOL0     H97138   3.489   1.626   8.284  1.7985 -0.7094 -1.9017
  720MOL0     H97139   3.533   1.417   8.431  2.7472  0.3238 -1.2250
  720MOL0     H97140   3.613   1.525   8.540  0.3969  2.0213 -0.2329
  720MOL0     H97141   3.404   1.660   8.584  0.9135 -0.0713 -0.2398
  720MOL0     H97142   3.320   1.572   8.453 -3.0096 -1.3473  2.6052
  720MOL0     H97143   3.348   1.368   8.597  0.2385  0.3208  0.8403
  720MOL0     H97144   3.419   1.465   8.720 -0.1671  0.0574  0.5562
  720MOL0     H97145   3.199   1.622   8.712  1.1941 -0.1320 -0.0546
  720MOL0     H97146   3.131   1.489   8.611  0.7464  2.1950 -2.5527
  720MOL0     H97147   3.197   1.326   8.795 -0.4573  0.3281  0.3908
  720MOL0     H97148   3.225   1.455   8.906 -1.9944 -2.3464  2.0818
  720MOL0     H97149   2.971   1.376   8.774  0.7532  0.6131  0.1246
  720MOL0     H97150   2.979   1.539   8.826  2.1527  0.9558 -0.3375
  720MOL0     H97151   3.044   1.182   8.971 -0.9695 -1.7571  1.5376
  720MOL0     H97152   2.996   1.246   9.351 -0.8766 -1.2821  0.4549
  720MOL0     H97153   2.938   1.119   9.253  1.8566 -3.3641  1.3740
  720MOL0     H97154   3.227   1.218   9.199 -1.3811  0.3906 -1.9877
  720MOL0     H97155   3.179   1.054   9.183  0.1200  0.3713 -1.4611
  720MOL0     H97156   3.186   1.184   9.451 -0.1490  0.7798 -0.5935
  720MOL0     H97157   3.308   1.070   9.385 -0.6491  0.9884 -0.9341
  720MOL0     H97158   3.023   1.020   9.440  0.7666  2.1134 -1.6932
  720MOL0     H97159   3.152   0.952   9.535  1.1062  2.0769  0.1313
  720MOL0     H97160   2.861   0.871   9.406 -3.4308  0.3331 -4.1411
  720MOL0     H97161   2.615   0.739   9.289  0.1371  0.6165 -0.5436
  720MOL0     H97162   2.605   0.648   9.449 -0.9304 -0.9416 -0.7978
  720MOL0     H97163   2.657   0.817   9.438  0.0880 -1.1950  0.6150
  720MOL0     H97164   2.640   0.216   9.151  0.4081  1.3507  0.7922
  720MOL0     H97165   2.448   0.104   9.053 -2.3651  1.7469 -2.3915
  720MOL0     H97166   2.274   0.200   8.896 -1.9905  0.6886 -2.1247
  720MOL0     H97167   2.267   0.028   8.963 -0.2439 -0.2158  0.3429
  720MOL0     H97168   2.092   0.032   8.795 -1.1948 -0.0693  0.4782
  720MOL0     H97169   2.009   0.067   8.951 -0.2499 -0.8551 -0.7599
  720MOL0     H97170   2.109   0.234   8.719  0.5815  0.5984  0.9549
  720MOL0     H97171   2.080   0.318   8.869  0.6197  0.4521 -0.6845
  720MOL0     H97172   1.859   0.142   8.737 -1.8922  0.2787  0.6285
  720MOL0     H97173   1.845   0.267   8.860 -0.3673 -1.8578 -0.1649
  720MOL0     H97174   1.917   0.291   8.566 -3.6185 -2.3735 -0.0440
  720MOL0     H97175   1.923   0.434   8.675 -0.3580 -0.0776 -1.0821
  720MOL0     H97176   1.730   0.395   8.537  1.4315 -1.1983 -0.2808
  720MOL0     H97177   1.688   0.244   8.609  0.6859 -0.4580  1.4860
  720MOL0     H97178   1.697   0.496   8.781  1.5540 -1.8206  2.7078
  720MOL0     H97179   1.614   0.349   8.818 -0.8690 -1.2658 -1.1802
  720MOL0     H97180   1.453   0.385   8.636 -0.8475 -0.2510 -0.1450
  720MOL0     H97181   1.541   0.527   8.579 -0.9783  0.1325  0.4508
  720MOL0     H97182   2.180   0.364   9.264  0.8399 -0.0936  2.4189
  720MOL0     H97183   2.375   0.475   9.364  2.4716 -0.8333  1.7811
  720MOL0     H97184   3.002   0.427   9.241 -0.6531  0.4323 -1.4896
  720MOL0     H97185   3.169   0.629   9.237  2.0425 -1.9250  1.8063
  720MOL0     H97186   3.963   1.594   8.274  1.9933  0.4789 -0.8060
  720MOL0     H97187   4.167   1.602   8.148  0.2685 -2.3542 -3.3726
  720MOL0     H97188   4.422   1.731   7.836 -2.5082  0.4309 -0.8616
  720MOL0     H97189   4.640   1.742   7.729  0.3711 -0.5268 -1.5286
  720MOL0     H97190   4.828   1.744   7.591 -0.1715  0.5008 -0.0992
  720MOL0     H97191   4.858   1.583   7.645 -0.8191  1.3419  0.8785
  720MOL0     H97192   5.034   1.650   7.502  0.6153 -1.8413 -1.0877
  720MOL0     H97193   4.911   1.690   7.372 -0.2204 -0.6988 -0.7517
  720MOL0     H97194   5.046   1.483   7.342 -2.2136 -0.3819 -1.6351
  720MOL0     H97195   4.872   1.441   7.347 -0.1965 -2.9890  0.7861
  720MOL0     H97196   5.059   1.394   7.582 -0.7864 -0.4139  1.3734
  720MOL0     H97197   5.002   1.270   7.466  0.8473 -0.5913  1.2106
  720MOL0     H97198   4.676   1.305   7.719 -0.4595 -2.7384 -1.4505
  720MOL0     H97199   4.519   1.440   7.451  3.1954  0.4660  0.1221
  720MOL0     H97200   4.306   1.415   7.569 -0.7387 -0.1276  1.2882
  721MOL0     O97201   8.314   6.891   7.712  0.2631  0.4615  0.0263
  721MOL0     C97202   8.388   6.851   7.806  0.3313  0.2391  0.8018
  721MOL0     O97203   8.384   6.726   7.864  0.5326  0.4705  0.1422
  721MOL0     C97204   8.277   6.634   7.838  1.0507 -0.8007  0.5920
  721MOL0     C97205   8.251   6.569   7.717 -0.2111  0.5250 -0.6953
  721MOL0     C97206   8.132   6.503   7.683 -0.1505 -0.5942 -0.3168
  721MOL0     C97207   8.031   6.487   7.783 -0.6173 -0.5564 -0.0744
  721MOL0     O97208   7.914   6.422   7.750  0.1554  1.3003  0.4313
  721MOL0     C97209   7.788   6.480   7.793 -0.5419 -0.3487 -0.6495
  721MOL0     C97210   7.676   6.423   7.711  0.4909  0.5814  0.8885
  721MOL0     C97211   7.662   6.271   7.722 -0.5092 -0.0276 -1.0721
  721MOL0     C97212   7.621   6.224   7.858  0.1866  0.0516 -0.0772
  721MOL0     C97213   7.617   6.071   7.863 -0.3210 -0.4001  0.4641
  721MOL0     C97214   7.638   6.016   8.004 -0.4432  0.7822  0.3103
  721MOL0     C97215   7.522   6.052   8.095  0.8560  0.2731 -0.5786
  721MOL0     C97216   7.557   6.022   8.235  0.1102  0.4425  0.0715
  721MOL0     N97217   7.439   6.028   8.320 -0.2963 -0.1807 -0.9979
  721MOL0     C97218   7.423   5.949   8.431  0.4200 -0.2142  0.0716
  721MOL0     C97219   7.304   5.983   8.485 -0.6883 -0.4926 -0.0858
  721MOL0     C97220   7.256   5.907   8.604 -0.5427  0.7053  0.9137
  721MOL0     C97221   7.112   5.942   8.650  0.8689 -0.1850 -0.2138
  721MOL0     C97222   7.081   5.911   8.794  0.1829 -1.1371  0.0407
  721MOL0     C97223   6.938   5.939   8.843 -0.1352 -1.1751 -0.1307
  721MOL0     O97224   6.840   5.849   8.784 -0.3401 -0.1489 -0.2137
  721MOL0     C97225   6.723   5.846   8.850 -0.3503 -0.0241 -0.1982
  721MOL0     C97226   6.662   5.943   8.933  0.1159 -0.7566  1.6107
  721MOL0     C97227   6.530   5.920   8.987  0.5360 -0.0800 -0.8709
  721MOL0     C97228   6.469   6.033   9.077  0.7662  0.7218 -0.0296
  721MOL0     C97229   6.463   5.804   8.949  0.0133  0.7219 -0.2340
  721MOL0     C97230   6.330   5.767   9.008  0.8685  0.6867  0.5961
  721MOL0     O97231   6.255   5.695   8.934 -0.7211  0.8369 -0.0408
  721MOL0     C97232   6.130   5.650   8.964 -0.3028 -0.6152  0.3422
  721MOL0     C97233   6.065   5.611   9.086  0.5189 -0.1323  0.3380
  721MOL0     C97234   5.937   5.553   9.081  0.5126 -0.6511  1.3577
  721MOL0     C97235   5.868   5.530   8.965 -0.6901 -0.3248 -0.3506
  721MOL0     O97236   5.750   5.463   8.978 -0.4040 -0.3051  1.2475
  721MOL0     C97237   5.686   5.425   8.854  0.7382  0.2874  0.5046
  721MOL0     C97238   5.563   5.339   8.878  0.6160  0.8712 -0.8162
  721MOL0     C97239   5.453   5.399   8.965 -0.7162 -1.1371  0.7038
  721MOL0     C97240   5.340   5.301   9.005  0.6952 -0.1033 -1.0273
  721MOL0     C97241   5.218   5.373   9.068  0.0055  0.3816 -0.1037
  721MOL0     C97242   5.233   5.395   9.222 -0.5078 -0.1802  0.2653
  721MOL0     C97243   5.097   5.438   9.277  0.2077  0.6227 -0.1941
  721MOL0     C97244   5.093   5.428   9.423 -0.0032 -0.4100  0.3513
  721MOL0    Cl97245   4.931   5.463   9.476 -0.0943 -0.3371 -0.1503
  721MOL0     C97246   5.934   5.562   8.850 -0.3143  0.6913 -0.2832
  721MOL0     C97247   6.058   5.621   8.847 -0.4755 -0.6910 -0.4383
  721MOL0     O97248   6.302   5.789   9.126  0.5510  0.3376  0.4685
  721MOL0     C97249   6.516   5.712   8.860 -0.0760 -0.3230  0.1547
  721MOL0     C97250   6.645   5.744   8.818  0.9350 -0.0725 -0.0292
  721MOL0     N97251   7.244   6.081   8.404  0.0138  0.0684  0.0251
  721MOL0     N97252   7.330   6.104   8.301  0.1658 -0.0455 -0.3001
  721MOL0     C97253   8.048   6.555   7.907 -0.4257 -0.2182  0.0790
  721MOL0     C97254   8.168   6.621   7.933 -1.0581  0.3192  0.6056
  721MOL0     C97255   8.489   6.944   7.859 -0.9544  0.5541  1.0232
  721MOL0     C97256   8.592   6.892   7.943 -0.3238 -0.4187  0.3585
  721MOL0     C97257   8.692   6.978   7.977 -0.0863 -1.1338  0.3626
  721MOL0     C97258   8.689   7.116   7.954  0.7262  0.1358  0.2305
  721MOL0     O97259   8.791   7.193   7.991  0.2160  0.1961 -0.2666
  721MOL0     C97260   8.770   7.331   8.046  0.0954  0.3588  0.0088
  721MOL0     C97261   8.906   7.387   8.100  0.5149  0.7996 -0.2234
  721MOL0     C97262   8.961   7.299   8.214  0.8806 -0.0411  0.1301
  721MOL0     C97263   9.093   7.351   8.277  0.7708 -0.0239  0.1780
  721MOL0     C97264   9.074   7.464   8.361  0.5678 -0.5744 -0.4147
  721MOL0     C97265   9.074   7.553   8.452  0.2911  0.3994  0.1604
  721MOL0     C97266   8.575   7.169   7.876 -0.8342 -0.7507 -0.3106
  721MOL0     C97267   8.482   7.079   7.829 -0.2455  0.8461 -0.2160
  721MOL0     H97268   8.319   6.577   7.633  0.8071 -0.2724  0.0211
  721MOL0     H97269   8.117   6.447   7.592 -1.5200 -0.1078 -0.4070
  721MOL0     H97270   7.759   6.466   7.897 -0.8626 -2.5949 -0.9978
  721MOL0     H97271   7.795   6.589   7.782 -1.9812 -0.0481  0.9651
  721MOL0     H97272   7.583   6.474   7.737 -2.0610 -2.0425 -2.1469
  721MOL0     H97273   7.702   6.434   7.605  0.6875 -0.3397  0.8304
  721MOL0     H97274   7.603   6.224   7.642  0.3684 -2.5273 -0.3546
  721MOL0     H97275   7.760   6.228   7.698  1.5704  3.5797  0.2275
  721MOL0     H97276   7.685   6.266   7.936  1.2332  2.4054 -2.0767
  721MOL0     H97277   7.517   6.254   7.873  0.2898  2.7152 -3.5123
  721MOL0     H97278   7.521   6.036   7.823  1.2439 -1.5512 -2.6087
  721MOL0     H97279   7.691   6.032   7.794  1.3009  2.2229  0.5814
  721MOL0     H97280   7.652   5.908   7.993 -2.2265  0.6180 -0.7573
  721MOL0     H97281   7.733   6.048   8.048  0.9917 -1.2232 -1.1557
  721MOL0     H97282   7.490   6.157   8.094 -2.9598 -0.7543 -0.9850
  721MOL0     H97283   7.442   5.982   8.068  0.1527  1.0048 -0.4560
  721MOL0     H97284   7.632   6.083   8.284 -0.6709 -0.6443  2.7854
  721MOL0     H97285   7.589   5.918   8.244 -1.5352  0.0273  1.7997
  721MOL0     H97286   7.484   5.876   8.482 -0.5543  0.5473  2.4649
  721MOL0     H97287   7.263   5.803   8.570  1.4167  1.8182 -2.6318
  721MOL0     H97288   7.327   5.918   8.687 -0.0152 -0.6720  0.6579
  721MOL0     H97289   7.040   5.889   8.588 -1.3195  1.1370  1.0535
  721MOL0     H97290   7.107   6.051   8.645 -0.2665 -0.1785  0.7419
  721MOL0     H97291   7.135   5.976   8.863 -2.9759  1.0961  0.6276
  721MOL0     H97292   7.085   5.805   8.819 -1.9056 -1.4270 -0.6058
  721MOL0     H97293   6.911   6.041   8.813  0.4950 -0.1511  2.4670
  721MOL0     H97294   6.931   5.924   8.951  2.8626 -3.6123 -0.1431
  721MOL0     H97295   6.715   6.037   8.931 -0.8280 -0.1310 -2.1842
  721MOL0     H97296   6.537   6.119   9.072  0.6793  0.7480 -1.0195
  721MOL0     H97297   6.374   6.067   9.033  2.5760  2.3883 -3.0575
  721MOL0     H97298   6.459   6.002   9.181 -1.1165 -3.6316 -1.2874
  721MOL0     H97299   6.122   5.616   9.178  0.8884 -1.8778  0.2359
  721MOL0     H97300   5.888   5.526   9.173  1.7288  0.9010  2.5250
  721MOL0     H97301   5.671   5.514   8.793  0.4767 -0.5707 -0.7259
  721MOL0     H97302   5.760   5.374   8.792  1.5675  1.8189  0.1895
  721MOL0     H97303   5.512   5.318   8.784  0.7102 -2.7026 -0.2123
  721MOL0     H97304   5.596   5.243   8.919 -1.7813  0.1829 -0.3499
  721MOL0     H97305   5.405   5.481   8.909 -0.4038 -0.4789  1.3781
  721MOL0     H97306   5.497   5.437   9.058 -1.7294  2.8491 -0.2193
  721MOL0     H97307   5.298   5.257   8.914  2.9159 -3.2044 -0.6774
  721MOL0     H97308   5.374   5.216   9.063  0.9053 -0.0357 -1.0504
  721MOL0     H97309   5.131   5.310   9.045  0.2591  0.8142 -2.5278
  721MOL0     H97310   5.190   5.465   9.016 -2.3349 -1.6116 -2.7033
  721MOL0     H97311   5.262   5.314   9.289  0.6745  1.2598  1.5600
  721MOL0     H97312   5.302   5.480   9.229 -1.7763  0.8008  1.3436
  721MOL0     H97313   5.021   5.366   9.243 -0.8729  1.4783  0.3507
  721MOL0     H97314   5.065   5.537   9.244  1.2901  1.5329  1.3480
  721MOL0     H97315   5.150   5.514   9.461  1.5651 -2.3323  2.6246
  721MOL0     H97316   5.131   5.335   9.465  0.6426  0.0960  0.9245
  721MOL0     H97317   5.885   5.545   8.754  0.7384  3.4897 -1.4223
  721MOL0     H97318   6.114   5.647   8.758 -0.0260 -0.1607 -0.0125
  721MOL0     H97319   6.470   5.616   8.845 -1.5833  0.3689  0.1914
  721MOL0     H97320   6.692   5.669   8.755 -1.0937  0.6856 -2.6335
  721MOL0     H97321   7.958   6.563   7.968 -0.9260 -3.8487  0.0498
  721MOL0     H97322   8.182   6.674   8.027 -1.5087 -1.6846  1.8737
  721MOL0     H97323   8.594   6.789   7.979 -2.1549 -0.5215  0.2971
  721MOL0     H97324   8.783   6.944   8.025 -0.7037 -1.6334  1.2071
  721MOL0     H97325   8.737   7.402   7.970 -0.1835  1.2497  0.9326
  721MOL0     H97326   8.698   7.329   8.129 -0.8377 -0.8315 -0.7868
  721MOL0     H97327   8.888   7.487   8.139 -1.2518  0.1042  0.8541
  721MOL0     H97328   8.978   7.385   8.018  1.6707  0.8956  0.7719
  721MOL0     H97329   8.984   7.205   8.163  0.0568 -0.1599 -0.0491
  721MOL0     H97330   8.894   7.285   8.299  1.6706  1.1128  0.9838
  721MOL0     H97331   9.157   7.392   8.199  2.7142  1.6206  2.4702
  721MOL0     H97332   9.151   7.269   8.321  2.1967  0.4149 -0.8273
  721MOL0     H97333   9.065   7.610   8.542 -1.8172 -1.3758  1.1891
  721MOL0     H97334   8.581   7.274   7.849  1.1441 -0.0493  2.3813
  721MOL0     H97335   8.399   7.117   7.771 -0.8617 -0.6850 -0.3972
  722MOL0     O97336   2.354  11.202  10.054  0.2485  0.0650 -0.5767
  722MOL0     C97337   2.418  11.101  10.028  0.4351 -0.1001  0.0487
  722MOL0     O97338   2.369  10.988   9.981 -0.0760 -0.2647  0.2696
  722MOL0     C97339   2.237  10.985   9.944  1.1941 -0.1053 -0.5767
  722MOL0     C97340   2.129  10.980  10.027 -0.1450  0.7522  0.6434
  722MOL0     C97341   1.991  10.991   9.979 -0.4379  0.2338 -0.9674
  722MOL0     C97342   1.970  11.038   9.854  0.3551 -0.3106 -0.0462
  722MOL0     O97343   1.842  11.043   9.802 -0.3468 -0.3108  0.6889
  722MOL0     C97344   1.811  11.178   9.758 -0.0883  0.4026  0.4615
  722MOL0     C97345   1.654  11.187   9.770  0.4221  0.0134  1.1481
  722MOL0     C97346   1.585  11.080   9.676 -0.1876  0.2877 -0.6208
  722MOL0     C97347   1.548  11.134   9.543  0.0736  0.4108  0.1206
  722MOL0     C97348   1.481  11.035   9.457  0.4277  1.2918 -0.2557
  722MOL0     C97349   1.395  11.089   9.342  0.8109 -0.0874 -0.1128
  722MOL0     C97350   1.337  10.978   9.252  0.4869  0.1695 -0.6181
  722MOL0     C97351   1.230  11.019   9.149 -0.0889 -0.1397  0.9428
  722MOL0     N97352   1.108  11.075   9.217 -0.0872 -0.6282  0.4095
  722MOL0     C97353   1.082  11.209   9.250  0.4476  1.2714 -0.7250
  722MOL0     C97354   0.952  11.204   9.300  0.0654 -0.0375  1.0523
  722MOL0     C97355   0.861  11.318   9.346  0.2988  0.4066 -0.6291
  722MOL0     C97356   0.725  11.261   9.390 -1.3876 -0.1002 -0.2069
  722MOL0     C97357   0.648  11.383   9.461 -0.4557  0.4944  0.8698
  722MOL0     C97358   0.507  11.338   9.507 -0.4194 -0.0242 -0.5056
  722MOL0     O97359   0.427  11.330   9.381 -0.8990 -0.3048 -0.1732
  722MOL0     C97360   0.294  11.326   9.399  0.5688 -0.1981 -0.2550
  722MOL0     C97361   0.221  11.315   9.520  1.2300 -0.1583  0.0617
  722MOL0     C97362   0.080  11.316   9.519 -0.0122  0.6320  0.3579
  722MOL0     C97363   0.008  11.327   9.650 -0.0051 -0.3138 -0.9446
  722MOL0     C97364   0.005  11.339   9.397  0.7710  0.1054 -0.3031
  722MOL0     C97365  -0.145  11.346   9.387  0.0581  0.3985  1.1930
  722MOL0     O97366  -0.193  11.410   9.275 -0.0279 -0.6472 -0.1553
  722MOL0     C97367  -0.327  11.430   9.286  0.6199 -0.5842 -0.0799
  722MOL0     C97368  -0.376  11.551   9.331 -0.3816  0.0889  0.1437
  722MOL0     C97369  -0.511  11.590   9.318  0.6335  1.2678  0.4854
  722MOL0     C97370  -0.604  11.496   9.274 -0.5340  0.1212 -0.3084
  722MOL0     O97371  -0.739  11.510   9.255  0.6102  0.0641 -0.2057
  722MOL0     C97372  -0.814  11.634   9.279 -0.6479  0.4714  0.1483
  722MOL0     C97373  -0.964  11.604   9.283  0.1683 -0.1132  0.3221
  722MOL0     C97374  -1.016  11.517   9.170  0.7658  0.0157  0.2490
  722MOL0     C97375  -1.172  11.519   9.168 -0.7217  0.5511  0.1062
  722MOL0     C97376  -1.226  11.442   9.045  0.5252 -0.9074  0.0457
  722MOL0     C97377  -1.375  11.421   9.066 -0.0366  0.2991 -0.4888
  722MOL0     C97378  -1.432  11.348   8.946  0.6723  0.3759  0.4013
  722MOL0     C97379  -1.572  11.303   8.963  0.2237  0.2421 -0.1254
  722MOL0    Cl97380  -1.700  11.429   9.011  0.1109  0.0612 -0.1709
  722MOL0     C97381  -0.555  11.364   9.244 -0.2829  0.2307 -0.0615
  722MOL0     C97382  -0.418  11.334   9.255 -0.1855 -0.6608  0.7982
  722MOL0     O97383  -0.214  11.289   9.474  0.3463 -0.1071 -0.3512
  722MOL0     C97384   0.079  11.340   9.281 -0.1913  0.0443  0.5241
  722MOL0     C97385   0.220  11.333   9.287 -0.4902 -0.7899 -0.6787
  722MOL0     N97386   0.907  11.066   9.291  0.2526  0.0215 -0.6876
  722MOL0     N97387   0.999  10.997   9.246  0.8467 -0.1473  0.1651
  722MOL0     C97388   2.075  11.050   9.769  1.0239 -0.5872  0.2782
  722MOL0     C97389   2.206  11.019   9.812 -0.2381  0.2131 -0.3748
  722MOL0     C97390   2.567  11.114  10.060  0.1722  0.0117 -0.0130
  722MOL0     C97391   2.630  11.238  10.055  0.5368  0.2918  0.4751
  722MOL0     C97392   2.763  11.262  10.082 -0.5292 -0.7632  0.9848
  722MOL0     C97393   2.840  11.157  10.133  0.3060 -0.5516  0.2292
  722MOL0     O97394   2.971  11.177  10.160 -0.0260  0.0108  0.2848
  722MOL0     C97395   3.057  11.058  10.169 -0.3163 -0.2204  0.1932
  722MOL0     C97396   3.207  11.096  10.185  0.3291 -1.0205 -1.0662
  722MOL0     C97397   3.245  11.226  10.101 -0.3193  0.0500 -0.8322
  722MOL0     C97398   3.392  11.216  10.053 -0.0265 -0.6779 -0.8417
  722MOL0     C97399   3.476  11.243  10.171  0.1665 -0.5642  0.3459
  722MOL0     C97400   3.553  11.253  10.265  0.0076 -0.0707  0.0500
  722MOL0     C97401   2.786  11.030  10.135 -0.1593 -0.3323 -0.1393
  722MOL0     C97402   2.650  11.005  10.109  0.3913  0.0586 -0.5209
  722MOL0     H97403   2.146  10.959  10.133 -1.7301  2.3648  1.2575
  722MOL0     H97404   1.906  10.974  10.044  0.2084 -0.3160 -0.2564
  722MOL0     H97405   1.845  11.257   9.826  3.0706  0.1705 -0.6854
  722MOL0     H97406   1.841  11.203   9.656  0.1497  1.9715  0.8902
  722MOL0     H97407   1.629  11.180   9.876 -0.5124  1.7166  1.0745
  722MOL0     H97408   1.609  11.280   9.733 -0.0275 -1.6229 -2.8786
  722MOL0     H97409   1.643  10.988   9.672  0.5253  0.7357 -0.9432
  722MOL0     H97410   1.497  11.052   9.735  1.5338  0.4591  2.2426
  722MOL0     H97411   1.499  11.231   9.558 -2.0834 -0.8887  2.0367
  722MOL0     H97412   1.641  11.165   9.494 -1.3720  0.6903 -2.6216
  722MOL0     H97413   1.559  10.978   9.404  0.5116  0.9102  0.2734
  722MOL0     H97414   1.426  10.962   9.515  2.4858  0.0574  0.2511
  722MOL0     H97415   1.319  11.161   9.375  0.8524  0.4723 -1.1851
  722MOL0     H97416   1.455  11.153   9.278  0.4619  0.4817  0.1218
  722MOL0     H97417   1.422  10.933   9.199  0.5441 -2.4991  1.4908
  722MOL0     H97418   1.298  10.895   9.312  1.4442 -1.6831 -2.3908
  722MOL0     H97419   1.206  10.931   9.088  0.4505 -0.0829  0.6414
  722MOL0     H97420   1.273  11.096   9.084  1.9206 -1.6183  0.4007
  722MOL0     H97421   1.144  11.289   9.212 -0.4368  2.9770  1.2048
  722MOL0     H97422   0.913  11.366   9.429 -0.7205 -2.9290  2.1582
  722MOL0     H97423   0.847  11.395   9.268 -1.4526  1.1269  0.3442
  722MOL0     H97424   0.745  11.185   9.466 -1.5334  0.5199  0.4612
  722MOL0     H97425   0.676  11.222   9.301 -0.4838 -0.1954 -0.6752
  722MOL0     H97426   0.637  11.471   9.397 -2.3041  0.1591  0.6850
  722MOL0     H97427   0.709  11.423   9.542  1.9645 -1.2767  0.0552
  722MOL0     H97428   0.474  11.409   9.583 -0.4028 -1.3006  0.7298
  722MOL0     H97429   0.524  11.243   9.558  1.8548  0.0103 -1.0795
  722MOL0     H97430   0.266  11.308   9.618 -1.5059  2.1657  1.6110
  722MOL0     H97431  -0.079  11.262   9.663 -0.7136  0.9592  1.1800
  722MOL0     H97432   0.075  11.321   9.737  0.5433 -1.7619 -1.4315
  722MOL0     H97433  -0.045  11.422   9.658 -1.3131 -1.1085  0.5125
  722MOL0     H97434  -0.298  11.623   9.351 -1.0116  0.8541 -0.1005
  722MOL0     H97435  -0.542  11.689   9.351 -2.5342  0.4970  0.1338
  722MOL0     H97436  -0.785  11.667   9.379  0.6881  1.6308 -0.5819
  722MOL0     H97437  -0.798  11.711   9.203 -1.9737  0.3829 -0.2497
  722MOL0     H97438  -0.983  11.548   9.375  0.1113 -0.4773  0.0908
  722MOL0     H97439  -1.013  11.702   9.283 -0.3378 -0.3554 -0.5839
  722MOL0     H97440  -0.976  11.415   9.176  5.0043  1.3239 -1.3939
  722MOL0     H97441  -0.973  11.562   9.079  0.0467  0.8600  0.3061
  722MOL0     H97442  -1.219  11.489   9.262 -1.3429  1.2212  0.0149
  722MOL0     H97443  -1.187  11.627   9.160  4.3770  1.9415  4.0072
  722MOL0     H97444  -1.157  11.357   9.038  1.6812 -0.0300  0.4217
  722MOL0     H97445  -1.210  11.502   8.956 -0.0707 -2.6465 -1.2851
  722MOL0     H97446  -1.391  11.367   9.160  2.1656  3.0034  1.6199
  722MOL0     H97447  -1.422  11.519   9.080 -0.7713  0.0848 -1.3639
  722MOL0     H97448  -1.369  11.260   8.937  1.0676  0.8428 -1.7510
  722MOL0     H97449  -1.425  11.413   8.859 -1.7362  2.5485  1.6848
  722MOL0     H97450  -1.560  11.231   9.045  2.2029 -1.6464 -1.9464
  722MOL0     H97451  -1.610  11.238   8.884  0.8011 -3.0309  2.0711
  722MOL0     H97452  -0.615  11.287   9.196 -0.0557  0.6726 -1.0634
  722MOL0     H97453  -0.372  11.243   9.218 -2.4727 -0.3167 -3.6227
  722MOL0     H97454   0.039  11.355   9.182  1.7995 -0.7733 -0.4620
  722MOL0     H97455   0.266  11.339   9.189 -0.9857 -1.5318 -0.9731
  722MOL0     H97456   2.056  11.072   9.664  0.7948 -1.4271  0.1367
  722MOL0     H97457   2.296  11.026   9.751  0.2692  1.6419  0.4942
  722MOL0     H97458   2.567  11.318  10.016  1.1220  0.8573  0.6731
  722MOL0     H97459   2.809  11.360  10.075 -0.8191 -0.5842  1.5163
  722MOL0     H97460   3.023  11.001  10.256 -2.5310  4.2894  2.6625
  722MOL0     H97461   3.047  10.984  10.089 -1.0934  0.1263 -0.0450
  722MOL0     H97462   3.266  11.005  10.173 -0.4750 -1.6388 -0.4586
  722MOL0     H97463   3.225  11.121  10.290  2.3101 -1.7776 -1.1909
  722MOL0     H97464   3.233  11.309  10.172  0.5105 -1.5384  1.2758
  722MOL0     H97465   3.179  11.251  10.017 -1.7658 -0.1165  0.2109
  722MOL0     H97466   3.412  11.295   9.979 -0.3892 -0.6229 -0.8829
  722MOL0     H97467   3.423  11.124  10.004 -1.6279 -2.4746  1.3176
  722MOL0     H97468   3.630  11.254  10.340 -0.5174 -1.6045  0.6547
  722MOL0     H97469   2.834  10.945  10.181  0.5934 -0.0030 -0.3140
  722MOL0     H97470   2.622  10.901  10.118  2.4961 -0.3377  3.9727
  723MOL0     O97471   8.161   5.149  11.202 -0.3973 -0.4583  0.1265
  723MOL0     C97472   8.201   5.037  11.240  0.8868  0.8784 -0.6617
  723MOL0     O97473   8.116   4.930  11.263 -0.8334  0.4848  0.1530
  723MOL0     C97474   7.988   4.964  11.287 -0.6688 -0.3202 -0.3161
  723MOL0     C97475   7.946   5.012  11.415  0.0987  0.8132 -0.1453
  723MOL0     C97476   7.806   5.052  11.416  0.1799  0.5161 -0.7985
  723MOL0     C97477   7.715   5.038  11.309 -0.5348  1.0895  1.2470
  723MOL0     O97478   7.592   5.093  11.329 -0.2883  0.1116 -0.3768
  723MOL0     C97479   7.501   5.110  11.220 -0.1446 -0.4454 -0.1633
  723MOL0     C97480   7.424   4.967  11.205  0.0425 -0.6063  0.3328
  723MOL0     C97481   7.388   4.962  11.053  0.5493 -0.3183  0.1198
  723MOL0     C97482   7.303   4.845  11.022 -0.3507 -0.4213  0.3651
  723MOL0     C97483   7.270   4.852  10.870 -0.0096 -0.0455 -0.2011
  723MOL0     C97484   7.149   4.757  10.843  0.0175  0.7194 -0.3927
  723MOL0     C97485   7.090   4.764  10.696 -0.1201  0.8629  0.0449
  723MOL0     C97486   7.176   4.674  10.604  0.2767  0.1929 -0.1418
  723MOL0     N97487   7.210   4.733  10.474  0.9152 -0.4291 -0.1317
  723MOL0     C97488   7.125   4.733  10.367  0.5444  0.6381 -0.9661
  723MOL0     C97489   7.195   4.791  10.268  0.0009 -1.9521 -0.1508
  723MOL0     C97490   7.154   4.824  10.123 -0.1671  0.7748 -0.2787
  723MOL0     C97491   7.007   4.842  10.119  1.6466 -0.4203  0.5560
  723MOL0     C97492   6.968   4.830   9.972  0.3529 -0.2024  0.5599
  723MOL0     C97493   6.812   4.833   9.950  0.1264  0.2065  0.1276
  723MOL0     O97494   6.799   4.801   9.818  0.5759  0.4741  0.2694
  723MOL0     C97495   6.673   4.783   9.764  0.3155 -0.2138  0.2097
  723MOL0     C97496   6.557   4.781   9.839 -0.0983 -0.1064  0.0594
  723MOL0     C97497   6.431   4.771   9.775 -0.1979  0.6337 -0.0490
  723MOL0     C97498   6.322   4.751   9.875 -0.8155  0.7289 -0.6537
  723MOL0     C97499   6.423   4.776   9.632  0.0117  0.0383  0.4750
  723MOL0     C97500   6.297   4.774   9.553  0.1231 -0.2253  0.4388
  723MOL0     O97501   6.178   4.762   9.624 -0.0998  0.2305  0.0561
  723MOL0     C97502   6.060   4.736   9.551  0.0661 -0.9281  0.3343
  723MOL0     C97503   6.046   4.631   9.463 -0.3152  0.3404 -0.1208
  723MOL0     C97504   5.933   4.609   9.380  0.2950  1.6005 -0.1760
  723MOL0     C97505   5.824   4.703   9.382 -0.7029  0.4836 -0.6213
  723MOL0     O97506   5.717   4.685   9.301 -0.5677 -0.4578 -0.0152
  723MOL0     C97507   5.590   4.724   9.355 -0.7040 -0.3243  0.2097
  723MOL0     C97508   5.481   4.733   9.250 -0.2662  0.8391  0.3250
  723MOL0     C97509   5.490   4.868   9.167 -0.4709  1.3986 -0.5952
  723MOL0     C97510   5.370   4.883   9.068  0.4774  0.9052 -0.0102
  723MOL0     C97511   5.232   4.896   9.130 -0.2915 -0.2201 -0.4387
  723MOL0     C97512   5.136   4.951   9.026 -0.2761  0.0054 -0.3470
  723MOL0     C97513   5.022   5.010   9.108  0.9517  0.3719  1.0396
  723MOL0     C97514   4.901   5.041   9.012 -0.0344  0.6280 -0.0966
  723MOL0    Cl97515   4.746   5.087   9.103  0.0575 -0.2286 -0.3421
  723MOL0     C97516   5.840   4.804   9.484  0.6199  0.2575 -0.3732
  723MOL0     C97517   5.949   4.822   9.566 -0.0443  0.3326  0.0638
  723MOL0     O97518   6.301   4.770   9.429 -0.1279  0.3886  0.6751
  723MOL0     C97519   6.540   4.769   9.560 -0.2627 -0.3485  0.8225
  723MOL0     C97520   6.662   4.773   9.622 -0.3741 -0.9830 -0.6490
  723MOL0     N97521   7.321   4.824  10.312 -0.0168 -1.1117  0.3796
  723MOL0     N97522   7.323   4.797  10.442  0.3707  0.0199  0.3588
  723MOL0     C97523   7.760   4.975  11.190 -0.6973  0.5689 -0.1226
  723MOL0     C97524   7.895   4.935  11.183 -1.2357 -0.3419  0.0672
  723MOL0     C97525   8.350   5.013  11.242 -0.6319  0.1385 -0.6299
  723MOL0     C97526   8.449   5.115  11.227 -0.2079 -0.0574  0.2730
  723MOL0     C97527   8.586   5.087  11.245 -0.1642  0.4015 -0.2515
  723MOL0     C97528   8.630   4.950  11.254 -0.4484 -0.0753 -0.3024
  723MOL0     O97529   8.760   4.929  11.254  0.2677 -0.4034 -0.2719
  723MOL0     C97530   8.810   4.801  11.217 -0.8249  0.8484 -0.2632
  723MOL0     C97531   8.957   4.811  11.220  0.3739  0.6625 -0.2316
  723MOL0     C97532   9.009   4.786  11.364 -0.0844  0.3118 -0.3610
  723MOL0     C97533   9.154   4.726  11.363 -0.1729 -0.6036  0.2430
  723MOL0     C97534   9.201   4.727  11.502  1.1157  0.9280  0.2182
  723MOL0     C97535   9.239   4.690  11.611  0.3314  0.3734  0.0593
  723MOL0     C97536   8.532   4.853  11.258 -1.1464  0.1325  0.4714
  723MOL0     C97537   8.401   4.883  11.261  0.8424  0.5683 -0.4375
  723MOL0     H97538   8.012   5.012  11.501  2.8147 -0.1983 -2.0591
  723MOL0     H97539   7.772   5.092  11.511 -0.9290 -1.7675 -0.1626
  723MOL0     H97540   7.424   5.184  11.244 -0.0214 -0.5786  0.6741
  723MOL0     H97541   7.546   5.151  11.129 -2.5878  3.6583  0.2239
  723MOL0     H97542   7.480   4.876  11.230 -1.4376 -2.3115 -2.1163
  723MOL0     H97543   7.331   4.965  11.261 -1.0259  0.2666 -1.3460
  723MOL0     H97544   7.336   5.055  11.031  2.5313  0.5074 -1.4181
  723MOL0     H97545   7.477   4.970  10.989  1.6628  0.0377  1.6379
  723MOL0     H97546   7.360   4.755  11.048 -0.1624  0.2070  2.3495
  723MOL0     H97547   7.211   4.844  11.080 -0.5149 -1.9595  0.1224
  723MOL0     H97548   7.246   4.957  10.855 -2.0874 -0.6328 -1.4102
  723MOL0     H97549   7.356   4.831  10.805 -2.1205 -0.9462 -2.8761
  723MOL0     H97550   7.168   4.653  10.871 -0.0164  0.6275 -0.7037
  723MOL0     H97551   7.060   4.780  10.903 -3.3419 -2.2665 -3.6827
  723MOL0     H97552   6.992   4.716  10.692  0.3666 -0.2180  0.5861
  723MOL0     H97553   7.084   4.868  10.662 -2.5820  0.2870 -1.5347
  723MOL0     H97554   7.128   4.578  10.583 -2.0152  1.6653 -2.0982
  723MOL0     H97555   7.264   4.646  10.663 -1.0341 -2.3958  0.7214
  723MOL0     H97556   7.022   4.698  10.366  1.0338 -0.9231  0.2557
  723MOL0     H97557   7.204   4.912  10.081  0.9472  0.7368  0.9096
  723MOL0     H97558   7.178   4.730  10.073 -4.0792 -1.5311  1.7222
  723MOL0     H97559   6.978   4.934  10.171 -4.9483 -1.0631 -1.0351
  723MOL0     H97560   6.961   4.768  10.186  0.3219  0.1969  0.3575
  723MOL0     H97561   7.001   4.733   9.935  0.0118  0.0184 -0.3267
  723MOL0     H97562   7.018   4.907   9.913 -2.5165  0.6159 -0.9672
  723MOL0     H97563   6.774   4.934   9.970  1.1105  0.9875 -1.7457
  723MOL0     H97564   6.757   4.764  10.015 -3.7534  0.8392 -2.1702
  723MOL0     H97565   6.553   4.779   9.947  0.8945 -0.5985  0.1023
  723MOL0     H97566   6.242   4.678   9.858  0.7943 -1.9277  2.0740
  723MOL0     H97567   6.356   4.722   9.975 -1.1427  0.7781 -0.5273
  723MOL0     H97568   6.266   4.844   9.885 -2.0052  0.0666 -0.9064
  723MOL0     H97569   6.125   4.561   9.440 -0.1573  0.9802 -1.6446
  723MOL0     H97570   5.939   4.523   9.313  1.8153  0.3704  1.4475
  723MOL0     H97571   5.561   4.650   9.430 -0.5155  0.0656  0.6717
  723MOL0     H97572   5.601   4.822   9.402 -0.2831 -1.6429  3.0818
  723MOL0     H97573   5.502   4.651   9.181  0.3030  0.3790  1.0300
  723MOL0     H97574   5.380   4.722   9.290 -1.0013  0.2554 -1.5498
  723MOL0     H97575   5.581   4.862   9.106  0.1328  2.9002  0.1082
  723MOL0     H97576   5.515   4.951   9.234 -1.0523  1.2417 -0.1828
  723MOL0     H97577   5.379   4.974   9.007 -1.0009 -0.0759 -1.7907
  723MOL0     H97578   5.372   4.804   8.993 -1.6918  0.5098  0.2914
  723MOL0     H97579   5.244   4.971   9.209 -2.2206  0.6671 -0.9277
  723MOL0     H97580   5.189   4.806   9.174 -1.6149 -0.0944 -1.3905
  723MOL0     H97581   5.182   5.036   8.975 -2.3785  1.2549 -0.2848
  723MOL0     H97582   5.103   4.874   8.955 -1.3648  0.7961 -0.7242
  723MOL0     H97583   5.048   5.100   9.164 -0.7130  1.9814 -0.6289
  723MOL0     H97584   4.984   4.938   9.181 -0.2900 -0.8528 -0.7313
  723MOL0     H97585   4.878   4.950   8.957  0.8603  1.1163 -1.3109
  723MOL0     H97586   4.928   5.119   8.940  3.2173 -0.3951 -0.1490
  723MOL0     H97587   5.765   4.882   9.493 -1.0657 -0.7532 -3.7801
  723MOL0     H97588   5.965   4.898   9.642 -0.7497 -0.5476  1.1293
  723MOL0     H97589   6.541   4.755   9.453  0.9697  1.4511  0.5521
  723MOL0     H97590   6.751   4.799   9.566 -1.5454  1.3146 -1.5955
  723MOL0     H97591   7.703   4.956  11.100  2.1691 -2.1574 -1.5573
  723MOL0     H97592   7.940   4.913  11.086  1.6041 -0.4043  1.3045
  723MOL0     H97593   8.421   5.219  11.216  1.0773  0.2892  0.1110
  723MOL0     H97594   8.647   5.176  11.244  1.3226 -0.5497 -2.4392
  723MOL0     H97595   8.763   4.728  11.284 -1.7305  0.7543 -0.9821
  723MOL0     H97596   8.784   4.781  11.113  1.5358 -0.8517 -0.5909
  723MOL0     H97597   8.980   4.915  11.194  0.0921  0.3227 -1.9948
  723MOL0     H97598   9.007   4.745  11.148  1.7087  2.4134 -0.9996
  723MOL0     H97599   8.942   4.716  11.415 -1.4771  2.0762  0.3517
  723MOL0     H97600   8.999   4.882  11.416  1.7662  0.1733  0.3128
  723MOL0     H97601   9.218   4.796  11.309  0.2944 -2.2701 -1.4379
  723MOL0     H97602   9.158   4.627  11.318  0.8697  0.2738 -1.7479
  723MOL0     H97603   9.283   4.655  11.702  2.8784  0.0354 -1.2159
  723MOL0     H97604   8.551   4.747  11.277  2.5539  0.6527  0.2893
  723MOL0     H97605   8.341   4.797  11.290  1.8833  0.3850  1.3465
  724MOL0     O97606   2.570   4.486   2.062 -0.3818 -0.1973 -0.0345
  724MOL0     C97607   2.560   4.485   2.187  0.2381 -0.1686  0.0477
  724MOL0     O97608   2.446   4.467   2.262  0.7587  0.2149 -0.0700
  724MOL0     C97609   2.324   4.452   2.201 -0.9138 -0.7621 -0.2068
  724MOL0     C97610   2.221   4.520   2.273  0.2108  0.4685  0.2084
  724MOL0     C97611   2.088   4.506   2.227 -0.9353  0.1926  0.2007
  724MOL0     C97612   2.066   4.431   2.103  0.4093  0.0424  0.3127
  724MOL0     O97613   1.940   4.407   2.044 -1.1188  0.2427 -0.2322
  724MOL0     C97614   1.834   4.502   2.069  0.4162 -0.1436  0.2366
  724MOL0     C97615   1.727   4.435   2.153  0.4352  0.4373  0.1812
  724MOL0     C97616   1.596   4.513   2.160 -0.0146  0.2315  0.1936
  724MOL0     C97617   1.480   4.414   2.167  0.1370  0.2800 -0.1850
  724MOL0     C97618   1.344   4.487   2.136  0.0160  0.0221  0.0471
  724MOL0     C97619   1.231   4.384   2.164 -0.3059  1.0050 -0.4943
  724MOL0     C97620   1.094   4.447   2.155  0.8317 -0.1120  0.7118
  724MOL0     C97621   0.981   4.342   2.172 -0.3741  0.5075 -0.0430
  724MOL0     N97622   0.849   4.414   2.170 -0.1029  0.1376 -0.2254
  724MOL0     C97623   0.789   4.457   2.281  0.0455  0.2521 -0.6526
  724MOL0     C97624   0.678   4.523   2.239 -0.7632 -0.2293 -0.8880
  724MOL0     C97625   0.593   4.592   2.354 -1.1799  0.5183  0.9950
  724MOL0     C97626   0.449   4.606   2.310  0.8917  0.2019 -0.5998
  724MOL0     C97627   0.360   4.662   2.428 -0.4028 -0.1501 -0.2773
  724MOL0     C97628   0.215   4.602   2.409 -0.2353  0.1701 -0.0427
  724MOL0     O97629   0.144   4.656   2.294 -0.3731  0.3948 -0.5560
  724MOL0     C97630   0.011   4.629   2.285 -0.0439  0.0215  0.0024
  724MOL0     C97631  -0.053   4.517   2.333  0.7068 -0.1906 -0.3921
  724MOL0     C97632  -0.194   4.506   2.317  0.3901 -1.1406  0.3544
  724MOL0     C97633  -0.265   4.396   2.391  0.0472  0.5063 -0.6263
  724MOL0     C97634  -0.259   4.594   2.228  0.8233  0.1552 -0.1013
  724MOL0     C97635  -0.408   4.595   2.196  0.1684 -0.0284  0.8978
  724MOL0     O97636  -0.469   4.706   2.147  0.4372  0.4284 -0.5538
  724MOL0     C97637  -0.603   4.705   2.116  0.9526  0.3566 -0.5188
  724MOL0     C97638  -0.653   4.777   2.007 -0.2448 -0.7736 -0.6878
  724MOL0     C97639  -0.789   4.791   1.975  0.2288 -0.4828 -0.0413
  724MOL0     C97640  -0.884   4.718   2.049 -0.1751 -1.3850 -0.6677
  724MOL0     O97641  -1.020   4.730   2.020  0.5458  0.1448 -0.3563
  724MOL0     C97642  -1.067   4.865   2.050  0.1485  1.0373  0.4121
  724MOL0     C97643  -1.172   4.859   2.164 -0.6995 -0.3647  0.2553
  724MOL0     C97644  -1.212   5.008   2.201 -0.1693 -0.2585  0.5129
  724MOL0     C97645  -1.343   5.016   2.289 -0.7823 -0.9735 -0.5419
  724MOL0     C97646  -1.473   5.038   2.212  0.4671  0.6330  0.0493
  724MOL0     C97647  -1.599   4.998   2.290 -0.7793  0.1649 -0.2964
  724MOL0     C97648  -1.721   5.075   2.246 -0.1294  0.2253 -0.0375
  724MOL0     C97649  -1.728   5.216   2.309  0.2868  0.4551  0.1912
  724MOL0    Cl97650  -1.890   5.281   2.277 -0.0176 -0.2822 -0.1115
  724MOL0     C97651  -0.844   4.644   2.165  0.9926 -0.0121 -0.2493
  724MOL0     C97652  -0.707   4.644   2.197  0.5694  0.0146  0.6902
  724MOL0     O97653  -0.457   4.482   2.185  0.3605 -0.2937 -0.6260
  724MOL0     C97654  -0.186   4.704   2.183  0.2043 -0.1843  0.0424
  724MOL0     C97655  -0.055   4.721   2.213 -0.6713 -1.0442 -0.0118
  724MOL0     N97656   0.674   4.508   2.102  0.4053 -0.1850 -0.1485
  724MOL0     N97657   0.783   4.447   2.058  0.3611  0.1375 -0.5898
  724MOL0     C97658   2.173   4.372   2.046 -1.0396  0.3194 -0.6225
  724MOL0     C97659   2.303   4.375   2.090 -0.1720  0.6313 -0.7393
  724MOL0     C97660   2.682   4.497   2.264 -0.9531  0.1032 -0.6093
  724MOL0     C97661   2.668   4.512   2.402 -0.3180 -1.1067 -0.0958
  724MOL0     C97662   2.781   4.513   2.484  0.0751  0.8175 -0.6046
  724MOL0     C97663   2.908   4.483   2.427 -0.5033 -0.1738 -0.6412
  724MOL0     O97664   3.017   4.474   2.513  0.2209  0.5087  0.2507
  724MOL0     C97665   3.147   4.433   2.469 -0.3281 -0.4019  0.0240
  724MOL0     C97666   3.164   4.279   2.492  0.0023  0.2310  0.6490
  724MOL0     C97667   3.286   4.195   2.440  0.1302 -1.4074 -0.4232
  724MOL0     C97668   3.408   4.290   2.442  0.4967 -0.7288 -0.9349
  724MOL0     C97669   3.533   4.221   2.387  0.5327  0.2473 -1.1340
  724MOL0     C97670   3.633   4.157   2.356  0.7154  0.2940  0.0074
  724MOL0     C97671   2.918   4.463   2.291  0.5834  0.2420  0.5127
  724MOL0     C97672   2.808   4.484   2.204 -0.7904 -0.6102  0.5863
  724MOL0     H97673   2.248   4.588   2.353  0.5826  2.7014 -1.6777
  724MOL0     H97674   1.999   4.551   2.268 -1.3041 -0.8587  0.6049
  724MOL0     H97675   1.860   4.597   2.116  1.5219 -0.8933  1.2003
  724MOL0     H97676   1.799   4.529   1.969  1.1501 -0.6334 -0.1609
  724MOL0     H97677   1.706   4.335   2.114  1.0797  0.5793 -0.5741
  724MOL0     H97678   1.762   4.426   2.256  1.3793  0.0313 -0.1618
  724MOL0     H97679   1.601   4.588   2.239 -1.0671  0.9742 -0.4380
  724MOL0     H97680   1.581   4.573   2.070  0.4095 -0.4180 -0.3286
  724MOL0     H97681   1.492   4.329   2.098 -1.2857 -0.1698  0.1018
  724MOL0     H97682   1.471   4.368   2.265  2.2024  0.1533 -0.0126
  724MOL0     H97683   1.327   4.571   2.205 -0.7266 -0.7482  0.8246
  724MOL0     H97684   1.343   4.521   2.032  0.9588  0.2848  0.1187
  724MOL0     H97685   1.233   4.312   2.081 -1.7668 -1.6821  1.6535
  724MOL0     H97686   1.249   4.331   2.258  1.2782  2.3027 -0.0252
  724MOL0     H97687   1.085   4.529   2.227  0.0815  1.4260 -1.0387
  724MOL0     H97688   1.082   4.477   2.050 -1.6203 -0.4904  0.8288
  724MOL0     H97689   0.995   4.292   2.269  2.7930  2.1694  0.5073
  724MOL0     H97690   0.980   4.269   2.090 -1.8920  1.4309 -0.8900
  724MOL0     H97691   0.808   4.444   2.387 -3.6086 -5.2605 -0.2626
  724MOL0     H97692   0.612   4.536   2.446  2.8735  1.9540  1.2491
  724MOL0     H97693   0.625   4.696   2.365 -1.5789  0.6331  1.0758
  724MOL0     H97694   0.416   4.506   2.283  0.7724  0.2683 -0.6977
  724MOL0     H97695   0.451   4.676   2.226  0.4759  1.3409  0.3025
  724MOL0     H97696   0.363   4.771   2.435  1.1581 -0.2493  1.5571
  724MOL0     H97697   0.385   4.618   2.525  0.0507  1.4190  0.3404
  724MOL0     H97698   0.154   4.620   2.498 -1.6301 -0.0820 -0.9140
  724MOL0     H97699   0.224   4.493   2.408  1.6672  0.0889  4.2539
  724MOL0     H97700  -0.003   4.449   2.401 -1.1043 -1.0484  0.1334
  724MOL0     H97701  -0.365   4.424   2.424  0.8058 -0.2317  2.6083
  724MOL0     H97702  -0.265   4.310   2.324  3.2480  1.8818 -2.6326
  724MOL0     H97703  -0.215   4.379   2.487 -0.8721 -1.0294 -0.3948
  724MOL0     H97704  -0.573   4.815   1.945  0.6521  1.6605  1.7450
  724MOL0     H97705  -0.834   4.855   1.901 -2.7191 -1.3530  0.8846
  724MOL0     H97706  -0.990   4.934   2.087  0.5476  0.5193  0.5578
  724MOL0     H97707  -1.115   4.897   1.957 -0.5305 -2.1872 -0.4623
  724MOL0     H97708  -1.258   4.796   2.139  0.8887 -2.8906  0.7415
  724MOL0     H97709  -1.121   4.812   2.249  1.8998  2.3498  0.3475
  724MOL0     H97710  -1.234   5.068   2.112  3.3149  1.9827  0.9793
  724MOL0     H97711  -1.135   5.052   2.265 -0.9799  0.2575  1.1404
  724MOL0     H97712  -1.352   4.927   2.352 -0.5723  0.2203  1.2563
  724MOL0     H97713  -1.340   5.088   2.371  2.2347 -1.6074  0.0553
  724MOL0     H97714  -1.470   4.986   2.116 -0.9240  2.7113 -1.1844
  724MOL0     H97715  -1.475   5.147   2.207  2.0196  0.7972  1.9039
  724MOL0     H97716  -1.612   4.890   2.275 -1.1816  0.0752  0.6157
  724MOL0     H97717  -1.577   5.020   2.395 -0.1531  2.8202 -0.9063
  724MOL0     H97718  -1.804   5.018   2.290 -1.0137 -1.4468 -3.4711
  724MOL0     H97719  -1.733   5.084   2.137  1.1557 -0.6058 -0.2633
  724MOL0     H97720  -1.653   5.283   2.266  0.3613  0.1807 -0.1069
  724MOL0     H97721  -1.708   5.207   2.416 -1.6121 -0.1081  0.5315
  724MOL0     H97722  -0.911   4.587   2.228  3.7787 -1.1148  1.9402
  724MOL0     H97723  -0.675   4.582   2.280 -0.1786 -2.0967 -0.5253
  724MOL0     H97724  -0.238   4.791   2.143 -1.8908 -1.6631 -0.5946
  724MOL0     H97725  -0.011   4.819   2.194 -3.3189  1.4440  4.6521
  724MOL0     H97726   2.142   4.323   1.954 -1.6164 -2.9884  1.1856
  724MOL0     H97727   2.369   4.310   2.032 -1.6015  1.6232 -3.7076
  724MOL0     H97728   2.578   4.517   2.462  0.0700 -2.2404  0.6253
  724MOL0     H97729   2.774   4.533   2.591  1.0244  1.2506 -0.6088
  724MOL0     H97730   3.169   4.460   2.366 -1.7312  0.4637 -0.0709
  724MOL0     H97731   3.225   4.480   2.531  1.8701 -1.1885 -1.9698
  724MOL0     H97732   3.079   4.223   2.449 -0.1774 -0.5851  2.0146
  724MOL0     H97733   3.158   4.270   2.600  1.0956  1.9043  0.8675
  724MOL0     H97734   3.274   4.160   2.337  0.7721 -1.4240 -0.4939
  724MOL0     H97735   3.303   4.115   2.513  0.0701 -1.4390 -0.4440
  724MOL0     H97736   3.424   4.320   2.546  0.5779 -1.6658 -0.6717
  724MOL0     H97737   3.401   4.377   2.375  1.8353  0.4486  0.3709
  724MOL0     H97738   3.722   4.104   2.330 -0.0158 -0.2360 -1.5749
  724MOL0     H97739   3.011   4.457   2.236  0.9462  0.7497  1.0588
  724MOL0     H97740   2.816   4.477   2.096  0.9227  0.5355  0.6049
  725MOL0     O97741   7.019  10.325   5.902 -0.2359 -0.3970  0.0120
  725MOL0     C97742   7.017  10.288   5.784 -0.5835 -0.1938  0.5732
  725MOL0     O97743   6.916  10.310   5.698 -0.2811 -0.3412 -0.1910
  725MOL0     C97744   6.795  10.362   5.741  0.3226  0.2698 -0.2334
  725MOL0     C97745   6.725  10.460   5.664  0.3849  0.0901 -0.4059
  725MOL0     C97746   6.599  10.506   5.705  0.3229  0.9216 -0.0652
  725MOL0     C97747   6.539  10.461   5.826 -0.3347  0.1483 -0.0127
  725MOL0     O97748   6.418  10.512   5.864 -0.0948 -0.8832 -0.1978
  725MOL0     C97749   6.398  10.554   5.998 -0.7117  0.3408  0.3213
  725MOL0     C97750   6.254  10.589   6.018  0.4213  0.0975  0.4996
  725MOL0     C97751   6.173  10.466   6.064  1.5512 -0.1259  0.7275
  725MOL0     C97752   6.033  10.514   6.116  0.5421  0.8962 -0.3649
  725MOL0     C97753   5.951  10.393   6.151 -0.8077 -0.1955  0.1943
  725MOL0     C97754   5.810  10.425   6.194  0.4269 -0.4654 -0.1511
  725MOL0     C97755   5.722  10.478   6.081  0.8552 -0.4358 -0.4225
  725MOL0     C97756   5.696  10.390   5.969  1.2959  0.7971 -0.0169
  725MOL0     N97757   5.591  10.452   5.882 -0.4803  0.3871  0.6444
  725MOL0     C97758   5.460  10.464   5.907 -0.1191  0.8224 -0.5593
  725MOL0     C97759   5.403  10.520   5.797 -0.0749 -0.1352  0.1703
  725MOL0     C97760   5.256  10.556   5.786 -0.6668  0.1335  0.4275
  725MOL0     C97761   5.190  10.442   5.701  0.0262 -0.1390 -0.8432
  725MOL0     C97762   5.042  10.467   5.685 -0.3149 -0.1103 -0.1948
  725MOL0     C97763   4.983  10.346   5.607  0.3411 -0.8024 -0.0981
  725MOL0     O97764   4.864  10.302   5.657  0.3893  0.6414 -0.3463
  725MOL0     C97765   4.758  10.388   5.651  0.0263 -0.9695 -0.5817
  725MOL0     C97766   4.649  10.356   5.737 -0.0874 -0.3660  0.9597
  725MOL0     C97767   4.541  10.444   5.740  0.1876 -0.6426 -0.3036
  725MOL0     C97768   4.429  10.395   5.830 -0.8503 -0.6560  0.4138
  725MOL0     C97769   4.535  10.563   5.660  0.1767 -0.5026 -0.0432
  725MOL0     C97770   4.417  10.662   5.657  0.1688 -0.1941  1.0511
  725MOL0     O97771   4.416  10.752   5.546  0.2918 -0.3492 -0.3137
  725MOL0     C97772   4.306  10.834   5.538  1.3124 -0.5119 -0.8338
  725MOL0     C97773   4.226  10.823   5.421 -0.2940  0.6356 -0.3274
  725MOL0     C97774   4.118  10.913   5.406 -0.2519 -0.3171  0.9686
  725MOL0     C97775   4.089  11.015   5.497  0.3818  0.2516 -0.3308
  725MOL0     O97776   3.991  11.111   5.487  0.1380  0.3758 -0.5239
  725MOL0     C97777   3.929  11.139   5.357  1.0779 -0.2902 -0.5249
  725MOL0     C97778   3.792  11.067   5.346 -0.3775 -0.8962 -0.2708
  725MOL0     C97779   3.690  11.114   5.451 -0.8501  0.2821  0.0779
  725MOL0     C97780   3.545  11.093   5.404 -0.5539 -0.3661  0.4949
  725MOL0     C97781   3.505  10.944   5.400  0.4201 -0.5080 -0.1757
  725MOL0     C97782   3.347  10.926   5.390 -0.7811 -0.0040 -0.2206
  725MOL0     C97783   3.308  10.781   5.410  0.1516  0.1532  0.2250
  725MOL0     C97784   3.157  10.762   5.416  1.0668 -0.3466 -0.5425
  725MOL0    Cl97785   3.074  10.818   5.260  0.6173  0.0667  0.1380
  725MOL0     C97786   4.169  11.019   5.614  0.2201 -0.0404 -0.1308
  725MOL0     C97787   4.284  10.939   5.630  0.6371 -0.7594  0.2245
  725MOL0     O97788   4.323  10.646   5.734 -0.1677  0.0677 -0.0719
  725MOL0     C97789   4.650  10.599   5.580 -0.0857 -0.0978  0.0265
  725MOL0     C97790   4.753  10.509   5.570 -0.0278  0.0689 -0.7477
  725MOL0     N97791   5.505  10.542   5.707 -0.6858 -0.2856  0.0424
  725MOL0     N97792   5.616  10.496   5.754  0.4223  0.2795  0.7281
  725MOL0     C97793   6.608  10.365   5.904  0.5381  0.0547  1.0012
  725MOL0     C97794   6.731  10.324   5.861 -0.5142  0.2579  0.2816
  725MOL0     C97795   7.150  10.233   5.746  0.1786  0.3605 -0.2531
  725MOL0     C97796   7.272  10.252   5.823  0.7077 -0.2370  0.6428
  725MOL0     C97797   7.393  10.195   5.778 -0.2352 -0.0243  0.5209
  725MOL0     C97798   7.400  10.117   5.666  0.1082  0.0668  0.5686
  725MOL0     O97799   7.519  10.048   5.649  0.2689  0.2317 -0.0332
  725MOL0     C97800   7.504   9.929   5.567  0.3130  0.3497 -0.2614
  725MOL0     C97801   7.545   9.952   5.423 -0.7594 -0.5835 -0.2172
  725MOL0     C97802   7.698   9.991   5.425 -0.3777 -0.1609 -0.0945
  725MOL0     C97803   7.782   9.867   5.449 -0.3233  0.1190  0.2700
  725MOL0     C97804   7.911   9.888   5.385  0.3203  0.0068  0.1511
  725MOL0     C97805   8.015   9.902   5.327  0.0665  0.3948  0.0612
  725MOL0     C97806   7.281  10.096   5.584 -0.5312  0.0055 -0.2490
  725MOL0     C97807   7.160  10.151   5.631 -0.4815  0.0188 -0.1976
  725MOL0     H97808   6.758  10.510   5.574 -1.2540 -0.6475 -1.4515
  725MOL0     H97809   6.540  10.582   5.654 -0.0074  0.0627 -1.0213
  725MOL0     H97810   6.426  10.470   6.063  0.6112  0.7381  0.2940
  725MOL0     H97811   6.463  10.639   6.018  0.0334  0.1107 -1.0234
  725MOL0     H97812   6.250  10.670   6.092  0.4684  2.5678 -2.0596
  725MOL0     H97813   6.216  10.635   5.927 -1.2141  0.7910  1.4983
  725MOL0     H97814   6.150  10.406   5.976 -0.9192  0.5497  0.8252
  725MOL0     H97815   6.228  10.414   6.143  1.2018 -0.9862  0.4111
  725MOL0     H97816   6.041  10.575   6.207  1.4375  1.2523 -0.6671
  725MOL0     H97817   5.974  10.568   6.042 -1.6357  0.3856  0.9176
  725MOL0     H97818   5.949  10.324   6.066  0.9329  2.5306 -2.2348
  725MOL0     H97819   6.001  10.343   6.235 -0.1380  0.7128  0.3504
  725MOL0     H97820   5.771  10.329   6.226 -0.3484  0.3792  1.5277
  725MOL0     H97821   5.801  10.498   6.275  1.3490 -1.0131  0.4644
  725MOL0     H97822   5.620  10.487   6.121  0.7435 -0.6229 -0.6636
  725MOL0     H97823   5.751  10.582   6.061 -0.7550  0.8060  2.8970
  725MOL0     H97824   5.666  10.290   6.003  3.9937 -0.1653 -0.2372
  725MOL0     H97825   5.787  10.368   5.913  0.5150  0.9439 -1.3871
  725MOL0     H97826   5.402  10.424   5.989  1.9982  0.7307  0.9656
  725MOL0     H97827   5.203  10.555   5.882 -1.6816 -3.6709 -0.0111
  725MOL0     H97828   5.250  10.652   5.733  0.8261 -0.2626 -0.5298
  725MOL0     H97829   5.213  10.352   5.758 -0.9151  1.0051  1.4829
  725MOL0     H97830   5.225  10.431   5.598 -0.1702  2.1248 -1.2215
  725MOL0     H97831   5.022  10.563   5.638  0.2577 -0.6575 -1.6095
  725MOL0     H97832   4.994  10.480   5.782  1.2838 -2.3835  1.0145
  725MOL0     H97833   5.049  10.259   5.618 -0.4045 -1.4200 -0.3537
  725MOL0     H97834   4.988  10.374   5.501 -0.1447  1.1075  0.3458
  725MOL0     H97835   4.655  10.255   5.777  2.0478 -0.0863  1.4852
  725MOL0     H97836   4.398  10.479   5.893 -1.4840 -0.9688  0.5288
  725MOL0     H97837   4.343  10.366   5.769 -1.1349 -1.9538  1.3982
  725MOL0     H97838   4.469  10.321   5.900  1.2434  1.2147  1.3164
  725MOL0     H97839   4.246  10.754   5.340 -1.3100  0.6163 -0.5726
  725MOL0     H97840   4.063  10.903   5.313  1.7168  0.5653 -0.3464
  725MOL0     H97841   3.932  11.248   5.349 -1.3751 -0.2724 -2.2510
  725MOL0     H97842   3.989  11.106   5.272 -0.5392  0.0268 -1.8440
  725MOL0     H97843   3.739  11.075   5.250 -0.4066  0.6181 -0.1610
  725MOL0     H97844   3.810  10.960   5.360 -0.9161 -1.4730 -3.3053
  725MOL0     H97845   3.714  11.217   5.478  0.2252  0.1767 -0.4309
  725MOL0     H97846   3.713  11.054   5.539 -1.4945  0.0808  0.1149
  725MOL0     H97847   3.491  11.127   5.493 -0.9708  2.4071 -0.7258
  725MOL0     H97848   3.525  11.149   5.313 -0.5539 -0.3760  0.4882
  725MOL0     H97849   3.539  10.891   5.489  2.1475 -0.1310 -0.5695
  725MOL0     H97850   3.558  10.895   5.318 -0.0981 -0.1784 -0.7144
  725MOL0     H97851   3.301  10.990   5.466 -1.5834 -0.9181  0.0887
  725MOL0     H97852   3.308  10.947   5.290 -2.7077 -2.7217 -0.1681
  725MOL0     H97853   3.353  10.749   5.505 -0.5965 -0.8800  0.2475
  725MOL0     H97854   3.351  10.716   5.334 -2.6592 -0.2380 -1.1675
  725MOL0     H97855   3.117  10.805   5.509  0.3279 -1.2833 -0.4126
  725MOL0     H97856   3.132  10.655   5.412 -1.4743  0.2316 -2.2849
  725MOL0     H97857   4.147  11.099   5.683  2.4484 -0.6470  1.3806
  725MOL0     H97858   4.346  10.962   5.716  1.1292  1.9618 -0.7631
  725MOL0     H97859   4.655  10.690   5.522 -2.9257  1.4377  1.9721
  725MOL0     H97860   4.836  10.544   5.509 -0.0007  1.2160 -0.0807
  725MOL0     H97861   6.557  10.331   5.994 -0.7047  1.3837  0.8354
  725MOL0     H97862   6.783  10.261   5.932 -0.7819 -0.2304  0.0474
  725MOL0     H97863   7.285  10.322   5.904  3.6538  1.6303 -1.2458
  725MOL0     H97864   7.475  10.203   5.849 -1.3167  2.8783  1.6230
  725MOL0     H97865   7.576   9.856   5.605  0.1589 -0.2512 -1.1084
  725MOL0     H97866   7.405   9.883   5.577  0.5136  0.0480  0.4128
  725MOL0     H97867   7.486  10.034   5.380  1.4019  1.3763  0.3347
  725MOL0     H97868   7.528   9.863   5.362 -1.2393  0.0063 -0.9599
  725MOL0     H97869   7.722  10.076   5.489  1.0130 -1.6736  1.4992
  725MOL0     H97870   7.728  10.020   5.324  1.3244 -1.5468 -0.0242
  725MOL0     H97871   7.730   9.775   5.421  0.5481 -0.2636 -0.1287
  725MOL0     H97872   7.802   9.851   5.556 -0.7153 -2.2603  0.0424
  725MOL0     H97873   8.102   9.914   5.265  1.5035  1.4340  2.1703
  725MOL0     H97874   7.280  10.042   5.490  0.0804 -1.3502  0.4924
  725MOL0     H97875   7.073  10.140   5.567 -0.7904 -0.0008  0.2192
  726MOL0     O97876   5.337   2.276   4.168 -0.0639 -0.2662 -0.6817
  726MOL0     C97877   5.397   2.242   4.268  0.7781  0.1122  1.4123
  726MOL0     O97878   5.343   2.236   4.395 -0.1547 -0.3947 -0.1766
  726MOL0     C97879   5.209   2.266   4.414  0.3236 -1.0061 -0.5685
  726MOL0     C97880   5.156   2.395   4.403  0.2041 -1.0015  1.0148
  726MOL0     C97881   5.021   2.410   4.429  0.1999 -0.4788 -0.5319
  726MOL0     C97882   4.938   2.306   4.457  0.3930 -0.4085 -0.3576
  726MOL0     O97883   4.802   2.319   4.449  0.1423 -0.2501 -0.9361
  726MOL0     C97884   4.720   2.205   4.427  0.5638  0.9942 -0.5975
  726MOL0     C97885   4.577   2.247   4.395 -1.0527 -0.3323  0.0587
  726MOL0     C97886   4.476   2.136   4.342  0.0720  0.0665 -0.1482
  726MOL0     C97887   4.536   2.004   4.306  0.4989 -0.7310 -0.4100
  726MOL0     C97888   4.429   1.908   4.244  0.2889  0.2876  0.3016
  726MOL0     C97889   4.377   1.933   4.109 -0.8647 -0.3832  0.4407
  726MOL0     C97890   4.312   1.809   4.049  0.7378  0.2205 -1.1760
  726MOL0     C97891   4.241   1.841   3.919  0.3175  0.6092  0.0778
  726MOL0     N97892   4.106   1.894   3.953  0.7199  0.5458 -0.5360
  726MOL0     C97893   4.014   1.843   4.045 -0.5754  0.2858 -0.3853
  726MOL0     C97894   3.910   1.926   4.040 -0.2683 -0.4707  0.3517
  726MOL0     C97895   3.787   1.943   4.127 -0.0461 -0.0597 -0.9449
  726MOL0     C97896   3.658   1.921   4.050 -0.1106 -0.2079  0.3395
  726MOL0     C97897   3.542   1.967   4.140  0.7054  0.6617 -0.8679
  726MOL0     C97898   3.402   1.912   4.098 -0.0983  0.2668  0.6321
  726MOL0     O97899   3.387   1.923   3.951 -0.0085  0.7971  0.4184
  726MOL0     C97900   3.280   1.849   3.902 -0.2799  0.1679  0.0317
  726MOL0     C97901   3.288   1.797   3.772 -0.1260 -0.3539 -0.2602
  726MOL0     C97902   3.178   1.737   3.713 -0.0488  1.4603  0.3172
  726MOL0     C97903   3.187   1.708   3.565 -0.0955  0.2391  0.5863
  726MOL0     C97904   3.052   1.714   3.778  0.2075  0.0912 -0.4686
  726MOL0     C97905   2.937   1.642   3.719  0.4144  0.7909  0.4978
  726MOL0     O97906   2.824   1.608   3.808 -0.1032  0.0365  0.1816
  726MOL0     C97907   2.701   1.575   3.764  0.3762  0.3730 -0.2878
  726MOL0     C97908   2.640   1.615   3.641  0.3374  0.1994 -0.5480
  726MOL0     C97909   2.508   1.586   3.602 -0.3157  0.2885  0.8046
  726MOL0     C97910   2.433   1.495   3.672  0.6507 -0.3414 -1.2309
  726MOL0     O97911   2.302   1.457   3.644  0.1585 -0.3252  0.2979
  726MOL0     C97912   2.245   1.506   3.521  0.1200 -0.0946 -1.4712
  726MOL0     C97913   2.099   1.450   3.526 -0.9461 -0.1860 -0.1789
  726MOL0     C97914   2.012   1.485   3.401  0.5764 -0.2176 -0.0775
  726MOL0     C97915   1.887   1.396   3.376 -0.5934 -0.2984 -0.2782
  726MOL0     C97916   1.845   1.413   3.236  0.5600  0.4000  0.5036
  726MOL0     C97917   1.727   1.314   3.207  0.2539 -1.2833 -0.6782
  726MOL0     C97918   1.648   1.347   3.079 -0.4760 -0.1889  0.1780
  726MOL0     C97919   1.583   1.220   3.008 -0.6867 -0.0680 -0.6897
  726MOL0    Cl97920   1.427   1.189   3.088  0.0683 -0.3312 -0.1316
  726MOL0     C97921   2.495   1.443   3.796  0.1733 -0.5298 -0.5889
  726MOL0     C97922   2.619   1.491   3.841 -0.6683 -0.6039  0.8969
  726MOL0     O97923   2.936   1.620   3.599 -0.0201  0.0797  0.0743
  726MOL0     C97924   3.048   1.758   3.906  1.2195 -0.3705 -1.0018
  726MOL0     C97925   3.159   1.824   3.973  0.0268 -0.0583  0.1723
  726MOL0     N97926   3.934   2.028   3.948  0.1189  0.3978 -0.7835
  726MOL0     N97927   4.059   2.013   3.905 -0.8156 -0.0560 -0.0099
  726MOL0     C97928   4.989   2.179   4.481  0.4821 -0.5217  0.3390
  726MOL0     C97929   5.126   2.164   4.456  0.1166 -0.2117 -0.4090
  726MOL0     C97930   5.536   2.193   4.253 -0.8586 -0.5227 -0.1266
  726MOL0     C97931   5.606   2.141   4.359  0.1294  0.1780 -0.5589
  726MOL0     C97932   5.732   2.102   4.346  0.0774  1.2744 -1.5244
  726MOL0     C97933   5.795   2.095   4.219  0.4275 -0.0250 -1.2543
  726MOL0     O97934   5.925   2.043   4.216  0.6018 -0.2762 -0.6468
  726MOL0     C97935   6.013   2.056   4.108  0.5550  0.5846  0.7288
  726MOL0     C97936   6.157   2.019   4.146 -0.1487 -0.4114  0.4317
  726MOL0     C97937   6.175   1.882   4.204  0.9407 -0.5155 -0.2816
  726MOL0     C97938   6.173   1.766   4.097 -0.6440 -0.3278  0.4599
  726MOL0     C97939   6.241   1.643   4.131  0.1292  0.0008  0.2510
  726MOL0     C97940   6.305   1.539   4.164  0.3858 -0.1838 -0.1489
  726MOL0     C97941   5.732   2.142   4.110  0.0915 -0.9572  0.0751
  726MOL0     C97942   5.603   2.192   4.124 -0.3919  0.5514 -0.0562
  726MOL0     H97943   5.228   2.469   4.371  0.7059 -1.9084 -0.0319
  726MOL0     H97944   4.976   2.506   4.407 -0.2578 -0.6354 -0.2977
  726MOL0     H97945   4.761   2.139   4.349  1.6979 -2.8449  2.9001
  726MOL0     H97946   4.707   2.151   4.521  1.0785  0.1714 -0.9914
  726MOL0     H97947   4.529   2.297   4.480  1.4153  0.8382  0.8620
  726MOL0     H97948   4.585   2.329   4.323  1.2977 -0.0672  0.5307
  726MOL0     H97949   4.397   2.113   4.414 -2.2416 -1.8033 -3.0451
  726MOL0     H97950   4.425   2.166   4.250 -0.8608 -1.2195 -0.0690
  726MOL0     H97951   4.624   2.008   4.241  0.2490 -0.2284 -0.7136
  726MOL0     H97952   4.578   1.954   4.395  2.9700  0.6798 -0.6851
  726MOL0     H97953   4.485   1.813   4.243  1.1629  0.6958  2.6216
  726MOL0     H97954   4.348   1.884   4.314  1.7834 -1.0105  1.6952
  726MOL0     H97955   4.298   2.009   4.115 -0.2625  0.3310 -0.4445
  726MOL0     H97956   4.455   1.969   4.041 -1.7027  1.3228  0.3244
  726MOL0     H97957   4.391   1.735   4.029  1.7593  1.2058 -0.9006
  726MOL0     H97958   4.251   1.762   4.126  0.8200  1.7755 -0.1194
  726MOL0     H97959   4.215   1.751   3.863  0.2001  0.5736  0.1888
  726MOL0     H97960   4.300   1.913   3.861 -0.9800  2.0691  0.5158
  726MOL0     H97961   4.037   1.751   4.098  0.6489  0.2024 -1.0113
  726MOL0     H97962   3.796   1.870   4.208 -0.4037  1.5546  0.6157
  726MOL0     H97963   3.796   2.043   4.170  0.7530 -0.6321  0.2662
  726MOL0     H97964   3.654   1.813   4.034 -0.0278 -0.0602 -0.7777
  726MOL0     H97965   3.647   1.984   3.961  2.9115 -0.5745 -0.4030
  726MOL0     H97966   3.525   2.075   4.141 -1.6431  0.3543 -0.1111
  726MOL0     H97967   3.561   1.940   4.244 -1.5941  0.7702 -0.3607
  726MOL0     H97968   3.320   1.960   4.152  0.8604  1.2568  1.2576
  726MOL0     H97969   3.405   1.803   4.111  0.2153 -0.0656 -1.7576
  726MOL0     H97970   3.379   1.820   3.717 -0.0993  0.7596  0.2283
  726MOL0     H97971   3.095   1.744   3.516 -0.7058 -4.0042 -1.8948
  726MOL0     H97972   3.274   1.735   3.504 -0.5473 -3.9316 -2.2796
  726MOL0     H97973   3.168   1.604   3.540 -2.7581  0.5250  1.1119
  726MOL0     H97974   2.705   1.672   3.575 -0.0038  1.2785  0.0261
  726MOL0     H97975   2.476   1.628   3.508  1.8349 -0.8950 -0.5556
  726MOL0     H97976   2.236   1.615   3.518 -5.3178 -0.0804  1.7458
  726MOL0     H97977   2.307   1.472   3.438  1.8356  1.1426 -0.7602
  726MOL0     H97978   2.093   1.341   3.529  2.0208 -0.4609 -1.2220
  726MOL0     H97979   2.048   1.494   3.612 -0.1585  2.1737 -0.8390
  726MOL0     H97980   2.077   1.470   3.314  1.3223  3.2683 -0.2630
  726MOL0     H97981   1.982   1.590   3.413  3.3160  0.5947  0.3219
  726MOL0     H97982   1.912   1.295   3.408 -0.4930  0.3242  1.7949
  726MOL0     H97983   1.798   1.420   3.435 -1.1985 -0.9395 -0.9150
  726MOL0     H97984   1.931   1.400   3.170 -0.1627  0.3692 -0.4594
  726MOL0     H97985   1.821   1.517   3.211  1.4053  0.1422 -1.5049
  726MOL0     H97986   1.782   1.221   3.187  2.6915  0.3565 -2.1138
  726MOL0     H97987   1.654   1.297   3.286 -1.3458 -0.3307 -1.9004
  726MOL0     H97988   1.710   1.394   3.003 -1.8355 -0.1242 -0.9259
  726MOL0     H97989   1.573   1.414   3.122  1.3868  2.0623  0.1004
  726MOL0     H97990   1.643   1.129   3.023 -1.1646 -0.0572  1.6072
  726MOL0     H97991   1.568   1.237   2.901  1.2695 -0.3996 -1.0690
  726MOL0     H97992   2.432   1.371   3.847  1.2540 -0.4216  0.9737
  726MOL0     H97993   2.670   1.455   3.930 -1.3051 -0.7221  1.2217
  726MOL0     H97994   2.960   1.745   3.967  1.7828 -0.5996 -0.2236
  726MOL0     H97995   3.140   1.851   4.076 -1.9609 -0.2864 -0.0906
  726MOL0     H97996   4.925   2.095   4.507 -2.3984  1.1647 -0.7894
  726MOL0     H97997   5.168   2.065   4.469 -1.3023 -0.6850  0.9377
  726MOL0     H97998   5.546   2.126   4.448 -0.0360 -1.2178 -0.8807
  726MOL0     H97999   5.792   2.065   4.428 -3.1661  0.1111  0.5043
  726MOL0     H98000   5.979   1.997   4.023 -2.2553  0.0657  2.0767
  726MOL0     H98001   6.020   2.164   4.093  1.1486  0.6362  1.3189
  726MOL0     H98002   6.184   2.087   4.227  0.1159  0.8341 -0.6595
  726MOL0     H98003   6.229   2.044   4.067 -0.5817 -0.0127  0.1605
  726MOL0     H98004   6.103   1.853   4.281 -0.8991 -2.0134 -2.4533
  726MOL0     H98005   6.272   1.878   4.254  0.4722  0.6582  0.7707
  726MOL0     H98006   6.220   1.807   4.007 -0.6752 -0.1350  0.5317
  726MOL0     H98007   6.070   1.736   4.076 -0.3515 -1.0896  0.0677
  726MOL0     H98008   6.331   1.445   4.208  2.2383  0.1762 -0.4170
  726MOL0     H98009   5.782   2.134   4.013  0.3684 -0.9288  0.2138
  726MOL0     H98010   5.552   2.235   4.038 -1.0220 -0.8765 -0.4289
  727MOL0     O98011   3.077   3.951   5.729  0.4347  0.3838 -0.6628
  727MOL0     C98012   2.982   3.956   5.806 -0.1329 -0.5078  0.8173
  727MOL0     O98013   2.946   4.069   5.881 -0.5599  0.4951  0.1276
  727MOL0     C98014   3.035   4.184   5.894 -0.5804  0.3757  0.4017
  727MOL0     C98015   3.077   4.236   6.022 -0.3468  0.2314  0.2099
  727MOL0     C98016   3.151   4.357   6.027  0.8227 -0.4230 -0.5233
  727MOL0     C98017   3.193   4.423   5.909 -0.0197 -0.6672 -0.6559
  727MOL0     O98018   3.265   4.547   5.914  0.0410 -0.4018 -0.3565
  727MOL0     C98019   3.290   4.613   6.034 -0.0496 -0.8930  0.1156
  727MOL0     C98020   3.362   4.748   6.024 -0.0805  0.4136  0.4201
  727MOL0     C98021   3.375   4.817   6.162  0.2560  0.8956  0.5970
  727MOL0     C98022   3.496   4.774   6.238  0.2053  0.0835  0.1078
  727MOL0     C98023   3.512   4.833   6.374  0.4660 -0.0981 -0.0579
  727MOL0     C98024   3.526   4.987   6.378 -1.0317 -0.5903  0.5156
  727MOL0     C98025   3.503   5.046   6.518 -0.1072 -0.4361  0.1593
  727MOL0     C98026   3.470   5.195   6.518  0.2094  0.1292 -0.2704
  727MOL0     N98027   3.329   5.216   6.480  0.7421 -0.8597  0.0081
  727MOL0     C98028   3.283   5.228   6.351 -0.0847 -0.4705  0.0975
  727MOL0     C98029   3.150   5.239   6.352  0.0109  0.5259 -0.0770
  727MOL0     C98030   3.050   5.255   6.237 -0.1861  0.3843  0.0872
  727MOL0     C98031   2.948   5.134   6.241 -0.6365  0.9779 -0.7238
  727MOL0     C98032   3.029   5.006   6.209 -0.4715  0.4011  0.4870
  727MOL0     C98033   3.054   5.000   6.058  0.5977  0.2005  0.4375
  727MOL0     O98034   3.030   4.877   5.991 -0.4572 -0.1530 -0.3714
  727MOL0     C98035   2.919   4.841   5.934  0.4142 -0.4506  0.1715
  727MOL0     C98036   2.792   4.909   5.954 -1.1318  0.2251 -0.3789
  727MOL0     C98037   2.679   4.876   5.881  0.0960  0.0796  0.3364
  727MOL0     C98038   2.548   4.943   5.913 -0.1609 -0.0375 -0.3873
  727MOL0     C98039   2.690   4.759   5.803 -0.9699 -0.1018  0.2516
  727MOL0     C98040   2.582   4.695   5.723  0.4927  1.3427  0.7991
  727MOL0     O98041   2.586   4.556   5.697 -0.5302 -0.5628 -0.8852
  727MOL0     C98042   2.469   4.505   5.638  0.2199  0.3287  0.7499
  727MOL0     C98043   2.470   4.492   5.499  0.0344  0.0977  0.5420
  727MOL0     C98044   2.359   4.441   5.425  0.3620 -0.0696  0.3017
  727MOL0     C98045   2.247   4.385   5.496 -0.0062  0.3352 -0.8144
  727MOL0     O98046   2.141   4.322   5.440  0.1653 -0.3733 -0.0093
  727MOL0     C98047   2.126   4.312   5.298  0.6036 -0.4686  0.2673
  727MOL0     C98048   1.986   4.259   5.258  0.2281  0.3258  0.3045
  727MOL0     C98049   1.879   4.301   5.360  0.2125 -0.1474 -0.4097
  727MOL0     C98050   1.767   4.185   5.378 -0.1468  0.5993 -0.4601
  727MOL0     C98051   1.658   4.245   5.465  0.3956  1.1544  0.2855
  727MOL0     C98052   1.536   4.157   5.463  0.0365  0.0079 -0.1902
  727MOL0     C98053   1.426   4.199   5.566 -0.0961 -0.0806  0.2217
  727MOL0     C98054   1.316   4.091   5.597  0.3757 -0.1218 -0.2698
  727MOL0    Cl98055   1.241   4.015   5.454 -0.1568  0.1786 -0.0946
  727MOL0     C98056   2.249   4.410   5.640 -0.1875 -0.0913 -0.1168
  727MOL0     C98057   2.355   4.471   5.704  0.2932  0.2191 -0.7273
  727MOL0     O98058   2.487   4.764   5.690  0.1174 -0.1195  0.8132
  727MOL0     C98059   2.814   4.698   5.784 -0.8307 -0.2298  0.0729
  727MOL0     C98060   2.925   4.738   5.847  0.4639  0.6699  0.2084
  727MOL0     N98061   3.116   5.235   6.491 -0.4817  0.0074 -0.2724
  727MOL0     N98062   3.223   5.219   6.571 -0.1032  0.4757  0.4309
  727MOL0     C98063   3.163   4.362   5.785  0.4239 -0.0812 -0.2734
  727MOL0     C98064   3.076   4.248   5.778 -0.6027  0.1587 -0.4199
  727MOL0     C98065   2.901   3.834   5.814 -0.4329  0.0010  0.1284
  727MOL0     C98066   2.959   3.704   5.796  0.0863  0.0829 -0.5741
  727MOL0     C98067   2.880   3.591   5.810  0.1153  1.1351 -0.6458
  727MOL0     C98068   2.755   3.602   5.871 -0.7170 -0.0938 -0.0173
  727MOL0     O98069   2.668   3.498   5.904 -0.2504  0.0819 -0.6000
  727MOL0     C98070   2.656   3.377   5.825  0.3358 -0.0850 -0.3726
  727MOL0     C98071   2.529   3.390   5.732 -0.5842 -0.3359 -0.6730
  727MOL0     C98072   2.529   3.520   5.655 -0.8765 -0.2492  0.4227
  727MOL0     C98073   2.405   3.532   5.556 -0.8797 -0.1400 -0.2205
  727MOL0     C98074   2.434   3.482   5.422 -0.1271 -0.3273  0.2796
  727MOL0     C98075   2.477   3.446   5.312  0.2902  0.4923  0.1733
  727MOL0     C98076   2.700   3.730   5.883 -0.4369  0.2236  0.3234
  727MOL0     C98077   2.773   3.842   5.848 -0.2555 -0.4193  0.0350
  727MOL0     H98078   3.031   4.187   6.107 -1.6385 -2.1982 -1.7744
  727MOL0     H98079   3.163   4.398   6.126 -1.2970  0.4533 -0.5884
  727MOL0     H98080   3.191   4.632   6.077  0.9714  1.8889  1.4933
  727MOL0     H98081   3.353   4.549   6.097  0.7962 -0.7537 -0.5785
  727MOL0     H98082   3.456   4.732   5.971 -2.0432 -2.4500 -2.5369
  727MOL0     H98083   3.295   4.806   5.960 -2.4626 -0.4818  1.9562
  727MOL0     H98084   3.385   4.923   6.138  0.7971  0.1425 -3.2295
  727MOL0     H98085   3.280   4.794   6.211  0.6857  1.2252  1.6027
  727MOL0     H98086   3.494   4.665   6.241 -0.8374  0.1089  0.9284
  727MOL0     H98087   3.587   4.787   6.179  0.0725 -0.8961 -0.3377
  727MOL0     H98088   3.423   4.801   6.430 -0.7040 -1.9093 -2.7310
  727MOL0     H98089   3.596   4.780   6.421  0.0598 -1.1324 -0.4713
  727MOL0     H98090   3.631   5.006   6.351 -1.2051 -0.5131 -0.1356
  727MOL0     H98091   3.455   5.040   6.313 -1.2257 -2.6071 -1.0267
  727MOL0     H98092   3.417   4.990   6.557  0.4162 -0.9300  0.6197
  727MOL0     H98093   3.591   5.018   6.577 -0.0681 -1.5160 -0.3830
  727MOL0     H98094   3.550   5.246   6.463  0.4159 -0.0630 -0.1514
  727MOL0     H98095   3.487   5.222   6.622 -0.1726  1.1360 -0.4589
  727MOL0     H98096   3.337   5.228   6.257 -1.5124  1.3334 -0.7989
  727MOL0     H98097   2.998   5.351   6.242  2.7432  2.1166 -0.4671
  727MOL0     H98098   3.102   5.262   6.141 -3.2333  0.7520 -1.6999
  727MOL0     H98099   2.865   5.145   6.171 -1.8786 -2.6608 -0.0496
  727MOL0     H98100   2.902   5.128   6.340  0.5609  2.4678 -0.0253
  727MOL0     H98101   2.971   4.915   6.227 -1.4860  0.4347 -2.1751
  727MOL0     H98102   3.120   5.001   6.271  0.0413 -0.9628 -0.3335
  727MOL0     H98103   3.154   5.037   6.031 -0.7275  2.4180 -1.8897
  727MOL0     H98104   2.999   5.080   6.009  1.0982  0.8502  0.9176
  727MOL0     H98105   2.775   4.982   6.033 -4.8100  0.1226 -0.8908
  727MOL0     H98106   2.489   4.979   5.829 -2.5655  1.8628  1.9426
  727MOL0     H98107   2.489   4.870   5.968  2.2803 -0.7808  1.4329
  727MOL0     H98108   2.567   5.025   5.983  3.3150 -1.2915  0.3738
  727MOL0     H98109   2.549   4.514   5.428  0.9190 -1.4711  1.0067
  727MOL0     H98110   2.361   4.434   5.316 -0.5728  0.9003  0.2097
  727MOL0     H98111   2.124   4.411   5.251  0.1363 -0.8210 -0.4841
  727MOL0     H98112   2.207   4.256   5.251  3.0743  1.8899  1.5059
  727MOL0     H98113   1.957   4.293   5.158 -1.5132 -1.2008  0.2306
  727MOL0     H98114   2.009   4.153   5.274  5.8362  1.4449  1.8278
  727MOL0     H98115   1.826   4.390   5.322  1.3694  0.9968  0.5517
  727MOL0     H98116   1.904   4.336   5.461 -1.7514  0.5431 -0.1049
  727MOL0     H98117   1.735   4.152   5.279  1.7121 -3.3496  0.0471
  727MOL0     H98118   1.819   4.101   5.426 -1.5372  0.3948  0.7738
  727MOL0     H98119   1.630   4.344   5.427 -0.9570  1.2651  1.4565
  727MOL0     H98120   1.691   4.262   5.568 -0.7050 -3.0181  1.5182
  727MOL0     H98121   1.490   4.146   5.365 -1.0677 -4.2448  0.5713
  727MOL0     H98122   1.568   4.054   5.483  0.7360 -0.1968 -2.1473
  727MOL0     H98123   1.379   4.288   5.523 -1.2120 -1.7377 -2.2813
  727MOL0     H98124   1.480   4.225   5.657  0.3220 -0.2750  0.0305
  727MOL0     H98125   1.236   4.132   5.659  1.1756  2.0716 -0.5776
  727MOL0     H98126   1.363   4.018   5.664 -0.7936 -0.9761 -0.3649
  727MOL0     H98127   2.167   4.375   5.701  0.1543 -2.2611 -0.7987
  727MOL0     H98128   2.355   4.490   5.811 -2.9301  1.4505 -0.8190
  727MOL0     H98129   2.827   4.603   5.733  0.0391 -0.6436  1.0167
  727MOL0     H98130   3.020   4.690   5.828  0.8178  0.6193  1.9440
  727MOL0     H98131   3.188   4.418   5.696  0.1761  0.7580  0.1772
  727MOL0     H98132   3.054   4.220   5.676 -1.6064 -3.5858  0.6550
  727MOL0     H98133   3.066   3.705   5.779  1.0902 -1.5117  4.1744
  727MOL0     H98134   2.927   3.494   5.801  1.1807  1.7087 -1.5729
  727MOL0     H98135   2.748   3.358   5.768 -0.3012 -0.1742 -1.3952
  727MOL0     H98136   2.639   3.302   5.903 -0.4535  1.6466  1.1820
  727MOL0     H98137   2.433   3.371   5.782  0.1024 -0.4622  0.6641
  727MOL0     H98138   2.538   3.316   5.652 -0.2238 -0.2212 -0.7387
  727MOL0     H98139   2.627   3.537   5.608 -1.0370  0.6845  0.4048
  727MOL0     H98140   2.510   3.607   5.720  1.0704  0.7071 -0.2044
  727MOL0     H98141   2.385   3.640   5.551  1.6305  0.3611 -4.1832
  727MOL0     H98142   2.322   3.471   5.593 -0.1510 -0.8335  0.3117
  727MOL0     H98143   2.510   3.415   5.215 -0.4675 -2.1342  0.6817
  727MOL0     H98144   2.598   3.743   5.917  0.1801  1.7263  1.7920
  727MOL0     H98145   2.724   3.939   5.848  0.0734 -0.2409  0.8500
  728MOL0     O98146   8.711   3.531  10.641  0.0608  0.3796 -0.1801
  728MOL0     C98147   8.810   3.570  10.576 -0.0107 -0.0216 -0.6020
  728MOL0     O98148   8.799   3.617  10.452 -0.1397  0.9615  0.3622
  728MOL0     C98149   8.673   3.661  10.412 -0.2645  0.0604  0.5359
  728MOL0     C98150   8.658   3.800  10.387 -0.6706  0.3635 -0.5242
  728MOL0     C98151   8.538   3.852  10.342 -0.3580  0.3081 -0.3701
  728MOL0     C98152   8.428   3.768  10.315 -0.1959  0.9609  0.1246
  728MOL0     O98153   8.317   3.833  10.270 -0.2893 -0.2748 -0.0045
  728MOL0     C98154   8.196   3.754  10.247 -0.5663 -1.2707  0.4233
  728MOL0     C98155   8.078   3.845  10.205  0.2759  0.2017  0.2031
  728MOL0     C98156   7.955   3.754  10.181  0.8623 -0.3640  0.2466
  728MOL0     C98157   7.828   3.836  10.187  0.2451 -0.1903  0.0008
  728MOL0     C98158   7.713   3.731  10.191  0.0626 -0.3049 -0.3241
  728MOL0     C98159   7.579   3.795  10.210 -0.1121 -1.0030  0.3256
  728MOL0     C98160   7.463   3.707  10.223 -0.4998 -0.1987  0.0615
  728MOL0     C98161   7.397   3.694  10.086  0.4469  0.3423  0.6644
  728MOL0     N98162   7.283   3.602  10.099 -0.7363  0.7764 -0.2016
  728MOL0     C98163   7.300   3.466  10.099 -0.3185 -0.3969  0.5240
  728MOL0     C98164   7.172   3.414  10.106  0.2707  0.0983  0.0935
  728MOL0     C98165   7.141   3.266  10.096 -0.7272  0.5777  0.3811
  728MOL0     C98166   6.992   3.257  10.105  0.3233  0.7941 -0.4446
  728MOL0     C98167   6.948   3.115  10.072 -0.6348  0.1701 -0.4012
  728MOL0     C98168   6.814   3.083  10.130  0.1442 -0.9883  0.6253
  728MOL0     O98169   6.770   2.966  10.066 -0.6549 -0.2539 -0.0405
  728MOL0     C98170   6.643   2.929  10.095  0.0954 -0.5220 -0.2640
  728MOL0     C98171   6.563   2.976  10.199 -0.0806  0.5866 -1.2301
  728MOL0     C98172   6.425   2.946  10.210  0.0004  0.1292  1.6758
  728MOL0     C98173   6.354   2.995  10.331  1.1224 -0.1504 -0.0979
  728MOL0     C98174   6.361   2.868  10.110  0.1315 -0.5513  0.2909
  728MOL0     C98175   6.216   2.835  10.096 -0.1839 -0.6863  0.4706
  728MOL0     O98176   6.195   2.725  10.016 -0.2887  0.2986 -0.2082
  728MOL0     C98177   6.067   2.679   9.991 -0.4795  0.0148  0.0039
  728MOL0     C98178   6.035   2.634   9.863 -0.0950 -0.1230 -0.5301
  728MOL0     C98179   5.910   2.582   9.833  0.1272  0.1383 -0.1592
  728MOL0     C98180   5.817   2.568   9.933 -0.6233 -0.3456  0.7142
  728MOL0     O98181   5.694   2.520   9.896 -0.4401  0.1511  0.6223
  728MOL0     C98182   5.695   2.378   9.883 -0.0322  0.0058 -0.1638
  728MOL0     C98183   5.550   2.338   9.868  0.3377  0.3231 -0.0172
  728MOL0     C98184   5.478   2.372  10.003  1.1573  0.2457 -0.4650
  728MOL0     C98185   5.488   2.263  10.114 -0.3156  0.3136 -0.8532
  728MOL0     C98186   5.423   2.302  10.246  0.6271  0.4576  0.0868
  728MOL0     C98187   5.411   2.185  10.346  0.4360  0.7202  0.1046
  728MOL0     C98188   5.333   2.239  10.470  0.2468  1.1006  0.0389
  728MOL0     C98189   5.265   2.126  10.559 -0.3113 -0.4347 -0.1331
  728MOL0    Cl98190   5.125   2.054  10.475 -0.0988  0.1472 -0.2100
  728MOL0     C98191   5.845   2.626  10.059  0.9240 -0.9609  0.5466
  728MOL0     C98192   5.974   2.675  10.093 -0.5620  0.0466  0.1587
  728MOL0     O98193   6.130   2.915  10.143  0.2527 -0.3959  0.2392
  728MOL0     C98194   6.451   2.824  10.010  0.8267 -0.3143 -0.1551
  728MOL0     C98195   6.585   2.843  10.007  0.2898 -0.0898 -0.5179
  728MOL0     N98196   7.086   3.522  10.111 -0.3117 -0.4943  0.2758
  728MOL0     N98197   7.154   3.632  10.110  0.4257 -0.4626  0.5523
  728MOL0     C98198   8.434   3.633  10.341  0.1852 -0.4480 -1.3187
  728MOL0     C98199   8.560   3.586  10.389 -0.1957  0.3737 -0.0866
  728MOL0     C98200   8.942   3.556  10.629 -0.2119  0.0955 -0.1538
  728MOL0     C98201   9.051   3.610  10.558  0.4539  0.1023 -0.5521
  728MOL0     C98202   9.182   3.600  10.611  0.0081  0.5149  0.8574
  728MOL0     C98203   9.206   3.524  10.725  0.0912  0.5346  0.4268
  728MOL0     O98204   9.330   3.495  10.781  0.1375 -0.4545  0.3650
  728MOL0     C98205   9.448   3.548  10.722  0.1572 -0.6244 -0.0586
  728MOL0     C98206   9.496   3.464  10.598  0.1402 -0.1240  0.0948
  728MOL0     C98207   9.653   3.465  10.591  0.2569  0.0861 -0.2376
  728MOL0     C98208   9.711   3.360  10.679 -0.8096  0.8292 -0.1937
  728MOL0     C98209   9.854   3.349  10.661  0.0167 -0.1626  0.3890
  728MOL0     C98210   9.972   3.374  10.644 -0.5227  0.1168 -0.2619
  728MOL0     C98211   9.098   3.469  10.795 -0.1363  0.4465 -0.2791
  728MOL0     C98212   8.964   3.493  10.756 -0.1889 -0.2363 -0.6430
  728MOL0     H98213   8.738   3.872  10.398 -0.5420  0.0156  1.0679
  728MOL0     H98214   8.540   3.961  10.335 -0.8802  0.5143  1.8579
  728MOL0     H98215   8.218   3.689  10.161  1.0101  0.6031 -0.6651
  728MOL0     H98216   8.171   3.697  10.337 -0.0776 -1.3744  0.4937
  728MOL0     H98217   8.055   3.916  10.284  0.9292  0.6423  0.0063
  728MOL0     H98218   8.099   3.899  10.112  0.9873 -2.5116 -1.3101
  728MOL0     H98219   7.961   3.714  10.079 -0.8526 -0.3612  0.1287
  728MOL0     H98220   7.955   3.666  10.247  1.2469 -2.4677 -2.3676
  728MOL0     H98221   7.829   3.884  10.285  0.9147 -0.8898  0.3588
  728MOL0     H98222   7.828   3.908  10.105  2.1029 -0.5106 -0.3460
  728MOL0     H98223   7.707   3.671  10.100 -0.0595 -3.0681  1.3907
  728MOL0     H98224   7.737   3.661  10.272 -0.5008 -0.4837 -0.3099
  728MOL0     H98225   7.583   3.861  10.297  0.9555  0.1047 -0.5255
  728MOL0     H98226   7.567   3.863  10.125 -1.7246  0.7094  1.8313
  728MOL0     H98227   7.494   3.614  10.270  0.6521  0.6406  1.0128
  728MOL0     H98228   7.394   3.750  10.296  0.4147 -0.5439  1.1468
  728MOL0     H98229   7.467   3.660  10.010  0.8989  1.0436  0.7637
  728MOL0     H98230   7.350   3.788  10.058 -1.9486 -1.4951 -2.0911
  728MOL0     H98231   7.383   3.399  10.075 -0.4649 -1.0198  1.6810
  728MOL0     H98232   7.183   3.239   9.999 -0.7009 -0.2755  0.6240
  728MOL0     H98233   7.193   3.213  10.177  0.9390  1.2648 -0.1927
  728MOL0     H98234   6.935   3.324  10.040 -0.3798 -0.9300 -1.7045
  728MOL0     H98235   6.951   3.271  10.205 -0.9089 -3.7465 -0.0847
  728MOL0     H98236   7.023   3.053  10.121 -1.4845 -0.6246 -0.0835
  728MOL0     H98237   6.937   3.105   9.963 -1.4427  1.6367 -0.4828
  728MOL0     H98238   6.743   3.166  10.120 -0.1577 -0.7663  3.6594
  728MOL0     H98239   6.827   3.060  10.236  3.0315  1.4925  0.9670
  728MOL0     H98240   6.607   3.042  10.273  0.0561 -1.1049  0.2559
  728MOL0     H98241   6.274   3.067  10.313  0.0763 -0.8387  1.5498
  728MOL0     H98242   6.308   2.910  10.382 -0.3621  1.4240  1.3118
  728MOL0     H98243   6.420   3.055  10.395  1.0181 -1.9913  1.8453
  728MOL0     H98244   6.114   2.625   9.789  0.2711  0.4481 -0.2160
  728MOL0     H98245   5.897   2.540   9.734 -2.5063 -1.6871  0.8265
  728MOL0     H98246   5.741   2.343   9.790 -0.3994  0.9113 -0.7012
  728MOL0     H98247   5.734   2.338   9.977  0.6739 -2.4105 -1.4079
  728MOL0     H98248   5.502   2.395   9.788  1.8549 -0.8990 -1.8879
  728MOL0     H98249   5.541   2.230   9.851  3.1217 -0.4616  2.5418
  728MOL0     H98250   5.372   2.373   9.979  0.9970 -0.2916  0.1881
  728MOL0     H98251   5.504   2.471  10.040 -0.9473  1.0239 -0.9803
  728MOL0     H98252   5.438   2.173  10.080 -0.0900 -1.0649  2.1292
  728MOL0     H98253   5.594   2.244  10.135 -0.8123  0.7681  2.7214
  728MOL0     H98254   5.321   2.327  10.215 -0.6430 -3.5785  0.4342
  728MOL0     H98255   5.483   2.379  10.294  0.5857  0.2473  0.4834
  728MOL0     H98256   5.360   2.098  10.303  0.4535 -0.4261  2.2793
  728MOL0     H98257   5.509   2.148  10.375  0.1570  0.5748  0.8852
  728MOL0     H98258   5.259   2.314  10.437 -1.6462  0.2110  2.0113
  728MOL0     H98259   5.390   2.302  10.539 -1.4420  1.1588  1.4613
  728MOL0     H98260   5.224   2.179  10.645 -0.1538 -1.8924  0.8748
  728MOL0     H98261   5.338   2.046  10.577 -0.0337 -0.3783 -0.9730
  728MOL0     H98262   5.764   2.643  10.129 -0.3390 -0.9451 -0.8847
  728MOL0     H98263   5.994   2.706  10.195 -1.0718 -0.6403  0.4769
  728MOL0     H98264   6.416   2.756   9.933  0.5584 -0.6235  0.2316
  728MOL0     H98265   6.640   2.814   9.918  1.1373  0.0347 -0.0418
  728MOL0     H98266   8.352   3.563  10.327 -0.2774  0.3529 -2.9450
  728MOL0     H98267   8.553   3.481  10.414  0.4660  0.5936  1.0908
  728MOL0     H98268   9.035   3.660  10.463 -1.5283  0.9321  0.1906
  728MOL0     H98269   9.264   3.642  10.554 -1.8673  0.4805 -2.0629
  728MOL0     H98270   9.446   3.655  10.698  1.5999 -0.4445  0.5020
  728MOL0     H98271   9.530   3.553  10.794 -1.2026 -0.3221  1.5373
  728MOL0     H98272   9.456   3.510  10.507  1.8644  0.7394 -0.2735
  728MOL0     H98273   9.456   3.362  10.597 -1.1264  0.3377  0.9228
  728MOL0     H98274   9.688   3.566  10.616  1.7327 -0.8217  1.6271
  728MOL0     H98275   9.678   3.451  10.485 -0.6194  1.1212 -0.5962
  728MOL0     H98276   9.669   3.260  10.669 -0.2516  0.2438  2.4721
  728MOL0     H98277   9.693   3.377  10.785  2.3674  1.1121  0.4056
  728MOL0     H98278  10.071   3.414  10.633  0.4279 -2.3182 -1.3902
  728MOL0     H98279   9.109   3.410  10.886  1.0267 -0.2318 -0.8396
  728MOL0     H98280   8.883   3.454  10.817  0.6313  2.6253  2.6155
  729MOL0     O98281   3.389   1.519   9.797 -0.0432  0.5189  0.3924
  729MOL0     C98282   3.469   1.550   9.709 -0.2215  0.4355  1.1101
  729MOL0     O98283   3.439   1.598   9.580  0.2103 -0.2820 -0.2164
  729MOL0     C98284   3.310   1.624   9.549  0.3483 -0.8359  0.5694
  729MOL0     C98285   3.233   1.535   9.473 -0.5302  0.4000 -1.0498
  729MOL0     C98286   3.096   1.562   9.451  0.2811  0.5796  0.0295
  729MOL0     C98287   3.045   1.684   9.497  0.5621 -0.1605  0.4537
  729MOL0     O98288   2.915   1.729   9.486 -0.3746  0.7282  0.3159
  729MOL0     C98289   2.824   1.669   9.396 -0.3094 -0.0358  0.1015
  729MOL0     C98290   2.679   1.728   9.402  0.2362  0.2708  0.4175
  729MOL0     C98291   2.624   1.744   9.254  0.5619  0.2822  0.6583
  729MOL0     C98292   2.637   1.619   9.163 -0.2355  0.4139  0.0244
  729MOL0     C98293   2.519   1.594   9.067 -0.2900  0.0532 -0.8681
  729MOL0     C98294   2.578   1.501   8.957  0.7301 -0.4720  0.1553
  729MOL0     C98295   2.618   1.354   9.002  0.5905 -0.0956 -0.7023
  729MOL0     C98296   2.506   1.265   9.070 -0.6502 -0.9841 -0.7281
  729MOL0     N98297   2.383   1.266   9.003 -0.6935  0.4168 -0.4174
  729MOL0     C98298   2.278   1.353   9.026 -0.0996 -0.7724 -0.0866
  729MOL0     C98299   2.200   1.338   8.914 -0.4069  1.0529  0.7842
  729MOL0     C98300   2.081   1.420   8.861  0.0780  0.8102 -0.1060
  729MOL0     C98301   2.119   1.570   8.828  0.3382  0.2934  0.2275
  729MOL0     C98302   2.022   1.634   8.723  0.0119  0.3155  0.0218
  729MOL0     C98303   1.895   1.680   8.785  0.2855  0.1293  0.6682
  729MOL0     O98304   1.816   1.748   8.688  0.3012  0.7661 -0.2198
  729MOL0     C98305   1.683   1.747   8.701  0.9716 -0.2187  0.5374
  729MOL0     C98306   1.611   1.796   8.594 -0.0233 -0.5916 -0.1103
  729MOL0     C98307   1.466   1.820   8.603  0.0965  0.2837 -0.4655
  729MOL0     C98308   1.395   1.880   8.477 -0.4787 -0.5704  0.0142
  729MOL0     C98309   1.396   1.797   8.725 -0.0892  0.0714 -0.4725
  729MOL0     C98310   1.256   1.846   8.754 -0.2877  0.3888 -0.0219
  729MOL0     O98311   1.193   1.774   8.859 -0.8606 -0.1357 -0.1951
  729MOL0     C98312   1.098   1.837   8.940  0.6895  0.7521 -0.1211
  729MOL0     C98313   1.149   1.918   9.035 -0.2844  0.7438 -0.2945
  729MOL0     C98314   1.069   2.000   9.118  0.2314 -0.4091  0.7057
  729MOL0     C98315   0.936   1.966   9.127 -0.3288  0.8417 -0.7943
  729MOL0     O98316   0.851   2.006   9.232  0.4453 -0.3172 -0.0032
  729MOL0     C98317   0.890   1.953   9.359  0.2085  0.1815  0.3380
  729MOL0     C98318   0.892   1.798   9.366  1.0725 -0.2256 -0.0247
  729MOL0     C98319   1.027   1.726   9.352 -0.3148 -0.5854  0.2080
  729MOL0     C98320   1.141   1.794   9.435  0.0685 -0.7364 -0.7287
  729MOL0     C98321   1.253   1.689   9.457 -0.3208  1.0410 -0.0149
  729MOL0     C98322   1.309   1.637   9.320  0.1708  0.3787 -0.0070
  729MOL0     C98323   1.451   1.586   9.342 -0.3839  0.1089 -0.2191
  729MOL0     C98324   1.524   1.560   9.207  0.5639 -0.3541 -0.4938
  729MOL0    Cl98325   1.630   1.694   9.183  0.0837 -0.6807  0.2828
  729MOL0     C98326   0.880   1.876   9.028 -0.2627 -0.6632 -0.3392
  729MOL0     C98327   0.955   1.813   8.932 -1.0752 -0.8258 -0.4808
  729MOL0     O98328   1.214   1.946   8.697 -0.8104 -0.3114 -0.4748
  729MOL0     C98329   1.465   1.724   8.825 -0.2481  0.1625  0.2206
  729MOL0     C98330   1.609   1.706   8.812  0.3493  0.5434 -0.1178
  729MOL0     N98331   2.258   1.235   8.842 -0.4058  0.5403  0.5263
  729MOL0     N98332   2.368   1.196   8.893  0.1165  0.2413  0.5456
  729MOL0     C98333   3.123   1.770   9.572  0.4844 -0.0129  0.0746
  729MOL0     C98334   3.260   1.745   9.595  0.1343  0.2817  0.3403
  729MOL0     C98335   3.611   1.528   9.745 -0.2713 -1.1551 -0.6728
  729MOL0     C98336   3.712   1.516   9.652  0.5590  0.9203 -0.1998
  729MOL0     C98337   3.852   1.501   9.689  0.3328 -0.5991  0.4231
  729MOL0     C98338   3.894   1.496   9.824  0.0363 -0.1387  0.0102
  729MOL0     O98339   4.023   1.485   9.872 -0.1455 -0.3780 -0.0925
  729MOL0     C98340   4.136   1.488   9.783 -0.7850  0.5127  0.3428
  729MOL0     C98341   4.257   1.446   9.859  0.5900 -1.0269  0.8377
  729MOL0     C98342   4.290   1.540   9.974  0.4886  0.0496 -0.3801
  729MOL0     C98343   4.422   1.516  10.039  0.0670 -0.4060  0.1816
  729MOL0     C98344   4.535   1.550   9.956  0.6891  0.1162  0.0629
  729MOL0     C98345   4.632   1.573   9.895 -0.5132 -0.8213 -0.5231
  729MOL0     C98346   3.789   1.509   9.917  0.3707  0.6469 -0.6380
  729MOL0     C98347   3.653   1.530   9.883  0.6689 -0.3445  0.1532
  729MOL0     H98348   3.290   1.446   9.452 -1.0706  0.1542 -1.5004
  729MOL0     H98349   3.039   1.496   9.387  0.5172  2.0087 -1.7466
  729MOL0     H98350   2.866   1.685   9.296 -0.9729 -0.3702 -0.2396
  729MOL0     H98351   2.817   1.560   9.410 -0.2102 -0.2630 -1.4668
  729MOL0     H98352   2.608   1.671   9.463  0.8796 -1.1620 -0.1124
  729MOL0     H98353   2.684   1.820   9.461 -1.3250 -0.4071  1.6794
  729MOL0     H98354   2.519   1.775   9.259  0.4129 -0.3724  2.2384
  729MOL0     H98355   2.675   1.833   9.215 -1.0734  0.8234 -0.3347
  729MOL0     H98356   2.726   1.636   9.101  0.8925 -1.4421  1.0438
  729MOL0     H98357   2.644   1.531   9.226 -0.9248  0.7539  0.5866
  729MOL0     H98358   2.431   1.560   9.122  1.8931 -2.6948  1.2091
  729MOL0     H98359   2.501   1.690   9.019  2.4621  1.5744  0.9024
  729MOL0     H98360   2.502   1.486   8.879  0.4218 -1.2955  0.5936
  729MOL0     H98361   2.670   1.542   8.913 -0.1932  0.6180 -0.8202
  729MOL0     H98362   2.654   1.311   8.908 -0.7673  2.2767 -2.4210
  729MOL0     H98363   2.703   1.358   9.071  0.0383 -1.4412  0.1017
  729MOL0     H98364   2.498   1.293   9.175  0.7437 -0.5320 -0.7271
  729MOL0     H98365   2.541   1.162   9.079 -0.8053 -0.9428  0.4985
  729MOL0     H98366   2.265   1.427   9.104 -1.2758 -2.3559  1.2910
  729MOL0     H98367   2.040   1.381   8.767  0.1758  1.1813 -0.3033
  729MOL0     H98368   2.005   1.412   8.940  0.6342 -0.4098  0.3262
  729MOL0     H98369   2.219   1.559   8.785  0.3185  1.4846 -0.1608
  729MOL0     H98370   2.123   1.623   8.923 -1.4750  1.6513 -0.3838
  729MOL0     H98371   1.994   1.566   8.642  1.9547 -0.9184  0.3084
  729MOL0     H98372   2.085   1.714   8.685  3.5007 -1.5024  1.5037
  729MOL0     H98373   1.902   1.739   8.877 -2.3771 -1.7058  2.1791
  729MOL0     H98374   1.847   1.588   8.820  1.8624 -0.9375  0.1019
  729MOL0     H98375   1.648   1.824   8.495 -2.4685  0.9591 -0.6655
  729MOL0     H98376   1.402   1.988   8.467 -0.9334 -0.6896 -1.8566
  729MOL0     H98377   1.440   1.844   8.384 -2.4031 -2.1287 -0.3791
  729MOL0     H98378   1.291   1.846   8.477 -1.0305  1.0656 -0.8556
  729MOL0     H98379   1.256   1.935   9.039  0.1005 -0.6978 -2.7143
  729MOL0     H98380   1.112   2.076   9.182 -1.9486  2.0894 -0.5616
  729MOL0     H98381   0.994   1.987   9.370  0.4452  0.5340 -2.2234
  729MOL0     H98382   0.831   1.987   9.444  0.9616 -1.8531  1.7363
  729MOL0     H98383   0.849   1.771   9.462  0.9413 -0.4488 -0.1457
  729MOL0     H98384   0.819   1.768   9.291  0.2887  1.9203 -0.1986
  729MOL0     H98385   1.057   1.739   9.247 -3.1000 -1.6425 -0.8036
  729MOL0     H98386   1.018   1.621   9.380  1.1975 -0.5415  0.9597
  729MOL0     H98387   1.190   1.886   9.401  1.3214 -0.4637  1.6308
  729MOL0     H98388   1.085   1.826   9.523 -1.2473 -0.9078 -1.4802
  729MOL0     H98389   1.217   1.609   9.522  1.5218 -0.3949 -0.6907
  729MOL0     H98390   1.331   1.739   9.516 -0.2960 -1.0019  1.8298
  729MOL0     H98391   1.245   1.557   9.282 -2.2918  2.4144 -0.4283
  729MOL0     H98392   1.306   1.714   9.241 -1.2119 -0.8690 -1.2229
  729MOL0     H98393   1.443   1.497   9.405 -0.3256 -0.2459 -0.7113
  729MOL0     H98394   1.512   1.648   9.409 -2.0444  0.5416  0.9631
  729MOL0     H98395   1.443   1.555   9.134 -1.6948  3.6455  1.3651
  729MOL0     H98396   1.584   1.469   9.216 -1.0226 -1.5276 -1.5048
  729MOL0     H98397   0.777   1.844   9.034  0.0584 -2.0361 -1.5741
  729MOL0     H98398   0.923   1.769   8.838 -0.1796  1.2074 -1.8026
  729MOL0     H98399   1.428   1.685   8.919  2.9051  1.5328  2.2156
  729MOL0     H98400   1.659   1.656   8.894  0.7593 -1.5059 -1.5346
  729MOL0     H98401   3.084   1.854   9.628  1.5782 -0.6807  1.9558
  729MOL0     H98402   3.318   1.807   9.662 -0.5011  4.2092 -2.4311
  729MOL0     H98403   3.681   1.539   9.551  0.0750  1.3643  0.0438
  729MOL0     H98404   3.918   1.502   9.604  0.0248 -0.9646  0.1778
  729MOL0     H98405   4.119   1.415   9.703 -0.9275  1.9989 -1.0320
  729MOL0     H98406   4.148   1.589   9.743  1.6214 -0.2360 -1.0426
  729MOL0     H98407   4.340   1.445   9.787 -2.7191  1.7184 -3.5190
  729MOL0     H98408   4.235   1.345   9.897 -0.3399 -0.4974  1.7514
  729MOL0     H98409   4.213   1.525  10.051  2.1930 -0.5953  1.2951
  729MOL0     H98410   4.300   1.643   9.942  1.1171 -0.1784 -0.9215
  729MOL0     H98411   4.430   1.410  10.064 -0.4904  0.1472  3.0390
  729MOL0     H98412   4.425   1.577  10.129 -2.2435  0.9871 -0.5983
  729MOL0     H98413   4.720   1.597   9.840  0.9285 -0.9375  1.6117
  729MOL0     H98414   3.809   1.507  10.023 -1.0484 -2.0644 -0.3346
  729MOL0     H98415   3.583   1.544   9.965 -1.7638 -1.0903 -1.6943
  730MOL0     O98416   0.447   5.420   2.530 -0.0820 -0.4750  0.3667
  730MOL0     C98417   0.449   5.528   2.460  0.0506 -0.1108 -0.4311
  730MOL0     O98418   0.350   5.604   2.440 -0.0612 -0.2681 -0.0805
  730MOL0     C98419   0.237   5.585   2.515  0.0574  0.0589 -0.2322
  730MOL0     C98420   0.230   5.618   2.646 -0.2506  0.5348 -0.3764
  730MOL0     C98421   0.107   5.606   2.719 -0.3980  0.8855  0.6343
  730MOL0     C98422  -0.004   5.560   2.659  0.2922 -0.3034  0.4506
  730MOL0     O98423  -0.126   5.542   2.718 -0.0868  0.7189 -0.1684
  730MOL0     C98424  -0.226   5.643   2.693 -0.5669  0.0092 -0.5181
  730MOL0     C98425  -0.263   5.678   2.548  0.6690 -0.1879 -0.3329
  730MOL0     C98426  -0.396   5.765   2.545  0.1696 -0.9481  0.1175
  730MOL0     C98427  -0.514   5.680   2.514 -0.0024 -1.0440 -0.3404
  730MOL0     C98428  -0.641   5.776   2.497  0.3392  0.9742 -0.4434
  730MOL0     C98429  -0.755   5.683   2.459  0.6931  0.8323 -0.1112
  730MOL0     C98430  -0.881   5.755   2.475 -0.6576  0.3362  0.2392
  730MOL0     C98431  -1.005   5.654   2.463  0.1885  0.0258 -0.6046
  730MOL0     N98432  -1.129   5.736   2.458 -0.1683 -0.2879 -0.5921
  730MOL0     C98433  -1.201   5.782   2.568  0.2208 -0.6094  0.3953
  730MOL0     C98434  -1.286   5.882   2.524  0.2023  0.4962 -1.0508
  730MOL0     C98435  -1.386   5.954   2.603  0.3138  0.3871 -0.1121
  730MOL0     C98436  -1.521   5.888   2.607 -0.3185 -0.4872 -0.7205
  730MOL0     C98437  -1.592   5.927   2.466 -0.7804 -0.1127 -0.6101
  730MOL0     C98438  -1.738   5.900   2.454 -0.8798  0.7415  0.2251
  730MOL0     O98439  -1.812   5.983   2.548  0.2494  1.1180 -0.1388
  730MOL0     C98440  -1.856   6.094   2.477 -0.5052 -0.4995 -0.3259
  730MOL0     C98441  -1.966   6.098   2.395  0.8101 -0.0355 -0.7739
  730MOL0     C98442  -2.005   6.213   2.334  0.3041 -0.0229  0.2947
  730MOL0     C98443  -2.143   6.210   2.266  0.1004 -0.5576  0.0609
  730MOL0     C98444  -1.927   6.325   2.347  0.7287 -0.7696 -0.4314
  730MOL0     C98445  -1.967   6.459   2.288 -0.3658  0.7461  0.0799
  730MOL0     O98446  -2.018   6.459   2.163 -0.3890 -0.1655 -0.1083
  730MOL0     C98447  -2.092   6.564   2.127 -0.6086 -0.0094 -0.6650
  730MOL0     C98448  -2.187   6.640   2.199  0.4615 -0.0741 -1.2649
  730MOL0     C98449  -2.249   6.753   2.154 -0.3386  0.1799 -0.9808
  730MOL0     C98450  -2.229   6.801   2.027  0.3336 -0.4244  0.8685
  730MOL0     O98451  -2.274   6.926   1.997 -0.4097 -0.1467 -0.5663
  730MOL0     C98452  -2.212   7.009   1.901  0.3063 -0.8554  0.1359
  730MOL0     C98453  -2.257   7.144   1.939 -0.2353 -0.3049 -0.3639
  730MOL0     C98454  -2.410   7.162   1.924 -0.4859 -0.5715 -0.9953
  730MOL0     C98455  -2.449   7.314   1.954 -1.1806 -0.5299  0.3606
  730MOL0     C98456  -2.584   7.362   1.904 -0.1419  0.1963  0.0084
  730MOL0     C98457  -2.697   7.294   1.981  0.2026  0.4954  0.4850
  730MOL0     C98458  -2.831   7.321   1.919  0.1419  0.4224 -0.4312
  730MOL0     C98459  -2.882   7.211   1.831  0.4720  0.7081 -0.4797
  730MOL0    Cl98460  -3.051   7.249   1.788 -0.2917 -0.1610 -0.0675
  730MOL0     C98461  -2.146   6.717   1.939  0.2122 -0.3533  0.9936
  730MOL0     C98462  -2.085   6.600   1.991 -0.0716 -0.5492 -0.0844
  730MOL0     O98463  -1.956   6.550   2.371 -0.5274  0.0026  0.5262
  730MOL0     C98464  -1.816   6.321   2.431  0.2712 -0.1671 -0.1356
  730MOL0     C98465  -1.778   6.208   2.496 -0.0124 -0.2452 -0.4366
  730MOL0     N98466  -1.266   5.888   2.388  0.2626  0.0751 -0.2556
  730MOL0     N98467  -1.173   5.815   2.351 -0.1714  0.3857  0.6541
  730MOL0     C98468   0.009   5.524   2.521  0.4715  0.4353 -0.1245
  730MOL0     C98469   0.123   5.535   2.454 -0.5122 -0.1183 -0.8572
  730MOL0     C98470   0.579   5.570   2.395  0.3799  0.1658  0.2140
  730MOL0     C98471   0.584   5.708   2.347 -0.5983 -0.0849 -0.0795
  730MOL0     C98472   0.713   5.745   2.291  0.4409 -0.7104 -0.9884
  730MOL0     C98473   0.825   5.660   2.282  0.3311  0.8251  0.5236
  730MOL0     O98474   0.932   5.710   2.222  0.1731 -0.6188  0.2213
  730MOL0     C98475   1.034   5.617   2.168 -0.5757  0.5016 -0.3889
  730MOL0     C98476   1.133   5.690   2.079  0.2712  0.2612 -0.5825
  730MOL0     C98477   1.093   5.688   1.933  0.2314 -0.2694 -0.6276
  730MOL0     C98478   1.208   5.745   1.858 -0.1205  0.1637 -1.1148
  730MOL0     C98479   1.186   5.750   1.716  1.2151 -0.0501  0.1919
  730MOL0     C98480   1.155   5.768   1.597  0.0563  0.3299 -0.1380
  730MOL0     C98481   0.804   5.533   2.337  0.7971  0.7139  0.4429
  730MOL0     C98482   0.688   5.485   2.389 -0.3216  0.3110 -0.0213
  730MOL0     H98483   0.311   5.666   2.700 -1.2048  1.4046  0.3123
  730MOL0     H98484   0.113   5.636   2.823  1.2282  2.4421  0.1282
  730MOL0     H98485  -0.317   5.607   2.743 -1.6639  1.3369 -1.4571
  730MOL0     H98486  -0.199   5.732   2.752 -0.7129  0.7489 -1.5456
  730MOL0     H98487  -0.180   5.737   2.507  0.5216  1.7283  1.9090
  730MOL0     H98488  -0.280   5.588   2.489 -1.3655  0.1774 -0.4037
  730MOL0     H98489  -0.407   5.827   2.635 -1.5221  3.4954 -2.8221
  730MOL0     H98490  -0.391   5.841   2.467 -0.2915 -1.2590 -0.2158
  730MOL0     H98491  -0.504   5.639   2.413  0.4459 -0.2497 -0.6335
  730MOL0     H98492  -0.528   5.601   2.587 -0.0280 -0.5024  0.2521
  730MOL0     H98493  -0.652   5.821   2.596 -3.3010 -1.5786  0.5105
  730MOL0     H98494  -0.632   5.857   2.424  1.1540  1.3650  0.0641
  730MOL0     H98495  -0.743   5.641   2.359 -1.3308  0.4855 -0.2455
  730MOL0     H98496  -0.763   5.603   2.533  2.4584  0.9908  0.2867
  730MOL0     H98497  -0.887   5.813   2.568  1.0777  0.8715  0.0507
  730MOL0     H98498  -0.886   5.831   2.396  0.2943 -0.7728 -0.9320
  730MOL0     H98499  -1.004   5.588   2.550  1.5385  0.3138 -0.3721
  730MOL0     H98500  -0.979   5.596   2.374  1.4249 -0.4611  0.0400
  730MOL0     H98501  -1.191   5.745   2.670  1.9691  1.8502  1.2243
  730MOL0     H98502  -1.365   5.952   2.710 -1.0739  2.6656  0.2701
  730MOL0     H98503  -1.400   6.054   2.561  0.3686  0.1414 -0.7301
  730MOL0     H98504  -1.580   5.935   2.686 -1.5182 -0.0131 -1.8591
  730MOL0     H98505  -1.523   5.782   2.633 -2.4375  0.2905  3.1213
  730MOL0     H98506  -1.536   5.872   2.389  2.2803  2.1318 -0.2169
  730MOL0     H98507  -1.585   6.032   2.435 -2.0174  0.6704  1.5715
  730MOL0     H98508  -1.750   5.794   2.477  2.4509 -0.0460 -1.0159
  730MOL0     H98509  -1.775   5.910   2.352 -3.1928 -0.4436  0.8660
  730MOL0     H98510  -2.028   6.010   2.389 -0.5168  0.5714  1.9559
  730MOL0     H98511  -2.149   6.259   2.168 -0.9908  0.3865  0.5765
  730MOL0     H98512  -2.187   6.113   2.243 -4.0881  1.3177 -0.7421
  730MOL0     H98513  -2.211   6.261   2.335  1.9973  2.7432 -0.2542
  730MOL0     H98514  -2.205   6.623   2.305  0.7215  2.2239 -0.8064
  730MOL0     H98515  -2.310   6.809   2.225  2.3218  1.3866  0.4967
  730MOL0     H98516  -2.103   6.998   1.904  0.6001  1.6563  0.0377
  730MOL0     H98517  -2.245   6.989   1.799  0.9222  0.1167 -0.2672
  730MOL0     H98518  -2.230   7.153   2.045  1.3197  2.4277 -0.8953
  730MOL0     H98519  -2.194   7.218   1.889  1.5968 -1.8736 -0.4726
  730MOL0     H98520  -2.465   7.092   1.989 -1.5350  0.6686 -0.5111
  730MOL0     H98521  -2.441   7.140   1.822 -3.0919 -1.4461 -0.0900
  730MOL0     H98522  -2.445   7.333   2.062  0.5074  0.2573  0.1970
  730MOL0     H98523  -2.368   7.369   1.905 -3.6137  2.0116 -1.1291
  730MOL0     H98524  -2.594   7.351   1.795 -0.5475  2.8360 -0.2850
  730MOL0     H98525  -2.579   7.468   1.932  2.5442  0.0925  0.1461
  730MOL0     H98526  -2.689   7.185   1.968 -0.5120  0.5435 -0.5162
  730MOL0     H98527  -2.693   7.329   2.085 -1.9935  2.4673 -0.0230
  730MOL0     H98528  -2.811   7.402   1.848  3.6771  1.8479  1.8989
  730MOL0     H98529  -2.915   7.336   1.988 -1.2837  2.4527 -2.4596
  730MOL0     H98530  -2.891   7.123   1.896 -1.4600  2.7330  2.2353
  730MOL0     H98531  -2.809   7.202   1.750  1.0033  0.8684 -0.0202
  730MOL0     H98532  -2.122   6.740   1.836  0.5925 -1.3666  0.8430
  730MOL0     H98533  -2.017   6.547   1.926  0.2182 -1.8881  1.2476
  730MOL0     H98534  -1.743   6.398   2.452 -1.8971  1.5672  1.5176
  730MOL0     H98535  -1.693   6.214   2.563  1.2783  0.3487 -2.0554
  730MOL0     H98536  -0.080   5.488   2.472  1.1750 -1.4174 -0.1169
  730MOL0     H98537   0.118   5.505   2.350 -1.0433 -1.4769 -0.4573
  730MOL0     H98538   0.505   5.782   2.356  0.2800  0.6254  3.0009
  730MOL0     H98539   0.711   5.848   2.258 -0.2588 -0.4170 -0.0461
  730MOL0     H98540   1.086   5.584   2.258 -2.7851  0.9084  1.1426
  730MOL0     H98541   0.990   5.527   2.125 -1.8757  0.2913  1.2531
  730MOL0     H98542   1.228   5.636   2.085 -1.0442 -2.1168  0.6519
  730MOL0     H98543   1.138   5.794   2.113  0.6776  0.4481 -1.2075
  730MOL0     H98544   0.996   5.736   1.920 -1.5883 -2.9314  1.7968
  730MOL0     H98545   1.087   5.585   1.897  0.6348 -0.0502 -1.3298
  730MOL0     H98546   1.297   5.686   1.886 -0.2477 -0.3107 -1.6648
  730MOL0     H98547   1.238   5.846   1.885 -0.1671 -0.2023  0.3886
  730MOL0     H98548   1.121   5.772   1.495 -2.1787  3.3026  0.5977
  730MOL0     H98549   0.886   5.462   2.342 -1.2338 -1.9087 -0.5863
  730MOL0     H98550   0.688   5.382   2.422 -2.2333 -1.3695 -4.4069
  731MOL0     O98551   0.611   0.060  10.441 -0.3599  0.9347 -0.3581
  731MOL0     C98552   0.564  -0.017  10.353 -0.1482  0.3917  0.6607
  731MOL0     O98553   0.433  -0.042  10.335  0.7090 -0.6489 -0.3958
  731MOL0     C98554   0.321   0.031  10.374  0.2423  0.4789 -0.2897
  731MOL0     C98555   0.311   0.165  10.395 -0.8403  0.0045 -0.3066
  731MOL0     C98556   0.195   0.222  10.445  0.0243 -0.3250  0.3461
  731MOL0     C98557   0.076   0.150  10.465  0.8168 -0.6140 -0.6839
  731MOL0     O98558  -0.049   0.191  10.494  0.7257 -0.4079  0.2749
  731MOL0     C98559  -0.076   0.332  10.468  0.3041  0.0760 -0.1101
  731MOL0     C98560  -0.202   0.379  10.539 -0.3256  0.0173  0.1964
  731MOL0     C98561  -0.275   0.490  10.456 -0.0578  0.0493  0.3291
  731MOL0     C98562  -0.426   0.496  10.491 -0.5382  0.1417 -0.4449
  731MOL0     C98563  -0.443   0.519  10.646 -0.4562  0.9509  0.4583
  731MOL0     C98564  -0.596   0.506  10.674 -0.3603 -0.3459 -0.4169
  731MOL0     C98565  -0.623   0.551  10.820 -0.1412 -0.3163 -0.0048
  731MOL0     C98566  -0.641   0.706  10.821 -0.1866  0.1687  0.0448
  731MOL0     N98567  -0.779   0.741  10.781  0.3825  0.0665  0.2729
  731MOL0     C98568  -0.815   0.782  10.654  0.3413 -0.6078  0.2963
  731MOL0     C98569  -0.952   0.799  10.664 -0.0379 -0.2901 -1.5232
  731MOL0     C98570  -1.037   0.849  10.548 -0.9781  0.3925 -0.5796
  731MOL0     C98571  -1.144   0.948  10.594  0.1792 -0.2269 -0.5427
  731MOL0     C98572  -1.279   0.883  10.601 -0.1962  0.1867  0.0474
  731MOL0     C98573  -1.383   0.969  10.660  0.6114  0.6540 -0.2998
  731MOL0     O98574  -1.416   1.082  10.570 -0.1954  0.3057 -0.0243
  731MOL0     C98575  -1.487   1.173  10.631  0.4744  0.1400  0.5589
  731MOL0     C98576  -1.458   1.304  10.595  1.0968 -0.0635 -0.4135
  731MOL0     C98577  -1.535   1.412  10.659 -0.2489 -0.3953  0.5614
  731MOL0     C98578  -1.499   1.550  10.599 -0.3061  0.0476 -0.9487
  731MOL0     C98579  -1.654   1.378  10.732 -0.5445 -0.3543 -0.1836
  731MOL0     C98580  -1.751   1.481  10.785 -0.5762 -0.2653 -0.1863
  731MOL0     O98581  -1.727   1.616  10.775 -0.8180 -0.4034 -0.7684
  731MOL0     C98582  -1.811   1.702  10.848  0.3162  0.9902  0.7096
  731MOL0     C98583  -1.766   1.785  10.948  0.7832 -0.6620 -1.1570
  731MOL0     C98584  -1.858   1.874  11.010 -0.8026  0.6719  0.0952
  731MOL0     C98585  -1.987   1.885  10.975 -1.0051 -0.1074 -1.1036
  731MOL0     O98586  -2.069   1.982  11.039 -0.7777 -0.5856  0.4289
  731MOL0     C98587  -2.212   1.958  11.054  0.8586  0.6176  0.8805
  731MOL0     C98588  -2.314   2.061  11.013 -0.0086  0.7930 -0.5096
  731MOL0     C98589  -2.456   2.021  11.058  0.7274  0.3802 -0.0409
  731MOL0     C98590  -2.545   2.136  11.084  0.2631  0.1463  0.7054
  731MOL0     C98591  -2.684   2.078  11.133  0.2272 -0.0868 -0.1741
  731MOL0     C98592  -2.786   2.189  11.166 -0.5157 -0.3608  0.2957
  731MOL0     C98593  -2.920   2.130  11.207  0.3075  0.6768 -0.5511
  731MOL0     C98594  -3.029   2.238  11.191  0.5409  0.0397 -0.2693
  731MOL0    Cl98595  -2.992   2.380  11.290 -0.3300  0.2873  0.0507
  731MOL0     C98596  -2.030   1.799  10.872  0.1366 -0.4195 -0.0314
  731MOL0     C98597  -1.944   1.710  10.809  0.0595 -0.0416  0.2671
  731MOL0     O98598  -1.856   1.442  10.832 -0.2848  0.1696  0.9680
  731MOL0     C98599  -1.685   1.246  10.753  0.2673  0.5971 -0.4128
  731MOL0     C98600  -1.598   1.143  10.717  0.0160  0.3683  1.3078
  731MOL0     N98601  -0.997   0.755  10.793  0.2645 -0.1312 -0.5427
  731MOL0     N98602  -0.888   0.725  10.864  0.4205 -0.0968 -0.0275
  731MOL0     C98603   0.091   0.012  10.445  0.1337  0.1025  0.0797
  731MOL0     C98604   0.208  -0.046  10.407  0.8057  0.0996 -0.5765
  731MOL0     C98605   0.655  -0.103  10.269  1.0937 -0.3784 -0.0856
  731MOL0     C98606   0.792  -0.090  10.278  0.4605 -0.3468 -0.0230
  731MOL0     C98607   0.879  -0.167  10.202 -0.4974  0.1301  0.0754
  731MOL0     C98608   0.838  -0.261  10.110 -0.3246 -0.0407 -0.4656
  731MOL0     O98609   0.917  -0.338  10.034 -0.4598 -0.4735  0.2339
  731MOL0     C98610   1.057  -0.315  10.007 -0.7593 -0.4846 -0.2497
  731MOL0     C98611   1.099  -0.423   9.908 -0.2852 -0.3980  0.3041
  731MOL0     C98612   1.240  -0.403   9.859  0.3939  0.7347  0.5773
  731MOL0     C98613   1.293  -0.528   9.781  0.1642 -0.7073 -0.6931
  731MOL0     C98614   1.219  -0.553   9.664  0.7511 -0.2554 -1.1475
  731MOL0     C98615   1.148  -0.584   9.570 -0.1837 -0.4062  0.1282
  731MOL0     C98616   0.700  -0.280  10.094  0.1532 -0.2060  0.3486
  731MOL0     C98617   0.607  -0.208  10.181 -0.0926 -0.8411  0.2765
  731MOL0     H98618   0.392   0.234  10.373 -2.3573  1.2402 -2.4158
  731MOL0     H98619   0.183   0.330  10.453 -0.1478 -0.2902 -0.2705
  731MOL0     H98620   0.000   0.402  10.503  0.3788 -0.9068  1.8131
  731MOL0     H98621  -0.087   0.350  10.361  0.6118  3.2892  0.3109
  731MOL0     H98622  -0.268   0.293  10.548  0.7055 -0.7354  0.7695
  731MOL0     H98623  -0.174   0.412  10.639 -3.5332  1.3206  0.7730
  731MOL0     H98624  -0.218   0.583  10.462 -0.0920  0.1797 -1.0178
  731MOL0     H98625  -0.272   0.459  10.351  2.3111 -0.9254  0.6247
  731MOL0     H98626  -0.471   0.579  10.436 -0.4667 -0.7271 -1.8756
  731MOL0     H98627  -0.478   0.407  10.455 -1.8242  0.7417 -0.1113
  731MOL0     H98628  -0.391   0.436  10.695 -1.4766  0.1476  0.2175
  731MOL0     H98629  -0.412   0.617  10.684 -4.0249  1.7786  1.6794
  731MOL0     H98630  -0.664   0.567  10.614 -0.8928  1.8122  2.1759
  731MOL0     H98631  -0.625   0.402  10.659 -1.3446  0.0861 -1.6761
  731MOL0     H98632  -0.709   0.505  10.869  1.9658 -1.1139  3.2885
  731MOL0     H98633  -0.537   0.530  10.884 -1.2352  0.4023  1.8071
  731MOL0     H98634  -0.568   0.760  10.760  0.3116  0.4771  0.8982
  731MOL0     H98635  -0.626   0.747  10.921 -0.3813  1.1727 -0.3163
  731MOL0     H98636  -0.762   0.806  10.562  1.0093 -0.2743  0.7615
  731MOL0     H98637  -0.987   0.915  10.477 -0.1830  1.2498  0.7353
  731MOL0     H98638  -1.089   0.766  10.499 -0.9236  0.6801 -1.1263
  731MOL0     H98639  -1.151   1.033  10.525  0.3285 -0.2516 -0.5888
  731MOL0     H98640  -1.110   0.997  10.685 -3.2663  3.0507 -0.7426
  731MOL0     H98641  -1.257   0.795  10.662 -0.3571  0.9971  1.3123
  731MOL0     H98642  -1.311   0.842  10.505 -0.0557 -2.1676  0.9368
  731MOL0     H98643  -1.351   1.007  10.757  0.8714 -2.2394  0.8240
  731MOL0     H98644  -1.474   0.909  10.669  0.2319  1.3381  0.5904
  731MOL0     H98645  -1.378   1.329  10.526 -0.1794  1.5952 -1.3482
  731MOL0     H98646  -1.398   1.557  10.559  1.0573 -0.8683  2.0271
  731MOL0     H98647  -1.571   1.577  10.521 -0.1778 -0.8713 -1.3927
  731MOL0     H98648  -1.499   1.631  10.674 -0.4261 -2.1051  1.5278
  731MOL0     H98649  -1.660   1.785  10.974  0.7562  0.6570 -0.9642
  731MOL0     H98650  -1.820   1.935  11.091 -0.4701  0.1428  0.3469
  731MOL0     H98651  -2.247   1.873  10.995  2.1548 -1.0870  2.4513
  731MOL0     H98652  -2.236   1.930  11.157 -3.5397 -0.1127 -0.1268
  731MOL0     H98653  -2.263   2.147  11.059  2.5615  0.1735 -1.9993
  731MOL0     H98654  -2.317   2.065  10.904 -1.0801 -0.4753 -0.5440
  731MOL0     H98655  -2.439   1.974  11.156  2.0197  2.8372  1.0299
  731MOL0     H98656  -2.501   1.951  10.988  1.5668 -0.5464  0.3207
  731MOL0     H98657  -2.505   2.197  11.166 -1.4633  1.1356  0.8729
  731MOL0     H98658  -2.545   2.209  11.003  0.8840  1.6564  1.9967
  731MOL0     H98659  -2.658   2.016  11.219  3.5641  1.0925 -0.1842
  731MOL0     H98660  -2.730   2.010  11.059  3.1574  1.2345 -3.4874
  731MOL0     H98661  -2.750   2.250  11.249 -2.3536  1.1379  0.0468
  731MOL0     H98662  -2.793   2.257  11.081 -3.4352 -1.6593 -0.6380
  731MOL0     H98663  -2.920   2.093  11.310  0.8828  0.8910 -0.4719
  731MOL0     H98664  -2.947   2.039  11.154  1.2935  0.0456  0.0015
  731MOL0     H98665  -3.123   2.188  11.215 -0.2323  0.8069 -1.5796
  731MOL0     H98666  -3.019   2.266  11.086  1.3623  0.8582  0.0059
  731MOL0     H98667  -2.129   1.804  10.829  1.1630 -0.6037 -2.6144
  731MOL0     H98668  -1.980   1.642  10.732  0.3544  0.8805 -0.7090
  731MOL0     H98669  -1.777   1.231  10.808 -0.0202 -0.7664 -1.2192
  731MOL0     H98670  -1.633   1.043  10.741 -1.2031  0.2269 -0.7807
  731MOL0     H98671   0.004  -0.053  10.449  1.3781 -1.9180 -2.9205
  731MOL0     H98672   0.210  -0.154  10.397  0.3842 -0.0171  0.5281
  731MOL0     H98673   0.843  -0.020  10.344 -0.0840 -1.4579  1.6301
  731MOL0     H98674   0.986  -0.165  10.223 -0.7352 -0.3587  1.4357
  731MOL0     H98675   1.055  -0.220   9.953 -1.2460  0.0646  0.7066
  731MOL0     H98676   1.126  -0.314  10.092 -1.9009  0.1714  0.6959
  731MOL0     H98677   1.035  -0.426   9.819  0.3869 -1.8744 -0.1439
  731MOL0     H98678   1.085  -0.521   9.953 -0.4045  0.2086  1.6510
  731MOL0     H98679   1.297  -0.391   9.951 -2.3107  3.6823  2.0753
  731MOL0     H98680   1.253  -0.308   9.805  0.3341  0.3678 -0.0985
  731MOL0     H98681   1.296  -0.624   9.833 -0.7349 -2.5533 -3.7917
  731MOL0     H98682   1.398  -0.515   9.752  1.1414 -0.9506  2.3822
  731MOL0     H98683   1.077  -0.601   9.492  0.1253  1.8802 -0.7259
  731MOL0     H98684   0.654  -0.351  10.027 -3.4719  1.8116  0.3925
  731MOL0     H98685   0.500  -0.226  10.181  0.0446 -1.7498 -0.5861
  732MOL0     O98686  10.854   3.355   9.649  0.2772  0.2171  0.2895
  732MOL0     C98687  10.890   3.468   9.630  0.3736 -0.6002 -0.6487
  732MOL0     O98688  10.802   3.579   9.626 -0.1204  0.2208  0.2230
  732MOL0     C98689  10.676   3.587   9.690  0.1103  0.3823  0.2747
  732MOL0     C98690  10.595   3.698   9.663 -0.5205  0.2983  0.0017
  732MOL0     C98691  10.468   3.703   9.718  0.2496 -0.0873  1.4615
  732MOL0     C98692  10.417   3.609   9.811 -0.3312 -0.1665 -0.0605
  732MOL0     O98693  10.293   3.607   9.859 -0.3205  0.2149 -0.4922
  732MOL0     C98694  10.194   3.651   9.765  0.0528 -0.7356 -0.3293
  732MOL0     C98695  10.053   3.615   9.818  0.2706 -0.5358  0.3730
  732MOL0     C98696   9.934   3.676   9.740  0.7514 -0.0179  0.6958
  732MOL0     C98697   9.799   3.634   9.792  0.3062 -0.0501 -0.2017
  732MOL0     C98698   9.709   3.763   9.802 -1.6877 -1.4321  0.2250
  732MOL0     C98699   9.562   3.732   9.788  0.2465  0.1511  0.5146
  732MOL0     C98700   9.488   3.866   9.793  0.8369  1.0718  0.8152
  732MOL0     C98701   9.338   3.844   9.777 -0.7956  0.5019  0.0332
  732MOL0     N98702   9.264   3.970   9.785  0.6471 -0.3580  0.2865
  732MOL0     C98703   9.245   4.049   9.670  0.0147  0.6191 -0.9819
  732MOL0     C98704   9.171   4.152   9.715 -0.0051 -0.0938  0.0307
  732MOL0     C98705   9.124   4.259   9.623  0.6955  0.0870 -1.2668
  732MOL0     C98706   8.991   4.214   9.557  0.1775  0.6890  0.3679
  732MOL0     C98707   8.951   4.338   9.469 -0.0594 -0.4356  0.3742
  732MOL0     C98708   8.853   4.303   9.362  0.1731 -0.4126 -0.2308
  732MOL0     O98709   8.880   4.180   9.295 -0.6965  0.3967 -0.7411
  732MOL0     C98710   8.768   4.125   9.235 -0.0640 -1.0459 -0.6552
  732MOL0     C98711   8.799   3.995   9.201  0.4443  0.6692  0.4101
  732MOL0     C98712   8.707   3.915   9.129 -0.5875 -0.4098  0.3885
  732MOL0     C98713   8.753   3.777   9.103  0.1130  0.0266  0.3206
  732MOL0     C98714   8.578   3.973   9.095  0.1298  0.1723  0.7012
  732MOL0     C98715   8.465   3.908   9.016  0.1194  0.2657 -1.1924
  732MOL0     O98716   8.362   3.989   8.977 -0.2139  0.2423 -0.0512
  732MOL0     C98717   8.268   3.928   8.899 -0.5584 -0.1953 -0.7973
  732MOL0     C98718   8.156   3.862   8.954  0.3656  0.0479  0.9546
  732MOL0     C98719   8.068   3.794   8.871 -0.2107 -0.0282  0.6439
  732MOL0     C98720   8.085   3.787   8.732 -0.6145 -0.4173 -0.8381
  732MOL0     O98721   7.992   3.726   8.641 -0.4981  0.0510  0.2761
  732MOL0     C98722   7.853   3.761   8.657  0.1093 -0.2942 -0.6506
  732MOL0     C98723   7.760   3.687   8.559 -0.7275  0.3891  0.5478
  732MOL0     C98724   7.626   3.756   8.552 -0.7319  0.3478 -0.8605
  732MOL0     C98725   7.530   3.666   8.466 -0.4192 -0.1182  0.2864
  732MOL0     C98726   7.402   3.732   8.445  0.1591 -0.7430 -0.1273
  732MOL0     C98727   7.315   3.670   8.336 -0.4954  0.5994  0.2244
  732MOL0     C98728   7.184   3.749   8.321 -0.2161  0.0032  1.6594
  732MOL0     C98729   7.112   3.684   8.199 -0.5760 -0.5423  0.0028
  732MOL0    Cl98730   7.064   3.518   8.241  0.2016  0.1594  0.2198
  732MOL0     C98731   8.198   3.861   8.680 -0.2394  0.0480  0.6617
  732MOL0     C98732   8.289   3.934   8.762  0.1656 -0.0651  0.7228
  732MOL0     O98733   8.472   3.780   9.009 -0.1770  0.0677 -0.0929
  732MOL0     C98734   8.545   4.101   9.149  0.1705  0.1546  0.5171
  732MOL0     C98735   8.640   4.176   9.213  0.1121 -0.6436 -0.2783
  732MOL0     N98736   9.156   4.135   9.850 -0.9858 -0.1680  0.5180
  732MOL0     N98737   9.212   4.032   9.896 -0.7878  0.2413 -0.9715
  732MOL0     C98738  10.501   3.503   9.840  0.2459 -0.3431 -0.8868
  732MOL0     C98739  10.630   3.494   9.784  1.0165 -0.0007  0.5202
  732MOL0     C98740  11.033   3.504   9.631  0.1577  0.8621  0.2212
  732MOL0     C98741  11.067   3.639   9.628 -0.8946  0.8280  0.7703
  732MOL0     C98742  11.207   3.674   9.624 -0.3537  0.5166  0.6467
  732MOL0     C98743  11.305   3.580   9.603  0.0307  0.2546  0.2698
  732MOL0     O98744  11.428   3.633   9.581 -0.5640 -0.0694 -0.0149
  732MOL0     C98745  11.541   3.547   9.607 -0.0191 -0.0763  0.0833
  732MOL0     C98746  11.663   3.637   9.585 -0.1407  0.2474  0.2123
  732MOL0     C98747  11.790   3.565   9.624 -0.1372 -0.3599  0.0852
  732MOL0     C98748  11.840   3.462   9.516 -0.4973 -0.8118  0.3320
  732MOL0     C98749  11.980   3.422   9.545 -0.0891 -0.2701  0.2678
  732MOL0     C98750  12.088   3.380   9.579  0.2196  0.9678 -0.1572
  732MOL0     C98751  11.275   3.445   9.601  0.9573  0.7406  0.4878
  732MOL0     C98752  11.135   3.407   9.617 -0.8107  0.0344  0.2602
  732MOL0     H98753  10.608   3.773   9.586  0.7200  0.5368  0.4281
  732MOL0     H98754  10.403   3.783   9.684  1.0670  0.2389  0.6434
  732MOL0     H98755  10.208   3.759   9.758 -0.7438 -0.2474  3.2669
  732MOL0     H98756  10.201   3.605   9.666 -2.1046 -0.1166 -0.8188
  732MOL0     H98757  10.042   3.507   9.802  1.7668 -0.6053 -0.4400
  732MOL0     H98758  10.049   3.629   9.926  1.2809 -0.7528  0.4537
  732MOL0     H98759   9.943   3.785   9.741 -1.7852  0.3172 -1.7193
  732MOL0     H98760   9.946   3.654   9.634 -2.4207 -1.6866  0.5600
  732MOL0     H98761   9.759   3.568   9.715 -0.5497 -1.4268  1.3550
  732MOL0     H98762   9.800   3.586   9.890 -1.2028 -0.5203 -0.3970
  732MOL0     H98763   9.738   3.807   9.897  0.4919 -3.5526  0.6290
  732MOL0     H98764   9.734   3.828   9.718 -2.5965  2.2798  2.6002
  732MOL0     H98765   9.534   3.682   9.695 -1.8524 -0.3635  1.3617
  732MOL0     H98766   9.528   3.671   9.872  0.6856 -0.0874  0.5220
  732MOL0     H98767   9.514   3.921   9.884 -0.9898  2.0590  0.7818
  732MOL0     H98768   9.510   3.935   9.711 -0.7652  0.9373  0.2461
  732MOL0     H98769   9.306   3.777   9.857  1.1595 -0.0554  0.4020
  732MOL0     H98770   9.318   3.805   9.677  3.1390  1.0746 -1.1611
  732MOL0     H98771   9.281   4.036   9.569  0.1931  1.6377 -1.0616
  732MOL0     H98772   9.095   4.349   9.678 -0.9743 -0.8061 -0.6154
  732MOL0     H98773   9.200   4.293   9.552  1.1276  1.2697 -0.2842
  732MOL0     H98774   8.927   4.187   9.642  0.8147 -0.5729  0.4787
  732MOL0     H98775   9.012   4.117   9.509 -1.3413 -1.3867  3.5574
  732MOL0     H98776   9.039   4.380   9.420  0.3792 -0.1478  1.3852
  732MOL0     H98777   8.918   4.416   9.538  0.3476 -1.2684  1.5412
  732MOL0     H98778   8.860   4.379   9.284 -1.5525 -0.0956 -0.1084
  732MOL0     H98779   8.752   4.314   9.403 -0.4503 -0.5727 -1.6311
  732MOL0     H98780   8.894   3.960   9.240 -0.1131 -0.7898  0.5334
  732MOL0     H98781   8.682   3.700   9.134 -1.5362  0.8295 -1.3036
  732MOL0     H98782   8.785   3.760   8.999  0.5889 -0.3257  0.5186
  732MOL0     H98783   8.849   3.762   9.153  0.7118 -3.8174 -1.5576
  732MOL0     H98784   8.137   3.871   9.061 -3.2462 -3.2466  0.7921
  732MOL0     H98785   7.985   3.742   8.917 -0.4801 -0.2007 -0.0376
  732MOL0     H98786   7.820   3.730   8.757 -0.9034  2.0686 -0.1913
  732MOL0     H98787   7.835   3.868   8.643  3.1703  0.4740  0.5182
  732MOL0     H98788   7.804   3.691   8.459  0.4469  0.9137  1.0708
  732MOL0     H98789   7.742   3.587   8.598  1.6770  1.0773  3.8343
  732MOL0     H98790   7.638   3.854   8.504 -4.3451  0.8787 -0.9216
  732MOL0     H98791   7.597   3.767   8.657  1.6309  0.3156 -0.1334
  732MOL0     H98792   7.576   3.646   8.369  3.4509 -0.5125  2.0006
  732MOL0     H98793   7.521   3.568   8.514  1.1847 -0.2449  0.3820
  732MOL0     H98794   7.408   3.837   8.415 -2.8438  0.4221  2.6897
  732MOL0     H98795   7.349   3.730   8.540 -1.4376  0.2981 -0.9418
  732MOL0     H98796   7.376   3.674   8.245 -1.7589  0.4352 -0.6556
  732MOL0     H98797   7.291   3.564   8.353 -0.2463  0.9921  3.8373
  732MOL0     H98798   7.211   3.854   8.313  1.2080 -0.2801  2.3675
  732MOL0     H98799   7.110   3.745   8.402 -2.8523 -1.0201 -0.6180
  732MOL0     H98800   7.184   3.688   8.117  2.9375  0.2442  2.8843
  732MOL0     H98801   7.023   3.744   8.176  0.6102  1.6673  0.8275
  732MOL0     H98802   8.219   3.842   8.575  2.0463  0.1942  1.0316
  732MOL0     H98803   8.365   3.995   8.715 -1.2635  1.4955  0.3438
  732MOL0     H98804   8.446   4.146   9.147 -0.4226 -1.0894  0.6306
  732MOL0     H98805   8.607   4.273   9.250  2.9972  0.0061  0.8282
  732MOL0     H98806  10.468   3.424   9.907  0.6455  1.5215  1.6568
  732MOL0     H98807  10.683   3.404   9.811 -0.3422 -0.3224  2.2952
  732MOL0     H98808  11.000   3.724   9.641 -0.9692  1.1859 -1.5814
  732MOL0     H98809  11.229   3.780   9.622  2.4486  0.0127  0.8125
  732MOL0     H98810  11.541   3.504   9.707  1.1093 -0.8051 -0.2045
  732MOL0     H98811  11.556   3.460   9.542 -1.6463  1.3761 -2.3756
  732MOL0     H98812  11.646   3.728   9.644  0.5030  0.6553 -0.2156
  732MOL0     H98813  11.665   3.667   9.480  2.1308 -1.1772 -0.2412
  732MOL0     H98814  11.781   3.518   9.722 -3.3213 -2.6300 -1.1286
  732MOL0     H98815  11.866   3.642   9.639 -0.7233 -0.4786  5.2072
  732MOL0     H98816  11.840   3.495   9.412 -0.1406  0.7275  0.7955
  732MOL0     H98817  11.780   3.371   9.517 -0.0095 -1.1589 -0.7946
  732MOL0     H98818  12.181   3.335   9.605 -1.2435 -0.0939  4.0004
  732MOL0     H98819  11.354   3.370   9.596  1.7022  1.5549 -0.4369
  732MOL0     H98820  11.108   3.302   9.617  0.3813 -0.2886 -0.4024
  733MOL0     O98821   8.482   6.474   5.601 -0.6391  0.2850 -0.1843
  733MOL0     C98822   8.551   6.405   5.670  0.1466  0.1746 -0.3923
  733MOL0     O98823   8.506   6.302   5.744  0.1077  0.1069 -0.0579
  733MOL0     C98824   8.378   6.254   5.713  0.1599 -0.2583 -0.3519
  733MOL0     C98825   8.357   6.141   5.636  0.3322  0.3422  1.0205
  733MOL0     C98826   8.219   6.107   5.611  1.4647 -0.4054  0.0265
  733MOL0     C98827   8.111   6.173   5.675  0.5914 -0.2326 -0.7521
  733MOL0     O98828   7.979   6.134   5.653 -0.3121  0.7185  0.1324
  733MOL0     C98829   7.943   5.999   5.673  0.5152  0.5554  0.6758
  733MOL0     C98830   7.932   5.916   5.546 -0.2244 -0.5748 -0.4370
  733MOL0     C98831   7.843   5.793   5.556 -0.6373  0.4407 -0.3661
  733MOL0     C98832   7.691   5.840   5.518 -0.5048  0.4027 -0.2313
  733MOL0     C98833   7.582   5.741   5.555 -0.3498  0.6904  0.2638
  733MOL0     C98834   7.457   5.808   5.509 -0.2033 -0.5710  0.2539
  733MOL0     C98835   7.343   5.746   5.568  0.5738 -0.0049 -0.5062
  733MOL0     C98836   7.207   5.803   5.519 -0.3108  0.4720 -0.3627
  733MOL0     N98837   7.098   5.715   5.563 -0.4403 -0.3587 -0.6756
  733MOL0     C98838   6.989   5.760   5.633 -0.2759  0.0060  0.1172
  733MOL0     C98839   6.915   5.647   5.663 -0.4550 -0.8803 -0.0893
  733MOL0     C98840   6.786   5.635   5.748 -0.3654  0.4142 -0.3968
  733MOL0     C98841   6.731   5.769   5.806  0.2318 -0.0983  0.0518
  733MOL0     C98842   6.660   5.872   5.713  0.3532 -0.2197  0.2579
  733MOL0     C98843   6.556   5.816   5.624 -0.0525  0.2620 -0.2740
  733MOL0     O98844   6.446   5.772   5.706  0.5081  0.2944  0.5474
  733MOL0     C98845   6.325   5.718   5.652  0.0627 -0.0825  0.5070
  733MOL0     C98846   6.209   5.715   5.730  0.3173 -0.3751 -0.9845
  733MOL0     C98847   6.087   5.667   5.687 -0.3946  0.3600  0.1572
  733MOL0     C98848   5.977   5.674   5.786 -0.0674 -0.1314  0.5923
  733MOL0     C98849   6.086   5.598   5.563  0.8623  0.2446 -0.7666
  733MOL0     C98850   5.975   5.511   5.517  0.4950 -0.2575  0.0353
  733MOL0     O98851   6.003   5.435   5.401 -0.5535  0.0397 -0.3299
  733MOL0     C98852   5.929   5.333   5.343 -0.2180 -0.0366  0.4014
  733MOL0     C98853   5.978   5.281   5.227 -0.2410  1.2181  0.4959
  733MOL0     C98854   5.914   5.183   5.156  1.0092 -0.6292 -0.8643
  733MOL0     C98855   5.779   5.145   5.186 -0.0875  0.4362 -0.4074
  733MOL0     O98856   5.703   5.066   5.099  0.2756 -0.5236 -0.2017
  733MOL0     C98857   5.566   5.044   5.132  0.6638 -0.3274  0.6677
  733MOL0     C98858   5.505   4.948   5.021 -0.3215 -0.8493 -0.9073
  733MOL0     C98859   5.363   4.940   5.044 -0.4505 -1.6339 -0.9436
  733MOL0     C98860   5.295   4.856   4.945  0.7474  0.3353 -1.0652
  733MOL0     C98861   5.156   4.800   4.992  0.5060 -0.6955  0.2461
  733MOL0     C98862   5.070   4.725   4.888 -1.0426 -0.5223  1.0069
  733MOL0     C98863   4.956   4.647   4.953 -1.5056 -0.5811 -0.5239
  733MOL0     C98864   4.858   4.734   5.042 -0.4500 -0.0609  0.5510
  733MOL0    Cl98865   4.754   4.601   5.125 -0.2012 -0.0060 -0.3515
  733MOL0     C98866   5.731   5.198   5.305  0.2860 -1.3449  0.3429
  733MOL0     C98867   5.804   5.288   5.388 -0.2447  0.2997 -0.1307
  733MOL0     O98868   5.868   5.499   5.582 -0.6910 -0.1085  0.4791
  733MOL0     C98869   6.197   5.600   5.484 -0.4922  0.2403  0.6136
  733MOL0     C98870   6.316   5.669   5.521  0.0772  0.0711  0.2507
  733MOL0     N98871   6.980   5.543   5.599  0.2255 -0.0183 -0.0023
  733MOL0     N98872   7.090   5.581   5.545  0.0425  0.3960  0.2402
  733MOL0     C98873   8.138   6.292   5.746 -1.0992 -0.2022  0.2064
  733MOL0     C98874   8.272   6.329   5.765  0.5477  0.5646 -0.3048
  733MOL0     C98875   8.692   6.435   5.696 -0.1801  0.0396  1.3825
  733MOL0     C98876   8.757   6.418   5.816 -0.3334  0.0420  0.0084
  733MOL0     C98877   8.892   6.440   5.829 -0.5543  0.6834  0.1627
  733MOL0     C98878   8.968   6.474   5.718 -0.0672 -0.2671  1.2083
  733MOL0     O98879   9.107   6.501   5.727 -0.1655  0.2695 -0.7619
  733MOL0     C98880   9.187   6.412   5.798 -1.0776 -0.3463 -0.0368
  733MOL0     C98881   9.303   6.348   5.720 -0.3943  0.5246 -0.7007
  733MOL0     C98882   9.425   6.442   5.727  0.9556 -0.4027  0.0689
  733MOL0     C98883   9.532   6.394   5.631  0.3662  0.2146  0.1930
  733MOL0     C98884   9.611   6.285   5.687  0.3035  1.0848 -0.2199
  733MOL0     C98885   9.671   6.202   5.754  0.2017 -0.1753 -0.2197
  733MOL0     C98886   8.905   6.500   5.592  0.9202  0.0599  0.4945
  733MOL0     C98887   8.763   6.481   5.584 -0.6187 -0.2177 -0.2768
  733MOL0     H98888   8.441   6.086   5.595  1.2355  0.7479  2.2888
  733MOL0     H98889   8.202   6.027   5.539 -1.6288  0.6180 -0.5439
  733MOL0     H98890   8.004   5.947   5.747 -0.6300 -3.2580 -0.7970
  733MOL0     H98891   7.842   5.994   5.715 -0.6493 -0.7411 -2.0221
  733MOL0     H98892   7.896   5.986   5.470  0.0607  1.3116  1.1109
  733MOL0     H98893   8.033   5.882   5.522  0.5331  1.1973  0.0928
  733MOL0     H98894   7.866   5.725   5.474 -0.8958  1.3686 -1.2341
  733MOL0     H98895   7.849   5.735   5.648  0.1297 -1.3259 -1.4779
  733MOL0     H98896   7.670   5.937   5.564 -0.8318  0.0582  0.3633
  733MOL0     H98897   7.683   5.845   5.409  1.4573 -0.3697 -0.4539
  733MOL0     H98898   7.593   5.641   5.512 -1.8584  1.9116 -3.3744
  733MOL0     H98899   7.575   5.726   5.663  1.5645  1.7022  0.5616
  733MOL0     H98900   7.466   5.907   5.556 -2.3104  0.6960 -1.7860
  733MOL0     H98901   7.447   5.813   5.400  2.4920 -1.3721 -0.1247
  733MOL0     H98902   7.354   5.640   5.543 -0.5850  0.1148 -1.6623
  733MOL0     H98903   7.347   5.758   5.676  3.4872  1.6652 -0.7070
  733MOL0     H98904   7.195   5.817   5.411  0.5283  1.7850 -0.3105
  733MOL0     H98905   7.201   5.902   5.566  1.2982  0.6986 -0.5660
  733MOL0     H98906   6.962   5.863   5.655  0.6409  0.2206  0.2736
  733MOL0     H98907   6.702   5.580   5.704 -1.3193  0.7563  0.9506
  733MOL0     H98908   6.828   5.569   5.824  1.1927  1.9120  0.1026
  733MOL0     H98909   6.812   5.830   5.849 -0.4530  2.4802 -2.0076
  733MOL0     H98910   6.655   5.744   5.880 -1.6611  0.9515 -1.4545
  733MOL0     H98911   6.732   5.914   5.641  0.3748 -1.6519 -0.5931
  733MOL0     H98912   6.614   5.953   5.771 -3.6166  0.4188 -3.2645
  733MOL0     H98913   6.589   5.734   5.559  0.0525  0.4410 -0.4466
  733MOL0     H98914   6.531   5.900   5.558  2.8030  1.7933  0.4381
  733MOL0     H98915   6.219   5.764   5.826 -1.7596 -0.4098 -0.7002
  733MOL0     H98916   5.937   5.575   5.809 -1.9325  0.7794  1.4704
  733MOL0     H98917   6.006   5.713   5.885  1.0952 -2.3087  1.1816
  733MOL0     H98918   5.897   5.732   5.741 -0.0980  0.1241  0.9694
  733MOL0     H98919   6.077   5.319   5.201  1.8067 -1.6567  3.2901
  733MOL0     H98920   5.961   5.144   5.067  1.9737  0.3988 -0.8271
  733MOL0     H98921   5.550   4.988   5.225 -1.0431  2.8501  2.4621
  733MOL0     H98922   5.516   5.141   5.135 -1.7495 -1.1925 -3.5405
  733MOL0     H98923   5.533   4.978   4.920 -0.5404 -1.8641 -1.2834
  733MOL0     H98924   5.559   4.853   5.023  0.3820 -0.4837 -1.8109
  733MOL0     H98925   5.328   5.043   5.034  0.6804 -1.2840 -1.5294
  733MOL0     H98926   5.352   4.902   5.146  2.5508 -1.9759 -0.6342
  733MOL0     H98927   5.288   4.912   4.851  1.9151  2.3850  0.0145
  733MOL0     H98928   5.355   4.767   4.922  2.6728  1.1794  0.3781
  733MOL0     H98929   5.099   4.886   5.031 -0.6948  0.2350 -3.1787
  733MOL0     H98930   5.178   4.732   5.075 -1.8504 -1.9778 -0.0936
  733MOL0     H98931   5.030   4.804   4.825 -0.9444  0.3898  2.0591
  733MOL0     H98932   5.127   4.655   4.826 -3.3988 -1.5146 -0.1548
  733MOL0     H98933   5.010   4.567   5.004  2.3095  0.5763 -2.3112
  733MOL0     H98934   4.895   4.607   4.872  0.1890 -1.8226 -1.2548
  733MOL0     H98935   4.799   4.797   4.975 -0.2145 -2.6766 -2.3369
  733MOL0     H98936   4.912   4.800   5.112 -0.6473 -0.0675  0.7105
  733MOL0     H98937   5.634   5.159   5.332 -0.1545 -1.5857 -1.4807
  733MOL0     H98938   5.757   5.316   5.482 -0.7377 -0.1350 -0.2435
  733MOL0     H98939   6.207   5.552   5.387  2.3553 -1.6404  1.6927
  733MOL0     H98940   6.397   5.666   5.449 -0.6683  2.1316 -0.7843
  733MOL0     H98941   8.061   6.352   5.792 -1.3886 -0.8152  0.5321
  733MOL0     H98942   8.301   6.418   5.820 -1.3033  0.5213  0.8095
  733MOL0     H98943   8.705   6.373   5.899 -3.6627  2.5055 -0.5317
  733MOL0     H98944   8.945   6.415   5.920  1.7639  0.5399 -1.1295
  733MOL0     H98945   9.224   6.461   5.888 -2.9687 -0.6084  0.9286
  733MOL0     H98946   9.124   6.327   5.827  1.2789 -2.1019  0.2506
  733MOL0     H98947   9.258   6.327   5.622 -2.9744  0.8111  0.3324
  733MOL0     H98948   9.331   6.251   5.760  2.8234  0.9185 -1.7336
  733MOL0     H98949   9.461   6.437   5.830 -2.2553 -1.8427  1.2550
  733MOL0     H98950   9.396   6.547   5.715 -1.5607 -0.9263  1.0042
  733MOL0     H98951   9.605   6.472   5.611 -0.0577 -0.4826 -5.7617
  733MOL0     H98952   9.489   6.359   5.536 -0.1477  0.0951  0.4628
  733MOL0     H98953   9.720   6.134   5.822  0.6966 -3.6752 -3.6889
  733MOL0     H98954   8.950   6.539   5.501 -1.4437  1.8709 -0.0046
  733MOL0     H98955   8.708   6.492   5.491  1.0360 -2.4501 -1.6055
  734MOL0     O98956   4.374   2.795   3.010 -0.4970 -0.1242 -0.2644
  734MOL0     C98957   4.389   2.741   3.121 -0.6254  0.9045 -0.6529
  734MOL0     O98958   4.323   2.769   3.234 -0.7062  0.5403  0.3390
  734MOL0     C98959   4.216   2.860   3.233  0.2653  0.0017  0.5282
  734MOL0     C98960   4.215   2.990   3.188 -0.8017 -0.2444 -0.5891
  734MOL0     C98961   4.102   3.068   3.200 -1.3802  0.1677  0.1471
  734MOL0     C98962   3.987   3.023   3.261  0.4913  0.3992 -0.3296
  734MOL0     O98963   3.873   3.110   3.282 -0.2166  0.3298  0.0303
  734MOL0     C98964   3.854   3.233   3.211  0.7198  0.2963 -0.5283
  734MOL0     C98965   3.717   3.270   3.268  0.2375 -0.5126  0.9083
  734MOL0     C98966   3.671   3.403   3.203  0.3156 -0.4472 -0.6189
  734MOL0     C98967   3.523   3.445   3.240 -0.0863 -0.0173  0.0384
  734MOL0     C98968   3.477   3.577   3.177  0.4286 -0.0152 -0.3811
  734MOL0     C98969   3.469   3.566   3.022 -0.3901 -0.3494  0.2446
  734MOL0     C98970   3.393   3.697   2.972  0.4437  0.0037  0.1737
  734MOL0     C98971   3.242   3.707   3.004  0.2447 -0.5803 -0.0707
  734MOL0     N98972   3.168   3.619   2.916 -0.2046  0.1173  0.7280
  734MOL0     C98973   3.134   3.492   2.951 -0.6517 -0.5767 -0.4737
  734MOL0     C98974   3.055   3.449   2.854  0.1902  0.1267  0.1448
  734MOL0     C98975   2.997   3.312   2.835  0.6897 -0.5029 -0.7556
  734MOL0     C98976   2.925   3.248   2.952  0.5942  0.0767 -0.5489
  734MOL0     C98977   2.889   3.105   2.926  0.6965  2.0327 -0.7078
  734MOL0     C98978   2.794   3.065   2.807  0.0216  0.0629 -0.1366
  734MOL0     O98979   2.737   2.940   2.845  0.1054 -0.4328  0.3892
  734MOL0     C98980   2.632   2.923   2.938 -0.4139 -1.1829  0.2299
  734MOL0     C98981   2.549   3.032   2.974  0.6140 -0.6925 -0.0506
  734MOL0     C98982   2.421   3.012   3.043  0.4308 -0.2871  0.5294
  734MOL0     C98983   2.331   3.128   3.088  0.1040 -0.7527 -0.0405
  734MOL0     C98984   2.393   2.879   3.087 -0.4954  0.8400 -0.1596
  734MOL0     C98985   2.275   2.839   3.176  0.1165 -0.6858  0.4881
  734MOL0     O98986   2.266   2.705   3.218  0.0105  0.5252 -0.7314
  734MOL0     C98987   2.142   2.669   3.277  0.0992  0.5143  0.3061
  734MOL0     C98988   2.013   2.708   3.235 -0.3374  0.4893  0.0265
  734MOL0     C98989   1.896   2.665   3.310 -0.1956 -0.2005  0.3328
  734MOL0     C98990   1.909   2.584   3.424 -0.0434  0.8800 -0.2973
  734MOL0     O98991   1.811   2.529   3.509 -0.7858 -0.4331 -0.1519
  734MOL0     C98992   1.677   2.560   3.473 -0.6230  0.0792  0.6995
  734MOL0     C98993   1.599   2.458   3.539 -0.2645  0.2074 -1.0534
  734MOL0     C98994   1.475   2.435   3.456  0.0351 -1.0193 -0.4156
  734MOL0     C98995   1.389   2.323   3.523 -0.7652 -0.5000 -0.6689
  734MOL0     C98996   1.256   2.304   3.461  0.3283 -0.1387 -0.3842
  734MOL0     C98997   1.210   2.175   3.505 -0.4136 -0.1532 -0.4230
  734MOL0     C98998   1.070   2.143   3.464  0.6896  0.4845  0.3733
  734MOL0     C98999   1.011   2.003   3.521  0.3041 -0.5059  0.5437
  734MOL0    Cl99000   0.836   2.019   3.538  0.0967  0.3255  0.0323
  734MOL0     C99001   2.041   2.548   3.460  0.1649 -0.6820  0.6972
  734MOL0     C99002   2.153   2.585   3.380 -0.0173  0.6017 -0.0837
  734MOL0     O99003   2.188   2.924   3.194 -0.7213 -0.8813  0.7674
  734MOL0     C99004   2.490   2.774   3.052  1.3504  0.4263 -1.1436
  734MOL0     C99005   2.609   2.797   2.990  0.1626  0.2469  0.8830
  734MOL0     N99006   3.046   3.550   2.763 -0.8330 -0.1972  0.0434
  734MOL0     N99007   3.108   3.655   2.802  0.4024  0.7258 -0.3999
  734MOL0     C99008   3.985   2.895   3.307 -0.3694  0.1954 -0.0639
  734MOL0     C99009   4.099   2.815   3.301 -0.2358 -0.3594 -0.0123
  734MOL0     C99010   4.471   2.627   3.132  0.5277  0.4010  0.7398
  734MOL0     C99011   4.581   2.609   3.032  0.0221  0.6665  0.2238
  734MOL0     C99012   4.658   2.491   3.035 -0.1510  0.0408 -0.2792
  734MOL0     C99013   4.638   2.390   3.133 -0.3430  1.1329  0.4124
  734MOL0     O99014   4.731   2.286   3.137  0.9524 -0.2651  0.3250
  734MOL0     C99015   4.681   2.159   3.162  0.1390  0.7094  0.2966
  734MOL0     C99016   4.709   2.053   3.055 -0.3692  0.7024  0.3515
  734MOL0     C99017   4.848   2.061   2.994 -0.5134 -0.3194  0.0082
  734MOL0     C99018   4.966   2.047   3.088 -0.4292  0.3509 -0.1560
  734MOL0     C99019   4.982   1.912   3.141 -0.4871  0.4298 -1.2021
  734MOL0     C99020   5.006   1.806   3.199 -0.3417 -0.7733  0.4513
  734MOL0     C99021   4.529   2.403   3.231  0.4084 -0.3838  0.6973
  734MOL0     C99022   4.456   2.527   3.237 -0.1452  0.6925 -0.3881
  734MOL0     H99023   4.302   3.030   3.138 -0.6184  3.4983  2.2838
  734MOL0     H99024   4.103   3.170   3.164 -1.0838  1.5225  3.5914
  734MOL0     H99025   3.937   3.304   3.221  1.1060 -0.4017  1.6689
  734MOL0     H99026   3.843   3.208   3.105  0.4524  0.0624 -0.4470
  734MOL0     H99027   3.651   3.185   3.247  0.9659 -1.4047  2.0893
  734MOL0     H99028   3.730   3.280   3.377  3.0387 -1.0027  0.6759
  734MOL0     H99029   3.745   3.474   3.241  0.1287 -1.2327  1.3252
  734MOL0     H99030   3.673   3.394   3.094 -1.8692  2.2265 -0.9933
  734MOL0     H99031   3.461   3.359   3.211  1.2396 -0.4604 -1.6543
  734MOL0     H99032   3.510   3.462   3.347 -4.3038 -1.6255  0.0105
  734MOL0     H99033   3.373   3.589   3.207 -0.1479 -3.1646 -0.7920
  734MOL0     H99034   3.533   3.663   3.214  1.7209 -1.6503  1.7195
  734MOL0     H99035   3.568   3.576   2.976 -1.2875  2.8203 -1.2448
  734MOL0     H99036   3.418   3.478   2.981  1.6092 -1.5504  0.2105
  734MOL0     H99037   3.445   3.786   3.010  0.3155  0.2155 -0.1447
  734MOL0     H99038   3.403   3.692   2.863  0.5884 -1.2311  0.2334
  734MOL0     H99039   3.217   3.810   2.975 -1.9730 -0.8187  0.8609
  734MOL0     H99040   3.217   3.693   3.109 -0.3102  1.5823  0.1469
  734MOL0     H99041   3.160   3.442   3.044 -4.2133  0.5291  1.2772
  734MOL0     H99042   2.931   3.315   2.747  1.0272  0.0956 -0.9997
  734MOL0     H99043   3.080   3.249   2.803  1.3219  0.9571 -2.1286
  734MOL0     H99044   2.834   3.303   2.980 -0.1457 -1.6653  0.6225
  734MOL0     H99045   2.988   3.256   3.041 -1.0441 -1.3509  0.7854
  734MOL0     H99046   2.852   3.067   3.022 -0.8326  2.7796 -0.9638
  734MOL0     H99047   2.987   3.064   2.901 -0.1170 -1.5102  1.1436
  734MOL0     H99048   2.854   3.055   2.716  0.3942 -0.2215  0.1423
  734MOL0     H99049   2.714   3.139   2.794 -0.1579 -0.2419 -0.8412
  734MOL0     H99050   2.566   3.130   2.931  1.1149 -0.6855  0.1603
  734MOL0     H99051   2.382   3.221   3.062 -0.7755 -0.9463 -2.7423
  734MOL0     H99052   2.232   3.134   3.041 -0.0078 -0.8440  0.1817
  734MOL0     H99053   2.332   3.129   3.197 -1.7173  3.2128  0.1023
  734MOL0     H99054   1.989   2.770   3.149  1.8875 -0.0191 -1.0422
  734MOL0     H99055   1.803   2.711   3.277  1.5924  4.0489  0.5505
  734MOL0     H99056   1.646   2.661   3.502 -0.7491 -0.0967  1.1992
  734MOL0     H99057   1.658   2.557   3.366  1.8899  0.2639  0.1857
  734MOL0     H99058   1.658   2.366   3.542  1.1990  1.0397 -2.5980
  734MOL0     H99059   1.585   2.482   3.644  2.8266  0.2604 -0.5559
  734MOL0     H99060   1.504   2.413   3.353 -0.6022  1.6520 -1.2409
  734MOL0     H99061   1.421   2.530   3.451 -0.2843 -1.1699  0.1201
  734MOL0     H99062   1.448   2.232   3.509 -1.7707 -1.3684  0.5114
  734MOL0     H99063   1.386   2.337   3.632  3.4336  1.8818 -0.6485
  734MOL0     H99064   1.265   2.298   3.352  3.9296  2.7045 -0.4362
  734MOL0     H99065   1.195   2.389   3.490  1.7989  0.5898  0.7461
  734MOL0     H99066   1.271   2.100   3.454  3.0053  1.6367  0.6853
  734MOL0     H99067   1.217   2.173   3.614  3.5705  0.8747 -0.5021
  734MOL0     H99068   1.049   2.150   3.357 -0.2690  0.0115  0.5207
  734MOL0     H99069   1.010   2.225   3.505 -0.9729 -1.1655  1.4136
  734MOL0     H99070   1.053   1.985   3.621 -0.0461 -0.4173  0.7092
  734MOL0     H99071   1.032   1.919   3.454  2.5240  1.2700 -1.1671
  734MOL0     H99072   2.047   2.492   3.553 -2.7107 -0.3476  1.1478
  734MOL0     H99073   2.250   2.549   3.411 -0.6401 -2.2215 -1.0835
  734MOL0     H99074   2.471   2.673   3.088 -0.2195  1.5354  1.4159
  734MOL0     H99075   2.672   2.713   2.961 -5.4250 -3.6002 -1.8368
  734MOL0     H99076   3.902   2.840   3.351  0.6297 -2.0324 -0.7996
  734MOL0     H99077   4.099   2.714   3.342 -0.4328 -0.7808 -1.0235
  734MOL0     H99078   4.595   2.667   2.942  1.3631 -2.4615 -1.7836
  734MOL0     H99079   4.731   2.485   2.955  1.6880  3.1132  0.9921
  734MOL0     H99080   4.726   2.124   3.256 -0.1781 -0.2390  0.1117
  734MOL0     H99081   4.573   2.154   3.175 -0.0072  0.2296 -1.0085
  734MOL0     H99082   4.632   2.077   2.980 -1.4523 -0.4838  1.0452
  734MOL0     H99083   4.686   1.954   3.095 -2.7673  0.4898 -1.2915
  734MOL0     H99084   4.863   2.156   2.942 -1.9579 -0.2802 -0.3796
  734MOL0     H99085   4.860   1.979   2.922  2.4653  0.9488 -1.0817
  734MOL0     H99086   4.963   2.116   3.173 -0.8338  2.6152 -1.9108
  734MOL0     H99087   5.057   2.069   3.031 -1.3914  0.0393 -1.8837
  734MOL0     H99088   5.024   1.717   3.255 -1.5808  0.1205  2.3549
  734MOL0     H99089   4.498   2.337   3.312  0.4628 -0.8668  0.3250
  734MOL0     H99090   4.384   2.548   3.315 -1.2455 -1.8488 -0.6359
  735MOL0     O99091   5.299   5.333   7.682 -0.2337 -0.4483 -0.1137
  735MOL0     C99092   5.365   5.409   7.750  0.6518 -0.3631  0.6764
  735MOL0     O99093   5.317   5.522   7.809 -0.0126 -0.0954 -0.2522
  735MOL0     C99094   5.180   5.550   7.799 -0.3193 -0.2651  0.5618
  735MOL0     C99095   5.146   5.684   7.767 -0.5711 -0.0802 -0.4098
  735MOL0     C99096   5.012   5.722   7.779 -0.1121  0.1520  0.1712
  735MOL0     C99097   4.910   5.634   7.806 -0.4690 -0.1197  0.6040
  735MOL0     O99098   4.776   5.680   7.801  0.7356  0.3672  0.2328
  735MOL0     C99099   4.681   5.602   7.873 -0.4601 -0.6164  0.1048
  735MOL0     C99100   4.559   5.684   7.914  0.3380  0.5365  0.9042
  735MOL0     C99101   4.596   5.803   8.011  0.5821 -1.2778 -0.6102
  735MOL0     C99102   4.498   5.920   7.985 -0.1572  0.8200  0.0391
  735MOL0     C99103   4.365   5.892   8.033 -0.1298  0.4964  0.2259
  735MOL0     C99104   4.276   6.017   8.029 -0.2380 -0.1841 -0.1291
  735MOL0     C99105   4.148   5.988   8.102  0.3189  0.5432 -0.8966
  735MOL0     C99106   4.061   5.912   8.004 -0.4320 -0.0758  0.3393
  735MOL0     N99107   3.937   5.857   8.068 -0.4544 -0.7889  0.4578
  735MOL0     C99108   3.823   5.932   8.109 -0.4444  0.5720 -1.2510
  735MOL0     C99109   3.755   5.860   8.201  0.7113  0.7934  0.5094
  735MOL0     C99110   3.641   5.890   8.280 -0.0608  0.0798 -0.5480
  735MOL0     C99111   3.541   5.771   8.285 -0.0680  0.7643  0.0968
  735MOL0     C99112   3.404   5.816   8.354  0.5040  0.4522  0.0571
  735MOL0     C99113   3.286   5.739   8.301  0.2240 -0.2877 -0.1144
  735MOL0     O99114   3.165   5.809   8.339  0.3148  0.5160 -0.3780
  735MOL0     C99115   3.048   5.738   8.364  0.4167  0.6045 -0.1754
  735MOL0     C99116   2.933   5.802   8.414 -0.4655 -0.4332  0.3982
  735MOL0     C99117   2.809   5.735   8.434 -0.7440  0.0264 -1.2205
  735MOL0     C99118   2.701   5.828   8.487 -0.3490 -0.0052  0.4825
  735MOL0     C99119   2.787   5.605   8.387 -0.5199 -0.4670  0.6544
  735MOL0     C99120   2.661   5.525   8.401  1.3029 -0.8353  0.2911
  735MOL0     O99121   2.554   5.581   8.464 -0.0551 -0.4550 -0.0801
  735MOL0     C99122   2.437   5.507   8.471  0.7934 -0.6219 -0.7491
  735MOL0     C99123   2.362   5.482   8.358 -0.5640  0.2246 -0.1313
  735MOL0     C99124   2.245   5.414   8.366  0.1509  0.1099  0.2688
  735MOL0     C99125   2.206   5.363   8.489 -0.0716 -0.1501  0.3287
  735MOL0     O99126   2.099   5.277   8.484  0.0014  0.1785  0.0715
  735MOL0     C99127   2.006   5.269   8.591  0.3741  0.1754 -0.2093
  735MOL0     C99128   1.902   5.158   8.570  0.0542  0.0837 -0.8677
  735MOL0     C99129   1.837   5.153   8.427  0.4573  0.5662  0.2390
  735MOL0     C99130   1.752   5.277   8.418  0.1549 -0.0375  0.2184
  735MOL0     C99131   1.719   5.292   8.265  0.3816  0.9268 -0.0187
  735MOL0     C99132   1.624   5.405   8.236 -0.0906 -0.3535 -0.1201
  735MOL0     C99133   1.576   5.411   8.085  0.2491  0.2504  0.6816
  735MOL0     C99134   1.516   5.544   8.058  0.4244  0.4055  0.2731
  735MOL0    Cl99135   1.368   5.581   8.153  0.1769  0.2919 -0.0705
  735MOL0     C99136   2.283   5.391   8.605  0.4655 -0.1755 -0.6076
  735MOL0     C99137   2.396   5.465   8.595 -0.5295 -1.4511  0.3680
  735MOL0     O99138   2.663   5.411   8.361 -0.1526 -0.0093  0.1306
  735MOL0     C99139   2.901   5.543   8.325  0.0723 -0.1070  0.1133
  735MOL0     C99140   3.029   5.610   8.315  0.1458 -0.0240  0.2145
  735MOL0     N99141   3.828   5.747   8.216  0.1108 -0.2539 -0.6040
  735MOL0     N99142   3.938   5.749   8.149 -0.2410  0.4822  0.8980
  735MOL0     C99143   4.945   5.495   7.826 -0.5862  1.2204 -0.4722
  735MOL0     C99144   5.081   5.454   7.818 -0.1119  0.0095  0.4478
  735MOL0     C99145   5.508   5.376   7.784 -0.6491  0.5350  0.2284
  735MOL0     C99146   5.584   5.288   7.711  0.2593 -0.3554 -0.1240
  735MOL0     C99147   5.707   5.255   7.751 -0.5632  1.4729 -0.2049
  735MOL0     C99148   5.770   5.315   7.858  0.3138 -0.5785  1.1254
  735MOL0     O99149   5.907   5.291   7.871 -0.2801 -0.1679  0.7601
  735MOL0     C99150   5.976   5.337   7.984 -0.4895  0.7807 -0.0209
  735MOL0     C99151   6.108   5.256   8.017  0.9067 -0.1295 -0.3278
  735MOL0     C99152   6.217   5.308   7.923 -0.7029  0.8500  0.1388
  735MOL0     C99153   6.353   5.249   7.976  0.0175  0.0044 -0.0016
  735MOL0     C99154   6.397   5.313   8.099  0.4375  0.2079 -0.4261
  735MOL0     C99155   6.426   5.389   8.191 -0.9960 -0.2883 -0.3444
  735MOL0     C99156   5.695   5.400   7.938  0.6577  0.0520  0.5246
  735MOL0     C99157   5.566   5.428   7.899 -0.2881 -0.7412 -0.1594
  735MOL0     H99158   5.218   5.759   7.736 -2.9015  2.7879  0.6092
  735MOL0     H99159   4.987   5.824   7.753  1.0476  0.7873  1.4298
  735MOL0     H99160   4.647   5.518   7.811  0.4432  0.7352 -2.3374
  735MOL0     H99161   4.732   5.565   7.962 -1.8675 -3.1907 -0.0660
  735MOL0     H99162   4.511   5.715   7.821  1.8425 -0.8353 -0.3838
  735MOL0     H99163   4.486   5.616   7.958  1.0857  0.5749  2.2792
  735MOL0     H99164   4.590   5.780   8.118  1.3409  3.7485  0.7635
  735MOL0     H99165   4.698   5.839   7.993  0.6062 -0.8640  0.2929
  735MOL0     H99166   4.537   6.003   8.044  0.8032 -0.5013  1.3210
  735MOL0     H99167   4.497   5.932   7.876 -1.6222 -0.9669 -0.1881
  735MOL0     H99168   4.315   5.808   7.983  0.2616 -0.6942  1.7701
  735MOL0     H99169   4.366   5.849   8.134  2.2577 -1.3628 -0.4944
  735MOL0     H99170   4.312   6.107   8.080 -1.1618 -1.5098  3.0862
  735MOL0     H99171   4.252   6.032   7.923  0.3449 -1.8309 -0.5327
  735MOL0     H99172   4.167   5.921   8.186  3.4502  1.3953 -0.8046
  735MOL0     H99173   4.089   6.075   8.133  0.8291 -0.4701  3.7360
  735MOL0     H99174   4.115   5.835   7.948  1.6351  2.2481 -1.1180
  735MOL0     H99175   4.033   5.975   7.919  0.7110 -0.7839 -0.5912
  735MOL0     H99176   3.797   6.036   8.090  1.5009  1.4472  0.4982
  735MOL0     H99177   3.687   5.910   8.377 -2.2680  0.1624  0.5447
  735MOL0     H99178   3.593   5.979   8.239 -0.1091 -0.4064 -1.5627
  735MOL0     H99179   3.578   5.690   8.348 -2.4055 -0.2317  0.2922
  735MOL0     H99180   3.523   5.730   8.185 -0.6763  1.8695 -0.2631
  735MOL0     H99181   3.391   5.921   8.325  1.4810  0.3070 -0.9866
  735MOL0     H99182   3.412   5.816   8.463 -2.1789 -1.1182  0.3413
  735MOL0     H99183   3.290   5.634   8.332 -1.1708  0.0283  1.2992
  735MOL0     H99184   3.291   5.732   8.192 -1.1674  1.0273 -0.3139
  735MOL0     H99185   2.954   5.902   8.450  1.6418 -0.3389 -0.9353
  735MOL0     H99186   2.683   5.820   8.595  0.0670  2.3596  0.7845
  735MOL0     H99187   2.731   5.930   8.460 -2.7527  0.3933 -1.0406
  735MOL0     H99188   2.615   5.812   8.422  2.3701  1.3296 -3.8171
  735MOL0     H99189   2.406   5.516   8.265  1.5900 -0.7644  0.4811
  735MOL0     H99190   2.189   5.411   8.274 -1.0915  2.1573  0.8930
  735MOL0     H99191   2.061   5.236   8.680 -0.5083  0.0660  0.3141
  735MOL0     H99192   1.956   5.365   8.603  0.5295  0.2362 -0.0445
  735MOL0     H99193   1.950   5.064   8.597 -0.3031  0.4472  1.2409
  735MOL0     H99194   1.822   5.175   8.643 -0.0334  1.6782 -1.2974
  735MOL0     H99195   1.776   5.063   8.416  0.7927  0.4093 -0.4021
  735MOL0     H99196   1.925   5.158   8.361  1.8230  0.0519  1.9374
  735MOL0     H99197   1.661   5.254   8.474  0.3981 -1.2864  0.1398
  735MOL0     H99198   1.791   5.374   8.448  0.0718  0.2367 -0.5220
  735MOL0     H99199   1.670   5.196   8.245 -0.4766  1.4263 -0.3879
  735MOL0     H99200   1.811   5.293   8.206 -0.8616  0.7610 -2.0832
  735MOL0     H99201   1.537   5.387   8.299 -0.1107 -0.0470 -0.0563
  735MOL0     H99202   1.669   5.501   8.263 -2.8275  0.9986 -0.0420
  735MOL0     H99203   1.503   5.330   8.073  0.6863 -0.4741  2.5292
  735MOL0     H99204   1.657   5.396   8.012 -1.2167  1.8250 -1.3737
  735MOL0     H99205   1.493   5.551   7.951 -1.1579 -0.1444  0.5476
  735MOL0     H99206   1.597   5.615   8.074  3.1249 -2.2004 -0.9009
  735MOL0     H99207   2.252   5.352   8.701  1.8376 -0.2261 -0.1751
  735MOL0     H99208   2.453   5.490   8.684 -2.2642  0.5398  1.0118
  735MOL0     H99209   2.883   5.445   8.283  0.8365  0.1174 -0.7778
  735MOL0     H99210   3.106   5.557   8.260  1.1965  0.6460  0.9966
  735MOL0     H99211   4.869   5.422   7.851  0.0878  0.7105  0.1009
  735MOL0     H99212   5.110   5.350   7.832 -2.0977 -0.5692  0.5862
  735MOL0     H99213   5.528   5.254   7.624 -1.7626  1.7442  0.2471
  735MOL0     H99214   5.765   5.181   7.697 -0.2455  1.5304  0.0575
  735MOL0     H99215   5.997   5.444   7.979 -2.4509  1.2697  1.0291
  735MOL0     H99216   5.921   5.330   8.079 -0.0087  2.7832  0.4607
  735MOL0     H99217   6.080   5.150   8.012 -2.7285  0.7126 -0.5654
  735MOL0     H99218   6.132   5.274   8.122 -0.8972 -0.7221  0.2291
  735MOL0     H99219   6.218   5.418   7.920 -1.0853  0.8990  1.4635
  735MOL0     H99220   6.182   5.269   7.827  1.8547  0.3395 -0.6729
  735MOL0     H99221   6.429   5.277   7.902  1.6604  0.3972  1.7569
  735MOL0     H99222   6.355   5.140   7.978  0.6384  0.0044 -0.4899
  735MOL0     H99223   6.455   5.466   8.259  3.4296 -0.1430 -2.1090
  735MOL0     H99224   5.736   5.451   8.024 -1.7921  0.5190  1.4829
  735MOL0     H99225   5.507   5.500   7.956  0.5785  1.2674 -1.6814
  736MOL0     O99226   9.399   7.017   8.371 -0.1036  0.0993  0.4360
  736MOL0     C99227   9.515   7.018   8.352 -0.8975 -1.1214 -0.0759
  736MOL0     O99228   9.593   7.122   8.310  0.3276  0.2363 -0.3976
  736MOL0     C99229   9.541   7.248   8.303  0.5839 -0.1468  0.2031
  736MOL0     C99230   9.463   7.298   8.412  0.5264  0.1073 -0.0965
  736MOL0     C99231   9.409   7.426   8.405 -0.1252  0.2449  0.2998
  736MOL0     C99232   9.433   7.509   8.296  0.3034 -0.3417  0.4216
  736MOL0     O99233   9.367   7.630   8.298 -0.4187  0.0593  0.1169
  736MOL0     C99234   9.323   7.675   8.160 -0.6005  0.1955 -0.3632
  736MOL0     C99235   9.194   7.760   8.174 -0.1061 -0.0109 -0.0573
  736MOL0     C99236   9.135   7.774   8.028  0.4251  1.1072 -1.1933
  736MOL0     C99237   8.994   7.815   8.029 -0.3764  0.4666 -0.1841
  736MOL0     C99238   8.948   7.833   7.882 -0.0861  0.1328 -0.1637
  736MOL0     C99239   8.819   7.907   7.881 -0.1939 -1.1970 -0.2294
  736MOL0     C99240   8.755   7.932   7.745 -0.3565 -0.1858 -0.4846
  736MOL0     C99241   8.711   7.805   7.669  0.7897 -0.3000 -0.2688
  736MOL0     N99242   8.590   7.738   7.732  0.6148 -0.3187 -0.9811
  736MOL0     C99243   8.459   7.729   7.682  0.1221  0.1035 -0.6538
  736MOL0     C99244   8.390   7.648   7.772 -0.7234 -1.2209  1.2305
  736MOL0     C99245   8.248   7.612   7.746 -0.1565  0.4988  0.2122
  736MOL0     C99246   8.216   7.457   7.771 -0.5020  0.5790  0.6129
  736MOL0     C99247   8.265   7.394   7.899 -0.8329 -0.8133 -0.1058
  736MOL0     C99248   8.159   7.307   7.963  0.0244 -0.2014  0.4316
  736MOL0     O99249   8.146   7.188   7.885 -0.6439 -0.2866 -0.0349
  736MOL0     C99250   8.030   7.113   7.890  0.1599  0.3482 -0.6227
  736MOL0     C99251   7.924   7.148   7.974  0.6055  0.5027  0.2919
  736MOL0     C99252   7.800   7.074   7.968  0.8561 -0.8912 -0.3457
  736MOL0     C99253   7.682   7.146   8.038  0.2427 -1.2594  0.0971
  736MOL0     C99254   7.791   6.963   7.877 -0.1292  0.9571  0.3423
  736MOL0     C99255   7.675   6.870   7.866  0.0964 -0.6022 -0.6331
  736MOL0     O99256   7.577   6.883   7.965  0.8381 -0.7400  0.5513
  736MOL0     C99257   7.464   6.803   7.949 -0.7667  0.6844 -0.0890
  736MOL0     C99258   7.473   6.664   7.970 -0.2189 -1.7344 -0.0848
  736MOL0     C99259   7.364   6.586   7.974  0.2308  0.4834  0.6865
  736MOL0     C99260   7.241   6.642   7.954 -1.3419 -0.4892  1.0952
  736MOL0     O99261   7.136   6.565   7.937  0.0935 -0.6305 -0.3316
  736MOL0     C99262   7.082   6.521   8.065 -0.4265 -0.1367 -0.5423
  736MOL0     C99263   6.959   6.601   8.119  0.2010 -0.8222  0.5513
  736MOL0     C99264   6.827   6.574   8.047 -0.4679  0.4928 -0.1232
  736MOL0     C99265   6.788   6.427   8.017 -1.1133  0.2976 -0.5444
  736MOL0     C99266   6.641   6.409   7.975  0.0399 -0.2293  0.1200
  736MOL0     C99267   6.540   6.416   8.091  0.4483  0.2311 -0.3829
  736MOL0     C99268   6.395   6.427   8.038 -0.4311  0.0795 -0.0463
  736MOL0     C99269   6.310   6.466   8.156 -0.0434  0.0130 -0.1149
  736MOL0    Cl99270   6.161   6.526   8.095 -0.0113 -0.3331 -0.1890
  736MOL0     C99271   7.231   6.778   7.922  0.3150 -0.9735 -0.1781
  736MOL0     C99272   7.346   6.860   7.913 -0.1658  0.7683 -0.3992
  736MOL0     O99273   7.663   6.806   7.766  0.6240  0.6092  0.4086
  736MOL0     C99274   7.902   6.937   7.800 -0.4227 -0.7578 -0.1138
  736MOL0     C99275   8.015   7.006   7.811 -0.5205 -0.3342  0.5196
  736MOL0     N99276   8.479   7.610   7.868  0.5006  0.2292 -0.3993
  736MOL0     N99277   8.587   7.675   7.860 -1.1601 -0.5829 -0.1936
  736MOL0     C99278   9.526   7.468   8.205  0.1831 -0.3980 -0.3253
  736MOL0     C99279   9.573   7.338   8.201 -0.4736 -0.3831 -0.2065
  736MOL0     C99280   9.576   6.889   8.378  0.3934  0.5913  0.4722
  736MOL0     C99281   9.503   6.771   8.405  0.0103  0.0442  0.7912
  736MOL0     C99282   9.570   6.658   8.456  0.1931 -0.6312  0.6101
  736MOL0     C99283   9.710   6.655   8.450  0.6734  0.3795 -0.3841
  736MOL0     O99284   9.786   6.547   8.470 -0.9698 -0.1837 -0.1141
  736MOL0     C99285   9.889   6.549   8.579  0.3352 -0.3175  0.4339
  736MOL0     C99286   9.901   6.418   8.657  0.8403 -0.4406 -0.5674
  736MOL0     C99287   9.940   6.292   8.575  0.4445  0.5736  0.5805
  736MOL0     C99288  10.089   6.311   8.537 -0.5391 -0.2047 -0.4177
  736MOL0     C99289  10.160   6.188   8.489  0.1144  0.1224 -1.4602
  736MOL0     C99290  10.196   6.081   8.444 -0.1424  0.4482 -0.1836
  736MOL0     C99291   9.782   6.774   8.411 -0.2871 -0.6688  0.4008
  736MOL0     C99292   9.720   6.892   8.389 -0.9512  0.5010 -0.1872
  736MOL0     H99293   9.449   7.229   8.494 -1.3406 -0.8584 -1.1632
  736MOL0     H99294   9.346   7.465   8.484 -2.1937 -2.5923  0.2213
  736MOL0     H99295   9.401   7.736   8.112 -0.6154  0.5415  0.0492
  736MOL0     H99296   9.305   7.591   8.092 -2.4404 -2.2350  2.8556
  736MOL0     H99297   9.127   7.703   8.240  0.5278 -1.9965 -1.0299
  736MOL0     H99298   9.205   7.856   8.224  3.1797  0.1808 -0.9106
  736MOL0     H99299   9.199   7.850   7.982 -0.0384  0.9107 -2.1991
  736MOL0     H99300   9.140   7.676   7.978  0.4721  0.5349 -0.0991
  736MOL0     H99301   8.939   7.741   8.088 -0.6310  0.4352 -0.4597
  736MOL0     H99302   8.991   7.915   8.073 -0.9293  1.2606 -1.9399
  736MOL0     H99303   9.021   7.894   7.826 -0.1592  0.1932 -0.1929
  736MOL0     H99304   8.935   7.744   7.821 -1.6688  0.2726 -0.0601
  736MOL0     H99305   8.753   7.856   7.952 -1.6247 -1.6020 -1.7852
  736MOL0     H99306   8.839   8.008   7.918 -1.6062 -0.0519 -2.3813
  736MOL0     H99307   8.673   8.003   7.752  0.3445  0.7666 -1.5694
  736MOL0     H99308   8.835   7.975   7.683  2.2365 -0.5936  2.3351
  736MOL0     H99309   8.791   7.731   7.669  1.5871  0.5419 -1.0231
  736MOL0     H99310   8.690   7.832   7.565  0.0936 -3.8816 -1.1881
  736MOL0     H99311   8.425   7.775   7.590  0.6778  1.3691 -0.2376
  736MOL0     H99312   8.185   7.663   7.820 -1.1133  1.8348 -1.4755
  736MOL0     H99313   8.206   7.642   7.650 -0.6931 -2.1799 -0.4658
  736MOL0     H99314   8.261   7.406   7.685 -0.0896  2.0403 -0.0769
  736MOL0     H99315   8.108   7.440   7.771 -0.2886 -0.9949  2.5946
  736MOL0     H99316   8.303   7.469   7.970  2.8309 -1.5318 -1.1149
  736MOL0     H99317   8.347   7.328   7.870 -0.4573 -0.8091  0.9220
  736MOL0     H99318   8.064   7.361   7.958  0.0049 -0.3571 -1.9984
  736MOL0     H99319   8.174   7.281   8.068  2.3845  0.6293  0.3448
  736MOL0     H99320   7.909   7.241   8.027 -2.1475  0.8565 -0.9508
  736MOL0     H99321   7.594   7.159   7.973  1.0367  3.4314 -0.4239
  736MOL0     H99322   7.653   7.094   8.130  0.1092 -2.3924 -0.5646
  736MOL0     H99323   7.711   7.244   8.076  0.0211 -1.1090 -0.1152
  736MOL0     H99324   7.562   6.607   7.994 -0.7117 -1.7414  1.9078
  736MOL0     H99325   7.380   6.479   7.982  0.7237  0.2356 -2.4591
  736MOL0     H99326   7.051   6.417   8.070  0.1443 -0.2317  1.8382
  736MOL0     H99327   7.156   6.544   8.142 -3.4328  1.4495  2.0784
  736MOL0     H99328   6.952   6.587   8.228  4.6316 -2.7404  0.8272
  736MOL0     H99329   6.978   6.707   8.103 -2.1329 -0.0546  2.2975
  736MOL0     H99330   6.831   6.618   7.947 -1.4581 -1.1398 -0.9224
  736MOL0     H99331   6.746   6.626   8.099  0.5879  0.4954  1.6035
  736MOL0     H99332   6.847   6.396   7.931 -0.2882 -0.0809  0.1452
  736MOL0     H99333   6.830   6.367   8.098  0.6643  1.3270 -0.6506
  736MOL0     H99334   6.628   6.310   7.930 -0.8726 -0.4544  0.8266
  736MOL0     H99335   6.613   6.483   7.899  2.8002 -0.0949 -0.8765
  736MOL0     H99336   6.546   6.325   8.150 -0.1722  1.4722  1.6906
  736MOL0     H99337   6.567   6.506   8.147 -0.8933  0.3363  0.1325
  736MOL0     H99338   6.369   6.331   7.994 -0.9769  0.7448 -1.2369
  736MOL0     H99339   6.388   6.505   7.961  2.0631 -1.1580 -1.6324
  736MOL0     H99340   6.366   6.552   8.194  0.3570  0.0851 -0.8489
  736MOL0     H99341   6.300   6.387   8.231  1.7151 -0.0417  0.1136
  736MOL0     H99342   7.139   6.834   7.908 -0.5158 -1.8779  1.3679
  736MOL0     H99343   7.345   6.965   7.885  1.8909  0.2087 -2.9954
  736MOL0     H99344   7.889   6.859   7.725 -3.1888 -0.8728  0.3712
  736MOL0     H99345   8.102   6.987   7.750 -0.8625 -1.1466  0.2689
  736MOL0     H99346   9.556   7.534   8.124 -0.6838 -1.1659 -1.3040
  736MOL0     H99347   9.629   7.301   8.116 -1.9527 -0.3255 -1.2504
  736MOL0     H99348   9.395   6.768   8.397  0.0969  0.4031 -0.8974
  736MOL0     H99349   9.522   6.561   8.467  0.8382 -0.8588  1.5641
  736MOL0     H99350   9.988   6.572   8.539 -0.4336  1.1069 -0.8103
  736MOL0     H99351   9.868   6.634   8.645  0.7100  0.9573 -1.0235
  736MOL0     H99352   9.801   6.403   8.699  1.0262  1.2900  0.5760
  736MOL0     H99353   9.962   6.427   8.747 -0.4449  0.5053  0.2397
  736MOL0     H99354   9.871   6.257   8.497  2.4484 -2.1347 -0.1273
  736MOL0     H99355   9.931   6.207   8.642  3.6867 -0.9354 -0.6629
  736MOL0     H99356  10.141   6.342   8.628  0.6032  3.6118 -2.1604
  736MOL0     H99357  10.095   6.397   8.469 -0.7752  1.1515  1.2142
  736MOL0     H99358  10.243   5.994   8.402 -0.1606  1.1477 -1.7498
  736MOL0     H99359   9.890   6.769   8.414  0.0981  2.7633 -2.0507
  736MOL0     H99360   9.770   6.988   8.381  0.8298 -0.2853  1.0317
  737MOL0     O99361  10.877   6.321  10.805 -0.2521  0.0615 -0.3535
  737MOL0     C99362  10.931   6.422  10.769 -0.3478  0.1458 -0.5497
  737MOL0     O99363  10.871   6.527  10.714  0.4121  0.0182 -0.2242
  737MOL0     C99364  10.737   6.542  10.719 -0.0212 -0.4342 -0.0086
  737MOL0     C99365  10.642   6.460  10.656 -0.3053 -0.6778 -1.2009
  737MOL0     C99366  10.505   6.506  10.663  0.5459  0.9053  0.5455
  737MOL0     C99367  10.455   6.625  10.724 -0.3366 -0.5425 -0.6944
  737MOL0     O99368  10.323   6.676  10.730 -0.9462 -0.0472 -0.2182
  737MOL0     C99369  10.211   6.588  10.713  0.2920  0.5847  0.4912
  737MOL0     C99370  10.139   6.624  10.584 -0.3558  0.1783 -0.2574
  737MOL0     C99371   9.983   6.603  10.605 -0.4968  0.0259  0.7788
  737MOL0     C99372   9.913   6.601  10.466  0.4537 -0.3442 -0.0943
  737MOL0     C99373   9.902   6.738  10.407  0.6776 -0.5777  0.2599
  737MOL0     C99374   9.822   6.723  10.271 -0.6443  0.5476 -0.4027
  737MOL0     C99375   9.818   6.849  10.188 -0.7800  0.0629  0.3791
  737MOL0     C99376   9.752   6.823  10.053  0.1632 -0.8912  0.1931
  737MOL0     N99377   9.612   6.785  10.063 -0.2241  0.2674 -0.2464
  737MOL0     C99378   9.546   6.665  10.044 -0.0873  0.6401  0.5268
  737MOL0     C99379   9.412   6.692  10.044  0.3956  0.3169 -1.3470
  737MOL0     C99380   9.317   6.584  10.007  0.4215  0.0184  1.2722
  737MOL0     C99381   9.178   6.651   9.974  0.1537  0.3423  0.4063
  737MOL0     C99382   9.100   6.701  10.093  0.0803  0.9009 -0.0405
  737MOL0     C99383   8.955   6.716  10.062 -0.1042 -0.3710 -0.2069
  737MOL0     O99384   8.891   6.586  10.065 -0.2354 -0.7022 -0.1447
  737MOL0     C99385   8.759   6.577  10.066 -0.1879 -0.2861 -0.3766
  737MOL0     C99386   8.679   6.694  10.056  0.4416  0.5051  0.1967
  737MOL0     C99387   8.538   6.683  10.043 -0.2287  0.0700  0.8101
  737MOL0     C99388   8.469   6.811  10.025  0.0591 -0.6706 -0.1433
  737MOL0     C99389   8.475   6.553  10.058 -0.8117 -0.1032  0.4807
  737MOL0     C99390   8.324   6.528  10.053 -0.9666  0.4079  0.3436
  737MOL0     O99391   8.235   6.632  10.033  0.1706 -0.1609  0.6183
  737MOL0     C99392   8.099   6.619  10.043  0.7990 -0.6018 -0.2330
  737MOL0     C99393   8.024   6.560  10.154 -0.1994  0.2190  0.5121
  737MOL0     C99394   7.892   6.557  10.162  0.5887  0.3153 -0.5486
  737MOL0     C99395   7.817   6.625  10.066  0.5379  0.2336  0.4183
  737MOL0     O99396   7.679   6.625  10.057 -0.0837 -0.4282 -0.6480
  737MOL0     C99397   7.598   6.572  10.162  0.2665 -0.6544 -0.2755
  737MOL0     C99398   7.461   6.653  10.178  0.1022  0.2867  0.2054
  737MOL0     C99399   7.359   6.589  10.088 -0.2463 -0.3557 -0.7720
  737MOL0     C99400   7.244   6.692  10.077 -0.4069  0.1478 -0.9608
  737MOL0     C99401   7.145   6.659   9.960 -0.1745  0.0313  0.2812
  737MOL0     C99402   7.048   6.769   9.924  0.2354 -0.3260 -0.6876
  737MOL0     C99403   6.966   6.754   9.796  0.1947  0.2482  1.0561
  737MOL0     C99404   6.845   6.668   9.822  0.4855 -0.0579  0.0182
  737MOL0    Cl99405   6.720   6.741   9.940 -0.2477  0.1798 -0.0709
  737MOL0     C99406   7.885   6.686   9.952  0.9288  0.0284  0.9029
  737MOL0     C99407   8.022   6.681   9.946 -0.1749 -0.3229 -0.7184
  737MOL0     O99408   8.286   6.415  10.066  0.5573 -0.0853 -0.0498
  737MOL0     C99409   8.557   6.442  10.079 -0.0611 -0.1946  0.5440
  737MOL0     C99410   8.699   6.457  10.075 -0.7295  0.9461 -0.1795
  737MOL0     N99411   9.402   6.829  10.060  0.4706  0.2504 -0.6333
  737MOL0     N99412   9.518   6.886  10.069  0.0409 -0.0889 -0.0500
  737MOL0     C99413  10.555   6.700  10.781 -0.3785  0.6422 -0.0444
  737MOL0     C99414  10.692   6.667  10.776 -0.1031 -0.1092 -1.1158
  737MOL0     C99415  11.074   6.434  10.791 -0.9012 -0.1646 -0.2918
  737MOL0     C99416  11.160   6.521  10.714  0.5888  0.0683 -0.4824
  737MOL0     C99417  11.295   6.523  10.736 -1.0665  0.2586 -0.1146
  737MOL0     C99418  11.350   6.449  10.842  0.4380  0.4076  0.3052
  737MOL0     O99419  11.484   6.430  10.864 -0.0255 -0.0649 -0.4901
  737MOL0     C99420  11.571   6.503  10.775  0.4600  0.4623 -0.8908
  737MOL0     C99421  11.714   6.464  10.786 -0.3733 -0.1577  0.0780
  737MOL0     C99422  11.789   6.571  10.863 -0.0853  0.1685 -0.1689
  737MOL0     C99423  11.924   6.524  10.913 -0.5519  0.3427  0.9214
  737MOL0     C99424  12.015   6.473  10.805  0.1345  0.5678  0.1542
  737MOL0     C99425  12.101   6.429  10.723  0.0723  0.3272 -0.2044
  737MOL0     C99426  11.271   6.377  10.929 -1.2845 -0.8305 -0.2162
  737MOL0     C99427  11.131   6.368  10.905 -0.8340 -0.1050 -0.4608
  737MOL0     H99428  10.674   6.369  10.607 -0.8655  0.0143 -2.9465
  737MOL0     H99429  10.433   6.446  10.609 -0.0483  0.8507  1.3657
  737MOL0     H99430  10.245   6.485  10.702 -0.7570  0.2501  0.2684
  737MOL0     H99431  10.150   6.591  10.804 -0.4383  0.5133  0.0176
  737MOL0     H99432  10.142   6.728  10.552  0.1436 -0.1080 -1.1693
  737MOL0     H99433  10.173   6.558  10.503 -1.6052 -2.8313  1.4903
  737MOL0     H99434   9.967   6.500  10.638 -0.3770 -0.5645 -0.9339
  737MOL0     H99435   9.938   6.678  10.671 -1.0256  0.3401  0.0671
  737MOL0     H99436   9.969   6.532  10.403  2.7065  0.0596  1.3620
  737MOL0     H99437   9.810   6.570  10.484 -0.7916  3.6790  0.8383
  737MOL0     H99438   9.844   6.806  10.471  0.4242  0.9356 -1.5111
  737MOL0     H99439   9.996   6.784  10.374 -0.3993  0.8669 -0.9106
  737MOL0     H99440   9.866   6.645  10.209 -2.1957  0.0407 -0.9225
  737MOL0     H99441   9.720   6.688  10.291 -0.7049  1.6397  1.4013
  737MOL0     H99442   9.754   6.918  10.245  0.4061 -0.2881  2.2198
  737MOL0     H99443   9.919   6.889  10.176 -1.2513  1.6679  1.4983
  737MOL0     H99444   9.806   6.742  10.004  1.2380 -0.8469  1.2588
  737MOL0     H99445   9.765   6.914   9.993  0.9423 -2.7155 -2.5666
  737MOL0     H99446   9.595   6.569  10.030 -0.7352 -0.1294  2.9903
  737MOL0     H99447   9.358   6.521   9.928 -0.5759 -0.5291  1.1733
  737MOL0     H99448   9.300   6.519  10.093 -0.3720  0.6984  1.6447
  737MOL0     H99449   9.123   6.571   9.922 -0.3402  0.4119  0.8203
  737MOL0     H99450   9.195   6.731   9.901  0.8755 -0.1194  0.0539
  737MOL0     H99451   9.143   6.798  10.121  3.4737 -0.1361 -1.0879
  737MOL0     H99452   9.101   6.633  10.179  1.3535 -1.0660 -1.5019
  737MOL0     H99453   8.938   6.766   9.966  2.0623  2.3457  0.6676
  737MOL0     H99454   8.909   6.777  10.140  1.1572  0.2643  0.0780
  737MOL0     H99455   8.716   6.796  10.060 -0.4325  0.8800 -0.6964
  737MOL0     H99456   8.369   6.818  10.069 -0.4690  2.7549 -1.5885
  737MOL0     H99457   8.523   6.893  10.074 -2.4317 -0.3441  2.2708
  737MOL0     H99458   8.464   6.841   9.920  2.1865  0.7431  0.0950
  737MOL0     H99459   8.099   6.511  10.216 -0.1113  0.4654  0.6028
  737MOL0     H99460   7.839   6.506  10.241 -0.8467  1.5301 -0.6711
  737MOL0     H99461   7.583   6.463  10.158 -1.3823 -0.4423 -0.8214
  737MOL0     H99462   7.653   6.599  10.253  0.3275  0.3978 -0.6122
  737MOL0     H99463   7.427   6.665  10.281 -1.7908 -0.7484 -0.2606
  737MOL0     H99464   7.474   6.755  10.142  0.9686 -0.4851 -1.8372
  737MOL0     H99465   7.321   6.498  10.136 -1.6800  0.7937  0.3657
  737MOL0     H99466   7.403   6.565   9.991 -1.3640 -0.3677 -1.2990
  737MOL0     H99467   7.187   6.701  10.170  0.2337 -1.0752 -0.4259
  737MOL0     H99468   7.286   6.791  10.054  0.4650  0.2473  0.8792
  737MOL0     H99469   7.094   6.566   9.986 -0.0588  0.1163  0.8275
  737MOL0     H99470   7.209   6.647   9.873  3.2046 -0.1351  2.5870
  737MOL0     H99471   6.980   6.793  10.006  2.2189  1.4959  0.5405
  737MOL0     H99472   7.112   6.858   9.914 -0.9850  0.6351 -0.2507
  737MOL0     H99473   7.014   6.702   9.712 -1.9016  0.0739 -0.0919
  737MOL0     H99474   6.935   6.856   9.773 -1.3494 -0.3077  0.5546
  737MOL0     H99475   6.874   6.573   9.868  0.0296  0.7931  2.1710
  737MOL0     H99476   6.802   6.651   9.723 -0.2152 -0.2760  0.3513
  737MOL0     H99477   7.830   6.736   9.872  0.7161 -2.0476 -0.3138
  737MOL0     H99478   8.068   6.721   9.857  0.3647 -0.3759 -0.4664
  737MOL0     H99479   8.511   6.345  10.088 -1.4416  0.4664  0.8290
  737MOL0     H99480   8.748   6.363  10.094  0.4023  1.4171 -0.6726
  737MOL0     H99481  10.531   6.797  10.822  1.7575  1.0054  0.4439
  737MOL0     H99482  10.766   6.726  10.830 -1.5627  2.3401 -1.6966
  737MOL0     H99483  11.111   6.577  10.635 -0.0382  1.8617  1.1052
  737MOL0     H99484  11.349   6.574  10.657  1.3220 -1.4590  0.2970
  737MOL0     H99485  11.542   6.468  10.675 -0.4447 -0.6697 -0.2583
  737MOL0     H99486  11.549   6.610  10.781 -0.7600  0.2511 -1.3066
  737MOL0     H99487  11.772   6.460  10.693  1.6175  2.8975  1.0454
  737MOL0     H99488  11.708   6.372  10.845 -1.9445  1.0477  1.9233
  737MOL0     H99489  11.729   6.598  10.950  2.0080 -0.6013  1.5793
  737MOL0     H99490  11.803   6.660  10.800  0.1542  0.3527  0.1426
  737MOL0     H99491  11.900   6.443  10.982 -0.3817 -2.7090 -2.3734
  737MOL0     H99492  11.968   6.599  10.980  1.7746  1.9595 -2.1533
  737MOL0     H99493  12.175   6.386  10.659 -2.5556 -1.9888 -1.9561
  737MOL0     H99494  11.321   6.318  11.005 -0.1862 -0.1217 -0.3662
  737MOL0     H99495  11.070   6.315  10.978 -0.4914 -0.5009 -0.4563
  738MOL0     O99496   0.692  10.087   1.732 -0.2974  0.5467  0.4788
  738MOL0     C99497   0.674  10.206   1.748 -0.3745 -0.2762  0.3992
  738MOL0     O99498   0.556  10.259   1.776 -0.3256 -0.7907 -0.4234
  738MOL0     C99499   0.444  10.182   1.772 -0.2336  0.8423 -0.3855
  738MOL0     C99500   0.412  10.118   1.651  0.0696  0.2207  0.0753
  738MOL0     C99501   0.285  10.055   1.647 -1.2133 -0.0009  0.8966
  738MOL0     C99502   0.195  10.062   1.754  0.2451 -0.4000 -0.0438
  738MOL0     O99503   0.071  10.013   1.730 -1.0436  0.0629 -0.2808
  738MOL0     C99504   0.043   9.883   1.788  0.3166  0.9458 -0.1501
  738MOL0     C99505   0.106   9.754   1.725 -0.9808  0.3033  0.4406
  738MOL0     C99506   0.070   9.744   1.581  0.1070 -0.2597  0.3210
  738MOL0     C99507   0.141   9.637   1.495  0.0568 -0.4770  0.1194
  738MOL0     C99508   0.082   9.619   1.345 -0.2453 -0.2594 -0.2327
  738MOL0     C99509  -0.077   9.601   1.344 -1.0691  0.0343  0.7369
  738MOL0     C99510  -0.127   9.590   1.201 -0.0589  0.2176 -0.0252
  738MOL0     C99511  -0.279   9.582   1.202  0.3357 -0.6405 -0.2240
  738MOL0     N99512  -0.336   9.501   1.090 -0.8214 -0.5457 -0.6950
  738MOL0     C99513  -0.346   9.551   0.966 -0.1496 -0.1939  0.6396
  738MOL0     C99514  -0.403   9.464   0.889 -0.0538 -0.2705  0.2006
  738MOL0     C99515  -0.463   9.493   0.752  0.2103  0.1700 -0.7683
  738MOL0     C99516  -0.594   9.577   0.759 -1.1698 -0.2102  1.4018
  738MOL0     C99517  -0.704   9.505   0.840  1.1275 -0.0263  0.4170
  738MOL0     C99518  -0.834   9.577   0.834  0.3519  0.0814  0.8969
  738MOL0     O99519  -0.820   9.703   0.907  0.2751  0.2907  0.0522
  738MOL0     C99520  -0.923   9.795   0.890 -0.2202 -0.0938  0.2774
  738MOL0     C99521  -0.891   9.914   0.952  0.1283  0.1373 -0.3061
  738MOL0     C99522  -0.973  10.028   0.943  0.1543 -0.8997 -0.1895
  738MOL0     C99523  -0.940  10.161   1.012  0.0509  0.2376  0.5681
  738MOL0     C99524  -1.103  10.016   0.885  0.3402 -0.9147  0.0371
  738MOL0     C99525  -1.214  10.117   0.881 -1.0332 -0.3201 -0.3368
  738MOL0     O99526  -1.336  10.075   0.926 -0.7007 -0.6870  0.2102
  738MOL0     C99527  -1.432  10.172   0.920  0.5455  0.4254  0.2227
  738MOL0     C99528  -1.546  10.141   0.837 -0.4381 -0.3027 -0.3122
  738MOL0     C99529  -1.647  10.237   0.828  0.4708 -0.6188  0.3795
  738MOL0     C99530  -1.643  10.351   0.913  0.1446 -0.3962 -0.3735
  738MOL0     O99531  -1.736  10.443   0.889  0.9360  0.7464 -0.6056
  738MOL0     C99532  -1.788  10.520   0.997 -0.2445 -0.2674  0.3758
  738MOL0     C99533  -1.845  10.430   1.112  0.1102 -0.0964 -0.3640
  738MOL0     C99534  -1.878  10.508   1.241 -0.0489 -0.0250  0.1248
  738MOL0     C99535  -1.751  10.540   1.315 -0.5046  0.2671 -0.0265
  738MOL0     C99536  -1.779  10.609   1.441  0.4024  0.4131 -0.0902
  738MOL0     C99537  -1.824  10.748   1.421  0.2402  0.3725 -0.6673
  738MOL0     C99538  -1.792  10.842   1.530 -0.4833 -0.5436 -0.6440
  738MOL0     C99539  -1.853  10.980   1.498  1.3533 -0.6342 -0.0435
  738MOL0    Cl99540  -2.027  10.970   1.437 -0.2273 -0.0610  0.0469
  738MOL0     C99541  -1.536  10.371   0.994 -0.5325 -0.0608 -0.4759
  738MOL0     C99542  -1.433  10.282   1.007  0.5921 -0.2041  0.5167
  738MOL0     O99543  -1.195  10.232   0.833 -0.4492  0.7014 -0.1995
  738MOL0     C99544  -1.130   9.900   0.815  0.3993  0.2762  0.2461
  738MOL0     C99545  -1.045   9.785   0.816 -0.4818 -0.4058  0.5706
  738MOL0     N99546  -0.406   9.344   0.960 -0.2522  0.5013 -0.0522
  738MOL0     N99547  -0.364   9.372   1.077  0.5619 -0.2592 -0.6029
  738MOL0     C99548   0.227  10.132   1.863  0.5238 -0.4535 -0.1515
  738MOL0     C99549   0.353  10.189   1.880 -1.0917  0.5926  0.3760
  738MOL0     C99550   0.803  10.283   1.758  0.8825 -0.2356 -0.5658
  738MOL0     C99551   0.806  10.405   1.838 -0.3551 -0.4568  0.1034
  738MOL0     C99552   0.921  10.475   1.856 -0.0919 -0.1000 -0.2483
  738MOL0     C99553   1.042  10.419   1.815 -0.1562 -0.1192  1.0674
  738MOL0     O99554   1.157  10.483   1.833  0.2335  0.1292 -0.1196
  738MOL0     C99555   1.165  10.611   1.895 -0.1482 -0.2468 -0.2925
  738MOL0     C99556   1.296  10.679   1.888 -0.8579  0.1605 -0.2017
  738MOL0     C99557   1.311  10.829   1.936  0.2161  0.8459  0.4126
  738MOL0     C99558   1.449  10.888   1.930  0.4234 -0.6518 -0.4487
  738MOL0     C99559   1.467  10.921   1.788  0.4503  0.3023  0.0033
  738MOL0     C99560   1.478  10.974   1.679  0.5632  0.0691 -1.3608
  738MOL0     C99561   1.042  10.306   1.732 -0.3020  0.7193  0.7779
  738MOL0     C99562   0.927  10.231   1.710 -0.6234 -0.3958 -0.3170
  738MOL0     H99563   0.485  10.118   1.571  0.5978  1.3792  0.5374
  738MOL0     H99564   0.250   9.997   1.562  0.8696  0.4415 -0.3388
  738MOL0     H99565   0.052   9.881   1.897 -1.9610 -1.6069  0.1156
  738MOL0     H99566  -0.063   9.860   1.780  0.7697 -3.3749  2.7906
  738MOL0     H99567   0.214   9.750   1.737 -0.5519  1.2880 -2.3241
  738MOL0     H99568   0.057   9.668   1.771  1.3718 -2.4557 -1.8275
  738MOL0     H99569  -0.036   9.716   1.577  0.5231 -1.9330  0.3347
  738MOL0     H99570   0.084   9.836   1.524  1.7484  0.1927  1.3890
  738MOL0     H99571   0.248   9.651   1.477  0.3687  1.1433  2.6440
  738MOL0     H99572   0.122   9.545   1.551  2.1963  0.1216  1.9614
  738MOL0     H99573   0.115   9.704   1.285 -0.0074  1.5821  2.3315
  738MOL0     H99574   0.113   9.519   1.312 -2.7205 -2.2447  2.7845
  738MOL0     H99575  -0.097   9.515   1.408 -0.5284  0.1119  1.0097
  738MOL0     H99576  -0.139   9.684   1.381 -2.9924 -0.1418 -1.8085
  738MOL0     H99577  -0.098   9.685   1.155 -1.1405  0.1656 -0.8700
  738MOL0     H99578  -0.081   9.502   1.155 -0.9783  0.2393 -1.0279
  738MOL0     H99579  -0.325   9.680   1.185  0.0183 -0.8123 -0.3696
  738MOL0     H99580  -0.314   9.537   1.296  0.3783  2.4792  1.3962
  738MOL0     H99581  -0.326   9.653   0.932 -2.1530  0.1193  0.3036
  738MOL0     H99582  -0.391   9.544   0.687  1.1483 -0.9709 -0.6387
  738MOL0     H99583  -0.480   9.399   0.700 -0.5192  1.0389 -2.1791
  738MOL0     H99584  -0.636   9.589   0.659 -0.6178  1.1609  1.3046
  738MOL0     H99585  -0.567   9.676   0.797 -0.9684 -0.4795  1.9783
  738MOL0     H99586  -0.665   9.492   0.941  2.4625  1.3095  0.1246
  738MOL0     H99587  -0.726   9.407   0.797  1.6075 -0.1198  0.3733
  738MOL0     H99588  -0.913   9.517   0.880  1.0291 -0.0772  1.8864
  738MOL0     H99589  -0.860   9.583   0.728  1.2899 -0.4067  0.6293
  738MOL0     H99590  -0.800   9.931   1.008  1.3364  1.4055 -2.5162
  738MOL0     H99591  -0.876  10.146   1.100 -1.5818  1.2170  2.0007
  738MOL0     H99592  -0.902  10.232   0.937  0.9465  0.7667  1.4874
  738MOL0     H99593  -1.037  10.198   1.045 -0.1801  1.4905 -1.3709
  738MOL0     H99594  -1.531  10.054   0.775  3.2528 -0.9128  1.1880
  738MOL0     H99595  -1.730  10.220   0.761  0.5611  0.4636 -0.0235
  738MOL0     H99596  -1.709  10.580   1.043 -0.2148  0.5410 -0.6978
  738MOL0     H99597  -1.852  10.600   0.959  0.1131 -1.2211 -2.4616
  738MOL0     H99598  -1.938  10.380   1.081 -0.2570  0.2037  0.2279
  738MOL0     H99599  -1.778  10.349   1.142 -0.9528  0.4193  4.1508
  738MOL0     H99600  -1.935  10.439   1.303  0.2769 -1.6253 -1.2814
  738MOL0     H99601  -1.931  10.599   1.210 -0.2920 -0.7860 -1.8252
  738MOL0     H99602  -1.690  10.454   1.340  1.8322  2.3231  1.8628
  738MOL0     H99603  -1.690  10.602   1.249 -3.2005  1.1684 -1.8780
  738MOL0     H99604  -1.688  10.601   1.502  0.8803  3.0400 -0.3301
  738MOL0     H99605  -1.863  10.560   1.490 -0.2329  0.0015 -1.5492
  738MOL0     H99606  -1.770  10.782   1.332 -0.5716  1.7727 -0.6645
  738MOL0     H99607  -1.933  10.741   1.411 -0.0623  0.5822  1.8115
  738MOL0     H99608  -1.683  10.846   1.522 -0.5185 -0.6992 -1.2153
  738MOL0     H99609  -1.812  10.800   1.630  1.3877 -2.9313 -1.1974
  738MOL0     H99610  -1.783  11.027   1.429  1.8597 -1.8295 -0.3723
  738MOL0     H99611  -1.848  11.043   1.587  1.3298  3.1442 -2.5095
  738MOL0     H99612  -1.533  10.461   1.054 -0.2268 -1.0144  0.9721
  738MOL0     H99613  -1.354  10.305   1.078  2.9867  0.1811 -2.1171
  738MOL0     H99614  -1.226   9.892   0.765  1.0581 -2.6612 -0.7537
  738MOL0     H99615  -1.091   9.707   0.756  0.5476 -0.2229 -0.4900
  738MOL0     H99616   0.164  10.134   1.951  2.0893  2.1765  1.0311
  738MOL0     H99617   0.390  10.247   1.964 -0.3025  1.9866 -0.8832
  738MOL0     H99618   0.708  10.441   1.870 -1.5617 -2.0440 -1.5685
  738MOL0     H99619   0.922  10.571   1.906  2.6972  1.1696 -2.4165
  738MOL0     H99620   1.092  10.685   1.862 -2.3879 -2.0305  0.3906
  738MOL0     H99621   1.142  10.604   2.002 -0.2256 -0.2426 -0.3089
  738MOL0     H99622   1.328  10.668   1.784 -0.4742  2.1091 -0.3247
  738MOL0     H99623   1.365  10.628   1.956  0.3344  1.3324 -0.4916
  738MOL0     H99624   1.272  10.839   2.037 -1.3250  2.5295 -0.2975
  738MOL0     H99625   1.246  10.896   1.878  0.1409 -0.7388 -1.4587
  738MOL0     H99626   1.525  10.813   1.955 -0.5870 -1.2725  0.8527
  738MOL0     H99627   1.457  10.976   1.993 -1.4346 -0.2552 -0.7200
  738MOL0     H99628   1.484  11.041   1.596  0.3065  0.1677 -1.2987
  738MOL0     H99629   1.137  10.263   1.702 -1.5288 -0.1403 -2.1808
  738MOL0     H99630   0.939  10.133   1.665 -2.3251 -1.6887  1.8812
  739MOL0     O99631   0.377   8.970   8.173 -0.0409 -0.3569  0.4419
  739MOL0     C99632   0.446   8.869   8.201  0.8671  0.1949 -0.4753
  739MOL0     O99633   0.397   8.749   8.246 -0.1811  0.3881 -0.1860
  739MOL0     C99634   0.282   8.734   8.312  0.7975 -0.4262 -0.8957
  739MOL0     C99635   0.182   8.650   8.265 -0.3214  0.4416 -0.3739
  739MOL0     C99636   0.066   8.622   8.343  0.2351 -0.3457 -0.3634
  739MOL0     C99637   0.045   8.679   8.468 -0.1345 -0.2948 -0.2949
  739MOL0     O99638  -0.058   8.650   8.555  0.5178 -0.1250  0.2186
  739MOL0     C99639  -0.164   8.590   8.493 -0.3989 -0.0969  0.0872
  739MOL0     C99640  -0.280   8.584   8.591  0.2875  0.2190  0.1872
  739MOL0     C99641  -0.412   8.523   8.542 -0.0564  0.4806 -0.0359
  739MOL0     C99642  -0.529   8.513   8.652 -0.6300  0.3986  0.4963
  739MOL0     C99643  -0.662   8.503   8.588  0.6743  0.2592  0.1090
  739MOL0     C99644  -0.683   8.374   8.492 -0.4754 -0.2406 -0.1403
  739MOL0     C99645  -0.811   8.382   8.419  0.3316 -0.9864 -0.6852
  739MOL0     C99646  -0.816   8.273   8.307 -0.3200  0.3264 -0.3584
  739MOL0     N99647  -0.839   8.151   8.386  0.6103 -0.3230 -0.1511
  739MOL0     C99648  -0.959   8.102   8.412 -0.1738  0.2340 -0.3210
  739MOL0     C99649  -0.933   7.976   8.451 -0.2178  0.7585 -0.2793
  739MOL0     C99650  -1.024   7.852   8.470 -1.4589 -0.2559 -0.3780
  739MOL0     C99651  -1.159   7.884   8.531  0.3152  0.2989  0.5802
  739MOL0     C99652  -1.236   7.758   8.572  0.0972  0.8197 -0.6178
  739MOL0     C99653  -1.386   7.772   8.618 -0.4188 -0.2640 -0.3066
  739MOL0     O99654  -1.468   7.783   8.510  0.3292 -0.0219 -0.4329
  739MOL0     C99655  -1.603   7.813   8.533 -0.6568 -0.4030 -0.4686
  739MOL0     C99656  -1.670   7.832   8.655 -0.3614  0.1973 -0.7310
  739MOL0     C99657  -1.794   7.885   8.672 -0.5855 -0.0698  0.5336
  739MOL0     C99658  -1.824   7.945   8.803 -0.0925  0.4244  1.2911
  739MOL0     C99659  -1.869   7.903   8.558 -0.1878  0.6554 -0.6788
  739MOL0     C99660  -2.011   7.947   8.549 -0.3437 -0.2086 -0.3845
  739MOL0     O99661  -2.089   7.922   8.662 -0.2386  0.1620 -0.5465
  739MOL0     C99662  -2.211   7.987   8.673  0.8928  0.4979  0.0697
  739MOL0     C99663  -2.231   8.125   8.704  0.5879  0.1440 -0.4553
  739MOL0     C99664  -2.362   8.183   8.731  0.4070  0.9319  0.1000
  739MOL0     C99665  -2.470   8.093   8.725  0.8794 -0.4167  0.1609
  739MOL0     O99666  -2.591   8.149   8.751  0.2433  0.4857 -0.0253
  739MOL0     C99667  -2.704   8.063   8.755  0.1558 -0.4755  0.8621
  739MOL0     C99668  -2.824   8.142   8.784  0.2504 -0.3255 -0.2273
  739MOL0     C99669  -2.944   8.050   8.797  0.2968 -0.2615  0.2002
  739MOL0     C99670  -3.073   8.136   8.812 -0.5382  0.3019  0.2649
  739MOL0     C99671  -3.191   8.048   8.786 -0.4966  0.4948 -0.4024
  739MOL0     C99672  -3.323   8.122   8.805  0.1573  0.0221  0.1416
  739MOL0     C99673  -3.428   8.017   8.846  0.0302 -0.4859  0.7873
  739MOL0     C99674  -3.566   8.079   8.842  0.1327  0.1852 -0.5288
  739MOL0    Cl99675  -3.567   8.248   8.909  0.0738  0.2822 -0.1332
  739MOL0     C99676  -2.453   7.964   8.681 -0.1419 -0.0815  0.4209
  739MOL0     C99677  -2.329   7.910   8.660  0.1201  0.3688  0.9488
  739MOL0     O99678  -2.054   8.008   8.454 -0.6450 -0.3600  0.1818
  739MOL0     C99679  -1.811   7.872   8.436 -0.4173  0.1159 -0.8891
  739MOL0     C99680  -1.684   7.828   8.416  0.2291  0.1096 -0.1031
  739MOL0     N99681  -0.796   7.956   8.451 -0.4098 -0.0724 -0.8748
  739MOL0     N99682  -0.737   8.060   8.406 -0.9006 -0.0207  0.1531
  739MOL0     C99683   0.141   8.761   8.515  0.1675 -0.9963 -1.0112
  739MOL0     C99684   0.261   8.788   8.445 -0.4532 -0.6540 -0.3199
  739MOL0     C99685   0.598   8.886   8.200  0.3207  0.3183 -0.4733
  739MOL0     C99686   0.679   8.790   8.249 -0.3015  0.0078 -0.0096
  739MOL0     C99687   0.818   8.798   8.234  0.0266  0.0130 -0.7388
  739MOL0     C99688   0.875   8.898   8.161  0.0130 -0.7178 -0.1627
  739MOL0     O99689   1.016   8.910   8.146 -0.3977  0.8865  0.6412
  739MOL0     C99690   1.103   8.811   8.197  0.0154  0.8041  0.7006
  739MOL0     C99691   1.252   8.816   8.148  0.0894 -0.6840  0.6666
  739MOL0     C99692   1.293   8.963   8.146 -1.0785  0.4960  0.3072
  739MOL0     C99693   1.444   8.973   8.137  0.0447  0.4142  0.4333
  739MOL0     C99694   1.484   9.113   8.111  0.4746  0.3229 -0.6330
  739MOL0     C99695   1.505   9.229   8.079 -0.0591  0.2016 -0.3338
  739MOL0     C99696   0.800   8.995   8.112  0.2273  0.2884  0.1992
  739MOL0     C99697   0.658   8.992   8.133 -0.7758 -0.9049  0.2370
  739MOL0     H99698   0.188   8.602   8.168 -1.5080  0.3461 -0.4203
  739MOL0     H99699  -0.010   8.565   8.291  0.0971 -0.5128  0.0156
  739MOL0     H99700  -0.189   8.652   8.407 -0.1045  1.0577  0.8162
  739MOL0     H99701  -0.132   8.492   8.455  0.0547  0.7012 -1.6706
  739MOL0     H99702  -0.252   8.522   8.677  0.0767 -0.1668 -0.0194
  739MOL0     H99703  -0.313   8.674   8.642 -1.4829 -0.7796  0.8779
  739MOL0     H99704  -0.435   8.585   8.455 -0.3541 -0.3853 -0.5950
  739MOL0     H99705  -0.413   8.421   8.502 -1.2308  1.0031 -1.4266
  739MOL0     H99706  -0.496   8.431   8.717  1.0893 -0.2260 -1.0918
  739MOL0     H99707  -0.521   8.605   8.712  0.6073 -1.5391  3.5575
  739MOL0     H99708  -0.730   8.502   8.674  0.4323 -0.3896 -0.0882
  739MOL0     H99709  -0.676   8.594   8.529  2.4498  0.1538 -0.5273
  739MOL0     H99710  -0.595   8.364   8.427 -1.2077  0.7622 -1.3421
  739MOL0     H99711  -0.685   8.285   8.556  0.6973 -0.5371 -0.4820
  739MOL0     H99712  -0.897   8.389   8.485  0.0214  3.6912 -1.2533
  739MOL0     H99713  -0.818   8.481   8.372  1.1496 -0.2246  0.7332
  739MOL0     H99714  -0.723   8.263   8.250  0.2145  0.0706  0.5389
  739MOL0     H99715  -0.903   8.267   8.240 -0.7422  1.0535  0.1136
  739MOL0     H99716  -1.055   8.148   8.388 -1.5852 -2.0401  0.6608
  739MOL0     H99717  -1.031   7.799   8.375 -1.9226 -0.4513 -0.2362
  739MOL0     H99718  -0.972   7.780   8.534 -2.3262 -3.0229 -2.6204
  739MOL0     H99719  -1.225   7.932   8.459  0.4200  0.0972  0.3495
  739MOL0     H99720  -1.142   7.953   8.615  2.3235 -0.5481  0.9393
  739MOL0     H99721  -1.181   7.710   8.653  1.7793  0.6820 -1.7994
  739MOL0     H99722  -1.227   7.685   8.491  2.8085  0.8508 -0.4187
  739MOL0     H99723  -1.386   7.856   8.687  0.3278 -1.8751  1.7600
  739MOL0     H99724  -1.411   7.680   8.671  1.2410 -2.3201 -2.8071
  739MOL0     H99725  -1.610   7.814   8.744 -0.4248 -0.8760 -0.8831
  739MOL0     H99726  -1.861   7.867   8.871  1.9947  0.0306  2.0509
  739MOL0     H99727  -1.734   7.992   8.842 -1.6583  3.3766  1.6005
  739MOL0     H99728  -1.901   8.022   8.796 -1.5085 -0.7845  2.8654
  739MOL0     H99729  -2.136   8.178   8.709  1.1588 -0.9065  3.9183
  739MOL0     H99730  -2.367   8.289   8.751  1.6705  1.2895 -1.3006
  739MOL0     H99731  -2.719   8.021   8.655  0.5942  2.7618 -0.6841
  739MOL0     H99732  -2.703   7.991   8.837  0.8513 -1.7358 -0.2114
  739MOL0     H99733  -2.810   8.189   8.882 -2.0414 -1.1175  0.5309
  739MOL0     H99734  -2.849   8.220   8.711 -2.7777  1.3322  2.3197
  739MOL0     H99735  -2.941   7.979   8.880 -3.5523 -0.9548 -0.0887
  739MOL0     H99736  -2.941   8.006   8.697  2.3872  2.8969 -1.2984
  739MOL0     H99737  -3.071   8.183   8.910 -0.4012  0.8088  0.0257
  739MOL0     H99738  -3.071   8.218   8.739  1.2033 -0.2729 -0.3816
  739MOL0     H99739  -3.184   7.971   8.863 -2.5157  0.9142  0.2690
  739MOL0     H99740  -3.186   8.004   8.686 -0.6178  1.6630 -0.9347
  739MOL0     H99741  -3.318   8.211   8.868 -0.4046 -0.2285  0.5463
  739MOL0     H99742  -3.357   8.155   8.707 -0.3000  0.7791  0.5521
  739MOL0     H99743  -3.416   7.994   8.952 -1.6199  0.8791  1.3277
  739MOL0     H99744  -3.420   7.932   8.778  1.0610  1.6375 -1.9146
  739MOL0     H99745  -3.636   8.022   8.903  0.1967  1.5871  0.9198
  739MOL0     H99746  -3.606   8.082   8.740  0.3850 -0.1326 -0.6415
  739MOL0     H99747  -2.536   7.894   8.681 -0.5527  0.4059  0.5790
  739MOL0     H99748  -2.331   7.806   8.630  1.8025  0.4297  0.5637
  739MOL0     H99749  -1.862   7.880   8.340 -3.3730  2.0757  0.6965
  739MOL0     H99750  -1.646   7.815   8.315  1.2783 -0.3941  0.3392
  739MOL0     H99751   0.119   8.817   8.605  1.3465  1.0287 -1.9096
  739MOL0     H99752   0.347   8.840   8.485  0.9923 -1.0852 -2.6111
  739MOL0     H99753   0.630   8.700   8.285 -3.8468  2.2197  1.1506
  739MOL0     H99754   0.884   8.715   8.256  0.1986 -0.5060 -2.9705
  739MOL0     H99755   1.094   8.825   8.305 -2.1363  2.5572  0.3690
  739MOL0     H99756   1.069   8.708   8.186  2.5044 -0.1362  1.1817
  739MOL0     H99757   1.258   8.776   8.047 -0.5497  2.3088 -0.6673
  739MOL0     H99758   1.314   8.754   8.213 -0.1340 -3.2993 -1.4156
  739MOL0     H99759   1.253   9.010   8.236 -1.0451  0.4154  0.3632
  739MOL0     H99760   1.244   9.017   8.064 -3.1155  1.5338  2.0967
  739MOL0     H99761   1.472   8.915   8.048 -0.6147  2.4084 -1.1517
  739MOL0     H99762   1.492   8.942   8.230 -1.4479  0.6480  1.3278
  739MOL0     H99763   1.526   9.327   8.039 -0.8046  0.4212 -0.1960
  739MOL0     H99764   0.851   9.077   8.063 -1.8465 -0.2124 -3.1130
  739MOL0     H99765   0.599   9.076   8.100 -1.5095 -1.8881 -1.0729
  740MOL0     O99766  11.158   4.319  11.110  0.3247 -0.1592  0.1885
  740MOL0     C99767  11.198   4.317  11.227 -0.3043  0.1347  0.4804
  740MOL0     O99768  11.126   4.343  11.337  0.3113 -0.5461 -0.6740
  740MOL0     C99769  10.994   4.394  11.333  0.4332  0.1041  0.1775
  740MOL0     C99770  10.934   4.486  11.424 -0.3611  0.7028  0.5429
  740MOL0     C99771  10.795   4.510  11.430 -0.7614 -0.3559  0.4089
  740MOL0     C99772  10.707   4.452  11.334  0.2000 -0.3622 -0.9778
  740MOL0     O99773  10.573   4.449  11.339  1.1060 -0.1162  0.2153
  740MOL0     C99774  10.513   4.575  11.345  0.5857  0.0292 -0.4350
  740MOL0     C99775  10.405   4.545  11.449  0.2704 -0.2395 -0.2694
  740MOL0     C99776  10.318   4.674  11.468  0.5720 -0.1669 -0.0896
  740MOL0     C99777  10.177   4.655  11.541 -0.1500  0.6897  0.5457
  740MOL0     C99778  10.193   4.557  11.659  1.0394  0.1524  0.1303
  740MOL0     C99779  10.071   4.559  11.758 -0.9249 -0.0175  0.0553
  740MOL0     C99780   9.938   4.526  11.682 -0.4391 -0.2640 -0.0599
  740MOL0     C99781   9.807   4.552  11.769  0.1266  0.1731  0.5675
  740MOL0     N99782   9.681   4.518  11.694 -0.2131 -0.3304 -0.0443
  740MOL0     C99783   9.671   4.443  11.573  0.1150  0.1650 -0.3494
  740MOL0     C99784   9.543   4.406  11.567 -0.7068 -0.1137 -0.1766
  740MOL0     C99785   9.490   4.319  11.456  0.1080 -0.0095 -0.8120
  740MOL0     C99786   9.346   4.289  11.471  0.3300 -0.5147 -0.3307
  740MOL0     C99787   9.306   4.184  11.570 -0.4510  0.6951 -0.1447
  740MOL0     C99788   9.161   4.145  11.570 -0.5500  0.0095  0.0435
  740MOL0     O99789   9.096   4.242  11.646  0.9763 -0.0752  0.3240
  740MOL0     C99790   8.962   4.266  11.624 -0.6398 -0.3571 -0.0304
  740MOL0     C99791   8.924   4.391  11.671 -0.4074 -0.0044  0.2128
  740MOL0     C99792   8.796   4.440  11.651  0.6454 -0.9002  0.0197
  740MOL0     C99793   8.767   4.581  11.696  0.2454 -0.3370  0.7011
  740MOL0     C99794   8.703   4.359  11.577  0.1375  0.1463  0.7359
  740MOL0     C99795   8.563   4.413  11.544 -0.2673 -0.1546  0.2040
  740MOL0     O99796   8.466   4.320  11.542  0.3170  0.8481 -0.0201
  740MOL0     C99797   8.332   4.368  11.541 -0.0488  0.2514 -0.2250
  740MOL0     C99798   8.274   4.408  11.415 -0.2901  0.0820 -0.7746
  740MOL0     C99799   8.139   4.452  11.419 -0.4713  0.1963  0.1080
  740MOL0     C99800   8.065   4.461  11.536  0.0187  0.3018  0.7468
  740MOL0     O99801   7.933   4.501  11.527 -0.6727 -0.6739  0.1838
  740MOL0     C99802   7.914   4.629  11.466  0.2828  0.9254  0.9022
  740MOL0     C99803   7.775   4.684  11.492  0.0926  0.2000 -0.1360
  740MOL0     C99804   7.761   4.724  11.643  0.1858 -0.0241 -0.1284
  740MOL0     C99805   7.620   4.779  11.659 -0.4376  0.3982 -0.4608
  740MOL0     C99806   7.587   4.823  11.807 -1.0488  1.4656 -0.0252
  740MOL0     C99807   7.582   4.712  11.910 -0.1351  0.2090  0.1004
  740MOL0     C99808   7.513   4.781  12.027 -0.4752  0.2570 -0.2507
  740MOL0     C99809   7.513   4.678  12.143  0.1004 -1.6052  0.9159
  740MOL0    Cl99810   7.435   4.735  12.291 -0.1375 -0.1729  0.1046
  740MOL0     C99811   8.129   4.422  11.655  0.8014 -0.2248  0.5012
  740MOL0     C99812   8.261   4.380  11.661 -0.0684  0.6445 -0.7270
  740MOL0     O99813   8.554   4.531  11.523 -0.3895 -0.1102  0.6717
  740MOL0     C99814   8.744   4.226  11.542  0.7755  0.0850 -0.3317
  740MOL0     C99815   8.868   4.179  11.571 -0.7496  0.0744 -0.2255
  740MOL0     N99816   9.478   4.460  11.670 -0.6195  0.2455  0.4837
  740MOL0     N99817   9.562   4.514  11.748 -0.1344  0.3139 -0.4511
  740MOL0     C99818  10.764   4.361  11.251 -0.0568  0.4911 -0.5804
  740MOL0     C99819  10.898   4.335  11.243  0.6217 -0.3008 -0.1217
  740MOL0     C99820  11.341   4.300  11.243  0.0233 -0.2477 -0.0240
  740MOL0     C99821  11.390   4.264  11.377 -0.5377 -0.4161  0.1758
  740MOL0     C99822  11.526   4.257  11.408 -1.0391  0.0421 -0.2188
  740MOL0     C99823  11.617   4.279  11.300 -0.6733  0.7233 -0.5724
  740MOL0     O99824  11.753   4.265  11.318 -0.1594  0.1055 -0.1538
  740MOL0     C99825  11.807   4.296  11.454  0.1337  0.4934  0.1640
  740MOL0     C99826  11.961   4.290  11.452 -0.1922 -0.1237 -0.4344
  740MOL0     C99827  12.013   4.401  11.355 -0.0132  0.2390 -0.1015
  740MOL0     C99828  12.146   4.462  11.408 -0.2333 -0.2303  1.3169
  740MOL0     C99829  12.244   4.363  11.456 -0.1112  0.8614 -0.3071
  740MOL0     C99830  12.325   4.284  11.501  0.0186  0.6574  0.3310
  740MOL0     C99831  11.574   4.335  11.176  0.1711 -0.1116 -0.7296
  740MOL0     C99832  11.440   4.337  11.149  0.9045  0.1400 -0.5193
  740MOL0     H99833  11.004   4.532  11.493 -0.6151  0.9888  0.6086
  740MOL0     H99834  10.768   4.595  11.491  2.2251  1.4754 -0.5797
  740MOL0     H99835  10.580   4.645  11.397 -0.5579  0.3770  0.6104
  740MOL0     H99836  10.485   4.614  11.247  2.7125  1.1037 -0.6909
  740MOL0     H99837  10.330   4.472  11.419 -2.0442  1.4631  1.0342
  740MOL0     H99838  10.452   4.519  11.544  0.1544 -0.2890 -0.2244
  740MOL0     H99839  10.369   4.756  11.519  0.9869 -0.0781 -0.6446
  740MOL0     H99840  10.277   4.712  11.374 -0.7168 -1.3892 -0.0657
  740MOL0     H99841  10.125   4.749  11.564  0.9112  0.7698  2.8769
  740MOL0     H99842  10.111   4.601  11.473 -0.4104  0.2899  1.1009
  740MOL0     H99843  10.205   4.456  11.619 -2.3912  0.7743 -2.9232
  740MOL0     H99844  10.277   4.588  11.723  1.1099 -2.2430  1.3426
  740MOL0     H99845  10.091   4.495  11.845  0.0549 -0.3814 -0.4218
  740MOL0     H99846  10.048   4.659  11.797 -1.8891 -0.9924  2.1141
  740MOL0     H99847   9.925   4.588  11.593 -0.3276  1.5254  1.1151
  740MOL0     H99848   9.948   4.425  11.641 -0.9388 -0.2230 -0.2903
  740MOL0     H99849   9.793   4.658  11.792  1.4601  0.3160  0.8398
  740MOL0     H99850   9.819   4.495  11.861  1.1710 -0.5500  0.0149
  740MOL0     H99851   9.753   4.427  11.503 -1.3708  0.0920 -2.1578
  740MOL0     H99852   9.511   4.353  11.355  1.3819 -1.9257 -1.2462
  740MOL0     H99853   9.554   4.230  11.457 -0.3928 -0.3742 -0.3409
  740MOL0     H99854   9.304   4.257  11.375  0.2730  0.2156 -0.5527
  740MOL0     H99855   9.297   4.380  11.507 -0.1696 -1.7419  2.3906
  740MOL0     H99856   9.347   4.208  11.669 -0.5747 -0.9463  0.3373
  740MOL0     H99857   9.370   4.102  11.538  0.8620  2.2442 -1.7330
  740MOL0     H99858   9.155   4.044  11.611  1.6503  0.1498  0.8551
  740MOL0     H99859   9.119   4.144  11.470  0.7379 -1.6142 -0.5351
  740MOL0     H99860   9.003   4.446  11.722 -2.8836  2.5046  1.6091
  740MOL0     H99861   8.833   4.616  11.776  0.8406  0.6634 -0.2001
  740MOL0     H99862   8.768   4.645  11.607  1.1920 -0.5922  0.5178
  740MOL0     H99863   8.663   4.593  11.730 -0.5741  1.9091 -2.2245
  740MOL0     H99864   8.341   4.397  11.331  1.0931 -0.4823  0.3584
  740MOL0     H99865   8.099   4.470  11.320 -0.6003 -3.2590 -0.5966
  740MOL0     H99866   7.992   4.694  11.508  1.1781  1.0708 -0.9094
  740MOL0     H99867   7.938   4.614  11.361 -2.4478  2.0338  0.0454
  740MOL0     H99868   7.747   4.765  11.425  4.5212  1.7285 -0.3985
  740MOL0     H99869   7.694   4.612  11.472  0.9603 -0.7596 -0.2699
  740MOL0     H99870   7.838   4.794  11.676  0.5656  0.6474 -2.3042
  740MOL0     H99871   7.767   4.631  11.702 -1.4793 -0.0116  0.1006
  740MOL0     H99872   7.606   4.870  11.601  1.2345 -0.9657 -3.2427
  740MOL0     H99873   7.549   4.702  11.625  2.4422 -2.7186  0.0741
  740MOL0     H99874   7.495   4.882  11.798 -0.1017  3.0920  0.4964
  740MOL0     H99875   7.665   4.894  11.834  0.0734  0.8747 -1.5838
  740MOL0     H99876   7.518   4.633  11.869 -0.7943 -0.2356  1.8953
  740MOL0     H99877   7.681   4.673  11.933  0.8098  1.5137 -1.5787
  740MOL0     H99878   7.412   4.816  12.005 -2.3917 -2.1172  3.6372
  740MOL0     H99879   7.566   4.872  12.055 -1.0516  1.3496 -2.4995
  740MOL0     H99880   7.618   4.657  12.164  0.5276  1.2312  2.0081
  740MOL0     H99881   7.451   4.595  12.107 -2.9598  1.2177 -0.9470
  740MOL0     H99882   8.067   4.420  11.744 -3.1008 -1.1814 -1.9965
  740MOL0     H99883   8.308   4.339  11.750  0.7827  0.3049 -1.3228
  740MOL0     H99884   8.675   4.162  11.487  1.4199 -0.5740 -0.3923
  740MOL0     H99885   8.899   4.080  11.538 -1.7790 -0.0010 -1.0253
  740MOL0     H99886  10.694   4.302  11.192  1.3746 -0.1520 -1.7022
  740MOL0     H99887  10.937   4.265  11.169  0.4296  1.9537 -2.4763
  740MOL0     H99888  11.320   4.223  11.450  0.6601 -2.6486  0.1731
  740MOL0     H99889  11.560   4.217  11.503 -1.3736 -0.3950 -0.2810
  740MOL0     H99890  11.784   4.394  11.498  1.1658  0.2068  1.3900
  740MOL0     H99891  11.760   4.218  11.515 -0.4938  1.6866  1.2802
  740MOL0     H99892  11.999   4.193  11.418 -0.0283 -1.0142  2.0592
  740MOL0     H99893  12.001   4.313  11.552 -0.4497  0.5275 -0.4770
  740MOL0     H99894  11.936   4.476  11.335  2.0136  2.0738 -1.4490
  740MOL0     H99895  12.023   4.362  11.253 -1.7751  3.2315 -1.5543
  740MOL0     H99896  12.131   4.525  11.496  0.4327 -0.9768  1.9789
  740MOL0     H99897  12.187   4.527  11.329  0.6810  0.0970  2.0413
  740MOL0     H99898  12.399   4.209  11.520 -2.0800 -1.6891 -0.2131
  740MOL0     H99899  11.653   4.358  11.107  0.8090 -0.6442 -0.1943
  740MOL0     H99900  11.411   4.367  11.048 -0.0966 -0.4476 -0.4225
  741MOL0     O99901   9.882  11.281   2.930 -0.1314 -0.2108 -0.3866
  741MOL0     C99902   9.892  11.170   2.978  0.1419 -1.1744 -0.0448
  741MOL0     O99903   9.789  11.098   3.025  0.2666  0.3359 -0.4177
  741MOL0     C99904   9.648  11.127   3.022 -0.9183  0.1291 -0.7372
  741MOL0     C99905   9.561  11.048   3.093 -0.2899  0.3991  0.0873
  741MOL0     C99906   9.432  11.091   3.109  0.2556  0.1545  0.1017
  741MOL0     C99907   9.384  11.199   3.041  0.8321  0.9129 -0.2238
  741MOL0     O99908   9.249  11.234   3.069 -0.6948 -0.2471  0.1750
  741MOL0     C99909   9.154  11.272   2.970 -0.0642  0.4781 -0.2046
  741MOL0     C99910   9.045  11.347   3.036 -0.4249  0.3410 -0.1149
  741MOL0     C99911   8.975  11.270   3.156  0.1497 -0.0191  0.3669
  741MOL0     C99912   8.948  11.364   3.275 -0.1094 -0.0629  0.0651
  741MOL0     C99913   8.839  11.464   3.227  0.3405  0.5714  0.2186
  741MOL0     C99914   8.686  11.405   3.247 -0.6091  0.2392 -0.6204
  741MOL0     C99915   8.591  11.498   3.178 -0.0384  0.2159 -0.3026
  741MOL0     C99916   8.449  11.447   3.204 -1.1973  0.0198  0.4564
  741MOL0     N99917   8.351  11.524   3.122  0.4620 -0.7450 -0.0451
  741MOL0     C99918   8.264  11.622   3.172 -0.4924 -0.6947  0.2191
  741MOL0     C99919   8.189  11.653   3.061  0.2442 -0.0776  0.4109
  741MOL0     C99920   8.059  11.737   3.069 -0.6897 -0.0833  0.3206
  741MOL0     C99921   7.955  11.634   3.108  0.5082  0.1042 -0.4292
  741MOL0     C99922   7.821  11.708   3.087  0.2455  0.3276 -0.1388
  741MOL0     C99923   7.703  11.625   3.123 -0.6097 -0.3275 -0.9724
  741MOL0     O99924   7.595  11.714   3.118  0.4819 -0.7219  0.9388
  741MOL0     C99925   7.485  11.677   3.201  0.2998  0.4886 -0.4060
  741MOL0     C99926   7.387  11.777   3.229 -0.4337  1.1710  0.2705
  741MOL0     C99927   7.264  11.752   3.296  0.3119 -0.7844  0.0798
  741MOL0     C99928   7.174  11.875   3.314  0.3435 -0.4755  0.8681
  741MOL0     C99929   7.244  11.615   3.344 -0.0910 -0.2242  0.3412
  741MOL0     C99930   7.115  11.559   3.398 -0.5932  0.6187  0.5745
  741MOL0     O99931   7.013  11.653   3.421 -0.1514 -0.3469  0.3570
  741MOL0     C99932   6.885  11.622   3.471 -0.5066 -0.4227  0.7175
  741MOL0     C99933   6.787  11.714   3.451  0.4122  1.0079  0.6932
  741MOL0     C99934   6.648  11.700   3.489  1.1424  0.2879  0.4653
  741MOL0     C99935   6.605  11.574   3.546 -0.1889 -0.4311  0.2042
  741MOL0     O99936   6.477  11.548   3.579  0.2398  0.3086  1.2581
  741MOL0     C99937   6.392  11.570   3.463  0.5500 -0.2691 -0.8789
  741MOL0     C99938   6.256  11.516   3.497  0.2801 -0.1049 -0.0909
  741MOL0     C99939   6.253  11.364   3.490  0.3038  1.2940 -0.2948
  741MOL0     C99940   6.117  11.307   3.539  0.4592 -0.3571  0.7756
  741MOL0     C99941   6.098  11.158   3.517 -0.8077 -0.2126 -0.0426
  741MOL0     C99942   5.960  11.119   3.563  0.6322 -0.0420  0.8997
  741MOL0     C99943   5.936  10.970   3.552  0.1011  0.5260 -0.1387
  741MOL0     C99944   5.785  10.929   3.559  0.5674  0.4364  0.2182
  741MOL0    Cl99945   5.780  10.750   3.583 -0.0025 -0.2064 -0.1813
  741MOL0     C99946   6.707  11.474   3.567 -0.3777  1.0117  0.1778
  741MOL0     C99947   6.846  11.506   3.537  0.8402  0.4934  0.0026
  741MOL0     O99948   7.097  11.438   3.402  0.2184 -0.2482 -0.2372
  741MOL0     C99949   7.350  11.519   3.319  1.6010 -0.3170  0.0529
  741MOL0     C99950   7.469  11.550   3.252  0.5359 -0.4798 -0.1305
  741MOL0     N99951   8.238  11.589   2.953  0.1763 -0.0580  0.1085
  741MOL0     N99952   8.342  11.518   2.990  0.8809 -0.3333  0.0048
  741MOL0     C99953   9.460  11.257   2.940 -0.0709 -0.4086  0.1865
  741MOL0     C99954   9.595  11.224   2.945 -1.1089 -0.1982  0.6172
  741MOL0     C99955  10.035  11.123   2.976  0.4587  0.6380 -0.7876
  741MOL0     C99956  10.117  11.176   2.871 -0.1351 -0.4262 -0.0475
  741MOL0     C99957  10.252  11.140   2.863 -0.1087 -0.1925  0.8773
  741MOL0     C99958  10.300  11.054   2.960 -0.9524  0.4939 -0.0654
  741MOL0     O99959  10.434  11.010   2.963  0.6298  0.3468 -0.2667
  741MOL0     C99960  10.526  11.082   2.879 -0.4291 -0.7584 -0.0663
  741MOL0     C99961  10.668  11.052   2.912 -0.1550 -0.3474 -1.4121
  741MOL0     C99962  10.711  10.908   2.892  0.2818 -0.5412 -0.6812
  741MOL0     C99963  10.822  10.875   2.997 -0.0648  0.3136 -1.1812
  741MOL0     C99964  10.888  10.747   2.962 -0.1033  0.3991 -0.3276
  741MOL0     C99965  10.920  10.636   2.918  1.0823 -0.3158  0.0279
  741MOL0     C99966  10.221  11.003   3.062 -0.9353 -0.4366  0.3200
  741MOL0     C99967  10.086  11.027   3.072  1.0664  0.0946 -0.4694
  741MOL0     H99968   9.609  10.966   3.146  1.0947  0.1225 -1.5218
  741MOL0     H99969   9.369  11.036   3.179  1.2070 -0.8151  0.2188
  741MOL0     H99970   9.192  11.344   2.896  0.7402  1.2432  0.9265
  741MOL0     H99971   9.134  11.181   2.913  0.6407  1.4028 -2.0056
  741MOL0     H99972   9.087  11.435   3.085  0.1560  0.1936 -0.3415
  741MOL0     H99973   8.961  11.370   2.970 -0.2697 -0.3597 -0.5722
  741MOL0     H99974   8.882  11.219   3.127  0.4499 -1.9660  2.5133
  741MOL0     H99975   9.038  11.188   3.194  1.7543  1.1413  0.2993
  741MOL0     H99976   8.908  11.307   3.359  2.5185  0.8060  2.0488
  741MOL0     H99977   9.040  11.411   3.311 -0.2120  0.8230 -0.7968
  741MOL0     H99978   8.853  11.548   3.296  0.0857 -0.5674  1.7064
  741MOL0     H99979   8.844  11.500   3.124  0.1111 -1.5028 -0.5804
  741MOL0     H99980   8.682  11.308   3.196 -0.5882 -0.2972  0.3708
  741MOL0     H99981   8.652  11.387   3.349 -0.8985  0.5262 -0.6675
  741MOL0     H99982   8.598  11.600   3.217 -3.6815  0.5570 -0.1209
  741MOL0     H99983   8.605  11.507   3.070 -4.3600  1.4622 -0.9665
  741MOL0     H99984   8.425  11.447   3.310  1.1244 -1.7709  1.0709
  741MOL0     H99985   8.447  11.347   3.159 -1.0909 -0.4114  1.3966
  741MOL0     H99986   8.233  11.649   3.272  0.4149 -1.5209  0.7418
  741MOL0     H99987   8.083  11.816   3.141  0.8875 -0.3379  0.1077
  741MOL0     H99988   8.049  11.783   2.971  0.1954 -2.5503 -1.0068
  741MOL0     H99989   7.982  11.610   3.211  2.4832  0.3627 -0.8420
  741MOL0     H99990   7.952  11.544   3.046 -3.5953  0.0807 -0.5031
  741MOL0     H99991   7.806  11.744   2.985 -1.4106  0.3361  0.0874
  741MOL0     H99992   7.837  11.794   3.154  1.3040  1.8064 -2.1640
  741MOL0     H99993   7.726  11.589   3.223 -0.2643  1.3465 -0.4319
  741MOL0     H99994   7.691  11.545   3.049  2.8286 -1.0013 -0.9529
  741MOL0     H99995   7.417  11.879   3.207  0.3208  1.0652  0.7852
  741MOL0     H99996   7.090  11.878   3.243  2.9260 -0.2683 -2.4314
  741MOL0     H99997   7.134  11.879   3.416 -3.0198  0.7070 -0.3227
  741MOL0     H99998   7.216  11.973   3.290 -0.0783 -0.9887 -2.4789
  741MOL0     H99999   6.803  11.808   3.399 -1.4268  0.8166 -0.3250
  741MOL0     H    0   6.573  11.775   3.465  1.0215  0.2847  0.8389
  741MOL0     H    1   6.392  11.677   3.440  2.5386  0.1764  0.8481
  741MOL0     H    2   6.423  11.513   3.375  3.5022 -0.3640  0.1032
  741MOL0     H    3   6.224  11.546   3.598  1.1960  1.4723 -0.2469
  741MOL0     H    4   6.188  11.559   3.423  1.1954  0.1386 -0.8079
  741MOL0     H    5   6.327  11.326   3.561  0.9316 -0.3236 -1.7388
  741MOL0     H    6   6.270  11.328   3.388  0.8751 -2.8176  1.0607
  741MOL0     H    7   6.110  11.338   3.643  1.2705  1.9543  0.2064
  741MOL0     H    8   6.044  11.360   3.478  0.0555 -1.9979 -0.2257
  741MOL0     H    9   6.177  11.099   3.564  0.3614 -1.1191 -2.9399
  741MOL0     H   10   6.117  11.146   3.410  3.0290 -2.7951  0.7093
  741MOL0     H   11   5.950  11.144   3.670 -0.3761 -0.3680  0.8974
  741MOL0     H   12   5.885  11.170   3.502  1.0914  0.7185  0.9632
  741MOL0     H   13   5.997  10.916   3.625  0.3128  1.7448  0.6087
  741MOL0     H   14   5.969  10.936   3.454  1.8235  1.7839 -0.0354
  741MOL0     H   15   5.739  10.949   3.462 -2.2507 -1.7900  0.9775
  741MOL0     H   16   5.737  10.974   3.646 -0.3448  0.9355 -0.5302
  741MOL0     H   17   6.664  11.380   3.600 -2.4923  1.1708 -1.8348
  741MOL0     H   18   6.919  11.427   3.550  1.6172  1.2590  0.3483
  741MOL0     H   19   7.340  11.418   3.356  1.2394 -0.8407 -1.4094
  741MOL0     H   20   7.544  11.473   3.241 -0.2138 -1.0421 -1.5630
  741MOL0     H   21   9.425  11.340   2.879  1.6233 -0.9749 -1.6899
  741MOL0     H   22   9.658  11.286   2.881  1.7118 -4.4616 -1.2231
  741MOL0     H   23  10.079  11.251   2.802  1.9314  1.8041  1.1014
  741MOL0     H   24  10.317  11.183   2.788  1.4896 -1.0288  1.7405
  741MOL0     H   25  10.509  11.052   2.775  0.1395 -0.7388 -0.1663
  741MOL0     H   26  10.508  11.189   2.889  0.5350 -0.6756  0.9744
  741MOL0     H   27  10.693  11.077   3.015  1.3077  1.4917 -2.1607
  741MOL0     H   28  10.729  11.110   2.843  1.1165  3.8825  2.7525
  741MOL0     H   29  10.749  10.899   2.790  0.3334  1.4004 -0.8716
  741MOL0     H   30  10.623  10.848   2.915 -1.2818  1.6135 -0.7077
  741MOL0     H   31  10.778  10.875   3.097  1.1304  2.7883 -0.5555
  741MOL0     H   32  10.897  10.955   2.999  0.1586  0.1543 -2.6368
  741MOL0     H   33  10.951  10.540   2.881 -1.2213 -0.0500 -2.9357
  741MOL0     H   34  10.267  10.926   3.125 -1.2659 -3.8271 -3.1733
  741MOL0     H   35  10.031  10.979   3.153  2.8026 -0.9566  0.1291
  742MOL0     O   36   3.743   9.825   2.142  0.5762 -0.2323  0.0312
  742MOL0     C   37   3.752   9.709   2.168 -0.8316  1.4562  0.5773
  742MOL0     O   38   3.649   9.625   2.174  0.5982 -0.2478 -0.0978
  742MOL0     C   39   3.525   9.681   2.151  0.4645 -0.0973 -0.1334
  742MOL0     C   40   3.454   9.642   2.037 -0.3274 -0.4011 -0.7406
  742MOL0     C   41   3.322   9.677   2.032  0.3227 -0.0752 -0.2940
  742MOL0     C   42   3.257   9.767   2.118  0.2127 -0.1078  0.4153
  742MOL0     O   43   3.129   9.806   2.088 -0.0831 -0.1884 -0.5078
  742MOL0     C   44   3.115   9.954   2.102 -0.1399  0.3775  0.3709
  742MOL0     C   45   2.979   9.995   2.047  0.5134 -0.0211 -0.0254
  742MOL0     C   46   2.941   9.936   1.911  1.0983 -0.2434 -0.0290
  742MOL0     C   47   2.804   9.993   1.864  0.1920 -0.0466  0.9122
  742MOL0     C   48   2.746   9.900   1.756 -0.7719 -0.2380 -0.2056
  742MOL0     C   49   2.653   9.792   1.812  0.1758  0.1557  0.0202
  742MOL0     C   50   2.639   9.685   1.703  0.3729 -0.0260 -0.0959
  742MOL0     C   51   2.559   9.734   1.580 -0.1679  0.2303  0.5642
  742MOL0     N   52   2.426   9.786   1.614  0.1212 -0.7493  0.4389
  742MOL0     C   53   2.321   9.708   1.668 -0.2740  0.0839  0.8045
  742MOL0     C   54   2.219   9.793   1.671  0.8945  0.1437 -0.2560
  742MOL0     C   55   2.078   9.768   1.725  0.4102 -0.3637 -0.4071
  742MOL0     C   56   1.980   9.752   1.610  0.2434  0.1252 -0.3390
  742MOL0     C   57   1.830   9.732   1.656  0.5287 -0.1541  0.3137
  742MOL0     C   58   1.731   9.692   1.549 -0.3860 -0.2814  0.0953
  742MOL0     O   59   1.612   9.636   1.615 -0.6720 -0.0694  0.8680
  742MOL0     C   60   1.499   9.621   1.539  0.4681 -0.0587 -0.2976
  742MOL0     C   61   1.396   9.561   1.606 -0.1880 -0.4598  0.4619
  742MOL0     C   62   1.266   9.541   1.557 -0.0210 -0.4849  0.0994
  742MOL0     C   63   1.174   9.457   1.642 -0.6229  0.0144  0.9119
  742MOL0     C   64   1.240   9.582   1.420  0.1264  0.8866 -0.8973
  742MOL0     C   65   1.107   9.564   1.354  0.9479  0.3289 -0.6216
  742MOL0     O   66   1.101   9.586   1.215 -0.7420  0.2910 -0.5442
  742MOL0     C   67   1.021   9.504   1.137 -0.5564  0.0217 -0.1021
  742MOL0     C   68   0.905   9.562   1.095  0.2292 -0.3608 -0.2478
  742MOL0     C   69   0.803   9.494   1.026 -0.0929 -0.0054 -0.1934
  742MOL0     C   70   0.819   9.363   0.999  0.8608  0.6930 -0.7915
  742MOL0     O   71   0.713   9.303   0.935  0.0866 -0.1857 -0.4665
  742MOL0     C   72   0.685   9.341   0.794 -0.1914  0.4298 -0.8169
  742MOL0     C   73   0.561   9.262   0.736 -0.9331  0.3648 -0.1317
  742MOL0     C   74   0.431   9.315   0.805  0.1535 -0.6918  0.8701
  742MOL0     C   75   0.300   9.250   0.754 -0.6381 -0.1261 -0.3951
  742MOL0     C   76   0.187   9.311   0.838  0.1465 -0.1789  0.1960
  742MOL0     C   77   0.064   9.247   0.801  0.1886 -0.2008 -0.0143
  742MOL0     C   78   0.039   9.102   0.849  0.4686  0.6472 -0.6593
  742MOL0     C   79  -0.098   9.040   0.818  0.2712  0.1028 -0.6156
  742MOL0    Cl   80  -0.108   8.953   0.663  0.8086 -0.0646 -0.1032
  742MOL0     C   81   0.929   9.297   1.050 -0.0682 -0.0695 -0.4632
  742MOL0     C   82   1.033   9.367   1.117 -0.3339 -0.5970  0.2095
  742MOL0     O   83   1.001   9.539   1.417 -0.4569 -0.7223  0.1415
  742MOL0     C   84   1.345   9.645   1.353 -0.0706 -0.1207  0.2868
  742MOL0     C   85   1.471   9.666   1.409 -0.1364 -0.1399  0.0284
  742MOL0     N   86   2.247   9.909   1.609 -0.2254 -0.7425  0.1647
  742MOL0     N   87   2.372   9.903   1.567 -0.0405  0.7315  0.0819
  742MOL0     C   88   3.323   9.799   2.234 -0.6229 -0.1201 -0.0822
  742MOL0     C   89   3.454   9.752   2.250 -0.0078 -0.2625 -0.4514
  742MOL0     C   90   3.888   9.661   2.207  0.2532 -0.5130  0.2859
  742MOL0     C   91   3.900   9.543   2.281 -0.3955  0.5584  0.1771
  742MOL0     C   92   4.025   9.492   2.317  0.2183 -0.3233  0.5686
  742MOL0     C   93   4.142   9.564   2.292 -1.0369 -0.7643  0.3053
  742MOL0     O   94   4.261   9.502   2.329  0.1708  0.1158 -0.7807
  742MOL0     C   95   4.391   9.564   2.337  0.2653 -0.9454 -0.8883
  742MOL0     C   96   4.487   9.457   2.397 -0.0937 -0.2189 -0.3402
  742MOL0     C   97   4.506   9.449   2.548 -0.0048 -0.4743 -0.5308
  742MOL0     C   98   4.362   9.440   2.620 -0.8668  0.4146  0.2804
  742MOL0     C   99   4.396   9.387   2.752  0.5057  0.2060  0.0630
  742MOL0     C  100   4.417   9.332   2.858  0.1712 -0.0034  0.5409
  742MOL0     C  101   4.133   9.687   2.222 -0.2242  0.7643 -0.1643
  742MOL0     C  102   4.007   9.730   2.171 -0.0598 -0.5312  0.0084
  742MOL0     H  103   3.490   9.577   1.958  1.8129  0.2890 -0.3968
  742MOL0     H  104   3.255   9.637   1.957 -0.3599 -0.6732  0.6162
  742MOL0     H  105   3.112   9.981   2.208 -1.0577 -0.7169  0.6483
  742MOL0     H  106   3.188  10.012   2.045 -2.1463  2.6902 -0.0498
  742MOL0     H  107   2.913   9.966   2.129  2.6020  0.6972  2.0152
  742MOL0     H  108   2.973  10.102   2.027  0.5715  0.1972  1.0357
  742MOL0     H  109   3.016   9.964   1.836 -1.3514 -0.7093 -2.8734
  742MOL0     H  110   2.935   9.828   1.919  0.3603 -0.4368 -2.4446
  742MOL0     H  111   2.725  10.005   1.939 -1.0777  0.3308 -0.4140
  742MOL0     H  112   2.822  10.093   1.822 -2.0184  0.4007  0.8801
  742MOL0     H  113   2.693   9.961   1.682 -2.0033 -3.2898 -2.0354
  742MOL0     H  114   2.830   9.857   1.701  0.6660  0.5849  1.2656
  742MOL0     H  115   2.695   9.754   1.905  0.1173 -2.9662 -1.1275
  742MOL0     H  116   2.554   9.833   1.834  1.1155  2.8716 -0.3088
  742MOL0     H  117   2.739   9.652   1.673  1.8829  3.0290  1.1620
  742MOL0     H  118   2.592   9.598   1.749  2.8254 -0.1871  2.3255
  742MOL0     H  119   2.530   9.652   1.514 -2.3817 -0.0120  1.7441
  742MOL0     H  120   2.617   9.812   1.529  0.7714 -1.1869 -0.6096
  742MOL0     H  121   2.322   9.612   1.718  0.8616 -1.1216 -1.3636
  742MOL0     H  122   2.082   9.679   1.788  0.3461  0.7675  1.2935
  742MOL0     H  123   2.042   9.848   1.790 -1.9941 -2.1441  0.5974
  742MOL0     H  124   2.014   9.660   1.561 -1.6933 -1.9383  1.9066
  742MOL0     H  125   1.994   9.839   1.545  1.2428 -1.0025 -1.7000
  742MOL0     H  126   1.786   9.830   1.673  1.9737  0.6165 -0.1521
  742MOL0     H  127   1.819   9.669   1.745  0.3278  0.4443  0.7221
  742MOL0     H  128   1.770   9.614   1.484  1.8514  0.7925  0.0543
  742MOL0     H  129   1.707   9.777   1.484  0.5028  0.3732  0.6088
  742MOL0     H  130   1.418   9.531   1.708 -0.5933 -0.2468  0.6121
  742MOL0     H  131   1.226   9.367   1.676 -0.2030 -0.3296 -0.5862
  742MOL0     H  132   1.138   9.513   1.729 -0.2697  3.1456 -0.8043
  742MOL0     H  133   1.089   9.414   1.589  1.5427 -0.5860 -2.3612
  742MOL0     H  134   0.908   9.668   1.121  2.6363 -0.9684  2.4060
  742MOL0     H  135   0.715   9.548   0.994 -0.5213 -0.6501 -0.1457
  742MOL0     H  136   0.666   9.449   0.795  0.8646  0.6329 -0.7227
  742MOL0     H  137   0.771   9.312   0.733  0.0330  0.6243 -0.5945
  742MOL0     H  138   0.552   9.273   0.628 -1.0970 -2.6548 -0.4893
  742MOL0     H  139   0.570   9.157   0.766  1.7772  0.5634 -0.0210
  742MOL0     H  140   0.424   9.420   0.773  0.1927 -0.6670  0.9400
  742MOL0     H  141   0.444   9.318   0.914 -1.3730 -3.1455  1.1877
  742MOL0     H  142   0.296   9.270   0.646  2.2261  3.6784  0.0029
  742MOL0     H  143   0.296   9.141   0.768 -0.8752  0.2179  2.8972
  742MOL0     H  144   0.174   9.420   0.832 -3.0265 -0.4131  0.9617
  742MOL0     H  145   0.208   9.279   0.940 -1.8100 -0.0494  0.6854
  742MOL0     H  146  -0.016   9.302   0.851 -1.3530 -2.5407  0.2503
  742MOL0     H  147   0.037   9.251   0.695 -5.1726 -1.3651  1.0049
  742MOL0     H  148   0.048   9.094   0.957  1.8074 -2.2363 -0.8774
  742MOL0     H  149   0.118   9.031   0.821  1.1143  0.8823  0.4902
  742MOL0     H  150  -0.178   9.110   0.847  1.8911  0.5866  3.3401
  742MOL0     H  151  -0.120   8.965   0.894  0.2647  2.3315  1.7513
  742MOL0     H  152   0.943   9.191   1.030 -3.1964 -1.3149  2.8603
  742MOL0     H  153   1.111   9.307   1.163 -0.3245  0.3950  1.5378
  742MOL0     H  154   1.346   9.681   1.251 -1.7585  2.1417  0.9702
  742MOL0     H  155   1.552   9.709   1.351 -1.5997  1.6796 -0.7613
  742MOL0     H  156   3.275   9.861   2.309 -0.3342 -1.1347  0.9806
  742MOL0     H  157   3.506   9.772   2.344 -2.4946 -1.0633  1.2078
  742MOL0     H  158   3.811   9.486   2.302  0.5097 -0.4268  1.4683
  742MOL0     H  159   4.018   9.393   2.361 -3.0025 -0.5584 -0.2499
  742MOL0     H  160   4.428   9.589   2.237  1.5460 -0.1216 -0.2375
  742MOL0     H  161   4.390   9.647   2.409  2.6603 -2.2465  0.7894
  742MOL0     H  162   4.583   9.488   2.355 -0.9156  2.1767 -0.6004
  742MOL0     H  163   4.455   9.361   2.354  1.0582  0.8096 -3.8160
  742MOL0     H  164   4.557   9.540   2.582 -0.2745  0.4742 -2.5491
  742MOL0     H  165   4.552   9.355   2.579 -2.4401 -1.3112  0.7469
  742MOL0     H  166   4.295   9.372   2.567 -0.2267 -0.4096  0.5034
  742MOL0     H  167   4.321   9.541   2.619  2.2373  1.7928  0.1526
  742MOL0     H  168   4.421   9.269   2.945 -1.4127  0.0283  0.6725
  742MOL0     H  169   4.221   9.742   2.192 -0.0395 -0.2803 -1.6336
  742MOL0     H  170   4.018   9.817   2.108 -3.0943 -0.5206 -0.6618
  743MOL0     O  171   7.801   8.369   4.869  0.3359  0.7453 -0.0332
  743MOL0     C  172   7.792   8.259   4.820  0.4042 -0.8251  0.2786
  743MOL0     O  173   7.894   8.180   4.783 -0.0036  0.0263 -0.3495
  743MOL0     C  174   8.026   8.219   4.777  0.1136 -0.0875 -0.1766
  743MOL0     C  175   8.111   8.118   4.733  0.6721  0.8536 -0.0224
  743MOL0     C  176   8.254   8.126   4.732  0.1842  0.4227  0.0117
  743MOL0     C  177   8.313   8.251   4.756 -0.3187 -0.1708  1.1015
  743MOL0     O  178   8.447   8.277   4.772  0.3708 -0.2264 -0.8227
  743MOL0     C  179   8.549   8.206   4.712 -0.2607 -0.9352 -0.7222
  743MOL0     C  180   8.626   8.110   4.798 -0.7654  0.2631 -0.7065
  743MOL0     C  181   8.720   8.179   4.903 -0.2139  0.6127 -1.1465
  743MOL0     C  182   8.853   8.105   4.902 -0.4881 -0.2466 -0.9750
  743MOL0     C  183   8.938   8.179   5.014  0.0830 -0.7762  0.9417
  743MOL0     C  184   9.086   8.142   5.015 -0.4409  0.6421 -0.3389
  743MOL0     C  185   9.170   8.209   5.125  0.0439  0.5999  0.4090
  743MOL0     C  186   9.329   8.203   5.102  0.0966  0.8451  0.2976
  743MOL0     N  187   9.382   8.063   5.088  0.4868  0.6508  0.4632
  743MOL0     C  188   9.431   7.980   5.189  0.2257 -0.1817 -1.1952
  743MOL0     C  189   9.487   7.872   5.132 -0.1203 -1.0792  0.0109
  743MOL0     C  190   9.544   7.751   5.199  0.5945  0.1396  0.7201
  743MOL0     C  191   9.467   7.628   5.150 -0.2995 -0.5885 -0.4555
  743MOL0     C  192   9.316   7.627   5.205  0.0364 -0.2650 -0.1184
  743MOL0     C  193   9.228   7.692   5.100  0.3208 -0.0513 -0.2391
  743MOL0     O  194   9.106   7.738   5.180 -0.2705  0.2314  0.0525
  743MOL0     C  195   8.985   7.739   5.124 -0.1111  1.0602 -0.1350
  743MOL0     C  196   8.927   7.656   5.020 -0.3686 -0.1951 -0.0046
  743MOL0     C  197   8.786   7.671   4.994  0.7097 -0.3112  0.2105
  743MOL0     C  198   8.731   7.576   4.895  0.2954  1.4660 -0.6303
  743MOL0     C  199   8.709   7.778   5.048 -0.2821 -0.3292  0.0587
  743MOL0     C  200   8.568   7.810   5.002 -1.0092  0.1083 -0.1763
  743MOL0     O  201   8.503   7.893   5.091  0.5388 -0.1013 -0.5315
  743MOL0     C  202   8.366   7.873   5.106  0.2370  0.8352 -0.0738
  743MOL0     C  203   8.276   7.897   5.006  0.7288 -0.5543 -0.0628
  743MOL0     C  204   8.133   7.902   5.020 -0.4622 -0.0631 -0.1490
  743MOL0     C  205   8.081   7.876   5.146  0.5121  0.6352 -0.1921
  743MOL0     O  206   7.949   7.869   5.182  0.3761  0.2214  0.7090
  743MOL0     C  207   7.859   7.953   5.107  0.2000  0.0599 -0.2309
  743MOL0     C  208   7.731   8.004   5.182 -0.0928  0.3191  0.0074
  743MOL0     C  209   7.640   7.900   5.238 -0.2696 -0.1054  0.3059
  743MOL0     C  210   7.500   7.964   5.245  1.4718  0.1886 -0.2700
  743MOL0     C  211   7.394   7.857   5.287 -0.2632  1.1042  0.8384
  743MOL0     C  212   7.266   7.923   5.331  0.0218 -0.8414 -0.2341
  743MOL0     C  213   7.154   7.822   5.292  0.0436  0.1439 -0.2098
  743MOL0     C  214   7.058   7.785   5.406 -0.1158 -0.0023 -0.4881
  743MOL0    Cl  215   6.957   7.929   5.443  0.5477  0.0664  0.0848
  743MOL0     C  216   8.177   7.838   5.250  0.9026 -0.3528 -0.2951
  743MOL0     C  217   8.314   7.841   5.232 -0.2690 -1.0463  0.1793
  743MOL0     O  218   8.510   7.758   4.907  0.6589 -0.1666  0.3903
  743MOL0     C  219   8.774   7.859   5.140  0.3770 -0.1579  0.0401
  743MOL0     C  220   8.909   7.836   5.182 -0.0168 -0.0573  0.3291
  743MOL0     N  221   9.481   7.899   4.992 -0.3816 -0.5881 -1.0477
  743MOL0     N  222   9.425   8.015   4.968  0.0696  0.5320 -0.3212
  743MOL0     C  223   8.230   8.347   4.801 -0.0394 -0.7895 -0.1031
  743MOL0     C  224   8.097   8.338   4.814 -0.1691 -0.2402 -0.6063
  743MOL0     C  225   7.652   8.205   4.794  0.0490  0.4508  0.4606
  743MOL0     C  226   7.541   8.293   4.824 -0.1111  0.2614  0.1700
  743MOL0     C  227   7.412   8.255   4.794 -0.0458  0.1628 -0.0506
  743MOL0     C  228   7.395   8.133   4.727  0.5188  0.1615 -0.2712
  743MOL0     O  229   7.269   8.095   4.682 -0.4722 -0.5377  0.2676
  743MOL0     C  230   7.162   8.183   4.680  0.9114  0.1624  0.1214
  743MOL0     C  231   7.087   8.183   4.821 -0.7195 -0.2060  0.5893
  743MOL0     C  232   6.949   8.257   4.815 -0.6807 -0.8342 -0.1175
  743MOL0     C  233   6.863   8.241   4.943  0.0520 -0.1407  0.2168
  743MOL0     C  234   6.839   8.104   4.995 -0.5088  0.2138  0.3020
  743MOL0     C  235   6.828   8.000   5.051 -0.2716  0.3550 -0.2499
  743MOL0     C  236   7.499   8.044   4.706 -0.2812  0.7852  0.2184
  743MOL0     C  237   7.632   8.080   4.731 -0.1483  0.4606  0.4168
  743MOL0     H  238   8.067   8.026   4.695  2.5998  0.4427 -1.4358
  743MOL0     H  239   8.313   8.037   4.712  1.0347  1.2649 -1.3682
  743MOL0     H  240   8.502   8.153   4.628  0.0788  1.4517 -2.5344
  743MOL0     H  241   8.621   8.279   4.673 -1.9328  0.4809 -1.2882
  743MOL0     H  242   8.560   8.050   4.861  0.8122  0.0273  0.7900
  743MOL0     H  243   8.683   8.036   4.740  0.2070  1.1417 -0.9105
  743MOL0     H  244   8.734   8.286   4.888  0.1588  0.8231  0.5840
  743MOL0     H  245   8.671   8.161   4.999  2.1263  3.5012  0.7570
  743MOL0     H  246   8.840   8.000   4.931 -2.9087  0.8979  2.8566
  743MOL0     H  247   8.905   8.110   4.806 -0.0776 -0.4243 -0.7669
  743MOL0     H  248   8.930   8.288   5.003  0.7665 -0.8791 -0.8533
  743MOL0     H  249   8.892   8.174   5.113 -0.2156  1.4779  0.9817
  743MOL0     H  250   9.094   8.033   5.024  0.9554  0.8562  1.9021
  743MOL0     H  251   9.136   8.165   4.921  0.0661 -0.0140 -0.2359
  743MOL0     H  252   9.149   8.316   5.127 -0.6629  0.4902 -0.4405
  743MOL0     H  253   9.139   8.173   5.223  0.6052 -0.4179  0.2284
  743MOL0     H  254   9.374   8.257   5.186 -0.5513  1.0741  0.5010
  743MOL0     H  255   9.341   8.261   5.010 -4.2342  0.7238 -0.5403
  743MOL0     H  256   9.413   8.003   5.293 -0.5183 -0.5685 -1.2328
  743MOL0     H  257   9.649   7.745   5.171  0.2061  0.0418 -0.8025
  743MOL0     H  258   9.546   7.762   5.308  1.3903  0.5972  0.6681
  743MOL0     H  259   9.515   7.531   5.169 -0.8582 -0.9424 -0.8148
  743MOL0     H  260   9.473   7.635   5.041  1.0783  1.0518 -0.3084
  743MOL0     H  261   9.313   7.688   5.296 -0.7618 -1.7681  0.9025
  743MOL0     H  262   9.281   7.527   5.233 -0.5864  0.3517  1.4447
  743MOL0     H  263   9.204   7.623   5.019 -2.0588  0.6494 -0.2170
  743MOL0     H  264   9.266   7.780   5.047 -1.0633  0.3637 -0.5905
  743MOL0     H  265   8.990   7.583   4.969  0.9358  0.3023  0.8399
  743MOL0     H  266   8.699   7.621   4.800 -3.7394 -0.6135 -0.4709
  743MOL0     H  267   8.809   7.505   4.867 -1.1367 -1.8198  2.9697
  743MOL0     H  268   8.653   7.513   4.938  0.5162  2.0806  0.7067
  743MOL0     H  269   8.315   7.924   4.908  0.4019 -0.7364 -0.2439
  743MOL0     H  270   8.063   7.913   4.937  0.4353 -3.4825 -1.5060
  743MOL0     H  271   7.898   8.036   5.047  1.6046 -0.1942  0.3082
  743MOL0     H  272   7.822   7.879   5.035  1.6922 -0.8415 -0.1077
  743MOL0     H  273   7.750   8.071   5.267 -0.9709  0.2516  0.2672
  743MOL0     H  274   7.674   8.054   5.104 -0.6518 -2.6722 -1.6517
  743MOL0     H  275   7.667   7.877   5.342  0.3346  0.7389  0.3462
  743MOL0     H  276   7.638   7.811   5.176 -0.0188 -1.0096  1.5480
  743MOL0     H  277   7.499   8.056   5.304 -0.3737  0.2545 -0.3330
  743MOL0     H  278   7.457   8.001   5.151 -1.1236 -1.1451  0.2897
  743MOL0     H  279   7.448   7.799   5.363  1.5902  0.9687 -0.5316
  743MOL0     H  280   7.378   7.795   5.199  1.7170 -1.0539  1.8938
  743MOL0     H  281   7.266   7.958   5.435  1.2860  0.3600 -0.6242
  743MOL0     H  282   7.256   8.009   5.265  0.2531 -0.8519 -0.2839
  743MOL0     H  283   7.192   7.724   5.263  1.7539  0.7593 -0.1671
  743MOL0     H  284   7.098   7.857   5.205  0.4303  1.2455 -0.0316
  743MOL0     H  285   7.109   7.748   5.495 -3.0384  2.3022  2.3520
  743MOL0     H  286   6.993   7.703   5.372 -0.0435 -0.9538  1.5462
  743MOL0     H  287   8.131   7.817   5.346 -0.2775 -0.4985 -0.8788
  743MOL0     H  288   8.382   7.837   5.316 -2.4233 -2.1598  2.0023
  743MOL0     H  289   8.726   7.943   5.189  2.4421  0.7122  0.7121
  743MOL0     H  290   8.956   7.898   5.257 -0.2345  0.3791  0.1046
  743MOL0     H  291   8.291   8.429   4.837  3.4916 -3.4185  0.5529
  743MOL0     H  292   8.045   8.424   4.855 -1.6856 -0.1993 -2.5038
  743MOL0     H  293   7.567   8.384   4.878  0.7928 -0.2625  0.6377
  743MOL0     H  294   7.334   8.327   4.819  0.3911  0.3418  0.8432
  743MOL0     H  295   7.190   8.286   4.659  1.0131  0.2855  0.8462
  743MOL0     H  296   7.097   8.152   4.597  0.8474 -1.0732  0.6056
  743MOL0     H  297   7.145   8.228   4.902  0.5700 -0.2116 -0.3067
  743MOL0     H  298   7.072   8.078   4.849 -0.8185 -0.5465 -0.6630
  743MOL0     H  299   6.886   8.228   4.731 -0.3105 -1.4653 -0.1830
  743MOL0     H  300   6.971   8.363   4.796  1.3001 -1.0241  0.9071
  743MOL0     H  301   6.767   8.291   4.925  0.7258  0.9903 -0.4102
  743MOL0     H  302   6.924   8.299   5.012 -1.2451  0.8296  0.5818
  743MOL0     H  303   6.802   7.906   5.095  0.6524  0.6123  0.8827
  743MOL0     H  304   7.474   7.942   4.680 -0.0759  0.5088  1.0667
  743MOL0     H  305   7.715   8.017   4.703  0.7556  1.9666 -0.4284
  744MOL0     O  306   8.447   8.827   8.919  0.9925  0.2727  0.3316
  744MOL0     C  307   8.458   8.705   8.929  0.6436 -0.5448  0.6845
  744MOL0     O  308   8.357   8.615   8.949 -0.6939 -0.3071 -0.3047
  744MOL0     C  309   8.231   8.650   8.940 -0.2484  0.5647 -0.5366
  744MOL0     C  310   8.181   8.781   8.972 -0.7854 -0.1325 -0.0225
  744MOL0     C  311   8.040   8.803   8.954 -0.0684  0.5881 -0.0137
  744MOL0     C  312   7.951   8.696   8.938 -0.5336  0.9645  0.5653
  744MOL0     O  313   7.815   8.706   8.928  0.2755  0.4980 -0.5793
  744MOL0     C  314   7.755   8.800   9.018 -0.0779 -0.8100  0.5655
  744MOL0     C  315   7.610   8.839   8.990  0.6970 -0.1314  0.1086
  744MOL0     C  316   7.516   8.729   9.027  0.0252  0.0570 -1.0106
  744MOL0     C  317   7.505   8.709   9.180 -0.6003 -0.0389  0.1462
  744MOL0     C  318   7.410   8.598   9.226  0.4785  0.6362  0.3740
  744MOL0     C  319   7.266   8.650   9.202 -0.4511 -0.0751  0.1584
  744MOL0     C  320   7.170   8.541   9.253  0.7974 -0.3985  0.8404
  744MOL0     C  321   7.037   8.616   9.275  0.0314  0.0718  0.2293
  744MOL0     N  322   6.928   8.521   9.302  0.2498  0.2342 -0.2124
  744MOL0     C  323   6.829   8.489   9.209 -0.5274 -0.0098 -0.2277
  744MOL0     C  324   6.727   8.436   9.274 -0.1239  0.5023  0.2011
  744MOL0     C  325   6.595   8.393   9.214  0.3711 -0.0702  0.1235
  744MOL0     C  326   6.488   8.508   9.233 -0.2412 -0.2583  0.2290
  744MOL0     C  327   6.342   8.485   9.182 -0.1134 -0.7214 -0.1300
  744MOL0     C  328   6.250   8.593   9.239 -0.4308  0.4626 -0.1157
  744MOL0     O  329   6.137   8.579   9.158  0.1509 -0.0287 -0.9157
  744MOL0     C  330   6.035   8.665   9.204  0.1799  0.0883  0.1009
  744MOL0     C  331   6.038   8.750   9.320 -1.3017 -0.5718 -0.3403
  744MOL0     C  332   5.915   8.813   9.373  0.2274  0.3923  0.3315
  744MOL0     C  333   5.923   8.904   9.494 -0.4536 -0.5673 -0.4026
  744MOL0     C  334   5.789   8.797   9.296 -0.1609  0.1117 -0.1355
  744MOL0     C  335   5.657   8.850   9.333 -0.4802 -0.5399 -0.4790
  744MOL0     O  336   5.636   8.893   9.461 -0.4212 -0.6246 -0.7219
  744MOL0     C  337   5.510   8.931   9.501  0.0684  0.0785  0.0369
  744MOL0     C  338   5.401   8.839   9.485 -0.0753  0.1573 -0.4823
  744MOL0     C  339   5.280   8.870   9.546  0.0475  0.2935  0.5400
  744MOL0     C  340   5.262   9.000   9.605  0.2763  0.2282 -0.9208
  744MOL0     O  341   5.138   9.043   9.655 -0.1508 -0.0430  0.1288
  744MOL0     C  342   5.109   8.969   9.777  0.0338  0.5739  0.7765
  744MOL0     C  343   4.965   8.981   9.806  0.2088 -0.2408 -0.8572
  744MOL0     C  344   4.876   8.919   9.699 -0.5893 -0.1428 -0.2051
  744MOL0     C  345   4.870   8.764   9.692 -0.4245 -0.3225  0.0204
  744MOL0     C  346   4.788   8.701   9.576  0.7130 -0.0508  0.1869
  744MOL0     C  347   4.637   8.706   9.601  0.6157 -0.4809  0.3469
  744MOL0     C  348   4.566   8.624   9.493  0.2843  0.1279  1.1068
  744MOL0     C  349   4.416   8.629   9.505 -0.6340  0.5751  0.1519
  744MOL0    Cl  350   4.346   8.798   9.469 -0.1114  0.3543  0.3790
  744MOL0     C  351   5.365   9.091   9.606  0.0624 -0.2314 -0.1444
  744MOL0     C  352   5.488   9.057   9.557 -0.3411 -1.0019  0.1693
  744MOL0     O  353   5.573   8.855   9.250  0.0900 -0.3283  0.0291
  744MOL0     C  354   5.798   8.717   9.182  0.2738 -0.8027 -0.3541
  744MOL0     C  355   5.916   8.659   9.141  0.1333 -0.2490  0.1550
  744MOL0     N  356   6.764   8.435   9.406  0.2159  0.1696 -0.0939
  744MOL0     N  357   6.876   8.498   9.428  0.0610 -0.0748 -0.1005
  744MOL0     C  358   8.002   8.568   8.912 -0.1192 -0.9780 -0.1724
  744MOL0     C  359   8.138   8.548   8.915 -0.3861  0.4437 -0.2135
  744MOL0     C  360   8.594   8.649   8.928  0.8668  0.0510  0.0078
  744MOL0     C  361   8.623   8.509   8.914  0.1948  0.4805 -0.0708
  744MOL0     C  362   8.749   8.455   8.939 -0.8009 -0.3393  0.3591
  744MOL0     C  363   8.860   8.544   8.973  0.4587  0.4301  0.2223
  744MOL0     O  364   8.985   8.488   8.981  0.8692  0.3465 -0.1241
  744MOL0     C  365   9.083   8.553   9.057 -0.2465  0.1993  0.3635
  744MOL0     C  366   9.195   8.606   8.967 -0.4812  0.2069  0.1505
  744MOL0     C  367   9.320   8.636   9.062 -0.3469 -0.0717 -0.3236
  744MOL0     C  368   9.444   8.543   9.054  0.4953 -0.1533 -0.3979
  744MOL0     C  369   9.516   8.532   8.929  0.1571 -0.4151  0.0595
  744MOL0     C  370   9.580   8.521   8.825  0.4366 -1.0417 -0.5479
  744MOL0     C  371   8.833   8.680   8.964  0.2597  0.8885  0.0342
  744MOL0     C  372   8.705   8.734   8.946 -0.1054 -0.0782 -0.0176
  744MOL0     H  373   8.245   8.862   9.004 -0.7503 -0.3464  0.4511
  744MOL0     H  374   8.009   8.904   8.981  0.7481  0.5338  1.1744
  744MOL0     H  375   7.762   8.773   9.123 -4.1733 -0.4742  1.1078
  744MOL0     H  376   7.813   8.892   9.004  0.3508 -1.2857 -1.0197
  744MOL0     H  377   7.577   8.922   9.053 -1.1616 -1.5859  1.1920
  744MOL0     H  378   7.594   8.855   8.883  2.0113 -0.1421 -0.1075
  744MOL0     H  379   7.414   8.738   8.988  0.0522  1.1470 -0.8745
  744MOL0     H  380   7.559   8.639   8.983  3.3326  0.8350  0.3219
  744MOL0     H  381   7.601   8.675   9.219 -0.7288 -1.0246 -0.3612
  744MOL0     H  382   7.491   8.806   9.228 -1.8563  0.4975 -1.2079
  744MOL0     H  383   7.421   8.505   9.171 -2.0187 -0.2774  1.3015
  744MOL0     H  384   7.422   8.567   9.330  0.3450 -2.5666 -0.4848
  744MOL0     H  385   7.262   8.745   9.256  1.0875  0.3629 -0.4677
  744MOL0     H  386   7.241   8.666   9.097  0.9799 -0.1196 -0.2086
  744MOL0     H  387   7.165   8.451   9.190  0.4668 -0.9785  1.6756
  744MOL0     H  388   7.194   8.497   9.350  0.2098 -3.4421 -0.2683
  744MOL0     H  389   7.016   8.665   9.179  0.5946  0.4971  0.3224
  744MOL0     H  390   7.035   8.694   9.351  0.6359  0.7842 -0.4668
  744MOL0     H  391   6.841   8.523   9.107 -2.2294  1.6805  0.0701
  744MOL0     H  392   6.610   8.357   9.112 -0.7672 -1.4757  0.4347
  744MOL0     H  393   6.570   8.300   9.265  1.4416 -1.4237 -1.7013
  744MOL0     H  394   6.529   8.588   9.169  2.5611 -1.7523 -0.0194
  744MOL0     H  395   6.502   8.548   9.334 -1.5420  2.3281 -0.5324
  744MOL0     H  396   6.313   8.388   9.224 -2.2379 -0.3845 -0.7170
  744MOL0     H  397   6.324   8.474   9.075 -2.1902  1.4882 -0.0701
  744MOL0     H  398   6.304   8.688   9.240 -0.2166  0.3479 -0.5347
  744MOL0     H  399   6.228   8.569   9.343  0.2221  2.1328  0.4410
  744MOL0     H  400   6.122   8.783   9.380 -1.9514 -0.8501  0.7605
  744MOL0     H  401   5.868   8.994   9.466 -1.4694 -0.5896  1.3399
  744MOL0     H  402   5.868   8.857   9.576  1.1040 -1.7808  0.0099
  744MOL0     H  403   6.025   8.926   9.527 -0.3568 -1.1295 -0.3088
  744MOL0     H  404   5.409   8.740   9.442 -2.6511 -0.9318  1.3180
  744MOL0     H  405   5.200   8.797   9.548  0.1393  0.0707 -1.3816
  744MOL0     H  406   5.129   8.862   9.770 -1.8910  0.2730 -1.6066
  744MOL0     H  407   5.166   9.000   9.866 -1.7015  0.3785  2.0227
  744MOL0     H  408   4.941   8.924   9.897 -0.4481  1.2555 -0.0390
  744MOL0     H  409   4.932   9.081   9.836 -1.0340 -0.9178  0.1575
  744MOL0     H  410   4.905   8.953   9.599 -1.1239 -1.9108 -0.9948
  744MOL0     H  411   4.776   8.953   9.727 -0.1465 -0.9787  2.6379
  744MOL0     H  412   4.969   8.718   9.696 -0.4536 -0.5760 -1.4458
  744MOL0     H  413   4.815   8.735   9.782 -3.0244 -1.9881 -1.9263
  744MOL0     H  414   4.817   8.596   9.563 -1.4076 -0.7862  0.9772
  744MOL0     H  415   4.813   8.755   9.484 -0.8582 -0.5617 -0.5786
  744MOL0     H  416   4.603   8.647   9.686 -3.0335  0.8350 -0.0077
  744MOL0     H  417   4.598   8.807   9.614  1.3724 -0.0607 -0.5818
  744MOL0     H  418   4.609   8.525   9.507  1.1804  0.4527  0.6860
  744MOL0     H  419   4.582   8.653   9.389 -3.5562 -1.0580  0.0371
  744MOL0     H  420   4.396   8.584   9.603  2.1528 -1.4478 -0.0826
  744MOL0     H  421   4.378   8.559   9.430 -0.5378 -0.9853  1.5112
  744MOL0     H  422   5.346   9.194   9.632 -0.8865 -0.6417  0.8819
  744MOL0     H  423   5.568   9.130   9.550 -0.3035 -0.8635  1.8516
  744MOL0     H  424   5.712   8.695   9.119 -1.2338  1.5473  0.7172
  744MOL0     H  425   5.912   8.602   9.049  0.7117 -0.4373  0.2469
  744MOL0     H  426   7.929   8.490   8.894  0.0691 -1.2991  0.4105
  744MOL0     H  427   8.177   8.448   8.901  3.6840  2.0717 -1.9347
  744MOL0     H  428   8.542   8.442   8.888 -0.4880  1.7246 -1.2695
  744MOL0     H  429   8.760   8.347   8.936 -2.5312 -0.6306  2.3881
  744MOL0     H  430   9.041   8.638   9.112  1.5523  0.1920  1.8602
  744MOL0     H  431   9.126   8.484   9.131 -0.5875 -1.4513 -0.9032
  744MOL0     H  432   9.162   8.687   8.902 -1.8844  0.1409  0.7422
  744MOL0     H  433   9.231   8.538   8.890  4.6261  1.5716  0.9616
  744MOL0     H  434   9.288   8.623   9.165  0.8815  2.0285  0.3799
  744MOL0     H  435   9.355   8.740   9.059  1.0600 -0.4632  1.2267
  744MOL0     H  436   9.400   8.446   9.079 -2.7451  0.9980 -1.1697
  744MOL0     H  437   9.517   8.566   9.132 -0.6817 -2.8763  1.6628
  744MOL0     H  438   9.632   8.498   8.734 -0.1186  1.6472 -1.6285
  744MOL0     H  439   8.914   8.752   8.966  1.1681 -0.1112  0.3558
  744MOL0     H  440   8.687   8.841   8.949 -1.3240 -0.1986 -1.3931
  745MOL0     O  441   7.058   4.034   5.748  0.1319 -0.3884  0.1965
  745MOL0     C  442   7.080   4.039   5.869 -0.3525  0.1322 -0.5160
  745MOL0     O  443   6.987   4.071   5.963 -0.3714  0.2058 -0.0911
  745MOL0     C  444   6.860   4.117   5.931 -0.6750 -0.0666 -0.1470
  745MOL0     C  445   6.751   4.107   6.019 -0.2463  0.9941 -0.2982
  745MOL0     C  446   6.618   4.150   5.992 -0.5709  0.7839 -1.5251
  745MOL0     C  447   6.590   4.224   5.883  0.3328 -0.2888  0.0883
  745MOL0     O  448   6.476   4.298   5.848  0.8796 -0.1675  0.5629
  745MOL0     C  449   6.376   4.309   5.947 -0.0912  0.2895 -0.4960
  745MOL0     C  450   6.265   4.405   5.912 -0.1597 -0.0170  0.7173
  745MOL0     C  451   6.324   4.549   5.916  0.2731  0.2698 -1.3791
  745MOL0     C  452   6.222   4.660   5.886 -0.3042  0.3863 -0.1470
  745MOL0     C  453   6.288   4.798   5.897  0.4247  0.7418  0.0715
  745MOL0     C  454   6.309   4.856   5.759  0.1185  0.0747  0.8587
  745MOL0     C  455   6.407   4.782   5.672  0.2436  0.3721 -0.1652
  745MOL0     C  456   6.442   4.848   5.544 -0.6928 -0.2470 -0.4160
  745MOL0     N  457   6.319   4.876   5.460 -0.3548 -0.7965  0.5072
  745MOL0     C  458   6.226   4.786   5.413 -0.3386 -0.4065 -0.2263
  745MOL0     C  459   6.145   4.853   5.334  0.5452  0.4850 -0.1652
  745MOL0     C  460   6.026   4.798   5.254  0.2093  0.5013  0.8409
  745MOL0     C  461   6.062   4.769   5.109  0.1138 -0.1468  0.1616
  745MOL0     C  462   5.938   4.758   5.016  0.0542  0.3106  0.6885
  745MOL0     C  463   5.996   4.724   4.883 -0.1868  0.3937  0.2182
  745MOL0     O  464   6.049   4.590   4.885 -0.3674 -0.0781 -0.4848
  745MOL0     C  465   5.976   4.491   4.837  0.7034  0.2090  0.0103
  745MOL0     C  466   5.908   4.494   4.717  0.0733  1.5078 -0.1773
  745MOL0     C  467   5.822   4.381   4.675  0.3586 -0.1132  0.2353
  745MOL0     C  468   5.773   4.388   4.524  0.2910 -0.6565 -0.7821
  745MOL0     C  469   5.810   4.271   4.759 -0.6964  0.1144 -0.3860
  745MOL0     C  470   5.733   4.143   4.717 -0.6903  0.3807 -0.4418
  745MOL0     O  471   5.644   4.158   4.614  0.0285 -0.3894 -0.2612
  745MOL0     C  472   5.575   4.055   4.559  0.3589 -0.1009  0.0691
  745MOL0     C  473   5.582   3.917   4.583  0.5830  1.0771 -0.6366
  745MOL0     C  474   5.510   3.835   4.504  0.6573  1.0122 -0.5914
  745MOL0     C  475   5.426   3.883   4.397 -0.5646 -0.6039  0.1259
  745MOL0     O  476   5.360   3.793   4.321  0.4980 -0.0427  0.5814
  745MOL0     C  477   5.235   3.824   4.260 -0.4349  0.2846 -0.2155
  745MOL0     C  478   5.145   3.704   4.251  0.1847 -0.2918  1.1433
  745MOL0     C  479   5.214   3.580   4.198  0.8879  0.5013  0.3455
  745MOL0     C  480   5.128   3.453   4.221 -0.6077 -0.5699  0.2272
  745MOL0     C  481   5.216   3.332   4.187  0.0410 -0.1397  0.2342
  745MOL0     C  482   5.138   3.203   4.248 -0.5243 -0.5731  0.0209
  745MOL0     C  483   5.205   3.071   4.232  0.1400  0.5051  1.0274
  745MOL0     C  484   5.110   2.959   4.278 -0.6268  0.4800  0.2433
  745MOL0    Cl  485   5.213   2.799   4.308  0.2534  0.0260 -0.0333
  745MOL0     C  486   5.419   4.026   4.382  0.3620  0.3364 -0.5634
  745MOL0     C  487   5.501   4.108   4.453  0.1018  0.1339 -0.9747
  745MOL0     O  488   5.757   4.043   4.785  0.4087  0.3465 -0.3696
  745MOL0     C  489   5.879   4.272   4.880  0.1117 -0.8218 -1.3939
  745MOL0     C  490   5.957   4.379   4.918 -0.5338 -0.5830 -0.0596
  745MOL0     N  491   6.189   4.982   5.315 -0.4181 -0.0269  0.0555
  745MOL0     N  492   6.291   4.989   5.389  0.6212 -0.1738 -0.9957
  745MOL0     C  493   6.700   4.252   5.802 -1.0450 -0.3538 -0.0187
  745MOL0     C  494   6.831   4.199   5.820  0.3148 -0.4002 -0.3085
  745MOL0     C  495   7.198   3.965   5.923  0.7953  0.6840 -0.7715
  745MOL0     C  496   7.286   3.903   5.831 -1.5407  0.3392 -0.9634
  745MOL0     C  497   7.395   3.823   5.879  0.1114  0.4599 -0.3591
  745MOL0     C  498   7.417   3.812   6.012  0.7673 -0.6238  0.0998
  745MOL0     O  499   7.521   3.735   6.053  0.1083  0.2237 -0.3364
  745MOL0     C  500   7.521   3.676   6.182  0.0129  0.8190  0.6844
  745MOL0     C  501   7.664   3.626   6.225 -0.0365 -0.5221 -0.6346
  745MOL0     C  502   7.772   3.734   6.214 -0.5104 -0.7770  0.6602
  745MOL0     C  503   7.904   3.681   6.282 -0.6854 -0.3234  0.3458
  745MOL0     C  504   8.023   3.755   6.245  0.3432 -0.0642  0.4305
  745MOL0     C  505   8.123   3.820   6.222  1.2637  0.1262  0.0440
  745MOL0     C  506   7.331   3.882   6.106 -0.1936  0.0588  0.1568
  745MOL0     C  507   7.222   3.951   6.063 -0.2387 -0.1455 -0.1499
  745MOL0     H  508   6.765   4.059   6.115  3.0368  2.0183 -0.1258
  745MOL0     H  509   6.545   4.124   6.067  0.5136 -1.3052 -1.1128
  745MOL0     H  510   6.334   4.209   5.962 -1.0949  0.7910  0.1931
  745MOL0     H  511   6.428   4.343   6.037  2.1242  1.2897 -2.0755
  745MOL0     H  512   6.220   4.391   5.814  0.6482 -2.6114  0.6479
  745MOL0     H  513   6.184   4.379   5.981  0.3776 -0.5985  1.1520
  745MOL0     H  514   6.362   4.558   6.018 -1.3224 -1.4572 -0.5777
  745MOL0     H  515   6.403   4.554   5.839  0.9325  0.2146 -0.7153
  745MOL0     H  516   6.177   4.641   5.789 -3.3343 -4.0479  1.8143
  745MOL0     H  517   6.138   4.651   5.955  0.0332 -5.7670  0.0552
  745MOL0     H  518   6.219   4.873   5.937 -0.3674 -0.3362  0.7560
  745MOL0     H  519   6.371   4.788   5.967 -2.5426 -1.3238  3.6687
  745MOL0     H  520   6.214   4.870   5.706  0.7305  0.5596 -0.1572
  745MOL0     H  521   6.350   4.957   5.764 -1.5558  0.9787 -1.7269
  745MOL0     H  522   6.501   4.779   5.728 -0.5944  2.7711  1.5462
  745MOL0     H  523   6.359   4.686   5.653  0.7289  0.4436 -1.9175
  745MOL0     H  524   6.502   4.791   5.473  1.0879  1.0498 -0.0252
  745MOL0     H  525   6.510   4.933   5.559  0.1811 -0.9343 -0.3842
  745MOL0     H  526   6.216   4.683   5.444 -0.7907 -0.2120  0.3010
  745MOL0     H  527   5.990   4.708   5.305 -0.1980  0.6435  0.8071
  745MOL0     H  528   5.939   4.864   5.256 -1.1913 -1.2778  0.8146
  745MOL0     H  529   6.125   4.680   5.097 -1.5890 -1.5883  1.4841
  745MOL0     H  530   6.107   4.860   5.069  0.0290  0.5776  1.6401
  745MOL0     H  531   5.910   4.863   5.005  0.1402  0.3835  1.1295
  745MOL0     H  532   5.850   4.698   5.041 -2.5906  3.4318 -0.4081
  745MOL0     H  533   6.069   4.792   4.839 -1.6812  0.8612 -1.6605
  745MOL0     H  534   5.918   4.731   4.807  1.8551 -0.9594 -2.1477
  745MOL0     H  535   5.917   4.579   4.650  0.7424  0.0700 -2.0210
  745MOL0     H  536   5.789   4.293   4.472 -0.6646 -1.7369  0.7847
  745MOL0     H  537   5.667   4.414   4.513  0.6728  0.2935 -2.5016
  745MOL0     H  538   5.829   4.461   4.465 -0.4875 -2.0174 -3.3612
  745MOL0     H  539   5.633   3.878   4.671  1.3028  0.2860 -1.3843
  745MOL0     H  540   5.524   3.729   4.524 -1.3341  0.8041 -0.0722
  745MOL0     H  541   5.181   3.900   4.317 -3.3268 -3.6290  2.8518
  745MOL0     H  542   5.251   3.848   4.155 -3.0391  1.8404 -0.3282
  745MOL0     H  543   5.117   3.676   4.353  0.0053 -0.7008  0.9862
  745MOL0     H  544   5.054   3.726   4.194 -1.1700 -0.9859  2.9564
  745MOL0     H  545   5.305   3.562   4.255  0.1963 -1.1253  1.0205
  745MOL0     H  546   5.238   3.593   4.093 -1.4296 -1.4514 -0.5271
  745MOL0     H  547   5.090   3.450   4.324  4.4248  2.7153  2.5958
  745MOL0     H  548   5.041   3.455   4.156 -1.3990 -1.5456  1.2175
  745MOL0     H  549   5.320   3.342   4.221 -0.8026  1.3131  2.6404
  745MOL0     H  550   5.220   3.327   4.078  1.6297 -0.5158  0.2904
  745MOL0     H  551   5.128   3.217   4.356  0.1822  0.5072 -0.0361
  745MOL0     H  552   5.046   3.186   4.192 -0.0937 -0.4259 -0.7593
  745MOL0     H  553   5.299   3.068   4.289 -0.1034  0.8250  1.4483
  745MOL0     H  554   5.221   3.059   4.125 -1.8243 -0.4551  0.7875
  745MOL0     H  555   5.033   2.925   4.208 -0.4491  0.0171  0.2680
  745MOL0     H  556   5.050   2.987   4.365 -1.7004 -2.8747  0.7335
  745MOL0     H  557   5.365   4.082   4.306 -1.2804  1.8745  1.6285
  745MOL0     H  558   5.502   4.216   4.445  0.0412  0.3884  1.4774
  745MOL0     H  559   5.878   4.181   4.939 -1.9457 -0.3379 -0.5874
  745MOL0     H  560   5.991   4.385   5.021 -4.4651  3.0421  1.3201
  745MOL0     H  561   6.673   4.317   5.719  0.2354  0.7795  0.4090
  745MOL0     H  562   6.894   4.244   5.745 -0.1505 -2.7205 -2.1944
  745MOL0     H  563   7.277   3.907   5.723  0.2765  0.2788 -1.1506
  745MOL0     H  564   7.459   3.762   5.816 -0.7189 -4.0522  2.6392
  745MOL0     H  565   7.486   3.748   6.257 -0.2527  1.8101 -0.3664
  745MOL0     H  566   7.455   3.590   6.178 -1.1987  1.6335  2.1004
  745MOL0     H  567   7.692   3.540   6.163 -0.4328 -0.9107 -0.2837
  745MOL0     H  568   7.663   3.593   6.329  2.8734  0.1580 -0.3088
  745MOL0     H  569   7.736   3.830   6.253 -1.4366  0.3418 -2.5966
  745MOL0     H  570   7.788   3.748   6.106  1.3272 -0.7248  0.9083
  745MOL0     H  571   7.917   3.579   6.245 -4.5411 -0.5049 -0.9443
  745MOL0     H  572   7.904   3.662   6.390  2.4810 -1.9099  0.1662
  745MOL0     H  573   8.212   3.873   6.196  0.9609 -0.6535 -2.9443
  745MOL0     H  574   7.347   3.880   6.213  0.2604  0.7609  0.1071
  745MOL0     H  575   7.159   4.004   6.134  3.6580  2.9565  1.4194
  746MOL0     O  576   0.539   7.766   0.490  0.0630 -0.4080 -0.3733
  746MOL0     C  577   0.566   7.873   0.436 -0.6868  0.6141 -0.4568
  746MOL0     O  578   0.482   7.964   0.383 -0.3530  0.1914 -0.0394
  746MOL0     C  579   0.352   7.948   0.420  0.6743  0.4778  1.3267
  746MOL0     C  580   0.246   7.918   0.339  0.2731 -0.7427 -0.0735
  746MOL0     C  581   0.113   7.915   0.379 -0.2649  0.4788  0.2660
  746MOL0     C  582   0.084   7.933   0.514  0.5735  0.3706  0.4486
  746MOL0     O  583  -0.040   7.939   0.573 -0.0956  0.0115 -0.7660
  746MOL0     C  584  -0.125   7.828   0.535  0.3164 -0.2623  0.6474
  746MOL0     C  585  -0.263   7.843   0.615  0.4098  0.4854 -0.6194
  746MOL0     C  586  -0.382   7.896   0.536 -0.7490  0.4308  0.4921
  746MOL0     C  587  -0.508   7.881   0.610  0.4045 -0.5096  0.5932
  746MOL0     C  588  -0.620   7.936   0.523  1.0169 -0.0602 -0.8574
  746MOL0     C  589  -0.753   7.861   0.536  0.1518  0.1458 -0.7730
  746MOL0     C  590  -0.835   7.898   0.669  0.2887 -0.2512  0.1118
  746MOL0     C  591  -0.801   7.812   0.788 -0.3197  0.1618  0.0108
  746MOL0     N  592  -0.889   7.846   0.893  0.4219  0.1048  0.1775
  746MOL0     C  593  -1.028   7.811   0.897  0.0903  0.0749 -1.3313
  746MOL0     C  594  -1.054   7.823   1.026  0.2451 -0.5068 -0.4013
  746MOL0     C  595  -1.165   7.765   1.115 -0.7405 -0.5188  0.8323
  746MOL0     C  596  -1.309   7.780   1.065  0.6975  0.6683  0.0432
  746MOL0     C  597  -1.410   7.785   1.181 -0.4829  0.7863 -0.3689
  746MOL0     C  598  -1.547   7.818   1.132  0.1665 -0.4558 -0.1094
  746MOL0     O  599  -1.609   7.714   1.058 -0.1829 -0.0156 -0.1083
  746MOL0     C  600  -1.717   7.753   0.989  0.6682  1.1779 -0.5605
  746MOL0     C  601  -1.742   7.678   0.872 -0.0088  0.8804 -0.3219
  746MOL0     C  602  -1.864   7.671   0.810  0.6096 -0.4454 -0.0181
  746MOL0     C  603  -1.869   7.580   0.685 -0.1409 -1.1423 -0.1587
  746MOL0     C  604  -1.971   7.756   0.860 -1.6607 -0.9854 -0.3226
  746MOL0     C  605  -2.095   7.785   0.784 -0.8335 -0.5660 -0.9927
  746MOL0     O  606  -2.146   7.916   0.787 -0.0514  0.0140  0.6971
  746MOL0     C  607  -2.281   7.927   0.772 -0.8262 -0.2202 -0.7260
  746MOL0     C  608  -2.355   7.871   0.878  0.3372  0.4440  0.1750
  746MOL0     C  609  -2.493   7.875   0.858  0.5463  0.0844 -0.4114
  746MOL0     C  610  -2.552   7.946   0.755 -0.0359  0.1641  0.1584
  746MOL0     O  611  -2.691   7.946   0.756 -0.1034 -0.0036  0.1137
  746MOL0     C  612  -2.754   8.047   0.677 -0.0579  1.1305  0.3571
  746MOL0     C  613  -2.891   8.072   0.736  0.6144  0.0531 -0.1861
  746MOL0     C  614  -2.973   8.177   0.653 -0.3412 -0.6013 -0.7100
  746MOL0     C  615  -3.108   8.199   0.714 -0.0449  0.9243 -0.0894
  746MOL0     C  616  -3.196   8.257   0.609 -0.4660  0.9156  0.1523
  746MOL0     C  617  -3.328   8.319   0.662  0.7690  0.1105 -0.1266
  746MOL0     C  618  -3.414   8.228   0.756  0.4491 -0.0402 -0.1671
  746MOL0     C  619  -3.519   8.314   0.824 -0.9811 -0.8122 -0.5725
  746MOL0    Cl  620  -3.603   8.428   0.712  0.2861 -0.6771 -0.3023
  746MOL0     C  621  -2.467   7.993   0.647 -0.2162 -0.4285 -0.3799
  746MOL0     C  622  -2.335   7.987   0.656 -0.5245  0.5744  0.2753
  746MOL0     O  623  -2.154   7.691   0.734  0.3895  0.3609  0.0993
  746MOL0     C  624  -1.945   7.834   0.965  0.0813 -0.0892  0.1922
  746MOL0     C  625  -1.827   7.824   1.037 -0.1402  0.4519  0.4033
  746MOL0     N  626  -0.946   7.868   1.103  0.3045  1.2214 -0.4080
  746MOL0     N  627  -0.847   7.878   1.018  0.5076 -0.6712 -0.3865
  746MOL0     C  628   0.182   7.959   0.603 -0.8788  0.8589 -0.0656
  746MOL0     C  629   0.317   7.967   0.558  0.2308 -0.7225  0.6287
  746MOL0     C  630   0.715   7.901   0.410  0.2353  0.9101  0.3183
  746MOL0     C  631   0.755   8.028   0.384  0.8407  0.1168  0.1025
  746MOL0     C  632   0.884   8.053   0.333  0.2020  0.1259  0.3590
  746MOL0     C  633   0.989   7.961   0.334  0.6494  0.4299 -0.0437
  746MOL0     O  634   1.118   7.996   0.283  0.3633  0.4910 -0.1354
  746MOL0     C  635   1.200   7.886   0.231 -0.0074 -0.1799  0.0077
  746MOL0     C  636   1.340   7.936   0.194 -0.5387  0.7433  0.2296
  746MOL0     C  637   1.447   7.842   0.126  0.2316  0.1426 -0.5650
  746MOL0     C  638   1.449   7.708   0.210 -0.7569 -0.0289  0.1777
  746MOL0     C  639   1.559   7.626   0.166 -0.5021  0.1906  0.5668
  746MOL0     C  640   1.638   7.555   0.114 -0.7691 -0.1226  0.2848
  746MOL0     C  641   0.951   7.834   0.382 -0.2248 -0.1518  0.5434
  746MOL0     C  642   0.820   7.803   0.417  0.4596 -0.2104  0.1606
  746MOL0     H  643   0.272   7.904   0.234  3.0042 -3.2305  0.8125
  746MOL0     H  644   0.024   7.903   0.317  1.1743 -0.3507 -1.7501
  746MOL0     H  645  -0.137   7.833   0.426 -0.3198 -1.1052  0.6658
  746MOL0     H  646  -0.072   7.734   0.554 -0.9288 -0.8761  1.1757
  746MOL0     H  647  -0.283   7.748   0.666  0.3986  1.7607  1.9124
  746MOL0     H  648  -0.240   7.898   0.707 -2.0884  2.1521 -0.9024
  746MOL0     H  649  -0.368   8.002   0.518  5.2608 -0.2341 -0.7633
  746MOL0     H  650  -0.394   7.845   0.440  1.7116  0.5706  0.0678
  746MOL0     H  651  -0.519   7.773   0.622 -0.7545 -0.7951 -2.1387
  746MOL0     H  652  -0.496   7.915   0.713  2.0501 -1.7297  0.8374
  746MOL0     H  653  -0.648   8.040   0.540  0.4752 -0.7963  4.4952
  746MOL0     H  654  -0.589   7.922   0.419 -0.5045  0.5472 -1.4200
  746MOL0     H  655  -0.822   7.877   0.452 -0.5841 -0.0068 -0.2114
  746MOL0     H  656  -0.732   7.754   0.542 -1.8112 -0.3408 -1.4995
  746MOL0     H  657  -0.813   8.001   0.699  1.6850 -0.4003 -0.3311
  746MOL0     H  658  -0.942   7.887   0.651  0.5469 -0.6944 -1.2230
  746MOL0     H  659  -0.695   7.828   0.807 -0.6597 -0.0320  2.2764
  746MOL0     H  660  -0.805   7.703   0.772 -0.9425 -0.3695  3.2002
  746MOL0     H  661  -1.091   7.778   0.814  0.8190 -0.3185 -1.7336
  746MOL0     H  662  -1.147   7.660   1.141 -2.0733 -1.2313 -0.9512
  746MOL0     H  663  -1.158   7.815   1.212  1.2581  1.1363 -0.0893
  746MOL0     H  664  -1.333   7.698   0.997 -0.5861  0.2403  0.9715
  746MOL0     H  665  -1.332   7.872   1.010  0.4188  0.2077 -0.6196
  746MOL0     H  666  -1.377   7.856   1.257  0.8853 -1.7651  1.5847
  746MOL0     H  667  -1.418   7.686   1.227 -0.8823 -0.3120 -2.6438
  746MOL0     H  668  -1.543   7.907   1.068  0.9045 -0.0588  0.4682
  746MOL0     H  669  -1.614   7.849   1.213 -1.2408  2.8144 -2.3015
  746MOL0     H  670  -1.665   7.609   0.838  0.7172  0.7262  1.5218
  746MOL0     H  671  -1.773   7.555   0.640 -0.0556  1.8253 -1.9212
  746MOL0     H  672  -1.938   7.497   0.704 -3.5443  1.1270 -1.4604
  746MOL0     H  673  -1.912   7.635   0.600 -0.2377 -1.6719 -0.4548
  746MOL0     H  674  -2.307   7.819   0.960  2.1579  1.9492  0.1329
  746MOL0     H  675  -2.549   7.830   0.939  1.2313 -1.1144 -0.5764
  746MOL0     H  676  -2.693   8.137   0.665  1.7104 -0.3302 -2.8987
  746MOL0     H  677  -2.764   8.008   0.575  1.7402 -0.4791  0.7322
  746MOL0     H  678  -2.953   7.982   0.741  0.2216  0.3451  0.2551
  746MOL0     H  679  -2.887   8.117   0.836 -4.3257  1.8375 -0.5284
  746MOL0     H  680  -2.972   8.139   0.551  1.0145 -1.0947 -0.5458
  746MOL0     H  681  -2.923   8.274   0.641  0.3619 -0.6655  1.3189
  746MOL0     H  682  -3.140   8.108   0.766  2.3067 -0.9590 -1.7261
  746MOL0     H  683  -3.091   8.265   0.799  0.1445 -0.3270  0.8737
  746MOL0     H  684  -3.233   8.175   0.547  0.6221  0.4619  0.0782
  746MOL0     H  685  -3.149   8.331   0.544  0.2030 -1.1356 -1.8474
  746MOL0     H  686  -3.307   8.408   0.722 -3.0836  1.3372 -0.3369
  746MOL0     H  687  -3.381   8.346   0.571  1.3771  2.1236  0.0678
  746MOL0     H  688  -3.346   8.183   0.829  1.2948  1.1496 -0.1995
  746MOL0     H  689  -3.459   8.145   0.700  0.9544 -1.9030  2.0387
  746MOL0     H  690  -3.483   8.381   0.902 -0.3288  1.3047 -2.5743
  746MOL0     H  691  -3.595   8.244   0.861 -0.9196 -0.7587 -0.3464
  746MOL0     H  692  -2.515   8.035   0.559  1.6082  1.7822 -0.3944
  746MOL0     H  693  -2.281   8.024   0.570  1.3906  3.1901  2.4480
  746MOL0     H  694  -2.023   7.902   0.997  0.5370  0.7151 -0.3705
  746MOL0     H  695  -1.830   7.877   1.132 -1.7233 -0.6542  1.0120
  746MOL0     H  696   0.161   7.980   0.708 -1.2379  0.2782 -0.0155
  746MOL0     H  697   0.397   7.989   0.629  0.7427 -1.0814  0.1731
  746MOL0     H  698   0.683   8.108   0.402  0.6910 -0.2572  1.2375
  746MOL0     H  699   0.901   8.155   0.300 -0.8690  0.0768 -0.4068
  746MOL0     H  700   1.205   7.792   0.286  1.6197  0.0356  0.2667
  746MOL0     H  701   1.133   7.858   0.149  1.1689 -0.1517 -0.9864
  746MOL0     H  702   1.386   7.968   0.288 -0.7820  0.0138  0.6004
  746MOL0     H  703   1.321   8.026   0.135 -0.0856  0.3352 -0.5480
  746MOL0     H  704   1.545   7.890   0.129  1.2793 -1.9082  2.1815
  746MOL0     H  705   1.416   7.819   0.024  0.1946 -2.4024 -0.0485
  746MOL0     H  706   1.364   7.639   0.199 -0.2300 -1.5055  3.9873
  746MOL0     H  707   1.451   7.738   0.315  1.8291  1.3315 -0.1826
  746MOL0     H  708   1.704   7.480   0.075 -2.3262 -0.5395 -1.7677
  746MOL0     H  709   1.010   7.743   0.381 -2.2712 -1.5616 -1.3122
  746MOL0     H  710   0.780   7.710   0.455 -1.9554  1.2251  1.3725
  747MOL0     O  711   4.012   9.035   0.144 -0.0833 -0.1536 -0.5078
  747MOL0     C  712   4.107   9.091   0.200  0.1824 -0.1966 -0.6395
  747MOL0     O  713   4.103   9.207   0.262  0.2120 -0.0531  0.0405
  747MOL0     C  714   3.974   9.266   0.284 -0.1423  0.1721  0.2931
  747MOL0     C  715   3.953   9.400   0.264  0.4607 -0.0176  0.1416
  747MOL0     C  716   3.820   9.459   0.276  0.3526  0.4642  0.6141
  747MOL0     C  717   3.710   9.380   0.318 -0.4379  0.0127 -0.0883
  747MOL0     O  718   3.585   9.430   0.327  0.4336  0.7922  0.3957
  747MOL0     C  719   3.549   9.556   0.366 -0.2491 -0.3255  0.2078
  747MOL0     C  720   3.409   9.594   0.319  0.0044  0.3182  0.7178
  747MOL0     C  721   3.302   9.545   0.422 -0.6706  0.6924 -0.0026
  747MOL0     C  722   3.162   9.551   0.371 -0.5988 -0.0633  0.2359
  747MOL0     C  723   3.132   9.681   0.292 -0.3652 -0.2315 -0.3857
  747MOL0     C  724   3.127   9.812   0.377 -0.3632 -1.0286  0.9649
  747MOL0     C  725   3.001   9.825   0.460 -0.0767  0.8960 -0.1922
  747MOL0     C  726   3.008   9.890   0.598  0.2468  0.0349 -0.6861
  747MOL0     N  727   2.868   9.897   0.644 -0.0981 -0.0507 -0.4405
  747MOL0     C  728   2.775   9.984   0.616  0.0266 -0.1191  0.4439
  747MOL0     C  729   2.664   9.941   0.678 -0.7111 -0.5282  0.0149
  747MOL0     C  730   2.529  10.005   0.669 -0.0642  0.5954 -0.2606
  747MOL0     C  731   2.429   9.916   0.583 -0.4618 -0.6045  0.5593
  747MOL0     C  732   2.284   9.973   0.592  0.9481 -0.1747 -0.3029
  747MOL0     C  733   2.167   9.897   0.525  0.0303  0.3255 -0.2299
  747MOL0     O  734   2.051   9.964   0.569  0.7004 -0.1234  0.0587
  747MOL0     C  735   1.924   9.904   0.547 -0.4662  0.7389  0.0304
  747MOL0     C  736   1.825   9.946   0.633 -0.6076  0.7357  0.4264
  747MOL0     C  737   1.698   9.886   0.631  0.4546  0.3481  0.1333
  747MOL0     C  738   1.588   9.943   0.722  0.0344  0.2208 -0.3215
  747MOL0     C  739   1.669   9.791   0.526  0.3572  0.2972 -0.4585
  747MOL0     C  740   1.528   9.739   0.506 -0.3487  0.6064 -0.4568
  747MOL0     O  741   1.442   9.717   0.607 -0.6275 -0.0062 -0.3102
  747MOL0     C  742   1.309   9.682   0.589 -1.0744  0.3409  0.4343
  747MOL0     C  743   1.219   9.733   0.683  0.0749 -0.3537 -0.5276
  747MOL0     C  744   1.080   9.712   0.676  0.2275  0.2953 -0.0905
  747MOL0     C  745   1.026   9.641   0.562  0.0757 -0.1794  0.5630
  747MOL0     O  746   0.888   9.628   0.548 -0.2497  0.6821  0.8311
  747MOL0     C  747   0.832   9.527   0.463 -0.0785  0.1936  0.1620
  747MOL0     C  748   0.683   9.551   0.476  0.3527 -0.6524  0.0870
  747MOL0     C  749   0.599   9.463   0.391  0.1487 -0.1457  1.1180
  747MOL0     C  750   0.458   9.497   0.411  0.2936 -0.9300 -0.0297
  747MOL0     C  751   0.379   9.477   0.284 -0.1681  0.2132  0.6295
  747MOL0     C  752   0.228   9.518   0.304 -1.2362  1.0627 -0.3983
  747MOL0     C  753   0.153   9.421   0.388  0.0138 -0.5931  0.1175
  747MOL0     C  754   0.010   9.455   0.413  0.3383  0.3969 -0.2964
  747MOL0    Cl  755  -0.061   9.547   0.278 -0.2377 -0.3662  0.3590
  747MOL0     C  756   1.117   9.585   0.474 -0.4346 -0.4348  0.0147
  747MOL0     C  757   1.259   9.605   0.485  0.3187 -0.2705 -1.3818
  747MOL0     O  758   1.507   9.718   0.384 -0.0837  0.2503 -0.3402
  747MOL0     C  759   1.775   9.744   0.443 -0.1526  0.9587  0.3771
  747MOL0     C  760   1.905   9.799   0.459 -0.0434  0.3609  1.0671
  747MOL0     N  761   2.698   9.821   0.739  0.3748  0.1069 -0.2883
  747MOL0     N  762   2.821   9.800   0.729 -0.7012 -0.0701  0.9377
  747MOL0     C  763   3.745   9.242   0.343  0.5070 -0.2755  0.5052
  747MOL0     C  764   3.868   9.187   0.326 -0.4330 -0.2275  0.5420
  747MOL0     C  765   4.236   9.015   0.208  0.5764 -0.2151 -0.3887
  747MOL0     C  766   4.327   9.053   0.305 -0.4418  0.4013 -0.5905
  747MOL0     C  767   4.436   8.961   0.330 -0.2290  0.2471 -0.1741
  747MOL0     C  768   4.459   8.844   0.250  0.2168 -0.4068 -0.2744
  747MOL0     O  769   4.559   8.754   0.277 -0.3712  0.1569 -0.1353
  747MOL0     C  770   4.685   8.795   0.332 -0.5556  0.7424  0.4493
  747MOL0     C  771   4.707   8.774   0.486 -0.3430  0.0408  0.2781
  747MOL0     C  772   4.854   8.807   0.525 -0.6664 -0.0519  1.0630
  747MOL0     C  773   4.859   8.823   0.680 -0.0926  0.0651 -0.1155
  747MOL0     C  774   4.820   8.955   0.724  0.4223  0.1240 -0.3584
  747MOL0     C  775   4.793   9.064   0.767  0.6496  0.2639  0.2045
  747MOL0     C  776   4.372   8.822   0.146 -0.0385 -0.2986 -0.5071
  747MOL0     C  777   4.261   8.908   0.119  0.9569 -0.1155  0.0273
  747MOL0     H  778   4.038   9.456   0.225  0.6637 -0.9460 -0.8164
  747MOL0     H  779   3.819   9.563   0.247  4.0859  0.6126  0.5978
  747MOL0     H  780   3.561   9.560   0.475 -1.1802 -3.8079  0.5616
  747MOL0     H  781   3.617   9.628   0.320 -2.4395  0.4397 -2.0654
  747MOL0     H  782   3.398   9.703   0.307  2.0905  0.3559 -1.9520
  747MOL0     H  783   3.390   9.553   0.219 -0.8699 -2.3490  1.8960
  747MOL0     H  784   3.329   9.444   0.454 -1.4740  0.6867  0.6974
  747MOL0     H  785   3.303   9.605   0.513 -1.6602 -0.4852  0.8353
  747MOL0     H  786   3.147   9.467   0.303  2.9706  0.7238 -1.8352
  747MOL0     H  787   3.080   9.540   0.442  0.0018  0.4357  1.0262
  747MOL0     H  788   3.210   9.700   0.218 -0.9377  0.3007 -0.8723
  747MOL0     H  789   3.036   9.685   0.239  0.1244  0.1550 -1.2791
  747MOL0     H  790   3.217   9.826   0.438  0.7751  2.0432 -1.1464
  747MOL0     H  791   3.124   9.902   0.314 -3.6875 -0.9199  1.1273
  747MOL0     H  792   2.930   9.873   0.392  0.8102 -0.4521 -2.1517
  747MOL0     H  793   2.950   9.730   0.479 -2.3211  2.1442  0.3980
  747MOL0     H  794   3.054   9.989   0.587  0.3153  0.4178  2.1887
  747MOL0     H  795   3.073   9.832   0.665 -1.4794  1.1878  2.1808
  747MOL0     H  796   2.785  10.072   0.554 -0.9801 -0.7469 -0.6562
  747MOL0     H  797   2.501  10.012   0.775  2.9212  1.0036  0.5990
  747MOL0     H  798   2.541  10.107   0.630 -0.9015  1.2299  1.0375
  747MOL0     H  799   2.439   9.815   0.624  2.7203 -0.1811  1.1015
  747MOL0     H  800   2.460   9.910   0.478  2.9430  0.4863  1.3849
  747MOL0     H  801   2.295  10.071   0.545  0.5573  0.5589  1.1085
  747MOL0     H  802   2.253   9.999   0.693  0.0131  1.1921 -0.9059
  747MOL0     H  803   2.158   9.796   0.565 -2.6863  1.8471  3.4529
  747MOL0     H  804   2.168   9.901   0.415 -0.4542  0.7043 -0.2214
  747MOL0     H  805   1.854  10.021   0.705  1.4519 -1.0696  1.5806
  747MOL0     H  806   1.572   9.878   0.809  0.1959 -2.1793 -1.9866
  747MOL0     H  807   1.605  10.041   0.768 -1.7254 -0.1657  1.2645
  747MOL0     H  808   1.495   9.950   0.664  2.1432  0.5782 -3.9693
  747MOL0     H  809   1.274   9.783   0.762  0.0412 -1.6707  0.3612
  747MOL0     H  810   1.021   9.758   0.756  1.7272  0.9961  0.6546
  747MOL0     H  811   0.860   9.532   0.357  0.8805 -1.2828  0.3221
  747MOL0     H  812   0.842   9.422   0.489 -1.3838 -0.8266 -2.9867
  747MOL0     H  813   0.658   9.538   0.582 -1.1021 -1.6412 -0.3567
  747MOL0     H  814   0.678   9.657   0.448 -2.4612 -1.1119 -1.4744
  747MOL0     H  815   0.625   9.361   0.421  0.2761 -0.1370  1.0392
  747MOL0     H  816   0.630   9.485   0.288 -1.6153 -2.1987  0.0495
  747MOL0     H  817   0.417   9.438   0.494  1.6371 -2.1465 -0.2000
  747MOL0     H  818   0.453   9.604   0.432  1.8530 -0.3624 -2.2007
  747MOL0     H  819   0.387   9.377   0.240  0.3444  0.2103  0.7255
  747MOL0     H  820   0.422   9.538   0.204  1.5151 -1.6201  0.0412
  747MOL0     H  821   0.239   9.610   0.361  0.0897  0.1262  0.9043
  747MOL0     H  822   0.184   9.533   0.204 -1.5291  0.1165 -0.4194
  747MOL0     H  823   0.199   9.413   0.487 -2.8194 -0.3495  1.5827
  747MOL0     H  824   0.155   9.326   0.334 -0.0687  0.7548 -2.4218
  747MOL0     H  825  -0.005   9.512   0.505 -2.3779  0.8316 -0.9038
  747MOL0     H  826  -0.046   9.362   0.422 -0.5173  0.9189 -0.0620
  747MOL0     H  827   1.083   9.515   0.398  0.6638  0.1803 -1.0630
  747MOL0     H  828   1.320   9.561   0.407 -0.8557 -1.7303 -1.5154
  747MOL0     H  829   1.756   9.670   0.366 -1.2237 -2.5843  3.7090
  747MOL0     H  830   1.987   9.753   0.405  0.7337  1.6082  1.1572
  747MOL0     H  831   3.666   9.170   0.364 -2.4322  1.9361 -2.0230
  747MOL0     H  832   3.879   9.083   0.356 -1.8692 -0.6534 -0.3100
  747MOL0     H  833   4.306   9.140   0.366 -1.2076  0.7346 -1.3157
  747MOL0     H  834   4.513   8.981   0.404  1.2944 -3.1139 -0.6682
  747MOL0     H  835   4.766   8.747   0.276 -0.5970  0.2921  0.7808
  747MOL0     H  836   4.696   8.901   0.306  1.2463  0.2379 -1.1019
  747MOL0     H  837   4.678   8.671   0.509 -2.6863  0.6401  0.3293
  747MOL0     H  838   4.649   8.842   0.549  0.1905  2.3758 -1.6133
  747MOL0     H  839   4.884   8.902   0.480  0.5578 -1.2038 -0.7040
  747MOL0     H  840   4.931   8.740   0.486 -1.1205  0.4797 -0.8423
  747MOL0     H  841   4.961   8.819   0.721 -0.2180 -0.1565  0.1784
  747MOL0     H  842   4.789   8.756   0.730 -3.1603  0.6525 -3.2318
  747MOL0     H  843   4.754   9.157   0.802  0.3155  0.3237 -0.3091
  747MOL0     H  844   4.386   8.727   0.095  0.6716 -0.1134 -0.6675
  747MOL0     H  845   4.199   8.877   0.035 -0.5455 -1.4458  1.5482
  748MOL0     O  846   5.135   3.521   7.227 -0.4601  0.5363  0.2919
  748MOL0     C  847   5.253   3.492   7.212  0.8129  0.9333  0.7168
  748MOL0     O  848   5.342   3.464   7.313 -0.2100 -0.0998  0.5151
  748MOL0     C  849   5.303   3.477   7.446  0.0209 -0.5294 -0.4151
  748MOL0     C  850   5.380   3.410   7.539  0.7269 -0.1734  0.2083
  748MOL0     C  851   5.350   3.411   7.674 -0.3208  0.5877 -0.3460
  748MOL0     C  852   5.236   3.474   7.727  0.4816  0.2420 -0.9320
  748MOL0     O  853   5.212   3.469   7.860  0.2840  0.8642  0.0555
  748MOL0     C  854   5.106   3.545   7.912  0.4094 -0.4785  1.6901
  748MOL0     C  855   5.104   3.500   8.058  0.7553 -0.0395 -0.0080
  748MOL0     C  856   5.011   3.587   8.137  0.4229 -0.6845  0.5556
  748MOL0     C  857   4.988   3.537   8.279  0.3625 -0.2534  0.1931
  748MOL0     C  858   4.883   3.421   8.288 -0.0028 -0.4527 -1.0929
  748MOL0     C  859   4.882   3.371   8.430  0.0062 -0.5489 -0.0335
  748MOL0     C  860   4.811   3.239   8.425 -0.2775  0.6409 -0.1949
  748MOL0     C  861   4.794   3.190   8.575  0.2183  0.3044 -0.2913
  748MOL0     N  862   4.703   3.075   8.579  0.0660 -0.4829  0.0422
  748MOL0     C  863   4.573   3.056   8.614  0.4514  0.9680 -0.5470
  748MOL0     C  864   4.540   2.923   8.606  0.2788 -0.7562  0.6531
  748MOL0     C  865   4.404   2.863   8.633  0.1316 -0.1306  0.0494
  748MOL0     C  866   4.301   2.904   8.531  0.1027 -0.2357 -0.1302
  748MOL0     C  867   4.313   2.838   8.393 -0.5958  0.4634  0.4616
  748MOL0     C  868   4.413   2.917   8.307  0.3384 -0.0096  0.2242
  748MOL0     O  869   4.352   3.041   8.288 -0.0186 -0.2592 -0.3371
  748MOL0     C  870   4.394   3.136   8.201  0.4348  1.1583 -0.4697
  748MOL0     C  871   4.318   3.249   8.193  0.0385 -0.1923 -0.6673
  748MOL0     C  872   4.346   3.358   8.105 -0.0344 -0.0253 -0.6746
  748MOL0     C  873   4.255   3.477   8.109  0.0989  0.7138 -0.2208
  748MOL0     C  874   4.452   3.347   8.018  0.1868  0.1129  0.5919
  748MOL0     C  875   4.506   3.465   7.938 -0.0067  0.3094 -0.3803
  748MOL0     O  876   4.644   3.479   7.938  0.2885  0.6886 -0.0121
  748MOL0     C  877   4.707   3.557   7.845  1.0159 -0.4789 -0.4634
  748MOL0     C  878   4.723   3.505   7.719 -0.1014 -0.4021  0.4028
  748MOL0     C  879   4.780   3.587   7.618 -0.1221  0.1369  0.7615
  748MOL0     C  880   4.823   3.721   7.645 -1.1593  0.1870  0.3767
  748MOL0     O  881   4.893   3.777   7.541  0.0949  0.3964 -0.3424
  748MOL0     C  882   4.931   3.913   7.539  0.3817 -0.7052 -0.3081
  748MOL0     C  883   4.802   4.005   7.531  1.0598 -0.1586 -0.5498
  748MOL0     C  884   4.727   3.972   7.406  0.3455  0.3493  0.1223
  748MOL0     C  885   4.609   4.074   7.399  0.3008  0.0740 -0.1211
  748MOL0     C  886   4.523   4.042   7.275 -0.2889  0.6696 -0.0475
  748MOL0     C  887   4.593   4.085   7.146 -0.3610  0.2434 -0.4736
  748MOL0     C  888   4.499   4.065   7.035  0.3891  0.1605 -0.4900
  748MOL0     C  889   4.557   4.121   6.907  0.7757 -0.1889  0.3945
  748MOL0    Cl  890   4.489   4.031   6.774 -0.1340 -0.4120  0.4935
  748MOL0     C  891   4.809   3.769   7.769  0.4007 -0.1373  0.3313
  748MOL0     C  892   4.756   3.683   7.871  0.7472  0.0209 -0.3973
  748MOL0     O  893   4.429   3.542   7.888  0.0711  0.0223 -0.4920
  748MOL0     C  894   4.525   3.234   8.025  0.1833  0.8422 -0.2326
  748MOL0     C  895   4.508   3.134   8.121  0.7093  0.2142 -0.3279
  748MOL0     N  896   4.650   2.867   8.544 -0.4647 -0.1908  0.2270
  748MOL0     N  897   4.749   2.953   8.537  0.2712 -0.1995 -0.0413
  748MOL0     C  898   5.156   3.543   7.636 -0.6475  0.1670  0.4307
  748MOL0     C  899   5.187   3.544   7.502 -0.2289  0.3500  1.4627
  748MOL0     C  900   5.303   3.469   7.075  0.1832 -0.1118  0.6823
  748MOL0     C  901   5.435   3.432   7.045  0.2284 -0.0602 -0.0628
  748MOL0     C  902   5.488   3.402   6.915 -0.2787  0.1940 -0.7040
  748MOL0     C  903   5.403   3.418   6.809  0.4119  0.1418  0.4696
  748MOL0     O  904   5.457   3.390   6.682 -0.1464  0.0453 -0.1204
  748MOL0     C  905   5.370   3.302   6.606  0.1064  0.2575 -0.0612
  748MOL0     C  906   5.423   3.287   6.464  0.0894 -0.0948 -0.0770
  748MOL0     C  907   5.555   3.199   6.474 -0.3286  0.4923 -0.1272
  748MOL0     C  908   5.643   3.229   6.355 -0.1009  0.0664  0.0066
  748MOL0     C  909   5.756   3.132   6.351  0.5334  0.7625 -0.6019
  748MOL0     C  910   5.844   3.058   6.380 -0.7677 -0.6956  0.1402
  748MOL0     C  911   5.271   3.466   6.831  0.5539  0.0228 -0.1027
  748MOL0     C  912   5.226   3.491   6.960  0.1017 -0.4837  0.1116
  748MOL0     H  913   5.472   3.362   7.508  1.0323  0.9784 -0.7743
  748MOL0     H  914   5.434   3.369   7.728 -0.3220  0.7813 -0.1917
  748MOL0     H  915   5.122   3.651   7.891  1.7822 -1.1160 -0.9385
  748MOL0     H  916   5.012   3.520   7.861 -0.2166  2.3259  1.2741
  748MOL0     H  917   5.076   3.394   8.060  0.8763 -0.1088  3.2653
  748MOL0     H  918   5.201   3.517   8.106  1.0499 -0.2451 -0.5199
  748MOL0     H  919   5.045   3.690   8.139 -1.6472  0.1381 -1.6380
  748MOL0     H  920   4.911   3.585   8.091  0.2819  1.7098  0.6667
  748MOL0     H  921   5.086   3.503   8.315  0.4790 -1.1474 -0.8950
  748MOL0     H  922   4.944   3.623   8.330  3.1668  1.7275 -0.4517
  748MOL0     H  923   4.782   3.457   8.267 -0.4358 -0.1621  1.2489
  748MOL0     H  924   4.918   3.348   8.214  0.1715  3.1919 -5.0058
  748MOL0     H  925   4.983   3.359   8.468  0.0574  0.2177  0.0834
  748MOL0     H  926   4.827   3.430   8.504  2.8545  0.3277  1.5478
  748MOL0     H  927   4.714   3.240   8.375 -1.1150 -4.1540  0.8395
  748MOL0     H  928   4.871   3.179   8.356 -0.1334  2.4354 -1.6820
  748MOL0     H  929   4.753   3.269   8.639 -3.0126 -0.6519 -1.0368
  748MOL0     H  930   4.895   3.166   8.611 -0.5354  1.1351  2.7069
  748MOL0     H  931   4.502   3.133   8.641 -0.2135  0.5680 -1.1348
  748MOL0     H  932   4.414   2.754   8.636 -0.3769 -0.2276 -1.3391
  748MOL0     H  933   4.379   2.900   8.733  5.2444  0.2923  1.4675
  748MOL0     H  934   4.300   3.013   8.521 -1.4788 -0.0849  1.1995
  748MOL0     H  935   4.200   2.877   8.565 -0.1802  0.9082 -0.0062
  748MOL0     H  936   4.213   2.847   8.350  0.4126 -1.3670 -2.5655
  748MOL0     H  937   4.337   2.732   8.407 -0.6971  0.3363 -0.2978
  748MOL0     H  938   4.420   2.862   8.213 -1.9786 -1.0150  0.5630
  748MOL0     H  939   4.513   2.932   8.348 -0.1812  3.0522  0.5760
  748MOL0     H  940   4.246   3.252   8.274  0.1413  1.3475 -0.6045
  748MOL0     H  941   4.312   3.570   8.112  0.6331  0.4226 -0.9618
  748MOL0     H  942   4.191   3.468   8.022  1.9972 -2.1919 -1.5047
  748MOL0     H  943   4.198   3.475   8.202  1.0343  0.7919  0.3779
  748MOL0     H  944   4.701   3.405   7.682 -0.1012 -0.1827 -0.2004
  748MOL0     H  945   4.803   3.553   7.517  0.3728  1.2445  0.4825
  748MOL0     H  946   5.005   3.937   7.617 -0.4544  0.5053  0.1445
  748MOL0     H  947   4.978   3.936   7.444 -1.1409 -2.2252 -1.4851
  748MOL0     H  948   4.736   3.990   7.617  0.5905 -3.2403 -1.3011
  748MOL0     H  949   4.828   4.110   7.517  0.0629  0.1366 -0.3035
  748MOL0     H  950   4.682   3.873   7.410 -3.8443  2.0253 -0.7338
  748MOL0     H  951   4.787   3.982   7.315 -1.4493 -3.7210 -1.7372
  748MOL0     H  952   4.557   4.065   7.495 -0.4644  3.8717 -0.0392
  748MOL0     H  953   4.659   4.171   7.388  1.5238 -0.7152 -2.0724
  748MOL0     H  954   4.426   4.092   7.284 -1.0532 -0.6828 -0.3710
  748MOL0     H  955   4.501   3.934   7.276 -1.2536  0.8316  1.8635
  748MOL0     H  956   4.614   4.192   7.149 -0.7852  0.3041  1.1402
  748MOL0     H  957   4.692   4.044   7.122 -0.4319  1.7789 -4.0224
  748MOL0     H  958   4.408   4.120   7.061  0.8090  0.0872  1.2159
  748MOL0     H  959   4.492   3.956   7.026  1.7803 -0.2270  2.2178
  748MOL0     H  960   4.665   4.101   6.909  0.5002 -1.7661  1.5695
  748MOL0     H  961   4.525   4.223   6.885 -1.6397 -0.7044  1.2462
  748MOL0     H  962   4.849   3.868   7.789 -1.3326  0.9189 -1.1139
  748MOL0     H  963   4.743   3.721   7.972 -1.6354  1.5796 -1.2116
  748MOL0     H  964   4.603   3.217   7.951 -0.1643  0.4829 -0.5187
  748MOL0     H  965   4.575   3.048   8.123  1.5780  0.8522 -1.0731
  748MOL0     H  966   5.073   3.609   7.661 -1.6324 -1.1819  0.8052
  748MOL0     H  967   5.126   3.605   7.435  0.6828  0.3376  0.6051
  748MOL0     H  968   5.496   3.408   7.132 -0.0803 -0.3957  0.0634
  748MOL0     H  969   5.584   3.355   6.899 -0.4495 -0.5546  0.3119
  748MOL0     H  970   5.363   3.204   6.654  1.0493 -1.2917 -2.8467
  748MOL0     H  971   5.273   3.350   6.593  1.0619  1.7004 -2.8185
  748MOL0     H  972   5.441   3.391   6.433  1.0167 -0.6305 -1.4891
  748MOL0     H  973   5.346   3.234   6.407 -1.3288 -0.6204  2.2175
  748MOL0     H  974   5.529   3.093   6.472 -2.1941  0.9290 -1.6199
  748MOL0     H  975   5.609   3.223   6.566 -0.3146  2.8425 -0.6638
  748MOL0     H  976   5.690   3.328   6.357  1.7360 -0.7383 -0.9536
  748MOL0     H  977   5.586   3.210   6.263  0.3135  0.9814 -0.4545
  748MOL0     H  978   5.925   2.991   6.403  0.3056  0.0302 -1.4250
  748MOL0     H  979   5.213   3.503   6.747 -2.6468  1.3950  2.4593
  748MOL0     H  980   5.125   3.533   6.961  0.6754  0.9663  1.3019
  749MOL0     O  981   3.109   8.053   1.715 -0.0550  0.0457 -0.6498
  749MOL0     C  982   3.206   8.125   1.695  0.9627 -0.2756  0.8414
  749MOL0     O  983   3.215   8.224   1.600 -0.1326 -0.3880  0.4381
  749MOL0     C  984   3.134   8.210   1.493 -0.1658  0.6608 -0.5442
  749MOL0     C  985   2.998   8.244   1.507  0.8778 -0.0271  0.5074
  749MOL0     C  986   2.919   8.250   1.393  0.0891 -0.0741  0.4532
  749MOL0     C  987   2.967   8.218   1.269  0.1463  0.5308 -0.2380
  749MOL0     O  988   2.875   8.220   1.171 -0.8906 -0.4845 -0.4754
  749MOL0     C  989   2.910   8.188   1.036 -0.1474 -0.1915 -0.0228
  749MOL0     C  990   2.786   8.169   0.951  0.5882  0.0661  0.5457
  749MOL0     C  991   2.704   8.295   0.940 -0.8220 -0.0592  0.5921
  749MOL0     C  992   2.583   8.263   0.853  0.2005 -0.4131  0.9575
  749MOL0     C  993   2.513   8.390   0.793 -0.1479  0.0853  0.2825
  749MOL0     C  994   2.382   8.348   0.724 -0.0181  0.1223 -0.3611
  749MOL0     C  995   2.300   8.468   0.677  0.3169 -1.2327  0.1344
  749MOL0     C  996   2.176   8.426   0.590 -0.0416  0.0263  0.3134
  749MOL0     N  997   2.093   8.546   0.553 -0.1139 -0.3829 -0.0514
  749MOL0     C  998   2.032   8.591   0.434 -0.6319  0.0168  0.6531
  749MOL0     C  999   1.928   8.671   0.472 -0.1721  0.3264 -0.2104
  749MOL0     C 1000   1.814   8.730   0.387 -0.2353  0.0793 -0.0055
  749MOL0     C 1001   1.736   8.643   0.290 -0.7281  0.6472 -0.3181
  749MOL0     C 1002   1.659   8.529   0.370  0.3883  0.9061 -0.3498
  749MOL0     C 1003   1.596   8.410   0.284  0.1922 -0.0248  0.1968
  749MOL0     O 1004   1.467   8.447   0.227  0.1426  0.1706  0.4447
  749MOL0     C 1005   1.354   8.452   0.313  0.5312  0.8897  0.1737
  749MOL0     C 1006   1.315   8.567   0.381  0.4397 -0.3321 -0.0665
  749MOL0     C 1007   1.190   8.581   0.448  0.4037 -0.7091  0.5171
  749MOL0     C 1008   1.156   8.717   0.518  0.1506 -0.5158  0.5800
  749MOL0     C 1009   1.105   8.467   0.438  1.0856 -0.4811  0.3035
  749MOL0     C 1010   0.969   8.467   0.486 -0.1952  0.5800 -0.2029
  749MOL0     O 1011   0.875   8.380   0.427 -0.6151  0.0698 -0.1930
  749MOL0     C 1012   0.743   8.386   0.466  0.2805  0.4351  0.9504
  749MOL0     C 1013   0.646   8.374   0.364 -0.4175  0.2539 -0.5034
  749MOL0     C 1014   0.515   8.361   0.407 -0.0673  0.8643  0.2185
  749MOL0     C 1015   0.474   8.342   0.539 -0.4976  0.0671 -0.1229
  749MOL0     O 1016   0.335   8.342   0.562  0.1203  0.5424  0.0824
  749MOL0     C 1017   0.289   8.326   0.699 -0.8838  0.3039 -0.1203
  749MOL0     C 1018   0.137   8.313   0.697 -0.0944  0.2379  0.0159
  749MOL0     C 1019   0.087   8.276   0.833  0.6449 -0.0270 -0.1929
  749MOL0     C 1020  -0.057   8.232   0.808 -0.1426 -0.4344  0.1010
  749MOL0     C 1021  -0.132   8.197   0.939 -0.1552 -0.3219  0.1887
  749MOL0     C 1022  -0.279   8.197   0.912 -0.5587 -0.2749  0.2967
  749MOL0     C 1023  -0.353   8.139   1.032 -0.4636  0.0856  0.2891
  749MOL0     C 1024  -0.369   8.243   1.149  0.6076 -0.1328  0.6903
  749MOL0    Cl 1025  -0.472   8.190   1.286 -0.0846  0.5078  0.0272
  749MOL0     C 1026   0.578   8.330   0.639  1.2705 -0.1526  0.1402
  749MOL0     C 1027   0.707   8.348   0.599  0.8631  0.6380  0.5356
  749MOL0     O 1028   0.930   8.543   0.573 -0.1350  0.1509 -0.2300
  749MOL0     C 1029   1.137   8.352   0.364  0.1744 -0.1912 -0.1434
  749MOL0     C 1030   1.262   8.347   0.303 -0.3530  0.0438  0.9441
  749MOL0     N 1031   1.931   8.683   0.605 -0.1846 -0.2411 -0.4681
  749MOL0     N 1032   2.031   8.613   0.650 -0.2613 -0.6766 -0.1633
  749MOL0     C 1033   3.105   8.192   1.254  0.9426  0.1334 -0.0190
  749MOL0     C 1034   3.189   8.180   1.368 -0.1749  0.3132  0.9406
  749MOL0     C 1035   3.331   8.109   1.768 -0.8433  0.2911  0.3109
  749MOL0     C 1036   3.443   8.184   1.736  0.0934  0.2407  0.1732
  749MOL0     C 1037   3.569   8.175   1.804  0.0074  0.6137  0.0381
  749MOL0     C 1038   3.580   8.083   1.906  0.0981 -0.3490  0.3823
  749MOL0     O 1039   3.702   8.092   1.968 -0.5362  0.3374 -0.4595
  749MOL0     C 1040   3.720   7.989   2.073  0.7526  0.6733  0.3119
  749MOL0     C 1041   3.863   7.982   2.121  0.2697 -0.5562  0.1239
  749MOL0     C 1042   3.959   8.002   2.003 -0.2954 -0.7483  0.6389
  749MOL0     C 1043   4.113   8.007   2.038 -0.4343 -0.8003  0.2799
  749MOL0     C 1044   4.158   7.875   2.056 -0.4363 -0.6040  0.0929
  749MOL0     C 1045   4.205   7.764   2.073  0.8919 -0.5475  0.4486
  749MOL0     C 1046   3.469   8.004   1.938 -0.2942  0.0790  0.0597
  749MOL0     C 1047   3.348   8.017   1.876  0.1724 -0.5810 -0.2007
  749MOL0     H 1048   2.959   8.273   1.605  0.5388 -0.1459  0.4086
  749MOL0     H 1049   2.815   8.270   1.417 -0.5809 -1.9165 -0.6586
  749MOL0     H 1050   2.974   8.268   0.997  0.6170 -0.1291  1.3005
  749MOL0     H 1051   2.972   8.098   1.023  1.5553  1.1202 -1.6936
  749MOL0     H 1052   2.823   8.125   0.858  0.5789  4.4177 -1.7777
  749MOL0     H 1053   2.718   8.099   0.999 -2.0019  1.0165 -1.4532
  749MOL0     H 1054   2.674   8.333   1.038  1.3180  1.8779  0.5764
  749MOL0     H 1055   2.763   8.374   0.892 -5.1647  1.6234 -2.7272
  749MOL0     H 1056   2.607   8.201   0.766  1.1479 -1.2297  1.7777
  749MOL0     H 1057   2.516   8.201   0.914  0.1277 -0.0946  1.2056
  749MOL0     H 1058   2.492   8.450   0.881 -4.5179 -3.7993  2.3005
  749MOL0     H 1059   2.572   8.452   0.725 -1.0278 -1.5505 -2.1207
  749MOL0     H 1060   2.391   8.271   0.647 -2.0247 -0.5177 -0.0182
  749MOL0     H 1061   2.331   8.287   0.800 -0.8998 -0.0334 -1.0518
  749MOL0     H 1062   2.260   8.516   0.766 -0.9924  1.1759 -1.6666
  749MOL0     H 1063   2.364   8.545   0.633  1.1200 -0.5372  2.3895
  749MOL0     H 1064   2.111   8.366   0.655 -0.5989 -0.4924 -0.6980
  749MOL0     H 1065   2.210   8.367   0.505  3.3262 -2.4630  3.1084
  749MOL0     H 1066   2.056   8.564   0.332 -1.4672  2.5867 -0.2959
  749MOL0     H 1067   1.744   8.772   0.459 -2.1052 -0.3601 -1.4903
  749MOL0     H 1068   1.842   8.816   0.324 -1.0548  0.9313  0.7629
  749MOL0     H 1069   1.812   8.597   0.225 -0.8488 -0.4316  0.2765
  749MOL0     H 1070   1.665   8.706   0.235 -0.7215  2.8692  2.0569
  749MOL0     H 1071   1.572   8.572   0.421 -2.5369 -2.2030 -2.2891
  749MOL0     H 1072   1.734   8.492   0.440  0.1279 -3.6346 -2.1328
  749MOL0     H 1073   1.603   8.327   0.354  2.9301 -1.0985 -1.2139
  749MOL0     H 1074   1.657   8.381   0.198 -1.6635  2.9349 -2.3826
  749MOL0     H 1075   1.373   8.658   0.372 -0.3507  0.2491  0.5273
  749MOL0     H 1076   1.052   8.745   0.502  0.1260 -1.3223 -0.9120
  749MOL0     H 1077   1.179   8.711   0.625 -0.0711 -0.1852  0.6460
  749MOL0     H 1078   1.223   8.798   0.489 -1.6625  1.3411  1.3857
  749MOL0     H 1079   0.684   8.387   0.263 -1.4018 -1.5002 -1.1467
  749MOL0     H 1080   0.434   8.360   0.335  0.0059  3.0762  0.0474
  749MOL0     H 1081   0.329   8.240   0.754  1.5650  3.0929  2.9192
  749MOL0     H 1082   0.310   8.413   0.762 -0.1403 -1.2908  1.9568
  749MOL0     H 1083   0.079   8.399   0.660 -0.9726 -0.7993 -1.0949
  749MOL0     H 1084   0.113   8.230   0.630 -2.5796  0.4551  0.5472
  749MOL0     H 1085   0.092   8.361   0.902  3.4054  0.6116 -1.0744
  749MOL0     H 1086   0.137   8.191   0.880 -1.2841 -2.8511 -2.8704
  749MOL0     H 1087  -0.104   8.313   0.752  1.2040 -0.1396 -0.6504
  749MOL0     H 1088  -0.069   8.149   0.738 -1.4115 -0.2704  0.0945
  749MOL0     H 1089  -0.115   8.275   1.014 -1.8362 -0.1201  0.3997
  749MOL0     H 1090  -0.094   8.111   0.996  0.5744 -0.6701 -0.7928
  749MOL0     H 1091  -0.316   8.300   0.905  0.0647  0.2467  3.3546
  749MOL0     H 1092  -0.299   8.134   0.825  2.2970  0.7264 -1.2029
  749MOL0     H 1093  -0.294   8.054   1.068 -2.1484  0.1377  3.4988
  749MOL0     H 1094  -0.448   8.090   1.011 -1.0048  1.0912  0.2986
  749MOL0     H 1095  -0.401   8.338   1.106  0.6304 -0.8854 -1.1017
  749MOL0     H 1096  -0.268   8.255   1.191  0.4680 -3.1573  2.1323
  749MOL0     H 1097   0.542   8.318   0.740  0.6858  0.0944 -0.0334
  749MOL0     H 1098   0.790   8.344   0.669  1.4102  3.5915  0.1627
  749MOL0     H 1099   1.081   8.259   0.360  0.2609 -0.2147 -0.8900
  749MOL0     H 1100   1.303   8.264   0.247  0.9937 -1.2905  3.7343
  749MOL0     H 1101   3.153   8.197   1.157  3.5847 -0.8254  1.1379
  749MOL0     H 1102   3.291   8.145   1.364 -0.1754  0.3978  0.1336
  749MOL0     H 1103   3.441   8.247   1.647  0.9256 -1.1617 -0.8742
  749MOL0     H 1104   3.646   8.240   1.765 -0.9473  1.1484 -1.0138
  749MOL0     H 1105   3.662   8.007   2.164 -1.6785  3.0314 -1.5057
  749MOL0     H 1106   3.683   7.893   2.035 -2.3662  1.7941  0.2629
  749MOL0     H 1107   3.872   7.897   2.189  0.6357 -0.2708  0.4311
  749MOL0     H 1108   3.893   8.072   2.176 -0.4301 -1.2488  1.7030
  749MOL0     H 1109   3.942   8.100   1.958  2.2609 -1.2153 -1.6550
  749MOL0     H 1110   3.939   7.937   1.917 -0.4641  0.5532 -0.3331
  749MOL0     H 1111   4.141   8.074   2.121 -2.7767 -0.4248  0.8356
  749MOL0     H 1112   4.177   8.034   1.953 -0.2303 -2.1061  0.0051
  749MOL0     H 1113   4.233   7.661   2.078 -2.7668 -1.7176 -0.1301
  749MOL0     H 1114   3.472   7.925   2.012 -0.2102  0.7394  0.7734
  749MOL0     H 1115   3.263   7.957   1.910  0.5355 -2.3015 -2.1185
  750MOL0     O 1116   9.106   1.094   7.863  0.0385 -0.0428  0.3819
  750MOL0     C 1117   9.185   1.073   7.960  0.0551 -0.0361  0.2985
  750MOL0     O 1118   9.157   1.089   8.096  0.2627  0.5571 -0.2685
  750MOL0     C 1119   9.028   1.118   8.139 -0.2932 -0.7486 -0.5796
  750MOL0     C 1120   8.953   1.027   8.219 -0.7612  0.7099  0.5336
  750MOL0     C 1121   8.820   1.048   8.247 -0.4675  0.0165 -0.4798
  750MOL0     C 1122   8.765   1.171   8.208  1.3096  0.1502 -0.4515
  750MOL0     O 1123   8.633   1.187   8.253 -0.4132  0.4672  0.5964
  750MOL0     C 1124   8.552   1.311   8.238 -1.3971  0.3452  0.3608
  750MOL0     C 1125   8.453   1.307   8.121  0.1752  0.4456 -1.0868
  750MOL0     C 1126   8.521   1.267   7.995 -0.1165 -0.7582  0.1517
  750MOL0     C 1127   8.417   1.281   7.877 -0.4164  0.5033 -0.0481
  750MOL0     C 1128   8.460   1.200   7.757 -0.5755  1.7244 -1.4061
  750MOL0     C 1129   8.357   1.210   7.644  0.3177  0.2566 -0.2284
  750MOL0     C 1130   8.245   1.107   7.657  0.4322  0.4830  0.1598
  750MOL0     C 1131   8.138   1.119   7.542  0.1215 -0.9089  0.4710
  750MOL0     N 1132   8.048   1.234   7.567 -0.1868 -0.2477  0.5252
  750MOL0     C 1133   7.987   1.303   7.462 -0.5774 -0.4439 -0.3964
  750MOL0     C 1134   7.913   1.395   7.523  0.4808  0.5046  0.1648
  750MOL0     C 1135   7.844   1.515   7.461 -0.6574 -1.0301 -0.1955
  750MOL0     C 1136   7.694   1.502   7.442  0.1977  0.4892  0.1289
  750MOL0     C 1137   7.625   1.513   7.580 -0.7083  0.4157  0.5615
  750MOL0     C 1138   7.476   1.528   7.547  0.2060 -0.4834  0.0252
  750MOL0     O 1139   7.395   1.542   7.668  0.4268 -0.3937  0.3971
  750MOL0     C 1140   7.264   1.577   7.673  1.2274 -0.1555 -0.1233
  750MOL0     C 1141   7.198   1.572   7.797  0.0325 -0.8332 -0.4157
  750MOL0     C 1142   7.070   1.625   7.810  0.6556  0.3280  1.0311
  750MOL0     C 1143   7.012   1.621   7.948  0.4785 -0.7091 -0.0662
  750MOL0     C 1144   6.998   1.660   7.697 -0.3374 -0.1173 -0.4227
  750MOL0     C 1145   6.872   1.729   7.701  0.6318 -1.1136  0.0409
  750MOL0     O 1146   6.858   1.848   7.628 -0.4659 -0.3329 -0.6597
  750MOL0     C 1147   6.743   1.915   7.668  0.7598 -0.0722  0.2511
  750MOL0     C 1148   6.752   2.040   7.725  0.2161  0.3377  0.0949
  750MOL0     C 1149   6.637   2.112   7.776 -1.0179  0.5639 -0.1844
  750MOL0     C 1150   6.512   2.062   7.747  0.2293  0.4167 -0.0235
  750MOL0     O 1151   6.407   2.141   7.787  0.2394 -0.7394  0.3577
  750MOL0     C 1152   6.272   2.116   7.724 -0.3855 -0.3659  0.7099
  750MOL0     C 1153   6.165   2.208   7.762 -0.4555  0.2497 -0.3492
  750MOL0     C 1154   6.028   2.187   7.704 -0.3168  0.5501  0.4717
  750MOL0     C 1155   6.008   2.262   7.577  0.2683  0.2658 -0.3559
  750MOL0     C 1156   5.860   2.236   7.533 -0.2874  1.1449 -0.6361
  750MOL0     C 1157   5.821   2.318   7.414 -0.0153 -0.6313 -0.2361
  750MOL0     C 1158   5.670   2.295   7.399  0.8181  0.8864  0.3001
  750MOL0     C 1159   5.585   2.408   7.451 -1.7028 -0.1664  0.8052
  750MOL0    Cl 1160   5.424   2.372   7.393 -0.4813 -0.4251  0.8816
  750MOL0     C 1161   6.495   1.934   7.692 -0.3303  0.0155  1.0365
  750MOL0     C 1162   6.611   1.861   7.655 -0.6356 -0.2113  0.1991
  750MOL0     O 1163   6.782   1.679   7.771 -0.4894 -1.1039 -0.5847
  750MOL0     C 1164   7.056   1.642   7.571 -0.0932 -1.0655  0.1211
  750MOL0     C 1165   7.188   1.602   7.558  0.0685  1.0481  0.7042
  750MOL0     N 1166   7.922   1.383   7.656 -1.2006 -0.3904  0.7219
  750MOL0     N 1167   8.000   1.285   7.681 -0.2509 -0.6598 -0.6791
  750MOL0     C 1168   8.846   1.269   8.148  0.5396 -0.4010 -0.3944
  750MOL0     C 1169   8.973   1.242   8.116  0.3570 -0.2990  0.2203
  750MOL0     C 1170   9.328   1.036   7.928  0.4288  0.2635 -0.1047
  750MOL0     C 1171   9.422   1.017   8.030 -0.2213 -0.6216 -0.0617
  750MOL0     C 1172   9.546   0.949   8.013  0.4877  0.2839  0.5416
  750MOL0     C 1173   9.588   0.919   7.887  0.0718 -0.4301 -0.1860
  750MOL0     O 1174   9.713   0.863   7.862 -0.7758  0.1394 -0.0405
  750MOL0     C 1175   9.807   0.838   7.968 -0.2581 -0.5587 -0.2584
  750MOL0     C 1176   9.952   0.843   7.914 -0.7465 -0.1084 -0.2532
  750MOL0     C 1177   9.981   0.731   7.815  0.5050 -0.1808 -0.3364
  750MOL0     C 1178  10.112   0.719   7.752 -0.4956  0.0940 -0.2536
  750MOL0     C 1179  10.170   0.832   7.684 -0.0642 -0.6846  0.6524
  750MOL0     C 1180  10.239   0.921   7.631  0.0367 -0.2304 -0.5347
  750MOL0     C 1181   9.498   0.943   7.781 -0.1844  0.6796  0.7002
  750MOL0     C 1182   9.371   0.995   7.798  0.0129 -0.6881 -0.0726
  750MOL0     H 1183   8.992   0.934   8.262  1.5628  0.5125 -1.7588
  750MOL0     H 1184   8.755   0.979   8.299 -0.2257  2.7908  3.9935
  750MOL0     H 1185   8.489   1.327   8.327 -2.8962 -0.1259 -0.5899
  750MOL0     H 1186   8.624   1.393   8.224 -1.6036  0.1083 -2.7438
  750MOL0     H 1187   8.384   1.227   8.152 -0.1344  0.1944 -2.3865
  750MOL0     H 1188   8.409   1.407   8.124  0.6319  0.6234  0.1814
  750MOL0     H 1189   8.601   1.339   7.976  0.8977 -1.8602  0.0737
  750MOL0     H 1190   8.553   1.162   7.997 -2.1183 -1.4265 -0.3553
  750MOL0     H 1191   8.319   1.241   7.904 -1.1642  1.7288 -0.8464
  750MOL0     H 1192   8.405   1.388   7.858  3.1543  1.3331  1.5416
  750MOL0     H 1193   8.554   1.245   7.725  0.9785  1.2413  2.0007
  750MOL0     H 1194   8.471   1.095   7.786 -0.6128  1.2449 -3.0716
  750MOL0     H 1195   8.320   1.312   7.647 -1.0794 -0.2366  0.8615
  750MOL0     H 1196   8.414   1.197   7.552 -3.3394 -0.7022 -2.5320
  750MOL0     H 1197   8.284   1.005   7.652 -1.6392 -0.7754  4.6055
  750MOL0     H 1198   8.198   1.110   7.756  1.7924 -1.0773  0.9082
  750MOL0     H 1199   8.079   1.026   7.536  0.1768 -0.8698 -0.9756
  750MOL0     H 1200   8.178   1.130   7.441 -1.3405  1.4804  0.0885
  750MOL0     H 1201   7.996   1.274   7.358 -1.1437 -0.6394 -0.3927
  750MOL0     H 1202   7.866   1.608   7.515 -0.0523 -1.5324  0.4398
  750MOL0     H 1203   7.891   1.526   7.362  0.5515  0.7180  0.5097
  750MOL0     H 1204   7.678   1.415   7.377 -0.6491  2.2838 -2.2277
  750MOL0     H 1205   7.655   1.588   7.388  0.3050  1.5745  1.7305
  750MOL0     H 1206   7.657   1.595   7.644 -3.4148  1.0952  1.1793
  750MOL0     H 1207   7.647   1.417   7.628 -0.8987  0.1788  0.1816
  750MOL0     H 1208   7.451   1.438   7.491  1.5698  0.3565 -2.0578
  750MOL0     H 1209   7.449   1.604   7.473 -1.9662 -2.9687 -1.9414
  750MOL0     H 1210   7.252   1.543   7.887  1.9511  2.5225 -0.3463
  750MOL0     H 1211   7.092   1.645   8.019  0.0989  0.6407 -0.0649
  750MOL0     H 1212   6.933   1.694   7.966 -0.5605 -2.0434  0.9800
  750MOL0     H 1213   6.969   1.522   7.961 -0.2363 -0.2213  1.5032
  750MOL0     H 1214   6.855   2.069   7.743  0.7362 -1.3452 -0.0282
  750MOL0     H 1215   6.664   2.193   7.843  3.7731 -0.5610 -0.4213
  750MOL0     H 1216   6.281   2.103   7.616 -0.0546 -2.4658  0.9450
  750MOL0     H 1217   6.237   2.022   7.768 -1.6229  0.0146  0.5823
  750MOL0     H 1218   6.153   2.189   7.869 -0.8718 -0.7336 -0.5642
  750MOL0     H 1219   6.198   2.312   7.753 -1.8705  0.5972 -1.9769
  750MOL0     H 1220   5.948   2.219   7.772  1.1085  5.1469  0.3369
  750MOL0     H 1221   5.999   2.082   7.694 -2.4923  1.0187  1.2766
  750MOL0     H 1222   6.018   2.370   7.587 -0.6789  0.5237 -1.8559
  750MOL0     H 1223   6.085   2.223   7.510  1.6610  1.7339  0.3289
  750MOL0     H 1224   5.789   2.259   7.613  0.1158  0.4068 -0.0443
  750MOL0     H 1225   5.853   2.132   7.501  1.8142  0.1589  1.7370
  750MOL0     H 1226   5.843   2.424   7.431 -1.0663 -0.2209 -1.3091
  750MOL0     H 1227   5.882   2.291   7.328 -1.5891 -1.4554 -1.1252
  750MOL0     H 1228   5.636   2.195   7.426 -0.5124  0.7266 -1.7554
  750MOL0     H 1229   5.644   2.287   7.293  1.8436  2.0654 -0.0674
  750MOL0     H 1230   5.632   2.501   7.417  0.8611 -1.4067  0.7164
  750MOL0     H 1231   5.586   2.421   7.560 -2.5409  2.8746  0.5480
  750MOL0     H 1232   6.408   1.870   7.683  0.7659 -1.2731 -1.2091
  750MOL0     H 1233   6.609   1.759   7.619 -0.2496  0.2666 -1.2475
  750MOL0     H 1234   7.000   1.666   7.481 -0.1985  3.5648  1.1885
  750MOL0     H 1235   7.233   1.600   7.459  0.8639  2.0234  1.0263
  750MOL0     H 1236   8.803   1.366   8.122 -1.0404 -1.2529 -1.0848
  750MOL0     H 1237   9.029   1.320   8.064 -0.8401 -1.4295 -3.0421
  750MOL0     H 1238   9.401   1.041   8.134  1.9153  0.7128  0.1448
  750MOL0     H 1239   9.599   0.932   8.106  0.0256  0.9389  0.9377
  750MOL0     H 1240   9.796   0.911   8.048  1.5117 -0.3751 -0.1385
  750MOL0     H 1241   9.796   0.734   7.999  0.7485 -1.2909 -2.1537
  750MOL0     H 1242  10.013   0.838   8.004 -0.3093 -0.4870 -0.5661
  750MOL0     H 1243   9.961   0.937   7.857  1.0210 -0.3707 -0.4756
  750MOL0     H 1244   9.909   0.743   7.733  1.4729  1.3263 -1.0199
  750MOL0     H 1245   9.965   0.636   7.865 -0.8798 -1.0457 -2.2891
  750MOL0     H 1246  10.115   0.632   7.686  0.5262 -0.5372  0.5985
  750MOL0     H 1247  10.182   0.686   7.829 -0.5720  0.5415  0.0106
  750MOL0     H 1248  10.291   1.011   7.603 -0.0453 -0.6731 -2.2253
  750MOL0     H 1249   9.525   0.915   7.680 -4.1552 -1.2865  0.0025
  750MOL0     H 1250   9.301   1.004   7.716  0.2916  1.7058 -0.1124
  751MOL0     O 1251   8.261   1.777   5.060 -0.2498  0.5685 -1.0321
  751MOL0     C 1252   8.271   1.735   5.177 -0.8312 -0.8540 -0.1279
  751MOL0     O 1253   8.174   1.682   5.259  0.0854  0.1533  0.6600
  751MOL0     C 1254   8.041   1.689   5.219 -0.2807 -0.1551  0.4804
  751MOL0     C 1255   7.982   1.780   5.128  0.0521  0.9292  0.1497
  751MOL0     C 1256   7.841   1.785   5.113 -0.2636  0.5231  0.0163
  751MOL0     C 1257   7.757   1.699   5.185  0.6339 -0.8310 -1.1675
  751MOL0     O 1258   7.614   1.696   5.178  0.1268 -0.6434  0.1764
  751MOL0     C 1259   7.550   1.807   5.110  0.0142  0.2248 -0.4748
  751MOL0     C 1260   7.401   1.808   5.148 -0.2121 -0.7462  0.3875
  751MOL0     C 1261   7.377   1.809   5.303  0.0996  0.0698 -0.3083
  751MOL0     C 1262   7.249   1.879   5.345 -0.1857  0.0751 -1.3840
  751MOL0     C 1263   7.121   1.793   5.335 -0.3900 -0.0157  0.5191
  751MOL0     C 1264   6.992   1.882   5.350 -0.0966 -0.2135 -0.1879
  751MOL0     C 1265   6.877   1.801   5.292 -0.1898  0.0953 -0.2376
  751MOL0     C 1266   6.744   1.878   5.259 -0.2280  0.0766  0.1213
  751MOL0     N 1267   6.668   1.936   5.372 -0.1952 -0.4607  0.6725
  751MOL0     C 1268   6.620   1.866   5.477  0.6670 -0.3956 -0.3261
  751MOL0     C 1269   6.574   1.960   5.571 -1.3615  0.1683  0.0437
  751MOL0     C 1270   6.511   1.919   5.705 -1.2395  0.0198  0.2355
  751MOL0     C 1271   6.357   1.937   5.692 -0.3838 -1.2981 -0.2096
  751MOL0     C 1272   6.298   1.867   5.567  1.3035 -0.6874  0.0672
  751MOL0     C 1273   6.149   1.881   5.558  0.4395 -0.4976  0.0597
  751MOL0     O 1274   6.079   1.843   5.677 -0.6899  0.4189 -1.0822
  751MOL0     C 1275   5.941   1.855   5.692  0.4136  0.5540  0.8060
  751MOL0     C 1276   5.880   1.820   5.815  0.5215  0.3879  0.3993
  751MOL0     C 1277   5.743   1.826   5.840 -0.4067  1.1590  0.0481
  751MOL0     C 1278   5.710   1.790   5.977  0.7365 -0.1823 -0.3242
  751MOL0     C 1279   5.658   1.858   5.733  0.7367 -0.7867  0.0257
  751MOL0     C 1280   5.508   1.872   5.751 -0.0988  0.3213 -0.3982
  751MOL0     O 1281   5.443   1.854   5.636  0.3181 -0.3234  0.0383
  751MOL0     C 1282   5.305   1.859   5.640 -0.2119 -0.5622  0.3929
  751MOL0     C 1283   5.224   1.786   5.725  0.4011 -0.2170  0.3166
  751MOL0     C 1284   5.082   1.790   5.715  0.3522  0.7006  0.0795
  751MOL0     C 1285   5.021   1.867   5.617 -0.1828 -0.5465  0.0065
  751MOL0     O 1286   4.891   1.865   5.593  0.1943  0.7526 -0.7771
  751MOL0     C 1287   4.800   1.802   5.686  0.5580  0.1812  0.3186
  751MOL0     C 1288   4.671   1.832   5.628 -0.6582  0.0905 -0.8154
  751MOL0     C 1289   4.625   1.974   5.642 -0.9934  0.6336  0.2251
  751MOL0     C 1290   4.518   1.991   5.749 -0.4613 -0.8518 -0.4967
  751MOL0     C 1291   4.376   1.958   5.695 -0.6171  0.1899  0.7291
  751MOL0     C 1292   4.270   1.985   5.802 -0.0801 -0.3615 -0.8620
  751MOL0     C 1293   4.145   2.054   5.735 -0.4299 -0.4938  0.7055
  751MOL0     C 1294   4.172   2.187   5.673 -0.0795 -0.1332 -0.3006
  751MOL0    Cl 1295   4.019   2.243   5.583 -0.1601  0.0908 -0.2453
  751MOL0     C 1296   5.105   1.940   5.531  0.2574 -0.1338  0.6053
  751MOL0     C 1297   5.245   1.943   5.552 -0.2525  0.1652  0.0480
  751MOL0     O 1298   5.466   1.890   5.861  0.1776 -0.3584  0.6136
  751MOL0     C 1299   5.714   1.879   5.604  0.8842  0.0184  0.5236
  751MOL0     C 1300   5.854   1.880   5.587 -0.3025  0.4852 -0.3693
  751MOL0     N 1301   6.591   2.089   5.513 -0.1342 -0.4819 -0.7928
  751MOL0     N 1302   6.639   2.065   5.396  0.4750 -0.4831  0.1434
  751MOL0     C 1303   7.814   1.608   5.265  1.4196 -0.3048 -0.3825
  751MOL0     C 1304   7.950   1.606   5.285 -0.5124 -0.3059  0.1273
  751MOL0     C 1305   8.397   1.719   5.241 -1.1307 -0.4097  0.2839
  751MOL0     C 1306   8.511   1.769   5.171  0.2646 -0.2290 -0.2370
  751MOL0     C 1307   8.632   1.755   5.223  0.6502  0.5856 -0.4879
  751MOL0     C 1308   8.659   1.687   5.346 -0.0093  0.4175 -0.1799
  751MOL0     O 1309   8.786   1.681   5.398  0.3359 -0.3484 -0.3386
  751MOL0     C 1310   8.813   1.619   5.528  0.5419 -0.6817  0.2357
  751MOL0     C 1311   8.957   1.596   5.550 -0.6591  0.5765 -0.2434
  751MOL0     C 1312   9.010   1.501   5.440 -0.1877 -0.1951 -1.2681
  751MOL0     C 1313   9.159   1.471   5.454  0.3564  0.3963  0.0706
  751MOL0     C 1314   9.219   1.387   5.348  0.5094  0.2820 -0.3830
  751MOL0     C 1315   9.276   1.307   5.273 -0.4744 -0.1838 -0.6921
  751MOL0     C 1316   8.550   1.634   5.420 -0.0550 -0.1195  0.4910
  751MOL0     C 1317   8.421   1.653   5.363  0.4635  0.5523 -0.9185
  751MOL0     H 1318   8.044   1.859   5.087 -1.4020  1.5370 -0.9939
  751MOL0     H 1319   7.802   1.864   5.048 -0.1645  2.0334  1.7216
  751MOL0     H 1320   7.595   1.898   5.150  0.0406 -0.3575  0.8912
  751MOL0     H 1321   7.556   1.806   5.001 -0.7465 -0.1574 -0.5253
  751MOL0     H 1322   7.367   1.900   5.100  2.5587 -1.2216 -2.8274
  751MOL0     H 1323   7.346   1.726   5.101 -1.4765  0.4581 -0.3071
  751MOL0     H 1324   7.380   1.707   5.342 -1.9202 -0.4186 -1.3079
  751MOL0     H 1325   7.462   1.860   5.349  0.3772  0.1847 -0.9362
  751MOL0     H 1326   7.255   1.908   5.450 -0.8644 -1.5971 -0.8563
  751MOL0     H 1327   7.234   1.964   5.278 -0.1353  0.4717 -0.8913
  751MOL0     H 1328   7.125   1.746   5.237  0.8904  2.8323 -0.9024
  751MOL0     H 1329   7.122   1.717   5.414 -1.3349 -1.7314 -1.0613
  751MOL0     H 1330   6.977   1.912   5.454 -0.6575 -0.9900 -0.0357
  751MOL0     H 1331   7.010   1.971   5.289  0.6285  0.9653  1.6430
  751MOL0     H 1332   6.914   1.760   5.198  1.3174  0.8622 -0.0071
  751MOL0     H 1333   6.870   1.721   5.365  5.0191 -0.7566 -0.2908
  751MOL0     H 1334   6.673   1.813   5.208 -1.5395  0.2516  1.6528
  751MOL0     H 1335   6.764   1.959   5.188 -0.4435 -0.4102 -0.5085
  751MOL0     H 1336   6.628   1.759   5.494 -1.9586 -0.4466  1.2517
  751MOL0     H 1337   6.527   1.812   5.724  0.7781 -0.1238 -1.8185
  751MOL0     H 1338   6.549   1.978   5.788 -0.3518  1.7753 -1.3499
  751MOL0     H 1339   6.343   2.045   5.682 -1.0336 -1.4465 -1.0335
  751MOL0     H 1340   6.313   1.902   5.785  3.2550 -1.9757  1.4274
  751MOL0     H 1341   6.322   1.761   5.575 -3.2753 -1.8237  2.4476
  751MOL0     H 1342   6.339   1.909   5.475  2.3793  0.9188  1.2129
  751MOL0     H 1343   6.123   1.832   5.463  1.5630  0.6698 -0.8787
  751MOL0     H 1344   6.126   1.988   5.555  0.2753 -0.5476 -1.0002
  751MOL0     H 1345   5.946   1.803   5.900 -1.1484 -2.4061  1.2621
  751MOL0     H 1346   5.799   1.745   6.022  0.2031 -0.4983  0.4252
  751MOL0     H 1347   5.685   1.877   6.039 -0.8293  0.0038 -1.1686
  751MOL0     H 1348   5.628   1.720   5.992 -0.0673  0.5680 -1.1524
  751MOL0     H 1349   5.266   1.722   5.802 -2.2644  1.5844  3.4842
  751MOL0     H 1350   5.034   1.718   5.781  2.9748  0.6544  2.0992
  751MOL0     H 1351   4.810   1.694   5.671  3.2619  0.6472 -2.0641
  751MOL0     H 1352   4.802   1.815   5.795 -0.1354 -3.0569  0.8035
  751MOL0     H 1353   4.689   1.824   5.520  1.1601  2.9979 -0.8291
  751MOL0     H 1354   4.590   1.768   5.663 -1.0269  1.4493  0.8997
  751MOL0     H 1355   4.590   2.014   5.547 -0.0625  1.9088  0.3873
  751MOL0     H 1356   4.719   2.028   5.659 -0.4215 -0.2721 -0.0081
  751MOL0     H 1357   4.541   1.925   5.834  1.0485 -1.1947 -1.1398
  751MOL0     H 1358   4.520   2.093   5.788 -0.2254 -0.6701 -0.9783
  751MOL0     H 1359   4.369   1.852   5.670  2.1466  0.1344 -0.1461
  751MOL0     H 1360   4.366   2.010   5.599  3.4609 -0.9457 -0.5178
  751MOL0     H 1361   4.241   1.893   5.854  1.6801 -1.2178 -1.3068
  751MOL0     H 1362   4.310   2.054   5.876  1.6535 -2.0842 -0.1098
  751MOL0     H 1363   4.073   2.076   5.814 -1.4047 -1.4613  0.1151
  751MOL0     H 1364   4.107   1.984   5.660  0.3978  1.3316 -1.5210
  751MOL0     H 1365   4.245   2.189   5.592 -1.9812  0.2398 -2.0729
  751MOL0     H 1366   4.206   2.259   5.749  0.4968 -0.0306 -0.6559
  751MOL0     H 1367   5.070   2.013   5.458 -0.5705 -1.8169 -0.7446
  751MOL0     H 1368   5.306   2.013   5.496  1.4072 -0.8561  0.5234
  751MOL0     H 1369   5.655   1.902   5.516  1.0649 -1.7587 -0.0951
  751MOL0     H 1370   5.887   1.907   5.486  2.4166 -0.1458  0.2523
  751MOL0     H 1371   7.748   1.537   5.315  0.4918 -0.4163 -1.7067
  751MOL0     H 1372   7.979   1.528   5.355 -0.6783 -0.0212  0.5154
  751MOL0     H 1373   8.504   1.807   5.070  0.3233 -2.1190 -0.9955
  751MOL0     H 1374   8.718   1.781   5.162 -0.1260  0.1971 -1.7872
  751MOL0     H 1375   8.767   1.683   5.604 -3.9186 -1.9342 -1.0954
  751MOL0     H 1376   8.768   1.520   5.539 -0.4332 -0.1779  0.9772
  751MOL0     H 1377   8.975   1.549   5.647 -0.2504 -0.0250 -0.5988
  751MOL0     H 1378   9.011   1.691   5.545 -1.6313  1.1858  0.5595
  751MOL0     H 1379   8.985   1.548   5.345 -0.6901  0.6591 -0.7307
  751MOL0     H 1380   8.958   1.406   5.456 -0.5829  0.1654 -0.3336
  751MOL0     H 1381   9.178   1.427   5.552  3.1355 -0.3059 -0.7001
  751MOL0     H 1382   9.215   1.565   5.458  0.5079  0.3960 -1.4114
  751MOL0     H 1383   9.315   1.230   5.211 -0.2036 -2.7200  2.3746
  751MOL0     H 1384   8.570   1.585   5.515 -0.3579  1.5366  1.4467
  751MOL0     H 1385   8.342   1.608   5.422  2.0749  0.2656  1.1042
  752MOL0     O 1386   3.255  10.646   1.549  0.1443  0.3185  0.8651
  752MOL0     C 1387   3.297  10.642   1.667  0.0402  0.3773 -0.0562
  752MOL0     O 1388   3.220  10.689   1.778  0.6038 -0.1198 -0.0130
  752MOL0     C 1389   3.102  10.759   1.772  0.4114  0.1074 -0.3351
  752MOL0     C 1390   3.090  10.863   1.871  0.0731  0.1433  0.3383
  752MOL0     C 1391   2.964  10.918   1.898  0.1534 -1.0638 -1.0683
  752MOL0     C 1392   2.844  10.876   1.831 -0.5333 -0.1401 -0.5652
  752MOL0     O 1393   2.720  10.922   1.856  0.6069 -0.3216 -0.4298
  752MOL0     C 1394   2.700  11.047   1.921  0.9904 -0.5399  1.1882
  752MOL0     C 1395   2.559  11.105   1.895  0.4831 -0.4836 -0.1610
  752MOL0     C 1396   2.448  10.997   1.904  1.2330  0.2914  0.6521
  752MOL0     C 1397   2.315  11.073   1.885  0.2400  1.3360 -0.3511
  752MOL0     C 1398   2.200  10.980   1.920  0.6609  0.7849  0.1462
  752MOL0     C 1399   2.070  11.062   1.909 -0.2030  0.4922  0.0486
  752MOL0     C 1400   1.947  10.982   1.956  0.2744  0.5431 -0.5626
  752MOL0     C 1401   1.829  11.082   1.964  0.2050  0.9250  0.1919
  752MOL0     N 1402   1.806  11.136   1.830 -0.1962  0.0858  0.1650
  752MOL0     C 1403   1.781  11.062   1.715  0.6319 -0.3614 -0.0508
  752MOL0     C 1404   1.774  11.150   1.620  0.2651 -0.8750 -0.7611
  752MOL0     C 1405   1.737  11.108   1.483  0.5607 -0.3823  1.2429
  752MOL0     C 1406   1.841  11.144   1.375  0.6284  0.4807  0.0275
  752MOL0     C 1407   1.776  11.208   1.244 -0.1310 -0.6595  0.3209
  752MOL0     C 1408   1.674  11.115   1.170  0.2560  0.3138  0.3055
  752MOL0     O 1409   1.700  10.975   1.157  0.6678  0.4943  0.1926
  752MOL0     C 1410   1.595  10.891   1.114  0.2439 -0.1363  0.4360
  752MOL0     C 1411   1.595  10.767   1.170  0.1601 -0.1521  0.2795
  752MOL0     C 1412   1.497  10.675   1.127 -0.0689 -0.1295 -0.3436
  752MOL0     C 1413   1.519  10.533   1.164 -0.8550 -0.1191  0.1681
  752MOL0     C 1414   1.396  10.708   1.029 -0.3517 -0.1718  1.0881
  752MOL0     C 1415   1.287  10.619   0.983 -0.0047 -0.3588  0.6569
  752MOL0     O 1416   1.261  10.512   1.055  0.4723 -0.0307 -0.3902
  752MOL0     C 1417   1.167  10.428   1.023 -0.4030 -0.6696 -0.1317
  752MOL0     C 1418   1.209  10.326   0.938  0.0168  0.1333 -0.4282
  752MOL0     C 1419   1.121  10.226   0.915 -0.4807  1.0154 -0.2925
  752MOL0     C 1420   0.985  10.224   0.951  0.6114 -0.0832 -0.4948
  752MOL0     O 1421   0.922  10.116   0.899 -0.2930  0.3412  0.0655
  752MOL0     C 1422   0.786  10.095   0.937 -0.6729  0.6980 -0.7231
  752MOL0     C 1423   0.744   9.962   0.883 -0.6298  0.2079  0.6457
  752MOL0     C 1424   0.616   9.898   0.932  0.7035 -0.0853 -0.4124
  752MOL0     C 1425   0.556   9.812   0.819 -0.4189 -0.1918  0.5291
  752MOL0     C 1426   0.432   9.730   0.875 -0.0347 -0.0132 -0.2250
  752MOL0     C 1427   0.316   9.828   0.912 -0.2983 -0.2357  0.4009
  752MOL0     C 1428   0.198   9.742   0.950  0.7952  0.3226 -0.1515
  752MOL0     C 1429   0.120   9.698   0.821 -0.1072  0.0982  0.4687
  752MOL0    Cl 1430  -0.024   9.608   0.871 -0.0969  0.5071  0.2309
  752MOL0     C 1431   0.938  10.340   1.027 -0.2374 -0.1755  0.0551
  752MOL0     C 1432   1.035  10.440   1.063  0.2271  0.7300  0.2698
  752MOL0     O 1433   1.224  10.646   0.878  0.6218 -0.2644 -0.7179
  752MOL0     C 1434   1.408  10.839   0.968  1.0892  0.0450 -0.3353
  752MOL0     C 1435   1.505  10.925   1.016  0.5290 -0.7262  1.4469
  752MOL0     N 1436   1.811  11.274   1.666  0.5452  0.0379  0.1569
  752MOL0     N 1437   1.836  11.266   1.797  0.2229  0.2668 -0.5716
  752MOL0     C 1438   2.864  10.769   1.743  1.4358  0.0087  0.1139
  752MOL0     C 1439   2.988  10.721   1.696 -0.8363 -0.9766 -1.0421
  752MOL0     C 1440   3.434  10.602   1.698  0.0223 -0.4857 -0.5943
  752MOL0     C 1441   3.455  10.565   1.831  0.5868 -0.6221 -0.6131
  752MOL0     C 1442   3.583  10.557   1.883  0.5532  0.0035  0.0317
  752MOL0     C 1443   3.691  10.590   1.805 -0.0372  0.1016  0.2098
  752MOL0     O 1444   3.819  10.581   1.858  0.4885 -0.4292 -0.4826
  752MOL0     C 1445   3.927  10.613   1.776  0.4127 -0.1657 -0.3586
  752MOL0     C 1446   4.049  10.626   1.865  1.2408 -0.5748  0.1945
  752MOL0     C 1447   4.176  10.651   1.778  0.2670 -0.3373 -0.6452
  752MOL0     C 1448   4.231  10.540   1.698  0.1294 -0.2670 -0.9327
  752MOL0     C 1449   4.351  10.586   1.627  0.2201  0.4059  0.0450
  752MOL0     C 1450   4.453  10.634   1.571 -0.5062 -0.3519 -0.4095
  752MOL0     C 1451   3.669  10.619   1.668  0.1329  0.0644  0.0488
  752MOL0     C 1452   3.538  10.627   1.612 -0.2570 -0.6628  0.1607
  752MOL0     H 1453   3.178  10.898   1.923  1.1809 -1.0496 -0.6499
  752MOL0     H 1454   2.958  10.982   1.985  0.6689 -0.2924 -1.5898
  752MOL0     H 1455   2.713  11.045   2.029  2.1716 -0.9002  1.0577
  752MOL0     H 1456   2.779  11.116   1.891  0.6723 -0.6285  0.1050
  752MOL0     H 1457   2.546  11.185   1.968  1.2643 -0.2687 -0.2443
  752MOL0     H 1458   2.557  11.146   1.794  0.9222  2.2429  0.8539
  752MOL0     H 1459   2.452  10.909   1.840  0.7089 -3.0243  4.7649
  752MOL0     H 1460   2.450  10.967   2.009  0.5509 -0.8399  0.3506
  752MOL0     H 1461   2.308  11.159   1.952 -0.3936  0.0516  1.2888
  752MOL0     H 1462   2.306  11.106   1.781  1.7907  4.1833  0.3047
  752MOL0     H 1463   2.194  10.895   1.851 -1.5221  1.9476 -1.1893
  752MOL0     H 1464   2.216  10.947   2.024  0.4526  1.8086  0.5080
  752MOL0     H 1465   2.082  11.155   1.965 -0.2203 -0.4784  1.7152
  752MOL0     H 1466   2.052  11.091   1.805 -0.0426 -1.2672 -0.5010
  752MOL0     H 1467   1.916  10.892   1.901 -1.6159 -0.4395  1.8901
  752MOL0     H 1468   1.969  10.942   2.055  2.1057  1.4619 -0.5596
  752MOL0     H 1469   1.854  11.154   2.042 -3.2089 -0.0254  2.3891
  752MOL0     H 1470   1.742  11.032   2.008 -1.3428  2.7260 -0.6891
  752MOL0     H 1471   1.766  10.955   1.706  3.3489 -0.7373 -0.8764
  752MOL0     H 1472   1.701  11.005   1.486 -0.7867  0.0858  3.8787
  752MOL0     H 1473   1.650  11.168   1.453  2.0508  0.1420 -2.6022
  752MOL0     H 1474   1.895  11.051   1.354  0.5528  0.4920 -0.2240
  752MOL0     H 1475   1.911  11.213   1.423 -0.5519  2.4634 -1.0007
  752MOL0     H 1476   1.853  11.239   1.172  1.8263 -1.5652  1.9089
  752MOL0     H 1477   1.720  11.299   1.266  2.2452  0.6573  1.3918
  752MOL0     H 1478   1.675  11.141   1.064  0.6225 -1.3644 -0.1302
  752MOL0     H 1479   1.580  11.128   1.225  1.1285 -4.2225  3.4613
  752MOL0     H 1480   1.661  10.747   1.254  0.1906 -2.3134 -0.1872
  752MOL0     H 1481   1.505  10.466   1.079 -3.4298 -0.5032  0.8064
  752MOL0     H 1482   1.613  10.523   1.218 -1.3650  2.2132  1.6965
  752MOL0     H 1483   1.448  10.505   1.243 -0.6518  1.1954  0.8445
  752MOL0     H 1484   1.311  10.332   0.902  0.4600  2.5701  0.9826
  752MOL0     H 1485   1.144  10.146   0.845  0.3474 -0.1515  1.2533
  752MOL0     H 1486   0.774  10.097   1.046 -0.1770  1.2581 -0.6731
  752MOL0     H 1487   0.733  10.176   0.887  1.1209  2.1210 -0.4275
  752MOL0     H 1488   0.746   9.976   0.774  0.6153  1.4440  0.7998
  752MOL0     H 1489   0.814   9.881   0.907 -1.7994 -1.8967 -2.3388
  752MOL0     H 1490   0.550   9.977   0.971 -1.4048 -2.6196  1.4869
  752MOL0     H 1491   0.632   9.836   1.020 -1.4033 -0.2713 -0.1145
  752MOL0     H 1492   0.521   9.873   0.735 -0.0086  1.8261  1.7547
  752MOL0     H 1493   0.644   9.760   0.782 -0.0525  1.0442 -0.4171
  752MOL0     H 1494   0.462   9.690   0.973  0.8574 -3.4532 -1.7388
  752MOL0     H 1495   0.406   9.642   0.815  1.2565 -0.9630  0.5397
  752MOL0     H 1496   0.346   9.886   0.999  1.8108  0.2345 -0.5790
  752MOL0     H 1497   0.301   9.894   0.825  1.1097  1.6129  1.4910
  752MOL0     H 1498   0.116   9.803   0.991 -0.0874 -0.4079 -0.7866
  752MOL0     H 1499   0.222   9.662   1.019  1.0958 -0.1323 -0.7766
  752MOL0     H 1500   0.184   9.629   0.765  0.2481 -0.1892  1.2180
  752MOL0     H 1501   0.107   9.784   0.755  0.3213 -1.1120 -1.2585
  752MOL0     H 1502   0.834  10.364   1.047  0.3400  1.3185  1.4481
  752MOL0     H 1503   0.997  10.534   1.101  0.4084  1.3523 -1.0076
  752MOL0     H 1504   1.333  10.883   0.903  1.2038 -0.1806 -0.6217
  752MOL0     H 1505   1.508  11.026   0.976  1.6442 -1.0033  0.7704
  752MOL0     H 1506   2.774  10.719   1.707  1.4931 -1.3629  1.7720
  752MOL0     H 1507   3.001  10.648   1.617 -1.3435 -0.9603 -1.1420
  752MOL0     H 1508   3.374  10.548   1.901 -1.2443 -2.0479 -2.9192
  752MOL0     H 1509   3.592  10.527   1.987 -2.0618 -0.4808  0.1867
  752MOL0     H 1510   3.934  10.525   1.711 -0.2253 -0.5969  0.1457
  752MOL0     H 1511   3.922  10.709   1.725  0.2554  0.1752  0.2899
  752MOL0     H 1512   4.063  10.531   1.918  2.4895 -0.7904 -0.4799
  752MOL0     H 1513   4.034  10.701   1.944  1.0109 -2.8548  2.4448
  752MOL0     H 1514   4.250  10.679   1.854 -0.5984 -3.4206  1.5046
  752MOL0     H 1515   4.168  10.732   1.705 -0.8462  0.8273  0.6993
  752MOL0     H 1516   4.151  10.493   1.640 -0.0883 -1.5245  0.3391
  752MOL0     H 1517   4.265  10.456   1.759  0.6070 -2.2793 -3.7739
  752MOL0     H 1518   4.542  10.653   1.515  1.0424 -2.5657  1.1416
  752MOL0     H 1519   3.745  10.633   1.592  0.0893 -0.4337 -0.0897
  752MOL0     H 1520   3.522  10.669   1.513 -0.0239  2.3867  1.3077
  753MOL0     O 1521   5.469   8.052   5.186  0.3625  0.2476 -0.1503
  753MOL0     C 1522   5.541   8.140   5.242  0.8716 -0.5714  0.1363
  753MOL0     O 1523   5.499   8.261   5.276 -0.3445 -0.5144 -0.3543
  753MOL0     C 1524   5.376   8.314   5.243 -0.5693  0.6057  0.4577
  753MOL0     C 1525   5.346   8.430   5.314 -0.2794  0.1770  0.7207
  753MOL0     C 1526   5.220   8.498   5.291 -0.0863 -0.0743 -0.7607
  753MOL0     C 1527   5.121   8.449   5.201  0.5037  0.2207 -0.1800
  753MOL0     O 1528   4.989   8.491   5.181 -0.2583  0.1422  0.0542
  753MOL0     C 1529   4.954   8.625   5.166  0.6385 -0.2833  0.2096
  753MOL0     C 1530   4.881   8.672   5.292 -0.3546 -0.1378  0.1109
  753MOL0     C 1531   4.969   8.680   5.419 -0.0529  0.3469 -1.4624
  753MOL0     C 1532   4.890   8.745   5.526  1.2249 -0.4043 -0.2675
  753MOL0     C 1533   4.964   8.761   5.655 -0.3561 -0.2822  0.9643
  753MOL0     C 1534   5.042   8.890   5.652  0.6522 -0.7724  0.1597
  753MOL0     C 1535   5.096   8.913   5.792 -0.4603  0.3934  0.1196
  753MOL0     C 1536   5.207   8.817   5.842 -0.1757 -0.3563 -0.1548
  753MOL0     N 1537   5.312   8.777   5.745 -0.4112  0.5274  0.4774
  753MOL0     C 1538   5.425   8.841   5.713  0.5554  0.1367  0.3884
  753MOL0     C 1539   5.485   8.755   5.630  0.5086 -0.1860  0.3238
  753MOL0     C 1540   5.626   8.762   5.591 -0.8835 -0.4468  0.2096
  753MOL0     C 1541   5.623   8.836   5.452 -0.0732  0.2714 -1.0692
  753MOL0     C 1542   5.560   8.760   5.331 -0.4326  0.9908  1.0538
  753MOL0     C 1543   5.642   8.645   5.273  0.2650 -0.1318 -0.2065
  753MOL0     O 1544   5.779   8.676   5.271  0.2360 -0.3843  0.2515
  753MOL0     C 1545   5.875   8.595   5.218 -0.1336 -0.0670  0.6459
  753MOL0     C 1546   6.008   8.648   5.213  0.0475  0.3009 -1.0005
  753MOL0     C 1547   6.107   8.577   5.165 -0.8245 -0.4017  0.7874
  753MOL0     C 1548   6.242   8.653   5.147 -0.0508  0.0631 -0.0761
  753MOL0     C 1549   6.098   8.440   5.117 -0.2244  0.4581  0.1982
  753MOL0     C 1550   6.221   8.372   5.064  0.1225 -0.5504  0.4442
  753MOL0     O 1551   6.199   8.273   4.977 -0.1577 -0.5233  0.1700
  753MOL0     C 1552   6.303   8.244   4.893 -0.1998  0.3973 -0.0521
  753MOL0     C 1553   6.317   8.306   4.768  0.4082  0.7750 -0.9140
  753MOL0     C 1554   6.414   8.270   4.680 -0.9197 -0.4480  0.4219
  753MOL0     C 1555   6.499   8.162   4.708  0.2990  0.2228  0.0094
  753MOL0     O 1556   6.604   8.128   4.631 -0.1354  0.0545  0.2611
  753MOL0     C 1557   6.698   8.018   4.654 -0.1543 -0.1564 -0.1611
  753MOL0     C 1558   6.680   7.907   4.567 -0.1527 -0.0958 -0.0638
  753MOL0     C 1559   6.806   7.830   4.550  0.3997  0.0397  0.2353
  753MOL0     C 1560   6.935   7.862   4.617  0.0960  0.2658 -0.6695
  753MOL0     C 1561   7.047   7.755   4.608 -0.6488 -0.2502 -0.1842
  753MOL0     C 1562   7.152   7.777   4.718  0.2041 -0.5966 -0.2269
  753MOL0     C 1563   7.106   7.700   4.837  1.1721  0.0430  0.1383
  753MOL0     C 1564   7.192   7.711   4.954  0.8162  1.4540 -0.4920
  753MOL0    Cl 1565   7.361   7.656   4.930 -0.3518  0.1378  0.3630
  753MOL0     C 1566   6.470   8.092   4.823 -0.7962  0.6086  0.3961
  753MOL0     C 1567   6.374   8.129   4.918 -0.1499  0.4421 -0.1082
  753MOL0     O 1568   6.336   8.398   5.106  0.1293  0.8012  0.2906
  753MOL0     C 1569   5.963   8.384   5.108 -0.6576 -1.3655  0.6585
  753MOL0     C 1570   5.855   8.466   5.158  0.3340 -1.0223  0.2443
  753MOL0     N 1571   5.403   8.647   5.597 -0.1794 -0.2463 -1.3705
  753MOL0     N 1572   5.293   8.669   5.657 -0.0745 -0.2946 -0.2335
  753MOL0     C 1573   5.154   8.322   5.130 -0.4473  0.1950  0.2411
  753MOL0     C 1574   5.276   8.256   5.151 -0.1716 -0.6732 -0.1981
  753MOL0     C 1575   5.676   8.113   5.287 -0.7339  0.5459  0.5655
  753MOL0     C 1576   5.761   8.212   5.343 -0.9372 -0.6969 -0.3107
  753MOL0     C 1577   5.891   8.178   5.375  0.4482 -0.1883 -0.4615
  753MOL0     C 1578   5.945   8.045   5.363 -1.2960  0.3422  0.9503
  753MOL0     O 1579   6.079   8.016   5.359  0.1510  0.5654 -0.0293
  753MOL0     C 1580   6.184   8.105   5.388 -0.1380 -0.2859 -0.6801
  753MOL0     C 1581   6.309   8.016   5.385  0.0981  0.2319  0.4335
  753MOL0     C 1582   6.329   7.904   5.493  0.4060 -0.6762  0.2491
  753MOL0     C 1583   6.463   7.834   5.485 -0.4738  0.3767 -0.4328
  753MOL0     C 1584   6.472   7.745   5.364  0.1946 -0.0793 -0.1482
  753MOL0     C 1585   6.484   7.656   5.283 -0.3579  1.1572  0.3112
  753MOL0     C 1586   5.859   7.952   5.307  0.5481 -0.0151  0.0518
  753MOL0     C 1587   5.727   7.984   5.281  1.2912  0.1873  0.3114
  753MOL0     H 1588   5.416   8.462   5.390  1.7886 -0.1502 -0.9502
  753MOL0     H 1589   5.202   8.585   5.354  2.8771  0.3912 -0.4179
  753MOL0     H 1590   5.046   8.679   5.141  1.0252 -1.4557 -1.0074
  753MOL0     H 1591   4.884   8.636   5.082  1.0239  0.3556 -0.0418
  753MOL0     H 1592   4.841   8.770   5.264 -0.3479 -0.2741 -0.3958
  753MOL0     H 1593   4.795   8.607   5.310 -0.0914 -0.6426 -0.4170
  753MOL0     H 1594   4.996   8.579   5.451 -0.6250 -0.0320 -2.1525
  753MOL0     H 1595   5.058   8.735   5.386  0.1473 -0.0875 -1.6521
  753MOL0     H 1596   4.848   8.838   5.489 -0.6412 -1.9819 -2.4123
  753MOL0     H 1597   4.806   8.679   5.552  0.4133 -0.6978 -3.2497
  753MOL0     H 1598   4.884   8.758   5.729 -1.8982  0.2302 -0.6181
  753MOL0     H 1599   5.026   8.670   5.651  0.5450  0.1611  3.1939
  753MOL0     H 1600   5.109   8.876   5.567 -0.0672 -1.4085 -0.3183
  753MOL0     H 1601   4.980   8.975   5.623 -0.8339 -1.1068  2.1095
  753MOL0     H 1602   5.130   9.017   5.781 -0.6926  0.2119 -3.3915
  753MOL0     H 1603   5.009   8.906   5.858 -1.1583 -1.1210 -0.9143
  753MOL0     H 1604   5.167   8.726   5.887  1.0571 -0.4523  0.8243
  753MOL0     H 1605   5.260   8.876   5.918 -0.3481 -1.4395  0.8280
  753MOL0     H 1606   5.463   8.932   5.759  1.1706  0.4691 -0.7393
  753MOL0     H 1607   5.682   8.817   5.668 -1.5531 -0.0023  0.3863
  753MOL0     H 1608   5.664   8.661   5.577  0.6576  0.1741 -0.3819
  753MOL0     H 1609   5.726   8.868   5.435 -0.5124  2.7920  0.3472
  753MOL0     H 1610   5.569   8.927   5.483  1.0544  0.1045  1.6657
  753MOL0     H 1611   5.539   8.829   5.249  2.0336 -0.2955 -0.7748
  753MOL0     H 1612   5.460   8.718   5.348 -0.3222 -0.3328 -1.2544
  753MOL0     H 1613   5.608   8.603   5.179 -2.5508  0.4487  0.4539
  753MOL0     H 1614   5.629   8.564   5.345 -2.5713  1.1447  0.8729
  753MOL0     H 1615   6.022   8.747   5.256 -0.0552 -0.2280  0.3014
  753MOL0     H 1616   6.279   8.645   5.044  1.8758  0.2967  0.5530
  753MOL0     H 1617   6.228   8.760   5.163  1.4190  0.4870 -1.3150
  753MOL0     H 1618   6.313   8.605   5.215 -0.1644  1.0664  0.7706
  753MOL0     H 1619   6.241   8.376   4.733 -1.0315 -0.7290 -0.9153
  753MOL0     H 1620   6.423   8.313   4.581 -2.0958  0.0312  0.5080
  753MOL0     H 1621   6.792   8.071   4.638  0.0406 -0.0973  1.0553
  753MOL0     H 1622   6.705   7.983   4.757  2.2659 -1.5139 -0.7229
  753MOL0     H 1623   6.600   7.844   4.607  2.7987 -2.8872  1.8458
  753MOL0     H 1624   6.645   7.935   4.466  0.4961  0.9624 -0.0090
  753MOL0     H 1625   6.823   7.804   4.445 -0.2388 -1.0593  0.3913
  753MOL0     H 1626   6.782   7.731   4.589  0.3458 -0.8559 -1.9105
  753MOL0     H 1627   6.978   7.954   4.575 -0.6341  1.6982  1.5423
  753MOL0     H 1628   6.914   7.880   4.723  0.1315 -1.3848 -0.3683
  753MOL0     H 1629   7.086   7.775   4.508 -1.4742 -0.1597 -0.4948
  753MOL0     H 1630   7.010   7.652   4.607 -0.9086 -0.1531 -1.4437
  753MOL0     H 1631   7.243   7.734   4.674 -0.4859 -2.8137  0.3587
  753MOL0     H 1632   7.161   7.885   4.729  0.9576  0.1292 -5.3943
  753MOL0     H 1633   7.089   7.596   4.810 -0.0160  0.4146 -0.6066
  753MOL0     H 1634   7.007   7.734   4.867  0.4767 -2.2290  0.5660
  753MOL0     H 1635   7.146   7.656   5.037  3.0724 -2.6550 -1.6814
  753MOL0     H 1636   7.200   7.816   4.985  0.1448  1.6038 -0.7961
  753MOL0     H 1637   6.527   8.002   4.845  0.0269 -0.0842 -3.7984
  753MOL0     H 1638   6.347   8.074   5.008 -2.9299 -0.3551 -1.3255
  753MOL0     H 1639   5.934   8.283   5.079 -0.7494 -0.9598 -0.7741
  753MOL0     H 1640   5.751   8.435   5.152  0.3979 -1.2951  0.4932
  753MOL0     H 1641   5.077   8.281   5.065 -1.5801  0.4012  1.4064
  753MOL0     H 1642   5.301   8.175   5.084  2.7482 -1.4208  1.6232
  753MOL0     H 1643   5.726   8.315   5.344  2.9961  0.8335  1.6947
  753MOL0     H 1644   5.950   8.259   5.418 -1.7809 -0.3329  3.3935
  753MOL0     H 1645   6.193   8.183   5.313  1.5354  2.1182  1.8124
  753MOL0     H 1646   6.172   8.153   5.486 -3.6030  0.4515 -1.3275
  753MOL0     H 1647   6.389   8.091   5.392 -2.3859  3.3788 -1.7103
  753MOL0     H 1648   6.316   7.970   5.286 -2.2603 -0.9708  0.7730
  753MOL0     H 1649   6.244   7.837   5.480 -1.5268  1.5852  0.4998
  753MOL0     H 1650   6.308   7.950   5.590  1.8061  0.4496  0.0603
  753MOL0     H 1651   6.480   7.778   5.577  0.5600  0.8110 -0.3539
  753MOL0     H 1652   6.542   7.909   5.485 -0.0141  0.0251 -3.4572
  753MOL0     H 1653   6.496   7.582   5.208  0.7854  0.4565  1.1575
  753MOL0     H 1654   5.887   7.847   5.303 -1.9555 -0.7389 -0.5889
  753MOL0     H 1655   5.659   7.906   5.249  1.7295 -0.0797  0.0200
  754MOL0     O 1656  10.466   7.758   2.048 -0.0430 -0.2918 -1.2484
  754MOL0     C 1657  10.482   7.724   1.933 -0.9334 -0.1040  0.1745
  754MOL0     O 1658  10.393   7.758   1.826 -0.4341  0.2870 -0.8921
  754MOL0     C 1659  10.268   7.793   1.856 -0.2782 -0.0324  0.4678
  754MOL0     C 1660  10.180   7.693   1.896 -0.2528 -0.1149  0.6320
  754MOL0     C 1661  10.061   7.725   1.961 -0.5261  0.6621  0.0178
  754MOL0     C 1662  10.020   7.856   1.986  0.3603 -0.2581 -0.1287
  754MOL0     O 1663   9.890   7.875   2.032  0.0752 -0.0288 -0.0632
  754MOL0     C 1664   9.792   7.896   1.931  0.4730 -0.5409 -0.5031
  754MOL0     C 1665   9.672   7.958   2.003 -0.6197  0.2111 -0.7013
  754MOL0     C 1666   9.574   8.017   1.909 -0.2730 -0.1103  0.5013
  754MOL0     C 1667   9.451   8.064   1.996 -0.3748 -0.9676 -0.6020
  754MOL0     C 1668   9.345   8.149   1.920 -0.2511 -0.5721 -0.4189
  754MOL0     C 1669   9.245   8.201   2.021  0.5192 -0.6840 -0.3367
  754MOL0     C 1670   9.103   8.239   1.964 -0.4758  0.3040 -0.6642
  754MOL0     C 1671   9.025   8.111   1.924  0.2220  0.0049 -0.0835
  754MOL0     N 1672   8.900   8.159   1.869 -0.1744  1.1720  0.4667
  754MOL0     C 1673   8.775   8.177   1.925  0.1919  0.0108  0.0418
  754MOL0     C 1674   8.696   8.229   1.821  0.3841 -0.4443  0.0514
  754MOL0     C 1675   8.556   8.288   1.831  0.5898 -0.6688  0.7464
  754MOL0     C 1676   8.448   8.188   1.873 -0.2048  0.3293  0.3282
  754MOL0     C 1677   8.317   8.250   1.925 -0.4715  0.2614  0.0569
  754MOL0     C 1678   8.216   8.149   1.972 -0.0452 -0.0694  0.3953
  754MOL0     O 1679   8.097   8.220   1.979 -0.1637  0.5481 -0.1653
  754MOL0     C 1680   7.975   8.155   2.007 -0.4471 -0.3916 -0.2560
  754MOL0     C 1681   7.862   8.225   1.974  0.8924 -0.6456 -0.3791
  754MOL0     C 1682   7.728   8.165   2.006  0.0774 -0.0576  0.3531
  754MOL0     C 1683   7.608   8.241   1.953  0.5803 -0.1715 -0.7778
  754MOL0     C 1684   7.726   8.032   2.059 -0.0976  0.4250  1.0750
  754MOL0     C 1685   7.596   7.970   2.091 -0.8327  0.1569  0.2864
  754MOL0     O 1686   7.487   8.048   2.108  0.0447 -0.0762  0.5793
  754MOL0     C 1687   7.354   8.000   2.116  0.5849  0.7569  0.1709
  754MOL0     C 1688   7.308   7.906   2.204  0.0172  0.0357 -0.4792
  754MOL0     C 1689   7.168   7.864   2.211  0.1376  0.0337  0.4718
  754MOL0     C 1690   7.084   7.908   2.118 -0.6854 -0.2183  0.4098
  754MOL0     O 1691   6.953   7.860   2.116 -0.1782 -0.1862 -0.1108
  754MOL0     C 1692   6.851   7.941   2.049 -0.8680 -0.1982  0.4065
  754MOL0     C 1693   6.707   7.908   2.074 -0.1287  0.5002 -0.6434
  754MOL0     C 1694   6.669   7.753   2.075 -0.6139 -0.5299 -0.1616
  754MOL0     C 1695   6.683   7.692   2.226 -0.2997  0.3386 -0.0649
  754MOL0     C 1696   6.602   7.559   2.225 -0.0661  0.0277  0.1820
  754MOL0     C 1697   6.457   7.571   2.188  0.5624 -0.4730  0.0009
  754MOL0     C 1698   6.377   7.683   2.262 -0.5889  0.7671 -0.1984
  754MOL0     C 1699   6.228   7.669   2.265 -0.0964 -0.1031  0.5577
  754MOL0    Cl 1700   6.164   7.659   2.094  0.4059  0.1633 -0.0677
  754MOL0     C 1701   7.131   8.003   2.025 -0.1772 -0.5152  0.5709
  754MOL0     C 1702   7.258   8.060   2.032 -0.8075  0.5485  0.6132
  754MOL0     O 1703   7.600   7.849   2.113  0.3474 -0.3072 -0.5496
  754MOL0     C 1704   7.843   7.962   2.081 -0.3817  1.3316  0.3965
  754MOL0     C 1705   7.964   8.025   2.056  0.6059  1.1046 -0.4618
  754MOL0     N 1706   8.774   8.232   1.708  0.3345  0.1860  0.2501
  754MOL0     N 1707   8.901   8.199   1.736  0.1862  0.3481  0.1899
  754MOL0     C 1708  10.099   7.955   1.942  0.0384 -0.0294 -0.3016
  754MOL0     C 1709  10.226   7.930   1.876  0.1954  0.4384  0.3912
  754MOL0     C 1710  10.619   7.661   1.898  0.7436 -0.1506 -0.1714
  754MOL0     C 1711  10.632   7.602   1.765  0.0475 -0.0692 -0.3415
  754MOL0     C 1712  10.748   7.530   1.728 -0.6818  0.0808  0.1653
  754MOL0     C 1713  10.863   7.537   1.804 -0.2654  0.4555 -0.7838
  754MOL0     O 1714  10.982   7.478   1.780  0.3473 -0.1140  0.4889
  754MOL0     C 1715  10.999   7.407   1.656 -0.2717 -0.0110 -0.0661
  754MOL0     C 1716  11.143   7.383   1.627  0.3960  0.0484 -0.9805
  754MOL0     C 1717  11.171   7.316   1.492 -0.3226 -0.1828  0.1739
  754MOL0     C 1718  11.322   7.317   1.457  0.4370  0.3791  0.1211
  754MOL0     C 1719  11.402   7.243   1.552 -1.1464 -0.3949  0.5174
  754MOL0     C 1720  11.460   7.191   1.648 -0.5091 -0.0697  0.0790
  754MOL0     C 1721  10.852   7.603   1.932  1.0009  0.2366  0.4977
  754MOL0     C 1722  10.735   7.651   1.985 -1.3737 -0.2327 -0.1344
  754MOL0     H 1723  10.206   7.588   1.884  0.0419  0.1678 -1.6448
  754MOL0     H 1724   9.999   7.643   1.995  0.5939  0.0947  0.7507
  754MOL0     H 1725   9.829   7.953   1.846  1.6897 -2.4325 -1.3188
  754MOL0     H 1726   9.756   7.799   1.895 -0.1701 -0.4817 -0.0394
  754MOL0     H 1727   9.621   7.876   2.054  2.9529 -0.6445  1.9090
  754MOL0     H 1728   9.701   8.022   2.087 -0.3265  1.1747 -1.5154
  754MOL0     H 1729   9.604   8.102   1.846  0.8455 -2.1535 -1.8873
  754MOL0     H 1730   9.545   7.930   1.850 -1.5730  1.2826 -1.0064
  754MOL0     H 1731   9.398   7.975   2.031 -0.7662 -0.7792 -0.7064
  754MOL0     H 1732   9.488   8.125   2.078  0.0867  1.2130 -2.3361
  754MOL0     H 1733   9.391   8.238   1.876  0.9215  0.5887  2.9044
  754MOL0     H 1734   9.293   8.083   1.849  0.3537  0.2147 -1.6318
  754MOL0     H 1735   9.217   8.114   2.081 -1.1942  0.8081  1.1290
  754MOL0     H 1736   9.297   8.278   2.079 -1.7529  1.9002 -1.5148
  754MOL0     H 1737   9.049   8.284   2.048 -1.8250 -2.6800  0.2288
  754MOL0     H 1738   9.129   8.313   1.888  1.8541  1.3928  1.0936
  754MOL0     H 1739   8.998   8.044   2.006 -2.3988  0.4059 -0.5485
  754MOL0     H 1740   9.075   8.048   1.850 -2.9409 -1.7220 -0.8931
  754MOL0     H 1741   8.742   8.166   2.027 -1.7735 -2.3904 -0.7759
  754MOL0     H 1742   8.560   8.375   1.897  2.1287 -0.5134  0.4883
  754MOL0     H 1743   8.519   8.310   1.731 -1.2061 -4.3444  0.4180
  754MOL0     H 1744   8.500   8.142   1.957  2.1220  2.6208  0.2682
  754MOL0     H 1745   8.425   8.117   1.793 -1.2318  2.3601 -1.2805
  754MOL0     H 1746   8.267   8.297   1.840 -0.9483  0.1980  0.2993
  754MOL0     H 1747   8.340   8.311   2.012  1.1464 -1.2854  0.7656
  754MOL0     H 1748   8.251   8.107   2.067 -0.9024  1.1155  1.2679
  754MOL0     H 1749   8.202   8.059   1.911  1.0636 -0.2728  0.4300
  754MOL0     H 1750   7.877   8.324   1.933 -1.7272 -0.7662 -1.8447
  754MOL0     H 1751   7.564   8.310   2.025  0.9680  0.3745 -1.0538
  754MOL0     H 1752   7.648   8.311   1.879 -0.5014 -3.1937 -4.6017
  754MOL0     H 1753   7.534   8.182   1.898 -1.7851  0.4533  1.5336
  754MOL0     H 1754   7.380   7.843   2.256 -0.9935 -1.5346 -0.9056
  754MOL0     H 1755   7.144   7.776   2.271  1.8446 -1.3064 -0.7269
  754MOL0     H 1756   6.874   8.045   2.075  1.5276 -0.7723  0.8712
  754MOL0     H 1757   6.868   7.920   1.943  0.0944  3.6168 -0.3214
  754MOL0     H 1758   6.683   7.948   2.173  0.0523 -1.1387  0.1073
  754MOL0     H 1759   6.648   7.957   1.996 -1.4280 -0.6330 -0.4176
  754MOL0     H 1760   6.737   7.700   2.008 -0.7617 -0.7717 -0.1186
  754MOL0     H 1761   6.566   7.741   2.042 -1.2978  1.5456  1.0114
  754MOL0     H 1762   6.790   7.677   2.237 -0.1411  0.0257 -1.7822
  754MOL0     H 1763   6.638   7.758   2.301  0.0536 -0.9928  1.3608
  754MOL0     H 1764   6.604   7.508   2.322  0.4791  0.6778  0.5207
  754MOL0     H 1765   6.653   7.488   2.159 -1.2071  0.3029 -1.0540
  754MOL0     H 1766   6.447   7.586   2.080 -0.7042 -1.4381 -0.0384
  754MOL0     H 1767   6.403   7.478   2.204 -1.7294  0.4852 -1.7153
  754MOL0     H 1768   6.384   7.775   2.202  1.4912  0.2037 -0.9273
  754MOL0     H 1769   6.398   7.703   2.367  1.0184  0.2242 -0.3934
  754MOL0     H 1770   6.197   7.758   2.319  0.5228  1.5171 -1.6224
  754MOL0     H 1771   6.195   7.582   2.324  3.2157 -1.0701  1.1847
  754MOL0     H 1772   7.076   8.041   1.939  2.8982  0.2045 -1.2282
  754MOL0     H 1773   7.292   8.134   1.961  0.3330 -0.1244  0.4199
  754MOL0     H 1774   7.857   7.861   2.118 -1.1803  1.6805  1.7043
  754MOL0     H 1775   8.049   7.969   2.094 -0.3522 -1.4256 -1.7488
  754MOL0     H 1776  10.068   8.056   1.969 -1.0781 -0.3863 -0.2089
  754MOL0     H 1777  10.295   8.011   1.856  1.1878 -0.9277 -2.1913
  754MOL0     H 1778  10.547   7.596   1.698 -0.3320 -0.2136  0.1548
  754MOL0     H 1779  10.753   7.471   1.637 -0.5225  0.1410  0.1340
  754MOL0     H 1780  10.949   7.311   1.642 -2.3431  0.9606  0.3627
  754MOL0     H 1781  10.969   7.479   1.579  1.1011  0.1452 -0.5013
  754MOL0     H 1782  11.190   7.328   1.709  1.1040  0.3023 -1.2029
  754MOL0     H 1783  11.197   7.478   1.633  3.2813 -1.5910  1.1347
  754MOL0     H 1784  11.107   7.366   1.419 -0.5928  0.6311  0.9607
  754MOL0     H 1785  11.128   7.216   1.486 -0.9397  0.1453 -1.1820
  754MOL0     H 1786  11.352   7.422   1.457  0.4924  0.3631  0.1233
  754MOL0     H 1787  11.346   7.274   1.359  0.2415  0.3272  0.0947
  754MOL0     H 1788  11.503   7.146   1.735  0.7474 -2.1229 -1.5161
  754MOL0     H 1789  10.933   7.604   2.004 -0.9920  1.6607  2.8887
  754MOL0     H 1790  10.729   7.695   2.084 -3.0376 -2.7746  0.9952
  755MOL0     O 1791   8.624   7.351   3.403  0.1091  0.0597 -0.1747
  755MOL0     C 1792   8.631   7.315   3.523 -0.6257 -0.4591  0.2329
  755MOL0     O 1793   8.529   7.268   3.597  0.1692  0.0499 -0.1070
  755MOL0     C 1794   8.400   7.248   3.550 -0.5482  0.6588 -0.2924
  755MOL0     C 1795   8.376   7.166   3.441  0.2511  0.4317 -0.1017
  755MOL0     C 1796   8.248   7.119   3.404  0.9588 -0.9710  0.3911
  755MOL0     C 1797   8.139   7.150   3.479  0.5005 -0.1816 -0.3771
  755MOL0     O 1798   8.022   7.089   3.443  0.4398 -0.2904 -0.3609
  755MOL0     C 1799   7.896   7.140   3.498 -0.1415  0.5872 -0.4560
  755MOL0     C 1800   7.782   7.051   3.437  0.5907 -0.5559  0.5396
  755MOL0     C 1801   7.650   7.085   3.498  0.1983 -0.1936  0.2529
  755MOL0     C 1802   7.544   6.982   3.455 -0.3193 -0.0623  0.4277
  755MOL0     C 1803   7.408   7.040   3.509  0.4702  1.1259  0.0783
  755MOL0     C 1804   7.308   6.925   3.525 -0.5234  0.3534 -0.2115
  755MOL0     C 1805   7.163   6.974   3.539  0.7602 -0.5677 -0.3053
  755MOL0     C 1806   7.115   7.035   3.412  0.1674  0.1966 -0.3894
  755MOL0     N 1807   6.975   7.072   3.419 -0.7548  0.2772  1.0514
  755MOL0     C 1808   6.921   7.158   3.513 -1.1100  0.1802  0.5887
  755MOL0     C 1809   6.805   7.189   3.461 -0.2290  0.6254  0.5161
  755MOL0     C 1810   6.712   7.287   3.523 -0.7603  0.7995 -0.5086
  755MOL0     C 1811   6.718   7.413   3.431 -0.8452  0.7056 -1.3916
  755MOL0     C 1812   6.655   7.530   3.510 -0.3249  0.4797 -0.3477
  755MOL0     C 1813   6.506   7.502   3.543  0.0645  0.0542 -0.5587
  755MOL0     O 1814   6.459   7.620   3.608  0.0318 -0.1221 -0.1146
  755MOL0     C 1815   6.324   7.640   3.636  0.7796 -0.7475  1.2829
  755MOL0     C 1816   6.282   7.760   3.702 -0.2972 -0.3975  0.5282
  755MOL0     C 1817   6.152   7.769   3.751  0.4285 -0.3077  0.4431
  755MOL0     C 1818   6.124   7.877   3.853 -0.2218 -0.7488 -0.0284
  755MOL0     C 1819   6.056   7.682   3.700  0.7764  0.4446 -0.2050
  755MOL0     C 1820   5.909   7.704   3.702 -0.3651  0.2628  0.0521
  755MOL0     O 1821   5.838   7.589   3.726  0.0443 -0.4150 -0.1883
  755MOL0     C 1822   5.704   7.602   3.739  0.1279 -0.3389 -0.7407
  755MOL0     C 1823   5.622   7.576   3.635  0.4530  0.0619  0.4860
  755MOL0     C 1824   5.480   7.595   3.645 -0.1438  0.0547  0.8731
  755MOL0     C 1825   5.432   7.645   3.775 -0.1834 -1.0127  1.1868
  755MOL0     O 1826   5.293   7.658   3.794  0.7878  0.3452 -0.2354
  755MOL0     C 1827   5.216   7.699   3.682  2.0277  0.7860 -1.0550
  755MOL0     C 1828   5.082   7.752   3.734  0.3703  0.3049 -0.3333
  755MOL0     C 1829   4.972   7.755   3.632 -0.1685  0.1526 -0.0848
  755MOL0     C 1830   4.847   7.830   3.693 -1.1788 -0.2049 -0.2646
  755MOL0     C 1831   4.731   7.795   3.598 -0.5811  0.0123 -0.1165
  755MOL0     C 1832   4.619   7.887   3.623 -0.5178 -0.2326  0.9725
  755MOL0     C 1833   4.483   7.828   3.586  0.2394  0.0630 -0.0266
  755MOL0     C 1834   4.366   7.909   3.635  0.1598 -0.0620 -0.3388
  755MOL0    Cl 1835   4.217   7.867   3.534  0.0503 -0.0696  0.4479
  755MOL0     C 1836   5.522   7.660   3.880  0.5091  0.2519  0.1152
  755MOL0     C 1837   5.660   7.637   3.864  0.8647  0.3520 -0.3657
  755MOL0     O 1838   5.865   7.819   3.695 -0.0875 -0.0241  0.7056
  755MOL0     C 1839   6.096   7.563   3.633 -0.3544 -0.5920  0.6551
  755MOL0     C 1840   6.227   7.543   3.606  0.0310 -0.0229 -0.2468
  755MOL0     N 1841   6.780   7.127   3.343 -0.1775  0.1833  0.2596
  755MOL0     N 1842   6.884   7.048   3.314 -0.1562  0.0109 -0.5195
  755MOL0     C 1843   8.150   7.233   3.589 -0.0760 -0.1750 -0.1943
  755MOL0     C 1844   8.281   7.278   3.615  0.1287  0.1458 -0.4732
  755MOL0     C 1845   8.763   7.297   3.575  0.0121 -0.1828 -0.4902
  755MOL0     C 1846   8.775   7.255   3.708  0.9307 -0.1020 -0.2709
  755MOL0     C 1847   8.899   7.247   3.776  0.2034 -0.5178 -1.0183
  755MOL0     C 1848   9.015   7.302   3.711 -0.5199  0.6103  0.5083
  755MOL0     O 1849   9.141   7.308   3.760 -0.5368 -0.4887 -0.3575
  755MOL0     C 1850   9.159   7.326   3.903  0.1591  0.1106  0.1995
  755MOL0     C 1851   9.296   7.378   3.940 -1.1287 -0.6195  0.3296
  755MOL0     C 1852   9.410   7.288   3.879 -0.2913 -0.5880 -0.0929
  755MOL0     C 1853   9.544   7.298   3.950 -0.3149 -0.1694  0.2634
  755MOL0     C 1854   9.529   7.254   4.091 -0.2591  0.9593 -0.2494
  755MOL0     C 1855   9.532   7.199   4.204 -0.3745 -0.9379 -0.8944
  755MOL0     C 1856   9.009   7.344   3.575 -1.2037  0.1169 -0.5417
  755MOL0     C 1857   8.884   7.348   3.513  0.3929  0.8364  0.0768
  755MOL0     H 1858   8.467   7.134   3.391  1.4167  3.7899 -0.3464
  755MOL0     H 1859   8.238   7.053   3.318 -1.9687 -1.9994  1.3739
  755MOL0     H 1860   7.892   7.131   3.607 -0.6128 -2.7811 -0.6523
  755MOL0     H 1861   7.876   7.244   3.471 -0.8798  0.4460 -0.4751
  755MOL0     H 1862   7.781   7.076   3.331  3.4901 -0.5506  0.4179
  755MOL0     H 1863   7.817   6.948   3.454  1.8647 -0.0554  1.0636
  755MOL0     H 1864   7.665   7.086   3.606 -1.1455  0.3538  0.4587
  755MOL0     H 1865   7.610   7.182   3.465  0.4168  0.2563  1.2591
  755MOL0     H 1866   7.532   6.978   3.346  1.4718 -0.1790  0.2117
  755MOL0     H 1867   7.557   6.881   3.495  1.5559  0.3997  1.0750
  755MOL0     H 1868   7.427   7.081   3.609  0.5947 -1.4599  1.2061
  755MOL0     H 1869   7.358   7.109   3.441 -0.1009  0.1386 -0.5219
  755MOL0     H 1870   7.313   6.848   3.447  1.1101 -1.0025  1.1516
  755MOL0     H 1871   7.332   6.867   3.615  0.2857  1.2283  0.1654
  755MOL0     H 1872   7.092   6.896   3.568  0.1919  0.3255  0.7864
  755MOL0     H 1873   7.159   7.031   3.632 -0.1204  0.3177 -0.8692
  755MOL0     H 1874   7.118   6.956   3.336 -0.9375  0.1444 -0.3978
  755MOL0     H 1875   7.171   7.117   3.366  0.0357  0.7373  0.3936
  755MOL0     H 1876   6.958   7.191   3.609 -2.7626 -1.3476  1.8066
  755MOL0     H 1877   6.611   7.245   3.524  0.0162 -1.1818 -0.6671
  755MOL0     H 1878   6.747   7.295   3.627  1.7438 -1.1085 -1.1055
  755MOL0     H 1879   6.663   7.383   3.341 -1.2353 -0.4267 -0.8047
  755MOL0     H 1880   6.826   7.431   3.423 -0.2529 -1.1099  1.2594
  755MOL0     H 1881   6.671   7.624   3.456  0.3485  1.4469  1.4492
  755MOL0     H 1882   6.714   7.543   3.601 -3.1749  1.4135  1.5133
  755MOL0     H 1883   6.483   7.419   3.612 -0.7762  0.9717  0.2947
  755MOL0     H 1884   6.449   7.489   3.450 -0.1917 -0.7427 -0.3084
  755MOL0     H 1885   6.349   7.835   3.743 -1.7304  1.0427  0.3397
  755MOL0     H 1886   6.041   7.943   3.825  1.0611  0.2763 -1.5918
  755MOL0     H 1887   6.092   7.841   3.952 -0.4295  0.8646  0.5213
  755MOL0     H 1888   6.207   7.940   3.885 -1.0956  0.1677  0.5113
  755MOL0     H 1889   5.660   7.554   3.536 -1.3352 -2.8431  0.3535
  755MOL0     H 1890   5.421   7.573   3.557 -0.2884  0.9704  0.7378
  755MOL0     H 1891   5.271   7.774   3.625  3.4945  0.1381 -0.5554
  755MOL0     H 1892   5.191   7.610   3.624 -1.4139 -0.9010  2.5444
  755MOL0     H 1893   5.051   7.691   3.819  0.5565  2.7036  1.5648
  755MOL0     H 1894   5.097   7.855   3.768  2.7443 -0.7845  2.3343
  755MOL0     H 1895   4.930   7.659   3.603 -1.1054  1.2949 -2.8608
  755MOL0     H 1896   5.002   7.807   3.541 -0.4580  2.0408  0.8464
  755MOL0     H 1897   4.818   7.797   3.793 -0.5527  1.6907  0.6022
  755MOL0     H 1898   4.878   7.935   3.697 -2.3216  0.1058  2.7692
  755MOL0     H 1899   4.704   7.689   3.602  0.3172 -0.2305 -0.3247
  755MOL0     H 1900   4.775   7.811   3.499 -0.6672 -2.9384 -0.7337
  755MOL0     H 1901   4.619   7.906   3.731  3.8569 -0.3077  1.1696
  755MOL0     H 1902   4.639   7.984   3.577  1.1231  0.3897  2.8404
  755MOL0     H 1903   4.475   7.724   3.617 -2.2304  0.4337  0.7939
  755MOL0     H 1904   4.481   7.833   3.477 -0.4756 -0.3521 -0.0411
  755MOL0     H 1905   4.385   8.016   3.626  0.9794 -0.3157 -1.9866
  755MOL0     H 1906   4.346   7.882   3.740  3.2099 -0.4227  0.2483
  755MOL0     H 1907   5.484   7.706   3.970  1.9063  0.2551  0.7311
  755MOL0     H 1908   5.723   7.646   3.952 -1.3493 -0.1969  1.3816
  755MOL0     H 1909   6.030   7.480   3.607 -1.2151 -0.0513  1.0631
  755MOL0     H 1910   6.257   7.454   3.552  2.0843 -0.2880  1.1922
  755MOL0     H 1911   8.068   7.266   3.652 -0.7933 -2.2021  0.0094
  755MOL0     H 1912   8.292   7.342   3.702 -0.5170 -2.4419  1.6422
  755MOL0     H 1913   8.698   7.201   3.763  1.7924  0.3088  1.4053
  755MOL0     H 1914   8.907   7.222   3.881  1.2829  3.0371 -0.1245
  755MOL0     H 1915   9.081   7.399   3.931  0.2948  0.9399 -1.4293
  755MOL0     H 1916   9.138   7.239   3.966  0.5188  0.0720  0.2700
  755MOL0     H 1917   9.305   7.388   4.049  1.2289  1.5732  0.0110
  755MOL0     H 1918   9.314   7.481   3.908  4.0901 -1.1831  0.6813
  755MOL0     H 1919   9.430   7.307   3.773 -0.7625 -1.8906 -0.4277
  755MOL0     H 1920   9.377   7.185   3.893 -0.4202 -0.5414 -0.0527
  755MOL0     H 1921   9.588   7.398   3.952 -1.1367  0.2140  2.4389
  755MOL0     H 1922   9.611   7.229   3.898 -2.7485 -1.6782 -1.0158
  755MOL0     H 1923   9.552   7.166   4.304  0.4981 -0.6918 -0.9847
  755MOL0     H 1924   9.091   7.381   3.514 -0.5256 -1.0088 -0.3240
  755MOL0     H 1925   8.884   7.389   3.412  0.0725  2.0174  0.5427
  756MOL0     O 1926  10.285   4.158   6.219  0.3093 -0.2862 -0.0059
  756MOL0     C 1927  10.383   4.166   6.293 -0.1429 -0.7131  0.8693
  756MOL0     O 1928  10.377   4.225   6.415  0.2211 -0.3364 -0.2117
  756MOL0     C 1929  10.251   4.246   6.474 -0.2787  0.8900  0.6079
  756MOL0     C 1930  10.181   4.351   6.432 -0.7326  0.2248 -0.3138
  756MOL0     C 1931  10.057   4.376   6.484  0.0956  0.1566 -0.1652
  756MOL0     C 1932  10.003   4.298   6.589 -0.3435  0.1029  0.6594
  756MOL0     O 1933   9.874   4.328   6.637  0.3873 -0.0541  0.1714
  756MOL0     C 1934   9.771   4.233   6.626 -0.0983 -0.9941  0.5164
  756MOL0     C 1935   9.648   4.268   6.708 -0.6550  0.0817 -0.5578
  756MOL0     C 1936   9.548   4.157   6.696 -0.3296  0.4610 -0.6945
  756MOL0     C 1937   9.437   4.166   6.796 -1.1737  0.3011 -0.8524
  756MOL0     C 1938   9.359   4.034   6.812  0.4127  0.3494 -0.3175
  756MOL0     C 1939   9.248   4.045   6.913  0.2337 -0.5165 -0.1530
  756MOL0     C 1940   9.157   3.927   6.905  0.2106  0.2516  0.7857
  756MOL0     C 1941   9.033   3.955   6.987 -0.3532 -0.2316  0.4182
  756MOL0     N 1942   8.966   3.828   6.980  0.3757  0.4528 -0.6478
  756MOL0     C 1943   8.879   3.787   6.872  0.2247  0.3160  0.1859
  756MOL0     C 1944   8.828   3.667   6.906 -0.7514 -0.2671 -0.7493
  756MOL0     C 1945   8.726   3.582   6.847 -0.3257  0.0254  0.1166
  756MOL0     C 1946   8.580   3.588   6.907  0.8804  0.7611  0.9106
  756MOL0     C 1947   8.488   3.487   6.838  0.4484  0.7717  0.4211
  756MOL0     C 1948   8.341   3.522   6.852  0.2319  0.4089  0.1156
  756MOL0     O 1949   8.271   3.442   6.749 -0.6351  0.1146 -0.8426
  756MOL0     C 1950   8.139   3.476   6.721  0.1339  0.4988  0.9234
  756MOL0     C 1951   8.087   3.399   6.614 -0.1871  0.3343  0.0973
  756MOL0     C 1952   7.949   3.407   6.581  0.2282  0.9795  0.4318
  756MOL0     C 1953   7.916   3.309   6.470  1.0517  0.0087  0.0845
  756MOL0     C 1954   7.863   3.494   6.644  0.6790 -0.0007  0.6724
  756MOL0     C 1955   7.715   3.507   6.603 -1.1587 -0.9461  0.0469
  756MOL0     O 1956   7.644   3.595   6.680 -0.8236 -0.0322  0.6593
  756MOL0     C 1957   7.510   3.597   6.661 -0.4139  0.7832  0.7803
  756MOL0     C 1958   7.444   3.669   6.558  0.7445  0.1048  0.4882
  756MOL0     C 1959   7.305   3.668   6.534 -0.2410  0.3106 -0.6443
  756MOL0     C 1960   7.231   3.571   6.607 -0.3239  0.4279  0.8208
  756MOL0     O 1961   7.089   3.564   6.588 -0.1392  0.8273  0.2312
  756MOL0     C 1962   7.017   3.531   6.702  0.2932  0.0928 -0.4885
  756MOL0     C 1963   6.863   3.530   6.672  0.0945 -0.4296  0.1040
  756MOL0     C 1964   6.820   3.417   6.583  0.6377  0.2329  0.2984
  756MOL0     C 1965   6.692   3.444   6.524 -0.7190  0.5404 -0.6930
  756MOL0     C 1966   6.644   3.340   6.423  0.5979  0.2260  0.3947
  756MOL0     C 1967   6.513   3.375   6.361 -0.0059 -0.1581  0.0563
  756MOL0     C 1968   6.441   3.253   6.305  1.0223 -0.1773  0.2787
  756MOL0     C 1969   6.302   3.292   6.246  0.4927 -0.3978 -0.1273
  756MOL0    Cl 1970   6.216   3.142   6.228  0.1813 -0.3521 -0.3880
  756MOL0     C 1971   7.293   3.487   6.702  0.1379  0.3924 -0.3383
  756MOL0     C 1972   7.429   3.504   6.729  0.8168  0.1930  0.2791
  756MOL0     O 1973   7.670   3.448   6.508  0.0005 -0.0024  0.0133
  756MOL0     C 1974   7.908   3.574   6.746 -0.1646 -0.2179 -0.4029
  756MOL0     C 1975   8.045   3.565   6.790  0.3032 -0.5348  0.6347
  756MOL0     N 1976   8.875   3.646   7.038  0.0652 -0.7258 -0.1399
  756MOL0     N 1977   8.956   3.735   7.077 -0.6972 -0.6008 -0.0521
  756MOL0     C 1978  10.078   4.188   6.631 -0.9878 -0.8024 -0.1321
  756MOL0     C 1979  10.204   4.159   6.570  0.4840 -0.2340 -1.0421
  756MOL0     C 1980  10.526   4.129   6.241  0.3669  0.4436  0.1140
  756MOL0     C 1981  10.648   4.194   6.280 -0.1230  0.2598  0.1052
  756MOL0     C 1982  10.764   4.161   6.215 -0.7118 -0.5377 -0.8398
  756MOL0     C 1983  10.776   4.049   6.137  0.3612 -0.7148  0.3106
  756MOL0     O 1984  10.896   4.002   6.080  0.2933  0.2029 -0.2338
  756MOL0     C 1985  11.010   4.085   6.115  1.1709 -0.0308  0.7682
  756MOL0     C 1986  11.055   4.059   6.263 -0.3240  0.2281  0.1305
  756MOL0     C 1987  11.194   4.113   6.294  0.0952 -0.5771 -0.1479
  756MOL0     C 1988  11.206   4.269   6.295 -0.2094  0.5441  0.2194
  756MOL0     C 1989  11.097   4.333   6.370 -0.4559 -0.5687 -0.3724
  756MOL0     C 1990  11.003   4.378   6.427  0.8765  0.4869  0.1114
  756MOL0     C 1991  10.662   3.970   6.109 -1.1048 -1.0698 -0.1817
  756MOL0     C 1992  10.535   4.010   6.159 -0.0329 -0.3201  0.2792
  756MOL0     H 1993  10.233   4.418   6.364  1.9423 -0.3787  0.9904
  756MOL0     H 1994  10.000   4.463   6.452  2.5060  1.3867 -1.3808
  756MOL0     H 1995   9.745   4.236   6.520 -0.7311 -1.0466  0.6624
  756MOL0     H 1996   9.813   4.133   6.641  4.3123  0.2973 -1.6904
  756MOL0     H 1997   9.686   4.268   6.811  0.6828 -2.6809 -0.9635
  756MOL0     H 1998   9.603   4.362   6.676  1.5893  0.6653 -2.2884
  756MOL0     H 1999   9.494   4.151   6.602  1.1843  1.2160 -1.6603
  756MOL0     H 2000   9.602   4.062   6.702  2.1308  1.5747 -2.9990
  756MOL0     H 2001   9.481   4.195   6.892  0.1424  1.6043 -1.8092
  756MOL0     H 2002   9.373   4.249   6.764 -1.0767  1.2475  1.2600
  756MOL0     H 2003   9.320   4.002   6.715 -0.3844  0.5945 -0.0869
  756MOL0     H 2004   9.423   3.956   6.854 -2.1772 -1.1770  1.0613
  756MOL0     H 2005   9.279   4.056   7.018 -1.0776 -2.2676  0.4791
  756MOL0     H 2006   9.181   4.129   6.890  0.7863 -0.4046 -1.3893
  756MOL0     H 2007   9.136   3.901   6.801 -0.2051  0.8465  0.7135
  756MOL0     H 2008   9.207   3.835   6.937 -1.1014 -0.7123  0.1002
  756MOL0     H 2009   8.966   4.025   6.937  0.3248 -1.0110 -1.7076
  756MOL0     H 2010   9.064   3.996   7.084  1.4365 -1.1988  0.3094
  756MOL0     H 2011   8.862   3.844   6.781 -2.0485  0.4164  0.6246
  756MOL0     H 2012   8.721   3.617   6.744  1.9722 -1.7823 -0.6800
  756MOL0     H 2013   8.763   3.480   6.848  0.1891  0.1720 -1.7102
  756MOL0     H 2014   8.539   3.690   6.906 -1.8679 -0.2565  1.1908
  756MOL0     H 2015   8.598   3.557   7.010  1.5626  0.7181  0.7821
  756MOL0     H 2016   8.502   3.385   6.875  0.6115  0.1534 -1.2511
  756MOL0     H 2017   8.522   3.487   6.734  3.2213  0.7915  1.2457
  756MOL0     H 2018   8.324   3.628   6.834 -0.5709  0.3586  0.5372
  756MOL0     H 2019   8.299   3.492   6.948  0.9732 -0.7548  0.0923
  756MOL0     H 2020   8.161   3.337   6.565  1.4146  0.5149  2.1338
  756MOL0     H 2021   7.887   3.378   6.390  2.4377  0.5408  0.0180
  756MOL0     H 2022   8.002   3.252   6.433 -0.5391 -3.0248  0.7005
  756MOL0     H 2023   7.834   3.243   6.499  0.5008 -0.5079 -2.4495
  756MOL0     H 2024   7.508   3.733   6.499  0.8245 -0.8687 -0.5137
  756MOL0     H 2025   7.264   3.728   6.454 -1.9425 -0.3282 -0.3020
  756MOL0     H 2026   7.041   3.432   6.743  0.0038  0.3484  0.3333
  756MOL0     H 2027   7.040   3.591   6.791 -0.6350 -1.5407  0.9437
  756MOL0     H 2028   6.810   3.534   6.767 -0.6687  0.0964 -0.3326
  756MOL0     H 2029   6.839   3.622   6.617  0.7839 -1.9567 -3.0036
  756MOL0     H 2030   6.814   3.321   6.636 -0.2544 -1.8931 -3.2625
  756MOL0     H 2031   6.889   3.411   6.498  1.0641 -0.2938  0.6709
  756MOL0     H 2032   6.627   3.444   6.611  1.6822 -2.3712  1.3359
  756MOL0     H 2033   6.685   3.543   6.478 -1.1023  0.7783 -0.1352
  756MOL0     H 2034   6.642   3.241   6.470 -0.2672 -0.6390 -1.3549
  756MOL0     H 2035   6.713   3.345   6.338  1.8232  0.5005  1.3814
  756MOL0     H 2036   6.451   3.427   6.434 -1.1658 -3.1499  1.4010
  756MOL0     H 2037   6.529   3.446   6.280  2.8605  2.1126  2.3911
  756MOL0     H 2038   6.409   3.195   6.392  1.3273  0.3292  0.7364
  756MOL0     H 2039   6.493   3.194   6.229  2.1880  1.5870 -0.3606
  756MOL0     H 2040   6.306   3.345   6.150 -0.2660 -0.3426 -0.1326
  756MOL0     H 2041   6.258   3.361   6.319  0.6009  0.0237 -0.4540
  756MOL0     H 2042   7.244   3.397   6.738 -0.8051  0.2736 -1.8490
  756MOL0     H 2043   7.479   3.436   6.796  4.5810  0.8343 -1.5869
  756MOL0     H 2044   7.849   3.649   6.798  0.4641  1.5991 -2.1555
  756MOL0     H 2045   8.085   3.629   6.867 -0.5602 -1.3655  1.8083
  756MOL0     H 2046  10.041   4.124   6.710 -1.1524 -0.7209 -0.1427
  756MOL0     H 2047  10.269   4.079   6.604 -0.9052 -0.3886  1.4625
  756MOL0     H 2048  10.644   4.272   6.356 -0.8781 -0.9425  1.3377
  756MOL0     H 2049  10.849   4.225   6.238  1.9699 -4.5685  1.9259
  756MOL0     H 2050  11.091   4.047   6.052  0.8713  0.3147  0.1713
  756MOL0     H 2051  10.991   4.191   6.101  2.0468  0.0525  0.1355
  756MOL0     H 2052  11.059   3.954   6.293 -1.5433  0.3789  0.9097
  756MOL0     H 2053  10.984   4.100   6.335 -1.4779 -0.8471 -0.3528
  756MOL0     H 2054  11.271   4.082   6.223  1.3232 -0.1332  0.9552
  756MOL0     H 2055  11.216   4.079   6.395  0.8405  1.4954  0.4523
  756MOL0     H 2056  11.213   4.305   6.192 -0.4647  1.8667  0.6565
  756MOL0     H 2057  11.297   4.311   6.339  1.1375 -0.0677 -1.8155
  756MOL0     H 2058  10.922   4.420   6.483  1.1770  3.7281 -1.6281
  756MOL0     H 2059  10.665   3.879   6.050  0.6470 -0.1553 -1.6155
  756MOL0     H 2060  10.454   3.948   6.122  1.2705 -0.9531 -1.6935
  757MOL0     O 2061   0.941   6.453   8.294  0.5521 -0.7639 -0.3564
  757MOL0     C 2062   1.010   6.448   8.395 -0.8967  0.2433  0.2876
  757MOL0     O 2063   0.979   6.384   8.516 -0.2118  0.8342 -0.1987
  757MOL0     C 2064   0.868   6.310   8.524  0.4501  0.1688 -0.3814
  757MOL0     C 2065   0.834   6.218   8.429 -0.4810  0.0301 -0.5745
  757MOL0     C 2066   0.722   6.142   8.439  0.5599  0.4199  0.1366
  757MOL0     C 2067   0.634   6.151   8.550  0.4086  0.3064 -0.1870
  757MOL0     O 2068   0.518   6.081   8.534  0.1774  0.4407 -1.2960
  757MOL0     C 2069   0.417   6.103   8.639 -0.4290  0.9379 -0.3926
  757MOL0     C 2070   0.299   6.004   8.604  0.0168 -0.5761  0.4331
  757MOL0     C 2071   0.354   5.870   8.640 -0.2135 -0.5559 -0.0249
  757MOL0     C 2072   0.359   5.841   8.793 -0.2005 -0.3727  0.4084
  757MOL0     C 2073   0.437   5.712   8.822  0.6355 -1.1583  0.6715
  757MOL0     C 2074   0.495   5.711   8.965  0.8606 -0.3363 -0.2565
  757MOL0     C 2075   0.541   5.565   9.006  0.3560 -1.9370 -0.7511
  757MOL0     C 2076   0.422   5.474   9.064 -0.3026 -0.2358 -0.5785
  757MOL0     N 2077   0.325   5.525   9.161  0.9226 -0.6058  0.0261
  757MOL0     C 2078   0.214   5.601   9.129 -0.1492 -0.4213  0.3816
  757MOL0     C 2079   0.142   5.600   9.247 -0.0087  0.8440 -0.0271
  757MOL0     C 2080   0.011   5.676   9.268  0.0539  0.1008 -0.5153
  757MOL0     C 2081  -0.103   5.621   9.198 -0.3617  1.3390 -0.0400
  757MOL0     C 2082  -0.151   5.483   9.247  0.6421 -0.7055  0.9243
  757MOL0     C 2083  -0.287   5.449   9.187 -0.8419  0.3638  0.8753
  757MOL0     O 2084  -0.389   5.530   9.250  0.2316 -0.5280  0.1929
  757MOL0     C 2085  -0.522   5.487   9.249 -0.5318  0.4004 -0.7323
  757MOL0     C 2086  -0.575   5.372   9.197  0.5314  0.3236  0.4537
  757MOL0     C 2087  -0.716   5.335   9.196  0.0883 -0.3923 -0.5157
  757MOL0     C 2088  -0.757   5.211   9.123 -0.0102 -0.5733  0.3331
  757MOL0     C 2089  -0.808   5.433   9.252 -1.4663 -0.1809  0.6582
  757MOL0     C 2090  -0.957   5.406   9.263 -0.0879 -0.0375 -0.3442
  757MOL0     O 2091  -1.033   5.497   9.334 -0.8885  0.3554  0.2091
  757MOL0     C 2092  -1.161   5.460   9.361 -0.0318 -0.6679 -0.1977
  757MOL0     C 2093  -1.193   5.418   9.493  0.1773 -0.1143 -0.4409
  757MOL0     C 2094  -1.328   5.395   9.537 -0.7107  0.6400  1.3792
  757MOL0     C 2095  -1.430   5.424   9.448  0.2552  0.0360  0.0763
  757MOL0     O 2096  -1.561   5.434   9.487  0.6359 -0.1533  0.2497
  757MOL0     C 2097  -1.607   5.372   9.609  0.0187 -0.3903 -0.2944
  757MOL0     C 2098  -1.753   5.409   9.649  0.4431  1.2315  0.0244
  757MOL0     C 2099  -1.851   5.363   9.538  0.6963 -0.4561  0.0720
  757MOL0     C 2100  -1.999   5.378   9.578 -1.0606  0.9946 -0.1987
  757MOL0     C 2101  -2.095   5.388   9.460 -0.7466 -0.1643 -0.0493
  757MOL0     C 2102  -2.241   5.403   9.505  0.2560  0.1883 -0.0048
  757MOL0     C 2103  -2.296   5.287   9.589 -0.7301  0.6936 -0.1182
  757MOL0     C 2104  -2.450   5.289   9.607 -0.2159 -0.8784 -0.1499
  757MOL0    Cl 2105  -2.552   5.218   9.470 -0.2457 -0.0789 -0.2502
  757MOL0     C 2106  -1.402   5.468   9.313 -0.2464  0.3561  0.0612
  757MOL0     C 2107  -1.272   5.489   9.273  0.4600  0.3830  1.0140
  757MOL0     O 2108  -0.997   5.301   9.219 -0.7994  0.2972 -0.0076
  757MOL0     C 2109  -0.748   5.544   9.318 -0.5072 -0.3362  1.0247
  757MOL0     C 2110  -0.607   5.566   9.315 -0.4550 -0.2331 -0.9547
  757MOL0     N 2111   0.212   5.525   9.342 -0.6575 -0.4467  0.0867
  757MOL0     N 2112   0.318   5.476   9.289  0.0615 -0.1613  0.1173
  757MOL0     C 2113   0.664   6.250   8.649  0.8107 -0.3112  0.5227
  757MOL0     C 2114   0.780   6.327   8.631 -0.7314  0.3274  0.2398
  757MOL0     C 2115   1.139   6.517   8.382 -0.2282 -0.1342 -0.7506
  757MOL0     C 2116   1.243   6.497   8.483  0.0546  0.2641 -0.1551
  757MOL0     C 2117   1.366   6.554   8.467  0.1165 -0.1492 -0.0027
  757MOL0     C 2118   1.397   6.633   8.360 -0.0262 -0.6079 -0.1300
  757MOL0     O 2119   1.522   6.693   8.362 -0.1833 -0.8641 -0.2388
  757MOL0     C 2120   1.561   6.752   8.237 -0.1542  0.3968  0.6441
  757MOL0     C 2121   1.717   6.777   8.253 -0.6343 -0.2579  0.0210
  757MOL0     C 2122   1.795   6.649   8.249  0.6135  0.4380  0.0306
  757MOL0     C 2123   1.948   6.652   8.280  0.4910 -0.3945 -0.0026
  757MOL0     C 2124   1.974   6.698   8.416 -1.0226  0.6794 -0.1197
  757MOL0     C 2125   1.992   6.737   8.526 -0.5778 -0.5901 -0.7451
  757MOL0     C 2126   1.300   6.662   8.268  0.5230 -0.0548 -0.0085
  757MOL0     C 2127   1.174   6.595   8.269 -0.3620  0.2845  0.3758
  757MOL0     H 2128   0.901   6.202   8.345 -0.2270  0.3235 -0.4309
  757MOL0     H 2129   0.697   6.074   8.358 -1.8840  0.9800  0.3515
  757MOL0     H 2130   0.478   6.081   8.727  0.1805 -1.0823 -1.2756
  757MOL0     H 2131   0.387   6.208   8.642  0.5612  1.2111  0.7573
  757MOL0     H 2132   0.204   6.020   8.655 -0.1292 -1.3183  0.4044
  757MOL0     H 2133   0.283   6.031   8.499  0.1338 -1.3213  0.2163
  757MOL0     H 2134   0.289   5.792   8.599  0.0239 -0.5219 -0.4693
  757MOL0     H 2135   0.452   5.860   8.594  0.2739  4.8300 -0.7541
  757MOL0     H 2136   0.400   5.926   8.847 -0.7564 -0.8101  1.5336
  757MOL0     H 2137   0.254   5.830   8.824 -0.5842 -4.5886 -1.5787
  757MOL0     H 2138   0.382   5.619   8.805  3.0722 -2.4102 -0.9801
  757MOL0     H 2139   0.521   5.716   8.752 -0.5263 -0.8074 -0.7561
  757MOL0     H 2140   0.566   5.791   8.987 -0.6406  0.7791  0.7283
  757MOL0     H 2141   0.413   5.741   9.032  1.6451  0.4585  0.3725
  757MOL0     H 2142   0.586   5.517   8.919 -0.1141 -0.3006 -1.9456
  757MOL0     H 2143   0.630   5.566   9.070 -0.5043  3.9570  0.9987
  757MOL0     H 2144   0.470   5.385   9.106  0.4958 -1.9515 -4.6414
  757MOL0     H 2145   0.369   5.436   8.977  0.0533 -0.3588 -0.7417
  757MOL0     H 2146   0.193   5.653   9.036  2.8501 -2.6763 -1.7482
  757MOL0     H 2147  -0.004   5.679   9.376  0.6781 -0.0030 -0.4209
  757MOL0     H 2148   0.019   5.784   9.252  2.6006  0.6296  3.0620
  757MOL0     H 2149  -0.090   5.620   9.089  0.3059  0.9809  0.0386
  757MOL0     H 2150  -0.188   5.687   9.217 -2.2441 -0.8538 -0.3034
  757MOL0     H 2151  -0.165   5.489   9.355  1.1757 -1.1043  1.0180
  757MOL0     H 2152  -0.081   5.401   9.231  1.1833 -0.1900  0.6190
  757MOL0     H 2153  -0.299   5.340   9.197  2.3801 -0.4475 -1.9915
  757MOL0     H 2154  -0.291   5.477   9.081 -2.2213  2.4190  1.4216
  757MOL0     H 2155  -0.509   5.298   9.152  0.3696  0.9417 -0.8402
  757MOL0     H 2156  -0.833   5.218   9.044 -2.2017  0.4916  2.3940
  757MOL0     H 2157  -0.664   5.181   9.073  0.3678  0.2890  0.5063
  757MOL0     H 2158  -0.792   5.138   9.197  0.2014 -0.1374  0.8644
  757MOL0     H 2159  -1.102   5.402   9.551  2.0788 -0.7307 -3.3555
  757MOL0     H 2160  -1.315   5.369   9.641  2.0402  1.0448  1.2190
  757MOL0     H 2161  -1.590   5.264   9.605  1.3721 -0.1759 -1.2301
  757MOL0     H 2162  -1.548   5.400   9.696 -2.3516 -4.7009  3.1133
  757MOL0     H 2163  -1.795   5.349   9.730  1.1669 -1.2734 -1.3705
  757MOL0     H 2164  -1.767   5.517   9.666  0.8914  1.3764 -0.4876
  757MOL0     H 2165  -1.836   5.260   9.504 -1.3211 -0.5072 -0.8038
  757MOL0     H 2166  -1.831   5.414   9.443  0.2084 -0.1745  0.1140
  757MOL0     H 2167  -2.024   5.300   9.649 -1.7879 -0.4083 -1.9155
  757MOL0     H 2168  -2.002   5.469   9.639 -0.6394 -0.1159  1.5533
  757MOL0     H 2169  -2.096   5.304   9.391  1.9979 -0.6251  0.3649
  757MOL0     H 2170  -2.064   5.471   9.396 -3.3788  1.4505  0.5821
  757MOL0     H 2171  -2.241   5.493   9.566 -0.2159 -0.9862  1.7889
  757MOL0     H 2172  -2.299   5.418   9.413  2.2776  1.6073 -1.1309
  757MOL0     H 2173  -2.256   5.296   9.690 -1.5053  1.8246  0.1032
  757MOL0     H 2174  -2.264   5.192   9.544  1.0645  0.9497  0.5100
  757MOL0     H 2175  -2.477   5.392   9.630 -0.7498 -0.7072 -1.4695
  757MOL0     H 2176  -2.483   5.229   9.693 -1.3483  1.6740  1.3094
  757MOL0     H 2177  -1.486   5.484   9.246 -1.2806 -0.3455  1.1416
  757MOL0     H 2178  -1.261   5.540   9.178 -0.4398 -1.8647 -0.3798
  757MOL0     H 2179  -0.805   5.615   9.377  1.2700  1.8856  0.2310
  757MOL0     H 2180  -0.559   5.645   9.372  1.0358  0.2277 -2.7777
  757MOL0     H 2181   0.587   6.285   8.717 -0.0773 -1.0466 -0.0885
  757MOL0     H 2182   0.797   6.401   8.709  3.2581  1.8458 -1.8100
  757MOL0     H 2183   1.225   6.445   8.577  1.0584  0.8091  0.3453
  757MOL0     H 2184   1.437   6.547   8.549 -0.0610  0.5978  0.2243
  757MOL0     H 2185   1.542   6.686   8.153  0.6827  2.3157 -1.1510
  757MOL0     H 2186   1.511   6.847   8.213  1.0758  0.7328 -0.7285
  757MOL0     H 2187   1.752   6.841   8.334  1.3965 -1.8655  0.5103
  757MOL0     H 2188   1.748   6.840   8.169 -1.2593 -1.9190 -1.5228
  757MOL0     H 2189   1.778   6.605   8.150 -0.0961  1.2610 -0.2170
  757MOL0     H 2190   1.755   6.574   8.318 -1.9396  1.4275 -0.2452
  757MOL0     H 2191   1.987   6.720   8.204  1.2776 -2.2081 -1.3063
  757MOL0     H 2192   2.004   6.562   8.253 -0.4305 -1.2474  0.8490
  757MOL0     H 2193   2.019   6.768   8.625  1.7488 -1.0821 -1.1650
  757MOL0     H 2194   1.322   6.725   8.182 -0.0884 -2.0458 -1.7274
  757MOL0     H 2195   1.112   6.598   8.180  0.4207 -1.3707 -0.2625
  758MOL0     O 2196   7.537   8.837   6.310 -0.2053  0.6666 -0.1480
  758MOL0     C 2197   7.527   8.930   6.388 -0.3549  0.0305  0.1427
  758MOL0     O 2198   7.412   8.999   6.426  0.3983  0.7480  1.0925
  758MOL0     C 2199   7.288   8.939   6.414  0.0069  2.0267  0.4998
  758MOL0     C 2200   7.268   8.800   6.386  0.2184  0.0220  0.4828
  758MOL0     C 2201   7.140   8.757   6.354  1.0405  0.2210  0.0605
  758MOL0     C 2202   7.025   8.845   6.352 -0.8252  0.4506  0.3072
  758MOL0     O 2203   6.906   8.799   6.307  0.0712  0.0483 -0.8657
  758MOL0     C 2204   6.794   8.886   6.280 -0.5154 -0.1684  0.1857
  758MOL0     C 2205   6.803   8.896   6.116 -0.2821  0.3421  0.8189
  758MOL0     C 2206   6.919   8.988   6.070 -0.2996 -0.3971  0.0832
  758MOL0     C 2207   6.905   9.032   5.923 -0.7062 -0.2474  0.6829
  758MOL0     C 2208   7.025   9.113   5.875  0.6168 -0.0764  0.3197
  758MOL0     C 2209   7.016   9.155   5.729 -0.2348 -0.3414 -0.3199
  758MOL0     C 2210   7.141   9.224   5.680 -0.6975  0.2383  0.0972
  758MOL0     C 2211   7.175   9.361   5.750 -0.3144  0.1885 -0.5589
  758MOL0     N 2212   7.277   9.438   5.676  0.1414 -0.4291 -0.7492
  758MOL0     C 2213   7.408   9.399   5.656 -0.0132 -0.1380 -0.0171
  758MOL0     C 2214   7.469   9.515   5.620 -0.5324 -0.9679  0.0187
  758MOL0     C 2215   7.609   9.527   5.557 -0.6415 -0.8092 -0.3524
  758MOL0     C 2216   7.711   9.578   5.657 -0.1284 -0.9241  0.5437
  758MOL0     C 2217   7.747   9.486   5.763 -0.1389  0.2040 -0.9439
  758MOL0     C 2218   7.834   9.552   5.873 -0.5755 -0.4850 -0.2483
  758MOL0     O 2219   7.943   9.626   5.814  0.3560 -0.0453 -0.1825
  758MOL0     C 2220   8.034   9.692   5.896  0.0161 -0.0260 -0.4420
  758MOL0     C 2221   8.015   9.717   6.026  0.2499 -0.1958  0.3219
  758MOL0     C 2222   8.104   9.799   6.104  0.0471 -0.3875  0.1947
  758MOL0     C 2223   8.052   9.810   6.246  0.0413  0.8888  0.3740
  758MOL0     C 2224   8.220   9.856   6.047  0.4652  0.1678  0.7478
  758MOL0     C 2225   8.320   9.945   6.111 -0.0194  0.1181  0.8825
  758MOL0     O 2226   8.288   9.999   6.234  0.5779 -0.5860  0.8646
  758MOL0     C 2227   8.386  10.073   6.297  0.4323 -0.5152  0.1871
  758MOL0     C 2228   8.358  10.206   6.310 -0.3874  0.8897  0.6066
  758MOL0     C 2229   8.434  10.295   6.377  0.6742  0.2959  0.2312
  758MOL0     C 2230   8.541  10.248   6.446 -0.9785 -1.1753 -0.3094
  758MOL0     O 2231   8.620  10.330   6.527  0.0197 -0.6846 -0.1675
  758MOL0     C 2232   8.595  10.468   6.552  0.2097 -0.5109 -0.3683
  758MOL0     C 2233   8.692  10.519   6.667  0.2384  0.1957  0.7828
  758MOL0     C 2234   8.673  10.452   6.798 -0.1851 -0.3419  0.0674
  758MOL0     C 2235   8.766  10.502   6.903  0.0702 -0.8137  0.3255
  758MOL0     C 2236   8.755  10.433   7.038  0.8018 -0.0224 -0.2757
  758MOL0     C 2237   8.627  10.455   7.112  0.9127  0.5776  0.4843
  758MOL0     C 2238   8.606  10.377   7.247  0.6251 -1.0734  0.1134
  758MOL0     C 2239   8.455  10.395   7.281  0.7921  0.3681 -0.3870
  758MOL0    Cl 2240   8.429  10.562   7.332  0.1079  0.3495  0.0259
  758MOL0     C 2241   8.582  10.114   6.428 -0.3545 -0.3840 -0.3654
  758MOL0     C 2242   8.510  10.027   6.345  0.4875 -0.2610  1.6299
  758MOL0     O 2243   8.424   9.970   6.050  0.2065 -0.7711  0.1279
  758MOL0     C 2244   8.231   9.834   5.908  0.5842 -0.0106  0.9050
  758MOL0     C 2245   8.140   9.749   5.832 -0.0291 -0.1690 -0.5617
  758MOL0     N 2246   7.384   9.621   5.622 -0.6159  0.0040  0.1220
  758MOL0     N 2247   7.270   9.579   5.664  0.6321  0.7092 -1.1593
  758MOL0     C 2248   7.044   8.973   6.402 -0.6841 -0.2236 -0.4313
  758MOL0     C 2249   7.181   9.019   6.420 -0.0231  0.0875 -0.4879
  758MOL0     C 2250   7.659   8.972   6.451  0.8651  0.3163 -0.8522
  758MOL0     C 2251   7.780   8.927   6.411 -0.3270 -0.3600  0.6829
  758MOL0     C 2252   7.904   8.956   6.469  0.3564  0.2122 -0.1111
  758MOL0     C 2253   7.910   9.046   6.580  0.3247 -0.1849  0.5924
  758MOL0     O 2254   8.033   9.058   6.646  0.4412 -0.8994 -0.1229
  758MOL0     C 2255   8.157   9.041   6.576 -0.1891  0.2825  0.3939
  758MOL0     C 2256   8.175   9.154   6.478 -0.6155  0.1581  0.6748
  758MOL0     C 2257   8.320   9.190   6.431 -0.7075 -0.1665 -0.8546
  758MOL0     C 2258   8.401   9.239   6.550 -0.2445 -0.0069  1.3974
  758MOL0     C 2259   8.544   9.277   6.513  0.2447  0.2932  0.6058
  758MOL0     C 2260   8.665   9.294   6.487 -0.4258  0.1009 -0.1259
  758MOL0     C 2261   7.790   9.101   6.621 -0.8971 -1.2149 -0.6408
  758MOL0     C 2262   7.668   9.077   6.555  0.3672  0.1009  0.0513
  758MOL0     H 2263   7.345   8.723   6.381 -1.0582 -1.2361 -0.8356
  758MOL0     H 2264   7.142   8.652   6.328  4.0275  0.6287 -1.8856
  758MOL0     H 2265   6.699   8.832   6.293 -1.9439  2.6598  2.6068
  758MOL0     H 2266   6.792   8.976   6.341  0.6315 -0.6204  0.9105
  758MOL0     H 2267   6.818   8.799   6.068  1.8049  2.2810 -2.8803
  758MOL0     H 2268   6.711   8.932   6.069 -0.6512 -2.2139 -0.5728
  758MOL0     H 2269   6.922   9.079   6.130  2.5480 -1.2140  1.3623
  758MOL0     H 2270   7.012   8.936   6.094 -0.7270 -0.4576  1.7400
  758MOL0     H 2271   6.897   8.948   5.853  2.3543  0.2334 -0.4220
  758MOL0     H 2272   6.818   9.098   5.915 -1.4316 -1.3635 -1.5380
  758MOL0     H 2273   7.036   9.199   5.941 -2.5721  1.5433 -1.0457
  758MOL0     H 2274   7.104   9.037   5.881 -0.0578 -0.7663  0.6008
  758MOL0     H 2275   6.998   9.066   5.668  1.1482  0.0590 -1.3645
  758MOL0     H 2276   6.938   9.229   5.710  0.8248  0.8086 -0.2619
  758MOL0     H 2277   7.223   9.154   5.696 -1.3157 -0.1891  1.5709
  758MOL0     H 2278   7.126   9.244   5.573 -3.5310 -0.2665  0.3128
  758MOL0     H 2279   7.222   9.332   5.845 -0.0697  0.2960 -0.6474
  758MOL0     H 2280   7.083   9.419   5.763  0.9225  1.7395  2.0635
  758MOL0     H 2281   7.456   9.302   5.664  0.0400 -0.0810  0.3834
  758MOL0     H 2282   7.634   9.427   5.518  0.8682 -0.6773  0.1910
  758MOL0     H 2283   7.613   9.606   5.481 -0.1316  1.0809  1.5366
  758MOL0     H 2284   7.667   9.664   5.708 -0.8485  0.2535 -1.9010
  758MOL0     H 2285   7.800   9.598   5.596 -0.3439 -0.6929  0.2995
  758MOL0     H 2286   7.803   9.400   5.725 -0.9015 -1.4026  1.3299
  758MOL0     H 2287   7.659   9.440   5.809  1.1285 -1.3921 -0.0035
  758MOL0     H 2288   7.871   9.475   5.941  0.0275 -1.3623 -1.5264
  758MOL0     H 2289   7.772   9.620   5.933  0.7423  1.7159 -1.2389
  758MOL0     H 2290   7.942   9.657   6.079  0.4481 -0.3417  0.4316
  758MOL0     H 2291   8.028   9.915   6.261 -1.7704  0.5156  0.3652
  758MOL0     H 2292   7.963   9.750   6.271  1.9538 -2.5123 -0.3077
  758MOL0     H 2293   8.133   9.772   6.308  1.6444  0.3439 -1.9217
  758MOL0     H 2294   8.269  10.240   6.259  1.7879  0.4666 -3.9123
  758MOL0     H 2295   8.403  10.399   6.387  1.6637  0.5892  0.3297
  758MOL0     H 2296   8.613  10.531   6.464 -0.5629  1.8001  1.0190
  758MOL0     H 2297   8.497  10.492   6.594  0.0520  3.4805 -2.5198
  758MOL0     H 2298   8.791  10.494   6.628  0.0589  0.6949 -0.0216
  758MOL0     H 2299   8.686  10.628   6.676 -0.4060  0.3668 -1.2333
  758MOL0     H 2300   8.690  10.344   6.794  0.5704 -0.2754  0.9130
  758MOL0     H 2301   8.568  10.459   6.827 -0.1097  1.6314  0.0082
  758MOL0     H 2302   8.862  10.478   6.857 -0.9189 -2.0995 -1.1625
  758MOL0     H 2303   8.757  10.610   6.918 -0.9753 -0.5145 -1.9842
  758MOL0     H 2304   8.836  10.470   7.101 -0.0713  0.1332  0.7698
  758MOL0     H 2305   8.766  10.325   7.023  0.3632 -0.1234  0.1437
  758MOL0     H 2306   8.623  10.563   7.130  2.3936  0.6572  0.4416
  758MOL0     H 2307   8.544  10.430   7.044  0.0575  0.5010  1.5221
  758MOL0     H 2308   8.675  10.416   7.323  0.2875 -0.5597  0.1583
  758MOL0     H 2309   8.628  10.271   7.231  0.3252 -1.3657  1.5396
  758MOL0     H 2310   8.433  10.334   7.369  0.2606  2.1185  0.7698
  758MOL0     H 2311   8.402  10.372   7.189 -1.0832  1.9285  0.2430
  758MOL0     H 2312   8.670  10.074   6.477 -0.6050  0.2261  0.6159
  758MOL0     H 2313   8.545   9.928   6.317 -0.4109  0.3364 -2.2578
  758MOL0     H 2314   8.296   9.894   5.844 -0.8518  3.0289  2.0908
  758MOL0     H 2315   8.162   9.718   5.730 -2.6719 -2.9379 -0.4434
  758MOL0     H 2316   6.972   9.053   6.410 -0.7490  0.1481 -3.4051
  758MOL0     H 2317   7.199   9.124   6.440 -1.1970  0.0798  0.8007
  758MOL0     H 2318   7.792   8.855   6.330 -1.9630  0.1009 -0.0040
  758MOL0     H 2319   7.992   8.910   6.425  1.7724  2.6809 -0.0423
  758MOL0     H 2320   8.235   9.047   6.652  1.0302  0.6080 -0.8464
  758MOL0     H 2321   8.167   8.947   6.520 -0.1405  1.3683 -1.5364
  758MOL0     H 2322   8.123   9.244   6.513 -0.4654  0.4043  0.2794
  758MOL0     H 2323   8.123   9.125   6.386 -1.4793 -0.7880  1.4468
  758MOL0     H 2324   8.318   9.266   6.353  0.2534 -1.3430 -2.0757
  758MOL0     H 2325   8.372   9.099   6.397  2.6759  1.0257  0.6156
  758MOL0     H 2326   8.401   9.182   6.644 -0.0074  0.9529  1.9995
  758MOL0     H 2327   8.353   9.331   6.585 -0.1578 -0.3004  2.3225
  758MOL0     H 2328   8.770   9.292   6.464 -0.7555 -2.2257 -1.7892
  758MOL0     H 2329   7.793   9.172   6.703 -0.9821 -1.2056 -0.6457
  758MOL0     H 2330   7.577   9.126   6.588  0.1644 -1.7159  2.5521
  759MOL0     O 2331   5.564   5.840   8.211  1.0045 -0.3912  0.0006
  759MOL0     C 2332   5.518   5.841   8.098 -0.2624 -0.8023  0.7348
  759MOL0     O 2333   5.394   5.887   8.058  0.1199 -0.2552 -0.2744
  759MOL0     C 2334   5.290   5.916   8.138 -0.6953 -0.1048 -0.8145
  759MOL0     C 2335   5.171   5.867   8.097 -0.0888 -0.3602 -0.6033
  759MOL0     C 2336   5.060   5.904   8.173  0.6124 -0.0890 -0.6675
  759MOL0     C 2337   5.063   5.984   8.292  0.3956 -0.7106  0.1198
  759MOL0     O 2338   4.954   6.014   8.374  0.0598  0.2861 -0.7233
  759MOL0     C 2339   4.866   5.898   8.396  0.1397 -0.5623 -0.2852
  759MOL0     C 2340   4.741   5.949   8.462  0.2012 -0.2853  0.1070
  759MOL0     C 2341   4.753   5.968   8.612  0.8890 -0.3816  0.0165
  759MOL0     C 2342   4.613   5.984   8.673  0.1638  0.6327  0.2221
  759MOL0     C 2343   4.627   5.990   8.831  0.7471 -0.2730 -0.3422
  759MOL0     C 2344   4.487   5.958   8.891 -0.6534  0.0973 -0.8722
  759MOL0     C 2345   4.385   6.064   8.866  1.4785 -0.0591 -0.3795
  759MOL0     C 2346   4.266   6.062   8.971  0.2986 -0.0244  0.5852
  759MOL0     N 2347   4.196   5.932   8.973 -0.4429  0.0475 -0.5791
  759MOL0     C 2348   4.253   5.815   9.021 -0.6649  0.8068 -0.0392
  759MOL0     C 2349   4.160   5.720   9.016 -0.0150 -0.7378  0.2093
  759MOL0     C 2350   4.163   5.577   9.045  0.7481  0.6620 -0.1906
  759MOL0     C 2351   4.112   5.550   9.187 -0.3892 -0.2044 -0.0773
  759MOL0     C 2352   3.960   5.511   9.193 -0.3134 -0.9663 -0.0717
  759MOL0     C 2353   3.867   5.624   9.214  0.0805  0.1021 -0.1471
  759MOL0     O 2354   3.725   5.576   9.206 -0.2365  0.1497 -0.1122
  759MOL0     C 2355   3.622   5.674   9.216 -0.2140  0.0597 -0.5600
  759MOL0     C 2356   3.509   5.671   9.134  0.2750  0.2021 -0.4644
  759MOL0     C 2357   3.414   5.769   9.151  0.0927 -0.1510  0.2295
  759MOL0     C 2358   3.294   5.772   9.057  0.7433  0.1348 -0.0234
  759MOL0     C 2359   3.414   5.854   9.256  0.7315 -0.3761  0.5721
  759MOL0     C 2360   3.302   5.951   9.270 -0.2347  0.3640 -0.4453
  759MOL0     O 2361   3.247   5.951   9.394 -0.2891 -0.7494 -1.3470
  759MOL0     C 2362   3.199   6.067   9.446  0.5193  1.3935 -0.7621
  759MOL0     C 2363   3.070   6.075   9.499 -0.0222 -0.3595 -0.1519
  759MOL0     C 2364   3.019   6.193   9.559 -0.8196 -0.7134  0.4002
  759MOL0     C 2365   3.106   6.304   9.555  0.2793  0.3679  0.3682
  759MOL0     O 2366   3.073   6.428   9.605 -0.5904 -0.2620 -0.8201
  759MOL0     C 2367   2.940   6.451   9.651  0.7903 -1.0808 -0.2209
  759MOL0     C 2368   2.943   6.599   9.705 -0.8143  0.8712  0.2829
  759MOL0     C 2369   2.814   6.665   9.742 -0.1282  0.1484 -0.0605
  759MOL0     C 2370   2.709   6.644   9.634 -0.6099  1.0247 -0.5609
  759MOL0     C 2371   2.591   6.739   9.652  0.0013 -0.9535 -0.1753
  759MOL0     C 2372   2.510   6.705   9.774  0.8484  0.0917 -0.7280
  759MOL0     C 2373   2.384   6.628   9.743 -0.1205 -0.3367 -0.7146
  759MOL0     C 2374   2.280   6.644   9.861 -0.9030 -0.0346 -0.1416
  759MOL0    Cl 2375   2.185   6.792   9.844 -0.3672 -0.5946  0.3645
  759MOL0     C 2376   3.235   6.298   9.502  0.4191  0.1964 -1.2823
  759MOL0     C 2377   3.287   6.178   9.452  0.5734 -0.4150  0.2836
  759MOL0     O 2378   3.271   6.026   9.181 -0.0106  0.2548  0.2176
  759MOL0     C 2379   3.521   5.852   9.338  0.3332  0.0273 -0.7294
  759MOL0     C 2380   3.623   5.764   9.324  0.2826  0.5012 -0.2523
  759MOL0     N 2381   4.054   5.786   8.959  0.2575  0.4047 -0.2700
  759MOL0     N 2382   4.063   5.911   8.941  0.2404  0.7734  0.4900
  759MOL0     C 2383   5.184   6.034   8.330  0.0252  0.7075 -0.4096
  759MOL0     C 2384   5.306   5.990   8.258  0.5325  0.1904 -0.6884
  759MOL0     C 2385   5.608   5.807   7.987 -0.2852 -0.1965 -0.2142
  759MOL0     C 2386   5.560   5.816   7.858 -0.0608 -0.2391 -0.2201
  759MOL0     C 2387   5.639   5.792   7.754  0.5040 -0.2301  0.8308
  759MOL0     C 2388   5.765   5.755   7.769  0.5871  0.5690  0.5176
  759MOL0     O 2389   5.837   5.724   7.651  0.4058  0.4267 -0.0144
  759MOL0     C 2390   5.947   5.627   7.653 -0.3797  0.1335 -0.6082
  759MOL0     C 2391   6.093   5.676   7.664  0.9831 -0.1586  0.4386
  759MOL0     C 2392   6.107   5.810   7.590 -0.2138 -0.8115  0.1415
  759MOL0     C 2393   6.244   5.872   7.628  0.3879  0.3220  0.0955
  759MOL0     C 2394   6.265   5.978   7.531 -0.4441  0.2740 -0.0039
  759MOL0     C 2395   6.288   6.063   7.451 -0.5174  0.0740 -0.8635
  759MOL0     C 2396   5.820   5.738   7.897  0.4024  0.4263  0.3926
  759MOL0     C 2397   5.740   5.769   8.008 -0.0734 -0.0301  1.0445
  759MOL0     H 2398   5.166   5.801   8.011  2.9304  0.7970 -1.7912
  759MOL0     H 2399   4.962   5.869   8.140  1.2038 -1.7289 -0.8135
  759MOL0     H 2400   4.841   5.846   8.303 -2.4014 -1.6893  0.9307
  759MOL0     H 2401   4.917   5.827   8.461  2.0396  1.5317  0.6449
  759MOL0     H 2402   4.709   6.038   8.407 -3.0771 -2.3933 -1.7272
  759MOL0     H 2403   4.665   5.871   8.450 -1.1250  1.1727 -1.4829
  759MOL0     H 2404   4.808   5.883   8.652 -3.1717 -3.3179 -0.0972
  759MOL0     H 2405   4.808   6.060   8.635 -0.0256  0.1071  0.2661
  759MOL0     H 2406   4.574   6.081   8.639  2.0437  0.2978 -3.3218
  759MOL0     H 2407   4.552   5.896   8.652 -0.0723  0.9062 -0.2876
  759MOL0     H 2408   4.697   5.913   8.864  2.3706  1.0005 -0.6922
  759MOL0     H 2409   4.675   6.081   8.868  2.2254 -0.9635 -0.4719
  759MOL0     H 2410   4.450   5.859   8.864 -1.9587 -0.2082  1.7027
  759MOL0     H 2411   4.498   5.961   9.000 -1.4601 -0.3411 -0.7716
  759MOL0     H 2412   4.413   6.170   8.872 -2.4378  1.1750 -0.8212
  759MOL0     H 2413   4.341   6.070   8.766  0.7772 -0.5927 -0.1115
  759MOL0     H 2414   4.197   6.145   8.958  0.7917  0.9419  3.3902
  759MOL0     H 2415   4.306   6.079   9.072 -0.2272 -1.6479  1.1088
  759MOL0     H 2416   4.355   5.792   9.053 -0.2712 -0.5476 -2.0730
  759MOL0     H 2417   4.104   5.508   8.984  2.8060  0.4715 -2.0702
  759MOL0     H 2418   4.264   5.537   9.033  0.8630  0.9572 -0.2108
  759MOL0     H 2419   4.136   5.626   9.261 -0.5149 -0.3500  0.1185
  759MOL0     H 2420   4.163   5.462   9.228  0.1193  0.2146  0.1892
  759MOL0     H 2421   3.940   5.439   9.273 -0.8837  0.3424  1.0288
  759MOL0     H 2422   3.941   5.445   9.109  1.8715 -2.4850  0.5293
  759MOL0     H 2423   3.880   5.707   9.144 -2.0170 -0.8351 -1.7475
  759MOL0     H 2424   3.884   5.665   9.314  0.6268  2.6598 -1.2110
  759MOL0     H 2425   3.499   5.608   9.046 -0.8479 -1.9873  1.1433
  759MOL0     H 2426   3.199   5.755   9.108  0.6755 -0.5000 -0.3562
  759MOL0     H 2427   3.303   5.864   8.999  2.3050 -1.0143 -1.6958
  759MOL0     H 2428   3.303   5.690   8.985  0.3184  0.3417 -0.3226
  759MOL0     H 2429   3.010   5.986   9.489  0.3424 -0.5937 -0.2724
  759MOL0     H 2430   2.923   6.181   9.608 -1.1798  1.1767  0.2457
  759MOL0     H 2431   2.864   6.447   9.572 -2.0105  0.4123  2.2119
  759MOL0     H 2432   2.914   6.391   9.738  2.4828 -0.4606  0.7601
  759MOL0     H 2433   3.005   6.598   9.795 -0.0375  2.5118 -0.1845
  759MOL0     H 2434   2.994   6.657   9.627  0.4526 -3.2089 -2.2775
  759MOL0     H 2435   2.834   6.772   9.730 -1.7573  0.5726  0.6635
  759MOL0     H 2436   2.792   6.644   9.847  0.6291 -0.8734 -0.0897
  759MOL0     H 2437   2.751   6.641   9.533  4.1757 -2.2325  1.1525
  759MOL0     H 2438   2.678   6.539   9.643  2.7046 -0.2906 -2.4815
  759MOL0     H 2439   2.534   6.762   9.562 -0.6089 -1.6165  0.0358
  759MOL0     H 2440   2.639   6.836   9.673  0.8116 -0.6444 -3.0988
  759MOL0     H 2441   2.576   6.653   9.845  2.1283 -0.6601 -2.3910
  759MOL0     H 2442   2.479   6.796   9.825  0.1981 -1.3765  1.7067
  759MOL0     H 2443   2.422   6.525   9.738 -0.2338 -0.4236  0.1068
  759MOL0     H 2444   2.356   6.678   9.650  2.3674 -0.2209 -1.4789
  759MOL0     H 2445   2.334   6.639   9.956 -0.2947  2.3150 -0.3145
  759MOL0     H 2446   2.204   6.569   9.837 -1.8201  0.8479 -0.0412
  759MOL0     H 2447   3.311   6.376   9.503  0.4385  0.2274  1.0213
  759MOL0     H 2448   3.391   6.178   9.421  0.5643  3.4446 -0.2584
  759MOL0     H 2449   3.529   5.927   9.416  0.6188 -1.0387  0.2898
  759MOL0     H 2450   3.701   5.762   9.399  0.6115 -1.1851 -0.5930
  759MOL0     H 2451   5.180   6.081   8.427 -4.4148 -3.5571  1.9404
  759MOL0     H 2452   5.403   6.020   8.296  0.4862 -1.1837  0.5712
  759MOL0     H 2453   5.456   5.840   7.838  0.6317  0.7330 -3.3539
  759MOL0     H 2454   5.581   5.804   7.663  2.1450 -0.2424 -0.2481
  759MOL0     H 2455   5.924   5.558   7.734 -0.6490 -0.0279 -0.8220
  759MOL0     H 2456   5.941   5.578   7.555  3.1208 -2.7208  0.4230
  759MOL0     H 2457   6.168   5.605   7.627  1.5059  1.3328 -1.5735
  759MOL0     H 2458   6.121   5.689   7.769 -0.0863  2.4122  0.4764
  759MOL0     H 2459   6.031   5.880   7.624  0.6173  1.2855 -1.9984
  759MOL0     H 2460   6.103   5.802   7.481  3.2691  0.9775 -0.2649
  759MOL0     H 2461   6.328   5.803   7.617 -0.2336 -0.2863 -0.8914
  759MOL0     H 2462   6.254   5.917   7.727 -0.8736 -2.1519  1.4511
  759MOL0     H 2463   6.314   6.153   7.398  2.2959  0.0683  0.3380
  759MOL0     H 2464   5.919   5.702   7.923  0.4531  0.3841  0.1440
  759MOL0     H 2465   5.777   5.771   8.109 -1.7702 -1.0365  1.7177
  760MOL0     O 2466   9.743   6.186  10.873  0.2786 -0.3269  0.7034
  760MOL0     C 2467   9.833   6.205  10.947 -0.0573  0.1648 -0.1053
  760MOL0     O 2468   9.908   6.318  10.975 -0.0827  0.2757 -0.2703
  760MOL0     C 2469   9.865   6.445  10.948 -0.0832 -0.2507  0.9292
  760MOL0     C 2470   9.736   6.482  10.902  0.1728  0.0408 -0.7072
  760MOL0     C 2471   9.706   6.616  10.879 -0.4806 -0.4084  0.2227
  760MOL0     C 2472   9.791   6.722  10.914 -0.4472 -0.2571 -0.3775
  760MOL0     O 2473   9.759   6.858  10.901 -0.1520  0.3972 -0.2351
  760MOL0     C 2474   9.711   6.908  11.031  0.5198 -0.1622  0.0973
  760MOL0     C 2475   9.596   6.999  10.991 -0.2374 -0.6564  0.5370
  760MOL0     C 2476   9.461   6.931  10.978  0.4016  0.4253 -0.0367
  760MOL0     C 2477   9.360   7.016  10.899 -0.1029 -0.0105  0.3791
  760MOL0     C 2478   9.228   6.930  10.886  1.1075 -1.1643 -1.1351
  760MOL0     C 2479   9.145   6.939  11.021  0.3655 -0.4211 -0.2566
  760MOL0     C 2480   9.052   6.824  11.024 -0.5032  0.1595 -0.9601
  760MOL0     C 2481   8.963   6.804  10.900  0.7256  0.3930  0.3352
  760MOL0     N 2482   8.881   6.927  10.879 -0.8580  0.3814 -0.2516
  760MOL0     C 2483   8.771   6.968  10.950 -0.1371 -0.7394 -0.4124
  760MOL0     C 2484   8.727   7.079  10.890 -0.4713  0.3048  0.3608
  760MOL0     C 2485   8.608   7.156  10.940  0.1092 -0.4232  0.4095
  760MOL0     C 2486   8.486   7.123  10.856 -0.4574 -0.8694  0.0804
  760MOL0     C 2487   8.357   7.177  10.924  0.4210  0.1904  0.0995
  760MOL0     C 2488   8.227   7.155  10.852  0.2020 -0.5472  1.2237
  760MOL0     O 2489   8.227   7.192  10.712  0.3875 -0.2045 -0.7572
  760MOL0     C 2490   8.112   7.222  10.642  0.3106 -0.2424  0.5446
  760MOL0     C 2491   7.987   7.230  10.690 -0.4778 -0.3731 -0.8717
  760MOL0     C 2492   7.877   7.254  10.618  0.5923  0.2682  0.3397
  760MOL0     C 2493   7.747   7.259  10.709 -0.3475  0.2941  0.2680
  760MOL0     C 2494   7.893   7.287  10.474 -0.1978  0.2396 -1.1932
  760MOL0     C 2495   7.779   7.323  10.390  0.7161  0.7642  0.5188
  760MOL0     O 2496   7.803   7.344  10.254 -0.3995  0.3043  0.7756
  760MOL0     C 2497   7.704   7.383  10.164 -0.3685 -0.2578  0.3204
  760MOL0     C 2498   7.620   7.279  10.120 -0.1869 -0.1564 -0.3203
  760MOL0     C 2499   7.522   7.313  10.035  0.9514  0.0201  0.6686
  760MOL0     C 2500   7.496   7.444   9.989 -0.5293 -0.0720  0.3712
  760MOL0     O 2501   7.389   7.477   9.917 -0.0497 -0.1700 -0.0989
  760MOL0     C 2502   7.270   7.395   9.922  0.2828  0.0715  1.1921
  760MOL0     C 2503   7.141   7.471   9.894 -0.0148 -0.3719 -0.3985
  760MOL0     C 2504   7.027   7.398   9.964  0.0043 -0.0121  0.5820
  760MOL0     C 2505   7.004   7.257   9.910  0.2790  0.7162  1.1106
  760MOL0     C 2506   6.877   7.191   9.974 -0.6449  0.2732 -0.3254
  760MOL0     C 2507   6.747   7.252   9.905  1.2130  0.9389 -0.0529
  760MOL0     C 2508   6.710   7.167   9.787  0.2265  0.2187  0.0815
  760MOL0     C 2509   6.566   7.212   9.738  1.3725  0.4773 -1.1470
  760MOL0    Cl 2510   6.501   7.077   9.646 -0.0910 -0.2957 -0.0118
  760MOL0     C 2511   7.589   7.543  10.025  0.1297  0.5909 -0.1917
  760MOL0     C 2512   7.699   7.511  10.110  0.2970 -0.2098 -0.4949
  760MOL0     O 2513   7.663   7.315  10.431  0.0554 -0.0620 -0.5129
  760MOL0     C 2514   8.019   7.264  10.420 -0.5016  0.0950  0.1768
  760MOL0     C 2515   8.128   7.228  10.500 -0.4344 -1.1093 -1.0578
  760MOL0     N 2516   8.803   7.101  10.773  0.1928 -0.4771 -0.1607
  760MOL0     N 2517   8.896   7.009  10.770 -0.4269 -0.2603 -0.3340
  760MOL0     C 2518   9.915   6.683  10.945 -0.9085  0.4112 -0.2049
  760MOL0     C 2519   9.950   6.551  10.969  0.8476 -0.6508 -0.6613
  760MOL0     C 2520   9.876   6.081  11.008 -0.1686  0.9725  0.5228
  760MOL0     C 2521   9.792   5.966  11.017 -0.3111 -0.9174 -0.4709
  760MOL0     C 2522   9.832   5.858  11.100  0.1815 -0.1235 -0.9212
  760MOL0     C 2523   9.959   5.847  11.152 -0.0075 -0.2012  0.2029
  760MOL0     O 2524  10.004   5.744  11.235  0.1301  0.3190  0.3510
  760MOL0     C 2525  10.094   5.664  11.149 -0.1758  0.3520  0.7752
  760MOL0     C 2526  10.231   5.656  11.223 -0.4007  0.4227  0.3763
  760MOL0     C 2527  10.322   5.536  11.211 -0.5523  0.1938  0.0732
  760MOL0     C 2528  10.363   5.497  11.068  0.4703  0.6938  0.4457
  760MOL0     C 2529  10.446   5.373  11.068 -0.2215  0.4933  0.4076
  760MOL0     C 2530  10.493   5.264  11.054  0.3380 -0.8198  0.9023
  760MOL0     C 2531  10.049   5.951  11.139 -0.4242  0.0200 -0.5714
  760MOL0     C 2532  10.005   6.063  11.060 -1.4540 -0.5782 -0.4400
  760MOL0     H 2533   9.666   6.402  10.881  0.7971 -0.1671 -2.0612
  760MOL0     H 2534   9.604   6.635  10.846 -0.8681 -2.1044  0.3649
  760MOL0     H 2535   9.679   6.835  11.106  3.9804  0.2968  2.2689
  760MOL0     H 2536   9.783   6.972  11.082 -1.3217  0.9547  1.3943
  760MOL0     H 2537   9.577   7.076  11.066 -0.2216  0.4955 -0.6113
  760MOL0     H 2538   9.627   7.042  10.896 -0.2743  0.2816  0.9380
  760MOL0     H 2539   9.465   6.827  10.945  2.1315 -0.5447  2.9365
  760MOL0     H 2540   9.414   6.921  11.076 -0.0030  2.4759  0.0271
  760MOL0     H 2541   9.350   7.116  10.942 -1.2590 -0.1627  0.4801
  760MOL0     H 2542   9.407   7.029  10.801  0.6788 -0.2962  0.7089
  760MOL0     H 2543   9.169   6.976  10.806 -0.4302  1.1702  1.1735
  760MOL0     H 2544   9.250   6.830  10.850  0.5486 -1.7781  0.1465
  760MOL0     H 2545   9.197   6.951  11.117 -0.1471 -1.2895  0.1402
  760MOL0     H 2546   9.084   7.029  11.014  1.3010  0.2796  0.2260
  760MOL0     H 2547   9.110   6.735  11.050 -2.2797 -0.5432  0.7778
  760MOL0     H 2548   8.992   6.824  11.115 -0.1200  1.8766 -0.6684
  760MOL0     H 2549   8.890   6.725  10.917 -1.4550  1.4941 -2.9348
  760MOL0     H 2550   9.020   6.792  10.807 -1.7678  0.0259 -1.2620
  760MOL0     H 2551   8.741   6.919  11.042  0.2458  0.3400  0.3098
  760MOL0     H 2552   8.571   7.127  11.039 -0.6565  0.5803  0.4343
  760MOL0     H 2553   8.629   7.263  10.947 -0.8889 -0.2818  1.6905
  760MOL0     H 2554   8.480   7.015  10.836 -0.1372 -1.0756  1.0654
  760MOL0     H 2555   8.501   7.165  10.756 -0.1138  0.7285  0.7721
  760MOL0     H 2556   8.358   7.286  10.937 -3.6902  0.3567  0.1775
  760MOL0     H 2557   8.345   7.135  11.025  0.0552 -1.1821 -0.4974
  760MOL0     H 2558   8.145   7.199  10.910  0.4989  2.4396 -0.4524
  760MOL0     H 2559   8.222   7.047  10.865  2.0189 -0.4838  3.0117
  760MOL0     H 2560   7.976   7.210  10.796  0.5319 -1.5681 -0.9632
  760MOL0     H 2561   7.675   7.334  10.677 -1.2709 -0.8618 -0.4587
  760MOL0     H 2562   7.688   7.167  10.701 -0.5394  0.3829  0.6248
  760MOL0     H 2563   7.766   7.278  10.815 -1.3388 -0.6030  0.6241
  760MOL0     H 2564   7.632   7.178  10.159  0.5746  0.0996  0.1388
  760MOL0     H 2565   7.455   7.229  10.023 -0.5051  1.2114 -0.0137
  760MOL0     H 2566   7.276   7.319   9.843 -2.2780 -1.6666  2.5158
  760MOL0     H 2567   7.265   7.342  10.018  0.2366  0.7506  1.5672
  760MOL0     H 2568   7.144   7.568   9.944 -0.3584 -2.1028  3.3560
  760MOL0     H 2569   7.121   7.485   9.788 -2.3020  0.4184  0.0893
  760MOL0     H 2570   6.937   7.458   9.948 -0.5648 -1.1015 -0.5154
  760MOL0     H 2571   7.047   7.387  10.071  3.1480 -0.0594  0.0781
  760MOL0     H 2572   6.992   7.258   9.802 -0.3607 -4.1369  0.9203
  760MOL0     H 2573   7.097   7.207   9.939  1.5799  1.1399 -2.0192
  760MOL0     H 2574   6.868   7.220  10.080  0.3495  1.8572 -0.6361
  760MOL0     H 2575   6.872   7.082   9.965  0.2345  0.2596 -0.6817
  760MOL0     H 2576   6.666   7.245   9.979  0.4419 -0.7965 -1.0130
  760MOL0     H 2577   6.756   7.356   9.874  0.4147  1.3941  1.1486
  760MOL0     H 2578   6.721   7.061   9.812  0.6217  0.0788 -0.6628
  760MOL0     H 2579   6.777   7.180   9.701  2.2404 -5.0544  0.5273
  760MOL0     H 2580   6.564   7.307   9.684  1.2211  0.4657 -1.1616
  760MOL0     H 2581   6.499   7.228   9.823 -1.0426 -0.7433 -2.6887
  760MOL0     H 2582   7.571   7.643   9.987  2.4320  0.8956 -0.6301
  760MOL0     H 2583   7.780   7.580  10.135  0.0318  0.2665 -0.9436
  760MOL0     H 2584   8.016   7.272  10.312 -2.2549  1.5227  0.2742
  760MOL0     H 2585   8.229   7.196  10.475  0.9529 -0.2718  2.7526
  760MOL0     H 2586   9.988   6.760  10.967 -0.7190  0.2309 -0.1986
  760MOL0     H 2587  10.051   6.527  11.000  1.8523  2.5588 -1.0945
  760MOL0     H 2588   9.696   5.963  10.966 -0.3203 -0.7027 -0.4658
  760MOL0     H 2589   9.768   5.771  11.114 -0.5341  0.2257 -1.9086
  760MOL0     H 2590  10.049   5.568  11.122  0.9108  0.4882 -1.7789
  760MOL0     H 2591  10.115   5.715  11.055 -1.2211  2.1372  1.4751
  760MOL0     H 2592  10.209   5.664  11.330 -0.1814  2.4654  0.3076
  760MOL0     H 2593  10.301   5.734  11.191  1.1298 -1.7870 -2.1153
  760MOL0     H 2594  10.272   5.452  11.260  1.4529 -1.4452 -0.5943
  760MOL0     H 2595  10.412   5.552  11.269  1.4880 -3.1553 -1.8237
  760MOL0     H 2596  10.419   5.582  11.026 -0.3338 -0.4153 -3.2833
  760MOL0     H 2597  10.278   5.477  11.002  1.0276  1.5600 -0.5741
  760MOL0     H 2598  10.542   5.169  11.063  1.2486 -0.2790  1.9289
  760MOL0     H 2599  10.141   5.934  11.194 -0.7103 -2.2896 -0.7123
  760MOL0     H 2600  10.075   6.144  11.043 -0.6087 -1.3869 -0.9720
  761MOL0     O 2601   3.429   4.541   4.249 -0.4188  0.1272  0.4651
  761MOL0     C 2602   3.335   4.534   4.179  0.1498 -0.1579  0.0557
  761MOL0     O 2603   3.241   4.630   4.175  0.0528 -0.0037  0.6787
  761MOL0     C 2604   3.245   4.727   4.273 -0.4962 -0.0559  0.4907
  761MOL0     C 2605   3.172   4.711   4.390 -0.1692 -0.2022 -0.0051
  761MOL0     C 2606   3.172   4.824   4.479  0.5974  0.3657 -0.2385
  761MOL0     C 2607   3.234   4.945   4.450  0.2535 -0.0540 -0.0650
  761MOL0     O 2608   3.231   5.046   4.545  0.3069 -0.6664  0.0811
  761MOL0     C 2609   3.268   5.178   4.511  1.3415 -0.0848 -0.1100
  761MOL0     C 2610   3.154   5.254   4.432  0.0998  0.1538 -0.0157
  761MOL0     C 2611   3.019   5.237   4.506 -0.5085  0.4462  0.0109
  761MOL0     C 2612   2.906   5.327   4.460 -0.2429 -1.2114 -0.5676
  761MOL0     C 2613   2.769   5.313   4.532  0.4813 -0.7298 -0.2739
  761MOL0     C 2614   2.700   5.176   4.531  0.5692 -0.4639  0.3261
  761MOL0     C 2615   2.692   5.126   4.387  0.1310 -0.1831 -0.1874
  761MOL0     C 2616   2.616   5.238   4.315  0.9337  0.5910 -0.1589
  761MOL0     N 2617   2.564   5.180   4.195  0.2747  0.1374  0.5901
  761MOL0     C 2618   2.625   5.189   4.071 -0.4461 -0.0564 -0.2622
  761MOL0     C 2619   2.533   5.154   3.981 -0.0540  0.2509  0.5840
  761MOL0     C 2620   2.560   5.151   3.826  0.7818  1.2278  0.5598
  761MOL0     C 2621   2.446   5.213   3.741  0.4742  0.7882  0.1672
  761MOL0     C 2622   2.332   5.110   3.705  0.2639 -0.2836 -0.6047
  761MOL0     C 2623   2.222   5.190   3.630  0.2670 -0.6561 -0.0499
  761MOL0     O 2624   2.104   5.112   3.631 -0.1926  0.7879  0.7315
  761MOL0     C 2625   2.004   5.126   3.721  0.2532  0.1796 -0.8245
  761MOL0     C 2626   2.016   5.185   3.848  0.5904 -0.2275  0.0925
  761MOL0     C 2627   1.907   5.194   3.939  0.8081 -0.9708 -0.9378
  761MOL0     C 2628   1.928   5.259   4.074 -0.4055 -0.9829  0.2263
  761MOL0     C 2629   1.785   5.132   3.903  0.5049 -0.5089  0.0007
  761MOL0     C 2630   1.660   5.140   3.982 -0.8587  0.7399 -0.5628
  761MOL0     O 2631   1.545   5.173   3.915 -0.5831  0.2452  0.2520
  761MOL0     C 2632   1.424   5.180   3.984  0.4309  0.3863  0.1161
  761MOL0     C 2633   1.338   5.061   4.004 -0.4455  0.1798 -0.6318
  761MOL0     C 2634   1.226   5.082   4.082 -0.2540  0.3820  0.3001
  761MOL0     C 2635   1.184   5.199   4.142 -0.4113 -0.6081 -0.0711
  761MOL0     O 2636   1.077   5.206   4.222  0.0202  0.3838 -0.7431
  761MOL0     C 2637   0.979   5.311   4.197  0.1142  0.5218 -0.2314
  761MOL0     C 2638   0.839   5.279   4.263 -0.5662  0.8008 -0.0077
  761MOL0     C 2639   0.736   5.378   4.203  0.5419  0.7628 -0.3471
  761MOL0     C 2640   0.593   5.346   4.245 -0.3353  0.5215  0.5163
  761MOL0     C 2641   0.489   5.463   4.238 -0.2103  0.8515  0.1753
  761MOL0     C 2642   0.359   5.410   4.206 -0.5899 -0.7155  0.8825
  761MOL0     C 2643   0.250   5.514   4.228 -0.7946  0.0618  0.2228
  761MOL0     C 2644   0.118   5.450   4.192 -0.2070  0.3749  0.3610
  761MOL0    Cl 2645  -0.023   5.544   4.248  0.4779  0.1247 -0.0603
  761MOL0     C 2646   1.268   5.312   4.117 -0.7887  0.0714  0.3435
  761MOL0     C 2647   1.382   5.301   4.043  0.7074 -0.5782  1.0474
  761MOL0     O 2648   1.676   5.129   4.107 -0.4568  0.6255 -0.4818
  761MOL0     C 2649   1.774   5.086   3.770  0.8656  0.0895 -0.3400
  761MOL0     C 2650   1.874   5.077   3.677 -0.9111 -0.3715 -0.9489
  761MOL0     N 2651   2.412   5.121   4.045  0.5076 -0.2920  0.6734
  761MOL0     N 2652   2.432   5.147   4.169  0.4594 -0.4072  0.1439
  761MOL0     C 2653   3.302   4.954   4.327  1.4372 -0.1467 -0.3595
  761MOL0     C 2654   3.310   4.844   4.242  0.0807  0.1005  0.0155
  761MOL0     C 2655   3.339   4.435   4.079 -0.3512  0.2388 -0.4357
  761MOL0     C 2656   3.408   4.313   4.096 -0.3158 -0.8337 -0.2538
  761MOL0     C 2657   3.420   4.213   4.007  0.0865 -0.1245  0.0647
  761MOL0     C 2658   3.344   4.222   3.883  0.0591  0.2921 -0.1434
  761MOL0     O 2659   3.332   4.130   3.787 -0.0249 -0.1799  0.3658
  761MOL0     C 2660   3.418   4.020   3.783  0.5711  0.2035 -0.0096
  761MOL0     C 2661   3.568   4.049   3.754 -1.0769 -0.4818  0.6289
  761MOL0     C 2662   3.597   4.194   3.702 -0.0825 -0.2462 -0.2589
  761MOL0     C 2663   3.741   4.229   3.690 -0.3097  0.3810  0.1387
  761MOL0     C 2664   3.805   4.166   3.573 -0.3491  1.0939  0.2144
  761MOL0     C 2665   3.824   4.094   3.474  0.1801 -0.5981  0.3466
  761MOL0     C 2666   3.271   4.341   3.861 -0.2750 -0.5092 -0.2336
  761MOL0     C 2667   3.274   4.445   3.955  1.5119  0.3777  0.2949
  761MOL0     H 2668   3.121   4.618   4.411  0.7345 -0.7994 -0.3817
  761MOL0     H 2669   3.114   4.814   4.570 -0.8535 -2.0082 -1.3120
  761MOL0     H 2670   3.283   5.212   4.613  1.4387  0.1735 -0.2114
  761MOL0     H 2671   3.366   5.184   4.462  1.6358 -0.0237  0.4803
  761MOL0     H 2672   3.176   5.361   4.426 -0.0555  0.1594 -0.5726
  761MOL0     H 2673   3.153   5.220   4.328 -1.8689  1.0503 -0.3329
  761MOL0     H 2674   2.981   5.135   4.494 -0.4888  0.3329  0.8377
  761MOL0     H 2675   3.034   5.251   4.614  0.1689 -0.0374 -0.0132
  761MOL0     H 2676   2.934   5.433   4.468 -1.9938 -0.6709 -1.2502
  761MOL0     H 2677   2.885   5.307   4.355  0.4449 -0.3218 -0.8892
  761MOL0     H 2678   2.766   5.335   4.640 -1.6611 -0.5411 -0.3178
  761MOL0     H 2679   2.702   5.388   4.488 -0.9080 -1.3041  0.7851
  761MOL0     H 2680   2.759   5.110   4.596 -1.1663  0.5333  3.1080
  761MOL0     H 2681   2.602   5.189   4.578  2.1253  1.8462  3.3024
  761MOL0     H 2682   2.796   5.124   4.352  0.3730 -0.6417  0.5358
  761MOL0     H 2683   2.640   5.031   4.374 -2.0941  0.9852 -0.3746
  761MOL0     H 2684   2.685   5.322   4.299  1.0859  0.6945  0.9303
  761MOL0     H 2685   2.530   5.261   4.378  0.9302 -1.6639  0.7581
  761MOL0     H 2686   2.724   5.229   4.055 -0.3859 -0.5654 -1.2638
  761MOL0     H 2687   2.642   5.215   3.793 -0.4057  2.1335 -0.7398
  761MOL0     H 2688   2.583   5.046   3.805  0.1438  1.3499 -0.8446
  761MOL0     H 2689   2.482   5.260   3.650 -4.0722 -0.1387 -2.4049
  761MOL0     H 2690   2.395   5.292   3.798  1.1359 -0.1192  2.1096
  761MOL0     H 2691   2.298   5.078   3.804  0.4535 -0.6667 -0.6624
  761MOL0     H 2692   2.373   5.031   3.642  1.4371  0.6901 -1.0959
  761MOL0     H 2693   2.253   5.209   3.527  1.0767 -0.4840  0.2169
  761MOL0     H 2694   2.203   5.288   3.675  2.5596 -0.9588  1.7616
  761MOL0     H 2695   2.111   5.220   3.886  1.0106 -2.0455  0.8454
  761MOL0     H 2696   1.990   5.349   4.067 -0.9702 -0.6254 -0.3246
  761MOL0     H 2697   1.829   5.292   4.108 -1.6404  0.9722 -4.4698
  761MOL0     H 2698   1.970   5.188   4.146 -0.2694  0.2003  1.3393
  761MOL0     H 2699   1.359   4.961   3.968  3.1010  0.9287 -1.0616
  761MOL0     H 2700   1.173   4.990   4.104  2.5464 -1.9159 -1.9501
  761MOL0     H 2701   1.017   5.401   4.245  1.1652  1.1117 -2.0664
  761MOL0     H 2702   0.949   5.331   4.094 -5.0355 -0.2643  0.8174
  761MOL0     H 2703   0.823   5.173   4.244  6.1037 -0.8453  1.0501
  761MOL0     H 2704   0.840   5.287   4.372  0.9196  0.7992  0.0037
  761MOL0     H 2705   0.741   5.372   4.094 -0.2730 -2.1830 -0.3156
  761MOL0     H 2706   0.762   5.482   4.226 -0.4275  0.8383  0.5240
  761MOL0     H 2707   0.560   5.261   4.184  2.7762 -0.4176 -0.0304
  761MOL0     H 2708   0.604   5.313   4.349 -0.3593 -1.5468 -0.0969
  761MOL0     H 2709   0.512   5.529   4.154  1.2485  0.4722  0.2410
  761MOL0     H 2710   0.493   5.520   4.332 -0.3189 -1.9705  2.0195
  761MOL0     H 2711   0.365   5.384   4.100  0.6831  2.3668  0.1101
  761MOL0     H 2712   0.338   5.319   4.263  0.5764 -1.0174  0.8682
  761MOL0     H 2713   0.268   5.611   4.181  1.3490 -0.2843  0.2524
  761MOL0     H 2714   0.249   5.539   4.335  0.9581 -0.7851  0.4727
  761MOL0     H 2715   0.102   5.350   4.231 -1.0852  0.5315  0.4157
  761MOL0     H 2716   0.122   5.440   4.083  2.0865 -1.5593  0.5527
  761MOL0     H 2717   1.249   5.410   4.161  3.0577  1.5391 -0.9157
  761MOL0     H 2718   1.442   5.387   4.016  2.2850 -1.7191  0.7736
  761MOL0     H 2719   1.676   5.044   3.746  1.3855 -0.6036 -1.3242
  761MOL0     H 2720   1.860   5.025   3.583  1.0634 -0.1191 -1.4237
  761MOL0     H 2721   3.346   5.050   4.300 -0.6870  1.1425  0.4742
  761MOL0     H 2722   3.375   4.844   4.155 -1.1448 -3.5487 -1.0505
  761MOL0     H 2723   3.463   4.306   4.189 -0.6476  0.8939  0.1168
  761MOL0     H 2724   3.471   4.121   4.033  0.3874 -1.2671 -3.8369
  761MOL0     H 2725   3.408   3.956   3.872  2.3159  0.8859  0.7208
  761MOL0     H 2726   3.380   3.951   3.707 -4.2582  2.0359  0.3727
  761MOL0     H 2727   3.598   3.979   3.676 -1.1171  0.1162  0.0705
  761MOL0     H 2728   3.623   4.023   3.846  0.8311  0.4678 -0.1860
  761MOL0     H 2729   3.551   4.265   3.772  2.0299  0.6652  0.2985
  761MOL0     H 2730   3.554   4.198   3.602  0.4884 -1.9718 -0.6066
  761MOL0     H 2731   3.781   4.185   3.782 -1.3083 -0.4259  0.2116
  761MOL0     H 2732   3.754   4.337   3.694 -2.3432  0.6365  2.0843
  761MOL0     H 2733   3.825   4.039   3.382  0.7471  2.3387 -1.5307
  761MOL0     H 2734   3.212   4.353   3.771 -0.8855 -0.2241  0.1941
  761MOL0     H 2735   3.204   4.528   3.945 -0.7610 -1.6025 -1.6192
  762MOL0     O 2736   6.592   2.259   7.245  0.3348  0.1037  0.6521
  762MOL0     C 2737   6.692   2.287   7.179 -0.6376  1.3067  0.0248
  762MOL0     O 2738   6.702   2.363   7.064  0.3059  0.3369 -0.5400
  762MOL0     C 2739   6.587   2.426   7.030 -0.4837 -0.1072  0.3975
  762MOL0     C 2740   6.545   2.545   7.101  0.2327  0.1654  0.3501
  762MOL0     C 2741   6.427   2.608   7.060 -0.8913  0.9214 -0.6567
  762MOL0     C 2742   6.342   2.548   6.967 -0.5129 -0.3597 -0.2075
  762MOL0     O 2743   6.223   2.610   6.936 -0.1343 -0.0785  0.3581
  762MOL0     C 2744   6.227   2.686   6.817  0.5151  0.1232  0.6094
  762MOL0     C 2745   6.092   2.740   6.775 -0.9353  0.1091  0.6368
  762MOL0     C 2746   6.003   2.624   6.736  0.5188  0.2437  0.3106
  762MOL0     C 2747   5.856   2.671   6.724  0.3768  0.1940 -0.7421
  762MOL0     C 2748   5.828   2.761   6.610  0.7748 -0.9037 -1.1770
  762MOL0     C 2749   5.678   2.790   6.580  0.0946 -0.2845  0.2080
  762MOL0     C 2750   5.606   2.661   6.535  0.2590  0.3896 -0.5860
  762MOL0     C 2751   5.457   2.658   6.503 -0.5578 -0.9115 -0.2921
  762MOL0     N 2752   5.419   2.777   6.423  0.5748 -0.2453  0.1137
  762MOL0     C 2753   5.435   2.781   6.288  0.0783  0.3982  0.5246
  762MOL0     C 2754   5.376   2.900   6.254  0.0795  0.0567 -0.0442
  762MOL0     C 2755   5.371   2.963   6.112  0.6246  0.2995 -0.2668
  762MOL0     C 2756   5.469   2.918   6.008 -0.6307  0.2448  0.1815
  762MOL0     C 2757   5.612   2.975   6.042 -0.1568 -0.8151 -0.4848
  762MOL0     C 2758   5.723   2.931   5.945  0.5435 -0.1622  0.9091
  762MOL0     O 2759   5.859   2.962   5.992 -0.1662 -0.3149 -0.0727
  762MOL0     C 2760   5.916   2.865   6.073 -0.9654  0.1580  0.1456
  762MOL0     C 2761   5.863   2.750   6.128  0.8660  0.4313  0.2329
  762MOL0     C 2762   5.935   2.659   6.207 -0.2467  0.1851 -0.7881
  762MOL0     C 2763   5.856   2.540   6.258 -0.9855 -0.8335  1.2671
  762MOL0     C 2764   6.072   2.681   6.239 -0.4829 -0.4524 -0.1634
  762MOL0     C 2765   6.143   2.594   6.336 -0.1298 -0.0420  0.5903
  762MOL0     O 2766   6.151   2.466   6.300 -0.6865  0.0992 -0.2668
  762MOL0     C 2767   6.223   2.393   6.393 -0.0827 -0.3077 -0.3028
  762MOL0     C 2768   6.170   2.321   6.501 -0.1262  0.4799  0.1663
  762MOL0     C 2769   6.247   2.246   6.593 -0.2770 -0.0143 -0.6076
  762MOL0     C 2770   6.387   2.236   6.572  0.8129 -0.0851 -0.3470
  762MOL0     O 2771   6.472   2.173   6.660  0.0658  0.1195  0.5202
  762MOL0     C 2772   6.441   2.037   6.690 -0.3509  0.3949 -0.1575
  762MOL0     C 2773   6.520   1.972   6.812 -0.3841 -0.0622 -0.5013
  762MOL0     C 2774   6.672   1.947   6.780  0.0462 -0.2366 -0.4481
  762MOL0     C 2775   6.749   1.915   6.907  0.9856  0.4764  0.1162
  762MOL0     C 2776   6.905   1.916   6.896 -0.0587  0.7535 -0.7858
  762MOL0     C 2777   6.960   2.046   6.841  0.3914 -0.0747 -0.1261
  762MOL0     C 2778   7.110   2.045   6.848  0.3556 -0.1872 -0.7176
  762MOL0     C 2779   7.153   2.177   6.784 -0.4393 -0.3835  0.0172
  762MOL0    Cl 2780   7.316   2.151   6.713 -0.4726  0.1169  0.1826
  762MOL0     C 2781   6.440   2.301   6.453  0.6446 -0.0887 -0.1589
  762MOL0     C 2782   6.360   2.385   6.371 -0.2991  0.2973 -0.3438
  762MOL0     O 2783   6.202   2.646   6.430 -0.3586 -0.5394 -0.0762
  762MOL0     C 2784   6.131   2.799   6.189 -0.1872  0.2080  0.0301
  762MOL0     C 2785   6.051   2.886   6.106 -0.3598  0.6111  0.4414
  762MOL0     N 2786   5.304   2.945   6.368  0.1371  0.0014  0.1888
  762MOL0     N 2787   5.343   2.879   6.468  0.1400 -0.4019  0.1820
  762MOL0     C 2788   6.384   2.429   6.903  0.6731  1.0497 -0.6021
  762MOL0     C 2789   6.506   2.368   6.933 -0.9201  0.0482  0.8674
  762MOL0     C 2790   6.816   2.237   7.247 -0.3686  0.4192  0.4084
  762MOL0     C 2791   6.936   2.245   7.170 -0.4844  0.2745  0.1079
  762MOL0     C 2792   7.049   2.187   7.213  0.2821 -0.1216  0.7210
  762MOL0     C 2793   7.052   2.117   7.336 -0.3027  0.7544  0.5007
  762MOL0     O 2794   7.173   2.054   7.373 -0.6326  0.2768 -0.7064
  762MOL0     C 2795   7.186   2.001   7.510 -0.6091 -0.3221 -0.0788
  762MOL0     C 2796   7.329   1.949   7.540  0.1652 -0.3047  0.0611
  762MOL0     C 2797   7.442   2.049   7.511 -0.5499 -0.1228  0.0250
  762MOL0     C 2798   7.505   2.108   7.635 -0.6131  0.5134  0.2861
  762MOL0     C 2799   7.631   2.163   7.590 -0.6614 -0.2938 -0.2244
  762MOL0     C 2800   7.743   2.203   7.552 -0.6501  0.1350 -0.5965
  762MOL0     C 2801   6.936   2.098   7.410  0.1407  1.1319  0.2395
  762MOL0     C 2802   6.818   2.154   7.358  0.5186  0.2896 -0.5185
  762MOL0     H 2803   6.610   2.601   7.168  2.6860 -0.3742 -1.4223
  762MOL0     H 2804   6.398   2.705   7.098  1.9417  0.9489  1.8241
  762MOL0     H 2805   6.289   2.772   6.843  1.4921  0.1697 -1.6196
  762MOL0     H 2806   6.274   2.633   6.734  1.1704  1.5648  0.0280
  762MOL0     H 2807   6.051   2.792   6.862  1.5186  1.0289  1.3326
  762MOL0     H 2808   6.114   2.807   6.691  2.4004  0.1501  1.4046
  762MOL0     H 2809   6.042   2.590   6.639  0.7043  1.8540 -0.2182
  762MOL0     H 2810   6.010   2.546   6.813  0.7491 -2.2566 -2.0785
  762MOL0     H 2811   5.798   2.579   6.710  0.2151  0.2061 -0.1743
  762MOL0     H 2812   5.824   2.719   6.817  0.8257  0.0184 -0.4968
  762MOL0     H 2813   5.883   2.855   6.616  1.4440 -1.1744 -2.5213
  762MOL0     H 2814   5.876   2.722   6.520  3.1387 -0.7659 -0.0381
  762MOL0     H 2815   5.629   2.835   6.667 -1.5443  1.6433 -1.6029
  762MOL0     H 2816   5.683   2.862   6.497 -1.4977  0.8610  1.0478
  762MOL0     H 2817   5.659   2.636   6.443 -2.1477  2.6108 -2.7751
  762MOL0     H 2818   5.617   2.589   6.617 -1.0270  1.0168  0.1691
  762MOL0     H 2819   5.412   2.674   6.601  0.8730  0.4065  0.1739
  762MOL0     H 2820   5.428   2.569   6.445  3.3190 -2.3530 -0.3314
  762MOL0     H 2821   5.502   2.719   6.230 -0.9029 -0.0539 -0.1467
  762MOL0     H 2822   5.270   2.942   6.073  1.2472  2.0653 -3.1798
  762MOL0     H 2823   5.367   3.072   6.121 -1.8252  0.3544 -1.1758
  762MOL0     H 2824   5.433   2.957   5.913 -2.2914 -2.7892 -0.5866
  762MOL0     H 2825   5.475   2.809   6.018 -0.4380  0.3227  0.9911
  762MOL0     H 2826   5.626   2.924   6.138  2.9371  0.3912 -0.1567
  762MOL0     H 2827   5.608   3.083   6.056 -0.3689 -0.9057  0.1936
  762MOL0     H 2828   5.724   2.980   5.847  1.2062 -1.4106  0.2560
  762MOL0     H 2829   5.709   2.826   5.917 -0.9302  0.3584 -0.4939
  762MOL0     H 2830   5.758   2.723   6.120  0.6684  0.0947  2.9854
  762MOL0     H 2831   5.755   2.541   6.216 -0.5490 -1.3573  0.1658
  762MOL0     H 2832   5.905   2.445   6.236 -1.7319 -0.7076 -1.2105
  762MOL0     H 2833   5.849   2.551   6.366 -0.0930 -0.6349  1.3113
  762MOL0     H 2834   6.067   2.337   6.534  0.2324  2.6077  0.4024
  762MOL0     H 2835   6.202   2.196   6.678 -0.6650 -1.5339 -1.6567
  762MOL0     H 2836   6.335   2.019   6.709 -0.8698  1.9537 -1.3442
  762MOL0     H 2837   6.457   1.972   6.605 -1.3073 -1.0005  0.6898
  762MOL0     H 2838   6.519   2.043   6.896  0.6256  1.5949 -1.8104
  762MOL0     H 2839   6.458   1.886   6.835 -1.3251  1.4986  3.7294
  762MOL0     H 2840   6.724   2.028   6.728  2.7471 -0.2182  2.0037
  762MOL0     H 2841   6.660   1.860   6.715 -3.3684 -1.3237  1.3646
  762MOL0     H 2842   6.724   1.987   6.985  3.0328  0.5396  0.7770
  762MOL0     H 2843   6.715   1.816   6.941  2.3560 -0.1638 -0.2941
  762MOL0     H 2844   6.936   1.822   6.851 -0.8244 -0.9600  2.0227
  762MOL0     H 2845   6.938   1.890   6.997 -2.1972 -4.1315 -1.0585
  762MOL0     H 2846   6.933   2.044   6.735  4.0790 -4.4514 -1.3451
  762MOL0     H 2847   6.917   2.137   6.883 -1.7536 -0.3711 -1.5389
  762MOL0     H 2848   7.149   1.964   6.786 -0.7973  0.7811 -2.8008
  762MOL0     H 2849   7.140   2.029   6.952 -2.9636 -0.9928  0.2333
  762MOL0     H 2850   7.161   2.256   6.860  0.5017 -2.3095  2.0508
  762MOL0     H 2851   7.080   2.199   6.706  0.1516 -1.1460 -0.7792
  762MOL0     H 2852   6.547   2.297   6.439  0.5956 -1.0217 -0.3219
  762MOL0     H 2853   6.398   2.443   6.287 -1.3319  2.8501  0.8444
  762MOL0     H 2854   6.232   2.831   6.211 -0.6414  1.0949  0.8993
  762MOL0     H 2855   6.108   2.968   6.063  0.6807  0.5193  1.6006
  762MOL0     H 2856   6.315   2.379   6.836  2.2725 -1.0032 -0.8192
  762MOL0     H 2857   6.535   2.280   6.877 -2.7858 -0.4720  0.6392
  762MOL0     H 2858   6.940   2.282   7.068  0.9268  1.7714  0.6655
  762MOL0     H 2859   7.125   2.185   7.136  0.2565  1.9137  0.5924
  762MOL0     H 2860   7.165   2.088   7.573 -1.3563 -1.0169  0.6618
  762MOL0     H 2861   7.116   1.920   7.526 -1.3608 -0.0543 -1.7909
  762MOL0     H 2862   7.337   1.867   7.468  3.4118  0.2658 -0.3823
  762MOL0     H 2863   7.329   1.905   7.640  2.7649  3.8119  2.1438
  762MOL0     H 2864   7.403   2.120   7.437  0.0306  0.4236  0.2379
  762MOL0     H 2865   7.513   1.999   7.444 -0.9420  0.3617 -0.7692
  762MOL0     H 2866   7.524   2.036   7.715 -1.1946 -1.3463 -1.1771
  762MOL0     H 2867   7.440   2.190   7.665  1.3889  1.7491  1.5282
  762MOL0     H 2868   7.843   2.237   7.535 -0.7319  0.2836 -0.7775
  762MOL0     H 2869   6.931   2.036   7.499  0.2517  1.0519  0.1910
  762MOL0     H 2870   6.731   2.132   7.418  1.1246 -0.7765 -0.0154
  763MOL0     O 2871   1.893   6.065  10.905  0.1956 -0.7930  0.7367
  763MOL0     C 2872   1.859   5.973  10.977 -0.6905 -0.1530 -0.0861
  763MOL0     O 2873   1.726   5.964  11.037 -0.1054 -0.1620  0.5431
  763MOL0     C 2874   1.633   6.058  11.009 -0.1839  0.5364 -0.0123
  763MOL0     C 2875   1.531   6.090  11.109  0.3493 -0.0546  0.5066
  763MOL0     C 2876   1.421   6.170  11.076 -0.3120  0.5772  0.5958
  763MOL0     C 2877   1.407   6.225  10.949  0.1736  0.6876 -0.5948
  763MOL0     O 2878   1.282   6.270  10.929  0.4500 -0.3037  0.0392
  763MOL0     C 2879   1.261   6.383  10.844 -0.4712 -0.4713  0.6596
  763MOL0     C 2880   1.130   6.457  10.888 -0.2585  0.1856 -0.2518
  763MOL0     C 2881   1.142   6.540  11.009  0.7058  0.5540 -0.1831
  763MOL0     C 2882   1.023   6.631  11.010 -0.3144 -0.0294 -0.1963
  763MOL0     C 2883   1.006   6.703  11.142  0.1429 -0.2238 -0.5241
  763MOL0     C 2884   1.131   6.777  11.195 -0.5303  0.1664 -0.8628
  763MOL0     C 2885   1.183   6.891  11.100  0.0364 -0.3801  0.4977
  763MOL0     C 2886   1.335   6.923  11.136 -0.3607  0.3665 -0.5511
  763MOL0     N 2887   1.438   6.841  11.065 -0.0125  0.1570  0.1136
  763MOL0     C 2888   1.495   6.721  11.107 -0.3606 -0.2675  0.2731
  763MOL0     C 2889   1.559   6.670  11.001  0.5271 -0.3776  0.5142
  763MOL0     C 2890   1.626   6.546  10.982  0.2870  0.6152  0.2939
  763MOL0     C 2891   1.736   6.526  11.091 -0.0734  1.0007 -0.4893
  763MOL0     C 2892   1.779   6.380  11.084 -0.0130  0.6684  0.6863
  763MOL0     C 2893   1.862   6.332  11.210 -0.3477  0.2625  0.1566
  763MOL0     O 2894   1.994   6.387  11.195  0.5324 -0.3474 -0.2442
  763MOL0     C 2895   2.100   6.309  11.198 -0.9419 -0.3041 -0.0992
  763MOL0     C 2896   2.109   6.191  11.274  0.1370 -0.3558  0.4421
  763MOL0     C 2897   2.224   6.110  11.266  0.2521  0.0566  0.3487
  763MOL0     C 2898   2.224   5.984  11.353 -0.9966 -0.4865  0.0165
  763MOL0     C 2899   2.317   6.156  11.175 -0.7844 -0.0174  0.0644
  763MOL0     C 2900   2.440   6.078  11.160  0.0300 -0.2450 -0.1027
  763MOL0     O 2901   2.479   6.046  11.034  0.1895  0.2635  0.7015
  763MOL0     C 2902   2.601   5.983  11.015 -0.5676  0.9256 -0.3176
  763MOL0     C 2903   2.607   5.873  10.926  0.1838  0.0842  1.2258
  763MOL0     C 2904   2.724   5.791  10.909 -0.7724 -1.5443  0.6866
  763MOL0     C 2905   2.842   5.829  10.963  0.1812 -0.2100 -0.7595
  763MOL0     O 2906   2.968   5.779  10.938  0.3288  0.1596  0.2018
  763MOL0     C 2907   2.960   5.632  10.900  0.6049 -0.6960  1.2179
  763MOL0     C 2908   3.094   5.568  10.863  0.0863 -0.4637 -0.2651
  763MOL0     C 2909   3.122   5.595  10.712 -0.5525 -0.0347  0.4818
  763MOL0     C 2910   3.277   5.583  10.670  0.2553 -0.2868  0.3441
  763MOL0     C 2911   3.333   5.443  10.716 -0.0398 -0.3217  0.2641
  763MOL0     C 2912   3.482   5.443  10.718  0.5812 -0.0207 -0.0057
  763MOL0     C 2913   3.546   5.520  10.839  0.2323  0.6014  0.6000
  763MOL0     C 2914   3.699   5.496  10.861 -0.4845  0.4187  0.4444
  763MOL0    Cl 2915   3.795   5.521  10.709 -0.3875 -0.1604 -0.0650
  763MOL0     C 2916   2.850   5.948  11.044 -0.2486  0.0444  0.6213
  763MOL0     C 2917   2.730   6.019  11.069 -0.3375 -0.1105  0.2622
  763MOL0     O 2918   2.500   6.067  11.266 -0.0046  0.0688 -0.4963
  763MOL0     C 2919   2.319   6.277  11.112 -0.1421 -0.2052 -0.7090
  763MOL0     C 2920   2.210   6.358  11.134  0.2686 -0.6801  0.9673
  763MOL0     N 2921   1.548   6.767  10.897 -0.3017  0.3143  0.0020
  763MOL0     N 2922   1.476   6.867  10.936  0.6155  0.6175  0.1990
  763MOL0     C 2923   1.499   6.186  10.846 -0.0118 -1.1083  0.3042
  763MOL0     C 2924   1.617   6.108  10.880  0.3253  0.0212  0.1351
  763MOL0     C 2925   1.958   5.884  11.023 -0.3927  0.4314 -0.1975
  763MOL0     C 2926   2.096   5.922  11.012  0.6437 -0.0828 -0.4201
  763MOL0     C 2927   2.193   5.827  11.043  0.7052 -0.6628 -0.9460
  763MOL0     C 2928   2.164   5.703  11.092  0.3162  0.0847 -0.3975
  763MOL0     O 2929   2.258   5.626  11.153 -0.6645  0.7528  0.0356
  763MOL0     C 2930   2.365   5.573  11.063 -0.0596  0.2255 -0.7120
  763MOL0     C 2931   2.463   5.495  11.152  0.1311 -0.4409  0.1137
  763MOL0     C 2932   2.577   5.437  11.075 -0.4511  0.2238  0.0561
  763MOL0     C 2933   2.673   5.356  11.162  0.0832 -0.7524  0.0587
  763MOL0     C 2934   2.771   5.299  11.082  0.2913  0.0098 -0.4638
  763MOL0     C 2935   2.871   5.273  11.013 -0.3403 -0.9448 -0.4247
  763MOL0     C 2936   2.028   5.674  11.105 -0.3716 -0.1093 -0.8547
  763MOL0     C 2937   1.927   5.757  11.070  0.0206 -0.1084 -0.4208
  763MOL0     H 2938   1.540   6.049  11.210  0.8623 -0.2971  0.3661
  763MOL0     H 2939   1.337   6.180  11.143 -1.4508 -0.2648 -0.6467
  763MOL0     H 2940   1.340   6.458  10.841 -2.6421  1.9216 -1.2569
  763MOL0     H 2941   1.238   6.344  10.744 -1.0847 -0.0653  0.6333
  763MOL0     H 2942   1.103   6.522  10.804 -1.4269 -0.1834 -0.1862
  763MOL0     H 2943   1.044   6.392  10.909 -0.5904  1.3659  2.5500
  763MOL0     H 2944   1.160   6.484  11.101 -1.0021  1.4818  0.7611
  763MOL0     H 2945   1.230   6.603  10.993  2.3506 -0.8513  2.4564
  763MOL0     H 2946   1.043   6.703  10.929  0.7256 -0.5992 -0.4598
  763MOL0     H 2947   0.927   6.580  10.997 -1.3880  2.1718 -1.6884
  763MOL0     H 2948   0.930   6.781  11.130  1.8808  1.7613  0.6082
  763MOL0     H 2949   0.977   6.630  11.218 -0.2282  0.3632 -0.0919
  763MOL0     H 2950   1.113   6.818  11.295  0.2968  2.6883 -1.6752
  763MOL0     H 2951   1.209   6.702  11.206 -0.6033  0.3708  1.7321
  763MOL0     H 2952   1.177   6.867  10.993 -1.3996 -0.0640  0.4831
  763MOL0     H 2953   1.123   6.982  11.108 -0.7476 -0.6888 -1.2951
  763MOL0     H 2954   1.361   6.917  11.242 -0.5740  0.4147 -0.4954
  763MOL0     H 2955   1.364   7.025  11.108  1.7397 -1.0170 -4.1040
  763MOL0     H 2956   1.489   6.667  11.201  0.2884 -0.2810  0.3080
  763MOL0     H 2957   1.555   6.464  10.993  0.6723  0.4365  1.6428
  763MOL0     H 2958   1.659   6.546  10.878 -0.2444 -1.2882  0.0975
  763MOL0     H 2959   1.682   6.544  11.185  0.6011 -0.2230  0.1529
  763MOL0     H 2960   1.822   6.592  11.076  1.4602 -0.0791  2.5837
  763MOL0     H 2961   1.839   6.368  10.993 -4.1225 -0.1225 -2.2083
  763MOL0     H 2962   1.700   6.308  11.062 -0.7841  0.7268  3.0197
  763MOL0     H 2963   1.862   6.224  11.225 -0.7295  0.4270  1.4754
  763MOL0     H 2964   1.818   6.366  11.305 -1.4504 -0.8718  0.0745
  763MOL0     H 2965   2.025   6.167  11.339 -1.5537 -1.6780 -2.0637
  763MOL0     H 2966   2.292   5.979  11.438 -0.6266 -2.6924 -0.3499
  763MOL0     H 2967   2.126   5.966  11.397  0.6404  0.8209  4.7932
  763MOL0     H 2968   2.255   5.897  11.294  0.3986 -1.1065  1.5965
  763MOL0     H 2969   2.517   5.839  10.876  1.1469 -0.8486  0.0351
  763MOL0     H 2970   2.709   5.710  10.839  1.4440  0.3947 -2.2667
  763MOL0     H 2971   2.909   5.573  10.977  0.3115 -0.0698  1.5126
  763MOL0     H 2972   2.895   5.612  10.813  0.4459  0.7688  0.9812
  763MOL0     H 2973   3.180   5.613  10.915  1.6060 -0.1598 -2.8660
  763MOL0     H 2974   3.087   5.463  10.894 -1.5529  0.1605  1.7526
  763MOL0     H 2975   3.089   5.695  10.682 -0.5965  0.2329  1.4072
  763MOL0     H 2976   3.063   5.526  10.651  1.8061 -0.9052 -0.9766
  763MOL0     H 2977   3.303   5.595  10.565  1.8564 -1.7034  0.5192
  763MOL0     H 2978   3.330   5.665  10.719  0.4680  0.1255 -0.5563
  763MOL0     H 2979   3.288   5.369  10.649 -3.2009  2.6081 -1.1495
  763MOL0     H 2980   3.301   5.412  10.816 -1.1878 -1.0722 -0.3154
  763MOL0     H 2981   3.521   5.342  10.704  0.3109 -0.2934  1.0984
  763MOL0     H 2982   3.511   5.492  10.625  2.7913 -2.3298 -0.6401
  763MOL0     H 2983   3.494   5.498  10.933  2.7374 -3.2357  1.3058
  763MOL0     H 2984   3.523   5.623  10.814 -0.1320 -0.0855 -2.1857
  763MOL0     H 2985   3.703   5.393  10.898 -0.5268 -0.6427 -2.2210
  763MOL0     H 2986   3.728   5.565  10.941 -0.2577 -0.4916  1.1657
  763MOL0     H 2987   2.941   5.986  11.089 -0.6441  0.6586  0.9231
  763MOL0     H 2988   2.744   6.113  11.122  0.6202 -0.0455 -0.1003
  763MOL0     H 2989   2.405   6.302  11.050  0.6222 -1.6133 -0.2672
  763MOL0     H 2990   2.197   6.450  11.078  0.8541 -0.2354  1.5491
  763MOL0     H 2991   1.479   6.202  10.741 -0.9778 -0.8427  0.5215
  763MOL0     H 2992   1.686   6.071  10.806  0.4023  3.1457 -1.5185
  763MOL0     H 2993   2.121   6.026  10.995  1.2385  0.3527  2.4868
  763MOL0     H 2994   2.298   5.852  11.035  0.6733  1.3872  2.8697
  763MOL0     H 2995   2.321   5.500  10.995  0.5382 -0.4131 -0.4165
  763MOL0     H 2996   2.421   5.652  11.013 -1.3446  1.7791  0.1770
  763MOL0     H 2997   2.404   5.411  11.191 -1.5411  0.5059 -0.2742
  763MOL0     H 2998   2.508   5.549  11.235  0.3884 -0.2900 -0.1242
  763MOL0     H 2999   2.634   5.518  11.030 -0.2866  1.1304  1.8188
  763MOL0     H 3000   2.537   5.361  11.007  1.8205 -1.2238  0.2209
  763MOL0     H 3001   2.619   5.283  11.223  0.3677  0.4177  1.7931
  763MOL0     H 3002   2.718   5.419  11.240  0.5285 -1.3375  0.2886
  763MOL0     H 3003   2.965   5.241  10.972  0.2222 -0.1828  0.2415
  763MOL0     H 3004   2.009   5.572  11.134 -4.5234  0.1957 -1.8562
  763MOL0     H 3005   1.829   5.717  11.095 -0.8187  2.0737  0.0415
  764MOL0     O 3006  11.186   9.122   2.401  0.3880  0.5043  0.1547
  764MOL0     C 3007  11.239   9.233   2.409  0.7427 -0.3481 -0.4993
  764MOL0     O 3008  11.183   9.350   2.453  0.0914  0.4506 -0.2052
  764MOL0     C 3009  11.060   9.348   2.508 -0.7006  0.7938 -1.0349
  764MOL0     C 3010  11.033   9.344   2.649 -0.2728 -0.5315  0.0931
  764MOL0     C 3011  10.908   9.356   2.698  1.0665  0.4957  0.3280
  764MOL0     C 3012  10.807   9.398   2.607  0.1135  0.5511  0.1374
  764MOL0     O 3013  10.682   9.423   2.671 -0.1259 -0.0890  0.6825
  764MOL0     C 3014  10.586   9.499   2.595 -0.2052 -0.3111  1.0550
  764MOL0     C 3015  10.450   9.510   2.672 -0.4146 -0.3759  0.2914
  764MOL0     C 3016  10.356   9.605   2.588 -0.0727  0.2235 -0.2338
  764MOL0     C 3017  10.211   9.598   2.649 -0.7446  0.3870 -0.3389
  764MOL0     C 3018  10.128   9.685   2.559  0.8499 -0.2887 -0.6983
  764MOL0     C 3019   9.987   9.690   2.623 -0.1727 -0.0023 -0.6325
  764MOL0     C 3020   9.900   9.775   2.541  0.2344 -0.1810  0.3171
  764MOL0     C 3021   9.768   9.774   2.617  0.3189 -0.4694  0.1516
  764MOL0     N 3022   9.650   9.831   2.554  0.0719  0.3719 -0.1231
  764MOL0     C 3023   9.537   9.844   2.628  0.5409 -0.7242  0.9345
  764MOL0     C 3024   9.433   9.824   2.540 -1.0537 -0.4300 -0.1480
  764MOL0     C 3025   9.289   9.841   2.575  1.2572 -0.4944  0.4672
  764MOL0     C 3026   9.229   9.955   2.490  0.4891  0.7269 -0.2156
  764MOL0     C 3027   9.073   9.944   2.490 -0.5718 -0.3184 -0.6417
  764MOL0     C 3028   9.008  10.065   2.426  1.1000 -0.4498 -0.1470
  764MOL0     O 3029   8.870  10.040   2.380  0.4359 -0.1901 -0.6885
  764MOL0     C 3030   8.820  10.124   2.281 -0.7328 -0.4121 -1.2383
  764MOL0     C 3031   8.865  10.255   2.248  0.8294  0.1846  0.3861
  764MOL0     C 3032   8.798  10.327   2.141 -0.2574 -0.3051 -0.8093
  764MOL0     C 3033   8.861  10.463   2.103  0.4347  1.3211 -0.8284
  764MOL0     C 3034   8.694  10.271   2.068 -0.4842  0.3137 -1.1407
  764MOL0     C 3035   8.615  10.339   1.962 -0.2327 -0.0772  0.1816
  764MOL0     O 3036   8.553  10.251   1.876  0.2473  0.4524 -0.7839
  764MOL0     C 3037   8.490  10.300   1.757  0.1985  0.4786 -0.1416
  764MOL0     C 3038   8.347  10.328   1.756 -0.6276 -0.5333 -0.0706
  764MOL0     C 3039   8.293  10.373   1.635 -0.3407 -0.5331  0.2339
  764MOL0     C 3040   8.368  10.400   1.524 -0.9190 -0.3312 -0.4352
  764MOL0     O 3041   8.314  10.449   1.408  0.4666 -0.3011  0.5159
  764MOL0     C 3042   8.205  10.541   1.422 -0.0149 -0.3717  0.5991
  764MOL0     C 3043   8.070  10.476   1.388 -0.1030  0.0641  0.5610
  764MOL0     C 3044   7.955  10.582   1.409  0.0719 -0.7807  0.1102
  764MOL0     C 3045   7.816  10.530   1.363  0.1328  0.2534 -0.2906
  764MOL0     C 3046   7.704  10.629   1.394 -0.9146 -0.1254 -0.1388
  764MOL0     C 3047   7.570  10.556   1.363 -0.2826  0.2869  0.2018
  764MOL0     C 3048   7.465  10.658   1.370  0.2420  0.5148  0.5128
  764MOL0     C 3049   7.322  10.597   1.343  0.0313  0.0180  1.1489
  764MOL0    Cl 3050   7.190  10.715   1.367 -0.2633  0.5742  0.0380
  764MOL0     C 3051   8.507  10.365   1.519  0.3743  0.2479  0.5255
  764MOL0     C 3052   8.561  10.321   1.639 -0.2423  0.2130 -0.1484
  764MOL0     O 3053   8.620  10.461   1.941 -0.3183  0.0256  0.2159
  764MOL0     C 3054   8.656  10.141   2.108  0.8124 -0.2310 -0.4292
  764MOL0     C 3055   8.720  10.070   2.213  1.3089 -0.6962  0.2184
  764MOL0     N 3056   9.487   9.809   2.414 -0.4099  0.1312  0.6617
  764MOL0     N 3057   9.614   9.807   2.428 -0.2153 -0.2542  0.3508
  764MOL0     C 3058  10.820   9.395   2.468  0.4689 -0.2062 -0.0788
  764MOL0     C 3059  10.949   9.367   2.421 -0.2166 -0.3205  0.0077
  764MOL0     C 3060  11.382   9.253   2.354 -0.2457 -0.1285 -1.0445
  764MOL0     C 3061  11.441   9.379   2.348  0.1734  0.7409  0.1908
  764MOL0     C 3062  11.572   9.391   2.296 -0.0352  0.5768  0.3337
  764MOL0     C 3063  11.645   9.277   2.257 -0.6767 -0.7965  0.0298
  764MOL0     O 3064  11.770   9.282   2.210  0.1342 -0.4529  0.8152
  764MOL0     C 3065  11.820   9.400   2.141 -0.1642  0.1502  0.0560
  764MOL0     C 3066  11.947   9.372   2.071  0.0381  0.2358 -0.0530
  764MOL0     C 3067  12.036   9.491   2.042  0.0099 -0.4760 -0.7190
  764MOL0     C 3068  12.137   9.456   1.930  1.0901  1.4303  0.2915
  764MOL0     C 3069  12.201   9.578   1.880 -0.1709  1.2017 -0.4445
  764MOL0     C 3070  12.256   9.683   1.844 -1.0566 -0.3830 -0.0456
  764MOL0     C 3071  11.592   9.150   2.274 -0.4157 -0.5608 -0.0591
  764MOL0     C 3072  11.458   9.143   2.311  0.3581  0.0910 -0.8209
  764MOL0     H 3073  11.117   9.335   2.718  0.3879 -2.4866 -0.8946
  764MOL0     H 3074  10.887   9.353   2.804  0.3647  0.5535  0.1932
  764MOL0     H 3075  10.618   9.602   2.579 -1.0191 -0.1539  0.3543
  764MOL0     H 3076  10.570   9.466   2.492 -0.3952  1.8635  0.3483
  764MOL0     H 3077  10.407   9.412   2.693 -0.2815 -0.7602 -1.1103
  764MOL0     H 3078  10.472   9.559   2.767  2.2305 -1.7703  0.5010
  764MOL0     H 3079  10.395   9.707   2.581  2.8340 -0.6745  1.2041
  764MOL0     H 3080  10.342   9.561   2.489  1.9777  0.7162 -0.7766
  764MOL0     H 3081  10.180   9.493   2.643  1.2375 -0.3405  1.2000
  764MOL0     H 3082  10.210   9.633   2.752 -0.4103 -3.3896  1.1070
  764MOL0     H 3083  10.169   9.785   2.539 -0.3858 -0.3645 -4.2943
  764MOL0     H 3084  10.114   9.642   2.460  1.8136  1.0566 -1.4464
  764MOL0     H 3085   9.939   9.592   2.622 -0.4394 -0.0373  2.5536
  764MOL0     H 3086   9.993   9.726   2.727 -0.4964  0.3160 -0.7241
  764MOL0     H 3087   9.942   9.872   2.514  0.3983 -0.4835 -0.5422
  764MOL0     H 3088   9.878   9.716   2.451  1.5273 -1.9841  1.1214
  764MOL0     H 3089   9.794   9.835   2.704 -2.9269 -0.1114  0.9883
  764MOL0     H 3090   9.747   9.670   2.642  1.0323 -0.1427  2.3360
  764MOL0     H 3091   9.511   9.867   2.730 -0.3964  3.9387 -0.1333
  764MOL0     H 3092   9.231   9.750   2.560 -1.9271  1.4747 -0.0298
  764MOL0     H 3093   9.289   9.863   2.682  1.8413  0.7329  0.2368
  764MOL0     H 3094   9.260   9.943   2.386  0.3631 -2.3184 -0.0175
  764MOL0     H 3095   9.250  10.055   2.529 -1.5765  1.1873 -0.2087
  764MOL0     H 3096   9.044   9.920   2.592  3.0353 -0.7196  0.4345
  764MOL0     H 3097   9.051   9.857   2.427 -0.3639 -0.0290 -1.1203
  764MOL0     H 3098   9.058  10.091   2.332 -1.1334 -0.8430 -1.5177
  764MOL0     H 3099   8.999  10.146   2.499 -3.1108 -1.0175  0.1749
  764MOL0     H 3100   8.948  10.295   2.305  0.8463  0.3197  0.2680
  764MOL0     H 3101   8.938  10.487   2.177  0.2252  1.6509 -0.7154
  764MOL0     H 3102   8.902  10.470   2.002  2.5510  0.2902 -0.1059
  764MOL0     H 3103   8.783  10.537   2.124 -0.9537 -0.9742  3.2167
  764MOL0     H 3104   8.288  10.318   1.847 -0.1885  1.3871  0.4712
  764MOL0     H 3105   8.186  10.393   1.640 -0.2696 -0.2205  0.5929
  764MOL0     H 3106   8.199  10.584   1.523 -0.9613  1.8443 -0.3536
  764MOL0     H 3107   8.217  10.617   1.345 -1.2075 -2.2933 -1.6109
  764MOL0     H 3108   8.065  10.434   1.287 -0.3346 -0.8998  0.9559
  764MOL0     H 3109   8.049  10.388   1.450 -2.4383 -1.1993 -1.8135
  764MOL0     H 3110   7.985  10.677   1.363  1.1990 -0.6405  1.1023
  764MOL0     H 3111   7.951  10.604   1.516 -1.3724 -0.0693 -0.0567
  764MOL0     H 3112   7.824  10.520   1.254 -1.5234  2.2124 -0.6676
  764MOL0     H 3113   7.801  10.433   1.410 -2.6045  0.7990  0.1300
  764MOL0     H 3114   7.721  10.722   1.339 -1.2236  1.7262  2.6936
  764MOL0     H 3115   7.697  10.643   1.503  0.6333 -3.3832  0.4934
  764MOL0     H 3116   7.575  10.520   1.260  0.2675 -0.7048  0.5599
  764MOL0     H 3117   7.544  10.473   1.429  0.4986 -1.4135 -1.5194
  764MOL0     H 3118   7.488  10.742   1.303  0.1511  0.2842  0.1862
  764MOL0     H 3119   7.455  10.696   1.472 -1.1864 -0.7557  0.8966
  764MOL0     H 3120   7.318  10.514   1.414  0.6336 -0.5216  0.5614
  764MOL0     H 3121   7.324  10.564   1.239  1.2754  2.2983  0.3737
  764MOL0     H 3122   8.572  10.356   1.432  0.3862 -5.2822  0.7508
  764MOL0     H 3123   8.665  10.291   1.637 -0.5998 -1.1763  0.4107
  764MOL0     H 3124   8.567  10.093   2.067  1.1386 -1.6032  0.4158
  764MOL0     H 3125   8.676   9.979   2.251  1.8727 -0.8170  0.5896
  764MOL0     H 3126  10.738   9.421   2.402 -0.0213  1.0784  0.9938
  764MOL0     H 3127  10.966   9.376   2.314  2.3602 -2.2378  0.1531
  764MOL0     H 3128  11.374   9.463   2.362  1.2273  1.5322  0.7249
  764MOL0     H 3129  11.623   9.486   2.281  1.5028 -0.3402 -0.5854
  764MOL0     H 3130  11.747   9.433   2.066  1.1561 -2.1962 -2.4203
  764MOL0     H 3131  11.838   9.478   2.216 -3.0864 -0.3594  1.4154
  764MOL0     H 3132  11.920   9.313   1.983  0.3667 -2.6034  1.6066
  764MOL0     H 3133  12.001   9.302   2.136  1.8930  0.4326 -1.2939
  764MOL0     H 3134  12.092   9.516   2.132 -2.4609 -0.1339  0.8178
  764MOL0     H 3135  11.977   9.578   2.009 -0.1056 -0.1949  0.2129
  764MOL0     H 3136  12.076   9.412   1.851  3.4254  0.6348 -1.1802
  764MOL0     H 3137  12.209   9.381   1.966  0.1332  0.6231  0.5653
  764MOL0     H 3138  12.302   9.774   1.811 -1.4830 -0.9868 -2.4708
  764MOL0     H 3139  11.652   9.067   2.238 -0.1246 -3.1842  5.4530
  764MOL0     H 3140  11.410   9.046   2.301 -3.9590  1.7268  1.3020
  765MOL0     O 3141   8.151   6.823  10.667  0.5763 -0.4292 -0.7056
  765MOL0     C 3142   8.136   6.850  10.550  0.5308 -1.4644  0.4560
  765MOL0     O 3143   8.232   6.837  10.448  0.6646 -0.0116  0.0068
  765MOL0     C 3144   8.364   6.819  10.475  0.4902 -0.5371  0.9617
  765MOL0     C 3145   8.431   6.892  10.571  0.5046 -0.0241  0.7426
  765MOL0     C 3146   8.567   6.857  10.590 -0.5885  0.1795  0.1517
  765MOL0     C 3147   8.639   6.776  10.502  0.2584  0.8245 -0.7473
  765MOL0     O 3148   8.767   6.755  10.520  0.3548  0.1452  0.3439
  765MOL0     C 3149   8.852   6.800  10.416  0.0595  0.5838  0.9436
  765MOL0     C 3150   8.996   6.817  10.449  0.3673  0.1676  0.0729
  765MOL0     C 3151   9.068   6.680  10.472  0.3559  0.2520  0.5321
  765MOL0     C 3152   9.210   6.699  10.520  0.0967 -1.0064 -0.0810
  765MOL0     C 3153   9.314   6.716  10.402 -0.1333  1.3426  0.3052
  765MOL0     C 3154   9.456   6.711  10.452  0.3296  0.4526  0.0572
  765MOL0     C 3155   9.508   6.826  10.536  0.0117 -0.1900  0.0519
  765MOL0     C 3156   9.507   6.956  10.455  0.0829  0.6845 -0.1198
  765MOL0     N 3157   9.578   7.062  10.521 -0.1697  0.3440  0.2896
  765MOL0     C 3158   9.526   7.177  10.570  0.1846 -0.4003  0.3977
  765MOL0     C 3159   9.640   7.244  10.611  0.8007  0.6919 -0.0778
  765MOL0     C 3160   9.653   7.388  10.654  0.3527 -0.9252 -0.0464
  765MOL0     C 3161   9.638   7.407  10.803  0.1449  0.2962 -0.3252
  765MOL0     C 3162   9.494   7.407  10.860  0.4008 -0.6110 -0.5656
  765MOL0     C 3163   9.419   7.517  10.793  0.6212 -0.0699  0.3670
  765MOL0     O 3164   9.326   7.444  10.709 -0.3446 -0.6637  0.0265
  765MOL0     C 3165   9.195   7.485  10.724 -0.6661  0.6888  1.2174
  765MOL0     C 3166   9.160   7.620  10.704  0.0196  0.6076 -0.5489
  765MOL0     C 3167   9.033   7.675  10.725  0.9235  0.1901 -0.9296
  765MOL0     C 3168   9.028   7.830  10.745  0.2326 -0.0122  0.3915
  765MOL0     C 3169   8.934   7.587  10.760  0.5146 -0.1387  0.0765
  765MOL0     C 3170   8.789   7.635  10.799  0.2615 -0.1962  0.3324
  765MOL0     O 3171   8.709   7.542  10.863  0.6728 -0.1479 -0.0205
  765MOL0     C 3172   8.578   7.568  10.876 -0.8371 -0.6219  0.1669
  765MOL0     C 3173   8.495   7.484  10.800  0.8740 -0.4580 -0.1107
  765MOL0     C 3174   8.356   7.507  10.809 -0.0503  0.4017 -0.3630
  765MOL0     C 3175   8.300   7.608  10.880  0.1525 -0.2433  0.0901
  765MOL0     O 3176   8.162   7.622  10.879  0.0252 -0.3490 -0.0834
  765MOL0     C 3177   8.090   7.674  10.995  0.5333 -0.3019 -0.1185
  765MOL0     C 3178   7.953   7.619  10.978 -1.2918 -0.3512  0.6202
  765MOL0     C 3179   7.879   7.621  11.107 -0.0836 -0.7577  1.1603
  765MOL0     C 3180   7.732   7.581  11.095  0.2248  0.2068 -0.4868
  765MOL0     C 3181   7.659   7.576  11.230  0.0797  0.2314  0.4339
  765MOL0     C 3182   7.508   7.560  11.213 -0.2021 -0.0791  0.0507
  765MOL0     C 3183   7.464   7.433  11.139  0.1509 -0.5847  0.3064
  765MOL0     C 3184   7.321   7.404  11.149  1.3114 -0.7787  0.0686
  765MOL0    Cl 3185   7.223   7.534  11.074  0.4881  0.2115 -0.1732
  765MOL0     C 3186   8.383   7.694  10.947 -0.8244 -0.0556  0.0065
  765MOL0     C 3187   8.516   7.673  10.946 -0.3262 -0.3514  0.3224
  765MOL0     O 3188   8.749   7.744  10.759 -0.2170 -0.4805 -0.0924
  765MOL0     C 3189   8.961   7.459  10.766 -0.2526  0.3989  0.0922
  765MOL0     C 3190   9.086   7.405  10.755 -0.5631 -0.5861 -0.2730
  765MOL0     N 3191   9.747   7.175  10.575 -0.3186  0.2333 -0.8509
  765MOL0     N 3192   9.711   7.061  10.524  0.4904  0.4804 -1.0695
  765MOL0     C 3193   8.565   6.711  10.403  0.0105 -0.2366  1.3537
  765MOL0     C 3194   8.426   6.730  10.391 -0.2529 -0.1997  0.0817
  765MOL0     C 3195   7.991   6.873  10.506 -0.6376  0.2072  0.6326
  765MOL0     C 3196   7.951   6.860  10.373  0.1449  0.4249  0.6021
  765MOL0     C 3197   7.817   6.877  10.328 -1.0455  0.0155  0.0070
  765MOL0     C 3198   7.723   6.918  10.417 -0.8608  0.3325 -0.3262
  765MOL0     O 3199   7.595   6.938  10.379  0.0761  0.1088 -0.1039
  765MOL0     C 3200   7.499   6.984  10.474  0.6227 -0.3881 -0.1490
  765MOL0     C 3201   7.356   7.002  10.421 -0.1122 -0.0324 -0.7025
  765MOL0     C 3202   7.351   7.053  10.276  1.0053 -0.1674 -0.3199
  765MOL0     C 3203   7.197   7.071  10.233  0.5181 -0.1312 -0.1411
  765MOL0     C 3204   7.148   7.188  10.309  0.0387  0.6505 -0.0899
  765MOL0     C 3205   7.108   7.296  10.349 -0.0882 -0.0224 -0.3828
  765MOL0     C 3206   7.763   6.924  10.553  0.1895 -1.1301 -0.3149
  765MOL0     C 3207   7.893   6.902  10.594  0.6471 -0.4451 -0.0128
  765MOL0     H 3208   8.370   6.957  10.633 -4.0845 -0.7280 -2.4932
  765MOL0     H 3209   8.627   6.910  10.665 -0.3651 -0.1906  0.2374
  765MOL0     H 3210   8.840   6.719  10.343 -1.9100 -1.4234  3.2696
  765MOL0     H 3211   8.811   6.895  10.383  0.3102  0.2997 -0.2401
  765MOL0     H 3212   9.036   6.880  10.369  1.9542  0.5265  1.0976
  765MOL0     H 3213   8.999   6.870  10.545  0.4014 -1.9171  1.3016
  765MOL0     H 3214   9.012   6.624  10.547 -0.4630  0.3133 -0.0107
  765MOL0     H 3215   9.062   6.620  10.380 -1.1367  1.2274 -0.0568
  765MOL0     H 3216   9.217   6.776  10.597 -0.8384 -0.5361 -0.4481
  765MOL0     H 3217   9.237   6.603  10.566 -1.2875 -1.9208 -1.0710
  765MOL0     H 3218   9.295   6.637  10.328  0.1823  1.0002  0.5878
  765MOL0     H 3219   9.301   6.806  10.342  0.8664  1.1237 -0.2713
  765MOL0     H 3220   9.476   6.619  10.507 -2.6842 -0.1772  0.2670
  765MOL0     H 3221   9.516   6.708  10.361 -1.5054 -0.0646 -1.1929
  765MOL0     H 3222   9.445   6.856  10.621 -0.2867  0.9886 -0.5715
  765MOL0     H 3223   9.599   6.793  10.587  0.6026 -2.1454 -2.1035
  765MOL0     H 3224   9.406   6.995  10.436  0.9636  2.4725 -1.5080
  765MOL0     H 3225   9.542   6.935  10.353  0.2284  2.3005 -0.4277
  765MOL0     H 3226   9.426   7.213  10.551 -0.4416 -2.5563 -0.8962
  765MOL0     H 3227   9.749   7.428  10.619  0.0343 -0.9773 -1.0139
  765MOL0     H 3228   9.590   7.460  10.601  0.3853  0.5285  1.8035
  765MOL0     H 3229   9.689   7.495  10.843  0.8761 -0.5839  0.7747
  765MOL0     H 3230   9.702   7.325  10.840  0.9706 -0.3851 -3.0414
  765MOL0     H 3231   9.499   7.434  10.966  1.3648 -3.0754  0.1074
  765MOL0     H 3232   9.444   7.310  10.847 -2.0542  0.7679 -2.1219
  765MOL0     H 3233   9.485   7.590  10.744  0.8413  0.8135  1.9156
  765MOL0     H 3234   9.376   7.575  10.875 -0.4111  1.9433 -1.4990
  765MOL0     H 3235   9.234   7.687  10.661 -1.4805  1.6871 -1.5303
  765MOL0     H 3236   9.116   7.866  10.799  0.9650  1.6447 -1.7511
  765MOL0     H 3237   9.017   7.874  10.645  0.0997 -0.6164  0.1330
  765MOL0     H 3238   8.943   7.866  10.803 -1.8364  0.3091 -2.5928
  765MOL0     H 3239   8.533   7.404  10.738 -1.7387 -0.7510 -1.4459
  765MOL0     H 3240   8.290   7.436  10.760 -0.3286 -0.7561  1.5988
  765MOL0     H 3241   8.129   7.628  11.087 -0.7144 -2.0001 -0.3826
  765MOL0     H 3242   8.099   7.783  11.001  2.1461 -0.4470  0.6498
  765MOL0     H 3243   7.907   7.680  10.900  1.6204 -0.4886 -1.3709
  765MOL0     H 3244   7.958   7.513  10.951 -0.4017 -0.3135  0.5913
  765MOL0     H 3245   7.886   7.723  11.146 -0.0486 -0.4068  0.2564
  765MOL0     H 3246   7.929   7.555  11.179 -0.3647 -1.7037  0.4944
  765MOL0     H 3247   7.685   7.653  11.027  2.2693  1.0421 -1.1077
  765MOL0     H 3248   7.724   7.484  11.046 -1.9999 -1.0635  2.1566
  765MOL0     H 3249   7.669   7.673  11.280  0.2422  0.5038 -0.1198
  765MOL0     H 3250   7.696   7.498  11.297 -1.2669  0.1412  1.1239
  765MOL0     H 3251   7.460   7.570  11.311  0.8406  0.2201  0.5432
  765MOL0     H 3252   7.480   7.645  11.150  0.4032 -0.4140 -0.6923
  765MOL0     H 3253   7.515   7.351  11.190 -0.1271  0.3125  2.1133
  765MOL0     H 3254   7.487   7.435  11.032 -0.1693 -2.1619  0.1866
  765MOL0     H 3255   7.290   7.394  11.253 -1.4096 -1.5813 -0.7068
  765MOL0     H 3256   7.300   7.308  11.100  3.3848 -2.1712  1.7371
  765MOL0     H 3257   8.338   7.766  11.015  0.2178  0.7829 -0.1725
  765MOL0     H 3258   8.572   7.749  11.000 -2.1726  1.1131  0.2696
  765MOL0     H 3259   8.890   7.384  10.801  2.7211 -3.1654 -0.9969
  765MOL0     H 3260   9.112   7.302  10.778 -0.8359 -0.5738  0.1164
  765MOL0     H 3261   8.614   6.639  10.339  0.6278  1.1843  0.1732
  765MOL0     H 3262   8.374   6.671  10.317  1.9118 -1.5641 -0.4667
  765MOL0     H 3263   8.028   6.827  10.303  0.1805 -2.7620  1.9794
  765MOL0     H 3264   7.784   6.876  10.224 -1.8972  2.0016  0.2101
  765MOL0     H 3265   7.483   6.918  10.559 -1.1726  1.9804  1.4630
  765MOL0     H 3266   7.534   7.081  10.509 -1.5744 -0.0155  1.1972
  765MOL0     H 3267   7.301   7.074  10.483  2.4686  2.3960 -1.0296
  765MOL0     H 3268   7.302   6.907  10.414  2.1809 -1.4251 -0.6892
  765MOL0     H 3269   7.401   6.981  10.210  2.6346 -0.4148  1.1187
  765MOL0     H 3270   7.412   7.143  10.263  2.1328 -0.5615  1.8886
  765MOL0     H 3271   7.154   6.972  10.253  1.9086 -0.8345 -0.4674
  765MOL0     H 3272   7.186   7.098  10.128  3.4555  0.8484 -0.2984
  765MOL0     H 3273   7.067   7.389  10.381 -0.3491  0.2082 -1.3499
  765MOL0     H 3274   7.692   6.942  10.633  0.3174  0.9622 -0.6015
  765MOL0     H 3275   7.924   6.908  10.698  1.1683  0.7074 -0.2196
  766MOL0     O 3276   7.977  11.211   9.451  0.2301 -0.4939 -0.5640
  766MOL0     C 3277   8.063  11.284   9.498  0.1111 -0.5857 -0.5613
  766MOL0     O 3278   8.047  11.352   9.623 -0.2326 -0.7841  0.6223
  766MOL0     C 3279   7.967  11.283   9.710 -0.1623 -0.9034 -0.2615
  766MOL0     C 3280   7.837  11.329   9.741 -0.6941  0.2415 -0.3202
  766MOL0     C 3281   7.755  11.249   9.823  0.6476 -0.7394 -0.1656
  766MOL0     C 3282   7.806  11.129   9.888  0.1986 -0.7579  0.5257
  766MOL0     O 3283   7.720  11.072   9.973 -0.2933  0.9145  0.4224
  766MOL0     C 3284   7.754  10.950  10.041 -0.5327 -0.4806 -0.6658
  766MOL0     C 3285   7.631  10.874  10.095  0.3095  0.5973 -0.7096
  766MOL0     C 3286   7.514  10.965  10.151 -0.2474  0.2817  0.0095
  766MOL0     C 3287   7.401  10.871  10.187 -0.1784 -0.4860  0.6971
  766MOL0     C 3288   7.279  10.950  10.245  0.7386  0.7268 -0.8209
  766MOL0     C 3289   7.172  10.856  10.289 -0.8441 -0.9301  0.0852
  766MOL0     C 3290   7.054  10.920  10.363 -1.2581  0.6913  0.7828
  766MOL0     C 3291   7.091  11.038  10.463 -0.4322 -0.3337 -0.0460
  766MOL0     N 3292   6.986  11.057  10.556 -0.0468  0.5826  0.3583
  766MOL0     C 3293   7.003  11.095  10.689 -0.6781  0.1765  0.0278
  766MOL0     C 3294   6.879  11.107  10.737 -0.3598  0.5684  0.4059
  766MOL0     C 3295   6.842  11.151  10.878  0.8153  0.3989 -0.3930
  766MOL0     C 3296   6.853  11.302  10.920 -0.6867  0.0280  0.9784
  766MOL0     C 3297   6.783  11.317  11.059 -0.2799  0.4332  0.5752
  766MOL0     C 3298   6.637  11.369  11.042 -0.0304 -0.1505 -0.3135
  766MOL0     O 3299   6.553  11.337  11.160 -0.0392 -0.2015  0.3995
  766MOL0     C 3300   6.426  11.395  11.176 -0.6405 -0.6526 -0.4947
  766MOL0     C 3301   6.361  11.480  11.082  0.0289  1.8017 -0.4788
  766MOL0     C 3302   6.226  11.518  11.096  0.4509  0.6850 -0.0026
  766MOL0     C 3303   6.168  11.596  10.988 -0.0508 -0.8502  1.0277
  766MOL0     C 3304   6.158  11.479  11.224 -0.7683 -0.4074  0.1831
  766MOL0     C 3305   6.022  11.516  11.260 -0.7824 -0.3367 -0.7838
  766MOL0     O 3306   5.939  11.437  11.348 -0.6477 -0.7105 -0.0248
  766MOL0     C 3307   5.822  11.486  11.397  0.0659 -0.6408  0.3932
  766MOL0     C 3308   5.718  11.545  11.327  0.5236 -0.0059  0.3622
  766MOL0     C 3309   5.607  11.600  11.399 -1.1148 -0.2218  0.1926
  766MOL0     C 3310   5.595  11.585  11.538  0.1151 -0.6556 -0.2810
  766MOL0     O 3311   5.470  11.617  11.597 -0.2941  0.9281  0.6438
  766MOL0     C 3312   5.431  11.551  11.720 -0.1057 -0.5049  0.7070
  766MOL0     C 3313   5.426  11.657  11.835 -0.1588 -0.6490 -0.4075
  766MOL0     C 3314   5.280  11.691  11.866 -0.0401 -0.9958 -0.4354
  766MOL0     C 3315   5.269  11.789  11.979 -0.6669 -0.1509  0.2296
  766MOL0     C 3316   5.130  11.838  12.007  0.0553  0.2833 -0.9118
  766MOL0     C 3317   5.137  11.963  12.100  0.3819 -0.3302 -0.0761
  766MOL0     C 3318   5.000  11.995  12.159 -0.0495 -0.3714 -0.0792
  766MOL0     C 3319   5.009  12.109  12.263  0.3434 -0.1151 -0.6005
  766MOL0    Cl 3320   4.871  12.105  12.378  0.2428 -0.2269  0.1460
  766MOL0     C 3321   5.698  11.520  11.600  0.5605  0.5283 -0.3292
  766MOL0     C 3322   5.813  11.480  11.537 -0.6454 -0.1022  0.2139
  766MOL0     O 3323   5.994  11.630  11.228 -0.5743 -0.3322 -0.1269
  766MOL0     C 3324   6.218  11.394  11.317  0.1985  0.6961  0.3655
  766MOL0     C 3325   6.344  11.348  11.289 -0.5654 -0.0240  0.6288
  766MOL0     N 3326   6.788  11.091  10.638  0.0737 -0.2676 -0.5057
  766MOL0     N 3327   6.855  11.067  10.526  0.7211  0.0886 -0.0271
  766MOL0     C 3328   7.941  11.092   9.869 -0.8274  0.6526 -0.2568
  766MOL0     C 3329   8.017  11.170   9.777 -0.7336  0.6566  0.1092
  766MOL0     C 3330   8.195  11.296   9.446 -0.1759 -0.2350  0.5568
  766MOL0     C 3331   8.230  11.217   9.335  0.3399 -0.1895  0.4206
  766MOL0     C 3332   8.347  11.229   9.264 -0.2183 -0.4492 -0.3184
  766MOL0     C 3333   8.451  11.312   9.296  0.0536 -0.1275 -0.7076
  766MOL0     O 3334   8.575  11.301   9.237  0.8308  0.2638 -0.0744
  766MOL0     C 3335   8.661  11.420   9.228 -0.3385  0.9412 -0.4700
  766MOL0     C 3336   8.771  11.425   9.340  0.0337 -0.7492  0.8213
  766MOL0     C 3337   8.892  11.334   9.314 -0.1078 -0.7263  0.0623
  766MOL0     C 3338   9.010  11.349   9.410 -0.2162 -0.1738  0.3441
  766MOL0     C 3339   9.100  11.454   9.369  0.0661  0.4145  0.1485
  766MOL0     C 3340   9.167  11.557   9.350 -0.0074 -0.2950 -0.3609
  766MOL0     C 3341   8.428  11.390   9.412  0.3344 -0.1560 -0.2288
  766MOL0     C 3342   8.305  11.382   9.481  0.2794  0.2166 -0.2243
  766MOL0     H 3343   7.807  11.424   9.698  3.1347  1.1876 -1.2569
  766MOL0     H 3344   7.648  11.256   9.842  0.5595 -1.3384 -0.4330
  766MOL0     H 3345   7.810  10.880   9.979  0.6995 -1.0084  0.9527
  766MOL0     H 3346   7.815  10.972  10.130  0.3916 -4.2419 -0.2217
  766MOL0     H 3347   7.593  10.813  10.013  1.2756 -0.6912 -0.2352
  766MOL0     H 3348   7.663  10.810  10.177  0.3323  0.5094 -0.7872
  766MOL0     H 3349   7.543  11.030  10.234 -0.9167 -0.8399  1.1695
  766MOL0     H 3350   7.479  11.022  10.064 -1.1145 -3.1356 -2.0828
  766MOL0     H 3351   7.369  10.815  10.099  1.1796  0.1466 -0.2379
  766MOL0     H 3352   7.450  10.808  10.262  0.0519  0.7381  1.6206
  766MOL0     H 3353   7.324  11.008  10.326  1.2063 -0.7003 -0.0269
  766MOL0     H 3354   7.237  11.025  10.177  1.8604  1.0522 -1.1620
  766MOL0     H 3355   7.143  10.811  10.193  1.3979 -1.3412 -0.4641
  766MOL0     H 3356   7.221  10.775  10.344 -0.1294  0.0512  0.9287
  766MOL0     H 3357   6.988  10.973  10.293  1.3383  1.2317 -1.3878
  766MOL0     H 3358   6.988  10.844  10.407 -1.0287  0.4480  0.7051
  766MOL0     H 3359   7.127  11.124  10.406  0.9291 -1.7040 -1.3667
  766MOL0     H 3360   7.174  11.002  10.524  0.5783  1.7772 -0.1123
  766MOL0     H 3361   7.101  11.118  10.730 -0.3511 -2.5353  1.0073
  766MOL0     H 3362   6.735  11.132  10.897  1.0165  1.5765  2.5759
  766MOL0     H 3363   6.889  11.091  10.956  0.8937 -1.2252 -1.6373
  766MOL0     H 3364   6.812  11.367  10.842  2.1478  1.0566  0.2096
  766MOL0     H 3365   6.958  11.332  10.927 -1.1265  2.4958 -1.4242
  766MOL0     H 3366   6.827  11.405  11.107  0.3359  0.8787 -0.7471
  766MOL0     H 3367   6.787  11.226  11.119  4.9041 -0.9871 -1.3478
  766MOL0     H 3368   6.591  11.326  10.954 -0.3952 -0.3400 -0.0305
  766MOL0     H 3369   6.623  11.478  11.044 -1.7896 -0.2678 -2.5855
  766MOL0     H 3370   6.411  11.502  10.989  0.4309 -2.3192 -1.4007
  766MOL0     H 3371   6.197  11.701  10.986 -0.8908 -0.6175 -0.7283
  766MOL0     H 3372   6.205  11.560  10.892 -1.2365  1.8007 -0.5235
  766MOL0     H 3373   6.058  11.596  10.986 -0.1101  0.6532  1.9596
  766MOL0     H 3374   5.724  11.545  11.219  2.2096 -0.1975  0.4321
  766MOL0     H 3375   5.531  11.653  11.343 -0.2442 -1.9124 -2.8347
  766MOL0     H 3376   5.338  11.497  11.698  0.2209 -0.4092 -1.1026
  766MOL0     H 3377   5.507  11.475  11.741  1.6296  1.3136  1.3793
  766MOL0     H 3378   5.474  11.615  11.924 -1.0768 -0.2610  0.2814
  766MOL0     H 3379   5.486  11.744  11.807 -1.2081  1.1282  2.5203
  766MOL0     H 3380   5.229  11.600  11.898  2.1695 -1.6985  1.2956
  766MOL0     H 3381   5.228  11.725  11.776 -1.8378 -2.1141  0.1176
  766MOL0     H 3382   5.318  11.736  12.061 -1.8084 -1.4626  0.0852
  766MOL0     H 3383   5.319  11.883  11.953 -4.5368  0.9373 -4.7105
  766MOL0     H 3384   5.069  11.760  12.055  2.2856 -0.3004  1.1868
  766MOL0     H 3385   5.076  11.871  11.919 -1.3384 -0.8379 -0.5197
  766MOL0     H 3386   5.216  11.954  12.175 -0.0051 -1.6300  0.1964
  766MOL0     H 3387   5.174  12.044  12.036 -3.6477  1.1560 -0.8260
  766MOL0     H 3388   4.953  11.908  12.205  1.7035 -1.0145  0.5613
  766MOL0     H 3389   4.933  12.027  12.078 -1.8855  1.0095  1.8674
  766MOL0     H 3390   5.021  12.208  12.217  1.4299 -0.4977 -1.1614
  766MOL0     H 3391   5.097  12.099  12.326  0.8522  2.3194 -0.8277
  766MOL0     H 3392   5.704  11.506  11.707  0.1622  4.5586  0.3943
  766MOL0     H 3393   5.896  11.444  11.596 -0.1506 -0.6513 -0.7959
  766MOL0     H 3394   6.162  11.367  11.406 -1.2912 -1.8810 -1.2032
  766MOL0     H 3395   6.386  11.283  11.365  1.3630  1.2887  0.7699
  766MOL0     H 3396   7.999  11.017   9.922 -0.9064  0.9264  0.2228
  766MOL0     H 3397   8.114  11.133   9.746 -0.7871 -0.2770  1.0011
  766MOL0     H 3398   8.156  11.149   9.295 -0.6107 -0.5723  2.6478
  766MOL0     H 3399   8.352  11.163   9.178 -0.0999  0.0828 -0.7320
  766MOL0     H 3400   8.708  11.415   9.130  0.3953 -1.7873 -0.0648
  766MOL0     H 3401   8.596  11.508   9.236  2.2918  2.7967  2.8357
  766MOL0     H 3402   8.722  11.392   9.432 -0.3749 -1.1777  0.4549
  766MOL0     H 3403   8.805  11.527   9.359 -3.0180  0.1920  1.8709
  766MOL0     H 3404   8.920  11.344   9.209 -0.0863 -1.8508 -0.0550
  766MOL0     H 3405   8.854  11.232   9.328 -3.3921  0.5123  1.0891
  766MOL0     H 3406   9.067  11.255   9.410  0.8975  0.3647  3.4999
  766MOL0     H 3407   8.981  11.373   9.513  0.2910 -1.3385  0.7807
  766MOL0     H 3408   9.216  11.652   9.350 -2.7447  1.1985 -0.2659
  766MOL0     H 3409   8.505  11.458   9.450  1.3835 -0.6364 -1.4409
  766MOL0     H 3410   8.288  11.455   9.559 -0.7462 -0.1128 -0.1241
  767MOL0     O 3411   7.375   2.362   1.696  0.4326  0.8188  0.3789
  767MOL0     C 3412   7.450   2.451   1.663 -1.3216  0.4886 -0.2919
  767MOL0     O 3413   7.436   2.535   1.547  0.5955  0.1010 -0.3222
  767MOL0     C 3414   7.305   2.552   1.512  0.1343  0.1685  0.3489
  767MOL0     C 3415   7.265   2.521   1.386 -0.2582 -0.3249 -0.7900
  767MOL0     C 3416   7.130   2.542   1.358  0.3079  0.4501 -0.5941
  767MOL0     C 3417   7.035   2.584   1.447  0.4504 -0.6105  0.3166
  767MOL0     O 3418   6.904   2.589   1.414  0.1301 -0.3246  0.0250
  767MOL0     C 3419   6.799   2.604   1.512  1.2720  0.5493 -0.2910
  767MOL0     C 3420   6.654   2.612   1.453  0.4942 -1.0250  0.3743
  767MOL0     C 3421   6.622   2.500   1.360  0.6254  0.3177 -0.3561
  767MOL0     C 3422   6.495   2.541   1.285  0.6701 -0.1816 -0.3962
  767MOL0     C 3423   6.437   2.441   1.175  0.1171  0.2263  0.0222
  767MOL0     C 3424   6.299   2.494   1.142 -0.3556 -0.0916 -0.7737
  767MOL0     C 3425   6.232   2.415   1.031  0.4105  0.6313 -0.1802
  767MOL0     C 3426   6.196   2.265   1.075  0.4879 -0.4435  0.3559
  767MOL0     N 3427   6.116   2.247   1.193  0.4089 -1.2794 -0.7330
  767MOL0     C 3428   5.977   2.234   1.200 -0.0503  0.6449  1.0199
  767MOL0     C 3429   5.952   2.180   1.321  0.2850  0.1917 -0.5295
  767MOL0     C 3430   5.816   2.133   1.382 -0.1776 -0.2804  0.1532
  767MOL0     C 3431   5.697   2.182   1.303  0.0411 -0.1760 -0.7405
  767MOL0     C 3432   5.579   2.117   1.365  1.0111  0.7607  0.1552
  767MOL0     C 3433   5.442   2.153   1.291  0.0621 -0.4098 -0.3056
  767MOL0     O 3434   5.335   2.115   1.376 -0.4277  0.2655 -0.7783
  767MOL0     C 3435   5.206   2.156   1.363 -0.3486  0.3734  0.5277
  767MOL0     C 3436   5.120   2.100   1.462 -0.1682 -0.4398 -0.1514
  767MOL0     C 3437   4.986   2.138   1.479 -0.1698  0.0801 -0.1119
  767MOL0     C 3438   4.911   2.070   1.592  0.1304  0.3485 -0.1565
  767MOL0     C 3439   4.927   2.216   1.378 -0.9728 -1.2416  0.2671
  767MOL0     C 3440   4.780   2.244   1.378 -0.3652 -0.0637 -0.0121
  767MOL0     O 3441   4.705   2.138   1.419  0.1435  0.1933 -0.1518
  767MOL0     C 3442   4.577   2.121   1.368  0.2755 -0.4369  0.3783
  767MOL0     C 3443   4.471   2.200   1.402  0.7984 -0.3115 -0.1803
  767MOL0     C 3444   4.338   2.174   1.367 -0.7275 -0.6507  0.3008
  767MOL0     C 3445   4.304   2.066   1.286  0.6318 -0.4693 -0.2109
  767MOL0     O 3446   4.173   2.051   1.253  0.6007 -0.2633  0.1391
  767MOL0     C 3447   4.075   2.088   1.344 -0.0164  0.3639  0.2861
  767MOL0     C 3448   3.952   2.020   1.306  0.1932  0.5368 -0.2326
  767MOL0     C 3449   3.845   2.035   1.419 -0.1667 -0.2180  0.1626
  767MOL0     C 3450   3.707   2.009   1.362  1.0193  0.4512 -0.5310
  767MOL0     C 3451   3.600   2.045   1.468  0.3739  0.1696 -0.4377
  767MOL0     C 3452   3.470   2.050   1.390  1.1496  0.3234  0.2701
  767MOL0     C 3453   3.424   1.912   1.329 -0.3023  0.8467 -0.7227
  767MOL0     C 3454   3.273   1.908   1.312 -0.4807  0.7959 -0.2829
  767MOL0    Cl 3455   3.237   1.744   1.271  0.1162  0.3374 -0.1464
  767MOL0     C 3456   4.411   1.989   1.240 -0.3944  0.7707 -0.8195
  767MOL0     C 3457   4.548   2.015   1.279  0.4773 -0.3861  0.2550
  767MOL0     O 3458   4.738   2.354   1.335  0.9124  0.0874  0.0909
  767MOL0     C 3459   5.011   2.275   1.281 -0.4406 -0.1776  0.0045
  767MOL0     C 3460   5.147   2.236   1.263 -0.4212 -0.4823 -0.6826
  767MOL0     N 3461   6.066   2.184   1.391 -0.2176 -0.5343  0.0375
  767MOL0     N 3462   6.162   2.220   1.319  0.2843 -0.3619 -0.0337
  767MOL0     C 3463   7.075   2.607   1.580 -0.1623  0.1216 -0.8782
  767MOL0     C 3464   7.218   2.604   1.608  0.0232  0.3647 -0.1571
  767MOL0     C 3465   7.586   2.446   1.729  0.5016 -0.4687 -0.3164
  767MOL0     C 3466   7.612   2.359   1.841  0.7968 -0.6088 -0.2924
  767MOL0     C 3467   7.745   2.351   1.894  0.6826 -0.7924 -0.2627
  767MOL0     C 3468   7.850   2.419   1.840 -0.8920  0.0977  0.5389
  767MOL0     O 3469   7.977   2.428   1.889  0.4362  0.2837  0.1348
  767MOL0     C 3470   8.005   2.375   2.022  0.3955 -0.0071  0.0383
  767MOL0     C 3471   8.144   2.417   2.073 -0.3368 -0.6529  0.2707
  767MOL0     C 3472   8.133   2.569   2.117  0.5715  0.5801 -0.9288
  767MOL0     C 3473   8.270   2.620   2.156 -0.7134 -1.1598  0.3621
  767MOL0     C 3474   8.335   2.557   2.272 -0.4969 -0.4553 -0.2917
  767MOL0     C 3475   8.365   2.511   2.378 -0.4300 -0.0179  0.3547
  767MOL0     C 3476   7.821   2.497   1.725 -0.3612  0.3792  0.5422
  767MOL0     C 3477   7.696   2.514   1.669  0.7382 -0.3585 -0.1250
  767MOL0     H 3478   7.330   2.481   1.309 -0.0677  1.9427 -1.8948
  767MOL0     H 3479   7.095   2.517   1.259  0.5731 -1.2945 -0.2790
  767MOL0     H 3480   6.805   2.514   1.573 -0.9090  0.1626 -0.5536
  767MOL0     H 3481   6.821   2.693   1.571  1.3628  1.3957 -1.5491
  767MOL0     H 3482   6.575   2.623   1.528 -0.6452 -1.1697 -0.7706
  767MOL0     H 3483   6.642   2.705   1.397 -2.5430 -0.5533  1.6165
  767MOL0     H 3484   6.709   2.477   1.296 -1.2028 -3.2887 -1.8390
  767MOL0     H 3485   6.593   2.414   1.421  1.0391  0.8098  0.5444
  767MOL0     H 3486   6.410   2.565   1.349  1.5455 -0.0964  0.7731
  767MOL0     H 3487   6.514   2.633   1.229 -0.6254  0.4684  0.1802
  767MOL0     H 3488   6.492   2.443   1.081  3.0358  1.7299  1.6256
  767MOL0     H 3489   6.431   2.339   1.214  0.8534  0.6404  1.2643
  767MOL0     H 3490   6.235   2.476   1.229 -0.6037 -3.6863 -1.5223
  767MOL0     H 3491   6.309   2.599   1.115  4.1342 -0.6690 -2.0961
  767MOL0     H 3492   6.138   2.466   1.007 -0.1647 -0.1983  0.2575
  767MOL0     H 3493   6.291   2.413   0.938  0.3028 -1.8423 -0.2700
  767MOL0     H 3494   6.285   2.206   1.101 -0.1634 -1.0547  1.2449
  767MOL0     H 3495   6.154   2.214   0.987 -0.9440  0.9382  0.2003
  767MOL0     H 3496   5.912   2.259   1.116  2.7219  1.6678 -0.9589
  767MOL0     H 3497   5.815   2.024   1.391  2.6745 -0.2999  1.5300
  767MOL0     H 3498   5.821   2.176   1.483  3.4780  0.4419 -0.1972
  767MOL0     H 3499   5.715   2.145   1.202 -0.6270  3.1417 -2.1971
  767MOL0     H 3500   5.690   2.291   1.316  0.6507 -0.2555  0.4012
  767MOL0     H 3501   5.571   2.149   1.469 -0.7568  1.5894 -0.1970
  767MOL0     H 3502   5.591   2.008   1.368  0.2394  0.7009  1.3346
  767MOL0     H 3503   5.427   2.109   1.192 -3.6193  3.3884 -1.7547
  767MOL0     H 3504   5.453   2.261   1.283  2.5278 -0.3760  2.1022
  767MOL0     H 3505   5.153   2.023   1.531  0.6051  0.2649  0.2945
  767MOL0     H 3506   4.847   1.991   1.550 -0.2238  1.4976 -1.8944
  767MOL0     H 3507   4.976   2.020   1.664 -0.8999 -2.3153 -0.9248
  767MOL0     H 3508   4.850   2.149   1.636  0.1013  1.6357 -2.3781
  767MOL0     H 3509   4.489   2.288   1.464  1.2116  0.2301 -1.0510
  767MOL0     H 3510   4.257   2.241   1.395 -2.2491 -2.6271  0.8574
  767MOL0     H 3511   4.106   2.047   1.440 -0.5744 -0.8336 -0.0218
  767MOL0     H 3512   4.063   2.195   1.361  2.3650  0.1963  4.2094
  767MOL0     H 3513   3.924   2.058   1.207 -1.5581 -0.6449 -0.2440
  767MOL0     H 3514   3.970   1.912   1.297  0.4792  0.3846  1.7629
  767MOL0     H 3515   3.840   2.138   1.454 -3.8653  0.2105 -1.0929
  767MOL0     H 3516   3.865   1.977   1.510  1.2443 -0.8850 -0.5500
  767MOL0     H 3517   3.696   2.074   1.275  2.2389  0.2684 -0.8398
  767MOL0     H 3518   3.704   1.903   1.338  1.3553 -0.6383  3.4552
  767MOL0     H 3519   3.620   2.144   1.510  1.3834  0.0035 -0.4979
  767MOL0     H 3520   3.598   1.977   1.554 -2.6900 -2.4657 -2.4012
  767MOL0     H 3521   3.387   2.096   1.445 -1.3207 -2.7073 -0.5790
  767MOL0     H 3522   3.486   2.117   1.305  2.4241  1.9397  1.7371
  767MOL0     H 3523   3.460   1.825   1.386  0.2631 -0.3127 -2.7482
  767MOL0     H 3524   3.479   1.906   1.235  2.3190  0.7062  0.7380
  767MOL0     H 3525   3.260   1.966   1.220 -1.8813 -3.4901 -3.0921
  767MOL0     H 3526   3.216   1.948   1.396 -1.5931  0.4754 -0.8787
  767MOL0     H 3527   4.374   1.913   1.173 -1.2906  1.2789 -0.9101
  767MOL0     H 3528   4.623   1.953   1.230 -0.9228 -1.5839 -0.4577
  767MOL0     H 3529   4.970   2.342   1.207 -1.4982  0.2582  0.9569
  767MOL0     H 3530   5.216   2.287   1.196  0.3061 -1.7562 -0.9492
  767MOL0     H 3531   7.007   2.640   1.658 -2.1996 -0.8136 -2.1781
  767MOL0     H 3532   7.256   2.639   1.704 -2.1473  2.4256  0.0371
  767MOL0     H 3533   7.531   2.303   1.885  1.6301 -1.7681 -0.1839
  767MOL0     H 3534   7.762   2.287   1.980  0.1392 -0.3795  0.1522
  767MOL0     H 3535   7.927   2.404   2.093  1.8556 -0.9698  2.1663
  767MOL0     H 3536   8.009   2.267   2.006 -1.0334  0.2305 -2.4395
  767MOL0     H 3537   8.214   2.406   1.989 -0.8331  0.3519 -0.2989
  767MOL0     H 3538   8.169   2.349   2.155 -1.8975 -0.9973  0.4964
  767MOL0     H 3539   8.065   2.564   2.202  1.4835 -2.3458 -0.2536
  767MOL0     H 3540   8.097   2.627   2.031  0.1434  0.4356 -0.8441
  767MOL0     H 3541   8.258   2.728   2.156  0.8280 -0.9609  0.0021
  767MOL0     H 3542   8.335   2.598   2.071 -1.8587  2.6765 -1.7790
  767MOL0     H 3543   8.393   2.468   2.471  2.2556  3.1658  1.1974
  767MOL0     H 3544   7.907   2.542   1.678 -0.6577 -0.8338 -1.2647
  767MOL0     H 3545   7.680   2.583   1.586 -0.5997 -1.6656 -0.9997
  768MOL0     O 3546   4.382   6.992   0.013  0.6395  0.0600  0.4423
  768MOL0     C 3547   4.313   6.902   0.066 -0.1473 -0.0372  0.1431
  768MOL0     O 3548   4.177   6.901   0.081  0.2849 -0.7889  0.1406
  768MOL0     C 3549   4.104   7.004   0.029  0.1526 -0.4997 -0.0201
  768MOL0     C 3550   4.119   7.083  -0.089  0.2514 -1.4524  0.2539
  768MOL0     C 3551   4.019   7.186  -0.121 -0.3819 -0.0182 -0.9742
  768MOL0     C 3552   3.914   7.221  -0.033 -0.0911  0.3155  0.5904
  768MOL0     O 3553   3.836   7.331  -0.054 -0.3551 -0.2363  0.1188
  768MOL0     C 3554   3.873   7.412  -0.170  0.4316 -0.7385  0.1873
  768MOL0     C 3555   3.788   7.539  -0.180 -0.2703  0.5007 -0.0957
  768MOL0     C 3556   3.639   7.518  -0.148  0.1546 -0.4002  0.6971
  768MOL0     C 3557   3.566   7.640  -0.197  0.5253  0.7244 -0.2911
  768MOL0     C 3558   3.425   7.666  -0.127  0.6072 -0.2612  0.4195
  768MOL0     C 3559   3.323   7.574  -0.171  0.4712  0.5438 -0.4108
  768MOL0     C 3560   3.179   7.626  -0.147  0.0831  0.0450  0.5108
  768MOL0     C 3561   3.072   7.534  -0.213  0.1858  0.9418 -0.5208
  768MOL0     N 3562   2.937   7.569  -0.187 -0.3184  0.3595 -0.1641
  768MOL0     C 3563   2.878   7.599  -0.070 -0.6177  0.3022 -0.0171
  768MOL0     C 3564   2.765   7.673  -0.094  0.2196  0.1425  0.2167
  768MOL0     C 3565   2.678   7.728   0.011 -0.5786 -0.0231 -0.3687
  768MOL0     C 3566   2.542   7.761  -0.051  0.8326  0.2046 -0.7728
  768MOL0     C 3567   2.441   7.783   0.064  0.2450 -0.1085 -0.7650
  768MOL0     C 3568   2.439   7.918   0.125  0.4030  0.7725  0.3528
  768MOL0     O 3569   2.348   8.009   0.062  0.2083 -0.6031  0.0538
  768MOL0     C 3570   2.226   8.023   0.126 -0.9577 -0.5130  0.5871
  768MOL0     C 3571   2.182   7.937   0.234  0.1812 -0.3845  0.4050
  768MOL0     C 3572   2.062   7.959   0.299  0.3277  0.0222 -0.2104
  768MOL0     C 3573   2.030   7.851   0.400  0.0624  0.8341 -0.5577
  768MOL0     C 3574   1.977   8.072   0.267  0.0881  0.7363  0.3501
  768MOL0     C 3575   1.849   8.105   0.334  0.5404  0.6225  0.3781
  768MOL0     O 3576   1.846   8.116   0.469  0.2225  0.0973  0.3020
  768MOL0     C 3577   1.718   8.122   0.525  0.5092  0.5936  0.2295
  768MOL0     C 3578   1.694   8.212   0.629  0.1510  0.3599  0.5210
  768MOL0     C 3579   1.567   8.212   0.697 -0.9143 -0.0180 -0.8427
  768MOL0     C 3580   1.478   8.115   0.667 -0.8041  0.4700 -0.4332
  768MOL0     O 3581   1.358   8.124   0.734 -0.4139 -0.1706  0.2607
  768MOL0     C 3582   1.253   8.177   0.654  0.4322  0.2373 -0.2300
  768MOL0     C 3583   1.135   8.126   0.739 -0.3802  0.4059 -0.7791
  768MOL0     C 3584   1.094   7.981   0.713 -0.2071  0.5075  0.4643
  768MOL0     C 3585   0.982   7.945   0.811  0.0472 -0.1561 -0.6794
  768MOL0     C 3586   0.964   7.795   0.814 -0.3238 -0.5349 -0.2591
  768MOL0     C 3587   0.841   7.749   0.898  0.1392 -0.0415 -0.5100
  768MOL0     C 3588   0.706   7.815   0.859 -0.1156  0.0269  1.3754
  768MOL0     C 3589   0.592   7.743   0.915 -0.1231  0.4153 -0.4907
  768MOL0    Cl 3590   0.434   7.833   0.871 -0.3226  0.3341 -0.3115
  768MOL0     C 3591   1.504   8.013   0.577 -0.8033 -0.0657  0.7013
  768MOL0     C 3592   1.622   8.013   0.496 -0.4493 -1.2102  0.1789
  768MOL0     O 3593   1.754   8.131   0.259  0.1220  0.2285 -0.3449
  768MOL0     C 3594   2.013   8.144   0.149  0.9037  0.1227 -0.6825
  768MOL0     C 3595   2.137   8.122   0.080 -0.5659 -0.4269  0.1020
  768MOL0     N 3596   2.771   7.703  -0.228  0.3911  0.1943  0.6801
  768MOL0     N 3597   2.866   7.637  -0.281  0.0020  0.3389  0.2195
  768MOL0     C 3598   3.891   7.138   0.076  0.7332  0.0763  0.2792
  768MOL0     C 3599   3.987   7.027   0.103  0.5407 -0.2695 -0.2559
  768MOL0     C 3600   4.384   6.794   0.141  0.2206 -1.1338 -0.4362
  768MOL0     C 3601   4.309   6.710   0.227  0.1681  0.3319 -0.4688
  768MOL0     C 3602   4.384   6.610   0.283 -0.1059  0.8442 -0.3664
  768MOL0     C 3603   4.528   6.593   0.273  0.4980 -0.5938  0.0067
  768MOL0     O 3604   4.587   6.489   0.339  0.1704 -0.1736  0.3528
  768MOL0     C 3605   4.726   6.497   0.372 -0.5117  1.0668 -0.1016
  768MOL0     C 3606   4.805   6.394   0.293 -0.2226  0.4398 -0.1806
  768MOL0     C 3607   4.956   6.391   0.315 -0.2276 -0.1697  0.5361
  768MOL0     C 3608   5.036   6.297   0.217  0.4100 -0.6170  0.5026
  768MOL0     C 3609   5.007   6.156   0.252  0.1981  1.0165 -0.8392
  768MOL0     C 3610   4.994   6.041   0.284 -1.0752 -0.2509  0.6212
  768MOL0     C 3611   4.594   6.683   0.193 -0.9886 -0.0187 -0.2436
  768MOL0     C 3612   4.523   6.786   0.130 -0.8785  0.2477 -0.8376
  768MOL0     H 3613   4.200   7.070  -0.159  0.0544  0.9192 -0.5262
  768MOL0     H 3614   4.033   7.252  -0.206  0.7245 -0.2172 -0.9623
  768MOL0     H 3615   3.979   7.437  -0.166  0.7401 -1.7509 -1.1006
  768MOL0     H 3616   3.853   7.365  -0.267 -0.1533  1.3331 -0.7490
  768MOL0     H 3617   3.819   7.623  -0.118 -0.5096 -0.4702  1.3833
  768MOL0     H 3618   3.783   7.575  -0.283  2.6288 -0.4347 -0.6499
  768MOL0     H 3619   3.606   7.427  -0.199 -1.2829 -0.8464  2.3137
  768MOL0     H 3620   3.635   7.507  -0.039  0.6156  0.6909  0.8293
  768MOL0     H 3621   3.625   7.732  -0.190 -0.9542  1.7609 -0.8987
  768MOL0     H 3622   3.541   7.621  -0.302 -0.4154  0.0051  0.0483
  768MOL0     H 3623   3.451   7.660  -0.021  0.7402  0.7784  0.4632
  768MOL0     H 3624   3.401   7.770  -0.149  0.5482 -0.2788  0.4006
  768MOL0     H 3625   3.332   7.558  -0.278  0.1305 -4.0426  0.0460
  768MOL0     H 3626   3.339   7.478  -0.121  0.7739  0.5903 -0.4184
  768MOL0     H 3627   3.169   7.618  -0.038  0.7221 -3.4524  0.4316
  768MOL0     H 3628   3.164   7.730  -0.178 -4.1510 -0.7249 -0.6051
  768MOL0     H 3629   3.096   7.434  -0.176  0.2204  0.6997 -1.1815
  768MOL0     H 3630   3.086   7.539  -0.321  0.7903  0.8244 -0.4533
  768MOL0     H 3631   2.907   7.571   0.030 -1.5335  0.4628  0.3050
  768MOL0     H 3632   2.676   7.668   0.102  3.1935  1.2876  0.7876
  768MOL0     H 3633   2.727   7.825   0.026 -1.3985  0.3933 -0.3202
  768MOL0     H 3634   2.513   7.678  -0.115  1.0861 -0.7895  0.3634
  768MOL0     H 3635   2.553   7.859  -0.099  1.9285  0.7097  0.4453
  768MOL0     H 3636   2.458   7.713   0.146 -1.8548  0.8541  0.5620
  768MOL0     H 3637   2.341   7.757   0.027 -0.1446 -1.1979  0.9283
  768MOL0     H 3638   2.538   7.964   0.117  0.4620  0.2863 -2.9175
  768MOL0     H 3639   2.429   7.898   0.232 -0.3137 -1.1223 -0.0406
  768MOL0     H 3640   2.238   7.851   0.269 -0.6470 -0.7911  0.7440
  768MOL0     H 3641   1.921   7.844   0.413 -0.1583  0.3866 -2.3911
  768MOL0     H 3642   2.063   7.750   0.373 -0.4858  0.3110  0.6350
  768MOL0     H 3643   2.085   7.876   0.491  0.7513 -3.0675  0.3073
  768MOL0     H 3644   1.746   8.303   0.658 -1.3257  0.8063  1.9474
  768MOL0     H 3645   1.541   8.293   0.765  2.0580  0.7852 -0.4930
  768MOL0     H 3646   1.265   8.285   0.654 -2.4131  0.6438 -0.2740
  768MOL0     H 3647   1.246   8.139   0.552  1.8973  0.6845 -0.5178
  768MOL0     H 3648   1.165   8.139   0.843  0.0087 -0.8731 -0.7133
  768MOL0     H 3649   1.041   8.178   0.718 -0.9592 -1.1833 -2.3647
  768MOL0     H 3650   1.173   7.906   0.721  1.3385  2.1385  1.2442
  768MOL0     H 3651   1.057   7.978   0.611  1.3601  0.2757 -0.1267
  768MOL0     H 3652   0.988   7.984   0.913 -1.2417 -0.5791 -0.4308
  768MOL0     H 3653   0.890   7.990   0.773  0.3715  1.5523  0.4288
  768MOL0     H 3654   1.055   7.748   0.852 -0.7499 -2.5403 -1.5630
  768MOL0     H 3655   0.949   7.753   0.714  0.8993  0.5031 -0.9008
  768MOL0     H 3656   0.838   7.642   0.874 -0.4238 -0.0164 -0.5815
  768MOL0     H 3657   0.859   7.759   1.005  1.3187  0.2239 -0.7292
  768MOL0     H 3658   0.697   7.809   0.750 -0.4579  3.4116  1.1273
  768MOL0     H 3659   0.716   7.918   0.895  2.6271  0.3265  0.0721
  768MOL0     H 3660   0.588   7.724   1.022 -0.2330 -0.3723 -0.6307
  768MOL0     H 3661   0.584   7.643   0.871  2.9255  0.1791 -0.7725
  768MOL0     H 3662   1.424   7.944   0.553  1.2205 -1.6456 -2.0331
  768MOL0     H 3663   1.633   7.939   0.418  0.8528 -1.3444  0.4686
  768MOL0     H 3664   1.943   8.219   0.113 -1.0211 -1.9144 -1.4832
  768MOL0     H 3665   2.173   8.185  -0.001 -2.8017  2.8200  1.4286
  768MOL0     H 3666   3.804   7.163   0.137 -1.3103  0.6115 -2.6679
  768MOL0     H 3667   3.977   6.967   0.193  1.9333  2.5502  1.9427
  768MOL0     H 3668   4.201   6.706   0.235  0.1144 -4.4285 -0.7252
  768MOL0     H 3669   4.325   6.539   0.338  0.3604  1.6851  1.2939
  768MOL0     H 3670   4.777   6.593   0.370 -0.5456  1.0904  0.1375
  768MOL0     H 3671   4.736   6.457   0.473 -0.8081 -0.5623 -0.6789
  768MOL0     H 3672   4.793   6.413   0.186  2.4219  0.2621 -0.5598
  768MOL0     H 3673   4.756   6.298   0.312 -1.0786  0.8022 -0.4997
  768MOL0     H 3674   4.967   6.351   0.416 -0.5033  0.6144  0.8906
  768MOL0     H 3675   5.013   6.484   0.304  1.4849 -1.2048  0.2439
  768MOL0     H 3676   5.143   6.322   0.223  0.2517  0.3746 -0.4971
  768MOL0     H 3677   5.015   6.309   0.111 -2.8881 -1.8773  0.9178
  768MOL0     H 3678   4.998   5.939   0.317  0.5649  0.2667  2.2226
  768MOL0     H 3679   4.700   6.674   0.174 -0.5827 -1.4653  2.2953
  768MOL0     H 3680   4.573   6.853   0.061 -1.7242  0.4389 -1.2790
  769MOL0     O 3681   8.980   5.388   7.062 -0.3826 -0.1714  0.4450
  769MOL0     C 3682   9.002   5.504   7.024 -0.2557  0.6413  0.6315
  769MOL0     O 3683   8.910   5.585   6.968 -0.0596  0.6435  0.0598
  769MOL0     C 3684   8.780   5.536   6.966  0.5620 -0.6705  0.3667
  769MOL0     C 3685   8.693   5.542   7.072  0.4443  0.6528 -0.5913
  769MOL0     C 3686   8.557   5.501   7.061 -0.2801 -0.3939  0.0750
  769MOL0     C 3687   8.505   5.456   6.941 -0.3599 -1.1313  0.1698
  769MOL0     O 3688   8.368   5.441   6.924  0.1808 -0.5491 -0.1418
  769MOL0     C 3689   8.261   5.499   7.001  0.5220 -0.4272  0.3824
  769MOL0     C 3690   8.126   5.445   6.945  0.1447  0.3122 -1.0073
  769MOL0     C 3691   8.042   5.557   6.901  0.5434  0.0657  0.4770
  769MOL0     C 3692   7.940   5.519   6.781  0.3127  0.1199 -0.6027
  769MOL0     C 3693   7.835   5.420   6.822  0.7642  0.6565  0.1731
  769MOL0     C 3694   7.763   5.337   6.715  0.8717  0.2786  0.9481
  769MOL0     C 3695   7.681   5.422   6.619  0.5792 -0.1579  0.4313
  769MOL0     C 3696   7.639   5.340   6.490  0.2279 -0.4079 -0.4866
  769MOL0     N 3697   7.760   5.309   6.414 -1.1835  0.0656  0.0090
  769MOL0     C 3698   7.792   5.175   6.375 -0.2211 -0.7286  0.6675
  769MOL0     C 3699   7.920   5.177   6.347 -0.6820  0.3730  0.2958
  769MOL0     C 3700   7.992   5.053   6.320 -0.7073 -0.7048  0.1486
  769MOL0     C 3701   8.145   5.064   6.316 -0.8444  0.6326 -0.1371
  769MOL0     C 3702   8.215   5.069   6.456 -0.0859 -0.1731 -0.0545
  769MOL0     C 3703   8.362   5.046   6.436 -0.2444  0.6210 -0.1139
  769MOL0     O 3704   8.420   5.110   6.546 -0.3475  0.4707  0.0145
  769MOL0     C 3705   8.555   5.076   6.571  1.0512  0.2212 -0.8538
  769MOL0     C 3706   8.590   5.104   6.699 -0.3752 -0.2691  0.9963
  769MOL0     C 3707   8.716   5.071   6.747 -0.2021  0.8169  0.5089
  769MOL0     C 3708   8.748   5.129   6.880  0.1227  0.0574  0.3008
  769MOL0     C 3709   8.818   5.007   6.658  0.2235  0.2445 -0.3501
  769MOL0     C 3710   8.958   4.992   6.693 -0.0365  0.6666  0.0942
  769MOL0     O 3711   9.031   4.942   6.593  0.4966 -0.4347 -0.6415
  769MOL0     C 3712   9.168   4.962   6.602  0.5920  0.3805  0.4623
  769MOL0     C 3713   9.245   4.860   6.650 -0.4326 -0.3423 -0.0303
  769MOL0     C 3714   9.386   4.895   6.662  0.2461  0.1748  0.6086
  769MOL0     C 3715   9.444   5.019   6.623 -0.0642 -0.2389  0.2355
  769MOL0     O 3716   9.581   5.038   6.664  0.3460  0.0380  0.4503
  769MOL0     C 3717   9.645   5.166   6.634  0.7937  0.2662 -0.0754
  769MOL0     C 3718   9.786   5.163   6.687 -0.5148  0.3293 -0.2249
  769MOL0     C 3719   9.871   5.274   6.629 -0.5134 -0.2389 -0.0740
  769MOL0     C 3720  10.015   5.273   6.691  0.4075 -0.5899 -0.2407
  769MOL0     C 3721  10.084   5.391   6.623 -0.1448  0.8347  1.0702
  769MOL0     C 3722  10.193   5.449   6.711  0.0038 -0.1476  0.0086
  769MOL0     C 3723  10.241   5.587   6.658 -0.1249  0.1125  0.1838
  769MOL0     C 3724  10.353   5.631   6.749 -0.1721 -0.1130  0.4552
  769MOL0    Cl 3725  10.408   5.782   6.674 -0.0311  0.4773 -0.4758
  769MOL0     C 3726   9.361   5.114   6.579 -0.3162 -0.5143  0.3751
  769MOL0     C 3727   9.224   5.086   6.562  0.3449  0.2449 -0.0142
  769MOL0     O 3728   8.998   5.024   6.803  0.7791  0.4664  0.2158
  769MOL0     C 3729   8.764   4.971   6.532  0.1358 -0.0647  0.0472
  769MOL0     C 3730   8.640   5.010   6.487 -0.2246 -0.3534  0.2503
  769MOL0     N 3731   7.970   5.309   6.363 -0.4485 -0.2071  0.7921
  769MOL0     N 3732   7.875   5.384   6.401 -0.3707 -0.6251 -0.1306
  769MOL0     C 3733   8.597   5.454   6.833  0.2757  0.1907 -0.7057
  769MOL0     C 3734   8.729   5.484   6.849 -0.7739 -0.5667  0.7657
  769MOL0     C 3735   9.137   5.563   7.059 -0.0760  0.0380 -0.7512
  769MOL0     C 3736   9.163   5.690   7.023  0.1044 -0.6867  0.0053
  769MOL0     C 3737   9.287   5.754   7.041  0.6670  0.1048  0.4738
  769MOL0     C 3738   9.393   5.689   7.114  0.3010 -0.2498  0.3442
  769MOL0     O 3739   9.520   5.736   7.129 -0.3617 -0.1885 -0.0348
  769MOL0     C 3740   9.550   5.868   7.077  0.0928  0.3422 -0.2338
  769MOL0     C 3741   9.691   5.922   7.121  0.7139  0.4487  0.5552
  769MOL0     C 3742   9.722   5.942   7.268 -0.6461 -0.6610 -0.1672
  769MOL0     C 3743   9.735   6.090   7.317  0.3267  0.3266 -0.5120
  769MOL0     C 3744   9.606   6.148   7.339  0.6028 -0.1291 -0.3793
  769MOL0     C 3745   9.492   6.187   7.352 -0.4057 -0.4592  0.5749
  769MOL0     C 3746   9.363   5.560   7.151  0.5109 -0.3856 -0.0321
  769MOL0     C 3747   9.241   5.498   7.123  0.4704  1.0910  0.4243
  769MOL0     H 3748   8.721   5.584   7.168  0.2823  1.2728 -0.8127
  769MOL0     H 3749   8.492   5.511   7.148  1.5160  0.2606  1.4073
  769MOL0     H 3750   8.264   5.476   7.108  0.4481  4.1846  1.5869
  769MOL0     H 3751   8.273   5.607   7.007 -1.3933 -0.2303  1.5370
  769MOL0     H 3752   8.140   5.389   6.851  2.2200 -1.4593  0.2576
  769MOL0     H 3753   8.075   5.374   7.010 -0.8944  0.4339 -1.6672
  769MOL0     H 3754   7.972   5.584   6.981 -0.7829 -0.9462 -0.3051
  769MOL0     H 3755   8.095   5.652   6.886  0.5973  0.2439  1.6747
  769MOL0     H 3756   7.900   5.619   6.763  1.8886  0.7441 -0.8353
  769MOL0     H 3757   7.995   5.482   6.694 -1.0264  1.0168 -1.8667
  769MOL0     H 3758   7.887   5.346   6.884 -0.3416  0.7261  1.2137
  769MOL0     H 3759   7.763   5.469   6.888  1.1363  1.8446 -0.2849
  769MOL0     H 3760   7.848   5.299   6.658  0.1288 -0.0439  0.0347
  769MOL0     H 3761   7.707   5.252   6.756  2.5558 -0.4437  1.8646
  769MOL0     H 3762   7.587   5.455   6.665 -1.3280 -2.4503 -1.5528
  769MOL0     H 3763   7.738   5.509   6.587 -2.4316  1.2870 -1.4732
  769MOL0     H 3764   7.573   5.402   6.428  0.4927  2.4128  1.8185
  769MOL0     H 3765   7.583   5.251   6.521  0.0790 -0.6727 -1.4830
  769MOL0     H 3766   7.733   5.084   6.373  0.0301 -0.8963 -1.1652
  769MOL0     H 3767   7.959   4.991   6.404 -1.4423  1.1617  1.3090
  769MOL0     H 3768   7.956   5.010   6.227 -2.1151  0.4954  0.1079
  769MOL0     H 3769   8.163   5.157   6.262 -0.0073 -0.3332 -1.5723
  769MOL0     H 3770   8.181   4.978   6.259  1.9511  0.5926  1.4754
  769MOL0     H 3771   8.176   4.985   6.515  0.5993  0.4359  1.3023
  769MOL0     H 3772   8.197   5.166   6.503 -1.5799 -0.5645  0.2407
  769MOL0     H 3773   8.403   5.093   6.346 -2.0727  2.3505 -0.1057
  769MOL0     H 3774   8.390   4.942   6.455  0.8938  1.0478  0.6879
  769MOL0     H 3775   8.516   5.152   6.761 -1.8146 -1.4935  0.3008
  769MOL0     H 3776   8.814   5.061   6.934 -1.0140  1.4652  3.6740
  769MOL0     H 3777   8.792   5.227   6.859 -0.0019 -0.1690 -1.1865
  769MOL0     H 3778   8.661   5.144   6.944 -0.4100  1.2596 -0.6495
  769MOL0     H 3779   9.201   4.767   6.683 -2.1343 -0.5314 -2.5702
  769MOL0     H 3780   9.458   4.818   6.688 -0.8950 -2.6102 -3.3738
  769MOL0     H 3781   9.647   5.177   6.525 -0.1283 -0.3462 -0.1729
  769MOL0     H 3782   9.591   5.247   6.684 -0.4392 -1.1327  0.9583
  769MOL0     H 3783   9.783   5.177   6.796 -0.2162  1.5372 -0.3518
  769MOL0     H 3784   9.825   5.067   6.653 -1.7733 -0.7141  1.1559
  769MOL0     H 3785   9.823   5.370   6.648  1.6329  0.4174  2.7778
  769MOL0     H 3786   9.873   5.255   6.522 -0.4366  2.2023 -0.5772
  769MOL0     H 3787  10.013   5.313   6.792 -0.6295  4.2430 -1.8895
  769MOL0     H 3788  10.072   5.182   6.668  1.4874  0.3517 -1.4798
  769MOL0     H 3789  10.021   5.479   6.608 -0.4629  0.4527  0.0471
  769MOL0     H 3790  10.118   5.365   6.522 -2.1089 -0.4958  0.6797
  769MOL0     H 3791  10.147   5.463   6.809 -1.1296  1.0317 -0.6681
  769MOL0     H 3792  10.276   5.379   6.724  0.4868  0.2340 -0.9180
  769MOL0     H 3793  10.152   5.651   6.656 -1.0683 -1.1510  0.0496
  769MOL0     H 3794  10.280   5.570   6.557  0.2049 -1.8772  0.6036
  769MOL0     H 3795  10.429   5.553   6.740  0.2704 -0.0550  2.8079
  769MOL0     H 3796  10.312   5.639   6.851 -0.6344  0.8622  0.2078
  769MOL0     H 3797   9.412   5.206   6.553  2.0017 -0.9390  2.9486
  769MOL0     H 3798   9.159   5.162   6.520 -1.5025 -0.5976  1.1844
  769MOL0     H 3799   8.832   4.908   6.476  0.7417  0.0548  0.6319
  769MOL0     H 3800   8.602   4.999   6.386 -0.9433  5.0283 -0.3852
  769MOL0     H 3801   8.565   5.416   6.736  0.4774 -0.4228 -0.5384
  769MOL0     H 3802   8.802   5.471   6.769 -0.2051 -1.0671  1.3563
  769MOL0     H 3803   9.085   5.742   6.968  0.2868 -0.4345 -0.0158
  769MOL0     H 3804   9.288   5.849   6.989 -1.1570  0.1407  0.4419
  769MOL0     H 3805   9.534   5.864   6.969 -1.9675  0.4249  0.0310
  769MOL0     H 3806   9.474   5.942   7.105  0.8375  1.8606 -2.0291
  769MOL0     H 3807   9.707   6.016   7.066  1.2649 -0.3699 -0.7350
  769MOL0     H 3808   9.760   5.856   7.066  0.3433  0.8086 -0.3634
  769MOL0     H 3809   9.817   5.896   7.295 -0.9357 -0.3436  1.5411
  769MOL0     H 3810   9.643   5.889   7.322  0.6213 -2.0915  0.3273
  769MOL0     H 3811   9.797   6.151   7.250 -1.2649  2.1104 -0.4624
  769MOL0     H 3812   9.786   6.081   7.413 -0.8198 -0.4968  0.0449
  769MOL0     H 3813   9.393   6.224   7.367  0.8434  3.5623  0.3420
  769MOL0     H 3814   9.433   5.512   7.219 -1.1248 -0.1686  1.8904
  769MOL0     H 3815   9.229   5.392   7.145  0.5402  0.9979  0.0097
  770MOL0     O 3816   4.595   0.704   8.510 -0.8112 -0.1905 -0.2322
  770MOL0     C 3817   4.702   0.672   8.463  0.5256  0.3111 -0.3912
  770MOL0     O 3818   4.722   0.632   8.336 -0.1082 -0.2489  0.7373
  770MOL0     C 3819   4.607   0.639   8.257  0.4240 -0.3829 -0.2564
  770MOL0     C 3820   4.535   0.525   8.223  0.3287 -0.2612 -0.0709
  770MOL0     C 3821   4.417   0.538   8.150  0.4730  0.3404  0.0781
  770MOL0     C 3822   4.363   0.666   8.112 -0.7326  0.4130  0.6830
  770MOL0     O 3823   4.239   0.649   8.050  0.7624 -1.1458  0.1001
  770MOL0     C 3824   4.188   0.767   7.983 -0.3990 -0.5341 -0.5492
  770MOL0     C 3825   4.040   0.747   7.943 -0.5079  0.1188 -0.8387
  770MOL0     C 3826   4.005   0.852   7.843 -0.0560  0.2690  0.6958
  770MOL0     C 3827   3.858   0.828   7.792  0.9277 -0.5373 -0.0073
  770MOL0     C 3828   3.842   0.900   7.651  0.8098 -0.4805 -0.2809
  770MOL0     C 3829   3.699   0.884   7.592 -0.2590 -0.3691 -0.3106
  770MOL0     C 3830   3.580   0.898   7.681  0.4405  0.9642  0.5866
  770MOL0     C 3831   3.454   0.917   7.592  0.1293 -0.2665 -0.0841
  770MOL0     N 3832   3.338   0.973   7.660  0.0276 -0.7396  0.5036
  770MOL0     C 3833   3.333   1.093   7.723 -0.6150  0.2476  0.1053
  770MOL0     C 3834   3.214   1.102   7.784 -0.3707 -1.2097  0.2276
  770MOL0     C 3835   3.174   1.218   7.864 -0.2336 -0.2543  0.0336
  770MOL0     C 3836   3.020   1.234   7.848 -0.2248 -0.9846  0.4755
  770MOL0     C 3837   2.980   1.349   7.936  0.3957  0.1515 -0.3504
  770MOL0     C 3838   2.839   1.394   7.939  0.2548  0.5133  0.1407
  770MOL0     O 3839   2.746   1.300   7.991  0.6602 -0.1074 -0.3162
  770MOL0     C 3840   2.606   1.305   7.967 -0.6181 -0.7027 -0.1759
  770MOL0     C 3841   2.536   1.196   8.014  0.7904  0.1736 -0.7508
  770MOL0     C 3842   2.402   1.193   8.014  0.2234 -0.6150 -0.0607
  770MOL0     C 3843   2.347   1.087   8.095 -0.6957  0.1121 -0.3706
  770MOL0     C 3844   2.329   1.304   7.950 -0.4368  0.0865 -0.2793
  770MOL0     C 3845   2.185   1.318   7.935 -0.0748 -0.5904  1.2702
  770MOL0     O 3846   2.130   1.431   7.880  0.4079  0.3598  0.4973
  770MOL0     C 3847   1.987   1.435   7.888 -0.0115  0.0663  0.1538
  770MOL0     C 3848   1.916   1.452   8.008 -0.1918 -0.9574 -0.5690
  770MOL0     C 3849   1.775   1.461   7.996 -0.0778  0.2952 -0.0966
  770MOL0     C 3850   1.711   1.456   7.871 -0.3319  0.0524  0.9220
  770MOL0     O 3851   1.576   1.481   7.872 -0.0643 -0.3564 -0.1943
  770MOL0     C 3852   1.503   1.466   7.748 -1.2720 -0.2343  0.4392
  770MOL0     C 3853   1.360   1.451   7.791  0.2370 -0.1712  0.2483
  770MOL0     C 3854   1.262   1.465   7.674  0.9910  0.7273  0.4116
  770MOL0     C 3855   1.132   1.535   7.722  0.2381  0.1569  0.4430
  770MOL0     C 3856   1.053   1.455   7.825 -0.0846  0.3086  0.5466
  770MOL0     C 3857   0.944   1.537   7.898 -1.2329  0.5365  0.7153
  770MOL0     C 3858   0.843   1.570   7.788  0.0032 -0.2915  0.9224
  770MOL0     C 3859   0.725   1.647   7.838 -0.2050  0.7594 -0.1588
  770MOL0    Cl 3860   0.602   1.689   7.715 -0.2365  0.1731 -0.0686
  770MOL0     C 3861   1.787   1.442   7.757  0.0605  0.2731  0.1022
  770MOL0     C 3862   1.921   1.428   7.762 -0.4035  0.7805 -0.2340
  770MOL0     O 3863   2.116   1.224   7.980 -0.3325  0.0564  0.9355
  770MOL0     C 3864   2.407   1.403   7.888  0.6516  0.5314  0.6369
  770MOL0     C 3865   2.547   1.410   7.903 -0.1375  0.4357 -0.6000
  770MOL0     N 3866   3.146   0.991   7.746  0.3078  0.1279 -0.5957
  770MOL0     N 3867   3.215   0.911   7.676 -0.5355  0.6532 -0.4475
  770MOL0     C 3868   4.446   0.779   8.131  0.1231  0.7239  0.1317
  770MOL0     C 3869   4.567   0.768   8.207 -0.1336  0.9759 -0.4356
  770MOL0     C 3870   4.822   0.675   8.550 -0.2443  0.4402 -0.8334
  770MOL0     C 3871   4.806   0.668   8.694  0.4091  0.0182 -0.4658
  770MOL0     C 3872   4.919   0.670   8.773  0.1217 -0.3534  0.3159
  770MOL0     C 3873   5.043   0.695   8.714 -0.6277  0.1244 -0.3987
  770MOL0     O 3874   5.161   0.703   8.786 -0.8814  0.0483 -1.0914
  770MOL0     C 3875   5.155   0.755   8.920 -0.2330 -0.3849  0.1593
  770MOL0     C 3876   5.286   0.828   8.945 -0.3409  0.2653  0.0547
  770MOL0     C 3877   5.407   0.746   8.934 -0.5464  0.1964 -0.0322
  770MOL0     C 3878   5.532   0.810   9.000  0.3097  0.1783 -0.7692
  770MOL0     C 3879   5.655   0.736   8.947  0.6030 -0.0096 -0.2958
  770MOL0     C 3880   5.765   0.697   8.914  0.0593 -0.3119 -0.0411
  770MOL0     C 3881   5.054   0.713   8.580  1.1032  0.5662  0.0287
  770MOL0     C 3882   4.944   0.707   8.493  0.5756 -0.0712 -0.2793
  770MOL0     H 3883   4.565   0.426   8.257 -2.5051 -1.4345 -0.6302
  770MOL0     H 3884   4.354   0.451   8.132  1.5954 -0.7410  1.1851
  770MOL0     H 3885   4.199   0.848   8.056  2.6263 -1.3906  0.1025
  770MOL0     H 3886   4.251   0.788   7.895  0.1833 -1.8213 -0.4574
  770MOL0     H 3887   4.024   0.644   7.911 -0.5028 -0.0739 -0.2312
  770MOL0     H 3888   3.965   0.767   8.020 -0.9223  0.2104 -1.2562
  770MOL0     H 3889   4.014   0.952   7.886 -0.1944  1.0146 -0.9434
  770MOL0     H 3890   4.080   0.843   7.764 -1.8080 -1.8439 -0.8396
  770MOL0     H 3891   3.844   0.720   7.780  3.3374 -0.9165  0.1959
  770MOL0     H 3892   3.782   0.863   7.862 -0.9228 -1.4323 -1.4576
  770MOL0     H 3893   3.849   1.006   7.677  1.9941 -0.5730 -0.2051
  770MOL0     H 3894   3.922   0.873   7.581 -0.9464  0.2257 -2.7296
  770MOL0     H 3895   3.697   0.966   7.520 -0.8648  0.2228  0.3674
  770MOL0     H 3896   3.692   0.789   7.538 -2.1087 -0.4139 -0.0504
  770MOL0     H 3897   3.567   0.811   7.748 -1.2795  0.3615 -0.4449
  770MOL0     H 3898   3.589   0.992   7.736 -0.6807  1.9337 -0.8052
  770MOL0     H 3899   3.421   0.822   7.551 -1.0890  0.4378 -0.7886
  770MOL0     H 3900   3.473   0.969   7.497  0.5226 -1.9220 -0.9538
  770MOL0     H 3901   3.405   1.174   7.731 -0.5001  0.5045 -2.5893
  770MOL0     H 3902   3.193   1.186   7.967  1.5856 -0.3648 -0.3101
  770MOL0     H 3903   3.228   1.312   7.848 -0.4398 -0.0925  0.2746
  770MOL0     H 3904   2.977   1.146   7.895 -0.0347  0.8036  4.3542
  770MOL0     H 3905   2.992   1.240   7.742  0.3673  0.2493  0.3633
  770MOL0     H 3906   3.040   1.440   7.925  0.3735  0.5537  2.3196
  770MOL0     H 3907   3.002   1.315   8.037 -0.8784 -0.2432 -0.1842
  770MOL0     H 3908   2.806   1.416   7.838 -0.0972  2.9459  0.7149
  770MOL0     H 3909   2.839   1.486   7.998  0.8905 -0.5320  1.8562
  770MOL0     H 3910   2.594   1.110   8.048 -2.2648 -1.4768  0.6421
  770MOL0     H 3911   2.294   1.136   8.178  0.4565  1.4115 -0.3719
  770MOL0     H 3912   2.284   1.015   8.041  0.2634 -0.3719 -0.8633
  770MOL0     H 3913   2.422   1.032   8.153  0.7401  1.9738 -0.3885
  770MOL0     H 3914   1.966   1.463   8.104 -2.5407  1.4724  0.5110
  770MOL0     H 3915   1.708   1.482   8.079 -0.4996 -0.8210 -0.1333
  770MOL0     H 3916   1.518   1.545   7.675  2.3145 -0.9975  0.1444
  770MOL0     H 3917   1.533   1.376   7.694 -0.0307  1.2228 -1.4055
  770MOL0     H 3918   1.355   1.352   7.837  0.6353 -1.1258 -1.6402
  770MOL0     H 3919   1.340   1.530   7.863 -0.3233  0.9156 -1.0510
  770MOL0     H 3920   1.227   1.365   7.643 -2.1820  1.6443  0.6583
  770MOL0     H 3921   1.313   1.509   7.587  2.0445 -0.0912  0.5927
  770MOL0     H 3922   1.170   1.629   7.764  2.1776 -0.4565  0.1539
  770MOL0     H 3923   1.066   1.558   7.638  0.2215 -3.1224 -0.5792
  770MOL0     H 3924   1.120   1.421   7.905 -1.2412  0.4425  1.6017
  770MOL0     H 3925   1.013   1.364   7.779  2.5004 -0.2884 -0.6716
  770MOL0     H 3926   0.894   1.476   7.974 -1.2952 -1.4901 -0.8552
  770MOL0     H 3927   0.985   1.624   7.950 -0.6874  0.6319  0.1325
  770MOL0     H 3928   0.797   1.482   7.741  1.3223 -0.1151 -0.7643
  770MOL0     H 3929   0.897   1.625   7.710  0.1625 -3.3890 -1.3238
  770MOL0     H 3930   0.763   1.740   7.883  0.3751  1.1103 -1.2974
  770MOL0     H 3931   0.681   1.601   7.926  0.6077  0.4035  0.0754
  770MOL0     H 3932   1.739   1.438   7.660  1.5065  1.2113 -0.6805
  770MOL0     H 3933   1.987   1.407   7.679 -1.6696  0.9736 -1.3119
  770MOL0     H 3934   2.376   1.481   7.819  2.0201  0.7243  0.2036
  770MOL0     H 3935   2.609   1.489   7.863 -0.5989  0.0206 -2.1957
  770MOL0     H 3936   4.431   0.878   8.088 -0.9505  0.1362 -0.9269
  770MOL0     H 3937   4.631   0.848   8.243  1.5256  0.0550 -1.1736
  770MOL0     H 3938   4.713   0.673   8.749 -0.2673 -1.5721 -1.3871
  770MOL0     H 3939   4.909   0.653   8.880 -2.9651 -0.1957  0.1451
  770MOL0     H 3940   5.075   0.830   8.925 -0.0300  0.1046 -2.4773
  770MOL0     H 3941   5.133   0.674   8.991 -1.0448  1.8892  2.6887
  770MOL0     H 3942   5.280   0.856   9.050  0.3001  1.1891 -0.1401
  770MOL0     H 3943   5.300   0.920   8.887  1.0235  0.1060  0.0954
  770MOL0     H 3944   5.438   0.742   8.829 -1.5633  1.2077 -0.4021
  770MOL0     H 3945   5.400   0.651   8.987  0.6635  1.5304  2.7397
  770MOL0     H 3946   5.526   0.788   9.107  3.6997 -0.2095 -0.5437
  770MOL0     H 3947   5.529   0.918   8.982  1.1694  0.2020 -0.7916
  770MOL0     H 3948   5.859   0.672   8.868  0.0811  1.0574 -0.7955
  770MOL0     H 3949   5.151   0.724   8.533  0.1971 -1.1324 -2.4143
  770MOL0     H 3950   4.967   0.733   8.390  3.5513 -1.8289 -0.1665
  771MOL0     O 3951   1.080   3.989  10.184 -0.3458 -0.3979 -0.2128
  771MOL0     C 3952   1.110   4.108  10.200 -0.5724 -0.3364 -0.6387
  771MOL0     O 3953   1.029   4.202  10.257 -0.0388 -0.3409 -0.0965
  771MOL0     C 3954   0.900   4.173  10.286 -0.5982 -0.2099  0.4732
  771MOL0     C 3955   0.812   4.096  10.212 -0.0444 -0.7551  0.7440
  771MOL0     C 3956   0.673   4.099  10.233 -0.1089  0.6143  0.0172
  771MOL0     C 3957   0.617   4.162  10.339  0.7914  0.6258  0.4215
  771MOL0     O 3958   0.486   4.164  10.386  0.6002  0.5704 -0.5171
  771MOL0     C 3959   0.381   4.094  10.309 -0.5142  0.1366  0.8648
  771MOL0     C 3960   0.247   4.134  10.368  1.1371  0.2587 -0.0259
  771MOL0     C 3961   0.123   4.085  10.276 -0.4226  0.3008  0.9391
  771MOL0     C 3962  -0.016   4.110  10.335  1.2220  0.7492  0.3318
  771MOL0     C 3963  -0.098   3.996  10.274  0.7783  1.2996  0.0848
  771MOL0     C 3964  -0.236   3.989  10.333 -0.3191  0.6107 -0.1278
  771MOL0     C 3965  -0.317   4.116  10.300 -0.3986  0.0991 -0.5307
  771MOL0     C 3966  -0.458   4.099  10.356  1.4600 -0.2344 -0.1832
  771MOL0     N 3967  -0.528   4.227  10.342 -0.2325  0.3175  0.3455
  771MOL0     C 3968  -0.577   4.303  10.438 -0.3622 -0.2430 -0.1535
  771MOL0     C 3969  -0.662   4.384  10.381 -0.9800  0.4976  0.2015
  771MOL0     C 3970  -0.741   4.493  10.447 -0.5034  0.2906 -0.3123
  771MOL0     C 3971  -0.889   4.500  10.405 -0.2873 -0.3497 -0.0568
  771MOL0     C 3972  -0.954   4.623  10.474  0.3067  0.0327  0.6162
  771MOL0     C 3973  -1.107   4.642  10.478 -0.1422 -0.5043  0.2230
  771MOL0     O 3974  -1.147   4.730  10.368 -0.0058  0.2188 -0.1659
  771MOL0     C 3975  -1.272   4.701  10.328  0.4391  1.0175  0.6910
  771MOL0     C 3976  -1.296   4.594  10.242  0.4615 -0.1467 -0.3179
  771MOL0     C 3977  -1.429   4.573  10.196  0.1618  0.2292 -0.2858
  771MOL0     C 3978  -1.453   4.452  10.111 -0.7380 -0.6308 -0.7320
  771MOL0     C 3979  -1.537   4.663  10.224  0.2800 -0.4219 -0.2837
  771MOL0     C 3980  -1.676   4.651  10.174 -0.4732  0.0679  1.1941
  771MOL0     O 3981  -1.706   4.546  10.099 -0.0397 -0.0950  0.4252
  771MOL0     C 3982  -1.836   4.539  10.049 -0.5131 -0.0226 -0.2262
  771MOL0     C 3983  -1.901   4.631   9.968  0.1794  0.3941  0.5952
  771MOL0     C 3984  -2.040   4.605   9.939  0.5431 -0.4133 -0.3051
  771MOL0     C 3985  -2.111   4.500   9.995  0.5553  0.0540 -0.4330
  771MOL0     O 3986  -2.244   4.503   9.959  0.8081  0.3388  0.1465
  771MOL0     C 3987  -2.343   4.411  10.020  0.9265  0.4448  1.0381
  771MOL0     C 3988  -2.460   4.394   9.915 -0.3892  0.1253 -0.4209
  771MOL0     C 3989  -2.567   4.500   9.927 -0.0461  0.4454  0.3791
  771MOL0     C 3990  -2.670   4.470   9.814  0.2432  0.0887 -0.1121
  771MOL0     C 3991  -2.797   4.552   9.836 -0.1463 -0.0622  0.3784
  771MOL0     C 3992  -2.909   4.509   9.743  0.2592  0.3068 -0.3156
  771MOL0     C 3993  -3.033   4.594   9.761 -0.3572  0.1105  0.2014
  771MOL0     C 3994  -3.133   4.565   9.653  0.1338 -0.4916 -0.0643
  771MOL0    Cl 3995  -3.153   4.387   9.648  0.3899  0.5342 -0.1068
  771MOL0     C 3996  -2.039   4.404  10.069  0.2122 -0.7901 -0.1510
  771MOL0     C 3997  -1.898   4.428  10.095  1.0374  0.2057  0.4142
  771MOL0     O 3998  -1.749   4.748  10.190  0.1437  0.4024  0.2935
  771MOL0     C 3999  -1.501   4.770  10.307  0.2684 -0.4313  0.6544
  771MOL0     C 4000  -1.373   4.783  10.368  0.9218 -0.5446  0.4093
  771MOL0     N 4001  -0.690   4.341  10.253 -0.6650 -0.1516 -0.2231
  771MOL0     N 4002  -0.605   4.252  10.230 -0.1852 -0.0060  0.4646
  771MOL0     C 4003   0.709   4.237  10.414  0.7177 -1.0986 -0.0675
  771MOL0     C 4004   0.843   4.246  10.384  0.2153  0.7377  0.6435
  771MOL0     C 4005   1.242   4.160  10.157 -0.4865  0.4212  0.1213
  771MOL0     C 4006   1.319   4.098  10.057  0.1840  0.0500 -0.0712
  771MOL0     C 4007   1.451   4.131  10.023 -0.6062 -0.5641 -0.0819
  771MOL0     C 4008   1.509   4.247  10.086  0.5408  1.0420  0.3145
  771MOL0     O 4009   1.631   4.290  10.035 -0.2030 -0.2612 -0.6198
  771MOL0     C 4010   1.741   4.226  10.099  0.1984 -0.5646 -0.5237
  771MOL0     C 4011   1.865   4.243   9.999 -0.6800  0.3608 -0.1194
  771MOL0     C 4012   1.840   4.172   9.869 -0.2292 -0.1898 -0.0969
  771MOL0     C 4013   1.842   4.013   9.881 -0.0148  0.0191  0.1204
  771MOL0     C 4014   1.880   3.942   9.756  0.2718  0.2486  0.0142
  771MOL0     C 4015   1.920   3.869   9.665  0.0599 -1.0229  0.2726
  771MOL0     C 4016   1.438   4.308  10.183  1.3576 -0.2323  0.6081
  771MOL0     C 4017   1.302   4.273  10.214 -0.4840 -0.7507 -0.3648
  771MOL0     H 4018   0.851   4.045  10.125 -3.1925  3.4767 -3.6560
  771MOL0     H 4019   0.597   4.034  10.192 -2.1664  1.5306  2.1238
  771MOL0     H 4020   0.384   4.129  10.205 -1.5905 -1.1969  0.3541
  771MOL0     H 4021   0.393   3.986  10.323  0.4192  0.1970  0.6155
  771MOL0     H 4022   0.234   4.092  10.469 -1.1227 -0.8944 -0.7318
  771MOL0     H 4023   0.243   4.243  10.372  1.0838  0.3128 -1.2484
  771MOL0     H 4024   0.124   4.125  10.174  1.5375  0.0402  0.8170
  771MOL0     H 4025   0.134   3.977  10.261 -0.4744  0.3932  0.2202
  771MOL0     H 4026  -0.020   4.111  10.444 -2.7778  1.6905  0.3471
  771MOL0     H 4027  -0.050   4.208  10.301 -1.3557  0.0638  0.6618
  771MOL0     H 4028  -0.094   3.989  10.165 -0.6073 -2.3670  0.1269
  771MOL0     H 4029  -0.052   3.902  10.306 -0.7982  0.7253  0.7611
  771MOL0     H 4030  -0.279   3.896  10.294 -2.1878  1.0879  0.6666
  771MOL0     H 4031  -0.235   3.985  10.442 -0.2218  1.9387 -0.0586
  771MOL0     H 4032  -0.266   4.201  10.345  0.7225 -0.6896 -0.2645
  771MOL0     H 4033  -0.318   4.138  10.193  2.4910  2.2165 -0.2281
  771MOL0     H 4034  -0.457   4.082  10.464 -0.3579  1.0763  0.0903
  771MOL0     H 4035  -0.508   4.019  10.302 -1.0471  1.7846 -1.0622
  771MOL0     H 4036  -0.544   4.310  10.541  0.8160  0.5739 -0.5667
  771MOL0     H 4037  -0.731   4.487  10.555 -1.3534 -0.2832 -0.2576
  771MOL0     H 4038  -0.708   4.592  10.412 -1.2696  0.3759 -0.8351
  771MOL0     H 4039  -0.935   4.405  10.432  1.2491 -0.6512  1.7311
  771MOL0     H 4040  -0.899   4.506  10.296 -2.5683  0.9739  0.1614
  771MOL0     H 4041  -0.907   4.711  10.429  0.3949  0.5795  1.7261
  771MOL0     H 4042  -0.916   4.615  10.577  1.8813  1.5909  0.2040
  771MOL0     H 4043  -1.136   4.697  10.567 -0.9716  2.8539 -1.9311
  771MOL0     H 4044  -1.164   4.549  10.477 -1.4962  0.3086 -0.0948
  771MOL0     H 4045  -1.222   4.518  10.219 -0.1115 -0.2220 -2.0687
  771MOL0     H 4046  -1.495   4.485  10.016  2.7122  3.2737 -1.2046
  771MOL0     H 4047  -1.363   4.394  10.090  1.7772  2.1016  1.4286
  771MOL0     H 4048  -1.523   4.378  10.150  0.6337 -1.9733 -0.7057
  771MOL0     H 4049  -1.850   4.723   9.941  0.6051 -0.1604 -0.5599
  771MOL0     H 4050  -2.087   4.672   9.867 -1.1519 -0.8017  0.3971
  771MOL0     H 4051  -2.297   4.312  10.035 -1.1342 -1.0530 -1.5387
  771MOL0     H 4052  -2.383   4.436  10.119  1.3016 -1.9431  1.8611
  771MOL0     H 4053  -2.421   4.414   9.815  0.7899 -0.5389 -0.1076
  771MOL0     H 4054  -2.491   4.289   9.920  1.7899 -0.5436  0.5745
  771MOL0     H 4055  -2.519   4.596   9.904  1.8983 -0.5342  0.1207
  771MOL0     H 4056  -2.613   4.498  10.026 -2.9283 -0.8179 -0.8564
  771MOL0     H 4057  -2.640   4.489   9.710 -2.1436  2.2824 -0.5098
  771MOL0     H 4058  -2.696   4.364   9.820 -1.9061  0.6615  3.0537
  771MOL0     H 4059  -2.774   4.656   9.808 -0.1592 -0.9183 -3.4265
  771MOL0     H 4060  -2.829   4.543   9.940  0.8143 -0.1704  0.6776
  771MOL0     H 4061  -2.876   4.538   9.643  2.4174  0.6668  0.4290
  771MOL0     H 4062  -2.936   4.405   9.766 -0.2983  0.4260 -0.4336
  771MOL0     H 4063  -3.006   4.700   9.756  1.3547 -0.3024 -0.0568
  771MOL0     H 4064  -3.082   4.589   9.859 -0.8743  1.2505  0.0233
  771MOL0     H 4065  -3.114   4.625   9.563 -2.5956  2.1692  0.9520
  771MOL0     H 4066  -3.229   4.608   9.684  1.8310  2.6085  1.3900
  771MOL0     H 4067  -2.099   4.320  10.102 -0.3877 -1.4341 -2.6980
  771MOL0     H 4068  -1.846   4.352  10.153  2.9256  2.4453  1.8521
  771MOL0     H 4069  -1.581   4.840  10.330  1.1155  0.8449 -0.1460
  771MOL0     H 4070  -1.355   4.872  10.427 -2.5239 -1.2678  2.9032
  771MOL0     H 4071   0.669   4.297  10.494  0.5114 -2.1622  0.6434
  771MOL0     H 4072   0.907   4.310  10.443  1.3649  1.4646 -1.3080
  771MOL0     H 4073   1.289   4.009  10.004  2.5179 -1.3462  0.8199
  771MOL0     H 4074   1.511   4.080   9.948 -0.5999 -2.5930  1.2365
  771MOL0     H 4075   1.765   4.284  10.189 -0.3062  3.4181 -2.7565
  771MOL0     H 4076   1.735   4.120  10.128  0.9444 -1.0931 -2.1651
  771MOL0     H 4077   1.960   4.210  10.043  0.0042  0.2260 -1.6196
  771MOL0     H 4078   1.882   4.346   9.968 -1.1574  1.4512  2.8940
  771MOL0     H 4079   1.925   4.189   9.802 -1.8741  0.3775 -2.1371
  771MOL0     H 4080   1.755   4.221   9.821  0.5069  1.6334  0.3963
  771MOL0     H 4081   1.740   3.985   9.906 -0.4950  0.1582 -1.5486
  771MOL0     H 4082   1.911   3.977   9.958  2.7982 -0.6800 -2.5295
  771MOL0     H 4083   1.964   3.793   9.604 -0.8163 -1.3479  0.0314
  771MOL0     H 4084   1.482   4.398  10.224 -1.1679  1.2531  0.2387
  771MOL0     H 4085   1.265   4.335  10.295  2.8328  0.5416  0.3102
  772MOL0     O 4086   7.009   1.433   9.027 -0.2097  0.0923 -0.3384
  772MOL0     C 4087   6.990   1.450   8.904 -0.2770  0.2205  0.2187
  772MOL0     O 4088   6.875   1.419   8.831 -0.4889  1.0350 -1.0615
  772MOL0     C 4089   6.777   1.345   8.897 -0.1453  0.2201 -0.3217
  772MOL0     C 4090   6.655   1.397   8.882  0.0506  0.1271 -0.2819
  772MOL0     C 4091   6.541   1.329   8.924  0.1870 -0.4592  0.2753
  772MOL0     C 4092   6.547   1.211   8.996 -0.1608 -0.2391 -0.6897
  772MOL0     O 4093   6.435   1.153   9.052  0.2635  0.4977  0.3813
  772MOL0     C 4094   6.350   1.240   9.139  0.0123 -0.2035  0.5008
  772MOL0     C 4095   6.258   1.157   9.234  0.2142  1.0607 -0.0274
  772MOL0     C 4096   6.149   1.077   9.165 -0.7142  0.1810  0.0452
  772MOL0     C 4097   6.081   0.986   9.265  0.4629 -0.1563 -0.1009
  772MOL0     C 4098   5.984   0.903   9.174  0.0869  0.2748 -0.5668
  772MOL0     C 4099   5.924   0.793   9.263 -0.5153  0.2022 -0.0590
  772MOL0     C 4100   5.799   0.836   9.340 -0.7555 -0.8488  0.6073
  772MOL0     C 4101   5.758   0.735   9.455 -0.7567 -0.3314 -0.8745
  772MOL0     N 4102   5.620   0.774   9.504  0.4420  0.2666 -0.2827
  772MOL0     C 4103   5.600   0.880   9.594  0.4686  1.1546 -0.3274
  772MOL0     C 4104   5.471   0.896   9.609  0.2725  0.2620 -0.9296
  772MOL0     C 4105   5.417   1.002   9.703 -0.1936  0.2701  0.3634
  772MOL0     C 4106   5.260   1.009   9.691  0.5456 -0.4318  0.6727
  772MOL0     C 4107   5.181   0.892   9.752  0.2709  0.3511 -0.5706
  772MOL0     C 4108   5.035   0.892   9.721 -0.5896 -0.5904 -0.2896
  772MOL0     O 4109   4.968   0.991   9.804 -0.2010 -0.1833 -0.6706
  772MOL0     C 4110   4.834   1.007   9.786 -0.2890 -0.0777 -0.4371
  772MOL0     C 4111   4.761   0.920   9.700 -0.2668  0.2043  0.6973
  772MOL0     C 4112   4.617   0.932   9.679  1.0141  0.8511 -0.1933
  772MOL0     C 4113   4.555   0.837   9.575  0.0073 -0.5871  0.2982
  772MOL0     C 4114   4.552   1.035   9.749  0.0110 -0.4902  1.0378
  772MOL0     C 4115   4.411   1.064   9.730 -1.3039  0.0943 -0.4101
  772MOL0     O 4116   4.337   1.024   9.618 -0.8431  0.7690 -0.2468
  772MOL0     C 4117   4.210   1.073   9.593 -0.1191 -0.1781  0.3130
  772MOL0     C 4118   4.104   1.038   9.676  0.7026 -0.2175  0.0816
  772MOL0     C 4119   3.971   1.090   9.656 -0.0936  0.6383 -0.1997
  772MOL0     C 4120   3.943   1.168   9.546  0.2900  0.8184  0.1516
  772MOL0     O 4121   3.819   1.213   9.498 -0.1904  0.3719 -0.2023
  772MOL0     C 4122   3.708   1.153   9.568 -0.4684 -1.0099 -0.1980
  772MOL0     C 4123   3.587   1.189   9.484  0.2219  0.0890  0.0183
  772MOL0     C 4124   3.594   1.150   9.327  0.0128  0.6097  0.3202
  772MOL0     C 4125   3.593   0.996   9.315  0.3662  0.0690  0.1939
  772MOL0     C 4126   3.562   0.950   9.167  0.0987 -0.1935  0.1272
  772MOL0     C 4127   3.563   0.799   9.147 -0.1925  0.7680 -0.4405
  772MOL0     C 4128   3.452   0.718   9.222 -0.1975 -0.6470  0.2988
  772MOL0     C 4129   3.466   0.566   9.206 -0.5008 -0.0800  0.1698
  772MOL0    Cl 4130   3.463   0.529   9.030 -0.1905 -0.2609 -0.1572
  772MOL0     C 4131   4.047   1.206   9.461  0.6718  0.5668 -0.5507
  772MOL0     C 4132   4.181   1.153   9.484  0.7515 -0.4233 -0.0148
  772MOL0     O 4133   4.371   1.142   9.813  0.3057  0.2459  0.4746
  772MOL0     C 4134   4.635   1.109   9.840 -0.1690 -0.3273  0.0614
  772MOL0     C 4135   4.770   1.100   9.864 -0.4746  0.4155 -0.1808
  772MOL0     N 4136   5.401   0.821   9.519  0.1993  0.0083  0.5832
  772MOL0     N 4137   5.492   0.748   9.456 -0.7259 -0.0239 -0.1578
  772MOL0     C 4138   6.677   1.165   9.017  0.1879  0.5123  0.3872
  772MOL0     C 4139   6.796   1.224   8.972 -0.4496 -0.5702 -0.2816
  772MOL0     C 4140   7.098   1.490   8.817 -0.2098 -0.3537  1.0521
  772MOL0     C 4141   7.226   1.514   8.868  0.7722 -0.7059  0.1117
  772MOL0     C 4142   7.330   1.543   8.777  1.3077 -0.7895  0.8017
  772MOL0     C 4143   7.308   1.557   8.633  0.8943 -0.1817  0.1940
  772MOL0     O 4144   7.422   1.557   8.563 -0.2076  0.1782  0.2711
  772MOL0     C 4145   7.431   1.521   8.425 -0.1847  0.5240  0.0920
  772MOL0     C 4146   7.455   1.372   8.420  0.2926 -0.1758  0.0814
  772MOL0     C 4147   7.589   1.338   8.485 -0.2793  0.3619 -0.4013
  772MOL0     C 4148   7.570   1.265   8.622 -0.2746  0.0071  0.2450
  772MOL0     C 4149   7.702   1.228   8.682  1.1489 -0.1237 -0.0747
  772MOL0     C 4150   7.798   1.188   8.743 -0.1346  0.3222 -0.3292
  772MOL0     C 4151   7.178   1.542   8.579  0.6108 -0.3142  0.4445
  772MOL0     C 4152   7.077   1.511   8.676  0.9872  0.4369 -0.0169
  772MOL0     H 4153   6.636   1.492   8.833 -2.9123 -0.5614 -0.6588
  772MOL0     H 4154   6.446   1.377   8.901  0.9427  1.0924  0.2275
  772MOL0     H 4155   6.419   1.289   9.208 -1.3087 -0.2723  1.9162
  772MOL0     H 4156   6.291   1.313   9.084  1.2344 -0.0558 -0.6810
  772MOL0     H 4157   6.316   1.088   9.297 -2.4469 -2.7299 -1.3292
  772MOL0     H 4158   6.206   1.224   9.303 -0.5101 -0.1526  0.6385
  772MOL0     H 4159   6.083   1.154   9.125  0.4011  1.1562  0.0216
  772MOL0     H 4160   6.193   1.016   9.085  2.0535  0.0589  1.5241
  772MOL0     H 4161   6.151   0.917   9.312 -0.0551 -1.1541 -0.7729
  772MOL0     H 4162   6.036   1.042   9.348  0.9410 -1.3260  0.9805
  772MOL0     H 4163   5.900   0.961   9.134 -1.0685 -0.7266  0.3351
  772MOL0     H 4164   6.036   0.845   9.097 -0.1951  0.5538 -0.9769
  772MOL0     H 4165   5.893   0.710   9.200 -0.9448  0.2510  0.0844
  772MOL0     H 4166   5.992   0.756   9.340 -3.3660  0.1609  2.6201
  772MOL0     H 4167   5.822   0.935   9.381 -0.3102  1.4337 -4.3933
  772MOL0     H 4168   5.718   0.843   9.267  0.6242  2.2992 -0.7938
  772MOL0     H 4169   5.834   0.738   9.533 -0.9645  1.1839 -0.7061
  772MOL0     H 4170   5.765   0.635   9.411 -1.3350  0.5008 -2.9781
  772MOL0     H 4171   5.683   0.930   9.643  0.9000 -1.7832  2.2554
  772MOL0     H 4172   5.444   0.974   9.805  3.2955  0.8469 -0.2739
  772MOL0     H 4173   5.468   1.096   9.684 -1.4012  0.6354 -1.3177
  772MOL0     H 4174   5.228   1.024   9.587  3.1248  1.3766  0.0110
  772MOL0     H 4175   5.212   1.092   9.744  1.0442  1.0197 -1.0140
  772MOL0     H 4176   5.197   0.877   9.860  1.0064  0.6439 -0.6334
  772MOL0     H 4177   5.226   0.805   9.703 -1.4926 -1.3721  0.7167
  772MOL0     H 4178   5.001   0.790   9.737  0.4369 -0.4918  3.2361
  772MOL0     H 4179   5.025   0.927   9.618 -0.7135 -0.4343 -0.2243
  772MOL0     H 4180   4.817   0.868   9.623  0.6068  1.2438  0.6069
  772MOL0     H 4181   4.629   0.791   9.508  0.6417  0.7080  0.0729
  772MOL0     H 4182   4.513   0.750   9.625 -0.0327 -0.1525  1.0194
  772MOL0     H 4183   4.485   0.891   9.510 -1.3502 -1.2208  1.1908
  772MOL0     H 4184   4.118   0.965   9.756  0.7745  1.0875  1.2940
  772MOL0     H 4185   3.890   1.056   9.720  0.9993  1.0720  1.4787
  772MOL0     H 4186   3.720   1.044   9.570  2.6244 -0.7550 -0.4855
  772MOL0     H 4187   3.698   1.194   9.668 -1.7140  2.2701 -1.5377
  772MOL0     H 4188   3.501   1.136   9.528  0.0940  0.8201  0.6687
  772MOL0     H 4189   3.578   1.297   9.491  0.1143  0.1104 -0.4180
  772MOL0     H 4190   3.688   1.185   9.283  0.1748  1.3471  1.2089
  772MOL0     H 4191   3.515   1.202   9.272  1.6112  2.1043 -0.6564
  772MOL0     H 4192   3.688   0.956   9.351  0.1661 -1.5730 -0.9559
  772MOL0     H 4193   3.516   0.952   9.379  0.1775 -1.2127 -0.8481
  772MOL0     H 4194   3.631   0.996   9.095 -2.1611  0.9514 -1.4393
  772MOL0     H 4195   3.464   0.989   9.138  0.4088  1.2942  0.9488
  772MOL0     H 4196   3.539   0.782   9.041 -0.7882 -1.0875 -0.0538
  772MOL0     H 4197   3.663   0.761   9.170  0.5102  4.0173  2.6732
  772MOL0     H 4198   3.356   0.756   9.185  0.8978  2.0359 -0.0541
  772MOL0     H 4199   3.457   0.755   9.325 -3.8908  0.8012  0.0983
  772MOL0     H 4200   3.395   0.507   9.264  0.2899 -2.3846 -1.0913
  772MOL0     H 4201   3.569   0.546   9.238  1.0406  2.9527 -2.2884
  772MOL0     H 4202   4.023   1.266   9.374 -1.1981  0.7108  0.0078
  772MOL0     H 4203   4.248   1.192   9.408  0.1211  1.4504  0.3461
  772MOL0     H 4204   4.592   1.190   9.899  0.0264  0.8339 -1.3465
  772MOL0     H 4205   4.821   1.170   9.928  0.9581 -0.4120 -0.3756
  772MOL0     H 4206   6.690   1.070   9.068  3.1109  0.4685 -0.3105
  772MOL0     H 4207   6.891   1.171   8.977 -0.1811 -0.2569 -1.6483
  772MOL0     H 4208   7.262   1.490   8.967  1.6943 -0.4832 -0.1596
  772MOL0     H 4209   7.430   1.548   8.820  3.0536 -0.6700 -2.9356
  772MOL0     H 4210   7.340   1.541   8.368  0.3700  1.7104 -0.4246
  772MOL0     H 4211   7.512   1.577   8.378 -1.0386 -0.0576 -2.2118
  772MOL0     H 4212   7.460   1.334   8.317 -1.2018 -0.2900  0.0347
  772MOL0     H 4213   7.376   1.313   8.468  1.2741 -3.1486 -1.6705
  772MOL0     H 4214   7.644   1.432   8.497 -2.9052  1.9355  0.1541
  772MOL0     H 4215   7.634   1.270   8.412 -0.8453  1.7962 -2.1767
  772MOL0     H 4216   7.505   1.177   8.628 -2.2930  1.3581 -0.6810
  772MOL0     H 4217   7.531   1.338   8.693 -0.0243  0.8461 -0.4699
  772MOL0     H 4218   7.873   1.134   8.797 -1.8271 -0.5567  1.2707
  772MOL0     H 4219   7.163   1.554   8.473  2.1785  2.0333  0.4218
  772MOL0     H 4220   6.974   1.503   8.645  0.4696 -0.7893  1.8549
  773MOL0     O 4221   9.136   1.442   7.062 -0.0895 -0.0491 -0.8298
  773MOL0     C 4222   9.168   1.492   6.958 -0.2240  0.4922  0.4459
  773MOL0     O 4223   9.100   1.481   6.838 -0.7217  0.3527 -0.2684
  773MOL0     C 4224   8.986   1.405   6.841  0.5018  0.1283 -0.3497
  773MOL0     C 4225   8.862   1.460   6.882 -0.2086 -0.1211  0.0092
  773MOL0     C 4226   8.745   1.376   6.871 -0.1544  0.4462  0.5181
  773MOL0     C 4227   8.746   1.248   6.824  0.3477 -0.8382 -0.2406
  773MOL0     O 4228   8.639   1.165   6.806 -0.7824  0.2771 -0.7898
  773MOL0     C 4229   8.512   1.223   6.800  0.9230  0.3297  0.1661
  773MOL0     C 4230   8.420   1.136   6.725  0.7505  0.6814 -1.0743
  773MOL0     C 4231   8.398   0.995   6.796  0.1844 -0.4785 -0.2749
  773MOL0     C 4232   8.276   0.921   6.730  0.3256 -0.0728 -0.6440
  773MOL0     C 4233   8.147   0.966   6.790 -0.6584  0.9839  0.3349
  773MOL0     C 4234   8.027   0.952   6.695  0.0901 -0.0242  0.0434
  773MOL0     C 4235   7.910   1.025   6.752 -0.4536 -0.1458 -0.5328
  773MOL0     C 4236   7.840   0.939   6.863 -0.1472 -0.0159  0.0700
  773MOL0     N 4237   7.743   1.027   6.921  0.3557 -0.4592  0.7860
  773MOL0     C 4238   7.744   1.087   7.044  0.3686 -0.5661 -0.4487
  773MOL0     C 4239   7.623   1.144   7.064  0.1377 -0.3887 -0.4369
  773MOL0     C 4240   7.569   1.221   7.180  0.1985  0.8455  0.7833
  773MOL0     C 4241   7.490   1.123   7.274  0.5480 -0.0469 -0.4471
  773MOL0     C 4242   7.365   1.058   7.211  0.9936 -0.4780  0.2721
  773MOL0     C 4243   7.227   1.125   7.240 -0.2403  0.0876 -0.6617
  773MOL0     O 4244   7.224   1.269   7.222 -0.1853 -0.0205 -0.0249
  773MOL0     C 4245   7.117   1.347   7.249  0.0738  0.1029  0.5920
  773MOL0     C 4246   7.118   1.483   7.209 -0.0039 -0.5933  0.1218
  773MOL0     C 4247   7.003   1.565   7.218 -0.2547 -0.2774  0.4405
  773MOL0     C 4248   7.024   1.702   7.165 -0.6236 -0.2525 -0.0320
  773MOL0     C 4249   6.885   1.507   7.264 -0.0555  0.0997 -0.4379
  773MOL0     C 4250   6.759   1.583   7.278 -0.2798 -0.7597  0.1801
  773MOL0     O 4251   6.691   1.603   7.163  0.1056  0.7412  0.3574
  773MOL0     C 4252   6.589   1.693   7.178 -0.2468  0.4395  0.4051
  773MOL0     C 4253   6.619   1.829   7.217  0.0971  0.1636 -0.2079
  773MOL0     C 4254   6.512   1.920   7.229 -0.6956 -0.0540  0.5453
  773MOL0     C 4255   6.389   1.879   7.190 -0.0923 -0.5041  0.5275
  773MOL0     O 4256   6.282   1.974   7.202 -0.2849 -0.0237  0.4875
  773MOL0     C 4257   6.308   2.114   7.163 -0.2936  0.0415 -0.5221
  773MOL0     C 4258   6.190   2.190   7.129  0.1409  0.0045  0.3720
  773MOL0     C 4259   6.116   2.141   7.007  0.1502 -0.3060 -0.0062
  773MOL0     C 4260   5.986   2.221   6.978 -1.0209  0.4685  1.0486
  773MOL0     C 4261   5.922   2.155   6.846  0.5647 -0.2431 -0.2718
  773MOL0     C 4262   5.799   2.231   6.798  0.0431  0.4552  0.6639
  773MOL0     C 4263   5.709   2.141   6.710  0.4459 -0.7758  0.2725
  773MOL0     C 4264   5.612   2.234   6.631 -0.5637 -0.3038 -0.3527
  773MOL0    Cl 4265   5.710   2.323   6.502 -0.0190  0.4391  0.1798
  773MOL0     C 4266   6.364   1.749   7.132  1.0883 -0.1446  0.2449
  773MOL0     C 4267   6.460   1.653   7.136  1.0620 -0.7295 -0.5254
  773MOL0     O 4268   6.723   1.610   7.392  0.1720 -0.1069  0.2374
  773MOL0     C 4269   6.887   1.372   7.315  0.8100  0.4098  0.1670
  773MOL0     C 4270   6.995   1.291   7.308  0.3052 -0.2441 -0.0152
  773MOL0     N 4271   7.554   1.126   6.950  0.1440 -0.8135  0.3434
  773MOL0     N 4272   7.619   1.055   6.861 -0.2561  0.2858 -1.4964
  773MOL0     C 4273   8.876   1.204   6.774  0.2277  0.4660  0.7841
  773MOL0     C 4274   8.986   1.279   6.788 -0.1610 -0.0110 -0.7395
  773MOL0     C 4275   9.305   1.549   6.950 -0.1179 -0.2385 -0.2157
  773MOL0     C 4276   9.369   1.559   6.825  0.1590 -1.3840 -0.6534
  773MOL0     C 4277   9.504   1.601   6.820 -0.0692 -0.0494 -0.3814
  773MOL0     C 4278   9.577   1.624   6.930 -0.4927  0.5802  0.3196
  773MOL0     O 4279   9.703   1.663   6.903  0.0399 -0.7700 -0.0167
  773MOL0     C 4280   9.783   1.721   7.004 -0.5963 -0.2531  0.0722
  773MOL0     C 4281   9.921   1.762   6.938 -0.1541  0.2878  0.4219
  773MOL0     C 4282  10.026   1.781   7.055 -0.4334 -0.3148 -0.2189
  773MOL0     C 4283  10.177   1.766   7.017  0.5717 -0.6118  0.6661
  773MOL0     C 4284  10.204   1.652   6.936 -0.7716  0.7957  0.3130
  773MOL0     C 4285  10.223   1.558   6.861 -0.1663 -0.6176  0.4031
  773MOL0     C 4286   9.516   1.599   7.055 -0.2164  0.7315  0.1231
  773MOL0     C 4287   9.381   1.557   7.065 -0.0190 -0.6462  0.6941
  773MOL0     H 4288   8.860   1.557   6.931 -2.3492 -0.0288 -0.1581
  773MOL0     H 4289   8.660   1.417   6.925  1.0800  2.7731  0.8207
  773MOL0     H 4290   8.467   1.227   6.900  1.1056 -0.0453  0.2677
  773MOL0     H 4291   8.514   1.320   6.751 -0.0167  0.2044 -0.1251
  773MOL0     H 4292   8.325   1.190   6.729  1.4168  1.8297  2.0900
  773MOL0     H 4293   8.445   1.126   6.619 -2.6666  1.1847 -2.0350
  773MOL0     H 4294   8.491   0.940   6.780  0.3356 -0.3879  0.2623
  773MOL0     H 4295   8.387   1.007   6.905  1.5922 -1.0203 -0.0550
  773MOL0     H 4296   8.272   0.954   6.625  1.1454  3.0253  0.1938
  773MOL0     H 4297   8.285   0.813   6.746 -0.4218 -0.0021  0.3248
  773MOL0     H 4298   8.137   0.908   6.883  1.5146 -0.5654 -0.3108
  773MOL0     H 4299   8.159   1.068   6.828  1.2096  0.7638  0.4069
  773MOL0     H 4300   8.042   0.994   6.595  2.0762  0.1125  0.3551
  773MOL0     H 4301   8.016   0.844   6.684  2.6549 -0.3121 -0.3501
  773MOL0     H 4302   7.939   1.122   6.794  1.4479 -1.0035  0.2708
  773MOL0     H 4303   7.841   1.041   6.669 -0.5209 -1.2988 -0.7104
  773MOL0     H 4304   7.915   0.903   6.934  0.2260  0.0971 -0.2555
  773MOL0     H 4305   7.782   0.859   6.817  0.3362 -0.4756  0.2497
  773MOL0     H 4306   7.820   1.092   7.121 -1.0531  0.8529  0.9438
  773MOL0     H 4307   7.652   1.242   7.248  1.7289 -0.2772 -0.6550
  773MOL0     H 4308   7.510   1.307   7.147 -1.8970  0.0030  2.2052
  773MOL0     H 4309   7.455   1.167   7.369  0.6717  1.3601 -1.0291
  773MOL0     H 4310   7.563   1.047   7.304  0.0944  0.4602  2.2675
  773MOL0     H 4311   7.368   0.951   7.230  2.8944 -0.7526 -1.2812
  773MOL0     H 4312   7.373   1.054   7.102  2.6207 -1.0215  0.3857
  773MOL0     H 4313   7.202   1.101   7.344  0.7852 -2.3324 -0.9120
  773MOL0     H 4314   7.154   1.084   7.170 -2.6067  2.7909  0.0363
  773MOL0     H 4315   7.211   1.518   7.166 -0.2012 -0.5730 -0.2968
  773MOL0     H 4316   7.123   1.747   7.176 -2.3154  4.2280 -0.7049
  773MOL0     H 4317   7.022   1.686   7.057  2.6980  2.1210 -0.6093
  773MOL0     H 4318   6.948   1.778   7.187  0.4381  0.8225 -0.0069
  773MOL0     H 4319   6.714   1.870   7.249 -1.7629  3.5472  1.5803
  773MOL0     H 4320   6.535   2.019   7.266  2.3624 -0.8767  1.1602
  773MOL0     H 4321   6.360   2.176   7.236  1.7452  1.5137 -3.0575
  773MOL0     H 4322   6.376   2.111   7.077  0.3642  0.1034 -0.0131
  773MOL0     H 4323   6.118   2.195   7.211 -2.4768 -3.3741 -1.4355
  773MOL0     H 4324   6.225   2.291   7.106  1.2886 -0.1631  1.2462
  773MOL0     H 4325   6.097   2.035   7.022 -1.0365 -0.3036 -1.2887
  773MOL0     H 4326   6.178   2.151   6.917 -0.5539  1.6493 -0.3238
  773MOL0     H 4327   5.912   2.226   7.058 -0.3670 -0.4458  1.7235
  773MOL0     H 4328   6.025   2.321   6.957  2.7882 -1.3278 -1.5274
  773MOL0     H 4329   5.893   2.051   6.862 -0.0685 -0.4006 -2.1805
  773MOL0     H 4330   5.992   2.143   6.764 -0.5179 -1.4444 -1.0606
  773MOL0     H 4331   5.736   2.262   6.882 -0.7488  2.5163 -0.6073
  773MOL0     H 4332   5.830   2.318   6.739 -1.2133  1.7410  1.8185
  773MOL0     H 4333   5.663   2.063   6.771  3.3214 -1.0765  2.2992
  773MOL0     H 4334   5.771   2.088   6.637  0.8954 -1.1472  0.9130
  773MOL0     H 4335   5.569   2.311   6.696  1.8099  1.0910 -0.3481
  773MOL0     H 4336   5.530   2.179   6.583 -0.4667 -0.2107 -0.6253
  773MOL0     H 4337   6.269   1.716   7.091  2.3911 -1.9846 -1.5143
  773MOL0     H 4338   6.437   1.554   7.099 -4.0911  1.1360 -3.4021
  773MOL0     H 4339   6.797   1.324   7.352 -0.2031  1.5083 -0.8031
  773MOL0     H 4340   6.991   1.187   7.337 -0.9415 -1.0009 -2.5922
  773MOL0     H 4341   8.886   1.108   6.725 -2.3670  1.3800 -1.8396
  773MOL0     H 4342   9.079   1.235   6.754 -1.0049 -0.1478 -3.0944
  773MOL0     H 4343   9.324   1.535   6.729 -0.3935 -2.1369 -0.2107
  773MOL0     H 4344   9.560   1.609   6.728 -1.1106 -2.9714 -1.3821
  773MOL0     H 4345   9.742   1.816   7.041 -1.6560 -0.1427 -1.2651
  773MOL0     H 4346   9.797   1.649   7.084  1.5770 -0.6570 -0.6049
  773MOL0     H 4347   9.904   1.853   6.880 -0.8398 -1.0686 -1.5855
  773MOL0     H 4348   9.956   1.688   6.865  1.7577  2.1691 -0.6747
  773MOL0     H 4349  10.007   1.702   7.128 -1.4393  0.7086  0.6692
  773MOL0     H 4350  10.012   1.879   7.102 -0.9293 -1.1789  1.5030
  773MOL0     H 4351  10.243   1.768   7.104  2.4199  1.0081 -0.6870
  773MOL0     H 4352  10.202   1.858   6.962 -2.2302 -0.3498 -0.3435
  773MOL0     H 4353  10.239   1.468   6.804  3.9574 -1.4266  2.4954
  773MOL0     H 4354   9.572   1.612   7.147  1.2971 -0.0189 -0.6621
  773MOL0     H 4355   9.332   1.552   7.162 -2.6380  0.9060 -0.4335
  774MOL0     O 4356   9.730   5.792   0.841  0.2717  0.1047 -0.5333
  774MOL0     C 4357   9.757   5.745   0.948  0.6667  0.0753 -0.6749
  774MOL0     O 4358   9.679   5.755   1.066  0.3400  0.3091  0.0134
  774MOL0     C 4359   9.547   5.803   1.059  1.0225 -0.3885 -0.5880
  774MOL0     C 4360   9.495   5.885   1.165  0.6329  0.2380  0.0817
  774MOL0     C 4361   9.360   5.917   1.159  0.2113  0.2389 -0.5385
  774MOL0     C 4362   9.279   5.876   1.050 -0.4956  0.1757 -0.2933
  774MOL0     O 4363   9.151   5.920   1.037  0.6907  0.1293 -0.0477
  774MOL0     C 4364   9.092   5.989   1.150  0.5320 -0.4664  0.6480
  774MOL0     C 4365   8.942   5.988   1.150  0.5808 -0.0435  0.0488
  774MOL0     C 4366   8.886   6.053   1.282 -0.2463  0.1060  0.6638
  774MOL0     C 4367   8.733   6.048   1.295 -0.6824 -0.2173  0.1879
  774MOL0     C 4368   8.674   6.099   1.425 -0.3757 -0.7446  0.4465
  774MOL0     C 4369   8.659   6.252   1.419  0.1942 -0.9156 -0.2579
  774MOL0     C 4370   8.606   6.311   1.561 -0.3592 -0.7091  0.5442
  774MOL0     C 4371   8.558   6.454   1.550 -0.4092 -0.4767 -0.2570
  774MOL0     N 4372   8.432   6.453   1.464 -0.4482  0.8678  0.4329
  774MOL0     C 4373   8.311   6.398   1.491  0.2279 -0.6175 -0.3640
  774MOL0     C 4374   8.235   6.448   1.399  0.2219 -1.0248  0.1637
  774MOL0     C 4375   8.081   6.431   1.393  0.2465 -1.2647  0.9461
  774MOL0     C 4376   8.044   6.291   1.371 -0.6440  1.3866  0.2364
  774MOL0     C 4377   7.893   6.272   1.370 -0.2749  0.0832 -0.5740
  774MOL0     C 4378   7.851   6.127   1.327 -0.6291  0.8510 -0.1231
  774MOL0     O 4379   7.715   6.119   1.323  0.3162 -1.0202  0.3097
  774MOL0     C 4380   7.653   5.992   1.318 -0.8093  0.5454 -0.1977
  774MOL0     C 4381   7.715   5.862   1.303  0.1510  0.4009  0.2362
  774MOL0     C 4382   7.640   5.741   1.326 -0.4725  0.5525  0.5768
  774MOL0     C 4383   7.705   5.606   1.315  0.2846 -0.0113  0.7743
  774MOL0     C 4384   7.503   5.753   1.360  0.2968 -0.5823  0.6917
  774MOL0     C 4385   7.405   5.638   1.391 -1.2430 -0.4806  0.2829
  774MOL0     O 4386   7.272   5.673   1.405 -0.0943 -0.0288 -0.7036
  774MOL0     C 4387   7.185   5.568   1.420  0.4620 -0.0602 -0.1230
  774MOL0     C 4388   7.075   5.565   1.332  0.3881 -0.2220 -0.0688
  774MOL0     C 4389   6.966   5.488   1.359 -0.8936  0.4758  0.1603
  774MOL0     C 4390   6.965   5.410   1.468  0.6672  0.2560 -0.1379
  774MOL0     O 4391   6.843   5.341   1.499 -0.3979  0.2849  0.3405
  774MOL0     C 4392   6.808   5.310   1.634 -0.4359 -0.1313 -0.5607
  774MOL0     C 4393   6.662   5.329   1.656  0.4649 -0.0412 -0.6281
  774MOL0     C 4394   6.574   5.244   1.562 -0.3774 -0.5139  0.7896
  774MOL0     C 4395   6.422   5.277   1.585 -0.8793  0.6426  0.5140
  774MOL0     C 4396   6.334   5.185   1.506  0.0533  0.3739 -0.0683
  774MOL0     C 4397   6.188   5.228   1.511 -0.1217 -0.3570  0.8845
  774MOL0     C 4398   6.119   5.199   1.638  0.4240 -0.5723 -0.0020
  774MOL0     C 4399   5.975   5.172   1.625  0.0464 -0.3064  0.4765
  774MOL0    Cl 4400   5.872   5.312   1.560 -0.1770  0.2576 -0.2690
  774MOL0     C 4401   7.079   5.409   1.554  0.0019  0.4427 -0.0707
  774MOL0     C 4402   7.193   5.484   1.528 -0.5544 -0.0942 -0.8717
  774MOL0     O 4403   7.447   5.526   1.384 -0.1770 -0.4936  0.0089
  774MOL0     C 4404   7.446   5.883   1.364 -0.2224 -0.4272 -0.3485
  774MOL0     C 4405   7.519   6.000   1.351  0.4503  0.8868 -0.2324
  774MOL0     N 4406   8.302   6.531   1.311  0.2873  0.2064 -0.0397
  774MOL0     N 4407   8.426   6.531   1.354 -0.1999 -0.5449  0.3796
  774MOL0     C 4408   9.335   5.794   0.956  0.4411 -0.3745 -0.4484
  774MOL0     C 4409   9.466   5.753   0.962  1.4750 -0.1471  0.3959
  774MOL0     C 4410   9.896   5.699   0.955  0.6562 -0.0522  0.2522
  774MOL0     C 4411   9.991   5.715   0.853  0.2945 -0.5508 -0.1635
  774MOL0     C 4412  10.116   5.659   0.864 -1.0190  0.6295 -0.3793
  774MOL0     C 4413  10.151   5.591   0.980 -0.0629  0.1212  0.0642
  774MOL0     O 4414  10.283   5.549   0.990  0.3386  0.1220 -0.1955
  774MOL0     C 4415  10.324   5.479   1.115  0.0322  0.4449  0.2626
  774MOL0     C 4416  10.477   5.467   1.099  0.1095 -0.2168  0.0082
  774MOL0     C 4417  10.526   5.410   0.964  0.1840 -0.3628  0.1284
  774MOL0     C 4418  10.676   5.382   0.964  0.4672 -0.5575 -0.7189
  774MOL0     C 4419  10.721   5.327   0.838 -0.1413 -0.3096 -0.4889
  774MOL0     C 4420  10.768   5.279   0.738 -0.0938 -0.0053  0.5425
  774MOL0     C 4421  10.055   5.567   1.080 -0.6202 -0.6032 -0.5465
  774MOL0     C 4422   9.934   5.630   1.069  0.7306 -0.3556 -0.5434
  774MOL0     H 4423   9.550   5.907   1.256 -0.1136 -0.7696  0.7880
  774MOL0     H 4424   9.321   5.974   1.242  0.9060 -0.9800  0.6697
  774MOL0     H 4425   9.117   5.932   1.240 -3.6184 -1.3500  1.4592
  774MOL0     H 4426   9.133   6.090   1.148  1.5183 -0.8534 -1.7137
  774MOL0     H 4427   8.902   6.031   1.057  2.4788  2.5309  0.3081
  774MOL0     H 4428   8.908   5.884   1.150 -4.0322  1.2244 -1.2265
  774MOL0     H 4429   8.943   5.997   1.357  2.0737  0.0631 -1.0032
  774MOL0     H 4430   8.926   6.153   1.302  0.3048  0.3691 -1.5347
  774MOL0     H 4431   8.694   6.119   1.220  0.3765  1.8055  1.4710
  774MOL0     H 4432   8.708   5.943   1.279  1.7515 -1.1682  2.0138
  774MOL0     H 4433   8.575   6.054   1.439  0.9346 -3.5806  1.5221
  774MOL0     H 4434   8.735   6.070   1.511 -0.1105  1.4762  1.0626
  774MOL0     H 4435   8.756   6.294   1.391  0.1908  0.8739  2.0294
  774MOL0     H 4436   8.578   6.270   1.348  0.7262 -0.9373 -0.8711
  774MOL0     H 4437   8.527   6.250   1.605 -1.4432 -0.2229 -0.6450
  774MOL0     H 4438   8.690   6.317   1.630 -1.2445 -0.8911  1.6745
  774MOL0     H 4439   8.639   6.511   1.503 -0.8530  0.8896  0.5816
  774MOL0     H 4440   8.545   6.495   1.650 -1.4830 -3.2264  0.8212
  774MOL0     H 4441   8.285   6.333   1.574 -0.4508  2.1663  1.7549
  774MOL0     H 4442   8.031   6.461   1.486 -1.3695  1.8535 -0.7443
  774MOL0     H 4443   8.030   6.499   1.324 -3.0860  0.2188  4.4782
  774MOL0     H 4444   8.097   6.228   1.442  0.6245  0.5162 -1.4170
  774MOL0     H 4445   8.087   6.262   1.275 -1.0494  3.4077 -0.6120
  774MOL0     H 4446   7.855   6.355   1.309  0.7648  0.1419 -1.1622
  774MOL0     H 4447   7.852   6.286   1.471  0.8778  3.6414 -0.4617
  774MOL0     H 4448   7.894   6.047   1.390  1.5393 -0.0868 -2.6001
  774MOL0     H 4449   7.899   6.100   1.232  0.3605 -2.2298  1.1227
  774MOL0     H 4450   7.818   5.872   1.269 -0.2618  0.0927 -1.1351
  774MOL0     H 4451   7.690   5.572   1.418 -0.5873  1.5894  1.2182
  774MOL0     H 4452   7.666   5.545   1.233  1.0387  1.0505 -0.4188
  774MOL0     H 4453   7.813   5.605   1.301  0.0076 -2.1071 -2.1189
  774MOL0     H 4454   7.066   5.643   1.256  3.8181 -1.0536 -1.5198
  774MOL0     H 4455   6.883   5.508   1.292  1.0285  4.8594 -1.2789
  774MOL0     H 4456   6.845   5.212   1.666  1.3233  0.8344  0.5584
  774MOL0     H 4457   6.857   5.384   1.699  2.2174 -1.5490 -0.7898
  774MOL0     H 4458   6.645   5.298   1.760  0.1523  0.0528 -0.6517
  774MOL0     H 4459   6.643   5.436   1.643 -0.7190 -0.1025  0.4198
  774MOL0     H 4460   6.588   5.140   1.591 -2.0277 -0.9137  0.2611
  774MOL0     H 4461   6.594   5.258   1.455 -2.5572 -1.0060  0.2629
  774MOL0     H 4462   6.404   5.272   1.692  0.1124  0.3808  0.6813
  774MOL0     H 4463   6.406   5.381   1.554  0.4025  0.6909 -0.0793
  774MOL0     H 4464   6.331   5.082   1.544 -0.5091 -0.0027 -1.0832
  774MOL0     H 4465   6.370   5.185   1.403  2.5463 -1.7395  0.6874
  774MOL0     H 4466   6.173   5.334   1.489 -2.6768 -0.8391  0.0435
  774MOL0     H 4467   6.129   5.170   1.440  1.2709 -0.9325  0.1460
  774MOL0     H 4468   6.128   5.291   1.697 -0.5234  0.2557 -1.1244
  774MOL0     H 4469   6.165   5.109   1.681  0.6461 -1.0711 -1.2459
  774MOL0     H 4470   5.932   5.146   1.722  0.7906  1.7535  1.4132
  774MOL0     H 4471   5.963   5.083   1.562 -2.2607  0.9661 -1.0339
  774MOL0     H 4472   7.090   5.340   1.637 -0.3400  0.1547 -0.2672
  774MOL0     H 4473   7.281   5.496   1.591  0.3289  2.1857 -2.4012
  774MOL0     H 4474   7.339   5.903   1.370  0.3413  3.2215  0.0514
  774MOL0     H 4475   7.470   6.097   1.355 -0.5798  0.3642  0.3501
  774MOL0     H 4476   9.292   5.763   0.861  0.3133  1.8195 -1.1730
  774MOL0     H 4477   9.492   5.686   0.880  0.1007 -1.2085  0.7934
  774MOL0     H 4478   9.969   5.766   0.760 -0.9429 -1.1364 -0.2175
  774MOL0     H 4479  10.192   5.653   0.787  0.2761 -2.6376  0.9782
  774MOL0     H 4480  10.295   5.524   1.210  1.2900 -3.2545  2.5977
  774MOL0     H 4481  10.283   5.378   1.126 -0.1830  0.7244  2.5104
  774MOL0     H 4482  10.500   5.395   1.177 -0.5307  0.2854  0.6784
  774MOL0     H 4483  10.525   5.564   1.115  0.3008 -0.5008  1.2685
  774MOL0     H 4484  10.502   5.473   0.878  0.8748 -1.3320 -0.7963
  774MOL0     H 4485  10.475   5.317   0.940  0.8763  0.0386 -3.3122
  774MOL0     H 4486  10.690   5.314   1.048  0.4211  3.0472  2.4301
  774MOL0     H 4487  10.748   5.457   0.999  0.0346  0.1147 -1.2549
  774MOL0     H 4488  10.800   5.244   0.642 -1.2110 -1.0474  0.5324
  774MOL0     H 4489  10.068   5.516   1.175 -0.8071 -3.1712 -1.8221
  774MOL0     H 4490   9.862   5.634   1.150  1.3583 -0.4694  0.0318
  775MOL0     O 4491   8.308   6.164   7.910 -0.1054  0.0196  0.3066
  775MOL0     C 4492   8.373   6.165   7.806 -0.1938 -0.0451  0.1628
  775MOL0     O 4493   8.358   6.082   7.702  0.7750  0.4641 -0.4726
  775MOL0     C 4494   8.263   5.985   7.700  0.8374 -0.5439  1.0438
  775MOL0     C 4495   8.133   6.012   7.739  0.2383  0.1860 -0.6358
  775MOL0     C 4496   8.030   5.915   7.736 -0.4305  0.7160 -0.6102
  775MOL0     C 4497   8.056   5.786   7.687 -0.0147  0.9597  0.3087
  775MOL0     O 4498   7.955   5.689   7.683  0.1671  0.0028 -0.0270
  775MOL0     C 4499   7.994   5.546   7.688  0.5858  0.0839 -0.0487
  775MOL0     C 4500   7.872   5.479   7.744  0.8281  0.2110 -0.2015
  775MOL0     C 4501   7.758   5.467   7.641  0.3223  0.1574 -0.0210
  775MOL0     C 4502   7.647   5.364   7.675 -0.5553 -0.0581  0.3059
  775MOL0     C 4503   7.562   5.331   7.554 -0.3490 -0.0873  0.4519
  775MOL0     C 4504   7.417   5.308   7.593 -0.2491  0.5870 -0.1473
  775MOL0     C 4505   7.338   5.259   7.476  0.6391  0.0429 -0.2636
  775MOL0     C 4506   7.192   5.263   7.513  0.8621  0.4527 -0.4720
  775MOL0     N 4507   7.111   5.249   7.389  0.5928 -0.2666  0.1883
  775MOL0     C 4508   7.083   5.130   7.326  0.0570 -0.4270 -0.6023
  775MOL0     C 4509   7.020   5.163   7.209 -0.7777  0.0074 -0.6466
  775MOL0     C 4510   6.957   5.065   7.120 -0.1277 -0.7376  0.1641
  775MOL0     C 4511   6.809   5.080   7.149 -0.5041  0.1912  0.2559
  775MOL0     C 4512   6.719   5.003   7.057 -0.2831  0.7499  0.5110
  775MOL0     C 4513   6.571   5.033   7.082 -0.0669  0.6099 -0.5273
  775MOL0     O 4514   6.483   4.968   6.987  0.2711 -0.8395 -0.6000
  775MOL0     C 4515   6.365   5.027   6.967 -0.2730 -0.3227 -0.1859
  775MOL0     C 4516   6.340   5.057   6.836 -0.3233 -0.2150 -0.1924
  775MOL0     C 4517   6.214   5.110   6.798 -1.1443 -0.6880 -0.0778
  775MOL0     C 4518   6.197   5.124   6.643 -0.0592  0.2475 -0.8216
  775MOL0     C 4519   6.113   5.140   6.896 -1.1627 -0.2818 -0.7323
  775MOL0     C 4520   5.979   5.204   6.877 -0.9919 -0.0325  0.2757
  775MOL0     O 4521   5.901   5.226   6.985 -0.4412  0.2698  0.1333
  775MOL0     C 4522   5.781   5.285   6.959  0.1081 -0.3362  0.4364
  775MOL0     C 4523   5.669   5.227   7.008  0.5512 -0.3209  0.4136
  775MOL0     C 4524   5.540   5.282   6.976  0.2652  0.0340  0.9704
  775MOL0     C 4525   5.527   5.404   6.911  0.7543 -0.6613  0.2225
  775MOL0     O 4526   5.395   5.450   6.894  0.7906  0.2009 -0.0984
  775MOL0     C 4527   5.374   5.581   6.949 -0.1924 -0.7453  0.6692
  775MOL0     C 4528   5.232   5.626   6.901  0.7051  0.3484  0.4974
  775MOL0     C 4529   5.211   5.619   6.750  0.2907 -0.4489 -0.0910
  775MOL0     C 4530   5.286   5.738   6.680 -0.1961 -0.2303  0.0823
  775MOL0     C 4531   5.282   5.745   6.528  0.6193 -0.1426 -0.4889
  775MOL0     C 4532   5.140   5.754   6.470  0.5942 -0.4777  0.1480
  775MOL0     C 4533   5.128   5.743   6.319  0.0412  0.3297  0.6082
  775MOL0     C 4534   4.998   5.808   6.261 -0.2792  0.1638  0.2130
  775MOL0    Cl 4535   4.843   5.728   6.285 -0.3357 -0.0225  0.0934
  775MOL0     C 4536   5.644   5.457   6.858 -0.2052  0.1653  0.8764
  775MOL0     C 4537   5.771   5.406   6.885  0.0918  0.5354 -0.7817
  775MOL0     O 4538   5.943   5.224   6.761  0.3806 -0.2052 -0.0640
  775MOL0     C 4539   6.144   5.092   7.027 -0.4947 -0.4471 -0.0603
  775MOL0     C 4540   6.265   5.043   7.061 -0.3156 -0.1588 -0.5942
  775MOL0     N 4541   7.015   5.301   7.204  0.1759  0.4822  0.4229
  775MOL0     N 4542   7.071   5.348   7.306  0.3836 -0.2711  0.5925
  775MOL0     C 4543   8.186   5.763   7.637 -0.3436  0.4751  0.1164
  775MOL0     C 4544   8.279   5.861   7.647 -0.3658 -0.4401  0.6632
  775MOL0     C 4545   8.479   6.263   7.789  0.4411 -0.0009  0.4160
  775MOL0     C 4546   8.510   6.310   7.654  0.2362 -0.5742 -0.2700
  775MOL0     C 4547   8.599   6.416   7.648 -0.6647 -0.3318  0.3733
  775MOL0     C 4548   8.657   6.471   7.758  0.1926 -0.1911 -0.5136
  775MOL0     O 4549   8.754   6.569   7.733  0.5576 -0.1214 -0.7613
  775MOL0     C 4550   8.833   6.631   7.843  0.5755 -0.2769  0.5998
  775MOL0     C 4551   8.927   6.727   7.774 -0.0601 -0.5729  0.0931
  775MOL0     C 4552   9.037   6.783   7.863 -0.3999  0.2069 -0.3569
  775MOL0     C 4553   9.112   6.907   7.805 -0.5340 -0.4581 -0.4097
  775MOL0     C 4554   9.204   6.965   7.914 -0.5333  0.1476  0.4134
  775MOL0     C 4555   9.274   7.001   8.004 -0.9023  0.1626  0.6937
  775MOL0     C 4556   8.626   6.417   7.885 -0.2995 -0.3084  0.1222
  775MOL0     C 4557   8.539   6.315   7.900 -0.5353 -0.0291 -1.0855
  775MOL0     H 4558   8.105   6.113   7.765 -0.4040  0.1265 -1.0504
  775MOL0     H 4559   7.933   5.948   7.771 -0.2911  0.0961  0.3814
  775MOL0     H 4560   8.032   5.500   7.597 -0.3363 -2.0139  0.5432
  775MOL0     H 4561   8.069   5.533   7.767 -1.2148  0.7852  1.8965
  775MOL0     H 4562   7.905   5.387   7.793  1.1001  1.1196  1.4033
  775MOL0     H 4563   7.836   5.540   7.827  1.9614  1.8870 -0.9132
  775MOL0     H 4564   7.711   5.565   7.630 -0.0451 -0.1690 -1.7597
  775MOL0     H 4565   7.801   5.439   7.544  1.3642  0.8818  0.2157
  775MOL0     H 4566   7.688   5.273   7.721  1.8777 -0.4544 -2.3303
  775MOL0     H 4567   7.589   5.413   7.753 -0.1826  0.1740  0.4377
  775MOL0     H 4568   7.559   5.422   7.493 -2.6425 -0.0315  0.5643
  775MOL0     H 4569   7.610   5.242   7.511 -0.7694  0.1636 -0.5573
  775MOL0     H 4570   7.414   5.234   7.674 -2.6202  2.6240  1.7627
  775MOL0     H 4571   7.380   5.400   7.639 -0.9625  0.4037 -0.3567
  775MOL0     H 4572   7.352   5.314   7.383  0.2476  2.2913  0.9417
  775MOL0     H 4573   7.363   5.154   7.460  0.4681 -0.1099  0.4286
  775MOL0     H 4574   7.172   5.355   7.568 -0.7919  0.8465 -1.6297
  775MOL0     H 4575   7.164   5.176   7.574 -0.7036 -0.1626 -1.9750
  775MOL0     H 4576   7.109   5.032   7.364  1.5783 -0.5483 -1.8322
  775MOL0     H 4577   6.982   5.089   7.017  0.3454 -0.2246  0.3971
  775MOL0     H 4578   7.000   4.966   7.140  3.2633  0.4965 -0.3555
  775MOL0     H 4579   6.784   5.186   7.135 -0.4482  0.0280 -1.3198
  775MOL0     H 4580   6.780   5.055   7.251 -2.1693  1.5115  0.1596
  775MOL0     H 4581   6.737   4.895   7.064 -0.8049  0.6839  0.8805
  775MOL0     H 4582   6.758   5.025   6.957  1.1824 -2.4363  0.2709
  775MOL0     H 4583   6.555   5.142   7.077 -1.0741  0.6540  1.9455
  775MOL0     H 4584   6.544   4.994   7.181  0.8397 -0.2122 -0.5961
  775MOL0     H 4585   6.412   5.021   6.763 -0.1811 -1.4785  0.5411
  775MOL0     H 4586   6.130   5.042   6.615 -2.0058  1.2623  0.5776
  775MOL0     H 4587   6.133   5.209   6.618 -1.5047 -0.0589  1.5401
  775MOL0     H 4588   6.290   5.126   6.585  1.2969 -0.1898  1.2401
  775MOL0     H 4589   5.667   5.129   7.056 -1.1838 -1.4761 -1.8252
  775MOL0     H 4590   5.442   5.236   6.985  0.3086 -2.1995 -5.0623
  775MOL0     H 4591   5.377   5.582   7.058 -0.6360  2.2932  0.7426
  775MOL0     H 4592   5.446   5.653   6.909 -0.9983 -1.3863 -2.1784
  775MOL0     H 4593   5.149   5.567   6.942 -0.6846  2.5323  0.9512
  775MOL0     H 4594   5.218   5.730   6.932  2.3185  0.5108  0.7505
  775MOL0     H 4595   5.103   5.628   6.741  0.3675 -1.0471 -2.1349
  775MOL0     H 4596   5.237   5.520   6.711 -1.1399 -0.6992 -0.4480
  775MOL0     H 4597   5.260   5.831   6.731  0.2238  1.8528 -3.2697
  775MOL0     H 4598   5.388   5.708   6.709  0.0485  0.3421 -0.1837
  775MOL0     H 4599   5.329   5.653   6.491 -2.0512 -1.8839  0.1211
  775MOL0     H 4600   5.337   5.835   6.501 -0.4112  0.6223 -0.0995
  775MOL0     H 4601   5.083   5.674   6.517  1.1730 -0.9825 -0.0020
  775MOL0     H 4602   5.101   5.851   6.504  1.0264 -1.0990  2.5607
  775MOL0     H 4603   5.143   5.638   6.294  0.9743  0.6310 -0.2082
  775MOL0     H 4604   5.217   5.796   6.282 -0.5179  0.6000 -0.4124
  775MOL0     H 4605   5.010   5.812   6.153  0.6682 -4.3322 -0.0435
  775MOL0     H 4606   4.992   5.913   6.291 -2.3241 -0.2869  1.5941
  775MOL0     H 4607   5.632   5.552   6.806  0.6911  0.2529  0.7981
  775MOL0     H 4608   5.860   5.462   6.857 -0.9521  2.7243  0.0726
  775MOL0     H 4609   6.078   5.104   7.112  2.2658  1.2253  2.0344
  775MOL0     H 4610   6.276   5.013   7.165  2.3029  0.6798 -0.5389
  775MOL0     H 4611   8.207   5.665   7.594  1.9264  1.7163 -1.8377
  775MOL0     H 4612   8.376   5.833   7.607 -0.7633  1.9267 -2.3356
  775MOL0     H 4613   8.456   6.264   7.572 -0.6268 -0.8877  0.4482
  775MOL0     H 4614   8.626   6.469   7.558 -0.5424  1.6236  1.5031
  775MOL0     H 4615   8.760   6.691   7.898 -0.3169  0.4624 -1.2888
  775MOL0     H 4616   8.883   6.559   7.908  0.5181 -0.1386  0.8009
  775MOL0     H 4617   8.873   6.809   7.724  3.5974  2.8864  1.3269
  775MOL0     H 4618   8.977   6.664   7.701  1.9605 -0.6364  1.4632
  775MOL0     H 4619   9.106   6.698   7.868 -0.9838 -0.2432  0.1860
  775MOL0     H 4620   8.990   6.807   7.958  1.2399  1.1832  0.2472
  775MOL0     H 4621   9.034   6.982   7.787 -1.4417 -0.8247  1.7350
  775MOL0     H 4622   9.154   6.878   7.708 -0.0252 -1.0179 -0.0319
  775MOL0     H 4623   9.346   7.037   8.075 -1.2225  1.0356  0.5902
  775MOL0     H 4624   8.674   6.467   7.969 -0.8124  4.3124 -1.9877
  775MOL0     H 4625   8.508   6.267   7.992 -0.8978 -2.6756 -2.5030
  776MOL0     O 4626  10.247   4.503   6.918 -0.6699 -0.7042 -0.8575
  776MOL0     C 4627  10.305   4.414   6.862  0.0853  0.2799 -0.4432
  776MOL0     O 4628  10.276   4.278   6.886  0.5014  0.3623  0.0794
  776MOL0     C 4629  10.164   4.253   6.964 -1.0535 -0.8193 -0.1888
  776MOL0     C 4630  10.047   4.320   6.947  0.0501  0.3138 -0.3513
  776MOL0     C 4631   9.929   4.282   7.015  0.1482  0.2793 -0.9122
  776MOL0     C 4632   9.926   4.167   7.100  0.3511  0.1415  0.2732
  776MOL0     O 4633   9.803   4.128   7.148  0.3914 -0.1637 -0.3759
  776MOL0     C 4634   9.765   3.994   7.164  0.2914 -0.1247 -0.6344
  776MOL0     C 4635   9.676   3.958   7.042  0.3265 -0.0302 -0.6764
  776MOL0     C 4636   9.615   3.817   7.046 -0.2872  0.1610 -0.2920
  776MOL0     C 4637   9.536   3.780   7.175 -0.3120  0.3506  0.3380
  776MOL0     C 4638   9.409   3.700   7.131  0.4520 -0.1719  0.1985
  776MOL0     C 4639   9.344   3.640   7.251  0.7535  0.5473  0.4691
  776MOL0     C 4640   9.217   3.559   7.229  0.0185  0.9236 -0.0849
  776MOL0     C 4641   9.246   3.416   7.203 -0.7435 -0.1306  1.4029
  776MOL0     N 4642   9.129   3.328   7.209  0.2416  0.1899  0.0217
  776MOL0     C 4643   9.050   3.288   7.104  0.7506  0.4019  0.5086
  776MOL0     C 4644   8.933   3.247   7.161 -0.6925 -0.0107  0.4383
  776MOL0     C 4645   8.829   3.198   7.070  0.7286  0.4001  0.6104
  776MOL0     C 4646   8.771   3.077   7.135  0.6780  0.1173 -0.3877
  776MOL0     C 4647   8.654   3.015   7.045 -0.5678 -0.1769 -0.0618
  776MOL0     C 4648   8.525   3.091   7.045  0.2326 -0.4439 -0.6247
  776MOL0     O 4649   8.440   3.032   6.950  0.8846 -0.0974 -0.2427
  776MOL0     C 4650   8.307   3.077   6.949  0.3191 -0.0816 -0.3103
  776MOL0     C 4651   8.259   3.189   7.005  0.0923  0.2154  0.0626
  776MOL0     C 4652   8.131   3.223   6.991  0.6592  0.4498 -0.9130
  776MOL0     C 4653   8.080   3.336   7.072  1.0460 -0.7575 -0.7517
  776MOL0     C 4654   8.053   3.144   6.899 -0.0537  0.3519 -0.0648
  776MOL0     C 4655   7.909   3.168   6.877 -0.0904 -0.2206 -0.3161
  776MOL0     O 4656   7.859   3.138   6.752  0.2283 -0.2439  0.4451
  776MOL0     C 4657   7.725   3.099   6.733 -0.3119 -0.7203 -0.0320
  776MOL0     C 4658   7.700   2.982   6.661 -0.6061  0.1595 -0.2269
  776MOL0     C 4659   7.577   2.946   6.634 -0.2726  0.3936 -0.1369
  776MOL0     C 4660   7.464   3.019   6.683  0.0525 -0.0635  0.7942
  776MOL0     O 4661   7.331   2.992   6.678 -0.0943  0.6735  0.1227
  776MOL0     C 4662   7.295   2.858   6.636 -0.1134 -0.5543  0.2305
  776MOL0     C 4663   7.141   2.854   6.622  0.0597 -0.0754  0.6230
  776MOL0     C 4664   7.082   2.948   6.519 -1.3951 -0.2795  0.4221
  776MOL0     C 4665   6.937   2.924   6.484  0.4170  0.0503 -0.0941
  776MOL0     C 4666   6.879   3.006   6.376  0.8347 -0.0745 -0.4466
  776MOL0     C 4667   6.727   2.981   6.359 -0.3373  0.2375  0.7535
  776MOL0     C 4668   6.694   2.832   6.322 -0.1058 -0.4420  0.0806
  776MOL0     C 4669   6.547   2.825   6.321  0.2253  0.1984  0.5870
  776MOL0    Cl 4670   6.507   2.672   6.230 -0.0229 -0.4675 -0.1935
  776MOL0     C 4671   7.491   3.142   6.746 -0.0396 -0.0157 -0.0346
  776MOL0     C 4672   7.620   3.182   6.780  0.1513  0.0228 -0.9936
  776MOL0     O 4673   7.840   3.185   6.977  0.1483 -0.8941  0.1354
  776MOL0     C 4674   8.109   3.042   6.824 -1.0141 -0.0127  0.6207
  776MOL0     C 4675   8.236   3.002   6.854 -0.0849 -0.4550  0.2244
  776MOL0     N 4676   8.937   3.266   7.298  0.0161 -0.5855  0.5422
  776MOL0     N 4677   9.053   3.316   7.317 -0.1272  0.1770 -0.6990
  776MOL0     C 4678  10.050   4.106   7.124  0.3682 -0.2175  0.1852
  776MOL0     C 4679  10.165   4.152   7.059  0.8295 -0.3454 -0.8821
  776MOL0     C 4680  10.416   4.450   6.776  0.0688  0.8316  0.0933
  776MOL0     C 4681  10.443   4.589   6.753 -0.7070  0.3515  0.3727
  776MOL0     C 4682  10.559   4.622   6.692 -0.5061 -0.0238  0.3731
  776MOL0     C 4683  10.647   4.531   6.629  1.0276  0.0569 -0.1159
  776MOL0     O 4684  10.763   4.572   6.567 -0.6793 -0.1272  0.7512
  776MOL0     C 4685  10.778   4.712   6.524  0.0141  0.0723 -0.1458
  776MOL0     C 4686  10.915   4.731   6.452 -0.6391 -0.1747  1.1824
  776MOL0     C 4687  11.026   4.724   6.556 -0.4403  0.1707  0.0927
  776MOL0     C 4688  11.162   4.727   6.475  0.4150  0.3841 -0.1153
  776MOL0     C 4689  11.281   4.759   6.554 -0.5572 -0.4194  0.4021
  776MOL0     C 4690  11.389   4.788   6.608  0.4321 -0.0385 -0.2366
  776MOL0     C 4691  10.628   4.394   6.656  0.7790 -0.5581  0.4109
  776MOL0     C 4692  10.507   4.356   6.723  0.1028 -0.5713 -0.8404
  776MOL0     H 4693  10.028   4.393   6.868 -1.0357  2.3985  1.7122
  776MOL0     H 4694   9.839   4.341   6.999 -1.3360 -2.1337 -2.1226
  776MOL0     H 4695   9.848   3.925   7.180 -0.7510 -1.3656 -0.3349
  776MOL0     H 4696   9.700   3.991   7.252  0.2049 -1.9842 -0.7143
  776MOL0     H 4697   9.589   4.024   7.037 -1.1958 -1.9138 -0.0183
  776MOL0     H 4698   9.732   3.972   6.949 -3.5868  0.9558 -3.1443
  776MOL0     H 4699   9.549   3.833   6.960 -0.0798  1.7158 -0.1911
  776MOL0     H 4700   9.694   3.743   7.030  1.1647  1.6237 -0.1300
  776MOL0     H 4701   9.589   3.702   7.231 -0.6851 -1.2851 -1.4868
  776MOL0     H 4702   9.514   3.866   7.239  3.1560  0.4888  1.5526
  776MOL0     H 4703   9.336   3.763   7.079  1.7984  1.0280 -0.3105
  776MOL0     H 4704   9.436   3.624   7.058 -0.9259 -0.3934 -0.1083
  776MOL0     H 4705   9.413   3.577   7.308  1.8698 -0.2017 -1.6100
  776MOL0     H 4706   9.303   3.720   7.313  0.0337 -1.0968  2.2403
  776MOL0     H 4707   9.157   3.559   7.320  1.9440 -2.6915  1.3759
  776MOL0     H 4708   9.158   3.606   7.149  0.5838  1.5904 -0.1221
  776MOL0     H 4709   9.305   3.382   7.288  1.5269  0.1673  0.0461
  776MOL0     H 4710   9.307   3.405   7.112  1.0714  2.5555  2.1986
  776MOL0     H 4711   9.077   3.275   6.999 -0.4570 -0.0965  0.2465
  776MOL0     H 4712   8.749   3.271   7.054 -0.2508 -0.6034  0.8462
  776MOL0     H 4713   8.867   3.167   6.972 -0.0268 -0.8691  0.7002
  776MOL0     H 4714   8.723   3.117   7.226 -2.5359  0.4507 -2.0719
  776MOL0     H 4715   8.853   3.008   7.156  0.2863 -0.7108 -1.5094
  776MOL0     H 4716   8.633   2.912   7.076 -0.9843 -0.1347 -0.1964
  776MOL0     H 4717   8.695   3.010   6.944  0.5867  0.5096  0.3558
  776MOL0     H 4718   8.541   3.197   7.019 -3.5382  0.0347 -1.6373
  776MOL0     H 4719   8.492   3.092   7.149  2.9053  2.0054  0.3603
  776MOL0     H 4720   8.325   3.256   7.060  2.6136 -0.6551 -1.7054
  776MOL0     H 4721   7.996   3.293   7.129  1.9369 -1.5191  0.0273
  776MOL0     H 4722   8.147   3.383   7.144  0.8297 -0.6485 -0.6184
  776MOL0     H 4723   8.033   3.412   7.010 -0.3990  1.6643  2.9328
  776MOL0     H 4724   7.785   2.942   6.606  0.3728  1.0779  0.5816
  776MOL0     H 4725   7.563   2.857   6.575  1.0285  0.5908 -0.7679
  776MOL0     H 4726   7.326   2.845   6.532 -0.4398  2.1301 -0.2735
  776MOL0     H 4727   7.337   2.776   6.695 -1.4336 -4.2339 -3.4576
  776MOL0     H 4728   7.120   2.751   6.591  2.3626 -1.0312  1.9727
  776MOL0     H 4729   7.096   2.862   6.721 -2.1469 -1.3431 -0.1917
  776MOL0     H 4730   7.136   2.934   6.426 -2.4933 -0.0668 -0.2631
  776MOL0     H 4731   7.102   3.055   6.532 -1.6976  0.2802 -2.8723
  776MOL0     H 4732   6.920   2.818   6.459 -2.4515  0.0255  1.5404
  776MOL0     H 4733   6.867   2.943   6.566 -0.6694  3.5099 -1.6621
  776MOL0     H 4734   6.925   2.979   6.281  0.2439 -0.2557 -0.6879
  776MOL0     H 4735   6.879   3.111   6.406 -3.7396  0.4314 -1.4625
  776MOL0     H 4736   6.681   3.010   6.454 -0.5879  0.3031  0.6131
  776MOL0     H 4737   6.695   3.050   6.281  1.7569 -0.1442 -0.5085
  776MOL0     H 4738   6.740   2.766   6.396 -1.3384 -0.1943  1.1016
  776MOL0     H 4739   6.731   2.800   6.224 -0.1956 -0.8152  0.1666
  776MOL0     H 4740   6.510   2.911   6.265  4.0971  1.1935 -0.6944
  776MOL0     H 4741   6.503   2.818   6.421 -1.2603 -0.0033 -0.0434
  776MOL0     H 4742   7.402   3.192   6.781 -0.0568 -0.8209  1.1547
  776MOL0     H 4743   7.618   3.270   6.843 -4.2023 -1.6961  1.7730
  776MOL0     H 4744   8.046   2.983   6.757 -2.5023 -0.5783  2.4374
  776MOL0     H 4745   8.275   2.915   6.803 -0.7816 -0.3748 -0.4622
  776MOL0     H 4746  10.053   4.022   7.192  0.3762 -0.7437 -0.4584
  776MOL0     H 4747  10.256   4.094   7.073 -0.0353 -2.0300 -1.8984
  776MOL0     H 4748  10.371   4.666   6.779 -0.1601  0.2871  2.2338
  776MOL0     H 4749  10.586   4.728   6.694  0.6822 -0.2671 -0.8841
  776MOL0     H 4750  10.700   4.736   6.452  2.3937 -0.0917 -2.9892
  776MOL0     H 4751  10.775   4.781   6.608  0.0134 -0.8220  0.6131
  776MOL0     H 4752  10.904   4.826   6.399 -0.1082  0.4168  2.0918
  776MOL0     H 4753  10.945   4.650   6.385  2.7399  1.6718  0.2625
  776MOL0     H 4754  11.017   4.636   6.620  1.9854 -0.8821 -0.8762
  776MOL0     H 4755  11.023   4.810   6.624 -0.5539  0.7009 -0.5639
  776MOL0     H 4756  11.157   4.787   6.384 -0.4337 -0.1184 -0.4059
  776MOL0     H 4757  11.174   4.621   6.449 -0.1477 -0.2038  1.8536
  776MOL0     H 4758  11.485   4.809   6.649  1.0334  1.5142 -2.2687
  776MOL0     H 4759  10.688   4.308   6.629 -0.2221 -2.2533  3.1270
  776MOL0     H 4760  10.490   4.249   6.727  0.3141 -0.5760  0.2794
  777MOL0     O 4761   0.114   7.856   2.401 -0.2243  0.0161  0.4743
  777MOL0     C 4762   0.176   7.941   2.334 -0.2004  0.2268  0.5591
  777MOL0     O 4763   0.113   8.036   2.252  0.0517 -0.1185  0.2015
  777MOL0     C 4764  -0.024   8.019   2.238 -0.4157 -0.6985 -0.8958
  777MOL0     C 4765  -0.080   7.904   2.187  0.3467  1.0811 -0.4119
  777MOL0     C 4766  -0.221   7.896   2.175  0.7345 -0.2527  0.8284
  777MOL0     C 4767  -0.305   8.002   2.205  0.2871  0.7634 -0.2181
  777MOL0     O 4768  -0.438   7.982   2.175 -0.2476  0.1609 -0.1265
  777MOL0     C 4769  -0.537   8.084   2.193  0.4262 -0.4399  0.5517
  777MOL0     C 4770  -0.679   8.033   2.162  1.4383  0.2853 -0.6131
  777MOL0     C 4771  -0.780   8.135   2.224 -0.3197 -0.8673 -0.0294
  777MOL0     C 4772  -0.922   8.107   2.175 -0.0906  0.0298 -0.5767
  777MOL0     C 4773  -1.017   8.210   2.223 -0.8352  0.6260  0.1341
  777MOL0     C 4774  -1.175   8.178   2.209  0.7762  0.2173 -0.3550
  777MOL0     C 4775  -1.273   8.253   2.285  1.4951  0.2259 -0.7367
  777MOL0     C 4776  -1.417   8.204   2.265 -0.6308 -0.6296  0.1280
  777MOL0     N 4777  -1.503   8.287   2.352 -0.3610 -0.2676 -0.8466
  777MOL0     C 4778  -1.592   8.387   2.312 -0.7327  0.4580 -0.2054
  777MOL0     C 4779  -1.654   8.424   2.435 -0.2526 -0.9205  0.0055
  777MOL0     C 4780  -1.758   8.525   2.448  0.3234 -0.5505 -0.7248
  777MOL0     C 4781  -1.882   8.489   2.358  0.4976  0.1030  0.2909
  777MOL0     C 4782  -1.974   8.606   2.332 -0.0784  0.6026 -0.1417
  777MOL0     C 4783  -2.086   8.580   2.232  0.2712 -0.5781 -0.6722
  777MOL0     O 4784  -2.164   8.705   2.223  0.1535 -0.0977 -0.1141
  777MOL0     C 4785  -2.298   8.688   2.194 -0.4900 -0.7512 -0.2347
  777MOL0     C 4786  -2.386   8.776   2.255  0.7150 -0.3949  0.2870
  777MOL0     C 4787  -2.527   8.773   2.242 -0.5399  0.1021 -0.2133
  777MOL0     C 4788  -2.615   8.874   2.316  0.4019  0.0001  0.3569
  777MOL0     C 4789  -2.580   8.670   2.163 -0.1979  0.3702 -0.0516
  777MOL0     C 4790  -2.721   8.641   2.141 -0.1947  0.4092 -0.0622
  777MOL0     O 4791  -2.817   8.745   2.134 -0.9678  0.4671 -0.1700
  777MOL0     C 4792  -2.944   8.709   2.128  1.1987 -0.1512  0.1540
  777MOL0     C 4793  -3.001   8.661   2.011 -0.0857 -0.3747 -0.7390
  777MOL0     C 4794  -3.137   8.624   2.001 -0.2491  0.3138 -0.4225
  777MOL0     C 4795  -3.227   8.639   2.107 -0.4991 -0.9006  0.0715
  777MOL0     O 4796  -3.357   8.592   2.089  0.5731  0.0592  0.2685
  777MOL0     C 4797  -3.447   8.691   2.043 -0.1805 -0.4140 -0.6602
  777MOL0     C 4798  -3.445   8.821   2.129  0.5955 -0.0552 -0.6063
  777MOL0     C 4799  -3.571   8.905   2.082  0.5116 -0.6261  0.1905
  777MOL0     C 4800  -3.589   9.030   2.180 -1.3434  0.6489 -0.4293
  777MOL0     C 4801  -3.680   9.131   2.114 -0.9537  0.8883 -0.6038
  777MOL0     C 4802  -3.702   9.259   2.193 -0.3255 -0.5606  0.0493
  777MOL0     C 4803  -3.795   9.238   2.315 -0.7947  0.0134 -0.5457
  777MOL0     C 4804  -3.797   9.360   2.409 -0.4363  0.1362  0.2704
  777MOL0    Cl 4805  -3.857   9.494   2.303  0.3497 -0.0038  0.2498
  777MOL0     C 4806  -3.170   8.688   2.228  1.3199  0.2968 -0.4235
  777MOL0     C 4807  -3.032   8.722   2.238  0.6340  0.6086  0.3989
  777MOL0     O 4808  -2.748   8.522   2.131  0.1296  1.3196  0.0366
  777MOL0     C 4809  -2.492   8.576   2.101  0.0135 -1.3170  0.3936
  777MOL0     C 4810  -2.351   8.591   2.114  0.1107 -0.5899 -0.8284
  777MOL0     N 4811  -1.586   8.359   2.534  0.2387  0.1352  0.0509
  777MOL0     N 4812  -1.495   8.287   2.488  0.1536  0.5036 -0.0395
  777MOL0     C 4813  -0.248   8.110   2.261 -0.4240  0.0977 -0.9255
  777MOL0     C 4814  -0.109   8.115   2.279 -0.4690 -0.2652 -0.2367
  777MOL0     C 4815   0.324   7.939   2.343 -0.4959 -0.1250  0.2492
  777MOL0     C 4816   0.400   8.027   2.267  1.1730 -0.1716  0.0353
  777MOL0     C 4817   0.539   8.041   2.276  0.1759 -0.3405 -0.6970
  777MOL0     C 4818   0.609   7.956   2.362 -0.1429 -0.6202  0.1777
  777MOL0     O 4819   0.741   7.971   2.366 -0.4552 -0.0403  0.0836
  777MOL0     C 4820   0.788   8.081   2.438  0.5553  0.4359 -0.8988
  777MOL0     C 4821   0.942   8.086   2.432 -0.6512 -0.5207 -1.5062
  777MOL0     C 4822   1.006   8.097   2.294  0.1922  0.2888 -0.4742
  777MOL0     C 4823   1.161   8.065   2.284  0.6335 -0.0481  0.3810
  777MOL0     C 4824   1.241   8.128   2.393 -0.5346 -0.0752  0.0022
  777MOL0     C 4825   1.302   8.175   2.490  1.2705 -0.2649 -0.2531
  777MOL0     C 4826   0.539   7.862   2.429  0.0873  0.1098 -0.4197
  777MOL0     C 4827   0.401   7.857   2.419 -0.1992  0.4346 -0.3249
  777MOL0     H 4828  -0.019   7.824   2.146 -1.3220 -0.8487  0.6911
  777MOL0     H 4829  -0.265   7.799   2.153  1.2800 -0.8030  2.0937
  777MOL0     H 4830  -0.530   8.125   2.294 -3.2905  0.2050  0.6763
  777MOL0     H 4831  -0.516   8.175   2.136  1.7666  0.2197  2.0061
  777MOL0     H 4832  -0.704   8.014   2.057 -1.8755  2.7375 -0.4170
  777MOL0     H 4833  -0.684   7.937   2.214  1.6286  0.7867  0.3544
  777MOL0     H 4834  -0.769   8.117   2.331  0.0720 -1.7802 -0.2142
  777MOL0     H 4835  -0.757   8.233   2.183  0.4274 -1.1526 -0.2927
  777MOL0     H 4836  -0.921   8.102   2.066 -1.8376 -1.8088 -0.5798
  777MOL0     H 4837  -0.949   8.009   2.215  0.7000  0.1224  0.2065
  777MOL0     H 4838  -0.992   8.227   2.328  1.9177  0.3166 -0.4095
  777MOL0     H 4839  -0.976   8.296   2.170  1.0986 -1.2560 -1.5938
  777MOL0     H 4840  -1.200   8.195   2.104 -0.0114 -1.7231 -0.5183
  777MOL0     H 4841  -1.197   8.077   2.244 -1.9453  0.0157 -2.3496
  777MOL0     H 4842  -1.251   8.254   2.392  1.3844 -1.0179 -0.6808
  777MOL0     H 4843  -1.273   8.355   2.247  4.1919 -0.7331 -3.8402
  777MOL0     H 4844  -1.435   8.099   2.290  0.5314 -1.0808 -0.7953
  777MOL0     H 4845  -1.441   8.208   2.158 -0.8755 -0.2382  0.1946
  777MOL0     H 4846  -1.625   8.410   2.212 -1.5872  3.6810  0.7140
  777MOL0     H 4847  -1.806   8.525   2.546 -1.9621 -3.0223 -1.7048
  777MOL0     H 4848  -1.714   8.624   2.435  1.0416 -0.9784 -1.6936
  777MOL0     H 4849  -1.949   8.413   2.399  0.4135 -1.7700 -2.9335
  777MOL0     H 4850  -1.861   8.439   2.263  0.7341  1.6726 -0.5254
  777MOL0     H 4851  -1.911   8.684   2.287  0.5051 -0.4279 -1.1719
  777MOL0     H 4852  -2.021   8.630   2.427 -1.0340 -2.6302  0.3164
  777MOL0     H 4853  -2.150   8.501   2.272 -0.6449  0.7758  0.6611
  777MOL0     H 4854  -2.053   8.540   2.136 -1.3768 -3.1205 -0.2578
  777MOL0     H 4855  -2.350   8.851   2.326 -0.8797  1.7031 -0.9809
  777MOL0     H 4856  -2.703   8.830   2.364  0.5459 -0.4859  0.1819
  777MOL0     H 4857  -2.563   8.937   2.388 -0.3936  1.4487 -0.2941
  777MOL0     H 4858  -2.653   8.946   2.243 -2.6440  1.0658  2.7820
  777MOL0     H 4859  -2.936   8.645   1.925  1.1845  0.5900  0.0071
  777MOL0     H 4860  -3.169   8.579   1.908  3.9231 -1.0054 -1.4232
  777MOL0     H 4861  -3.424   8.704   1.937 -0.0181 -0.1431 -0.5924
  777MOL0     H 4862  -3.546   8.643   2.046 -0.9583  1.0258 -2.0168
  777MOL0     H 4863  -3.465   8.792   2.233  1.1483 -0.5077 -0.6228
  777MOL0     H 4864  -3.353   8.880   2.125  1.2211 -1.0894 -3.6549
  777MOL0     H 4865  -3.657   8.837   2.086 -0.7295  0.9218  1.5921
  777MOL0     H 4866  -3.551   8.949   1.984 -0.3848  1.3953  0.8413
  777MOL0     H 4867  -3.644   8.995   2.268 -2.1795  3.6143  0.3408
  777MOL0     H 4868  -3.493   9.079   2.198  0.3587 -2.3262 -0.6340
  777MOL0     H 4869  -3.768   9.083   2.072 -1.1517 -1.0405  1.8043
  777MOL0     H 4870  -3.621   9.157   2.025  0.5537 -0.6564 -0.1106
  777MOL0     H 4871  -3.605   9.287   2.233 -0.0428 -1.1490 -0.2044
  777MOL0     H 4872  -3.743   9.334   2.125 -0.8342 -2.6980 -2.1796
  777MOL0     H 4873  -3.757   9.155   2.374 -0.6231  1.3788  1.3370
  777MOL0     H 4874  -3.893   9.215   2.270 -1.4823  1.9391 -0.1147
  777MOL0     H 4875  -3.696   9.379   2.446  0.0847  0.1050 -1.0584
  777MOL0     H 4876  -3.864   9.354   2.495 -0.8108  0.5465  0.0155
  777MOL0     H 4877  -3.234   8.712   2.313  1.4256  0.8974 -0.5074
  777MOL0     H 4878  -2.990   8.745   2.335  0.9246  1.6787  0.0350
  777MOL0     H 4879  -2.531   8.490   2.047  0.5203  0.2558 -2.7071
  777MOL0     H 4880  -2.279   8.522   2.070  0.3590  0.9121 -2.9095
  777MOL0     H 4881  -0.313   8.191   2.295 -0.6475 -0.0220 -1.0643
  777MOL0     H 4882  -0.064   8.201   2.328 -1.3170 -0.1798  0.4237
  777MOL0     H 4883   0.335   8.090   2.207  1.3142 -0.1576 -0.1026
  777MOL0     H 4884   0.591   8.118   2.221  1.5440 -0.8309 -0.1462
  777MOL0     H 4885   0.737   8.171   2.403  2.2758  2.1731  0.7710
  777MOL0     H 4886   0.755   8.068   2.542 -0.5860  0.3876 -1.2574
  777MOL0     H 4887   0.992   8.008   2.490  1.4399 -0.1648 -2.7315
  777MOL0     H 4888   0.975   8.173   2.489  2.4444 -1.6754 -1.3588
  777MOL0     H 4889   0.977   8.199   2.268 -1.4410  0.8903  3.0376
  777MOL0     H 4890   0.953   8.027   2.229 -1.0793  2.3379 -1.7404
  777MOL0     H 4891   1.192   8.102   2.185 -0.8712 -1.1556 -0.5418
  777MOL0     H 4892   1.180   7.959   2.301  0.8296  0.1286  1.3160
  777MOL0     H 4893   1.342   8.225   2.576  0.4349  0.1095 -0.0728
  777MOL0     H 4894   0.605   7.788   2.474  0.6425  0.3908 -0.7501
  777MOL0     H 4895   0.353   7.788   2.489  3.9018  0.2868  2.7449
  778MOL0     O 4896   6.655   7.388   5.277  0.0073 -0.7055  0.3435
  778MOL0     C 4897   6.690   7.278   5.222 -0.1823 -0.5503  0.1208
  778MOL0     O 4898   6.617   7.200   5.140  0.0792  0.0657  0.3989
  778MOL0     C 4899   6.481   7.229   5.108 -0.8442 -0.2006 -0.6881
  778MOL0     C 4900   6.430   7.160   5.000 -0.6175  0.0294 -0.4742
  778MOL0     C 4901   6.298   7.180   4.948 -0.6440 -0.0932  0.5377
  778MOL0     C 4902   6.221   7.276   5.005 -0.1262 -0.1523 -0.7608
  778MOL0     O 4903   6.091   7.306   4.966  0.0507 -0.1081 -0.8349
  778MOL0     C 4904   6.007   7.194   4.940  0.1391 -0.5924  0.5024
  778MOL0     C 4905   5.862   7.250   4.967 -0.1372  0.4815  0.6115
  778MOL0     C 4906   5.756   7.149   4.929  1.2304  1.1370  0.4272
  778MOL0     C 4907   5.622   7.212   4.960  0.0328  1.1605 -0.0885
  778MOL0     C 4908   5.517   7.125   4.898  0.3936  0.3503  0.6207
  778MOL0     C 4909   5.378   7.174   4.934 -0.7220 -0.0377  0.8050
  778MOL0     C 4910   5.329   7.297   4.855 -1.0172  0.1861  0.4103
  778MOL0     C 4911   5.191   7.343   4.887  1.5065  0.1229 -0.5037
  778MOL0     N 4912   5.136   7.444   4.790  0.2533 -0.3114 -0.5664
  778MOL0     C 4913   5.100   7.404   4.662  0.1048 -0.4581 -0.4241
  778MOL0     C 4914   5.065   7.515   4.605 -0.4895 -0.5911  0.2826
  778MOL0     C 4915   5.031   7.541   4.466 -0.4046 -0.0316  0.4134
  778MOL0     C 4916   4.884   7.555   4.436 -0.2367  0.0724  0.7583
  778MOL0     C 4917   4.805   7.425   4.472  0.2266 -1.0684 -0.1528
  778MOL0     C 4918   4.657   7.454   4.442 -0.2609  0.5722 -0.3977
  778MOL0     O 4919   4.613   7.561   4.541  0.2192  0.4394  0.3899
  778MOL0     C 4920   4.482   7.559   4.577  0.3849 -0.7176 -0.0406
  778MOL0     C 4921   4.378   7.495   4.505 -0.1287 -0.1355  0.0077
  778MOL0     C 4922   4.244   7.513   4.549 -0.1059  0.3378  0.1457
  778MOL0     C 4923   4.136   7.442   4.469 -0.6805 -0.0078  0.4245
  778MOL0     C 4924   4.210   7.586   4.665 -0.1724 -0.0735 -0.3400
  778MOL0     C 4925   4.065   7.618   4.703 -1.6303 -0.4624  1.3145
  778MOL0     O 4926   3.981   7.657   4.604  0.7708  0.1891  0.5883
  778MOL0     C 4927   3.853   7.613   4.611  0.0203  0.4366  0.1405
  778MOL0     C 4928   3.808   7.508   4.530 -0.3232  0.5275 -0.1368
  778MOL0     C 4929   3.673   7.475   4.525  0.0810  0.0415 -0.4483
  778MOL0     C 4930   3.578   7.548   4.590  0.7975 -0.9481 -0.1154
  778MOL0     O 4931   3.445   7.518   4.565 -0.6636 -0.3541 -0.2799
  778MOL0     C 4932   3.354   7.502   4.673  0.7035 -0.8499  0.2873
  778MOL0     C 4933   3.226   7.432   4.627 -0.1393  0.4382 -0.6501
  778MOL0     C 4934   3.251   7.279   4.604 -0.0535 -0.1600  0.4012
  778MOL0     C 4935   3.123   7.186   4.620 -0.6578 -0.1842 -0.1544
  778MOL0     C 4936   3.000   7.222   4.536 -0.6446  0.2691  0.8278
  778MOL0     C 4937   2.860   7.206   4.608  0.0122 -0.1289  0.2662
  778MOL0     C 4938   2.750   7.287   4.527  0.6174  0.1899  0.5426
  778MOL0     C 4939   2.614   7.239   4.580 -0.6885 -0.0465 -0.4594
  778MOL0    Cl 4940   2.505   7.329   4.471  0.0874 -0.0756  0.1149
  778MOL0     C 4941   3.622   7.660   4.664  0.9148  0.2470 -0.0783
  778MOL0     C 4942   3.752   7.693   4.679 -0.7109 -0.1427 -0.4291
  778MOL0     O 4943   4.044   7.590   4.822  0.5671 -0.3098  0.3668
  778MOL0     C 4944   4.310   7.656   4.732  0.8508 -0.0961 -0.7377
  778MOL0     C 4945   4.445   7.628   4.693  0.1677 -0.1311  0.4102
  778MOL0     N 4946   5.068   7.619   4.691  0.3495  0.0980  0.2720
  778MOL0     N 4947   5.121   7.575   4.804 -0.6348 -0.2119 -0.1926
  778MOL0     C 4948   6.270   7.344   5.123 -0.0151  0.0835  0.1540
  778MOL0     C 4949   6.401   7.312   5.173  0.0403 -0.2878  0.1683
  778MOL0     C 4950   6.821   7.218   5.274 -0.5305 -0.5830  0.7696
  778MOL0     C 4951   6.913   7.292   5.342 -0.2964  0.0991 -0.6861
  778MOL0     C 4952   7.018   7.224   5.406 -0.3231  0.1799  0.1430
  778MOL0     C 4953   7.041   7.087   5.395 -0.1713 -0.6906  0.6313
  778MOL0     O 4954   7.136   7.019   5.463  0.6132 -0.0788 -0.5814
  778MOL0     C 4955   7.273   7.053   5.450 -0.2467 -0.5747 -0.6770
  778MOL0     C 4956   7.358   7.010   5.573  0.6531  0.0897  0.2752
  778MOL0     C 4957   7.357   7.101   5.697 -0.0026 -0.6927  0.7647
  778MOL0     C 4958   7.441   7.041   5.811 -0.9695 -0.0691  0.0646
  778MOL0     C 4959   7.394   6.918   5.885  0.1368  0.1173 -0.1100
  778MOL0     C 4960   7.366   6.817   5.948  0.1090 -0.3099  0.4033
  778MOL0     C 4961   6.951   7.013   5.322 -0.1554 -0.1922 -0.6383
  778MOL0     C 4962   6.845   7.072   5.258  0.5015 -0.4289 -0.3960
  778MOL0     H 4963   6.489   7.081   4.953 -0.7300 -1.4413  1.7098
  778MOL0     H 4964   6.268   7.131   4.856  3.0585 -0.7489 -0.4886
  778MOL0     H 4965   6.021   7.164   4.835 -0.8556 -1.2872  0.5448
  778MOL0     H 4966   6.030   7.114   5.011 -0.3787  0.4781  1.9099
  778MOL0     H 4967   5.863   7.267   5.075  0.5053 -0.9503  0.8504
  778MOL0     H 4968   5.842   7.339   4.906 -2.7708 -0.3258  0.1839
  778MOL0     H 4969   5.753   7.139   4.820  1.6535  2.9519  0.2276
  778MOL0     H 4970   5.757   7.052   4.979 -1.1982  1.0312  0.3785
  778MOL0     H 4971   5.615   7.220   5.069 -0.2599 -2.2973  0.2690
  778MOL0     H 4972   5.619   7.311   4.914 -0.3697  0.6200 -1.2664
  778MOL0     H 4973   5.526   7.130   4.789 -1.7887 -2.2358  0.2245
  778MOL0     H 4974   5.524   7.018   4.920  0.4107 -0.5919 -3.1483
  778MOL0     H 4975   5.303   7.096   4.919 -0.2935  0.1982 -4.7534
  778MOL0     H 4976   5.361   7.195   5.040 -2.5300  0.5229  0.4271
  778MOL0     H 4977   5.401   7.374   4.886 -0.5007  0.2451 -0.8739
  778MOL0     H 4978   5.337   7.263   4.751  0.2606 -1.0603  0.8939
  778MOL0     H 4979   5.204   7.385   4.987  1.9139  0.7488 -0.8083
  778MOL0     H 4980   5.130   7.252   4.896  0.9376  0.6505  1.3060
  778MOL0     H 4981   5.103   7.304   4.620  0.6534  0.0236 -1.5608
  778MOL0     H 4982   5.063   7.643   4.442 -1.7836  1.1057  3.0216
  778MOL0     H 4983   5.088   7.469   4.406 -0.2766  1.3240 -1.1857
  778MOL0     H 4984   4.868   7.576   4.330  0.7083  0.7230  0.7313
  778MOL0     H 4985   4.841   7.638   4.492  1.1538  0.0927  1.8324
  778MOL0     H 4986   4.823   7.394   4.575  1.3479  0.0934  0.0216
  778MOL0     H 4987   4.847   7.342   4.414 -0.4273 -1.2585 -0.3736
  778MOL0     H 4988   4.598   7.366   4.468  0.2812  0.5775  0.9463
  778MOL0     H 4989   4.627   7.484   4.341 -1.4551 -1.3869 -0.6713
  778MOL0     H 4990   4.394   7.449   4.408  0.3726  0.1694 -0.0606
  778MOL0     H 4991   4.186   7.357   4.421 -0.4559  0.1264  0.4216
  778MOL0     H 4992   4.059   7.399   4.534 -0.1376  1.0532  1.7953
  778MOL0     H 4993   4.082   7.499   4.392  0.3983 -1.9472 -1.9151
  778MOL0     H 4994   3.881   7.467   4.460  1.2393  2.2342  0.4153
  778MOL0     H 4995   3.632   7.407   4.452 -1.4674  2.4294 -1.9633
  778MOL0     H 4996   3.393   7.444   4.757 -1.0980 -0.3727  1.5034
  778MOL0     H 4997   3.326   7.598   4.717 -0.9921 -1.0958 -0.1980
  778MOL0     H 4998   3.151   7.442   4.707  0.9212  3.8546  0.0918
  778MOL0     H 4999   3.187   7.478   4.536 -1.7409 -0.4107 -0.4328
  778MOL0     H 5000   3.336   7.236   4.658  0.4917 -0.7786 -0.9202
  778MOL0     H 5001   3.270   7.278   4.496 -1.2497  0.9627  0.1540
  778MOL0     H 5002   3.151   7.086   4.588  1.3083  0.7750 -1.6706
  778MOL0     H 5003   3.115   7.183   4.729  0.4098  2.0318  0.0409
  778MOL0     H 5004   3.005   7.157   4.448  1.6889  0.2663  0.8799
  778MOL0     H 5005   3.012   7.325   4.502  1.5489  0.0786  0.8428
  778MOL0     H 5006   2.825   7.103   4.616 -1.4724  0.2170 -1.3227
  778MOL0     H 5007   2.875   7.250   4.707  2.5722 -0.8000  0.2471
  778MOL0     H 5008   2.757   7.254   4.422  1.1177 -1.0081  0.9277
  778MOL0     H 5009   2.775   7.390   4.502  0.4465  0.3439  1.0000
  778MOL0     H 5010   2.585   7.269   4.681  0.7014 -0.9571  0.2450
  778MOL0     H 5011   2.598   7.132   4.566 -2.8437 -0.2183  2.4644
  778MOL0     H 5012   3.553   7.722   4.721  0.8331  0.4003 -0.3463
  778MOL0     H 5013   3.780   7.780   4.738 -1.2554  1.6838 -2.7130
  778MOL0     H 5014   4.279   7.708   4.822  1.2066 -2.7444  1.0583
  778MOL0     H 5015   4.531   7.662   4.751  0.3686  1.4084 -0.7195
  778MOL0     H 5016   6.205   7.417   5.169 -0.4219  0.2091 -0.6113
  778MOL0     H 5017   6.435   7.375   5.254 -1.0371  1.6770 -0.8302
  778MOL0     H 5018   6.898   7.398   5.355  0.4917  0.1144  0.2247
  778MOL0     H 5019   7.084   7.277   5.473 -0.3813 -1.4063  1.5307
  778MOL0     H 5020   7.328   7.008   5.367  1.8708  0.8698 -0.1414
  778MOL0     H 5021   7.281   7.162   5.446 -0.8877 -0.3186  2.4564
  778MOL0     H 5022   7.461   6.991   5.544  0.2561 -3.8029  0.8087
  778MOL0     H 5023   7.322   6.911   5.604 -0.7312  0.6835  0.6305
  778MOL0     H 5024   7.260   7.148   5.718  1.2240  0.6801  3.9715
  778MOL0     H 5025   7.415   7.180   5.648 -0.0597 -1.3307 -0.3591
  778MOL0     H 5026   7.449   7.123   5.884 -0.9780 -0.8515  0.9591
  778MOL0     H 5027   7.543   7.014   5.781 -0.4374  1.5411  0.3317
  778MOL0     H 5028   7.336   6.743   6.020  0.8373 -4.6508 -3.3318
  778MOL0     H 5029   6.958   6.905   5.318  0.5191 -0.1624 -0.4976
  778MOL0     H 5030   6.762   7.016   5.216 -0.0598  0.2385 -0.1890
  779MOL0     O 5031   4.335   6.530   8.629  0.7710  0.1108 -0.8579
  779MOL0     C 5032   4.293   6.427   8.572  0.3590 -0.2144 -0.4751
  779MOL0     O 5033   4.179   6.361   8.605  0.2993  0.0606  0.1548
  779MOL0     C 5034   4.078   6.431   8.673 -0.6592  0.1702  0.3011
  779MOL0     C 5035   4.026   6.546   8.609 -0.5865 -0.5218 -0.8812
  779MOL0     C 5036   3.928   6.623   8.664  0.5724  0.0461  0.2925
  779MOL0     C 5037   3.868   6.584   8.789  0.7589 -0.7460 -0.2407
  779MOL0     O 5038   3.759   6.657   8.835 -0.5220 -0.1152  0.1472
  779MOL0     C 5039   3.647   6.595   8.892 -0.1179 -0.1813 -0.0987
  779MOL0     C 5040   3.543   6.692   8.921 -0.0689  0.0788  0.3450
  779MOL0     C 5041   3.411   6.615   8.933 -0.0436 -0.4367  0.4513
  779MOL0     C 5042   3.293   6.715   8.943  0.1690  0.2868  0.1827
  779MOL0     C 5043   3.167   6.630   8.922  0.3223  0.6017  0.2212
  779MOL0     C 5044   3.033   6.714   8.908  0.4198  0.0280 -0.0410
  779MOL0     C 5045   2.922   6.606   8.890 -0.4337  0.6712 -0.5201
  779MOL0     C 5046   2.780   6.662   8.883  0.2767  0.0634  0.1185
  779MOL0     N 5047   2.684   6.566   8.827  0.0597  0.6813 -0.8349
  779MOL0     C 5048   2.599   6.483   8.905 -0.2197 -0.2425 -0.1100
  779MOL0     C 5049   2.550   6.400   8.819  0.5191  0.0526 -0.3076
  779MOL0     C 5050   2.487   6.270   8.838 -0.0632  0.0587 -0.3613
  779MOL0     C 5051   2.354   6.292   8.924  0.7200  0.4282  0.0174
  779MOL0     C 5052   2.292   6.157   8.961  0.1757  1.0249 -0.6035
  779MOL0     C 5053   2.168   6.169   9.046  1.0447 -0.1482  0.0891
  779MOL0     O 5054   2.187   6.263   9.151  0.4403  1.0459  0.2554
  779MOL0     C 5055   2.093   6.286   9.253 -0.1481  0.1585 -1.8422
  779MOL0     C 5056   2.136   6.370   9.354  0.2017 -0.2573 -0.2266
  779MOL0     C 5057   2.048   6.405   9.466  0.7192  0.0171 -0.6908
  779MOL0     C 5058   2.081   6.527   9.550 -0.3011  0.0475 -0.1847
  779MOL0     C 5059   1.921   6.344   9.474  0.1576 -1.2899  0.4040
  779MOL0     C 5060   1.826   6.360   9.583  0.6881  1.7016 -0.0460
  779MOL0     O 5061   1.692   6.333   9.550 -0.5105 -0.0942  0.2083
  779MOL0     C 5062   1.599   6.390   9.633  0.6465  1.1958 -0.3591
  779MOL0     C 5063   1.597   6.522   9.672 -0.7583 -0.6241 -0.0420
  779MOL0     C 5064   1.490   6.576   9.746  0.1054 -1.0040  0.4715
  779MOL0     C 5065   1.390   6.495   9.797 -0.3582 -0.6948  0.8395
  779MOL0     O 5066   1.277   6.544   9.859 -0.4360 -0.4670 -0.1957
  779MOL0     C 5067   1.297   6.636   9.970 -0.1663 -0.0078 -0.4376
  779MOL0     C 5068   1.261   6.579  10.103  0.4778 -0.0581 -1.1670
  779MOL0     C 5069   1.337   6.449  10.136 -0.3200 -0.1668 -0.2339
  779MOL0     C 5070   1.486   6.477  10.182 -0.4725 -0.3171  0.5406
  779MOL0     C 5071   1.558   6.339  10.204 -0.4507 -0.2401 -0.5019
  779MOL0     C 5072   1.622   6.277  10.077  0.6691 -0.0233 -0.2640
  779MOL0     C 5073   1.663   6.125  10.099  1.1814 -0.1264  0.5456
  779MOL0     C 5074   1.738   6.098   9.973 -0.2307  0.0156  0.6150
  779MOL0    Cl 5075   1.627   6.068   9.837 -0.6337 -0.1817  0.2879
  779MOL0     C 5076   1.401   6.360   9.767  0.4351  0.7916 -0.2001
  779MOL0     C 5077   1.502   6.307   9.691 -0.0752  0.5934  0.2234
  779MOL0     O 5078   1.869   6.400   9.689  0.5510  0.4597 -0.0737
  779MOL0     C 5079   1.878   6.263   9.360  0.4767  0.3421  0.2835
  779MOL0     C 5080   1.969   6.222   9.264 -0.4100  0.0924  0.5882
  779MOL0     N 5081   2.579   6.440   8.692  0.4406  0.7082  0.1350
  779MOL0     N 5082   2.660   6.542   8.696 -0.0186  1.4130 -0.4414
  779MOL0     C 5083   3.918   6.467   8.848 -0.1851 -0.6206 -0.4978
  779MOL0     C 5084   4.023   6.396   8.793 -0.2786 -0.2518  0.0041
  779MOL0     C 5085   4.393   6.365   8.473 -0.0081 -0.0541  0.8172
  779MOL0     C 5086   4.383   6.237   8.429 -0.5699  0.2803  0.1642
  779MOL0     C 5087   4.481   6.177   8.349  0.0374  0.0237  0.2364
  779MOL0     C 5088   4.587   6.256   8.298  0.1807 -0.0290  1.0488
  779MOL0     O 5089   4.667   6.202   8.199  0.2995 -0.4872 -0.0940
  779MOL0     C 5090   4.755   6.290   8.134 -0.0128 -0.3025  0.0290
  779MOL0     C 5091   4.865   6.209   8.063  0.0718 -0.0569 -0.9984
  779MOL0     C 5092   4.956   6.298   7.975  0.2932 -0.4698 -0.8878
  779MOL0     C 5093   5.092   6.229   7.941 -0.1333 -0.2592  0.2198
  779MOL0     C 5094   5.079   6.158   7.816  0.1578 -0.3907  0.1670
  779MOL0     C 5095   5.067   6.088   7.723  0.6040 -0.5639  0.9325
  779MOL0     C 5096   4.607   6.393   8.345 -0.3439 -0.0131  0.4570
  779MOL0     C 5097   4.511   6.439   8.433 -0.9352 -0.3251 -0.4954
  779MOL0     H 5098   4.069   6.579   8.514 -0.0729 -0.3704 -0.6006
  779MOL0     H 5099   3.905   6.716   8.611  3.6166  1.0249  0.4904
  779MOL0     H 5100   3.612   6.525   8.815 -1.0229 -1.1658  1.1577
  779MOL0     H 5101   3.667   6.532   8.979 -3.1633 -2.7717 -1.0916
  779MOL0     H 5102   3.581   6.730   9.016  1.0066 -1.8039  0.7167
  779MOL0     H 5103   3.541   6.771   8.845 -0.1982 -0.0991  0.1616
  779MOL0     H 5104   3.400   6.553   8.844 -0.1080 -2.6316  1.9099
  779MOL0     H 5105   3.425   6.547   9.018 -2.0920  0.3016  1.4355
  779MOL0     H 5106   3.285   6.769   9.038 -3.3477  0.0824  0.1246
  779MOL0     H 5107   3.289   6.780   8.856 -3.7149 -0.9504 -0.7824
  779MOL0     H 5108   3.174   6.557   8.841 -1.2451 -1.7977  2.0977
  779MOL0     H 5109   3.141   6.572   9.011  0.5043 -1.4170 -0.9967
  779MOL0     H 5110   3.015   6.776   8.996 -2.5861 -1.1643  0.2883
  779MOL0     H 5111   3.028   6.769   8.813 -2.3329 -2.5331 -1.5601
  779MOL0     H 5112   2.940   6.558   8.794 -1.0832  0.6331 -0.6255
  779MOL0     H 5113   2.932   6.527   8.965 -2.2925  0.6423 -0.2563
  779MOL0     H 5114   2.780   6.750   8.818  1.2208 -0.1599 -0.1912
  779MOL0     H 5115   2.749   6.697   8.982  2.3943  1.0051  0.5059
  779MOL0     H 5116   2.598   6.491   9.013 -0.6227 -0.0981 -0.1227
  779MOL0     H 5117   2.453   6.211   8.753 -1.2608 -0.5169  0.4743
  779MOL0     H 5118   2.555   6.203   8.892 -0.2998 -0.1707 -0.3447
  779MOL0     H 5119   2.275   6.338   8.863  1.3185  1.8711  0.3104
  779MOL0     H 5120   2.375   6.343   9.018  2.3383 -0.9350  0.4447
  779MOL0     H 5121   2.359   6.092   9.018 -0.3703 -1.8610 -3.0246
  779MOL0     H 5122   2.266   6.100   8.871  2.9177 -0.5987 -0.4694
  779MOL0     H 5123   2.137   6.072   9.085 -0.8397  0.7877  1.1187
  779MOL0     H 5124   2.088   6.211   8.984 -1.2573  0.2146  3.0789
  779MOL0     H 5125   2.233   6.416   9.335 -0.5128  0.7334 -1.7420
  779MOL0     H 5126   2.100   6.495   9.654 -0.7692  0.8562  0.1555
  779MOL0     H 5127   2.167   6.579   9.508  0.7659 -1.8426 -0.4451
  779MOL0     H 5128   1.992   6.591   9.555 -1.1544 -1.0660 -0.6403
  779MOL0     H 5129   1.672   6.586   9.629  0.1524 -1.4591  0.2722
  779MOL0     H 5130   1.490   6.683   9.765  0.3532 -1.1226  1.1764
  779MOL0     H 5131   1.399   6.676   9.973 -0.8875  1.8878  1.2397
  779MOL0     H 5132   1.232   6.724   9.964 -0.4670 -0.3039 -1.6570
  779MOL0     H 5133   1.274   6.655  10.180 -0.2095 -0.1086 -0.9962
  779MOL0     H 5134   1.156   6.553  10.086  1.1057 -1.1510 -3.9160
  779MOL0     H 5135   1.337   6.373  10.057  1.6236  2.2603 -2.7663
  779MOL0     H 5136   1.287   6.407  10.223 -1.6248  0.5017 -0.6366
  779MOL0     H 5137   1.532   6.531  10.100  0.7055  0.3579  1.6174
  779MOL0     H 5138   1.490   6.531  10.277  0.4090  0.1250  0.2604
  779MOL0     H 5139   1.478   6.274  10.240 -2.4212  0.5102 -3.2815
  779MOL0     H 5140   1.631   6.350  10.285 -0.8774 -1.5033  0.0904
  779MOL0     H 5141   1.546   6.280   9.998 -1.5394  1.3068  1.7616
  779MOL0     H 5142   1.705   6.345  10.058 -1.3865  2.1781 -2.0044
  779MOL0     H 5143   1.573   6.064  10.091  0.6319  0.8463 -1.2061
  779MOL0     H 5144   1.728   6.104  10.184  0.9486 -0.3939  0.6572
  779MOL0     H 5145   1.785   6.002   9.997 -0.8679  0.2588  3.1717
  779MOL0     H 5146   1.809   6.176   9.946  0.0177 -0.5290 -0.3577
  779MOL0     H 5147   1.332   6.289   9.811  1.5238 -1.0806 -1.3829
  779MOL0     H 5148   1.497   6.202   9.663  2.8812  0.8357 -1.6512
  779MOL0     H 5149   1.776   6.226   9.363  0.1183  1.3344  3.1680
  779MOL0     H 5150   1.952   6.146   9.189  1.6266 -2.0874  2.1875
  779MOL0     H 5151   3.865   6.432   8.935 -0.8736 -1.7944 -1.3526
  779MOL0     H 5152   4.062   6.313   8.852  1.1057 -0.1082 -0.6738
  779MOL0     H 5153   4.310   6.169   8.472 -0.8637 -1.1496 -2.3859
  779MOL0     H 5154   4.468   6.076   8.310  1.5741  1.0794 -3.4455
  779MOL0     H 5155   4.697   6.343   8.057 -1.7516 -1.1428  0.7072
  779MOL0     H 5156   4.807   6.358   8.202 -0.5032 -1.3954  1.5491
  779MOL0     H 5157   4.821   6.132   8.000 -0.4146 -0.8608  0.2926
  779MOL0     H 5158   4.929   6.156   8.134 -1.0207 -4.0272 -2.7264
  779MOL0     H 5159   4.967   6.388   8.037 -2.1350 -1.4885  1.1800
  779MOL0     H 5160   4.893   6.331   7.892 -0.0461  1.2262 -0.0149
  779MOL0     H 5161   5.112   6.149   8.013 -0.5615 -1.2886 -0.7764
  779MOL0     H 5162   5.173   6.302   7.934  0.8286 -1.4021 -1.3562
  779MOL0     H 5163   5.050   6.018   7.644 -2.8744 -0.2972  1.2683
  779MOL0     H 5164   4.695   6.450   8.318  0.2854 -0.9210  0.5691
  779MOL0     H 5165   4.545   6.537   8.465 -3.0687  0.9768 -1.9595
  780MOL0     O 5166   6.045   5.276   1.923  0.1645  0.0827 -0.4226
  780MOL0     C 5167   6.049   5.367   2.012 -0.6528  0.5930 -0.2560
  780MOL0     O 5168   5.943   5.436   2.064  0.4038 -0.3193 -0.1976
  780MOL0     C 5169   5.812   5.435   2.009  0.2644  0.4133  0.0258
  780MOL0     C 5170   5.736   5.536   2.068  0.8471 -0.0338 -0.1737
  780MOL0     C 5171   5.614   5.568   2.005  0.4751 -1.2720 -0.9531
  780MOL0     C 5172   5.563   5.500   1.896  0.0881 -0.7865  0.2175
  780MOL0     O 5173   5.436   5.530   1.846  0.2349  0.9620  0.2099
  780MOL0     C 5174   5.366   5.418   1.786 -0.5287  0.5465  0.0182
  780MOL0     C 5175   5.233   5.473   1.736  0.7494  0.0866  0.7962
  780MOL0     C 5176   5.242   5.491   1.581 -0.0642 -0.0913 -0.5057
  780MOL0     C 5177   5.122   5.554   1.528  0.9278 -0.2266 -0.6299
  780MOL0     C 5178   5.143   5.570   1.384 -0.3798 -0.0699  0.2186
  780MOL0     C 5179   5.046   5.664   1.312  0.0782 -0.0102  0.0894
  780MOL0     C 5180   4.898   5.636   1.340  0.0270 -0.3447  0.7073
  780MOL0     C 5181   4.852   5.510   1.277 -0.1002  0.4969  0.5156
  780MOL0     N 5182   4.712   5.487   1.295  0.7208 -0.2086  0.7065
  780MOL0     C 5183   4.653   5.477   1.422 -0.1480  0.1479  0.1852
  780MOL0     C 5184   4.522   5.429   1.396 -0.2012 -0.5679  0.3658
  780MOL0     C 5185   4.410   5.397   1.493  0.0879  0.0803 -0.5331
  780MOL0     C 5186   4.275   5.390   1.419  0.2559  0.8805 -0.2126
  780MOL0     C 5187   4.230   5.525   1.373  0.2216 -0.3423 -0.0868
  780MOL0     C 5188   4.092   5.515   1.310 -0.1838 -0.6509 -0.1934
  780MOL0     O 5189   4.001   5.488   1.418  1.5525 -0.4787 -0.2150
  780MOL0     C 5190   3.882   5.423   1.390  0.6529  0.7714 -0.7153
  780MOL0     C 5191   3.791   5.412   1.487 -0.2292 -0.2770  0.7284
  780MOL0     C 5192   3.656   5.361   1.485 -0.2337  0.5603 -0.5126
  780MOL0     C 5193   3.577   5.372   1.614 -0.0208  0.0924 -0.0441
  780MOL0     C 5194   3.611   5.313   1.363  0.4854 -0.1982  0.5949
  780MOL0     C 5195   3.477   5.247   1.336 -0.2506  0.3017 -0.4195
  780MOL0     O 5196   3.363   5.287   1.411  0.1935 -0.0135 -0.7190
  780MOL0     C 5197   3.239   5.251   1.360 -1.0258  0.1427 -1.1498
  780MOL0     C 5198   3.184   5.282   1.234 -0.3264 -0.1131 -0.1607
  780MOL0     C 5199   3.044   5.273   1.203  0.5161  0.1451  0.3657
  780MOL0     C 5200   2.956   5.229   1.295  0.1737 -0.7262  0.1421
  780MOL0     O 5201   2.824   5.211   1.277  0.5059  0.7408  0.1057
  780MOL0     C 5202   2.761   5.271   1.159 -0.1327 -1.2111 -0.8236
  780MOL0     C 5203   2.607   5.252   1.160  0.1031  0.5227  0.1132
  780MOL0     C 5204   2.530   5.292   1.282 -0.6942  0.8677 -0.1884
  780MOL0     C 5205   2.379   5.257   1.262 -0.1822  0.0061  0.3993
  780MOL0     C 5206   2.318   5.292   1.387  0.1685 -0.1558  0.0327
  780MOL0     C 5207   2.165   5.286   1.370 -0.4195  0.4786 -0.1152
  780MOL0     C 5208   2.071   5.301   1.491  0.1606  0.5256 -0.3509
  780MOL0     C 5209   1.922   5.309   1.462 -0.2554 -0.5140  0.7628
  780MOL0    Cl 5210   1.882   5.457   1.374 -0.3638 -0.5198  0.1573
  780MOL0     C 5211   3.006   5.190   1.420  0.9366  1.1654  0.0915
  780MOL0     C 5212   3.144   5.196   1.457 -0.3337 -0.1464  0.3370
  780MOL0     O 5213   3.475   5.159   1.247 -0.6807  0.2634 -0.1395
  780MOL0     C 5214   3.703   5.312   1.259 -1.3624 -0.9977  0.3417
  780MOL0     C 5215   3.837   5.368   1.269 -0.1629  1.1717 -0.0846
  780MOL0     N 5216   4.520   5.390   1.261 -0.8314 -0.3311 -0.3262
  780MOL0     N 5217   4.630   5.422   1.201  0.7077 -0.9097 -0.2485
  780MOL0     C 5218   5.644   5.402   1.842 -0.4964 -0.0046 -0.4679
  780MOL0     C 5219   5.765   5.373   1.899 -0.4430  0.0269  0.1732
  780MOL0     C 5220   6.188   5.405   2.077  0.5173 -0.2035  0.2590
  780MOL0     C 5221   6.207   5.503   2.177  0.2586 -0.9098 -0.6182
  780MOL0     C 5222   6.338   5.518   2.228  0.2247  0.3343 -0.6380
  780MOL0     C 5223   6.445   5.442   2.184  0.1855  0.1032 -0.0754
  780MOL0     O 5224   6.563   5.479   2.243 -0.3062  0.1828 -0.8057
  780MOL0     C 5225   6.681   5.404   2.207 -0.1497 -0.5016  1.1514
  780MOL0     C 5226   6.749   5.473   2.084 -0.1621  0.5655  0.7204
  780MOL0     C 5227   6.872   5.399   2.028  0.5703  0.0220 -0.0185
  780MOL0     C 5228   6.977   5.366   2.134  0.6434  1.0846  0.2334
  780MOL0     C 5229   7.103   5.349   2.066  0.7772 -0.1585 -0.7141
  780MOL0     C 5230   7.195   5.355   1.996 -0.3897 -0.8946  0.0185
  780MOL0     C 5231   6.419   5.340   2.098 -0.0439  0.8343  0.7854
  780MOL0     C 5232   6.293   5.321   2.045 -0.3990  0.2354  0.2481
  780MOL0     H 5233   5.777   5.585   2.156 -0.8907  0.0245  0.6385
  780MOL0     H 5234   5.551   5.641   2.056 -0.3806 -2.8886  0.4046
  780MOL0     H 5235   5.422   5.383   1.698 -1.8245  0.5261 -0.8318
  780MOL0     H 5236   5.352   5.332   1.852 -0.5615  1.2775  0.9890
  780MOL0     H 5237   5.153   5.406   1.766 -0.0641  1.2661  1.3378
  780MOL0     H 5238   5.218   5.569   1.787  0.1274  1.6530 -2.0861
  780MOL0     H 5239   5.331   5.552   1.563  1.0155 -1.9933 -1.9508
  780MOL0     H 5240   5.255   5.393   1.535  1.0578 -0.4080  0.4482
  780MOL0     H 5241   5.033   5.503   1.566  0.6557  1.1438  0.6416
  780MOL0     H 5242   5.108   5.655   1.569 -0.2353  0.7979 -3.2798
  780MOL0     H 5243   5.241   5.618   1.375 -0.6840  0.5622  0.2380
  780MOL0     H 5244   5.152   5.470   1.341  1.5270  0.2729 -0.2856
  780MOL0     H 5245   5.068   5.761   1.358  3.6222 -1.1183  1.0492
  780MOL0     H 5246   5.072   5.653   1.207  0.3144 -1.8775  0.3205
  780MOL0     H 5247   4.875   5.635   1.447  3.1167  1.0526  1.5115
  780MOL0     H 5248   4.837   5.711   1.290  0.3302 -0.4140  0.2269
  780MOL0     H 5249   4.908   5.423   1.312  2.2696  1.9295  0.4886
  780MOL0     H 5250   4.856   5.519   1.168 -1.6482 -3.0262  0.0295
  780MOL0     H 5251   4.695   5.504   1.518 -0.1708  1.4938 -0.1569
  780MOL0     H 5252   4.410   5.303   1.549 -2.2426 -0.4001 -1.2192
  780MOL0     H 5253   4.403   5.485   1.557  0.2967 -1.5014  1.7960
  780MOL0     H 5254   4.205   5.339   1.485 -0.1143 -0.7819 -1.8175
  780MOL0     H 5255   4.269   5.321   1.334 -1.5686  0.6486  0.0750
  780MOL0     H 5256   4.307   5.553   1.301  1.1638 -1.4502  0.4516
  780MOL0     H 5257   4.231   5.595   1.457 -2.0437 -1.5241  1.0281
  780MOL0     H 5258   4.093   5.429   1.242 -1.2754  0.6720 -1.9418
  780MOL0     H 5259   4.072   5.604   1.251  0.7458  1.2139  2.1472
  780MOL0     H 5260   3.826   5.448   1.584  0.3183  0.5255  0.2428
  780MOL0     H 5261   3.476   5.331   1.604 -0.5062  1.2229  0.0656
  780MOL0     H 5262   3.629   5.329   1.700  3.2893 -1.7449 -2.6914
  780MOL0     H 5263   3.561   5.476   1.645 -4.7407 -1.4023  3.5097
  780MOL0     H 5264   3.249   5.319   1.155 -0.5257 -0.5599 -0.5404
  780MOL0     H 5265   2.999   5.303   1.110 -1.2813 -2.7425  0.1679
  780MOL0     H 5266   2.792   5.375   1.145  1.2796 -1.2725  1.4206
  780MOL0     H 5267   2.791   5.210   1.073 -1.1906  0.0764 -2.1666
  780MOL0     H 5268   2.559   5.304   1.077 -4.4894 -2.9906  0.2086
  780MOL0     H 5269   2.582   5.148   1.139 -2.4689  1.3248 -1.2633
  780MOL0     H 5270   2.527   5.401   1.286 -2.5345  1.0462 -3.3507
  780MOL0     H 5271   2.586   5.245   1.364 -0.2010  0.8141 -0.5573
  780MOL0     H 5272   2.335   5.312   1.179 -2.1505 -0.3944  1.1156
  780MOL0     H 5273   2.361   5.153   1.233 -3.3237  0.8584 -1.1556
  780MOL0     H 5274   2.337   5.397   1.409 -1.2463 -0.3832  2.8695
  780MOL0     H 5275   2.341   5.232   1.476  1.3868  0.4987  0.1709
  780MOL0     H 5276   2.135   5.359   1.294  0.4239  1.3401  0.3617
  780MOL0     H 5277   2.137   5.186   1.334 -0.8887  1.2392 -1.9661
  780MOL0     H 5278   2.103   5.396   1.536 -0.4130  1.7205 -2.3236
  780MOL0     H 5279   2.093   5.222   1.563 -0.8810  0.2421 -0.3268
  780MOL0     H 5280   1.864   5.312   1.555 -0.6511 -3.8125  0.7546
  780MOL0     H 5281   1.891   5.224   1.400  2.2210  0.1316 -1.5482
  780MOL0     H 5282   2.933   5.155   1.492  2.3882  2.0277  2.0859
  780MOL0     H 5283   3.175   5.154   1.552  1.7359 -1.9690 -1.0473
  780MOL0     H 5284   3.674   5.270   1.163 -2.2277  0.0101  0.1468
  780MOL0     H 5285   3.899   5.365   1.181  2.4056  0.4378  1.6395
  780MOL0     H 5286   5.616   5.349   1.752  3.1386  0.6413 -2.1467
  780MOL0     H 5287   5.826   5.297   1.850 -1.5132  0.8225 -2.5598
  780MOL0     H 5288   6.123   5.564   2.207  1.6935  1.1911 -0.6362
  780MOL0     H 5289   6.360   5.592   2.304  0.2427 -0.0101 -0.3028
  780MOL0     H 5290   6.755   5.425   2.284  1.2841 -0.1640 -0.2674
  780MOL0     H 5291   6.670   5.296   2.193 -2.1531 -0.3745  1.4459
  780MOL0     H 5292   6.755   5.581   2.098 -1.4512  0.9441 -1.2533
  780MOL0     H 5293   6.689   5.463   1.993  1.0515 -4.3937  0.1332
  780MOL0     H 5294   6.910   5.471   1.956 -2.1618  2.3528  0.6907
  780MOL0     H 5295   6.831   5.322   1.962  2.0930 -0.1306 -0.8280
  780MOL0     H 5296   6.950   5.264   2.164 -1.8581  1.3580 -0.8347
  780MOL0     H 5297   6.985   5.436   2.218 -3.0942  1.5325  0.3995
  780MOL0     H 5298   7.271   5.353   1.921 -0.3145  0.3418  0.0390
  780MOL0     H 5299   6.502   5.274   2.073  0.9431  2.0091  0.8415
  780MOL0     H 5300   6.283   5.238   1.976  0.8325  0.9041 -0.7729
  781MOL0     O 5301   0.149   7.733   7.651 -0.3419 -0.5773 -0.3859
  781MOL0     C 5302   0.159   7.847   7.600  0.4468 -0.9592  0.1954
  781MOL0     O 5303   0.061   7.943   7.587  0.6992  0.2019  0.0934
  781MOL0     C 5304  -0.072   7.895   7.612  0.6940  1.1217 -0.2088
  781MOL0     C 5305  -0.126   7.861   7.740 -0.8969  0.0928  0.3307
  781MOL0     C 5306  -0.255   7.825   7.763  0.7521  0.4441  0.3449
  781MOL0     C 5307  -0.350   7.817   7.659  0.2294  0.3561 -0.5146
  781MOL0     O 5308  -0.482   7.781   7.682 -0.1226 -0.4631  0.4246
  781MOL0     C 5309  -0.567   7.899   7.659 -0.3813 -0.1043 -0.2929
  781MOL0     C 5310  -0.697   7.884   7.740 -1.0288  0.7814  0.4037
  781MOL0     C 5311  -0.689   7.947   7.880 -0.2325  0.1908 -0.3879
  781MOL0     C 5312  -0.582   7.887   7.963 -0.3554 -0.9080  0.5672
  781MOL0     C 5313  -0.581   7.968   8.096  0.6299 -0.2281 -0.4506
  781MOL0     C 5314  -0.458   7.921   8.176  0.4518 -0.0800  0.3024
  781MOL0     C 5315  -0.328   7.978   8.126  0.6378  0.4163  0.2085
  781MOL0     C 5316  -0.311   8.113   8.190  0.7168 -0.0362 -0.0763
  781MOL0     N 5317  -0.182   8.177   8.150 -0.2848  0.5508 -0.1367
  781MOL0     C 5318  -0.064   8.116   8.110 -0.0628 -0.7988 -0.4153
  781MOL0     C 5319   0.027   8.226   8.103  0.6640  0.2789 -0.3368
  781MOL0     C 5320   0.168   8.222   8.048  0.1939  0.0344 -0.5714
  781MOL0     C 5321   0.257   8.344   8.088  0.6911 -0.6199 -0.2561
  781MOL0     C 5322   0.404   8.306   8.088  0.1590 -0.3779 -0.7640
  781MOL0     C 5323   0.497   8.423   8.114  0.4385 -0.0831  0.1136
  781MOL0     O 5324   0.500   8.501   7.993 -0.7300 -0.3456  0.2090
  781MOL0     C 5325   0.611   8.564   7.954  0.0781 -1.0753 -0.3210
  781MOL0     C 5326   0.596   8.680   7.875 -0.8275 -0.1372  0.2379
  781MOL0     C 5327   0.701   8.758   7.825 -1.0466 -0.0623  0.0718
  781MOL0     C 5328   0.656   8.875   7.745 -0.5301  0.3399  1.2021
  781MOL0     C 5329   0.831   8.731   7.870 -0.0511 -0.1055 -0.6474
  781MOL0     C 5330   0.950   8.809   7.826  0.3628  0.0500  1.1440
  781MOL0     O 5331   0.939   8.924   7.757 -0.1673 -1.2486 -0.1160
  781MOL0     C 5332   1.052   8.982   7.716 -0.3137  0.3089 -0.0433
  781MOL0     C 5333   1.094   8.964   7.584  0.0323  0.0528  0.0445
  781MOL0     C 5334   1.227   9.000   7.549  0.2787  1.1546  0.0291
  781MOL0     C 5335   1.316   9.069   7.636 -0.0480  1.0952  0.0889
  781MOL0     O 5336   1.437   9.119   7.608 -0.3438  0.4194  0.6954
  781MOL0     C 5337   1.484   9.110   7.476  0.8059 -0.1459  0.7170
  781MOL0     C 5338   1.604   9.198   7.443  0.3277  0.0803  0.6183
  781MOL0     C 5339   1.600   9.332   7.518  0.3755 -1.0159 -0.3810
  781MOL0     C 5340   1.734   9.404   7.495 -0.4650  0.1863  0.3628
  781MOL0     C 5341   1.716   9.558   7.487  0.1109  0.2101 -0.1164
  781MOL0     C 5342   1.710   9.625   7.620  0.1085  0.5528 -0.2782
  781MOL0     C 5343   1.652   9.760   7.610  0.0384  0.4898  0.3024
  781MOL0     C 5344   1.670   9.823   7.746  0.5278 -0.1325 -0.0941
  781MOL0    Cl 5345   1.572   9.952   7.756  0.5541 -0.0616 -0.1236
  781MOL0     C 5346   1.265   9.088   7.764  0.0020 -0.4552  0.0681
  781MOL0     C 5347   1.144   9.041   7.806  0.8143 -0.5116 -0.0537
  781MOL0     O 5348   1.051   8.742   7.845  0.5710  0.2713 -0.5862
  781MOL0     C 5349   0.853   8.607   7.948  0.1884 -0.4715 -0.4236
  781MOL0     C 5350   0.740   8.527   7.985 -0.6086 -0.0175 -0.8723
  781MOL0     N 5351  -0.040   8.343   8.125 -0.1789  0.4589 -1.5226
  781MOL0     N 5352  -0.160   8.313   8.161  0.2896  0.2541 -0.0799
  781MOL0     C 5353  -0.298   7.846   7.529 -0.3777 -0.1020 -0.1374
  781MOL0     C 5354  -0.162   7.880   7.505 -0.0591  0.2291  0.7992
  781MOL0     C 5355   0.279   7.880   7.526 -0.0805  0.5980 -0.2307
  781MOL0     C 5356   0.263   7.954   7.408  0.2363 -0.7768 -0.2270
  781MOL0     C 5357   0.375   7.979   7.325 -0.1876  1.3331  0.1760
  781MOL0     C 5358   0.504   7.953   7.371 -0.2020  0.2677  0.7167
  781MOL0     O 5359   0.623   7.994   7.308  0.6896  0.1704 -0.2193
  781MOL0     C 5360   0.617   8.115   7.223  1.2028 -0.2626 -0.0333
  781MOL0     C 5361   0.757   8.147   7.172  0.0367  1.1253  0.3669
  781MOL0     C 5362   0.784   8.025   7.070  0.2793  0.7015 -0.5380
  781MOL0     C 5363   0.918   8.038   6.996  0.8632 -0.3330 -0.4790
  781MOL0     C 5364   0.918   8.158   6.912  0.1028 -0.3974  0.0111
  781MOL0     C 5365   0.925   8.260   6.846  0.3424  0.2240 -0.3967
  781MOL0     C 5366   0.520   7.876   7.482 -0.4089 -0.1173 -0.3777
  781MOL0     C 5367   0.413   7.829   7.559  0.3298 -0.1226 -0.3653
  781MOL0     H 5368  -0.062   7.864   7.828  0.8665  4.7349 -0.7905
  781MOL0     H 5369  -0.279   7.803   7.867  2.2246 -0.9386  0.4481
  781MOL0     H 5370  -0.524   7.994   7.691  3.2414 -1.9877  0.9805
  781MOL0     H 5371  -0.592   7.891   7.553  0.5532  0.3509 -0.5661
  781MOL0     H 5372  -0.774   7.928   7.676  1.1406 -1.2177 -4.0106
  781MOL0     H 5373  -0.722   7.778   7.749 -1.7828  1.0786  2.2791
  781MOL0     H 5374  -0.675   8.055   7.880 -2.4502  0.5127  0.0789
  781MOL0     H 5375  -0.785   7.928   7.928  0.4943 -3.2487 -0.0519
  781MOL0     H 5376  -0.611   7.783   7.981 -2.0827 -0.7545 -1.0304
  781MOL0     H 5377  -0.488   7.894   7.908 -1.7796  0.8389 -1.8797
  781MOL0     H 5378  -0.586   8.072   8.064 -0.7698 -0.3752 -0.7942
  781MOL0     H 5379  -0.677   7.958   8.148  0.2618 -0.2065 -1.1237
  781MOL0     H 5380  -0.468   7.943   8.283 -0.5655 -0.0196  0.2064
  781MOL0     H 5381  -0.461   7.812   8.166 -2.5229 -0.1123  0.6052
  781MOL0     H 5382  -0.248   7.908   8.152  0.5395  0.8606  1.8335
  781MOL0     H 5383  -0.318   7.979   8.017  2.9335  2.1015  0.3789
  781MOL0     H 5384  -0.329   8.125   8.298 -1.6533  0.1457 -0.4343
  781MOL0     H 5385  -0.386   8.176   8.141  0.1537 -0.7020 -0.0742
  781MOL0     H 5386  -0.049   8.010   8.089  0.1958 -1.0434  0.9354
  781MOL0     H 5387   0.227   8.138   8.085  1.8243  1.5319  0.3891
  781MOL0     H 5388   0.163   8.213   7.939  3.9892  0.2342 -0.8721
  781MOL0     H 5389   0.229   8.365   8.192  2.5573 -0.5648  0.2810
  781MOL0     H 5390   0.236   8.433   8.027  3.4311 -0.2498 -0.8012
  781MOL0     H 5391   0.447   8.265   7.996  0.1272  0.0513 -0.9730
  781MOL0     H 5392   0.425   8.237   8.170  1.3257  0.7915 -0.0494
  781MOL0     H 5393   0.599   8.402   8.148  1.5179  1.9213 -1.5904
  781MOL0     H 5394   0.450   8.484   8.191 -1.6651  2.4283 -2.8749
  781MOL0     H 5395   0.497   8.719   7.851 -0.2327  0.9403 -0.5589
  781MOL0     H 5396   0.717   8.879   7.654 -2.0567 -0.3678  0.0996
  781MOL0     H 5397   0.551   8.870   7.713 -0.6381  1.4354  1.3294
  781MOL0     H 5398   0.682   8.962   7.805  1.6512 -2.4012  4.5628
  781MOL0     H 5399   1.033   8.907   7.515  2.5183  1.1910 -3.3541
  781MOL0     H 5400   1.267   8.970   7.452  1.5392  1.4158  0.4580
  781MOL0     H 5401   1.512   9.007   7.454 -0.1405 -0.4310  0.8102
  781MOL0     H 5402   1.402   9.138   7.409 -0.2231 -0.7207  1.6938
  781MOL0     H 5403   1.689   9.140   7.481  1.2546  1.4051  0.6534
  781MOL0     H 5404   1.623   9.207   7.335  1.2107 -0.6892  0.6906
  781MOL0     H 5405   1.570   9.324   7.623 -1.3344 -1.8264 -0.8972
  781MOL0     H 5406   1.528   9.394   7.464  0.1994  1.2048  2.2119
  781MOL0     H 5407   1.807   9.379   7.572 -1.4447 -0.9025  0.9695
  781MOL0     H 5408   1.777   9.359   7.405 -1.2155 -0.2380  0.2079
  781MOL0     H 5409   1.624   9.586   7.434 -2.1651  0.2639  3.4861
  781MOL0     H 5410   1.800   9.612   7.444  1.2999 -0.3025  1.4680
  781MOL0     H 5411   1.652   9.562   7.688 -1.9825  2.1823 -0.4473
  781MOL0     H 5412   1.813   9.636   7.655  0.1761 -2.8781  0.9872
  781MOL0     H 5413   1.546   9.743   7.586  0.4436  0.0590 -1.2621
  781MOL0     H 5414   1.700   9.812   7.527 -1.1087 -2.4022 -2.3355
  781MOL0     H 5415   1.775   9.846   7.769 -0.4885  5.1421  0.3523
  781MOL0     H 5416   1.631   9.752   7.820 -1.5042  0.4424 -0.5559
  781MOL0     H 5417   1.319   9.153   7.832 -1.3822 -1.8577  2.6547
  781MOL0     H 5418   1.110   9.055   7.908  1.6636 -3.0499  0.6313
  781MOL0     H 5419   0.954   8.579   7.977  0.0376  0.2150  0.8587
  781MOL0     H 5420   0.756   8.444   8.053 -2.0842 -0.0639 -0.5669
  781MOL0     H 5421  -0.374   7.842   7.452 -0.9706  2.7796  0.1563
  781MOL0     H 5422  -0.124   7.907   7.407 -2.0358  1.8941  0.4080
  781MOL0     H 5423   0.167   7.993   7.375  2.0635  2.5333 -2.1443
  781MOL0     H 5424   0.359   8.030   7.230 -1.2923  0.8957  0.1123
  781MOL0     H 5425   0.541   8.100   7.145  0.4060  0.7679  0.5331
  781MOL0     H 5426   0.579   8.187   7.295 -0.0566 -2.0497  1.1739
  781MOL0     H 5427   0.834   8.143   7.250  2.5779  3.0456 -1.8511
  781MOL0     H 5428   0.764   8.247   7.128  0.6821  1.4405  1.1469
  781MOL0     H 5429   0.701   8.020   7.000 -0.9960 -2.3068  0.9981
  781MOL0     H 5430   0.787   7.929   7.121 -2.0807  0.4505 -0.7580
  781MOL0     H 5431   0.935   7.948   6.935  0.2042 -2.4964  2.3239
  781MOL0     H 5432   0.997   8.031   7.070 -1.5886  0.0379  2.3632
  781MOL0     H 5433   0.924   8.345   6.781 -0.8322 -0.2895 -1.0943
  781MOL0     H 5434   0.623   7.861   7.511  0.2822  3.9571 -0.1290
  781MOL0     H 5435   0.434   7.758   7.639  0.2283 -1.7080 -1.6880
  782MOL0     O 5436   7.224   0.305   6.041  0.4041 -0.0324  0.3273
  782MOL0     C 5437   7.258   0.365   5.941  0.5439 -0.5808  0.4290
  782MOL0     O 5438   7.194   0.478   5.896 -0.1868  1.3172  0.6150
  782MOL0     C 5439   7.085   0.541   5.954 -0.1234  0.0691 -0.2057
  782MOL0     C 5440   7.078   0.678   5.955  0.1518  0.4174  0.5083
  782MOL0     C 5441   6.960   0.741   5.993  1.3507  0.0555  0.7252
  782MOL0     C 5442   6.850   0.670   6.051 -0.3693 -0.5645  0.2831
  782MOL0     O 5443   6.748   0.747   6.080  0.2880  0.6509  0.2646
  782MOL0     C 5444   6.620   0.699   6.139 -0.2332  0.0990 -0.0539
  782MOL0     C 5445   6.527   0.817   6.122  0.5131  0.0803  0.5318
  782MOL0     C 5446   6.385   0.776   6.148  0.3419 -0.6735  0.0159
  782MOL0     C 5447   6.294   0.893   6.117  0.1723 -0.6647  0.9759
  782MOL0     C 5448   6.159   0.850   6.173  0.5309  0.4448 -0.2599
  782MOL0     C 5449   6.054   0.951   6.141 -0.0076 -1.2153  0.6516
  782MOL0     C 5450   5.912   0.908   6.171 -0.2944  0.3492  0.0527
  782MOL0     C 5451   5.817   1.033   6.171 -0.0593 -0.2990  0.4097
  782MOL0     N 5452   5.677   0.995   6.185 -0.1651 -0.3982 -0.5239
  782MOL0     C 5453   5.604   0.935   6.087  0.1308  0.2772  0.1692
  782MOL0     C 5454   5.473   0.955   6.122 -0.4635  0.2215 -0.2407
  782MOL0     C 5455   5.355   0.907   6.042 -0.0377 -0.6932  0.0197
  782MOL0     C 5456   5.229   0.938   6.121 -0.5909 -0.1660  0.7022
  782MOL0     C 5457   5.111   0.857   6.061 -0.3525 -0.4769 -0.1128
  782MOL0     C 5458   5.004   0.843   6.166 -0.0969  0.0189  1.5836
  782MOL0     O 5459   4.931   0.715   6.145 -0.2165 -0.8089 -0.4963
  782MOL0     C 5460   4.813   0.698   6.218  0.1750  0.0455 -0.0735
  782MOL0     C 5461   4.745   0.580   6.205 -0.5115  0.2685  0.1783
  782MOL0     C 5462   4.618   0.554   6.274 -0.3280  0.4841 -0.2412
  782MOL0     C 5463   4.535   0.440   6.227 -0.0832  0.1583 -0.4923
  782MOL0     C 5464   4.562   0.654   6.362  0.0507  0.7707  0.2830
  782MOL0     C 5465   4.443   0.627   6.449 -0.3960 -0.6605 -0.8388
  782MOL0     O 5466   4.376   0.736   6.489  0.1503 -0.2237  0.1920
  782MOL0     C 5467   4.252   0.724   6.543 -0.1091  0.8362 -0.2965
  782MOL0     C 5468   4.245   0.777   6.671  0.0768 -0.0293  0.5134
  782MOL0     C 5469   4.122   0.770   6.729  0.3229  0.2465  0.3831
  782MOL0     C 5470   4.014   0.700   6.672 -0.5814 -0.2156  0.0252
  782MOL0     O 5471   3.905   0.693   6.748  0.4123 -0.2804 -0.1782
  782MOL0     C 5472   3.805   0.597   6.723  0.6809 -0.2903 -0.3723
  782MOL0     C 5473   3.838   0.462   6.790 -0.3950  0.0163  0.0616
  782MOL0     C 5474   3.859   0.472   6.936 -0.2781  0.2355 -0.2549
  782MOL0     C 5475   3.901   0.340   7.007 -0.7227 -0.0280 -0.9344
  782MOL0     C 5476   3.956   0.383   7.148 -0.0235  0.0344  0.1498
  782MOL0     C 5477   4.048   0.278   7.208 -0.0839 -0.2613  1.0530
  782MOL0     C 5478   4.119   0.326   7.326 -0.0159  0.0407  0.3014
  782MOL0     C 5479   4.243   0.243   7.358  0.0654 -1.6779  0.8810
  782MOL0    Cl 5480   4.338   0.316   7.493  0.2761  0.2439  0.4125
  782MOL0     C 5481   4.029   0.650   6.544 -1.0095  0.5784  0.5582
  782MOL0     C 5482   4.149   0.651   6.477 -0.0864 -0.3835  0.6716
  782MOL0     O 5483   4.412   0.514   6.470 -0.2205 -0.3896  0.0942
  782MOL0     C 5484   4.634   0.772   6.374 -0.2535 -0.4037  0.3051
  782MOL0     C 5485   4.760   0.788   6.311  0.2127  0.0902  0.6416
  782MOL0     N 5486   5.478   1.030   6.236  0.7947 -0.0957 -0.5478
  782MOL0     N 5487   5.598   1.048   6.282  0.0461  0.1133  0.0802
  782MOL0     C 5488   6.860   0.537   6.060  0.5975 -0.9318  0.0196
  782MOL0     C 5489   6.973   0.464   6.002 -0.2804 -0.2874 -0.1169
  782MOL0     C 5490   7.376   0.317   5.860 -0.1439  0.2466 -0.1326
  782MOL0     C 5491   7.435   0.404   5.769  0.1988 -0.0376  0.6030
  782MOL0     C 5492   7.535   0.363   5.684  0.9693  0.2583 -0.0466
  782MOL0     C 5493   7.584   0.229   5.701 -0.2309 -0.0114 -0.0143
  782MOL0     O 5494   7.690   0.181   5.631  0.3185 -0.2523  0.6303
  782MOL0     C 5495   7.762   0.266   5.541 -0.0705  0.1512  0.3474
  782MOL0     C 5496   7.873   0.193   5.464  0.2409 -0.5922  0.0806
  782MOL0     C 5497   7.969   0.104   5.554 -0.3836 -0.2270 -0.1808
  782MOL0     C 5498   8.105   0.107   5.509 -0.4551  0.0104  0.4028
  782MOL0     C 5499   8.193   0.051   5.604  0.1944  0.4286  0.2399
  782MOL0     C 5500   8.245   0.005   5.702 -0.0877  0.2439  0.4087
  782MOL0     C 5501   7.540   0.152   5.806  0.2847  0.1827  0.5269
  782MOL0     C 5502   7.429   0.193   5.878 -0.1504  0.4366 -0.3267
  782MOL0     H 5503   7.161   0.734   5.913  0.3928 -0.5925 -0.3851
  782MOL0     H 5504   6.957   0.849   5.979  2.5481 -0.0167 -0.2192
  782MOL0     H 5505   6.589   0.613   6.080 -1.6281  0.0998  0.6343
  782MOL0     H 5506   6.634   0.682   6.246  3.8695  3.5733  0.2640
  782MOL0     H 5507   6.557   0.898   6.188 -0.9589 -0.4034  1.8493
  782MOL0     H 5508   6.540   0.854   6.020 -0.8785 -1.5189 -0.2893
  782MOL0     H 5509   6.365   0.683   6.094 -1.6123 -0.5342  0.4056
  782MOL0     H 5510   6.377   0.752   6.255  2.3438 -1.6165 -0.0020
  782MOL0     H 5511   6.324   0.990   6.156 -4.0940  2.1474 -1.8112
  782MOL0     H 5512   6.291   0.903   6.008  1.3148  2.9464  1.1546
  782MOL0     H 5513   6.130   0.755   6.129 -1.3796  0.8992 -0.0615
  782MOL0     H 5514   6.162   0.830   6.280 -0.4914 -3.1985 -0.7890
  782MOL0     H 5515   6.072   1.046   6.193 -2.5353 -1.2297  1.6912
  782MOL0     H 5516   6.063   0.973   6.034  0.9800  0.8416  1.1094
  782MOL0     H 5517   5.875   0.836   6.096 -0.9080 -1.0137  1.5994
  782MOL0     H 5518   5.918   0.860   6.269 -0.0942  0.9521  0.3376
  782MOL0     H 5519   5.831   1.094   6.081 -0.0581 -1.0904 -0.1396
  782MOL0     H 5520   5.844   1.087   6.262 -1.4901 -0.4068  0.9150
  782MOL0     H 5521   5.647   0.886   6.000  0.7769 -0.5684  0.9461
  782MOL0     H 5522   5.355   0.954   5.943  0.7215  1.9406  1.2089
  782MOL0     H 5523   5.377   0.800   6.042  3.4278 -0.0828  0.5863
  782MOL0     H 5524   5.206   1.044   6.130 -1.3457 -0.0774 -1.7862
  782MOL0     H 5525   5.245   0.907   6.225 -2.4729 -1.6055  0.6207
  782MOL0     H 5526   5.144   0.763   6.016  0.8286  0.6116 -1.6383
  782MOL0     H 5527   5.065   0.917   5.982  0.5169  0.1252 -0.1799
  782MOL0     H 5528   4.940   0.931   6.157  1.1183  0.7862 -0.2429
  782MOL0     H 5529   5.047   0.843   6.266  2.4247 -0.3505  0.5780
  782MOL0     H 5530   4.778   0.502   6.137  1.5162  0.2530  1.1048
  782MOL0     H 5531   4.564   0.401   6.128  0.1250  2.2085 -1.2870
  782MOL0     H 5532   4.517   0.354   6.292 -1.0271  0.1377 -0.7745
  782MOL0     H 5533   4.440   0.490   6.208 -0.3842  0.0379  0.6598
  782MOL0     H 5534   4.330   0.825   6.720  0.9022 -0.9339  0.0057
  782MOL0     H 5535   4.100   0.815   6.826 -0.6286  0.1939  0.2056
  782MOL0     H 5536   3.710   0.631   6.763  0.5220 -0.1514 -0.8578
  782MOL0     H 5537   3.785   0.585   6.616 -0.6255  0.5203 -0.2295
  782MOL0     H 5538   3.752   0.395   6.782 -0.3004 -0.2463  1.0445
  782MOL0     H 5539   3.926   0.420   6.741 -1.2640 -1.2646 -0.4545
  782MOL0     H 5540   3.776   0.504   6.999  2.1261 -0.5151  3.6371
  782MOL0     H 5541   3.933   0.548   6.962 -1.4743  1.2707  0.2419
  782MOL0     H 5542   3.819   0.270   7.025 -0.8792  0.1824 -0.8210
  782MOL0     H 5543   3.987   0.297   6.954  0.5203  1.1894  0.0194
  782MOL0     H 5544   3.866   0.384   7.209 -0.1754 -2.1190  0.0265
  782MOL0     H 5545   4.007   0.480   7.147  0.7295 -0.3487 -0.6793
  782MOL0     H 5546   3.995   0.183   7.220  0.0347 -0.5585 -0.5302
  782MOL0     H 5547   4.124   0.267   7.130 -1.1254  0.1630 -0.0454
  782MOL0     H 5548   4.052   0.343   7.410 -2.4643 -2.8854 -0.8712
  782MOL0     H 5549   4.147   0.430   7.304 -1.8210  1.0602  2.4192
  782MOL0     H 5550   4.305   0.229   7.269 -1.3118 -1.9024 -0.0745
  782MOL0     H 5551   4.210   0.143   7.388 -2.9800 -1.2983 -0.8346
  782MOL0     H 5552   3.946   0.596   6.498  0.0949  0.5215 -1.4618
  782MOL0     H 5553   4.176   0.614   6.378 -0.6983  0.2859  0.2392
  782MOL0     H 5554   4.587   0.839   6.445  0.6774 -1.4432  1.9746
  782MOL0     H 5555   4.805   0.883   6.337 -0.8285  0.3784  1.4754
  782MOL0     H 5556   6.779   0.476   6.100  1.4782 -3.2507 -1.4845
  782MOL0     H 5557   6.980   0.356   6.004  1.7389 -0.1932  0.8120
  782MOL0     H 5558   7.403   0.507   5.756  1.3344  0.0843 -1.9411
  782MOL0     H 5559   7.572   0.444   5.622 -2.6160  2.6109  0.5756
  782MOL0     H 5560   7.688   0.314   5.476 -1.9796 -4.0244 -0.9378
  782MOL0     H 5561   7.805   0.345   5.603  0.6099  1.3134 -1.5211
  782MOL0     H 5562   7.928   0.270   5.409 -1.0817  1.0231  0.9168
  782MOL0     H 5563   7.816   0.130   5.395  0.6239 -0.8526  0.0005
  782MOL0     H 5564   7.944  -0.002   5.548  4.5728 -1.9329  2.9021
  782MOL0     H 5565   7.970   0.128   5.661 -0.0769 -3.1455  0.5546
  782MOL0     H 5566   8.132   0.209   5.481 -1.4282  0.2544  0.3083
  782MOL0     H 5567   8.119   0.048   5.418  2.5807  0.6129  0.3759
  782MOL0     H 5568   8.291  -0.014   5.797  1.0544 -1.9623 -0.5091
  782MOL0     H 5569   7.597   0.061   5.821  1.0113  0.7202  1.0634
  782MOL0     H 5570   7.389   0.120   5.948  0.4742 -2.1345 -2.5156
  783MOL0     O 5571   3.364   1.839  10.145 -0.0346 -0.6072 -0.7256
  783MOL0     C 5572   3.424   1.893  10.051 -0.0331  0.0551  0.2415
  783MOL0     O 5573   3.365   1.960   9.944  0.5679  0.2391 -0.6003
  783MOL0     C 5574   3.228   1.941   9.925  0.5412 -0.0276 -0.1568
  783MOL0     C 5575   3.163   1.812   9.930  0.2009 -0.5062  0.9198
  783MOL0     C 5576   3.023   1.790   9.906 -1.1084 -0.2075  0.6309
  783MOL0     C 5577   2.943   1.896   9.890 -0.3454 -0.2168 -0.0817
  783MOL0     O 5578   2.805   1.878   9.880 -0.0622 -0.3835  0.0071
  783MOL0     C 5579   2.751   1.908   9.749  1.2575  1.3162  0.1247
  783MOL0     C 5580   2.666   2.036   9.761  0.0773 -0.5218  0.1546
  783MOL0     C 5581   2.574   2.068   9.640 -0.3755 -0.2553  0.3139
  783MOL0     C 5582   2.458   1.967   9.630 -0.0426 -1.0243 -0.2378
  783MOL0     C 5583   2.360   1.986   9.515 -0.4026 -0.5626 -0.8579
  783MOL0     C 5584   2.278   1.859   9.477 -0.3678  1.3361  0.5300
  783MOL0     C 5585   2.149   1.878   9.398 -0.1831 -1.0380  1.3558
  783MOL0     C 5586   2.185   1.966   9.268 -0.4417 -0.2121  0.7582
  783MOL0     N 5587   2.073   1.979   9.185  0.1090  0.6472 -0.9822
  783MOL0     C 5588   1.973   2.061   9.228  0.9517  0.4895  0.4913
  783MOL0     C 5589   1.882   2.075   9.124  0.7135 -0.1267  0.4459
  783MOL0     C 5590   1.758   2.167   9.121  0.1464  1.0638  0.2817
  783MOL0     C 5591   1.628   2.103   9.170  0.6330 -0.2941  0.1859
  783MOL0     C 5592   1.652   2.028   9.299  0.7222  0.4926  0.3790
  783MOL0     C 5593   1.520   1.988   9.383 -0.3979 -0.6658  0.2290
  783MOL0     O 5594   1.474   2.111   9.443 -0.3546  0.0194  0.2497
  783MOL0     C 5595   1.364   2.114   9.515 -0.7335 -0.3087  1.0941
  783MOL0     C 5596   1.320   2.027   9.616 -0.1575  0.0910 -0.2739
  783MOL0     C 5597   1.200   2.044   9.686  0.3176 -0.9325  0.4243
  783MOL0     C 5598   1.174   1.945   9.796 -0.2538 -0.3414 -0.7196
  783MOL0     C 5599   1.103   2.142   9.643 -0.2814 -0.3121 -0.4110
  783MOL0     C 5600   0.964   2.165   9.676  0.1533  0.4098 -0.2560
  783MOL0     O 5601   0.889   2.227   9.581 -0.4909  0.5300 -0.3382
  783MOL0     C 5602   0.770   2.284   9.614 -0.2164 -0.1201 -0.6242
  783MOL0     C 5603   0.742   2.347   9.735  0.4164 -0.7663  0.5755
  783MOL0     C 5604   0.614   2.402   9.758 -0.4681  0.9349  0.2919
  783MOL0     C 5605   0.509   2.389   9.660 -0.3036 -0.8005  0.1101
  783MOL0     O 5606   0.383   2.423   9.681  0.3156  0.3243 -0.0088
  783MOL0     C 5607   0.336   2.429   9.816 -0.0956 -0.7241 -0.0604
  783MOL0     C 5608   0.183   2.412   9.823  0.4072  0.3411 -0.4408
  783MOL0     C 5609   0.116   2.451   9.957 -1.3513  0.7477 -0.3325
  783MOL0     C 5610   0.148   2.341  10.055  1.0301 -0.6944  1.5864
  783MOL0     C 5611   0.124   2.382  10.204 -0.0610 -0.1465 -0.1044
  783MOL0     C 5612   0.176   2.280  10.303 -0.2132  1.3630  0.9089
  783MOL0     C 5613   0.181   2.329  10.452  0.3021 -0.1113  0.3093
  783MOL0     C 5614   0.047   2.325  10.528 -0.2793 -0.1118 -0.0466
  783MOL0    Cl 5615   0.073   2.375  10.704 -0.1941 -0.2576 -0.0590
  783MOL0     C 5616   0.548   2.333   9.534  0.6914 -0.1365 -0.4736
  783MOL0     C 5617   0.669   2.277   9.512  1.0981  1.0190  0.6315
  783MOL0     O 5618   0.928   2.130   9.792 -0.4170  0.3063  0.2141
  783MOL0     C 5619   1.150   2.229   9.541  0.3781 -0.6502 -0.4200
  783MOL0     C 5620   1.272   2.215   9.483  0.0906  0.3426  0.0344
  783MOL0     N 5621   1.938   1.998   9.021 -0.4997  0.0859  0.1362
  783MOL0     N 5622   2.051   1.948   9.059 -0.1853 -0.0377  0.5156
  783MOL0     C 5623   3.000   2.022   9.868 -0.4768  0.1571 -0.2815
  783MOL0     C 5624   3.136   2.046   9.888 -0.1168  0.0617 -0.1512
  783MOL0     C 5625   3.571   1.857  10.031  0.3664  0.9656  0.0663
  783MOL0     C 5626   3.638   1.896   9.916 -0.0382  0.7888 -0.0010
  783MOL0     C 5627   3.776   1.878   9.892 -0.2235  0.2777  0.4916
  783MOL0     C 5628   3.858   1.826   9.994  0.6510 -0.5453  0.4508
  783MOL0     O 5629   3.995   1.835  10.001  0.3140  0.2998  0.5788
  783MOL0     C 5630   4.076   1.897   9.896  0.8228  0.3816 -0.2045
  783MOL0     C 5631   4.087   2.044   9.916  0.1740 -0.4180  0.2158
  783MOL0     C 5632   4.195   2.113   9.823 -0.0850  0.4687  0.1980
  783MOL0     C 5633   4.153   2.255   9.795 -0.1047 -0.8944 -0.1368
  783MOL0     C 5634   4.103   2.334   9.913 -0.3071  0.1351 -0.0327
  783MOL0     C 5635   4.063   2.399  10.012  0.3310 -0.1822  0.0045
  783MOL0     C 5636   3.788   1.791  10.113  0.0542 -0.0616  0.1231
  783MOL0     C 5637   3.656   1.809  10.133 -0.0214 -0.0042 -0.3263
  783MOL0     H 5638   3.226   1.725   9.942  0.6273 -0.9569 -3.3038
  783MOL0     H 5639   2.998   1.684   9.901  0.7846 -0.7941  2.2442
  783MOL0     H 5640   2.814   1.910   9.660 -0.8901  0.9519 -1.4990
  783MOL0     H 5641   2.685   1.821   9.737  0.1012  2.3174 -1.0971
  783MOL0     H 5642   2.596   2.021   9.843  0.3046 -0.5350  0.3489
  783MOL0     H 5643   2.730   2.122   9.782  1.2620 -0.8402 -1.8694
  783MOL0     H 5644   2.538   2.171   9.651 -2.7981 -1.1079  1.0050
  783MOL0     H 5645   2.640   2.057   9.553 -2.5936 -0.5366 -1.4081
  783MOL0     H 5646   2.512   1.872   9.618 -0.6521 -1.4869  0.5900
  783MOL0     H 5647   2.396   1.962   9.719 -2.6417 -2.2216 -2.0062
  783MOL0     H 5648   2.284   2.058   9.544  0.8253  0.1527  0.7336
  783MOL0     H 5649   2.423   2.015   9.431  2.8836  0.1900  1.6582
  783MOL0     H 5650   2.340   1.787   9.422  0.4444  1.1484  1.6466
  783MOL0     H 5651   2.254   1.819   9.576  0.8569  1.4217  0.8774
  783MOL0     H 5652   2.111   1.789   9.347  0.0384  0.1833 -1.0983
  783MOL0     H 5653   2.071   1.921   9.461  0.6786  1.6124  0.7631
  783MOL0     H 5654   2.260   1.913   9.209 -1.2088 -2.5224  1.7339
  783MOL0     H 5655   2.230   2.061   9.297  1.3675 -0.3531 -1.2923
  783MOL0     H 5656   1.959   2.096   9.330 -0.9802 -0.7532  0.7047
  783MOL0     H 5657   1.765   2.260   9.177 -1.3781  1.5890 -0.3382
  783MOL0     H 5658   1.743   2.205   9.020 -2.2377 -1.3019 -0.3775
  783MOL0     H 5659   1.592   2.038   9.090 -1.9091  1.1704 -0.0041
  783MOL0     H 5660   1.552   2.179   9.193 -0.2961 -1.4439  1.0864
  783MOL0     H 5661   1.700   2.100   9.366 -0.4201  2.4053 -0.7556
  783MOL0     H 5662   1.701   1.933   9.280 -1.4784 -1.0271  1.7794
  783MOL0     H 5663   1.551   1.905   9.447  1.2984  1.1335  1.8528
  783MOL0     H 5664   1.439   1.965   9.312 -1.4481 -1.7696  1.7327
  783MOL0     H 5665   1.385   1.943   9.638  0.7919  1.1340  1.0850
  783MOL0     H 5666   1.111   1.986   9.876  0.6075  1.2075 -0.7948
  783MOL0     H 5667   1.121   1.860   9.752  0.1783 -0.4584 -1.0201
  783MOL0     H 5668   1.265   1.901   9.838  0.0297 -0.0219 -0.9974
  783MOL0     H 5669   0.813   2.339   9.816  1.3840 -1.6296 -0.3332
  783MOL0     H 5670   0.597   2.444   9.856  2.4532 -1.2336  1.8860
  783MOL0     H 5671   0.391   2.360   9.881 -0.3947  0.6264  1.7186
  783MOL0     H 5672   0.363   2.525   9.862  3.3129 -2.0810  1.0889
  783MOL0     H 5673   0.148   2.483   9.748  1.3138  0.5508 -0.6829
  783MOL0     H 5674   0.165   2.307   9.799 -0.3501 -0.3132  2.5252
  783MOL0     H 5675   0.009   2.472   9.953 -1.3275  0.7772 -0.8147
  783MOL0     H 5676   0.157   2.546   9.992  3.0024 -0.8333 -0.4966
  783MOL0     H 5677   0.097   2.250  10.022 -2.7882  1.2623  1.5383
  783MOL0     H 5678   0.256   2.330  10.039  1.0931  1.6056 -0.2086
  783MOL0     H 5679   0.020   2.396  10.234  0.0403 -0.4669  0.4140
  783MOL0     H 5680   0.183   2.471  10.227 -1.1010  0.7764 -0.9598
  783MOL0     H 5681   0.117   2.189  10.288 -1.9409  2.9143 -3.4385
  783MOL0     H 5682   0.275   2.244  10.275 -1.0212 -0.9644  0.7809
  783MOL0     H 5683   0.236   2.424  10.448  0.2891 -0.1308 -0.8004
  783MOL0     H 5684   0.249   2.257  10.500  1.1047  0.6729  0.3834
  783MOL0     H 5685   0.004   2.225  10.518 -2.0943  0.5806  0.4686
  783MOL0     H 5686  -0.025   2.389  10.476 -0.5189  0.8971  1.4831
  783MOL0     H 5687   0.470   2.326   9.458  1.0606 -2.2341 -0.7096
  783MOL0     H 5688   0.686   2.228   9.417  2.8658  2.6930  0.0125
  783MOL0     H 5689   1.098   2.314   9.498  3.5527  1.4200 -0.4568
  783MOL0     H 5690   1.304   2.286   9.407  3.3727 -1.6436 -0.6448
  783MOL0     H 5691   2.933   2.103   9.840  3.2319  3.4361 -0.4140
  783MOL0     H 5692   3.166   2.150   9.878  2.3467 -0.7585 -2.9446
  783MOL0     H 5693   3.579   1.929   9.831 -2.2277 -1.5763  0.4893
  783MOL0     H 5694   3.821   1.903   9.797  0.7040  0.6691  1.0212
  783MOL0     H 5695   4.174   1.849   9.903 -0.8200 -3.1234  1.2142
  783MOL0     H 5696   4.035   1.880   9.796  0.9511 -0.8823 -0.0522
  783MOL0     H 5697   4.129   2.055  10.016  2.0397  1.6370 -0.7297
  783MOL0     H 5698   3.989   2.090   9.901 -0.2393 -0.1458  3.1037
  783MOL0     H 5699   4.206   2.057   9.729 -0.8987  0.8491 -0.1404
  783MOL0     H 5700   4.289   2.110   9.878  0.0337  1.1802  0.0429
  783MOL0     H 5701   4.070   2.253   9.724  1.2156 -1.8971 -1.7172
  783MOL0     H 5702   4.235   2.310   9.748 -1.3993  0.9597 -0.3209
  783MOL0     H 5703   4.013   2.455  10.088  0.7475 -1.0939  0.9895
  783MOL0     H 5704   3.850   1.747  10.191 -1.5618 -0.2798  1.3520
  783MOL0     H 5705   3.618   1.783  10.232  1.9975 -0.3240  0.4105
  784MOL0     O 5706   2.891   7.552   2.700 -0.5301  0.8053  0.2848
  784MOL0     C 5707   2.982   7.637   2.680  0.1134  0.1270 -0.2526
  784MOL0     O 5708   2.957   7.765   2.640  0.0959 -0.5406 -0.3948
  784MOL0     C 5709   2.825   7.797   2.646  0.7411  0.2657 -0.1293
  784MOL0     C 5710   2.746   7.773   2.757 -0.1618 -0.2562  0.5079
  784MOL0     C 5711   2.606   7.805   2.760  0.1464 -0.9543 -0.2860
  784MOL0     C 5712   2.548   7.863   2.647  0.4124 -0.1590  0.1569
  784MOL0     O 5713   2.415   7.889   2.659  0.3947 -0.0792  0.5557
  784MOL0     C 5714   2.354   7.969   2.555  0.3341 -1.1802 -0.9390
  784MOL0     C 5715   2.206   7.995   2.587 -0.5966  0.0779 -0.4469
  784MOL0     C 5716   2.172   8.084   2.701 -0.0425 -0.1728 -0.3689
  784MOL0     C 5717   2.025   8.114   2.712  0.1969 -0.1063  0.8804
  784MOL0     C 5718   1.979   8.237   2.625  0.6916 -0.6636  0.8669
  784MOL0     C 5719   1.870   8.318   2.709  0.2207  0.0993  0.4955
  784MOL0     C 5720   1.811   8.433   2.629 -0.7454  0.1860 -0.0202
  784MOL0     C 5721   1.737   8.538   2.704 -0.5628  0.0065 -0.2230
  784MOL0     N 5722   1.625   8.481   2.769  1.5991  0.3890  0.7899
  784MOL0     C 5723   1.627   8.404   2.884  0.3012  0.4453  0.6328
  784MOL0     C 5724   1.498   8.356   2.898 -0.5111 -0.6565  0.6670
  784MOL0     C 5725   1.465   8.267   3.012  0.3351 -0.4675 -0.0451
  784MOL0     C 5726   1.530   8.135   2.985  0.0831  0.0858 -0.1588
  784MOL0     C 5727   1.528   8.063   2.854  0.4679 -0.4087 -0.0677
  784MOL0     C 5728   1.380   8.029   2.823  0.3365 -0.1270 -0.7205
  784MOL0     O 5729   1.323   7.961   2.938  0.3595  0.8980  0.2922
  784MOL0     C 5730   1.191   7.931   2.929 -0.3675  0.0386 -0.5420
  784MOL0     C 5731   1.151   7.842   2.836 -0.4379 -0.3568  0.4318
  784MOL0     C 5732   1.024   7.796   2.816 -0.2424  0.1542  0.4051
  784MOL0     C 5733   1.007   7.708   2.700 -0.4860  0.7741  0.0604
  784MOL0     C 5734   0.928   7.834   2.898  1.2409  0.3227  0.2981
  784MOL0     C 5735   0.780   7.796   2.881 -0.4023  0.5865 -0.0716
  784MOL0     O 5736   0.685   7.869   2.949 -0.1052  0.0086  0.1174
  784MOL0     C 5737   0.551   7.840   2.926 -0.3256 -0.5260 -0.5402
  784MOL0     C 5738   0.473   7.769   3.023  0.4168 -0.4909  1.2237
  784MOL0     C 5739   0.345   7.732   3.016  0.5136 -0.8582  0.5328
  784MOL0     C 5740   0.271   7.786   2.913  0.4242  0.7590  0.0646
  784MOL0     O 5741   0.138   7.750   2.902  0.2650  0.2024  0.0122
  784MOL0     C 5742   0.055   7.805   2.800 -0.4694 -0.4873 -0.0467
  784MOL0     C 5743  -0.100   7.777   2.814 -0.2967  0.6619  0.2234
  784MOL0     C 5744  -0.179   7.831   2.700  0.3342  0.3976 -1.2002
  784MOL0     C 5745  -0.309   7.753   2.685 -0.0450 -0.0531 -1.0316
  784MOL0     C 5746  -0.391   7.826   2.582  0.4669  0.2377 -0.6068
  784MOL0     C 5747  -0.515   7.739   2.549  0.5151  0.2600  0.3138
  784MOL0     C 5748  -0.605   7.811   2.452  0.2324  1.3884  0.5047
  784MOL0     C 5749  -0.724   7.731   2.400  0.4122  0.5438 -0.0681
  784MOL0    Cl 5750  -0.817   7.661   2.537 -0.7690  0.3346  0.1833
  784MOL0     C 5751   0.345   7.853   2.809  0.4054  0.0245 -0.2391
  784MOL0     C 5752   0.480   7.884   2.812  0.0903  0.1285 -0.7028
  784MOL0     O 5753   0.756   7.701   2.811 -0.2401 -0.0554 -0.2047
  784MOL0     C 5754   0.955   7.928   3.004  0.1442  0.1745 -0.4960
  784MOL0     C 5755   1.086   7.974   3.016 -0.2746  0.0130 -0.2694
  784MOL0     N 5756   1.425   8.394   2.787 -0.5644  1.0844  0.7466
  784MOL0     N 5757   1.498   8.472   2.715 -0.3919 -0.5853  0.0660
  784MOL0     C 5758   2.630   7.896   2.536  0.1429  0.0763 -0.0415
  784MOL0     C 5759   2.766   7.846   2.528 -0.3946  0.4773  1.2375
  784MOL0     C 5760   3.117   7.589   2.687  0.5523 -0.5277  0.3957
  784MOL0     C 5761   3.151   7.472   2.754 -0.6779 -0.0036  0.6451
  784MOL0     C 5762   3.286   7.428   2.764 -0.3016 -0.1354 -0.0850
  784MOL0     C 5763   3.397   7.500   2.716  0.6321  0.1820  0.4112
  784MOL0     O 5764   3.512   7.452   2.740 -0.3203 -0.2559 -0.9624
  784MOL0     C 5765   3.621   7.536   2.704 -0.0095  0.1323  0.0599
  784MOL0     C 5766   3.762   7.486   2.746  0.8302 -0.6665  1.0667
  784MOL0     C 5767   3.774   7.472   2.894 -0.1996  0.6262 -0.2316
  784MOL0     C 5768   3.923   7.451   2.922  0.3291  0.3936 -0.3917
  784MOL0     C 5769   3.955   7.309   2.928  0.3694 -1.3001  0.0977
  784MOL0     C 5770   3.997   7.193   2.947 -0.0583  0.6052 -0.2851
  784MOL0     C 5771   3.359   7.608   2.636 -0.1488  0.0109 -0.6381
  784MOL0     C 5772   3.223   7.652   2.621  0.4810 -0.7777  0.1237
  784MOL0     H 5773   2.784   7.735   2.851  2.4146  1.6875  0.3651
  784MOL0     H 5774   2.543   7.774   2.843 -0.1770  0.5724  0.0856
  784MOL0     H 5775   2.415   8.060   2.551 -0.0055 -0.9101 -0.1620
  784MOL0     H 5776   2.359   7.923   2.456  1.5393 -1.1637 -0.9003
  784MOL0     H 5777   2.165   8.037   2.495 -0.4560  0.9430 -0.1275
  784MOL0     H 5778   2.149   7.903   2.603 -0.2953  0.2691  2.2792
  784MOL0     H 5779   2.191   8.029   2.793 -0.9357 -2.1971 -1.3206
  784MOL0     H 5780   2.225   8.179   2.697  1.0833 -0.8199 -1.3648
  784MOL0     H 5781   1.961   8.030   2.684  0.8174 -0.5880  0.8586
  784MOL0     H 5782   1.993   8.141   2.813  2.1824  1.5544  1.1276
  784MOL0     H 5783   2.061   8.307   2.605 -0.2699  0.3557  0.4272
  784MOL0     H 5784   1.936   8.202   2.530 -1.9218  2.3491  0.7960
  784MOL0     H 5785   1.794   8.248   2.745 -1.5301  1.0268 -1.2043
  784MOL0     H 5786   1.925   8.364   2.792 -0.6783  0.2644  1.0117
  784MOL0     H 5787   1.890   8.479   2.569 -1.8849  0.7821 -1.1216
  784MOL0     H 5788   1.742   8.381   2.561 -0.1482 -2.0695  0.9984
  784MOL0     H 5789   1.728   8.627   2.641  3.4257  0.3374 -0.5875
  784MOL0     H 5790   1.808   8.569   2.781 -0.1044 -2.6097  0.5077
  784MOL0     H 5791   1.707   8.374   2.951  0.1186  2.0276  1.6172
  784MOL0     H 5792   1.502   8.318   3.102  3.1428 -0.4298 -1.1164
  784MOL0     H 5793   1.356   8.258   3.008 -0.0181  1.6981  2.2183
  784MOL0     H 5794   1.486   8.070   3.062  1.7445  0.7933  1.4667
  784MOL0     H 5795   1.633   8.161   3.011 -0.8016  2.7708  1.0501
  784MOL0     H 5796   1.594   7.976   2.858  1.8294  0.5352 -1.0447
  784MOL0     H 5797   1.569   8.123   2.772  0.3262 -1.5109 -0.9725
  784MOL0     H 5798   1.370   7.966   2.734  1.5218  0.1044 -1.0381
  784MOL0     H 5799   1.321   8.120   2.808 -0.5978 -0.4628  0.7709
  784MOL0     H 5800   1.228   7.802   2.771 -3.1739 -1.7551 -2.2447
  784MOL0     H 5801   0.978   7.605   2.723  0.9191 -0.1664 -2.0885
  784MOL0     H 5802   0.926   7.758   2.646  1.3835  1.5393 -2.1799
  784MOL0     H 5803   1.090   7.697   2.630 -1.0690 -0.9517 -0.4047
  784MOL0     H 5804   0.521   7.740   3.117 -0.7559 -2.8846  1.1637
  784MOL0     H 5805   0.298   7.663   3.086  0.5852 -1.7905 -0.3137
  784MOL0     H 5806   0.065   7.914   2.803 -1.5549 -0.3942  0.6710
  784MOL0     H 5807   0.084   7.759   2.705  2.1446 -3.4389  1.9989
  784MOL0     H 5808  -0.104   7.668   2.806 -0.7956  0.6488  0.6838
  784MOL0     H 5809  -0.143   7.801   2.911 -0.0759  1.9934  0.0156
  784MOL0     H 5810  -0.123   7.813   2.608  1.5892 -0.9091 -0.2194
  784MOL0     H 5811  -0.189   7.939   2.717 -2.3637 -0.0264  0.6831
  784MOL0     H 5812  -0.288   7.654   2.644 -2.9614 -0.6515 -1.3209
  784MOL0     H 5813  -0.356   7.735   2.782 -1.3102  0.2056 -1.5810
  784MOL0     H 5814  -0.325   7.847   2.497  2.6115 -0.8314  0.6951
  784MOL0     H 5815  -0.424   7.917   2.631  0.8319  1.4096 -2.4298
  784MOL0     H 5816  -0.482   7.646   2.500 -0.5984 -0.5811  1.1101
  784MOL0     H 5817  -0.576   7.721   2.637 -0.9678 -0.2178 -0.7686
  784MOL0     H 5818  -0.540   7.825   2.365 -1.0783  1.0582 -0.5690
  784MOL0     H 5819  -0.626   7.913   2.486 -0.8297  2.0496 -1.8901
  784MOL0     H 5820  -0.697   7.645   2.338 -0.2031 -0.2613  0.7631
  784MOL0     H 5821  -0.785   7.799   2.339  2.5385  2.6680  0.0445
  784MOL0     H 5822   0.295   7.885   2.719  1.5328  1.3920 -0.4073
  784MOL0     H 5823   0.521   7.936   2.726 -3.2706  1.9588 -1.3822
  784MOL0     H 5824   0.877   7.956   3.074  0.7560  2.4574 -0.6256
  784MOL0     H 5825   1.122   8.042   3.092 -0.7305 -1.8034  1.6522
  784MOL0     H 5826   2.595   7.944   2.444  2.4055  0.6024 -0.6984
  784MOL0     H 5827   2.807   7.856   2.428 -1.5372  0.6132  0.7610
  784MOL0     H 5828   3.071   7.412   2.796 -0.6554  0.8036  1.9240
  784MOL0     H 5829   3.306   7.340   2.825 -1.1044 -0.0619  0.2969
  784MOL0     H 5830   3.633   7.567   2.599 -0.0914  1.6574  0.4753
  784MOL0     H 5831   3.601   7.626   2.763  4.1743  2.6533 -1.8879
  784MOL0     H 5832   3.831   7.550   2.690 -1.4779  1.4348  0.4804
  784MOL0     H 5833   3.772   7.388   2.699  0.3996  0.2888 -1.1639
  784MOL0     H 5834   3.711   7.393   2.934  2.3978 -1.0682  0.7565
  784MOL0     H 5835   3.737   7.565   2.938 -1.4387 -0.7487  1.7598
  784MOL0     H 5836   3.946   7.508   3.012  0.7484 -2.7041  1.6356
  784MOL0     H 5837   3.988   7.495   2.846  0.9039  0.7425  0.2967
  784MOL0     H 5838   4.023   7.093   2.974 -3.6989 -0.2090  0.7258
  784MOL0     H 5839   3.432   7.670   2.584 -0.6588  1.5757  0.4341
  784MOL0     H 5840   3.213   7.730   2.546  0.4863 -1.0365 -0.1441
  785MOL0     O 5841   7.708   0.691   9.913  0.6677  0.0116  0.3475
  785MOL0     C 5842   7.682   0.783   9.986 -0.2783 -0.1122 -0.8443
  785MOL0     O 5843   7.771   0.848  10.073  0.0135 -0.3101 -0.0321
  785MOL0     C 5844   7.899   0.799  10.075  0.8213  0.0095 -0.2190
  785MOL0     C 5845   7.945   0.737  10.185 -0.3416 -0.5360 -0.7875
  785MOL0     C 5846   8.080   0.704  10.203  0.6322 -0.4009 -0.0103
  785MOL0     C 5847   8.165   0.708  10.091 -0.3156  0.2308  0.0071
  785MOL0     O 5848   8.302   0.666  10.092  0.8840  0.3709 -0.4770
  785MOL0     C 5849   8.335   0.552  10.171 -1.1046 -0.1413  0.9057
  785MOL0     C 5850   8.482   0.534  10.140 -1.0668  0.2785 -0.3094
  785MOL0     C 5851   8.564   0.475  10.247 -0.4221  0.2083 -0.5480
  785MOL0     C 5852   8.713   0.458  10.201  0.1683 -0.2736  0.5431
  785MOL0     C 5853   8.778   0.365  10.307  0.4459 -0.7376  0.2198
  785MOL0     C 5854   8.918   0.308  10.274 -0.3156 -0.5974 -0.8079
  785MOL0     C 5855   8.942   0.184  10.364 -0.0716  0.1311 -0.1891
  785MOL0     C 5856   9.087   0.143  10.383  1.0810 -0.2550  0.4151
  785MOL0     N 5857   9.102   0.034  10.478 -0.5748 -0.9434 -0.6529
  785MOL0     C 5858   9.025  -0.084  10.486 -0.2241  0.8543 -0.8361
  785MOL0     C 5859   9.073  -0.149  10.595 -0.1814  0.0242 -1.1817
  785MOL0     C 5860   9.032  -0.293  10.635 -0.4633  0.0929 -0.2789
  785MOL0     C 5861   8.900  -0.290  10.720  0.1116 -0.2915 -0.2123
  785MOL0     C 5862   8.774  -0.296  10.637  0.0173  0.0711 -0.5130
  785MOL0     C 5863   8.664  -0.364  10.724 -1.3883 -0.4627 -1.0577
  785MOL0     O 5864   8.542  -0.372  10.642 -0.3799 -0.0738 -0.7867
  785MOL0     C 5865   8.421  -0.401  10.701  0.0702 -0.0052 -0.0349
  785MOL0     C 5866   8.395  -0.455  10.829 -0.8167  1.1136  0.3864
  785MOL0     C 5867   8.265  -0.467  10.885 -0.8089  0.8883  0.0752
  785MOL0     C 5868   8.259  -0.509  11.028 -0.3525  0.3476 -0.3008
  785MOL0     C 5869   8.155  -0.443  10.804  0.5197 -0.1349 -0.2590
  785MOL0     C 5870   8.011  -0.439  10.863  0.5684  0.3553  0.4221
  785MOL0     O 5871   7.915  -0.385  10.785  0.4705  0.4558  0.1250
  785MOL0     C 5872   7.784  -0.396  10.818  0.2782  0.4253  0.1032
  785MOL0     C 5873   7.702  -0.507  10.807 -0.3521  0.8911 -0.4130
  785MOL0     C 5874   7.580  -0.509  10.874  0.5192  0.1767  0.3229
  785MOL0     C 5875   7.546  -0.413  10.965  0.2156 -1.0466 -0.5570
  785MOL0     O 5876   7.440  -0.418  11.053 -0.9196 -0.0244 -0.5022
  785MOL0     C 5877   7.418  -0.546  11.127  0.4011 -0.3154 -0.1919
  785MOL0     C 5878   7.272  -0.597  11.118 -0.0402 -0.0703  0.4256
  785MOL0     C 5879   7.179  -0.486  11.184  0.0647 -0.6847  0.7719
  785MOL0     C 5880   7.046  -0.550  11.208  1.1426  1.1782 -0.0162
  785MOL0     C 5881   6.938  -0.452  11.255 -0.1646 -0.9042 -0.0717
  785MOL0     C 5882   6.821  -0.518  11.318  0.3931  0.0399  0.0485
  785MOL0     C 5883   6.729  -0.402  11.364  0.5731  0.7419  0.3012
  785MOL0     C 5884   6.592  -0.451  11.422 -0.3194 -0.6181  0.2125
  785MOL0    Cl 5885   6.455  -0.338  11.411  0.6024  0.3299 -0.0651
  785MOL0     C 5886   7.626  -0.301  10.976  0.3211  0.6010 -0.6369
  785MOL0     C 5887   7.738  -0.291  10.893 -0.5743 -0.9467  0.1393
  785MOL0     O 5888   7.990  -0.490  10.971  0.6848  0.0601 -0.2218
  785MOL0     C 5889   8.177  -0.387  10.681 -0.4695  0.0537 -0.4512
  785MOL0     C 5890   8.310  -0.369  10.629 -0.1052  0.3564  0.8818
  785MOL0     N 5891   9.171  -0.064  10.651  0.6765  0.0814 -0.5531
  785MOL0     N 5892   9.185   0.047  10.586 -0.0008  0.3887 -0.2584
  785MOL0     C 5893   8.110   0.752   9.970 -1.1408  1.1397  0.0898
  785MOL0     C 5894   7.983   0.803   9.966  0.2011 -0.1271  0.0178
  785MOL0     C 5895   7.537   0.837   9.980 -0.0904 -0.1964  0.5124
  785MOL0     C 5896   7.445   0.824   9.872  0.3328 -0.4346  0.1945
  785MOL0     C 5897   7.321   0.892   9.874  0.3852  0.3091 -0.1352
  785MOL0     C 5898   7.279   0.971   9.979  0.1976  0.1856  0.2693
  785MOL0     O 5899   7.161   1.031   9.965 -0.2068  0.6493  0.8233
  785MOL0     C 5900   7.090   1.083  10.081  0.2744  1.1193  0.1199
  785MOL0     C 5901   6.949   1.121  10.042  1.2625 -0.0401 -0.4435
  785MOL0     C 5902   6.933   1.257   9.957  0.1546  0.0429  0.3500
  785MOL0     C 5903   6.800   1.263   9.881 -0.3487  0.2790 -0.9146
  785MOL0     C 5904   6.685   1.248   9.976 -0.1869  0.2061 -0.4384
  785MOL0     C 5905   6.581   1.254  10.041 -0.3281 -0.4003 -0.1367
  785MOL0     C 5906   7.361   0.980  10.088  0.0137  0.5502 -0.0615
  785MOL0     C 5907   7.481   0.915  10.088 -0.4450  0.4954 -0.1166
  785MOL0     H 5908   7.887   0.723  10.276  0.8410 -0.0554  0.0738
  785MOL0     H 5909   8.109   0.673  10.302  0.7985  1.0221  0.4056
  785MOL0     H 5910   8.313   0.566  10.278 -1.5878  0.0301  0.7895
  785MOL0     H 5911   8.279   0.466  10.134 -0.8927 -0.6620  1.7675
  785MOL0     H 5912   8.488   0.476  10.047  3.8894  0.0072 -0.0978
  785MOL0     H 5913   8.539   0.623  10.113  0.4299 -0.5948 -0.1366
  785MOL0     H 5914   8.559   0.544  10.332  2.6091 -0.2823  0.1432
  785MOL0     H 5915   8.525   0.375  10.269  0.5511  0.3281  1.9642
  785MOL0     H 5916   8.718   0.408  10.103  0.1765 -2.4227  1.5824
  785MOL0     H 5917   8.752   0.560  10.206 -1.4596  0.4190 -0.1120
  785MOL0     H 5918   8.792   0.428  10.395 -0.9208 -0.4572  0.2523
  785MOL0     H 5919   8.704   0.287  10.325 -0.5650 -0.0315 -0.7113
  785MOL0     H 5920   8.910   0.284  10.167  0.1509  0.0985 -1.0025
  785MOL0     H 5921   9.000   0.380  10.278 -0.3603 -0.6159  1.1360
  785MOL0     H 5922   8.901   0.212  10.462  0.1010  0.8976 -0.3279
  785MOL0     H 5923   8.889   0.102  10.315  2.4839 -0.0547 -2.9626
  785MOL0     H 5924   9.162   0.222  10.393  1.2343  0.2151 -3.1669
  785MOL0     H 5925   9.117   0.085  10.296  0.9514  1.0907 -0.5626
  785MOL0     H 5926   8.951  -0.124  10.417  0.0013  0.6525 -0.9607
  785MOL0     H 5927   9.025  -0.363  10.552  3.0977 -0.7639 -0.0142
  785MOL0     H 5928   9.117  -0.340  10.685  0.6050  0.8490 -1.3408
  785MOL0     H 5929   8.895  -0.197  10.778  1.1013 -1.6281  2.2003
  785MOL0     H 5930   8.900  -0.375  10.789 -3.3095 -0.0128  0.3077
  785MOL0     H 5931   8.790  -0.349  10.543  0.7642 -1.3193  0.3661
  785MOL0     H 5932   8.741  -0.196  10.607  1.3492  0.6567 -0.1019
  785MOL0     H 5933   8.630  -0.316  10.816 -0.2952  0.8667 -1.3125
  785MOL0     H 5934   8.694  -0.462  10.762  3.7978  0.1329 -2.8594
  785MOL0     H 5935   8.489  -0.468  10.882  1.1020  2.3946 -2.4597
  785MOL0     H 5936   8.360  -0.518  11.069 -0.0629  1.5836 -0.6965
  785MOL0     H 5937   8.208  -0.436  11.093 -1.8032  0.5335 -1.5954
  785MOL0     H 5938   8.204  -0.603  11.041 -1.4553  1.0424  0.2921
  785MOL0     H 5939   7.739  -0.585  10.740  1.5926  0.0286  1.5304
  785MOL0     H 5940   7.527  -0.598  10.845 -0.2260  0.4471  0.8138
  785MOL0     H 5941   7.480  -0.624  11.081  0.0522  0.3955 -1.9610
  785MOL0     H 5942   7.450  -0.547  11.231  1.9109 -0.2936 -0.6297
  785MOL0     H 5943   7.251  -0.618  11.013 -1.1950 -0.2033  0.6688
  785MOL0     H 5944   7.250  -0.689  11.172 -1.8582 -0.9929 -1.7239
  785MOL0     H 5945   7.166  -0.413  11.103  2.9582  0.7140  1.4059
  785MOL0     H 5946   7.208  -0.428  11.272 -2.1436 -1.8812  2.3932
  785MOL0     H 5947   7.018  -0.594  11.111 -0.0295 -0.5151  1.0390
  785MOL0     H 5948   7.059  -0.637  11.273  1.0998  1.0115 -0.2281
  785MOL0     H 5949   6.916  -0.387  11.170  0.1632 -1.2052 -0.3896
  785MOL0     H 5950   6.991  -0.387  11.325  0.7191 -0.6309 -0.9735
  785MOL0     H 5951   6.767  -0.581  11.246  2.3864  0.4687 -1.9299
  785MOL0     H 5952   6.852  -0.586  11.398 -2.1277  0.2798  1.3257
  785MOL0     H 5953   6.707  -0.343  11.275 -2.8187 -0.0543  0.4700
  785MOL0     H 5954   6.775  -0.349  11.448  1.7973 -0.0910  0.1859
  785MOL0     H 5955   6.605  -0.478  11.527 -2.1750 -0.9782  0.3934
  785MOL0     H 5956   6.566  -0.548  11.377 -1.0651 -0.6294  0.6633
  785MOL0     H 5957   7.594  -0.223  11.045 -1.9535 -1.8914  1.3367
  785MOL0     H 5958   7.810  -0.210  10.891 -0.6743 -0.8653 -1.6296
  785MOL0     H 5959   8.094  -0.341  10.627  0.0652  2.0845  0.3463
  785MOL0     H 5960   8.322  -0.328  10.529  2.7392  1.1275  1.4412
  785MOL0     H 5961   8.176   0.768   9.886 -1.1305  0.5225 -0.0244
  785MOL0     H 5962   7.948   0.843   9.871  2.0058  0.2697 -0.5182
  785MOL0     H 5963   7.473   0.763   9.787 -2.4195  0.8307 -1.7870
  785MOL0     H 5964   7.250   0.886   9.792  3.5133  0.0691 -3.0542
  785MOL0     H 5965   7.099   1.018  10.169 -0.9789 -0.2767 -0.7292
  785MOL0     H 5966   7.137   1.176  10.113  2.9511 -0.1559  0.1568
  785MOL0     H 5967   6.885   1.130  10.130  0.6691  3.0727 -1.0618
  785MOL0     H 5968   6.900   1.039   9.989  0.6066  0.6188 -0.8952
  785MOL0     H 5969   7.010   1.256   9.879 -0.5659  1.1167 -0.4026
  785MOL0     H 5970   6.952   1.351  10.009 -1.8305  1.3308 -1.0991
  785MOL0     H 5971   6.793   1.185   9.804 -0.8145 -0.3560 -0.2480
  785MOL0     H 5972   6.794   1.359   9.829 -2.1823 -1.1060 -3.4836
  785MOL0     H 5973   6.489   1.255  10.095  1.6281 -3.4750  3.8905
  785MOL0     H 5974   7.314   1.030  10.172  0.0668  1.9904 -0.8465
  785MOL0     H 5975   7.539   0.934  10.178 -0.3752  1.3670 -0.3351
  786MOL0     O 5976   1.363   3.943   2.083 -0.1213  0.2408  0.0460
  786MOL0     C 5977   1.332   3.822   2.103 -0.0932 -0.2735 -0.4372
  786MOL0     O 5978   1.219   3.762   2.160  0.2938 -0.6228  0.4523
  786MOL0     C 5979   1.095   3.822   2.139  0.5396  0.0585  0.7607
  786MOL0     C 5980   0.985   3.756   2.201  0.3674 -0.3132  0.1194
  786MOL0     C 5981   0.852   3.805   2.188 -0.2311 -0.5576 -0.5008
  786MOL0     C 5982   0.825   3.916   2.107 -0.4998  0.1495  0.2327
  786MOL0     O 5983   0.692   3.954   2.100 -0.0786 -0.1484 -0.6065
  786MOL0     C 5984   0.636   4.000   1.981 -0.7112 -0.1273 -0.6069
  786MOL0     C 5985   0.607   4.145   1.996 -0.7362 -0.5396 -0.5661
  786MOL0     C 5986   0.489   4.186   1.909 -0.4371  1.1715  0.4852
  786MOL0     C 5987   0.454   4.339   1.918 -0.1518  0.8707  0.2313
  786MOL0     C 5988   0.316   4.373   1.869  0.2231  0.9066 -0.0104
  786MOL0     C 5989   0.286   4.518   1.907 -0.7648 -0.1325 -1.0047
  786MOL0     C 5990   0.150   4.574   1.857 -0.5715  0.1135 -0.3152
  786MOL0     C 5991   0.149   4.728   1.875 -0.3720 -0.0936  1.3926
  786MOL0     N 5992   0.018   4.776   1.835  0.1830 -0.0054 -0.0614
  786MOL0     C 5993  -0.012   4.808   1.701 -0.6914 -0.2128 -0.0211
  786MOL0     C 5994  -0.112   4.888   1.712  0.1108 -0.6728 -0.9717
  786MOL0     C 5995  -0.184   4.965   1.604 -0.3588 -0.3506  0.8212
  786MOL0     C 5996  -0.103   5.077   1.541  0.1051  0.4917 -0.0725
  786MOL0     C 5997  -0.071   5.201   1.640  0.9430  1.1256  0.1360
  786MOL0     C 5998   0.007   5.305   1.554 -0.6963 -0.1060 -1.0652
  786MOL0     O 5999   0.012   5.427   1.630 -0.7522 -0.4206 -0.0110
  786MOL0     C 6000  -0.083   5.524   1.616  0.3493  0.4710  0.4482
  786MOL0     C 6001  -0.131   5.575   1.738 -0.4286 -0.0440  0.5368
  786MOL0     C 6002  -0.237   5.659   1.731  1.1503 -0.1345  0.1740
  786MOL0     C 6003  -0.283   5.729   1.859  0.2494  0.1953  0.0351
  786MOL0     C 6004  -0.305   5.689   1.609  0.0322 -0.1989  1.0843
  786MOL0     C 6005  -0.433   5.770   1.590 -0.0473  0.6485  0.2022
  786MOL0     O 6006  -0.471   5.868   1.679 -0.7140  0.4245 -0.1954
  786MOL0     C 6007  -0.548   5.980   1.648  0.0868 -0.2366 -0.2211
  786MOL0     C 6008  -0.545   6.037   1.522 -0.5884 -0.8239 -0.7055
  786MOL0     C 6009  -0.626   6.145   1.476 -0.0023 -0.2636  0.1958
  786MOL0     C 6010  -0.725   6.195   1.563  0.6097  0.2910  0.0427
  786MOL0     O 6011  -0.813   6.296   1.533 -0.2058  0.0599  0.2601
  786MOL0     C 6012  -0.814   6.341   1.394 -0.0200 -0.4304  0.0408
  786MOL0     C 6013  -0.892   6.476   1.383  0.1794 -0.3636 -0.5151
  786MOL0     C 6014  -1.037   6.441   1.437 -0.3131 -0.4304 -0.1130
  786MOL0     C 6015  -1.130   6.533   1.376 -0.0418  0.3492 -0.2681
  786MOL0     C 6016  -1.265   6.523   1.435 -0.2956  0.6663  0.2297
  786MOL0     C 6017  -1.371   6.606   1.358 -0.3453 -0.2335  0.2461
  786MOL0     C 6018  -1.511   6.609   1.421 -0.6837  0.2243 -0.3065
  786MOL0     C 6019  -1.611   6.686   1.328 -0.1973 -0.3902 -0.7707
  786MOL0    Cl 6020  -1.779   6.666   1.356  0.1136 -0.1390 -0.2907
  786MOL0     C 6021  -0.739   6.128   1.688  0.4028 -0.1709 -0.5955
  786MOL0     C 6022  -0.647   6.029   1.740 -0.5001 -0.3062 -0.5496
  786MOL0     O 6023  -0.500   5.740   1.490 -0.0897  0.3385  0.5310
  786MOL0     C 6024  -0.253   5.634   1.492  0.2733  0.1207  0.4520
  786MOL0     C 6025  -0.145   5.550   1.491 -0.2178 -1.2016  0.8262
  786MOL0     N 6026  -0.157   4.892   1.844  0.3795 -0.0052  0.3608
  786MOL0     N 6027  -0.076   4.827   1.916  0.5105  0.2578 -0.7086
  786MOL0     C 6028   0.936   3.984   2.043  0.2236  1.2202 -0.7344
  786MOL0     C 6029   1.071   3.941   2.058 -0.1694 -0.6192 -0.1807
  786MOL0     C 6030   1.440   3.719   2.084  0.0751 -0.2170  0.5239
  786MOL0     C 6031   1.417   3.582   2.096  0.6562 -0.3662 -0.7724
  786MOL0     C 6032   1.522   3.496   2.076 -0.2242  0.2466  0.4929
  786MOL0     C 6033   1.654   3.535   2.034  0.0828 -0.0525  0.6882
  786MOL0     O 6034   1.743   3.431   2.002  0.4974  0.2851  0.0079
  786MOL0     C 6035   1.877   3.462   1.968  0.3462  0.5658 -0.2789
  786MOL0     C 6036   1.951   3.337   1.911 -0.3097  1.1330  0.4778
  786MOL0     C 6037   1.903   3.200   1.976 -0.5110  0.2563 -0.3089
  786MOL0     C 6038   1.955   3.071   1.903  0.3072 -0.1810  0.3355
  786MOL0     C 6039   2.101   3.077   1.879  0.1331 -0.4378 -0.3666
  786MOL0     C 6040   2.225   3.075   1.869 -1.1780 -0.3606 -0.7498
  786MOL0     C 6041   1.675   3.675   2.027  1.0357  0.4460  0.4105
  786MOL0     C 6042   1.568   3.762   2.045  0.1971  0.3728 -0.0685
  786MOL0     H 6043   1.007   3.676   2.271 -0.4375 -1.5322 -0.9949
  786MOL0     H 6044   0.765   3.758   2.234  0.5969 -0.5263  1.1538
  786MOL0     H 6045   0.713   3.995   1.903  1.8861  0.6297  1.7218
  786MOL0     H 6046   0.548   3.946   1.947  1.2636 -1.3136 -4.4911
  786MOL0     H 6047   0.577   4.178   2.095  1.3579  0.1444 -0.1229
  786MOL0     H 6048   0.697   4.203   1.977  0.1100 -2.0968 -1.5706
  786MOL0     H 6049   0.505   4.149   1.807 -0.4032  0.2428  0.8122
  786MOL0     H 6050   0.403   4.127   1.945 -0.8578  0.7499 -1.1392
  786MOL0     H 6051   0.464   4.365   2.023  2.0849 -0.2670  0.3631
  786MOL0     H 6052   0.534   4.394   1.866  1.6484 -1.1387  0.7131
  786MOL0     H 6053   0.308   4.369   1.760  0.3324  0.3490 -0.0022
  786MOL0     H 6054   0.237   4.310   1.912  1.5667 -3.3017 -3.0828
  786MOL0     H 6055   0.289   4.511   2.016 -1.1874  3.8378 -0.5592
  786MOL0     H 6056   0.367   4.585   1.875  0.1767 -0.7655  0.0010
  786MOL0     H 6057   0.136   4.549   1.752 -3.2785  0.2054 -0.0621
  786MOL0     H 6058   0.070   4.524   1.914 -1.8318 -1.1866 -3.0252
  786MOL0     H 6059   0.227   4.772   1.812 -1.2911  0.3785  0.5455
  786MOL0     H 6060   0.170   4.758   1.977  4.1891  0.9763  0.3407
  786MOL0     H 6061   0.044   4.783   1.611 -2.3533  0.2883 -1.2580
  786MOL0     H 6062  -0.206   4.889   1.528 -2.3518 -0.5484  1.5524
  786MOL0     H 6063  -0.280   5.007   1.632  0.8724  2.4217  1.1561
  786MOL0     H 6064  -0.165   5.104   1.455  0.6911 -2.3076 -1.4856
  786MOL0     H 6065  -0.013   5.033   1.497 -0.1311  0.7008 -0.7897
  786MOL0     H 6066  -0.007   5.162   1.720 -0.9515 -2.2221  0.2203
  786MOL0     H 6067  -0.164   5.250   1.670  0.5215 -0.9975  2.6596
  786MOL0     H 6068  -0.038   5.325   1.456 -2.9665  0.0759 -0.0260
  786MOL0     H 6069   0.108   5.262   1.552 -0.4189  0.1658  2.1310
  786MOL0     H 6070  -0.087   5.550   1.834 -0.5179  3.0604  1.4804
  786MOL0     H 6071  -0.219   5.704   1.944  0.2439 -0.4923 -0.1562
  786MOL0     H 6072  -0.273   5.837   1.847 -1.4850  0.3630 -0.1651
  786MOL0     H 6073  -0.387   5.699   1.875  0.5650 -0.5884  0.6785
  786MOL0     H 6074  -0.483   6.000   1.441 -0.3864  0.5638 -1.2103
  786MOL0     H 6075  -0.595   6.183   1.379  2.6441  1.8589  1.7117
  786MOL0     H 6076  -0.711   6.362   1.367  0.6482 -0.7594  2.1675
  786MOL0     H 6077  -0.860   6.269   1.325  0.0531 -1.1095  0.6851
  786MOL0     H 6078  -0.843   6.547   1.450  1.2667 -1.4641 -0.0859
  786MOL0     H 6079  -0.887   6.510   1.279  1.2329  0.1749 -0.3009
  786MOL0     H 6080  -1.047   6.455   1.545 -1.9982  0.8692 -0.3880
  786MOL0     H 6081  -1.066   6.336   1.423  2.8348 -1.4860  0.4613
  786MOL0     H 6082  -1.082   6.631   1.381  1.1810 -0.2483  0.0787
  786MOL0     H 6083  -1.148   6.501   1.273 -0.8539  0.1730 -0.0802
  786MOL0     H 6084  -1.264   6.559   1.538 -0.4481  1.1509  0.0643
  786MOL0     H 6085  -1.298   6.419   1.435  2.2646 -0.2130 -0.2682
  786MOL0     H 6086  -1.320   6.701   1.347  1.9235 -1.3884  0.2531
  786MOL0     H 6087  -1.377   6.567   1.256  0.4180  0.4973 -0.0898
  786MOL0     H 6088  -1.507   6.658   1.518  0.4828  1.8641 -1.1321
  786MOL0     H 6089  -1.549   6.510   1.448 -0.1955 -0.5199 -2.1482
  786MOL0     H 6090  -1.598   6.664   1.221 -1.5742 -0.6853 -0.8962
  786MOL0     H 6091  -1.584   6.791   1.343 -4.3531  0.5844  1.0769
  786MOL0     H 6092  -0.834   6.148   1.737  0.4650 -2.6855  0.6990
  786MOL0     H 6093  -0.663   5.989   1.839 -1.8132  0.3372 -0.4692
  786MOL0     H 6094  -0.291   5.660   1.394  2.2398  4.2809  0.5882
  786MOL0     H 6095  -0.118   5.501   1.398  0.9288  0.8602  0.0010
  786MOL0     H 6096   0.918   4.074   1.985  0.1750  0.8779 -1.2575
  786MOL0     H 6097   1.152   3.997   2.012 -0.6277  0.5672  0.4193
  786MOL0     H 6098   1.319   3.548   2.128  1.2297 -0.6164  0.8240
  786MOL0     H 6099   1.517   3.389   2.090  4.2579 -0.2902 -0.3797
  786MOL0     H 6100   1.874   3.544   1.896 -0.1106  0.5428 -0.2886
  786MOL0     H 6101   1.933   3.489   2.057 -0.1220 -2.9715  1.2538
  786MOL0     H 6102   2.060   3.353   1.911 -0.3528  1.5415  2.0155
  786MOL0     H 6103   1.926   3.339   1.804  0.9275  0.1847  0.1378
  786MOL0     H 6104   1.795   3.193   1.958 -0.3895  0.8733 -1.3399
  786MOL0     H 6105   1.919   3.193   2.084 -1.7601 -1.3010 -0.1875
  786MOL0     H 6106   1.901   3.075   1.808  1.9987  5.8106 -0.8272
  786MOL0     H 6107   1.937   2.980   1.962 -2.3943  0.0050 -0.0528
  786MOL0     H 6108   2.331   3.056   1.867 -0.0183  4.1561  2.4211
  786MOL0     H 6109   1.772   3.722   2.015  1.4736 -0.8673 -1.7698
  786MOL0     H 6110   1.597   3.867   2.040 -1.8941  1.0296  0.4701
  787MOL0     O 6111   9.207   6.967   8.711  0.4461 -0.0813 -0.1830
  787MOL0     C 6112   9.200   7.079   8.658  0.0314  0.3807  0.8738
  787MOL0     O 6113   9.120   7.103   8.547 -0.3080 -0.9946 -0.3459
  787MOL0     C 6114   9.030   7.016   8.495 -0.9134 -0.5860 -0.4173
  787MOL0     C 6115   9.039   6.988   8.359 -0.2141  0.2288 -0.1468
  787MOL0     C 6116   8.944   6.899   8.305  0.1392 -0.4807  0.4969
  787MOL0     C 6117   8.849   6.832   8.376  0.5536  0.0523 -0.5043
  787MOL0     O 6118   8.769   6.734   8.312 -0.0587 -0.0108 -0.2638
  787MOL0     C 6119   8.663   6.658   8.376 -0.2459 -0.1162 -0.2497
  787MOL0     C 6120   8.590   6.570   8.276  0.0597  0.8887  0.0097
  787MOL0     C 6121   8.458   6.525   8.340 -0.4425  0.1263 -0.0369
  787MOL0     C 6122   8.398   6.409   8.260 -0.4608 -0.4354 -0.0572
  787MOL0     C 6123   8.261   6.389   8.317  0.2416  0.2285 -0.4533
  787MOL0     C 6124   8.168   6.309   8.228  0.7081  0.3220  0.1949
  787MOL0     C 6125   8.026   6.320   8.275  1.1754 -0.1401  0.4065
  787MOL0     C 6126   7.929   6.242   8.196 -0.0440 -0.0193  0.1681
  787MOL0     N 6127   7.961   6.093   8.194 -0.1529 -1.1163  0.1827
  787MOL0     C 6128   8.039   6.022   8.107 -0.1734  0.3538  0.1593
  787MOL0     C 6129   8.021   5.893   8.157  0.0203  0.2784 -0.4771
  787MOL0     C 6130   8.080   5.762   8.099  0.0626 -0.6858 -0.4519
  787MOL0     C 6131   8.223   5.791   8.054 -0.4146  0.3356 -0.1008
  787MOL0     C 6132   8.319   5.827   8.169 -0.4534 -1.1794  0.4672
  787MOL0     C 6133   8.462   5.864   8.116 -0.1348 -0.2526 -0.2089
  787MOL0     O 6134   8.524   5.941   8.219  0.2194  0.0993 -0.6074
  787MOL0     C 6135   8.623   6.031   8.197 -0.5798  0.7583  0.4017
  787MOL0     C 6136   8.672   6.113   8.293 -0.1221 -0.1987 -0.6049
  787MOL0     C 6137   8.789   6.194   8.284  0.6069  0.0138  0.4684
  787MOL0     C 6138   8.830   6.283   8.403 -1.1517  0.7819 -0.0406
  787MOL0     C 6139   8.847   6.209   8.155 -0.9094  0.8274  0.7617
  787MOL0     C 6140   8.970   6.298   8.123  0.1109  0.5014 -0.3034
  787MOL0     O 6141   9.055   6.341   8.222 -0.0402 -0.2340 -0.0265
  787MOL0     C 6142   9.153   6.432   8.185  0.5249  0.8755 -0.5953
  787MOL0     C 6143   9.268   6.381   8.123 -0.0700  0.4149 -0.4480
  787MOL0     C 6144   9.364   6.476   8.081 -1.0852 -0.2402 -0.0506
  787MOL0     C 6145   9.344   6.613   8.098 -0.5388 -0.3032  0.8371
  787MOL0     O 6146   9.436   6.709   8.050  0.6354  0.0475 -0.3831
  787MOL0     C 6147   9.578   6.688   8.079  0.7054  0.7807  0.1534
  787MOL0     C 6148   9.652   6.799   8.017  0.4708 -0.1377  0.1744
  787MOL0     C 6149   9.801   6.796   8.036  0.8216 -0.0999  0.1756
  787MOL0     C 6150   9.879   6.907   7.953 -0.1241  0.8451 -0.0077
  787MOL0     C 6151  10.031   6.923   7.997  0.1790  0.2986  0.8992
  787MOL0     C 6152  10.109   7.008   7.894  0.2020 -0.0680 -0.2564
  787MOL0     C 6153  10.242   7.049   7.956 -0.0151  0.0822  0.7453
  787MOL0     C 6154  10.325   7.144   7.865  0.4141 -0.0731 -0.6799
  787MOL0    Cl 6155  10.249   7.300   7.830  0.1186  0.3888 -0.3922
  787MOL0     C 6156   9.229   6.658   8.154  0.1508  0.2274  1.0457
  787MOL0     C 6157   9.136   6.570   8.211 -0.1108  0.5137  0.0248
  787MOL0     O 6158   9.002   6.296   8.002  0.6971  0.0764  0.1246
  787MOL0     C 6159   8.786   6.135   8.046  0.5885 -1.0540  0.0420
  787MOL0     C 6160   8.689   6.044   8.068 -0.7308  0.3412 -0.1237
  787MOL0     N 6161   7.951   5.894   8.272 -0.0066 -0.1736 -0.1768
  787MOL0     N 6162   7.918   6.019   8.299  0.2937  0.4908 -0.2949
  787MOL0     C 6163   8.837   6.859   8.513 -0.3551 -0.1330  0.5700
  787MOL0     C 6164   8.928   6.950   8.566 -0.8251 -0.1420 -1.4504
  787MOL0     C 6165   9.259   7.190   8.732 -0.4025  0.2433 -0.2786
  787MOL0     C 6166   9.241   7.320   8.697 -0.6260 -0.0897 -0.0099
  787MOL0     C 6167   9.302   7.428   8.773  0.6502  0.7148 -0.0917
  787MOL0     C 6168   9.382   7.394   8.880 -0.5335  0.5206 -0.2615
  787MOL0     O 6169   9.434   7.499   8.954 -0.2212 -0.1062  1.1037
  787MOL0     C 6170   9.506   7.471   9.076  0.0309 -0.7601  0.4717
  787MOL0     C 6171   9.567   7.603   9.131  0.0634 -0.4077  0.7398
  787MOL0     C 6172   9.681   7.655   9.040  0.8058 -0.6137 -0.1030
  787MOL0     C 6173   9.727   7.803   9.080  0.2369  0.4476  0.4532
  787MOL0     C 6174   9.854   7.834   9.012  1.0982  0.3323 -0.1712
  787MOL0     C 6175   9.959   7.864   8.960  0.8274 -0.8535 -0.4719
  787MOL0     C 6176   9.405   7.268   8.917  0.4329  0.3494  0.3165
  787MOL0     C 6177   9.333   7.164   8.847  0.0985 -0.0772 -0.5388
  787MOL0     H 6178   9.107   7.044   8.297  0.3588 -0.6380 -0.3211
  787MOL0     H 6179   8.942   6.869   8.201 -1.2754 -1.9112  0.8857
  787MOL0     H 6180   8.698   6.601   8.463 -2.5585  0.5890  1.2606
  787MOL0     H 6181   8.597   6.737   8.414  0.4031  0.8036 -1.0036
  787MOL0     H 6182   8.577   6.624   8.182 -3.1807  3.6681  1.8426
  787MOL0     H 6183   8.647   6.477   8.263 -0.2378  0.7846 -0.5338
  787MOL0     H 6184   8.473   6.489   8.443  0.6406  4.8804  1.7595
  787MOL0     H 6185   8.398   6.617   8.339 -0.0600  0.4133 -2.6467
  787MOL0     H 6186   8.394   6.435   8.154 -1.3896 -1.8420 -0.3957
  787MOL0     H 6187   8.468   6.325   8.265  1.2233  0.8639 -0.8624
  787MOL0     H 6188   8.283   6.332   8.408  1.5960  0.4013 -0.6641
  787MOL0     H 6189   8.214   6.484   8.344 -0.9010 -1.0071  2.3415
  787MOL0     H 6190   8.175   6.353   8.128  0.0746 -1.5428 -0.7170
  787MOL0     H 6191   8.203   6.206   8.219  0.8298  0.3922 -0.1578
  787MOL0     H 6192   8.016   6.296   8.381  0.8745  0.1953  0.4575
  787MOL0     H 6193   8.001   6.425   8.258  2.6912 -0.0103 -1.2700
  787MOL0     H 6194   7.910   6.289   8.098  1.0445  4.8493  1.9862
  787MOL0     H 6195   7.836   6.251   8.253 -0.8927 -3.5678 -0.4249
  787MOL0     H 6196   8.094   6.047   8.017 -1.5305  0.3579 -0.6945
  787MOL0     H 6197   8.075   5.677   8.168 -0.9858  0.1673  0.5717
  787MOL0     H 6198   8.021   5.742   8.010 -0.5662  0.2632 -0.2607
  787MOL0     H 6199   8.225   5.869   7.977  0.2429  2.7091  2.1918
  787MOL0     H 6200   8.263   5.700   8.009 -3.2198 -1.2791  0.4387
  787MOL0     H 6201   8.331   5.743   8.238  1.7891 -1.7065 -0.4914
  787MOL0     H 6202   8.298   5.920   8.224  3.9976  0.6374 -0.4482
  787MOL0     H 6203   8.466   5.908   8.016  2.6673 -1.8759 -0.9441
  787MOL0     H 6204   8.523   5.773   8.109 -0.9672 -0.7069 -2.5424
  787MOL0     H 6205   8.613   6.105   8.384 -1.9401 -0.0471 -1.7251
  787MOL0     H 6206   8.925   6.241   8.437 -1.3801 -0.8785 -1.3485
  787MOL0     H 6207   8.848   6.385   8.369 -0.5139  0.7756  0.2631
  787MOL0     H 6208   8.763   6.277   8.489  0.5118 -0.3282  1.2340
  787MOL0     H 6209   9.267   6.273   8.138 -1.6085  0.4605  0.0599
  787MOL0     H 6210   9.453   6.433   8.036  0.4277  0.5570  2.0177
  787MOL0     H 6211   9.586   6.683   8.188  0.3217  0.5047  0.1669
  787MOL0     H 6212   9.601   6.598   8.022 -1.7415  0.1621  0.0528
  787MOL0     H 6213   9.624   6.812   7.912  2.6150 -1.3524 -0.6079
  787MOL0     H 6214   9.617   6.893   8.061 -0.4443 -0.4380  0.1087
  787MOL0     H 6215   9.844   6.703   7.997  1.8444  0.0709  0.8447
  787MOL0     H 6216   9.823   6.812   8.142  0.4666  1.2116  0.0763
  787MOL0     H 6217   9.885   6.872   7.849 -2.0350  0.6339 -0.0921
  787MOL0     H 6218   9.833   7.006   7.951  1.8956  1.8425  0.8676
  787MOL0     H 6219  10.080   6.826   8.006  1.1280  0.8423  1.7598
  787MOL0     H 6220  10.042   6.958   8.100  2.4743  2.7893 -0.0703
  787MOL0     H 6221  10.136   6.954   7.803  1.0880 -1.3129  0.6993
  787MOL0     H 6222  10.054   7.099   7.870 -0.2265 -0.2172  0.1386
  787MOL0     H 6223  10.300   6.959   7.978 -3.1783 -2.0921  0.8312
  787MOL0     H 6224  10.232   7.102   8.051 -0.0604 -3.1012  2.6569
  787MOL0     H 6225  10.351   7.101   7.768 -0.8790 -1.4006 -0.4677
  787MOL0     H 6226  10.418   7.162   7.920 -0.3719  0.9427  0.3478
  787MOL0     H 6227   9.210   6.764   8.167 -0.6035  0.3167 -0.5644
  787MOL0     H 6228   9.052   6.602   8.271 -0.9004  1.2962 -1.4534
  787MOL0     H 6229   8.848   6.137   7.956  3.3985 -1.5036  1.8330
  787MOL0     H 6230   8.668   5.994   7.974 -2.8141  1.1916 -0.1482
  787MOL0     H 6231   8.754   6.820   8.572 -1.8682  3.3926  1.0094
  787MOL0     H 6232   8.917   6.985   8.668  1.9771 -1.1608 -0.7187
  787MOL0     H 6233   9.177   7.354   8.617  1.3356  1.3100 -1.0828
  787MOL0     H 6234   9.283   7.532   8.747 -0.6559  0.4164 -0.3971
  787MOL0     H 6235   9.444   7.421   9.151  1.3561 -0.3474  1.8954
  787MOL0     H 6236   9.598   7.415   9.059 -0.1019 -0.5650 -1.0151
  787MOL0     H 6237   9.594   7.577   9.234  0.6118 -0.1324  0.6715
  787MOL0     H 6238   9.493   7.682   9.142 -0.1982 -0.9295  3.2256
  787MOL0     H 6239   9.657   7.644   8.934 -0.1982 -0.3928  0.0929
  787MOL0     H 6240   9.770   7.594   9.061 -1.2088 -4.4083 -1.6451
  787MOL0     H 6241   9.734   7.831   9.185  2.0307  3.2144 -0.2823
  787MOL0     H 6242   9.651   7.873   9.044  2.5305  2.6780 -0.3528
  787MOL0     H 6243  10.044   7.906   8.909 -0.6108  4.2569  0.7092
  787MOL0     H 6244   9.468   7.235   8.999 -0.2418  1.2642  1.2427
  787MOL0     H 6245   9.350   7.061   8.876  3.1063  0.3535 -0.3785
  788MOL0     O 6246   9.794   9.821   9.598 -0.2538 -0.1068 -0.7854
  788MOL0     C 6247   9.867   9.874   9.685 -0.3443  0.7339 -0.0354
  788MOL0     O 6248   9.837   9.923   9.807  0.2540 -0.1550  0.1345
  788MOL0     C 6249   9.721   9.906   9.874  0.5318  0.1700  0.0109
  788MOL0     C 6250   9.619   9.823   9.824  0.2379 -0.1240 -0.3740
  788MOL0     C 6251   9.502   9.802   9.898 -0.0349 -0.9100 -0.0122
  788MOL0     C 6252   9.480   9.880  10.004  0.7436 -0.3609 -0.3346
  788MOL0     O 6253   9.350   9.865  10.059  0.2445  0.4275 -0.4450
  788MOL0     C 6254   9.330   9.942  10.179 -0.3523 -0.3953  0.7476
  788MOL0     C 6255   9.200   9.895  10.238 -0.3055  0.1512 -0.0864
  788MOL0     C 6256   9.078   9.936  10.162  0.2548  0.2177 -0.5550
  788MOL0     C 6257   8.953   9.908  10.251 -0.1540 -0.0058  0.1309
  788MOL0     C 6258   8.822   9.959  10.198  0.6773  0.0985  0.1138
  788MOL0     C 6259   8.717   9.909  10.296  0.6702  0.5566 -0.0362
  788MOL0     C 6260   8.573   9.965  10.291 -0.6743  1.3249 -0.2893
  788MOL0     C 6261   8.479   9.882  10.367 -0.3047  0.3460  0.3554
  788MOL0     N 6262   8.342   9.928  10.345  0.2273  0.7128 -0.2820
  788MOL0     C 6263   8.243   9.952  10.436 -0.1767  0.0451  0.0180
  788MOL0     C 6264   8.131   9.966  10.360  0.2691  0.3267 -0.5045
  788MOL0     C 6265   7.992  10.005  10.408 -0.2491  0.3198  0.3402
  788MOL0     C 6266   7.969   9.928  10.545 -0.2208  0.1170 -0.7337
  788MOL0     C 6267   7.822   9.955  10.585 -0.7891  0.2208 -0.6819
  788MOL0     C 6268   7.781   9.860  10.700 -0.3192 -0.0072  0.1589
  788MOL0     O 6269   7.769   9.728  10.650  0.4462  0.0947 -0.3505
  788MOL0     C 6270   7.656   9.710  10.565 -0.4041  0.1133  0.1540
  788MOL0     C 6271   7.675   9.676  10.423  0.1215 -0.4418 -0.3657
  788MOL0     C 6272   7.568   9.675  10.335 -0.3380  0.2407 -0.6508
  788MOL0     C 6273   7.595   9.641  10.188 -0.4559  0.3831  0.2806
  788MOL0     C 6274   7.433   9.698  10.375  0.0313  0.0992 -0.2678
  788MOL0     C 6275   7.321   9.688  10.281  0.2777  0.5603 -0.0256
  788MOL0     O 6276   7.342   9.740  10.157  0.6123  0.1966 -0.0160
  788MOL0     C 6277   7.256   9.739  10.051  0.6556 -0.2222  0.8547
  788MOL0     C 6278   7.273   9.836   9.950  0.4029  0.4888  0.6342
  788MOL0     C 6279   7.186   9.838   9.836 -0.6686 -0.1295  0.5937
  788MOL0     C 6280   7.083   9.743   9.820 -0.3076  0.4715 -0.5348
  788MOL0     O 6281   7.012   9.725   9.705 -0.0464  0.2251  0.2988
  788MOL0     C 6282   6.884   9.655   9.724 -0.4824  0.0332  0.3330
  788MOL0     C 6283   6.784   9.681   9.611 -0.0491 -0.7343  0.0850
  788MOL0     C 6284   6.650   9.600   9.627 -0.8112  0.1940 -0.4297
  788MOL0     C 6285   6.545   9.648   9.527 -0.0206 -0.6502 -0.2333
  788MOL0     C 6286   6.405   9.646   9.592 -0.7412  0.2610 -0.5036
  788MOL0     C 6287   6.287   9.672   9.499 -0.5172  0.4161 -0.2119
  788MOL0     C 6288   6.164   9.684   9.591 -0.3266 -0.6409 -0.0699
  788MOL0     C 6289   6.031   9.714   9.523 -0.4865  0.1107 -0.1858
  788MOL0    Cl 6290   5.878   9.691   9.613 -0.0652 -0.1974 -0.3125
  788MOL0     C 6291   7.073   9.646   9.919 -0.2278  0.6530 -0.9827
  788MOL0     C 6292   7.153   9.642  10.034 -0.9885 -0.7296  0.7942
  788MOL0     O 6293   7.216   9.633  10.321 -0.3357 -0.7959 -0.3784
  788MOL0     C 6294   7.416   9.717  10.521  0.0153  0.4062  0.6410
  788MOL0     C 6295   7.526   9.712  10.605 -0.1061  0.2538 -0.0405
  788MOL0     N 6296   8.172   9.968  10.230 -0.3675 -0.2258 -0.7312
  788MOL0     N 6297   8.296   9.940  10.226 -0.4759 -0.0040 -0.2439
  788MOL0     C 6298   9.583   9.965  10.052 -0.2044 -0.5443 -0.8171
  788MOL0     C 6299   9.701   9.974   9.992 -0.9876 -0.5307  0.7783
  788MOL0     C 6300  10.006   9.887   9.643  0.5160  0.1452 -0.1758
  788MOL0     C 6301  10.066   9.782   9.563  0.0630 -0.3911  0.2907
  788MOL0     C 6302  10.201   9.791   9.528 -0.5677  0.4623 -0.1258
  788MOL0     C 6303  10.280   9.899   9.564 -0.8651 -0.6412  0.5683
  788MOL0     O 6304  10.411   9.922   9.519  0.1990 -0.5286 -0.5416
  788MOL0     C 6305  10.503   9.811   9.500 -0.1307 -0.6852 -0.2984
  788MOL0     C 6306  10.648   9.869   9.509 -0.9312  0.4147 -0.4701
  788MOL0     C 6307  10.746   9.753   9.488  0.1803  0.1346 -0.6103
  788MOL0     C 6308  10.891   9.792   9.520  0.1071  0.9539 -0.0255
  788MOL0     C 6309  10.963   9.838   9.400  0.2164  0.0767 -0.5971
  788MOL0     C 6310  11.003   9.886   9.302  0.1159 -0.3773 -0.1555
  788MOL0     C 6311  10.218   9.994   9.646 -0.7599  0.1139 -0.2157
  788MOL0     C 6312  10.085   9.993   9.682  0.6274  0.0089  0.6855
  788MOL0     H 6313   9.619   9.756   9.738 -0.7074  0.1537 -0.5962
  788MOL0     H 6314   9.417   9.744   9.865  0.2770 -1.1980 -0.3315
  788MOL0     H 6315   9.410   9.924  10.252 -0.8062  0.2949  1.4289
  788MOL0     H 6316   9.327  10.050  10.159 -0.1941 -0.5524 -0.1661
  788MOL0     H 6317   9.194   9.787  10.255  1.4131  0.1254  0.5247
  788MOL0     H 6318   9.191   9.940  10.338 -3.0689 -0.2892 -0.0496
  788MOL0     H 6319   9.081  10.044  10.141 -2.9359  0.1898 -1.6782
  788MOL0     H 6320   9.074   9.888  10.064 -3.4302  0.2274 -0.5654
  788MOL0     H 6321   8.957   9.799  10.260  4.5005 -0.5572 -4.2429
  788MOL0     H 6322   8.966   9.948  10.352 -4.5864 -1.3748  1.4892
  788MOL0     H 6323   8.815  10.068  10.201  0.0370  0.0381  2.8907
  788MOL0     H 6324   8.798   9.921  10.098 -1.4372 -0.5472  0.8247
  788MOL0     H 6325   8.704   9.802  10.274  1.2622  1.1328 -3.8965
  788MOL0     H 6326   8.755   9.926  10.397  0.8176  1.7689 -0.2838
  788MOL0     H 6327   8.566  10.073  10.311 -2.6695  1.0857  0.5589
  788MOL0     H 6328   8.548   9.944  10.186 -2.0659 -0.8357  0.4120
  788MOL0     H 6329   8.503   9.864  10.472  2.2794 -1.9337 -0.4841
  788MOL0     H 6330   8.483   9.778  10.332 -2.5556  0.2826  0.1298
  788MOL0     H 6331   8.253   9.947  10.544 -0.9894  0.5391  0.1218
  788MOL0     H 6332   7.996  10.112  10.430  4.9987  0.1269  1.6998
  788MOL0     H 6333   7.926   9.972  10.328 -1.2527 -2.5450  2.1838
  788MOL0     H 6334   8.036   9.967  10.622  0.7059 -1.6576 -0.6043
  788MOL0     H 6335   7.988   9.821  10.549  1.4424  0.3837  3.4145
  788MOL0     H 6336   7.759   9.933  10.498 -0.7544  0.5514 -0.7885
  788MOL0     H 6337   7.809  10.059  10.614 -0.5000 -0.5858  2.8144
  788MOL0     H 6338   7.688   9.890  10.748 -1.5449 -0.6776 -1.6742
  788MOL0     H 6339   7.869   9.854  10.765 -0.1311  0.8745 -0.0013
  788MOL0     H 6340   7.777   9.655  10.390 -0.7825  0.2525 -4.0752
  788MOL0     H 6341   7.691   9.600  10.158 -1.3663 -0.3335 -1.8765
  788MOL0     H 6342   7.531   9.555  10.166 -0.6190  0.1500  1.5521
  788MOL0     H 6343   7.575   9.723  10.119  1.3013 -0.1558 -0.9205
  788MOL0     H 6344   7.347   9.913   9.968  0.2862  0.8037 -0.2042
  788MOL0     H 6345   7.178   9.915   9.759 -0.1392  0.9466  1.5823
  788MOL0     H 6346   6.896   9.546   9.730  0.3219  0.1278  0.5625
  788MOL0     H 6347   6.840   9.694   9.815  1.4069  1.2166  0.7927
  788MOL0     H 6348   6.763   9.788   9.602  0.6538 -0.6283 -0.4013
  788MOL0     H 6349   6.834   9.658   9.517 -0.4496 -1.0575 -0.0522
  788MOL0     H 6350   6.616   9.620   9.729 -0.1571  1.6114 -0.4721
  788MOL0     H 6351   6.669   9.493   9.614  0.4369  0.6015 -2.3799
  788MOL0     H 6352   6.551   9.755   9.504 -1.5146 -0.1877  1.3008
  788MOL0     H 6353   6.561   9.584   9.439  2.0170  1.5622 -1.6217
  788MOL0     H 6354   6.391   9.729   9.661 -0.2699  1.0941 -1.3812
  788MOL0     H 6355   6.382   9.551   9.641 -3.7931  0.9486 -0.3882
  788MOL0     H 6356   6.308   9.757   9.433  0.2019  0.7531  0.4449
  788MOL0     H 6357   6.279   9.587   9.431 -2.2586  0.8349 -0.5805
  788MOL0     H 6358   6.182   9.768   9.660 -0.7779 -0.2822 -0.3844
  788MOL0     H 6359   6.150   9.592   9.648 -1.7383 -0.2723  0.2193
  788MOL0     H 6360   6.020   9.657   9.430  1.6290 -1.6383  0.5537
  788MOL0     H 6361   6.040   9.821   9.499 -1.9687  0.7057  1.7187
  788MOL0     H 6362   7.001   9.564   9.917 -0.8233  1.1745 -1.2724
  788MOL0     H 6363   7.136   9.564  10.107  0.5065  0.4293  2.4747
  788MOL0     H 6364   7.315   9.736  10.556 -0.1475  3.3106 -1.1161
  788MOL0     H 6365   7.508   9.729  10.711 -2.1342  0.4521 -0.3877
  788MOL0     H 6366   9.581  10.034  10.136 -1.4534 -0.8397 -0.5835
  788MOL0     H 6367   9.787  10.035  10.018  0.5672 -0.9824 -2.7264
  788MOL0     H 6368   9.999   9.704   9.529  1.5466 -1.5602 -0.0482
  788MOL0     H 6369  10.241   9.701   9.482  1.5464 -0.1146  2.5815
  788MOL0     H 6370  10.496   9.744   9.586 -1.7986 -2.7085 -1.8981
  788MOL0     H 6371  10.476   9.756   9.409 -3.2371 -0.5333  0.4295
  788MOL0     H 6372  10.654   9.919   9.606  0.3887  1.3700 -1.0282
  788MOL0     H 6373  10.670   9.943   9.432 -2.3846 -0.4448 -1.7869
  788MOL0     H 6374  10.737   9.718   9.385 -3.7567  1.8380 -1.0164
  788MOL0     H 6375  10.709   9.674   9.555  0.8573 -0.0127 -0.4071
  788MOL0     H 6376  10.941   9.701   9.553 -1.7496 -1.1632 -2.6129
  788MOL0     H 6377  10.902   9.867   9.600  0.4543  0.7484  0.1199
  788MOL0     H 6378  11.033   9.923   9.206 -1.5142  0.0204 -0.5339
  788MOL0     H 6379  10.268  10.085   9.677 -1.8426  0.6057  0.1630
  788MOL0     H 6380  10.056  10.076   9.746 -0.3834 -0.4132  0.7959
  789MOL0     O 6381   0.128   2.599   7.265  0.1278  0.3913 -0.2025
  789MOL0     C 6382   0.212   2.510   7.288 -0.4879 -0.3280 -0.3294
  789MOL0     O 6383   0.183   2.379   7.323 -0.2313 -0.8716 -0.0567
  789MOL0     C 6384   0.051   2.336   7.333 -0.1111 -0.9093  0.4083
  789MOL0     C 6385  -0.053   2.368   7.249 -0.1133  0.6616 -0.1793
  789MOL0     C 6386  -0.186   2.333   7.286  0.4638 -0.0882 -0.5183
  789MOL0     C 6387  -0.209   2.268   7.410  0.4532  0.1533  0.2782
  789MOL0     O 6388  -0.331   2.240   7.467 -0.8332 -0.1835  0.2168
  789MOL0     C 6389  -0.457   2.261   7.398 -0.0948 -0.1210  1.1764
  789MOL0     C 6390  -0.564   2.270   7.508 -0.0816 -0.3781 -0.4587
  789MOL0     C 6391  -0.702   2.255   7.439  0.1132 -0.6745  0.2122
  789MOL0     C 6392  -0.811   2.260   7.542  0.1747  0.1648  0.0379
  789MOL0     C 6393  -0.946   2.234   7.483 -0.3355  0.0672 -0.0066
  789MOL0     C 6394  -1.052   2.250   7.592  0.2070  0.9305  0.2341
  789MOL0     C 6395  -1.203   2.247   7.535 -0.2725 -0.4260 -0.5534
  789MOL0     C 6396  -1.302   2.205   7.648 -0.0440 -0.3219  0.1746
  789MOL0     N 6397  -1.440   2.230   7.610  0.4838 -0.2694 -0.3644
  789MOL0     C 6398  -1.540   2.190   7.694 -0.8390 -0.0485  0.6044
  789MOL0     C 6399  -1.645   2.214   7.614 -0.1098  1.0472 -0.1724
  789MOL0     C 6400  -1.789   2.204   7.661  0.0194  0.2792  0.2965
  789MOL0     C 6401  -1.888   2.245   7.557 -0.0272  0.6044  0.7415
  789MOL0     C 6402  -2.029   2.240   7.600 -0.1001  0.5204  0.1606
  789MOL0     C 6403  -2.119   2.311   7.496 -0.0922 -0.3774  0.1643
  789MOL0     O 6404  -2.140   2.210   7.393  0.4365  0.0455 -0.1270
  789MOL0     C 6405  -2.270   2.215   7.342 -0.0738 -1.0112 -0.4033
  789MOL0     C 6406  -2.291   2.246   7.212 -0.8337  0.3844  0.3605
  789MOL0     C 6407  -2.420   2.248   7.160  0.3159  0.2471  0.5295
  789MOL0     C 6408  -2.423   2.268   7.012 -0.2277 -0.1138 -0.4665
  789MOL0     C 6409  -2.532   2.230   7.246 -0.5611  0.1255 -0.2068
  789MOL0     C 6410  -2.678   2.234   7.210  0.5171  0.4624  0.2226
  789MOL0     O 6411  -2.770   2.235   7.310 -0.5282 -0.0651  0.1350
  789MOL0     C 6412  -2.906   2.248   7.291  0.4058  0.3812 -0.4062
  789MOL0     C 6413  -2.971   2.150   7.219  0.2283  0.2641  0.0802
  789MOL0     C 6414  -3.108   2.161   7.188  0.8754 -0.2946 -0.5075
  789MOL0     C 6415  -3.184   2.250   7.247  0.0371 -0.8520  0.3166
  789MOL0     O 6416  -3.323   2.253   7.231 -0.4385 -0.1242  0.2636
  789MOL0     C 6417  -3.386   2.378   7.219 -0.0669 -0.0214  0.4151
  789MOL0     C 6418  -3.447   2.398   7.078 -0.4721  0.0907  0.0900
  789MOL0     C 6419  -3.539   2.276   7.047 -0.1139 -1.4810 -0.7581
  789MOL0     C 6420  -3.669   2.288   7.123  0.4119  1.2525 -0.1799
  789MOL0     C 6421  -3.785   2.194   7.090  0.9566  0.7785 -0.8243
  789MOL0     C 6422  -3.757   2.044   7.085  0.3919 -0.6738 -0.4451
  789MOL0     C 6423  -3.886   1.963   7.082  0.5787 -0.9096  0.1303
  789MOL0     C 6424  -3.864   1.813   7.087 -0.4889  0.8450 -0.4343
  789MOL0    Cl 6425  -3.747   1.761   7.216 -0.0884 -0.0676 -0.1971
  789MOL0     C 6426  -3.121   2.339   7.337 -1.3563 -0.6119  0.5071
  789MOL0     C 6427  -2.980   2.338   7.355  0.6971  0.3302  0.3472
  789MOL0     O 6428  -2.704   2.226   7.092  0.2800 -0.1308  0.2141
  789MOL0     C 6429  -2.502   2.202   7.381 -0.5161  1.5339 -0.4935
  789MOL0     C 6430  -2.373   2.184   7.426 -0.5788  0.4805  0.4079
  789MOL0     N 6431  -1.608   2.242   7.485 -0.7101 -0.2772 -0.1965
  789MOL0     N 6432  -1.486   2.263   7.495  0.4751  1.2549  0.6175
  789MOL0     C 6433  -0.101   2.237   7.490  0.9943 -0.0803  0.1342
  789MOL0     C 6434   0.025   2.282   7.452 -0.4398 -0.1099  1.0289
  789MOL0     C 6435   0.347   2.541   7.262 -0.3158 -0.5443  0.0666
  789MOL0     C 6436   0.382   2.682   7.273 -0.3477 -0.3218 -0.7823
  789MOL0     C 6437   0.507   2.722   7.257 -0.0493 -0.2181  0.1752
  789MOL0     C 6438   0.604   2.634   7.214  0.0745  0.0245 -0.2274
  789MOL0     O 6439   0.714   2.694   7.166  0.2496 -0.5733 -0.9354
  789MOL0     C 6440   0.791   2.636   7.064  0.6972  0.0906 -0.5169
  789MOL0     C 6441   0.904   2.730   7.016  0.1877 -0.4853 -0.2008
  789MOL0     C 6442   1.002   2.754   7.123  0.7297 -0.6136  0.0064
  789MOL0     C 6443   1.120   2.831   7.055  0.2081 -0.0366  0.3692
  789MOL0     C 6444   1.220   2.867   7.148 -0.4005  0.6577 -0.2569
  789MOL0     C 6445   1.291   2.895   7.244  0.2453 -0.0652  0.1867
  789MOL0     C 6446   0.571   2.499   7.193 -0.2191 -0.5547 -0.7011
  789MOL0     C 6447   0.449   2.443   7.225  0.1106 -0.5830 -0.5806
  789MOL0     H 6448  -0.034   2.419   7.155  1.4617  3.7173  1.6405
  789MOL0     H 6449  -0.268   2.350   7.217  1.2751  0.7949 -1.2926
  789MOL0     H 6450  -0.455   2.354   7.340 -3.8049 -0.2962  0.5298
  789MOL0     H 6451  -0.483   2.181   7.328 -0.4529  1.5652 -0.7266
  789MOL0     H 6452  -0.558   2.190   7.583 -0.1374  1.0255  1.0938
  789MOL0     H 6453  -0.564   2.364   7.564 -3.9835 -0.5666  0.1808
  789MOL0     H 6454  -0.714   2.330   7.361  2.6273  0.1225  0.5054
  789MOL0     H 6455  -0.712   2.153   7.401 -1.9504 -0.4955  0.1816
  789MOL0     H 6456  -0.795   2.190   7.624 -0.9951  0.2759  0.3821
  789MOL0     H 6457  -0.807   2.364   7.577  1.6383  0.3241 -0.5387
  789MOL0     H 6458  -0.961   2.310   7.405 -0.2747  2.4897  2.2033
  789MOL0     H 6459  -0.956   2.139   7.429 -0.7999  0.7386 -1.1450
  789MOL0     H 6460  -1.050   2.163   7.658 -2.3178  1.2767  0.8674
  789MOL0     H 6461  -1.032   2.331   7.662  0.2510  1.5001 -0.4264
  789MOL0     H 6462  -1.229   2.345   7.492 -1.2570 -0.1987  0.5156
  789MOL0     H 6463  -1.203   2.189   7.442  1.2090  1.0084 -1.5029
  789MOL0     H 6464  -1.275   2.262   7.737  2.5033 -3.2304  1.4550
  789MOL0     H 6465  -1.270   2.104   7.677 -0.1713 -0.4805 -0.2332
  789MOL0     H 6466  -1.527   2.161   7.798  2.4694 -0.3388  0.2145
  789MOL0     H 6467  -1.805   2.099   7.687  0.0639  0.3671  0.6770
  789MOL0     H 6468  -1.808   2.250   7.758 -2.9166 -1.0171  0.4476
  789MOL0     H 6469  -1.875   2.193   7.462  0.9216  0.2966  1.0346
  789MOL0     H 6470  -1.864   2.346   7.523 -2.4052  0.7093 -0.9333
  789MOL0     H 6471  -2.037   2.281   7.701  3.3426  1.8871  0.0194
  789MOL0     H 6472  -2.065   2.138   7.613  2.2021 -0.6670 -1.9158
  789MOL0     H 6473  -2.078   2.405   7.458  0.7250  0.3001  2.5412
  789MOL0     H 6474  -2.216   2.337   7.541 -1.3197 -1.0828 -1.9371
  789MOL0     H 6475  -2.204   2.269   7.152 -0.7390  1.8651  1.0125
  789MOL0     H 6476  -2.471   2.359   6.978 -1.1071 -0.7669 -1.0008
  789MOL0     H 6477  -2.321   2.274   6.973 -0.1085  1.8190  0.0719
  789MOL0     H 6478  -2.480   2.188   6.964 -0.7349  0.7345 -1.3105
  789MOL0     H 6479  -2.917   2.060   7.191 -1.6928 -1.3018  1.1233
  789MOL0     H 6480  -3.160   2.094   7.120 -2.0937  0.3243  0.9893
  789MOL0     H 6481  -3.471   2.388   7.287 -1.6390  2.5481 -1.7587
  789MOL0     H 6482  -3.318   2.462   7.235 -1.3762  1.1940 -0.2022
  789MOL0     H 6483  -3.503   2.492   7.077 -0.1265  0.2995  0.1981
  789MOL0     H 6484  -3.367   2.403   7.003  0.5352  0.0969  1.1409
  789MOL0     H 6485  -3.495   2.181   7.075  0.1446 -1.6280 -1.6288
  789MOL0     H 6486  -3.561   2.279   6.940 -2.4043  0.1390 -0.3367
  789MOL0     H 6487  -3.651   2.275   7.230 -1.4324 -2.0587 -0.1385
  789MOL0     H 6488  -3.710   2.389   7.118 -1.5082  0.4456 -1.6934
  789MOL0     H 6489  -3.826   2.226   6.994  0.2760 -0.7920 -1.0755
  789MOL0     H 6490  -3.860   2.227   7.162 -0.4796 -1.1435 -1.3440
  789MOL0     H 6491  -3.691   2.022   7.001  1.9428 -0.6724  0.7378
  789MOL0     H 6492  -3.704   2.028   7.179  1.0712 -0.5069 -0.7967
  789MOL0     H 6493  -3.931   1.995   6.988 -0.5370  0.5366  1.1293
  789MOL0     H 6494  -3.940   1.993   7.172 -0.8764  1.1076 -1.3618
  789MOL0     H 6495  -3.825   1.772   6.993  1.5598  2.7886 -0.5100
  789MOL0     H 6496  -3.961   1.765   7.104 -0.4270  1.6856  2.9993
  789MOL0     H 6497  -3.177   2.416   7.391 -0.0790  1.2501 -0.7221
  789MOL0     H 6498  -2.936   2.414   7.418  2.0519 -0.3997  0.3215
  789MOL0     H 6499  -2.579   2.182   7.456 -1.2454 -4.2651 -2.3115
  789MOL0     H 6500  -2.341   2.146   7.523 -1.0945 -3.5960 -0.7980
  789MOL0     H 6501  -0.114   2.192   7.588 -0.6784 -1.6127 -0.7427
  789MOL0     H 6502   0.112   2.273   7.517  1.2977  1.4255 -0.9209
  789MOL0     H 6503   0.314   2.757   7.310 -2.2228 -1.1842 -2.2768
  789MOL0     H 6504   0.551   2.821   7.267  1.6624 -0.5209 -3.0372
  789MOL0     H 6505   0.839   2.553   7.116 -0.7199  0.4455  1.5271
  789MOL0     H 6506   0.731   2.596   6.982 -0.3056  1.5344 -0.5319
  789MOL0     H 6507   0.859   2.825   6.985  1.6156  0.2910  0.0145
  789MOL0     H 6508   0.959   2.680   6.935  1.1782 -1.1715  0.8681
  789MOL0     H 6509   1.043   2.658   7.154  2.6892  0.4131  0.7851
  789MOL0     H 6510   0.968   2.821   7.202 -1.5487 -3.2548  1.4285
  789MOL0     H 6511   1.094   2.927   7.009  3.7935  1.1885  0.6174
  789MOL0     H 6512   1.163   2.773   6.973 -1.2775  0.6543 -0.9671
  789MOL0     H 6513   1.322   2.903   7.346 -1.4386 -0.3242  0.7567
  789MOL0     H 6514   0.646   2.430   7.155 -2.0600 -2.2029 -1.5370
  789MOL0     H 6515   0.413   2.340   7.222  1.2024 -0.9799 -3.2820
  790MOL0     O 6516   0.253   2.289   5.468  0.2385 -0.8034  0.5036
  790MOL0     C 6517   0.326   2.385   5.496 -0.4501  0.0684 -0.0852
  790MOL0     O 6518   0.282   2.503   5.546  1.0510 -0.6554  0.8383
  790MOL0     C 6519   0.151   2.510   5.583 -0.0653 -0.3157 -0.1404
  790MOL0     C 6520   0.058   2.599   5.527 -0.3374  0.4824 -0.6376
  790MOL0     C 6521  -0.068   2.610   5.581 -0.7336 -0.3040 -0.4053
  790MOL0     C 6522  -0.110   2.529   5.684 -0.7445 -0.0617 -0.0967
  790MOL0     O 6523  -0.232   2.515   5.736 -0.4626 -0.3822  0.6839
  790MOL0     C 6524  -0.351   2.572   5.672 -0.9002  0.3967 -0.3621
  790MOL0     C 6525  -0.472   2.503   5.723  0.3108  0.1493  1.3929
  790MOL0     C 6526  -0.457   2.477   5.872  0.0264 -0.7728  0.2887
  790MOL0     C 6527  -0.594   2.444   5.936  0.7004 -0.3426 -0.3459
  790MOL0     C 6528  -0.588   2.377   6.081 -0.5824  0.5623 -0.5594
  790MOL0     C 6529  -0.713   2.285   6.112 -0.2353  0.4236  0.2324
  790MOL0     C 6530  -0.845   2.365   6.099 -0.2382  0.1184 -0.2585
  790MOL0     C 6531  -0.830   2.491   6.190 -1.0660  0.6507 -0.4447
  790MOL0     N 6532  -0.954   2.555   6.239 -0.6353  0.8984  0.4775
  790MOL0     C 6533  -1.035   2.644   6.173 -1.0569 -0.0628 -0.6105
  790MOL0     C 6534  -1.123   2.672   6.270  0.4063 -0.0899 -0.2096
  790MOL0     C 6535  -1.225   2.783   6.259 -1.0658 -0.7413  0.0296
  790MOL0     C 6536  -1.360   2.732   6.213  0.4530 -1.5737 -0.0691
  790MOL0     C 6537  -1.431   2.630   6.301 -0.1689 -0.1582 -0.7546
  790MOL0     C 6538  -1.574   2.601   6.253  0.6065  0.1413  0.2261
  790MOL0     O 6539  -1.585   2.593   6.108 -0.1380 -0.0737  0.5256
  790MOL0     C 6540  -1.704   2.589   6.038  0.2471  0.4833 -0.6637
  790MOL0     C 6541  -1.834   2.578   6.109 -0.2183  0.4359  0.6184
  790MOL0     C 6542  -1.953   2.585   6.043  1.0571  0.4516  0.4577
  790MOL0     C 6543  -2.070   2.592   6.131 -0.2985 -0.1605  0.7231
  790MOL0     C 6544  -1.952   2.568   5.901  0.5648  0.7542  1.2875
  790MOL0     C 6545  -2.074   2.538   5.820  0.0063 -0.4739 -0.1358
  790MOL0     O 6546  -2.049   2.529   5.683 -0.0409  0.0268  0.1495
  790MOL0     C 6547  -2.153   2.510   5.599  0.4043  0.4531  0.7218
  790MOL0     C 6548  -2.130   2.544   5.460  0.6131 -0.2199 -0.4943
  790MOL0     C 6549  -2.235   2.531   5.369  0.0304 -0.1937 -0.3537
  790MOL0     C 6550  -2.362   2.474   5.401  0.3888  0.4840  0.0662
  790MOL0     O 6551  -2.465   2.463   5.313 -0.0187 -0.3345 -0.1010
  790MOL0     C 6552  -2.457   2.541   5.191 -0.8251 -0.5460  1.2853
  790MOL0     C 6553  -2.594   2.545   5.129  0.7823 -0.8113  0.0975
  790MOL0     C 6554  -2.592   2.569   4.976  0.0530 -0.0560  1.0487
  790MOL0     C 6555  -2.731   2.605   4.923  0.7216 -0.6475  0.3057
  790MOL0     C 6556  -2.764   2.756   4.942  0.7890  0.0666  0.2253
  790MOL0     C 6557  -2.900   2.796   4.881 -0.4763  0.2494 -0.1322
  790MOL0     C 6558  -3.021   2.725   4.953 -0.7946 -0.6335 -0.4992
  790MOL0     C 6559  -3.154   2.783   4.896  0.3932  0.0354 -0.1861
  790MOL0    Cl 6560  -3.204   2.732   4.729  0.7747 -0.2239 -0.2739
  790MOL0     C 6561  -2.384   2.433   5.530  0.2826 -0.2389  0.3493
  790MOL0     C 6562  -2.280   2.453   5.625  0.2210 -0.8714 -0.9543
  790MOL0     O 6563  -2.188   2.532   5.873  0.2058  0.1232 -0.4253
  790MOL0     C 6564  -1.828   2.577   5.835  0.1496 -0.2034  0.5812
  790MOL0     C 6565  -1.708   2.595   5.898  0.4835  0.1562  0.2516
  790MOL0     N 6566  -1.114   2.592   6.382 -0.5246 -0.6217  0.1359
  790MOL0     N 6567  -1.002   2.519   6.356  0.5077  0.1775  0.2270
  790MOL0     C 6568  -0.017   2.445   5.746 -0.5170  0.5274  0.5511
  790MOL0     C 6569   0.117   2.441   5.704  0.4234  0.3528  0.1917
  790MOL0     C 6570   0.472   2.377   5.487  0.8087 -1.1942  0.6779
  790MOL0     C 6571   0.532   2.293   5.399  0.7628 -0.4418  0.9094
  790MOL0     C 6572   0.660   2.318   5.366 -0.3558  0.3716  0.2159
  790MOL0     C 6573   0.747   2.417   5.421  0.2064 -0.5976  0.7145
  790MOL0     O 6574   0.884   2.433   5.406 -0.4288  0.4766  0.3175
  790MOL0     C 6575   0.951   2.352   5.306 -0.6980  0.0486 -0.7243
  790MOL0     C 6576   1.089   2.408   5.294  0.3708 -0.2495 -0.6810
  790MOL0     C 6577   1.201   2.321   5.233 -0.1415 -0.5180 -0.7555
  790MOL0     C 6578   1.325   2.404   5.243 -0.4214 -0.0213  0.4194
  790MOL0     C 6579   1.323   2.512   5.150  0.4928  0.0104 -0.8761
  790MOL0     C 6580   1.314   2.603   5.069  0.8859 -0.0211  0.6134
  790MOL0     C 6581   0.684   2.495   5.511 -0.0534 -0.8145 -0.3556
  790MOL0     C 6582   0.550   2.481   5.549 -0.1356 -0.0160 -0.3986
  790MOL0     H 6583   0.095   2.657   5.443 -1.9582  1.5375 -0.6676
  790MOL0     H 6584  -0.135   2.681   5.535 -0.1716  0.5871  0.1027
  790MOL0     H 6585  -0.354   2.678   5.697  1.8814 -0.0495  2.5845
  790MOL0     H 6586  -0.343   2.563   5.563  2.2181 -0.9140 -0.1541
  790MOL0     H 6587  -0.555   2.569   5.696  0.5976  0.2228  0.6563
  790MOL0     H 6588  -0.480   2.406   5.673  0.4315  0.4927  0.6926
  790MOL0     H 6589  -0.391   2.391   5.886  2.8550  1.3153  0.8375
  790MOL0     H 6590  -0.413   2.568   5.915 -1.3492 -1.1030  2.5089
  790MOL0     H 6591  -0.660   2.531   5.943 -0.6195 -1.3354  0.0120
  790MOL0     H 6592  -0.648   2.380   5.865  0.5217  1.2171 -1.6789
  790MOL0     H 6593  -0.495   2.321   6.092 -0.4130  1.1084  1.0954
  790MOL0     H 6594  -0.578   2.466   6.143  1.8369  1.2149 -1.7839
  790MOL0     H 6595  -0.703   2.200   6.044 -0.9156 -0.2260  0.9169
  790MOL0     H 6596  -0.711   2.259   6.218  1.5573  1.8538  0.5938
  790MOL0     H 6597  -0.869   2.396   5.997 -2.1373 -1.5827 -0.3827
  790MOL0     H 6598  -0.930   2.311   6.141  1.0323 -1.7891 -0.0472
  790MOL0     H 6599  -0.779   2.558   6.119  0.2824  2.5128  2.0843
  790MOL0     H 6600  -0.766   2.473   6.277 -1.1566  2.3236  0.0123
  790MOL0     H 6601  -1.020   2.700   6.081  2.1728  1.9668  0.9773
  790MOL0     H 6602  -1.238   2.832   6.355  1.3789  0.4090 -0.1578
  790MOL0     H 6603  -1.187   2.867   6.201 -1.3180 -0.2701  0.5444
  790MOL0     H 6604  -1.353   2.690   6.112 -2.3835 -0.0624 -0.9885
  790MOL0     H 6605  -1.428   2.816   6.198  0.1659 -1.2156  2.7886
  790MOL0     H 6606  -1.433   2.660   6.406 -2.7072 -0.8961 -0.5181
  790MOL0     H 6607  -1.368   2.542   6.288 -1.1347 -0.8001 -1.1361
  790MOL0     H 6608  -1.642   2.684   6.273 -0.3984  0.8124 -4.8021
  790MOL0     H 6609  -1.608   2.506   6.295  2.7062  0.9241  4.1743
  790MOL0     H 6610  -1.833   2.573   6.217 -2.3224 -0.1879  0.6535
  790MOL0     H 6611  -2.037   2.596   6.235  0.9627  1.7222  0.3009
  790MOL0     H 6612  -2.123   2.683   6.100  2.2571  1.7081  1.5033
  790MOL0     H 6613  -2.135   2.505   6.126 -1.7921  0.9312  0.2691
  790MOL0     H 6614  -2.040   2.596   5.427  0.9640 -2.0333 -2.6571
  790MOL0     H 6615  -2.194   2.548   5.270  3.0599 -1.7601  0.5068
  790MOL0     H 6616  -2.420   2.642   5.216 -1.6113 -0.1419  0.8400
  790MOL0     H 6617  -2.388   2.489   5.124  0.7557  3.2763 -0.3501
  790MOL0     H 6618  -2.638   2.447   5.152 -0.3965  0.1428  2.2329
  790MOL0     H 6619  -2.654   2.620   5.180  2.3905 -0.5165  1.6646
  790MOL0     H 6620  -2.558   2.484   4.915 -1.4235 -1.0746  1.5725
  790MOL0     H 6621  -2.525   2.653   4.960 -1.2472  0.6902 -0.8990
  790MOL0     H 6622  -2.740   2.573   4.819 -0.4764 -2.7456  0.9790
  790MOL0     H 6623  -2.800   2.550   4.987 -0.4083 -0.5055 -0.7526
  790MOL0     H 6624  -2.688   2.809   4.885  0.2414 -0.6762 -1.2548
  790MOL0     H 6625  -2.773   2.768   5.050 -2.8502 -1.0269  0.1954
  790MOL0     H 6626  -2.910   2.905   4.869  1.5589  0.2728 -2.1246
  790MOL0     H 6627  -2.893   2.747   4.784  0.8294 -0.1638  0.1503
  790MOL0     H 6628  -3.018   2.747   5.060 -0.6000 -1.9964 -0.2042
  790MOL0     H 6629  -3.012   2.616   4.952 -0.7965 -0.6457  0.3065
  790MOL0     H 6630  -3.141   2.891   4.889  1.1027 -0.0678 -0.4510
  790MOL0     H 6631  -3.237   2.762   4.966 -0.9416  0.7299 -1.5037
  790MOL0     H 6632  -2.476   2.384   5.558  0.9394 -0.7102  1.8269
  790MOL0     H 6633  -2.304   2.411   5.722 -1.2691  0.5320 -0.6708
  790MOL0     H 6634  -1.818   2.558   5.728  0.6145 -0.3087  0.6422
  790MOL0     H 6635  -1.614   2.610   5.845  0.7420  1.9617  1.1356
  790MOL0     H 6636  -0.032   2.400   5.844  0.1941  2.4323  1.5881
  790MOL0     H 6637   0.186   2.380   5.761 -0.9715  0.1784  1.8046
  790MOL0     H 6638   0.476   2.236   5.327  2.5341  1.3192 -2.0556
  790MOL0     H 6639   0.703   2.258   5.286 -1.6680  0.0420 -0.2771
  790MOL0     H 6640   0.955   2.243   5.319  1.2721 -0.0096 -1.5215
  790MOL0     H 6641   0.899   2.354   5.210 -2.0616  1.1171 -0.0149
  790MOL0     H 6642   1.115   2.440   5.396  1.3956  0.8782 -1.2634
  790MOL0     H 6643   1.070   2.485   5.219  0.1106 -0.6839 -1.0617
  790MOL0     H 6644   1.179   2.271   5.138 -0.2210  0.6978 -1.3971
  790MOL0     H 6645   1.233   2.235   5.292  1.5947  0.9247  0.5372
  790MOL0     H 6646   1.413   2.342   5.221 -1.5732 -0.8277 -2.3699
  790MOL0     H 6647   1.341   2.448   5.341  1.1531  3.7193 -1.3358
  790MOL0     H 6648   1.303   2.673   4.989  0.8685  1.5037  1.9070
  790MOL0     H 6649   0.746   2.575   5.551 -0.4747 -0.2600 -0.7993
  790MOL0     H 6650   0.497   2.542   5.622 -0.8414 -0.7747 -0.2671
  791MOL0     O 6651  10.173   4.246  10.307 -0.1993 -0.8409 -0.0573
  791MOL0     C 6652  10.143   4.150  10.369 -0.1934 -0.2746 -0.2055
  791MOL0     O 6653  10.021   4.125  10.427 -0.3663 -0.6569  0.6120
  791MOL0     C 6654   9.929   4.231  10.438 -0.9146 -0.0976 -0.3414
  791MOL0     C 6655   9.809   4.240  10.375  0.1630  0.4190 -0.1169
  791MOL0     C 6656   9.716   4.335  10.413 -0.1577 -0.6740  0.8200
  791MOL0     C 6657   9.740   4.438  10.504 -0.2170  0.6990  0.2368
  791MOL0     O 6658   9.645   4.528  10.546  0.4436 -0.5915 -0.1863
  791MOL0     C 6659   9.513   4.542  10.492  0.0367  0.5285  0.6494
  791MOL0     C 6660   9.410   4.431  10.533 -0.5653  0.6517 -0.2672
  791MOL0     C 6661   9.267   4.447  10.485  0.1250 -0.3541 -0.5516
  791MOL0     C 6662   9.193   4.561  10.548  0.0985 -0.2943 -1.1632
  791MOL0     C 6663   9.043   4.565  10.522 -0.6114 -0.2063  0.0460
  791MOL0     C 6664   8.982   4.655  10.624  0.0840  1.0350 -0.0321
  791MOL0     C 6665   8.838   4.620  10.652  0.2501 -0.5334 -0.3595
  791MOL0     C 6666   8.779   4.735  10.729  0.3916  0.3718 -0.5347
  791MOL0     N 6667   8.644   4.691  10.767 -0.3034  0.1552 -0.6370
  791MOL0     C 6668   8.554   4.760  10.845  0.7092  0.0898 -0.7850
  791MOL0     C 6669   8.439   4.686  10.840  0.8128 -0.4228  0.6656
  791MOL0     C 6670   8.306   4.720  10.899  0.5335  0.0333 -0.3182
  791MOL0     C 6671   8.246   4.600  10.970 -0.3969 -0.2641 -0.2166
  791MOL0     C 6672   8.122   4.636  11.058 -0.1032  0.4257  0.5160
  791MOL0     C 6673   7.992   4.643  10.979 -0.2781 -0.2772  0.4460
  791MOL0     O 6674   7.884   4.616  11.072  0.4959 -0.1782  0.4762
  791MOL0     C 6675   7.765   4.576  11.012 -0.4181 -1.1455  0.2253
  791MOL0     C 6676   7.719   4.600  10.881  0.3420  0.3940  0.5386
  791MOL0     C 6677   7.590   4.554  10.841  0.7746  0.2463 -0.2682
  791MOL0     C 6678   7.552   4.575  10.691  0.2225 -0.4523 -0.1884
  791MOL0     C 6679   7.505   4.479  10.932  0.1114 -0.3917 -0.0341
  791MOL0     C 6680   7.373   4.423  10.897  1.0680  0.1169 -0.3567
  791MOL0     O 6681   7.306   4.385  11.010 -0.1463 -0.1129  0.7428
  791MOL0     C 6682   7.203   4.299  10.984 -0.3417  0.2414 -0.9615
  791MOL0     C 6683   7.221   4.161  10.997  0.3806 -0.4059 -1.1031
  791MOL0     C 6684   7.120   4.068  10.996 -0.1965  0.1237 -0.0230
  791MOL0     C 6685   6.996   4.108  10.972  0.0470  0.0633  0.0569
  791MOL0     O 6686   6.903   4.012  10.978 -0.2559  0.6453  0.3979
  791MOL0     C 6687   6.791   4.023  10.881  0.2949 -0.2068 -0.1765
  791MOL0     C 6688   6.675   3.947  10.940  0.3781 -0.3533  0.3166
  791MOL0     C 6689   6.583   3.909  10.819  0.1141 -0.2973  0.1050
  791MOL0     C 6690   6.456   3.842  10.884 -0.1809 -0.2691 -0.2428
  791MOL0     C 6691   6.388   3.752  10.779 -0.5967 -0.7473  0.0180
  791MOL0     C 6692   6.341   3.835  10.655 -0.7171 -0.4116 -0.2672
  791MOL0     C 6693   6.228   3.769  10.572 -0.2193 -0.0697 -0.5173
  791MOL0     C 6694   6.089   3.787  10.634 -0.0885 -0.5571  0.2761
  791MOL0    Cl 6695   5.981   3.701  10.530 -0.0067  0.3197 -0.0898
  791MOL0     C 6696   6.967   4.249  10.967 -0.9624  0.4309 -0.8542
  791MOL0     C 6697   7.071   4.343  10.962 -0.3476 -0.2306  1.0143
  791MOL0     O 6698   7.340   4.414  10.780  0.8901  0.3360  0.3482
  791MOL0     C 6699   7.554   4.463  11.060  0.0321  0.4028 -0.3681
  791MOL0     C 6700   7.675   4.515  11.101  0.7453  0.9956 -0.2420
  791MOL0     N 6701   8.465   4.562  10.793 -0.0631  0.0138  0.9394
  791MOL0     N 6702   8.586   4.572  10.743 -0.0692  0.6216  0.6579
  791MOL0     C 6703   9.874   4.437  10.552 -0.3231  0.1888  0.2748
  791MOL0     C 6704   9.965   4.334  10.518 -0.3144 -0.7334  0.6711
  791MOL0     C 6705  10.249   4.061  10.399  0.5017  0.7377 -0.0661
  791MOL0     C 6706  10.370   4.076  10.339 -0.6189  0.7391 -0.2989
  791MOL0     C 6707  10.483   3.996  10.374  0.1342 -0.4276  0.1661
  791MOL0     C 6708  10.475   3.896  10.469  0.1546  0.2330  0.1482
  791MOL0     O 6709  10.593   3.825  10.493 -0.9721  0.0606 -0.0719
  791MOL0     C 6710  10.601   3.750  10.615  0.5046  0.7079  0.1658
  791MOL0     C 6711  10.603   3.841  10.733  0.4164 -0.8349  0.1194
  791MOL0     C 6712  10.630   3.771  10.871  0.4320 -0.6846 -0.6106
  791MOL0     C 6713  10.650   3.866  10.985 -0.7439 -1.0978  0.3526
  791MOL0     C 6714  10.546   3.977  11.003 -0.1645  0.9391  0.5800
  791MOL0     C 6715  10.470   4.063  11.027  0.3055 -0.6023 -0.1358
  791MOL0     C 6716  10.343   3.880  10.528 -1.2208 -0.8080 -0.5834
  791MOL0     C 6717  10.235   3.956  10.494  0.7245 -0.3552 -0.2240
  791MOL0     H 6718   9.785   4.163  10.302  0.2422  0.3579 -0.0785
  791MOL0     H 6719   9.620   4.339  10.361 -0.7017 -0.8734  1.7793
  791MOL0     H 6720   9.475   4.641  10.518  1.4609  1.2896 -0.0555
  791MOL0     H 6721   9.519   4.538  10.383  3.7271 -0.6302  0.7680
  791MOL0     H 6722   9.450   4.339  10.491 -0.1647  0.0954  1.2506
  791MOL0     H 6723   9.393   4.426  10.641 -0.5636 -2.4160 -0.3343
  791MOL0     H 6724   9.272   4.458  10.376  2.8097  0.9521 -0.3706
  791MOL0     H 6725   9.215   4.352  10.501 -1.0109  0.6203  1.9413
  791MOL0     H 6726   9.211   4.550  10.655 -0.1187  0.1757 -1.0778
  791MOL0     H 6727   9.240   4.654  10.516  0.7718 -0.1466  0.1921
  791MOL0     H 6728   9.028   4.611  10.423 -0.3508  6.5639  2.6337
  791MOL0     H 6729   8.983   4.474  10.518 -2.5663  0.9778  0.5336
  791MOL0     H 6730   9.032   4.661  10.721 -0.1723  0.3331  0.1460
  791MOL0     H 6731   8.994   4.755  10.581 -0.7862  0.8508 -0.7499
  791MOL0     H 6732   8.777   4.600  10.564  0.7664 -3.7642 -0.1037
  791MOL0     H 6733   8.832   4.529  10.713 -1.6557 -0.1123  0.1741
  791MOL0     H 6734   8.770   4.824  10.666  2.4663  2.2493  1.6092
  791MOL0     H 6735   8.849   4.752  10.811 -1.5238 -0.0808  1.2650
  791MOL0     H 6736   8.555   4.860  10.888  1.7272 -0.4834  0.6090
  791MOL0     H 6737   8.328   4.796  10.975  1.9082 -0.7258  0.0924
  791MOL0     H 6738   8.237   4.750  10.820  0.2348 -0.3728 -0.2076
  791MOL0     H 6739   8.319   4.547  11.033 -1.2030  0.1774  1.1306
  791MOL0     H 6740   8.217   4.536  10.886 -0.9896 -1.3594  0.7969
  791MOL0     H 6741   8.134   4.726  11.119  0.0767  2.5834 -2.4647
  791MOL0     H 6742   8.113   4.548  11.121  1.4917 -0.8390 -0.9290
  791MOL0     H 6743   7.990   4.573  10.895 -0.7744  2.9017 -2.3993
  791MOL0     H 6744   7.989   4.742  10.932  1.5426  0.7035  2.2080
  791MOL0     H 6745   7.772   4.655  10.805 -0.0199 -1.0816 -0.8286
  791MOL0     H 6746   7.644   4.592  10.635  0.4194 -1.5718 -0.2450
  791MOL0     H 6747   7.505   4.496  10.631 -3.5185  1.1135  0.4066
  791MOL0     H 6748   7.494   4.667  10.694  0.4472 -0.3022 -0.4350
  791MOL0     H 6749   7.319   4.133  11.033  0.0579 -0.9115 -0.5989
  791MOL0     H 6750   7.140   3.961  11.002 -3.5215 -0.5222  1.8008
  791MOL0     H 6751   6.759   4.126  10.862 -0.3838 -0.6714 -1.7016
  791MOL0     H 6752   6.821   3.978  10.786 -0.8693  0.1841 -0.7469
  791MOL0     H 6753   6.701   3.845  10.969  0.1265 -1.3671 -2.6144
  791MOL0     H 6754   6.628   4.010  11.016  0.6440  0.2633 -0.0207
  791MOL0     H 6755   6.636   3.834  10.760 -0.1194 -0.0419 -0.4423
  791MOL0     H 6756   6.567   4.003  10.764  0.5680 -0.9149 -1.1327
  791MOL0     H 6757   6.477   3.791  10.979 -0.4347 -0.2333 -0.1673
  791MOL0     H 6758   6.391   3.927  10.907 -0.9217 -0.7335 -0.5886
  791MOL0     H 6759   6.294   3.715  10.821 -0.7664  0.4790  0.7591
  791MOL0     H 6760   6.453   3.671  10.745 -1.4435 -2.1030  1.5040
  791MOL0     H 6761   6.296   3.933  10.673  0.3912  0.4999 -2.1420
  791MOL0     H 6762   6.435   3.851  10.601 -0.3720  0.0133  0.4469
  791MOL0     H 6763   6.254   3.664  10.553 -0.0441 -0.3394  1.0772
  791MOL0     H 6764   6.226   3.817  10.474  1.1300 -0.1984 -0.6278
  791MOL0     H 6765   6.078   3.896  10.643  0.2242 -0.5272  0.3131
  791MOL0     H 6766   6.083   3.749  10.737 -2.3273 -2.4671 -0.4771
  791MOL0     H 6767   6.864   4.273  10.940 -0.7892 -0.3484 -2.3136
  791MOL0     H 6768   7.050   4.447  10.942  1.3723  0.0113  0.2753
  791MOL0     H 6769   7.482   4.432  11.135 -2.7631  1.7240 -2.2969
  791MOL0     H 6770   7.719   4.493  11.198  0.6311 -0.7637 -0.5708
  791MOL0     H 6771   9.913   4.517  10.614  0.6676 -3.3767  4.7967
  791MOL0     H 6772  10.064   4.342  10.562 -0.0511  2.8320 -0.1989
  791MOL0     H 6773  10.372   4.154  10.263 -1.2609 -0.5316 -1.6692
  791MOL0     H 6774  10.577   4.019  10.325 -0.3208  3.5698  0.8161
  791MOL0     H 6775  10.522   3.674  10.623  1.5103 -0.2161  2.1002
  791MOL0     H 6776  10.693   3.691  10.618 -1.0012 -1.8270 -0.1043
  791MOL0     H 6777  10.514   3.905  10.740  0.5511 -0.8037  2.4375
  791MOL0     H 6778  10.679   3.913  10.703  0.2312 -1.6301 -2.4307
  791MOL0     H 6779  10.716   3.704  10.862 -0.0858 -1.6230  1.0017
  791MOL0     H 6780  10.535   3.719  10.889 -1.7539  3.2719  0.4089
  791MOL0     H 6781  10.747   3.909  10.958 -1.0326  0.4900  1.6429
  791MOL0     H 6782  10.664   3.822  11.084 -0.9545  2.7132  2.2881
  791MOL0     H 6783  10.410   4.150  11.043  1.4799  0.3162 -0.4952
  791MOL0     H 6784  10.323   3.806  10.606 -0.4292 -1.1332 -0.6800
  791MOL0     H 6785  10.133   3.949  10.530  0.8740  0.3960  0.3694
  792MOL0     O 6786   9.059  10.865   6.199  0.2909 -0.0491  0.4175
  792MOL0     C 6787   9.050  10.929   6.305 -0.9145  0.7205  0.1881
  792MOL0     O 6788   8.954  10.923   6.397 -0.0342 -0.4504  0.5117
  792MOL0     C 6789   8.823  10.908   6.366 -0.3139 -0.1785  0.3063
  792MOL0     C 6790   8.763  10.977   6.266 -0.3859  0.0319  0.0778
  792MOL0     C 6791   8.620  10.964   6.252 -0.2917 -0.1939  0.3272
  792MOL0     C 6792   8.548  10.876   6.335 -0.0620 -0.3731  0.3376
  792MOL0     O 6793   8.413  10.856   6.322  0.1236  0.0916  0.1208
  792MOL0     C 6794   8.388  10.788   6.195  0.2769  0.3271 -0.1000
  792MOL0     C 6795   8.263  10.694   6.206  0.0684  0.6335 -0.3921
  792MOL0     C 6796   8.266  10.596   6.099  0.0630  0.1121  0.1208
  792MOL0     C 6797   8.144  10.507   6.083  0.6232  0.0299  0.3430
  792MOL0     C 6798   8.017  10.590   6.063  0.1311  0.1295  0.6600
  792MOL0     C 6799   7.903  10.513   5.999 -0.1738  0.3752  0.7231
  792MOL0     C 6800   7.763  10.570   6.034  0.2714 -0.5714  1.3873
  792MOL0     C 6801   7.648  10.488   5.989  0.1656 -0.5885  0.3860
  792MOL0     N 6802   7.604  10.526   5.854  0.3154 -0.5005 -0.5823
  792MOL0     C 6803   7.495  10.603   5.828 -0.0673  0.9202 -0.5060
  792MOL0     C 6804   7.481  10.599   5.696  0.3717 -0.9126  0.2221
  792MOL0     C 6805   7.371  10.668   5.618 -0.4077  0.5589  0.0011
  792MOL0     C 6806   7.242  10.596   5.630 -0.1309  0.9046 -0.1380
  792MOL0     C 6807   7.143  10.640   5.530  0.0494 -0.8275  0.2461
  792MOL0     C 6808   7.110  10.788   5.553 -0.2445  0.3418  0.1999
  792MOL0     O 6809   6.983  10.833   5.492 -0.7835 -0.2428 -0.1397
  792MOL0     C 6810   6.867  10.826   5.566  0.7304 -0.0434 -0.3241
  792MOL0     C 6811   6.859  10.837   5.706  0.1278  0.0882 -0.2665
  792MOL0     C 6812   6.730  10.844   5.774 -0.2077  0.5650  1.0024
  792MOL0     C 6813   6.734  10.870   5.922 -0.3816 -0.2540  0.4038
  792MOL0     C 6814   6.612  10.837   5.701 -0.6738 -0.1193 -0.8695
  792MOL0     C 6815   6.473  10.853   5.770 -0.3345 -0.4709 -0.0217
  792MOL0     O 6816   6.361  10.830   5.693 -0.3670  0.8017  0.0617
  792MOL0     C 6817   6.228  10.848   5.731  0.0257  0.3501  0.5336
  792MOL0     C 6818   6.182  10.942   5.823  0.5827  0.5823  0.4410
  792MOL0     C 6819   6.044  10.965   5.844  0.1011 -0.1334 -0.3300
  792MOL0     C 6820   5.947  10.894   5.776 -0.2054  0.5085 -0.0986
  792MOL0     O 6821   5.813  10.911   5.813  0.1781  0.4326 -0.8594
  792MOL0     C 6822   5.718  10.826   5.749  0.1306 -0.5929 -0.1309
  792MOL0     C 6823   5.573  10.879   5.761 -0.8348 -0.8882  0.4969
  792MOL0     C 6824   5.560  11.032   5.756  0.4375 -0.2660 -0.1487
  792MOL0     C 6825   5.606  11.094   5.629  0.1305 -0.0789 -0.1172
  792MOL0     C 6826   5.565  11.239   5.644 -0.0300 -0.2989 -0.4772
  792MOL0     C 6827   5.578  11.316   5.508 -0.0145  0.6336  0.1601
  792MOL0     C 6828   5.726  11.339   5.455 -0.9529 -0.0013  0.0242
  792MOL0     C 6829   5.750  11.493   5.463  0.1888 -0.3229  0.8221
  792MOL0    Cl 6830   5.756  11.547   5.641  0.0842  0.2660  0.0870
  792MOL0     C 6831   5.993  10.792   5.682  0.0294 -0.9232  0.3067
  792MOL0     C 6832   6.129  10.776   5.657 -0.2573  0.2265  0.7226
  792MOL0     O 6833   6.473  10.914   5.878 -0.6229  0.9829 -0.2335
  792MOL0     C 6834   6.620  10.832   5.557 -0.1340 -0.4379  0.7117
  792MOL0     C 6835   6.742  10.818   5.487  0.0420  0.7864 -0.1333
  792MOL0     N 6836   7.591  10.537   5.644  0.0849 -0.8574  0.6823
  792MOL0     N 6837   7.659  10.487   5.737  0.7860  0.3028 -0.1428
  792MOL0     C 6838   8.607  10.805   6.439  0.3066  0.5143  0.3372
  792MOL0     C 6839   8.748  10.833   6.462  1.4027 -0.7046  0.6099
  792MOL0     C 6840   9.180  10.976   6.358  0.1902  0.7438 -0.2464
  792MOL0     C 6841   9.288  10.987   6.278 -0.9043  0.5039 -0.4428
  792MOL0     C 6842   9.402  11.063   6.320  0.5466 -0.1574 -0.8961
  792MOL0     C 6843   9.417  11.112   6.451 -0.5734 -0.2526 -0.1040
  792MOL0     O 6844   9.531  11.161   6.505 -0.4846 -0.8132  0.3036
  792MOL0     C 6845   9.645  11.200   6.416  0.6494 -0.0225  0.3604
  792MOL0     C 6846   9.733  11.278   6.511  0.2667 -0.5261  0.1994
  792MOL0     C 6847   9.799  11.186   6.616 -0.0784 -0.2112 -0.1758
  792MOL0     C 6848   9.836  11.261   6.743 -0.5660 -0.2849 -0.7267
  792MOL0     C 6849   9.969  11.202   6.784 -0.2512  0.0507  0.2671
  792MOL0     C 6850  10.081  11.173   6.818 -0.5544  0.4203 -0.1424
  792MOL0     C 6851   9.321  11.068   6.542  0.4388 -0.1519  0.1174
  792MOL0     C 6852   9.195  11.013   6.498 -0.7552 -0.0057  0.4684
  792MOL0     H 6853   8.822  11.035   6.197  0.1992  0.6351  1.0686
  792MOL0     H 6854   8.568  11.008   6.167  0.6134 -0.1121 -0.1989
  792MOL0     H 6855   8.377  10.867   6.120  1.5613  0.8449  0.2307
  792MOL0     H 6856   8.476  10.726   6.172  0.1751  0.1343  0.0303
  792MOL0     H 6857   8.256  10.636   6.298  0.1705 -2.4091 -2.1410
  792MOL0     H 6858   8.173  10.756   6.201 -1.0188 -0.9529 -1.9980
  792MOL0     H 6859   8.283  10.643   6.001 -2.3026 -0.8076 -0.8136
  792MOL0     H 6860   8.350  10.528   6.118  2.6950  2.6376 -1.5843
  792MOL0     H 6861   8.150  10.440   5.997 -3.3308 -0.4553  0.2963
  792MOL0     H 6862   8.153  10.444   6.172  2.7364  1.7632  1.4703
  792MOL0     H 6863   7.979  10.635   6.155 -0.1858 -1.0581  1.1303
  792MOL0     H 6864   8.041  10.671   5.994 -1.1478  0.1046  0.1536
  792MOL0     H 6865   7.907  10.527   5.891  1.3554 -1.8560  0.4264
  792MOL0     H 6866   7.901  10.408   6.027 -1.4033  0.4255  0.8968
  792MOL0     H 6867   7.755  10.561   6.143  0.1944  0.6741  1.4966
  792MOL0     H 6868   7.754  10.674   6.000 -0.7826 -1.5222 -1.5246
  792MOL0     H 6869   7.568  10.493   6.064  0.0350 -2.1454  0.3786
  792MOL0     H 6870   7.667  10.381   5.988 -3.8154 -1.4628 -0.9220
  792MOL0     H 6871   7.430  10.635   5.909 -2.3852  0.0418 -1.9101
  792MOL0     H 6872   7.361  10.772   5.649 -3.9950  0.0701  0.9787
  792MOL0     H 6873   7.401  10.657   5.514 -1.9395 -0.8195 -0.3443
  792MOL0     H 6874   7.210  10.605   5.735 -1.1665 -1.0006 -0.2487
  792MOL0     H 6875   7.260  10.495   5.594  1.1457  1.1308 -0.1891
  792MOL0     H 6876   7.054  10.577   5.525 -1.5349  1.3969 -1.2866
  792MOL0     H 6877   7.196  10.634   5.435 -1.0497  1.7716 -0.6184
  792MOL0     H 6878   7.191  10.830   5.492 -1.1503 -1.3220 -2.2666
  792MOL0     H 6879   7.127  10.817   5.658  0.9862  2.7876 -0.6032
  792MOL0     H 6880   6.946  10.849   5.769  1.3928 -0.5465 -1.8352
  792MOL0     H 6881   6.718  10.978   5.930  0.5572  0.0705 -1.4766
  792MOL0     H 6882   6.658  10.809   5.972 -1.3949  0.4831 -0.1879
  792MOL0     H 6883   6.834  10.843   5.958 -0.0827 -1.8738 -1.4759
  792MOL0     H 6884   6.259  10.999   5.873  2.1366 -0.1057 -1.0815
  792MOL0     H 6885   6.007  11.037   5.915 -0.5653  1.7316 -2.4334
  792MOL0     H 6886   5.733  10.819   5.641  0.1870  1.3384 -0.2843
  792MOL0     H 6887   5.738  10.728   5.794  0.7042 -0.3987  0.0433
  792MOL0     H 6888   5.518  10.832   5.678  0.6273  0.2995 -1.2315
  792MOL0     H 6889   5.539  10.837   5.856  2.7997 -3.4786  0.8251
  792MOL0     H 6890   5.633  11.072   5.827  1.4416 -1.8341 -0.2424
  792MOL0     H 6891   5.459  11.057   5.788  0.8298  0.4303  0.5807
  792MOL0     H 6892   5.714  11.085   5.621  0.1225 -0.8543  0.6317
  792MOL0     H 6893   5.555  11.046   5.545 -0.1785 -3.3931  1.8030
  792MOL0     H 6894   5.624  11.290   5.721  1.4922 -3.3093  0.4944
  792MOL0     H 6895   5.462  11.241   5.680  0.9730  0.2983  2.7064
  792MOL0     H 6896   5.524  11.259   5.432  0.1632 -0.4528  0.8329
  792MOL0     H 6897   5.524  11.411   5.517 -1.4798 -0.1703  0.1549
  792MOL0     H 6898   5.732  11.297   5.354 -2.6705  0.4122 -0.2833
  792MOL0     H 6899   5.802  11.285   5.513  0.3424  0.5013 -1.1414
  792MOL0     H 6900   5.682  11.551   5.401 -0.0674 -1.4762 -0.0191
  792MOL0     H 6901   5.846  11.511   5.414  1.3285 -0.4532  2.8943
  792MOL0     H 6902   5.926  10.717   5.641 -0.8172  1.4169 -2.9708
  792MOL0     H 6903   6.165  10.705   5.584  3.7169 -1.0611  3.5813
  792MOL0     H 6904   6.528  10.824   5.501  2.1317 -2.0988 -3.1850
  792MOL0     H 6905   6.737  10.805   5.379 -1.0437 -0.7532  0.0764
  792MOL0     H 6906   8.551  10.729   6.494  2.4998 -1.8981 -0.5254
  792MOL0     H 6907   8.813  10.792   6.538 -0.5786 -0.6909  2.3781
  792MOL0     H 6908   9.294  10.941   6.180 -0.3372  0.4726 -0.3978
  792MOL0     H 6909   9.476  11.088   6.244  1.1881  1.9164  0.3210
  792MOL0     H 6910   9.678  11.108   6.368 -1.0364 -0.2316 -0.4810
  792MOL0     H 6911   9.606  11.267   6.338 -1.1941 -0.8183  0.5384
  792MOL0     H 6912   9.661  11.348   6.554  0.3095 -0.3866  0.0437
  792MOL0     H 6913   9.807  11.326   6.446 -0.0180 -0.5882 -0.1758
  792MOL0     H 6914   9.884  11.135   6.571  3.2620  1.9445  3.0955
  792MOL0     H 6915   9.731  11.106   6.648 -0.4861 -0.7960 -2.3381
  792MOL0     H 6916   9.754  11.262   6.815 -2.4300 -1.2443 -2.7401
  792MOL0     H 6917   9.850  11.368   6.720 -2.8132  0.2110 -0.0698
  792MOL0     H 6918  10.174  11.122   6.836 -0.9308 -0.1443  0.2378
  792MOL0     H 6919   9.345  11.093   6.644 -1.2456  1.7778  0.0974
  792MOL0     H 6920   9.113  10.997   6.568 -2.9458  0.3642 -1.8633
  793MOL0     O 6921   0.491   4.824   3.580 -0.3804  0.2104 -0.4426
  793MOL0     C 6922   0.551   4.742   3.646 -0.5138  0.3302 -0.0375
  793MOL0     O 6923   0.497   4.639   3.720  0.5786 -0.0330 -0.2213
  793MOL0     C 6924   0.364   4.630   3.712 -0.4159  0.4603 -0.0351
  793MOL0     C 6925   0.282   4.722   3.782 -0.1599  0.6424  0.4379
  793MOL0     C 6926   0.144   4.699   3.781  0.5654 -0.3539 -0.6753
  793MOL0     C 6927   0.079   4.593   3.701  0.3582  0.7100  0.6684
  793MOL0     O 6928  -0.050   4.559   3.704  0.2259 -0.1276 -0.7874
  793MOL0     C 6929  -0.142   4.666   3.703 -0.5118 -0.6478 -0.7352
  793MOL0     C 6930  -0.287   4.628   3.677 -0.0290 -0.4260 -0.3780
  793MOL0     C 6931  -0.390   4.734   3.697 -0.8430  1.3249 -0.7066
  793MOL0     C 6932  -0.534   4.682   3.688  0.4732  0.1078 -0.1427
  793MOL0     C 6933  -0.650   4.791   3.696 -0.6783 -0.2909 -0.0827
  793MOL0     C 6934  -0.630   4.906   3.598 -0.2622  0.3677 -0.8905
  793MOL0     C 6935  -0.764   4.976   3.567  0.6627 -0.7527 -0.4411
  793MOL0     C 6936  -0.870   4.916   3.462 -0.4968  0.4706  0.8505
  793MOL0     N 6937  -0.984   5.004   3.419 -0.0652  0.3858  0.2462
  793MOL0     C 6938  -1.099   5.017   3.500  0.5475  0.1877  0.7240
  793MOL0     C 6939  -1.188   5.070   3.406 -0.0136  0.2394 -0.8381
  793MOL0     C 6940  -1.325   5.120   3.441  0.0530  0.2330 -0.4602
  793MOL0     C 6941  -1.413   5.157   3.318  0.2733 -0.0111  0.4271
  793MOL0     C 6942  -1.560   5.174   3.353  0.5634 -0.2780 -0.6302
  793MOL0     C 6943  -1.640   5.041   3.358 -0.3128 -0.3096 -0.7477
  793MOL0     O 6944  -1.764   5.080   3.420 -0.1414  1.0253  0.4889
  793MOL0     C 6945  -1.855   4.986   3.435  0.8668  0.0175 -0.0413
  793MOL0     C 6946  -1.831   4.848   3.451 -0.3655 -0.4094  0.1909
  793MOL0     C 6947  -1.939   4.760   3.462  0.3779 -0.4220 -0.0222
  793MOL0     C 6948  -1.899   4.620   3.486 -0.0303  0.1205  0.6286
  793MOL0     C 6949  -2.067   4.806   3.468 -0.8329 -0.1869 -0.2574
  793MOL0     C 6950  -2.186   4.723   3.504 -0.0116  0.2452  0.6996
  793MOL0     O 6951  -2.193   4.638   3.615 -0.0023  0.2615  0.4433
  793MOL0     C 6952  -2.314   4.578   3.649 -0.1313  0.0404 -0.1259
  793MOL0     C 6953  -2.319   4.447   3.627 -0.1879  0.1472  0.5637
  793MOL0     C 6954  -2.440   4.380   3.632  0.2799  0.2743 -0.3416
  793MOL0     C 6955  -2.561   4.455   3.663  1.0628 -0.2451  0.2775
  793MOL0     O 6956  -2.682   4.395   3.656  0.2453 -0.1496 -0.6340
  793MOL0     C 6957  -2.700   4.260   3.611  0.2695 -0.1281  1.2245
  793MOL0     C 6958  -2.854   4.234   3.607 -0.3722  0.0201  0.4357
  793MOL0     C 6959  -2.889   4.092   3.566 -0.0653  0.5956 -0.0975
  793MOL0     C 6960  -2.841   3.983   3.664  0.3842 -0.5432  0.0068
  793MOL0     C 6961  -2.933   3.855   3.656 -1.1796  0.3889 -1.0744
  793MOL0     C 6962  -3.070   3.895   3.722 -1.3593  0.1184  0.3430
  793MOL0     C 6963  -3.158   3.779   3.747  0.3922  0.0920 -0.0605
  793MOL0     C 6964  -3.293   3.825   3.797 -0.5001  0.7914 -0.1143
  793MOL0    Cl 6965  -3.269   3.901   3.966  0.3480 -0.5742 -0.3151
  793MOL0     C 6966  -2.557   4.590   3.693 -0.0031  0.3986 -0.2853
  793MOL0     C 6967  -2.429   4.659   3.677 -0.2888 -0.3613 -0.4991
  793MOL0     O 6968  -2.278   4.739   3.434  0.9023  0.2298  1.2565
  793MOL0     C 6969  -2.094   4.940   3.453 -1.3354 -0.2196  0.0477
  793MOL0     C 6970  -1.990   5.029   3.430  0.7527 -0.5730 -0.3438
  793MOL0     N 6971  -1.134   5.090   3.280  0.0017 -0.3814 -0.0494
  793MOL0     N 6972  -1.011   5.052   3.288 -0.7306 -0.1478 -0.5456
  793MOL0     C 6973   0.164   4.510   3.632 -0.1317  0.2152  0.4277
  793MOL0     C 6974   0.305   4.525   3.639 -0.1297 -0.2048 -0.5923
  793MOL0     C 6975   0.696   4.753   3.647  0.2118  1.3578 -1.1591
  793MOL0     C 6976   0.770   4.677   3.739  0.3600  0.1871  0.7399
  793MOL0     C 6977   0.906   4.689   3.743 -0.0517  0.8313  0.7311
  793MOL0     C 6978   0.974   4.771   3.652 -0.6763 -0.7293 -0.4644
  793MOL0     O 6979   1.116   4.781   3.658 -0.0715  0.0664  0.1735
  793MOL0     C 6980   1.173   4.646   3.648 -0.3197 -0.5517  0.3435
  793MOL0     C 6981   1.316   4.645   3.600  0.2285 -0.1347 -0.8193
  793MOL0     C 6982   1.404   4.739   3.686 -0.0832 -0.0857 -0.3780
  793MOL0     C 6983   1.548   4.743   3.627  0.8458 -0.2721  0.0195
  793MOL0     C 6984   1.551   4.828   3.510  0.2971  0.6977 -0.4594
  793MOL0     C 6985   1.559   4.903   3.419  0.0371 -0.8040 -0.9055
  793MOL0     C 6986   0.900   4.843   3.554 -0.5909  0.5829 -0.2570
  793MOL0     C 6987   0.760   4.828   3.549  0.1481  0.0792 -0.7080
  793MOL0     H 6988   0.327   4.796   3.848  1.0626 -0.3810  0.7936
  793MOL0     H 6989   0.073   4.769   3.823 -0.7660 -3.7008  3.4728
  793MOL0     H 6990  -0.135   4.709   3.803 -2.2306  0.2001 -0.9388
  793MOL0     H 6991  -0.113   4.739   3.627 -0.2371 -0.1170 -0.1326
  793MOL0     H 6992  -0.295   4.595   3.573 -0.8603 -1.9479  0.1445
  793MOL0     H 6993  -0.313   4.542   3.739 -2.0131 -0.4566 -1.1849
  793MOL0     H 6994  -0.372   4.785   3.792  1.1381 -1.1724  0.3683
  793MOL0     H 6995  -0.371   4.808   3.619 -1.1736  0.4222 -1.6616
  793MOL0     H 6996  -0.543   4.627   3.594  0.4478 -0.9674  0.4723
  793MOL0     H 6997  -0.549   4.611   3.770 -1.0802  0.0350 -0.4676
  793MOL0     H 6998  -0.746   4.748   3.666 -0.0517 -1.0719 -1.0665
  793MOL0     H 6999  -0.657   4.834   3.796 -0.8134 -0.4823 -0.0115
  793MOL0     H 7000  -0.559   4.977   3.641 -2.5592  3.0042 -1.1332
  793MOL0     H 7001  -0.584   4.865   3.508  1.5732 -2.1185  1.0439
  793MOL0     H 7002  -0.822   4.997   3.657 -1.5024 -2.8365 -1.2396
  793MOL0     H 7003  -0.728   5.073   3.532 -0.8087  1.2009  2.9266
  793MOL0     H 7004  -0.913   4.819   3.491  0.8040 -0.5952 -0.6313
  793MOL0     H 7005  -0.825   4.910   3.363 -0.6374  0.0682  0.8086
  793MOL0     H 7006  -1.114   4.990   3.604  4.1380 -1.4270  0.9995
  793MOL0     H 7007  -1.372   5.046   3.507  1.8601 -0.1537  0.4475
  793MOL0     H 7008  -1.315   5.213   3.496 -2.5899  0.2707  0.0852
  793MOL0     H 7009  -1.395   5.071   3.252  1.7711 -0.5646  1.4924
  793MOL0     H 7010  -1.372   5.242   3.262 -0.8071  1.5319  1.9116
  793MOL0     H 7011  -1.605   5.236   3.275 -0.4017  0.9367  0.8083
  793MOL0     H 7012  -1.573   5.226   3.449 -1.0114  1.3261 -1.6404
  793MOL0     H 7013  -1.572   4.979   3.418  0.1481  2.4181  1.7425
  793MOL0     H 7014  -1.653   4.992   3.261  1.1168  0.4545 -1.3551
  793MOL0     H 7015  -1.727   4.819   3.449 -0.2736 -0.0818  0.1845
  793MOL0     H 7016  -1.943   4.574   3.575  2.2085 -1.8395  0.8296
  793MOL0     H 7017  -1.941   4.565   3.401 -1.3868  2.0945 -0.0288
  793MOL0     H 7018  -1.791   4.604   3.484  0.3381  2.2247 -2.4986
  793MOL0     H 7019  -2.234   4.391   3.590  1.5278  3.2215 -0.4955
  793MOL0     H 7020  -2.440   4.275   3.605 -1.5628  0.1869 -0.0942
  793MOL0     H 7021  -2.665   4.241   3.510  0.3804 -2.6317  1.6809
  793MOL0     H 7022  -2.648   4.184   3.670  0.5570 -1.3945 -0.5951
  793MOL0     H 7023  -2.896   4.254   3.707  0.3372 -1.5123  1.0651
  793MOL0     H 7024  -2.913   4.305   3.548 -1.5750 -3.1713 -2.5333
  793MOL0     H 7025  -2.826   4.068   3.480 -0.1162  1.6652 -0.4476
  793MOL0     H 7026  -2.993   4.085   3.536  0.4081  0.2564 -1.7283
  793MOL0     H 7027  -2.734   3.961   3.652  0.9870  1.2575  1.4615
  793MOL0     H 7028  -2.844   4.018   3.767  2.4823 -2.7198  0.9024
  793MOL0     H 7029  -2.882   3.784   3.721 -1.7921  1.2793  0.4434
  793MOL0     H 7030  -2.937   3.822   3.551  0.6545 -2.3984 -0.3759
  793MOL0     H 7031  -3.046   3.953   3.812  1.1634  1.5922 -1.1576
  793MOL0     H 7032  -3.128   3.967   3.664 -0.4720  0.5925  0.0157
  793MOL0     H 7033  -3.112   3.716   3.823  1.0077 -0.6916 -1.0498
  793MOL0     H 7034  -3.164   3.711   3.661  4.9160 -1.3833  0.5060
  793MOL0     H 7035  -3.362   3.740   3.800  1.2954 -0.7133  2.9993
  793MOL0     H 7036  -3.345   3.887   3.724 -1.6856 -0.2604 -0.2016
  793MOL0     H 7037  -2.644   4.643   3.729  0.5119  1.2551 -0.2602
  793MOL0     H 7038  -2.425   4.767   3.685  0.5981 -0.4725  1.1478
  793MOL0     H 7039  -2.193   4.983   3.466 -1.4554 -0.6098  0.4617
  793MOL0     H 7040  -2.006   5.134   3.405  3.5141 -0.0559 -0.2711
  793MOL0     H 7041   0.125   4.435   3.564  0.1238  1.0075 -0.6215
  793MOL0     H 7042   0.372   4.449   3.598 -2.7953 -2.6167 -0.8130
  793MOL0     H 7043   0.704   4.627   3.809 -1.4510  0.8868 -0.4117
  793MOL0     H 7044   0.958   4.629   3.817 -0.2738 -0.5240 -0.1931
  793MOL0     H 7045   1.167   4.599   3.746 -0.3232  0.8863  1.0549
  793MOL0     H 7046   1.114   4.578   3.586 -3.9132 -1.0535  3.8981
  793MOL0     H 7047   1.305   4.680   3.497 -0.9432 -0.8436 -0.9544
  793MOL0     H 7048   1.352   4.541   3.599  1.0686  0.1318  0.1951
  793MOL0     H 7049   1.404   4.699   3.788  1.0581 -1.3543 -0.8277
  793MOL0     H 7050   1.367   4.841   3.694 -0.5357 -0.3669  1.6993
  793MOL0     H 7051   1.580   4.644   3.594 -1.2059 -1.1955  0.6154
  793MOL0     H 7052   1.608   4.791   3.705 -0.0794  0.8533  0.0754
  793MOL0     H 7053   1.569   4.967   3.334  1.2130 -1.2206 -1.1039
  793MOL0     H 7054   0.953   4.905   3.482 -0.1540 -0.5497 -0.9491
  793MOL0     H 7055   0.721   4.877   3.461  2.6173  0.3941 -1.7218
  794MOL0     O 7056   6.583   7.572   6.187  0.2047  0.3627 -0.1882
  794MOL0     C 7057   6.606   7.450   6.163 -0.6993 -0.0871  0.8204
  794MOL0     O 7058   6.541   7.377   6.063 -0.0093 -0.3114 -0.4826
  794MOL0     C 7059   6.439   7.439   5.998  0.4861  0.2675  0.6774
  794MOL0     C 7060   6.314   7.454   6.060 -0.3691 -0.1989  0.0229
  794MOL0     C 7061   6.219   7.529   5.991  0.1157  0.4210  0.0431
  794MOL0     C 7062   6.243   7.576   5.856  0.0612  0.6161 -0.0753
  794MOL0     O 7063   6.165   7.658   5.771  0.2918  0.1858 -0.4299
  794MOL0     C 7064   6.024   7.674   5.802 -0.4496 -1.3194  0.8152
  794MOL0     C 7065   5.957   7.775   5.701 -0.5813  0.6809  0.2034
  794MOL0     C 7066   5.816   7.793   5.748  0.8242  0.1583  0.3389
  794MOL0     C 7067   5.738   7.864   5.640  1.2661 -1.0412 -0.5742
  794MOL0     C 7068   5.589   7.865   5.669  0.6409  0.1028 -0.0328
  794MOL0     C 7069   5.523   7.950   5.560  0.6527 -1.0206 -0.2233
  794MOL0     C 7070   5.376   7.982   5.601 -0.0908 -0.0943  0.0959
  794MOL0     C 7071   5.314   8.083   5.513  1.1955 -0.2255  0.6767
  794MOL0     N 7072   5.173   8.112   5.549  0.2189  0.1844  0.3238
  794MOL0     C 7073   5.118   8.227   5.566  0.0461 -0.2271  0.1980
  794MOL0     C 7074   4.990   8.223   5.555  0.0045  0.1282  0.0440
  794MOL0     C 7075   4.892   8.330   5.572  0.1769  0.7397  0.1460
  794MOL0     C 7076   4.772   8.300   5.658 -0.4018 -0.0679  0.1861
  794MOL0     C 7077   4.692   8.426   5.697 -0.4756  0.2164 -0.0601
  794MOL0     C 7078   4.578   8.396   5.791 -0.0082 -0.0390  0.1489
  794MOL0     O 7079   4.618   8.374   5.924  0.3602  0.6910 -0.6259
  794MOL0     C 7080   4.522   8.373   6.020 -0.6465  0.2065  0.1181
  794MOL0     C 7081   4.391   8.353   5.998  0.0710  0.2818  0.1566
  794MOL0     C 7082   4.295   8.343   6.103  0.0340 -0.6028 -0.3541
  794MOL0     C 7083   4.155   8.326   6.056  0.2416 -0.5171  0.8521
  794MOL0     C 7084   4.345   8.387   6.229  0.4032  0.0449 -0.3655
  794MOL0     C 7085   4.256   8.405   6.341 -0.7102 -0.0012 -0.7027
  794MOL0     O 7086   4.131   8.369   6.333 -0.0523 -0.7899  0.1693
  794MOL0     C 7087   4.055   8.372   6.448 -1.4351 -0.4387  0.2213
  794MOL0     C 7088   3.984   8.495   6.466 -0.3448 -0.3950  0.5111
  794MOL0     C 7089   3.880   8.502   6.570 -0.8462 -0.1579  0.4352
  794MOL0     C 7090   3.863   8.396   6.656 -0.9099  0.2508  1.0011
  794MOL0     O 7091   3.784   8.413   6.761  1.0956 -0.3901 -0.4858
  794MOL0     C 7092   3.820   8.353   6.884 -0.3844  0.2111 -0.0639
  794MOL0     C 7093   3.733   8.425   6.986 -0.4592  0.1139 -0.0243
  794MOL0     C 7094   3.585   8.399   6.969  0.0838  1.0256 -0.4285
  794MOL0     C 7095   3.510   8.529   6.934 -0.6565  0.4639  0.0564
  794MOL0     C 7096   3.359   8.498   6.932 -0.4166 -0.2392 -0.3658
  794MOL0     C 7097   3.276   8.624   6.958 -0.1137  0.3244  0.2966
  794MOL0     C 7098   3.305   8.744   6.866  0.5030 -0.1303 -0.2917
  794MOL0     C 7099   3.195   8.853   6.868 -0.4915 -0.2025  0.0179
  794MOL0    Cl 7100   3.056   8.784   6.792  0.3653 -0.1203 -0.0584
  794MOL0     C 7101   3.932   8.274   6.628  0.4423  0.6803  0.8366
  794MOL0     C 7102   4.027   8.267   6.527 -0.5188 -0.2038 -0.2173
  794MOL0     O 7103   4.309   8.457   6.439 -0.1336 -0.1278  0.0972
  794MOL0     C 7104   4.486   8.396   6.252 -0.2653  0.3715 -0.5387
  794MOL0     C 7105   4.571   8.389   6.153  0.5974 -0.9532  0.5618
  794MOL0     N 7106   4.963   8.089   5.534 -1.2159  0.8278 -0.0334
  794MOL0     N 7107   5.077   8.020   5.527  0.2630  0.7112  0.4025
  794MOL0     C 7108   6.369   7.556   5.801 -0.0857  0.3510  0.1614
  794MOL0     C 7109   6.470   7.497   5.871 -0.6596  0.2179  0.1064
  794MOL0     C 7110   6.724   7.391   6.221  0.1595 -0.2395  0.7807
  794MOL0     C 7111   6.763   7.263   6.177  0.0976 -0.1200  0.1784
  794MOL0     C 7112   6.883   7.204   6.221 -0.6099 -0.3273  0.1454
  794MOL0     C 7113   6.966   7.279   6.304 -0.5921 -0.3688  0.4724
  794MOL0     O 7114   7.088   7.234   6.354  0.3739  0.1500 -0.0039
  794MOL0     C 7115   7.151   7.107   6.308  0.5011  0.3058 -0.5363
  794MOL0     C 7116   7.274   7.069   6.380  0.6748 -0.1712  0.4270
  794MOL0     C 7117   7.331   6.944   6.315  0.0516  0.0968  1.5035
  794MOL0     C 7118   7.433   6.863   6.402 -0.0788  0.0408  0.0629
  794MOL0     C 7119   7.456   6.735   6.339  0.7174  0.0213 -0.4906
  794MOL0     C 7120   7.486   6.635   6.278  0.6175  0.1726 -0.2282
  794MOL0     C 7121   6.933   7.401   6.347  0.1423 -0.3146 -0.0150
  794MOL0     C 7122   6.812   7.469   6.300 -0.1865  0.6961 -0.4674
  794MOL0     H 7123   6.297   7.410   6.158  1.2037  1.9433  1.3487
  794MOL0     H 7124   6.125   7.548   6.041  0.8814 -0.4647  1.9431
  794MOL0     H 7125   5.982   7.572   5.799  1.0911 -1.9884 -2.0655
  794MOL0     H 7126   6.013   7.713   5.903  0.6098 -0.6913  0.7033
  794MOL0     H 7127   6.022   7.863   5.699  0.2511  0.0884  0.2547
  794MOL0     H 7128   5.966   7.722   5.606  1.5654 -0.7331  1.1121
  794MOL0     H 7129   5.772   7.697   5.778  0.3329 -0.4791 -2.1502
  794MOL0     H 7130   5.812   7.842   5.845  1.8008 -2.6376  1.9249
  794MOL0     H 7131   5.769   7.968   5.624  1.0465 -0.2080  3.4521
  794MOL0     H 7132   5.753   7.813   5.544  2.2459 -0.2512 -0.8607
  794MOL0     H 7133   5.547   7.764   5.661 -2.4238  1.2651  0.0829
  794MOL0     H 7134   5.566   7.904   5.768  0.3377 -0.9036  0.3010
  794MOL0     H 7135   5.574   8.046   5.546 -1.1251 -0.1812 -1.3833
  794MOL0     H 7136   5.519   7.895   5.466  3.0714 -0.2395 -0.8570
  794MOL0     H 7137   5.314   7.891   5.604  0.0836 -0.2147  0.0461
  794MOL0     H 7138   5.376   8.013   5.706 -2.1688  1.3908 -0.2752
  794MOL0     H 7139   5.321   8.042   5.412 -1.1058  0.2842  0.2597
  794MOL0     H 7140   5.376   8.172   5.524  1.7118 -0.4377 -0.3789
  794MOL0     H 7141   5.171   8.321   5.583  1.7102 -1.3184  1.2464
  794MOL0     H 7142   4.942   8.419   5.612  2.3827  0.3481 -1.5074
  794MOL0     H 7143   4.864   8.352   5.469  1.7711  1.1669 -0.2342
  794MOL0     H 7144   4.819   8.249   5.743  1.5685  1.0934 -0.1258
  794MOL0     H 7145   4.711   8.224   5.609  0.9260  0.1593 -1.9611
  794MOL0     H 7146   4.664   8.481   5.606 -1.9613  1.6936  1.2223
  794MOL0     H 7147   4.767   8.492   5.741 -0.7873  1.5443 -1.3973
  794MOL0     H 7148   4.524   8.307   5.757 -0.0208 -0.0352  0.1575
  794MOL0     H 7149   4.505   8.478   5.787 -0.5039 -0.3869  1.5325
  794MOL0     H 7150   4.352   8.329   5.899  2.9238 -3.2711 -0.3101
  794MOL0     H 7151   4.093   8.248   6.103 -1.6126 -0.2066 -0.9091
  794MOL0     H 7152   4.110   8.425   6.054  1.6186  0.3380 -4.7967
  794MOL0     H 7153   4.147   8.291   5.952  2.0574  2.0788 -0.2502
  794MOL0     H 7154   3.996   8.573   6.393  1.8082 -1.5683 -0.4795
  794MOL0     H 7155   3.823   8.595   6.576 -0.5793  0.0399 -0.0322
  794MOL0     H 7156   3.798   8.246   6.879 -0.3720  0.2652 -1.9532
  794MOL0     H 7157   3.928   8.366   6.899  0.2514 -1.2885 -2.8014
  794MOL0     H 7158   3.758   8.400   7.090 -2.5875 -0.8284  0.3131
  794MOL0     H 7159   3.752   8.532   6.978  0.8322 -0.0662  0.2817
  794MOL0     H 7160   3.550   8.363   7.066  1.1287  2.5795  0.5671
  794MOL0     H 7161   3.569   8.322   6.894  1.6562 -0.5593  0.7868
  794MOL0     H 7162   3.533   8.607   7.007 -0.6920  2.4208 -1.9185
  794MOL0     H 7163   3.530   8.565   6.833 -2.8492  0.7947 -0.3187
  794MOL0     H 7164   3.325   8.426   7.008  2.3126  0.4241  1.6513
  794MOL0     H 7165   3.332   8.452   6.837 -0.4660  0.3697 -0.6497
  794MOL0     H 7166   3.170   8.597   6.956 -0.1269  0.3815  0.2349
  794MOL0     H 7167   3.302   8.655   7.060  1.2895 -1.0216  0.3722
  794MOL0     H 7168   3.328   8.716   6.763 -1.1833 -0.4485 -0.6198
  794MOL0     H 7169   3.393   8.793   6.908  1.5003 -1.6354 -0.5579
  794MOL0     H 7170   3.219   8.941   6.806  1.7844 -1.9048 -1.7082
  794MOL0     H 7171   3.179   8.898   6.966  1.1791 -0.3537  0.4042
  794MOL0     H 7172   3.913   8.181   6.680  4.1648  0.5801  2.3333
  794MOL0     H 7173   4.084   8.178   6.505 -0.8196 -0.7632  1.2011
  794MOL0     H 7174   4.536   8.421   6.345 -2.9043  0.2379  1.0173
  794MOL0     H 7175   4.674   8.409   6.177  0.1748  1.3988  0.6190
  794MOL0     H 7176   6.385   7.607   5.707  0.1807  0.9841  0.5486
  794MOL0     H 7177   6.566   7.485   5.821 -1.1062  1.4420 -1.1100
  794MOL0     H 7178   6.716   7.215   6.092  0.6624 -1.4660  0.5901
  794MOL0     H 7179   6.918   7.117   6.167  0.1069  0.8930 -1.4271
  794MOL0     H 7180   7.081   7.023   6.306 -0.4615  1.0774 -0.5112
  794MOL0     H 7181   7.187   7.112   6.205  1.5439 -1.7416 -0.3228
  794MOL0     H 7182   7.257   7.053   6.487  1.1239  0.6295  0.6316
  794MOL0     H 7183   7.350   7.148   6.389  0.3089  0.1570  0.6925
  794MOL0     H 7184   7.382   6.979   6.225  0.4443 -1.8603  0.9321
  794MOL0     H 7185   7.253   6.873   6.287  0.3625  0.8833 -1.7030
  794MOL0     H 7186   7.389   6.845   6.501 -0.2663  2.3580  0.4483
  794MOL0     H 7187   7.526   6.919   6.404  1.0300 -1.6732  2.6214
  794MOL0     H 7188   7.521   6.547   6.228  2.2210  1.0232 -0.6761
  794MOL0     H 7189   6.999   7.456   6.414  2.4640 -3.1783  0.2358
  794MOL0     H 7190   6.782   7.568   6.333  4.1192  2.0647  0.0631
  795MOL0     O 7191   8.432   5.481   5.132  0.0482 -0.2172  0.0660
  795MOL0     C 7192   8.500   5.403   5.206  0.0961  0.5038  0.1045
  795MOL0     O 7193   8.447   5.329   5.308  0.1586 -0.2227  0.2872
  795MOL0     C 7194   8.310   5.346   5.329 -0.5195  0.3761 -0.4528
  795MOL0     C 7195   8.219   5.279   5.242  0.5483 -0.0538 -0.2835
  795MOL0     C 7196   8.082   5.288   5.262  0.4167  0.4337  0.1296
  795MOL0     C 7197   8.034   5.349   5.379  0.4466 -1.4735  0.9202
  795MOL0     O 7198   7.901   5.364   5.394  0.7609 -0.3955  0.0834
  795MOL0     C 7199   7.814   5.265   5.343  0.9084 -0.0502  0.1201
  795MOL0     C 7200   7.666   5.287   5.377  0.4024  0.3644  0.2121
  795MOL0     C 7201   7.627   5.229   5.510 -0.2466  0.7537  0.1317
  795MOL0     C 7202   7.474   5.239   5.515 -0.2672  0.5223 -0.3302
  795MOL0     C 7203   7.428   5.187   5.649  0.2961 -0.3462 -0.2288
  795MOL0     C 7204   7.296   5.252   5.705 -0.7522 -0.7928 -0.4429
  795MOL0     C 7205   7.158   5.192   5.643 -0.3351 -0.3529  1.0360
  795MOL0     C 7206   7.038   5.236   5.731 -0.9770 -0.1550 -0.4354
  795MOL0     N 7207   6.907   5.191   5.676  0.2886 -0.3268 -0.5130
  795MOL0     C 7208   6.847   5.245   5.563 -0.3219  0.5939  0.1482
  795MOL0     C 7209   6.729   5.177   5.565 -0.0619  0.5846  0.0075
  795MOL0     C 7210   6.612   5.210   5.468 -0.4369  0.1092 -0.0911
  795MOL0     C 7211   6.516   5.324   5.525 -0.3291  0.7625 -0.2617
  795MOL0     C 7212   6.436   5.257   5.642  0.3048 -0.7410 -0.0588
  795MOL0     C 7213   6.326   5.350   5.695 -0.5476 -0.2356  0.1215
  795MOL0     O 7214   6.259   5.293   5.806 -0.7281 -0.6071 -0.2128
  795MOL0     C 7215   6.159   5.198   5.778 -0.1389 -0.0718  0.5803
  795MOL0     C 7216   6.103   5.134   5.886 -0.5148  0.3705  0.0613
  795MOL0     C 7217   6.009   5.032   5.866 -0.8588  0.3395 -0.5439
  795MOL0     C 7218   5.940   4.975   5.982 -0.2677 -0.2251  0.4587
  795MOL0     C 7219   5.971   4.989   5.733  0.1864  0.1531 -0.3336
  795MOL0     C 7220   5.861   4.886   5.705  0.7190 -0.9619  0.5729
  795MOL0     O 7221   5.818   4.901   5.576  0.4326 -0.0332 -0.0742
  795MOL0     C 7222   5.704   4.831   5.552 -0.3491 -0.7812 -0.3290
  795MOL0     C 7223   5.582   4.878   5.591 -0.1426  0.0929 -1.0062
  795MOL0     C 7224   5.465   4.806   5.560 -1.0279  0.7730  0.0735
  795MOL0     C 7225   5.475   4.683   5.483 -0.3946 -0.2337 -0.3910
  795MOL0     O 7226   5.363   4.602   5.470 -0.3164 -0.1429  0.5837
  795MOL0     C 7227   5.364   4.499   5.367  0.0146  0.6587 -0.1207
  795MOL0     C 7228   5.215   4.457   5.362  0.0729  0.9228 -0.6027
  795MOL0     C 7229   5.182   4.385   5.236  0.1378 -0.0163 -0.0070
  795MOL0     C 7230   5.032   4.334   5.235  0.0977 -0.2998 -0.7426
  795MOL0     C 7231   5.018   4.244   5.114  0.0161 -0.1619 -0.4629
  795MOL0     C 7232   4.878   4.197   5.087 -0.2327 -0.3564 -0.8953
  795MOL0     C 7233   4.886   4.064   5.011  0.9557 -0.6705  0.2057
  795MOL0     C 7234   4.742   4.039   4.968 -0.5714  0.4842 -0.5119
  795MOL0    Cl 7235   4.726   3.896   4.848 -0.2088  0.1453  0.0070
  795MOL0     C 7236   5.604   4.640   5.455  0.3230 -0.7547  0.4401
  795MOL0     C 7237   5.717   4.710   5.481 -0.5437 -0.5818 -0.3462
  795MOL0     O 7238   5.831   4.792   5.774 -0.4262  0.0819  0.6816
  795MOL0     C 7239   6.022   5.062   5.626  0.1424 -0.5311  0.0562
  795MOL0     C 7240   6.118   5.163   5.646 -1.1200  0.1895 -0.1428
  795MOL0     N 7241   6.722   5.085   5.666 -0.0623  0.1782 -0.4309
  795MOL0     N 7242   6.835   5.091   5.727 -0.0911 -0.4848 -0.0292
  795MOL0     C 7243   8.123   5.409   5.467 -0.0795 -1.0192  0.4075
  795MOL0     C 7244   8.263   5.405   5.450 -0.8351  0.0165  0.2721
  795MOL0     C 7245   8.650   5.391   5.179  1.0001 -0.7711  0.1360
  795MOL0     C 7246   8.727   5.486   5.106  1.1061  0.3171 -0.5013
  795MOL0     C 7247   8.866   5.471   5.096  0.4273  0.3179  0.5826
  795MOL0     C 7248   8.927   5.365   5.163  0.6278 -0.4667 -0.1988
  795MOL0     O 7249   9.049   5.322   5.129  0.1223  0.3759  0.4443
  795MOL0     C 7250   9.145   5.418   5.181  0.3993  1.0151  0.6880
  795MOL0     C 7251   9.286   5.344   5.203  0.1599 -0.1496 -0.2951
  795MOL0     C 7252   9.271   5.241   5.314  0.1298  0.1075 -0.7112
  795MOL0     C 7253   9.409   5.176   5.349 -0.4124 -0.1642 -0.3269
  795MOL0     C 7254   9.390   5.105   5.469  0.5914 -0.3586 -0.4934
  795MOL0     C 7255   9.346   5.041   5.567 -1.2390 -0.4069 -0.4532
  795MOL0     C 7256   8.852   5.274   5.242 -0.6107  0.1833  0.6244
  795MOL0     C 7257   8.717   5.290   5.249 -0.1494 -0.1668 -0.2497
  795MOL0     H 7258   8.248   5.228   5.150 -0.7007 -0.1203 -0.6603
  795MOL0     H 7259   8.015   5.227   5.201  0.7756  1.7172 -1.6129
  795MOL0     H 7260   7.817   5.264   5.233  1.5659 -1.6812  0.1272
  795MOL0     H 7261   7.846   5.166   5.376 -2.2492 -0.2218  3.1283
  795MOL0     H 7262   7.636   5.391   5.361 -3.6511 -0.8270 -0.9328
  795MOL0     H 7263   7.607   5.237   5.301 -0.7244  1.2990  0.4456
  795MOL0     H 7264   7.662   5.127   5.531 -0.6828  0.3225 -1.1409
  795MOL0     H 7265   7.671   5.292   5.587 -0.9163  2.4286 -0.8054
  795MOL0     H 7266   7.445   5.342   5.493 -0.8764  0.5912  0.7530
  795MOL0     H 7267   7.421   5.177   5.442  1.8938 -1.3307 -0.4489
  795MOL0     H 7268   7.419   5.078   5.648 -1.7220 -0.2252  0.8650
  795MOL0     H 7269   7.507   5.215   5.720  2.2768  0.0868 -2.4846
  795MOL0     H 7270   7.304   5.227   5.811  3.1634 -2.0012 -0.8867
  795MOL0     H 7271   7.297   5.360   5.692 -1.7381 -0.6422  0.5291
  795MOL0     H 7272   7.145   5.233   5.542  1.1496 -2.8862 -0.2880
  795MOL0     H 7273   7.157   5.083   5.641 -1.0169 -0.3678  1.7497
  795MOL0     H 7274   7.033   5.345   5.733 -1.5488 -0.1813 -0.4806
  795MOL0     H 7275   7.041   5.195   5.833 -1.8922  0.6629 -0.0732
  795MOL0     H 7276   6.892   5.326   5.506 -0.5304  0.9095  0.4236
  795MOL0     H 7277   6.647   5.253   5.373  0.6218  1.0747  0.7172
  795MOL0     H 7278   6.556   5.121   5.435  1.1780  0.0297 -2.9134
  795MOL0     H 7279   6.457   5.367   5.444 -0.7534  0.1479 -0.2919
  795MOL0     H 7280   6.583   5.401   5.561 -0.4652  0.8914 -0.2829
  795MOL0     H 7281   6.501   5.238   5.728  2.0486 -0.3569 -1.2431
  795MOL0     H 7282   6.392   5.161   5.612  1.4768 -0.7576 -1.9317
  795MOL0     H 7283   6.257   5.380   5.616  0.4893  2.0685 -0.0035
  795MOL0     H 7284   6.368   5.442   5.738 -0.2177 -0.6156  0.6132
  795MOL0     H 7285   6.145   5.157   5.983  1.1149 -3.5231  0.4418
  795MOL0     H 7286   5.834   4.987   5.959  0.3756  2.3410 -1.5999
  795MOL0     H 7287   5.973   4.870   5.984  1.4082 -0.0588 -4.6723
  795MOL0     H 7288   5.963   5.026   6.076  1.3492 -1.2740  0.6854
  795MOL0     H 7289   5.574   4.968   5.651 -1.9264  0.0063 -1.0663
  795MOL0     H 7290   5.367   4.834   5.600 -0.6233  0.4058  1.3741
  795MOL0     H 7291   5.398   4.540   5.271  0.5565 -0.4347 -0.4206
  795MOL0     H 7292   5.430   4.416   5.396 -1.0288 -0.1409  0.0406
  795MOL0     H 7293   5.193   4.393   5.448  1.5048 -0.3629 -1.1536
  795MOL0     H 7294   5.152   4.546   5.367 -0.9734  0.1269  1.8138
  795MOL0     H 7295   5.237   4.290   5.232  3.0474  1.5866 -3.5420
  795MOL0     H 7296   5.195   4.445   5.146 -1.4696 -0.7329 -0.7647
  795MOL0     H 7297   5.001   4.281   5.325  2.1349  0.7303  0.6381
  795MOL0     H 7298   4.963   4.419   5.223 -2.3446 -1.9480  0.7608
  795MOL0     H 7299   5.071   4.150   5.132  0.5242  0.2261  0.1032
  795MOL0     H 7300   5.063   4.288   5.024  1.1131 -1.4705 -0.5833
  795MOL0     H 7301   4.827   4.177   5.182 -2.3695 -1.4727 -2.1848
  795MOL0     H 7302   4.822   4.278   5.040 -3.4515 -1.7746  0.1678
  795MOL0     H 7303   4.928   3.979   5.066  0.7959 -1.2482 -0.5386
  795MOL0     H 7304   4.947   4.083   4.922 -0.2639  0.2222 -0.4658
  795MOL0     H 7305   4.702   4.130   4.922  2.0912  3.1182  1.9922
  795MOL0     H 7306   4.681   4.029   5.058 -1.6681 -2.0741 -1.4400
  795MOL0     H 7307   5.610   4.545   5.403  2.1740 -0.5601  0.2404
  795MOL0     H 7308   5.810   4.674   5.440 -0.2677 -0.2828  0.0090
  795MOL0     H 7309   5.989   5.058   5.522  3.1772 -0.5853 -0.9974
  795MOL0     H 7310   6.136   5.220   5.555 -2.2746 -2.4015 -2.1489
  795MOL0     H 7311   8.088   5.460   5.556 -1.5604 -1.4887  0.1157
  795MOL0     H 7312   8.330   5.429   5.531 -1.8561  0.4979  0.9855
  795MOL0     H 7313   8.672   5.575   5.077 -1.0498 -0.7461  0.0686
  795MOL0     H 7314   8.927   5.551   5.055 -0.7793  0.5800 -0.7557
  795MOL0     H 7315   9.171   5.489   5.102 -3.0495  1.3242 -0.3258
  795MOL0     H 7316   9.116   5.473   5.271  0.7647  1.8062  0.3293
  795MOL0     H 7317   9.344   5.429   5.239  0.6026  0.7021 -2.8465
  795MOL0     H 7318   9.333   5.304   5.113 -1.4815 -1.7275 -0.5126
  795MOL0     H 7319   9.194   5.169   5.285 -0.2850  0.8501 -1.4825
  795MOL0     H 7320   9.236   5.289   5.406  1.1212 -2.8986  1.4028
  795MOL0     H 7321   9.481   5.255   5.369  1.0925 -1.7680  0.9515
  795MOL0     H 7322   9.446   5.113   5.267  1.7320 -1.0574  1.2378
  795MOL0     H 7323   9.316   4.990   5.656 -0.7960  1.3422  0.7417
  795MOL0     H 7324   8.914   5.191   5.273  1.4569  1.5210  0.2624
  795MOL0     H 7325   8.662   5.209   5.297  3.5984 -1.4879  2.2295
  796MOL0     O 7326   6.080   2.995   7.817 -0.1314 -1.2029 -0.1600
  796MOL0     C 7327   6.157   2.997   7.721 -0.2734  0.6991 -0.3943
  796MOL0     O 7328   6.127   2.995   7.590 -0.0866  0.4444  0.0048
  796MOL0     C 7329   5.996   3.012   7.540 -0.4847 -0.2428 -0.4569
  796MOL0     C 7330   5.880   2.949   7.595  0.6961  0.0628 -0.3021
  796MOL0     C 7331   5.754   2.962   7.542 -0.2355  0.2828  0.1169
  796MOL0     C 7332   5.734   3.038   7.429  0.2208  0.4305  0.0128
  796MOL0     O 7333   5.618   3.059   7.360 -0.4221 -1.0584 -0.4176
  796MOL0     C 7334   5.492   3.028   7.427 -0.1969 -0.0698 -0.1413
  796MOL0     C 7335   5.384   3.084   7.337 -0.1802 -0.7140 -0.3593
  796MOL0     C 7336   5.243   3.085   7.411  0.8494 -0.0610 -0.3067
  796MOL0     C 7337   5.128   3.137   7.321  0.3602  0.1029 -0.3824
  796MOL0     C 7338   5.000   3.135   7.412 -0.2978 -0.5526 -0.1359
  796MOL0     C 7339   4.867   3.181   7.349  0.4407  0.5843 -0.1775
  796MOL0     C 7340   4.867   3.311   7.276  0.5491 -0.0271 -0.4643
  796MOL0     C 7341   4.724   3.349   7.245 -0.8346 -0.1655  0.6665
  796MOL0     N 7342   4.707   3.463   7.150  0.5831 -0.0787 -0.8874
  796MOL0     C 7343   4.793   3.571   7.144 -0.7527  0.2874  0.2314
  796MOL0     C 7344   4.732   3.650   7.043  0.6825  0.4996  0.0354
  796MOL0     C 7345   4.782   3.792   7.009 -0.7810 -0.2144  0.8633
  796MOL0     C 7346   4.884   3.789   6.885 -0.1052 -0.1120  0.1016
  796MOL0     C 7347   4.818   3.777   6.750  0.0801 -0.1641  0.5185
  796MOL0     C 7348   4.921   3.709   6.651  0.6707  0.2359  0.1718
  796MOL0     O 7349   5.043   3.780   6.639  0.4916  0.0789 -0.0438
  796MOL0     C 7350   5.137   3.725   6.548  0.3535 -0.9994 -0.3862
  796MOL0     C 7351   5.275   3.736   6.580  0.1805 -0.2429  0.6873
  796MOL0     C 7352   5.381   3.698   6.497  0.4175  0.0096  0.8646
  796MOL0     C 7353   5.523   3.727   6.537 -0.2742  1.3948 -0.2885
  796MOL0     C 7354   5.350   3.643   6.364 -0.3066 -0.7147 -0.9279
  796MOL0     C 7355   5.453   3.600   6.254  0.6714 -0.1559 -1.7649
  796MOL0     O 7356   5.391   3.537   6.150 -0.0166 -0.0206 -0.2565
  796MOL0     C 7357   5.456   3.490   6.038  0.1179  0.0641  0.1181
  796MOL0     C 7358   5.565   3.556   5.983  0.3836 -1.0434 -0.3765
  796MOL0     C 7359   5.628   3.513   5.869  0.8032  0.1563  0.3499
  796MOL0     C 7360   5.572   3.405   5.801 -0.6140  0.1799  0.0572
  796MOL0     O 7361   5.598   3.372   5.669  0.9913  0.1021  0.2582
  796MOL0     C 7362   5.575   3.470   5.565 -0.5141 -0.3457 -1.0170
  796MOL0     C 7363   5.603   3.426   5.420 -0.3240  1.3626  0.0138
  796MOL0     C 7364   5.742   3.366   5.411 -0.2101  0.1305  0.5159
  796MOL0     C 7365   5.778   3.345   5.267 -0.2095  0.6454  0.2743
  796MOL0     C 7366   5.895   3.245   5.259 -0.0778 -0.1382  0.2319
  796MOL0     C 7367   5.978   3.272   5.133 -0.5763  0.1922 -0.2317
  796MOL0     C 7368   6.088   3.156   5.104  0.5148  0.6170  0.2112
  796MOL0     C 7369   6.173   3.179   4.986  0.7625 -0.3809 -0.9102
  796MOL0    Cl 7370   6.076   3.166   4.842  0.0682 -0.0240 -0.7459
  796MOL0     C 7371   5.474   3.325   5.858  1.1791  0.5810 -0.2913
  796MOL0     C 7372   5.415   3.373   5.970 -0.0418  0.3310  0.2911
  796MOL0     O 7373   5.575   3.615   6.284  0.5318 -0.0552  0.5954
  796MOL0     C 7374   5.209   3.633   6.331 -0.6404  0.3585  0.5250
  796MOL0     C 7375   5.110   3.668   6.418  0.1504  0.3156  0.5714
  796MOL0     N 7376   4.624   3.581   6.984  0.0090 -0.1481  0.4021
  796MOL0     N 7377   4.606   3.473   7.063 -0.5994 -0.1956 -0.5498
  796MOL0     C 7378   5.845   3.090   7.368  0.1257  0.4227 -0.3674
  796MOL0     C 7379   5.973   3.084   7.419 -0.3898  0.2811  0.8832
  796MOL0     C 7380   6.306   2.998   7.762  0.3476 -0.5789 -0.0144
  796MOL0     C 7381   6.412   3.024   7.674  0.0853  0.2224  0.0114
  796MOL0     C 7382   6.546   3.018   7.714 -0.5461 -0.0837 -0.5218
  796MOL0     C 7383   6.571   2.982   7.851 -0.1072  0.5474  0.3875
  796MOL0     O 7384   6.689   2.985   7.912 -0.1264  0.4451  0.0779
  796MOL0     C 7385   6.768   2.869   7.875  0.9704  0.6582 -0.3838
  796MOL0     C 7386   6.913   2.901   7.931 -0.4850  0.7463  0.2906
  796MOL0     C 7387   7.019   2.975   7.843  0.7612 -0.1445  1.1060
  796MOL0     C 7388   7.149   3.000   7.911 -0.0282  0.3617  0.2403
  796MOL0     C 7389   7.214   2.879   7.973 -0.1020 -0.1380  0.5215
  796MOL0     C 7390   7.275   2.777   8.014 -0.2859 -0.4338 -0.0134
  796MOL0     C 7391   6.466   2.954   7.931 -0.7595  0.1013 -0.1316
  796MOL0     C 7392   6.340   2.964   7.892  0.5831  0.0847  0.2574
  796MOL0     H 7393   5.900   2.886   7.681  0.8982 -1.3275 -1.3448
  796MOL0     H 7394   5.669   2.903   7.577  0.2681 -0.5063  0.0368
  796MOL0     H 7395   5.477   2.920   7.441 -1.4349  0.0935 -0.0511
  796MOL0     H 7396   5.488   3.078   7.524  2.8734  0.6337 -0.2780
  796MOL0     H 7397   5.412   3.187   7.311 -1.1717  0.1516  1.8000
  796MOL0     H 7398   5.379   3.032   7.241  0.7807 -1.1141 -0.1945
  796MOL0     H 7399   5.218   2.987   7.453 -0.6141  0.6422  0.5267
  796MOL0     H 7400   5.248   3.156   7.495  0.0137 -2.2566  1.7129
  796MOL0     H 7401   5.145   3.242   7.297  2.7892 -0.7565 -3.0021
  796MOL0     H 7402   5.110   3.080   7.229 -0.0051 -0.9703  0.3428
  796MOL0     H 7403   4.989   3.029   7.438  1.0445 -0.7542 -0.2776
  796MOL0     H 7404   5.007   3.199   7.501 -1.1687  1.0451 -1.1663
  796MOL0     H 7405   4.849   3.117   7.261 -0.0198 -1.1705  1.1414
  796MOL0     H 7406   4.787   3.174   7.422  1.2213 -1.4659  0.5572
  796MOL0     H 7407   4.901   3.390   7.343  0.6245  0.1547 -0.7153
  796MOL0     H 7408   4.931   3.317   7.187  2.1148  0.2437  0.6495
  796MOL0     H 7409   4.673   3.375   7.338 -2.3792 -0.4857 -0.0632
  796MOL0     H 7410   4.672   3.261   7.207 -1.6542  0.8384 -0.6117
  796MOL0     H 7411   4.887   3.602   7.189  0.5257  0.2422 -2.2683
  796MOL0     H 7412   4.704   3.863   6.982 -1.4715 -1.3357 -0.2241
  796MOL0     H 7413   4.838   3.835   7.093 -0.1012 -0.5648  0.6016
  796MOL0     H 7414   4.963   3.714   6.887  1.8936  1.8770  0.3870
  796MOL0     H 7415   4.946   3.879   6.881  0.4029 -0.5005 -2.0557
  796MOL0     H 7416   4.798   3.881   6.721  4.7763  1.3911  1.9159
  796MOL0     H 7417   4.728   3.716   6.741  0.4792 -0.7140  0.2152
  796MOL0     H 7418   4.869   3.707   6.554 -0.1462  3.2618  0.4534
  796MOL0     H 7419   4.941   3.605   6.676 -0.1742 -0.5195 -1.9931
  796MOL0     H 7420   5.310   3.773   6.675  0.7287 -1.6291  1.0632
  796MOL0     H 7421   5.581   3.766   6.453 -0.1663  0.8630 -0.4684
  796MOL0     H 7422   5.527   3.798   6.620 -1.8576 -0.2462  1.2905
  796MOL0     H 7423   5.573   3.638   6.577 -1.5202  1.5666  1.8102
  796MOL0     H 7424   5.597   3.641   6.043 -0.5408 -0.7114 -0.3433
  796MOL0     H 7425   5.702   3.571   5.815 -1.1384  1.6924 -0.7929
  796MOL0     H 7426   5.478   3.520   5.571  0.0886  0.6593  2.0825
  796MOL0     H 7427   5.648   3.551   5.578 -1.2156  0.1700 -0.1742
  796MOL0     H 7428   5.537   3.349   5.378  0.9889  1.2336 -1.9557
  796MOL0     H 7429   5.601   3.515   5.357  0.2907 -0.4866 -2.7924
  796MOL0     H 7430   5.742   3.267   5.457  1.4682 -0.5349 -0.7951
  796MOL0     H 7431   5.825   3.424   5.454  1.0610 -1.1725 -0.0921
  796MOL0     H 7432   5.691   3.305   5.214  0.9016 -2.0685  0.3358
  796MOL0     H 7433   5.801   3.439   5.217  0.9058  1.0500  1.4779
  796MOL0     H 7434   5.848   3.147   5.259 -0.0287 -0.1825  1.3390
  796MOL0     H 7435   5.957   3.263   5.348  2.4369  2.6492 -1.8764
  796MOL0     H 7436   5.913   3.276   5.045 -0.4813 -1.3607 -0.4037
  796MOL0     H 7437   6.032   3.366   5.145  0.7878 -0.5726 -0.2291
  796MOL0     H 7438   6.032   3.063   5.091  0.4830  0.4101  1.6501
  796MOL0     H 7439   6.147   3.137   5.194  0.1367  1.6841  0.7096
  796MOL0     H 7440   6.241   3.094   4.993 -1.3054 -1.9582  1.6090
  796MOL0     H 7441   6.234   3.270   4.994 -1.0095  0.6886  1.8289
  796MOL0     H 7442   5.453   3.233   5.804  0.3368 -0.6527  1.9904
  796MOL0     H 7443   5.328   3.321   6.010 -2.0611  1.8042 -1.9348
  796MOL0     H 7444   5.178   3.577   6.243 -0.0377 -1.3214  1.3303
  796MOL0     H 7445   5.009   3.642   6.388 -0.2700  0.7893  1.5377
  796MOL0     H 7446   5.840   3.145   7.274  0.7580 -0.9509 -1.2345
  796MOL0     H 7447   6.060   3.126   7.371  0.6369 -1.7059  0.9164
  796MOL0     H 7448   6.401   3.020   7.567  0.2797 -1.2041  0.0258
  796MOL0     H 7449   6.635   3.040   7.656 -0.5034  2.2345  0.3038
  796MOL0     H 7450   6.736   2.770   7.907  0.1113  0.5628 -1.4593
  796MOL0     H 7451   6.793   2.865   7.768  3.6630  0.8672  0.1696
  796MOL0     H 7452   6.965   2.806   7.951 -0.0379  0.6189 -1.3530
  796MOL0     H 7453   6.892   2.950   8.026 -0.7431 -0.5890  0.9562
  796MOL0     H 7454   6.973   3.071   7.819  0.2626 -1.0198 -1.8298
  796MOL0     H 7455   7.027   2.917   7.751 -1.7314 -1.3278  1.5470
  796MOL0     H 7456   7.145   3.076   7.989  1.0164  0.8759 -0.1817
  796MOL0     H 7457   7.211   3.026   7.824 -1.4879 -0.2364 -1.0310
  796MOL0     H 7458   7.329   2.687   8.035  2.2412  0.6311 -1.5445
  796MOL0     H 7459   6.494   2.936   8.034 -0.7223  3.3068  0.5276
  796MOL0     H 7460   6.264   2.945   7.967  0.6927  0.0271  0.3527
  797MOL0     O 7461  10.449   9.370   8.733 -0.3848 -0.1577 -0.0214
  797MOL0     C 7462  10.485   9.473   8.675 -0.0259 -0.7911  0.6505
  797MOL0     O 7463  10.402   9.578   8.645  0.9460  0.0614  0.4686
  797MOL0     C 7464  10.276   9.588   8.697  1.0050  0.7025  0.0659
  797MOL0     C 7465  10.249   9.608   8.840  0.4246  0.1921 -0.5123
  797MOL0     C 7466  10.128   9.637   8.888  0.5654 -0.3700  0.2454
  797MOL0     C 7467  10.024   9.647   8.798  0.8065  0.3134 -0.6458
  797MOL0     O 7468   9.901   9.684   8.848  0.2009 -0.1765 -0.4066
  797MOL0     C 7469   9.832   9.584   8.922 -0.3096 -0.1086 -0.2420
  797MOL0     C 7470   9.706   9.649   8.981 -0.0202 -0.4996 -0.2484
  797MOL0     C 7471   9.734   9.719   9.109 -0.3482  0.0093  0.3805
  797MOL0     C 7472   9.599   9.783   9.158 -0.4257 -0.5825 -0.3786
  797MOL0     C 7473   9.617   9.852   9.290 -0.0861 -0.1737  0.0450
  797MOL0     C 7474   9.645  10.009   9.264 -0.6465 -0.1927 -0.4834
  797MOL0     C 7475   9.684  10.068   9.402  0.1299  0.1511 -0.6884
  797MOL0     C 7476   9.576  10.066   9.514 -0.6161 -0.2616 -0.4554
  797MOL0     N 7477   9.448  10.121   9.469  0.2873 -0.4038 -0.3735
  797MOL0     C 7478   9.349  10.052   9.401 -0.0375  0.2574  0.3996
  797MOL0     C 7479   9.262  10.153   9.365  0.6903  0.3402 -0.3259
  797MOL0     C 7480   9.143  10.129   9.276  0.3546 -0.1810 -0.1255
  797MOL0     C 7481   9.014  10.185   9.336  0.0420 -0.4671  0.2580
  797MOL0     C 7482   8.906  10.203   9.222  0.4029  0.4123 -0.6048
  797MOL0     C 7483   8.864  10.064   9.157  0.0145 -0.8026  0.3979
  797MOL0     O 7484   8.840   9.953   9.250  0.8662  0.3296 -0.0509
  797MOL0     C 7485   8.710   9.936   9.295 -1.0759  0.2259  0.6139
  797MOL0     C 7486   8.598  10.001   9.236 -0.2209  0.2254  0.4987
  797MOL0     C 7487   8.470   9.969   9.273 -0.0233  0.1602 -0.1592
  797MOL0     C 7488   8.370  10.050   9.199  0.8915 -0.0573  0.5554
  797MOL0     C 7489   8.438   9.863   9.362  0.1732  0.6285  0.5569
  797MOL0     C 7490   8.303   9.822   9.403 -0.0274 -0.3742  0.9742
  797MOL0     O 7491   8.285   9.710   9.491 -0.2958 -0.0432 -0.1878
  797MOL0     C 7492   8.156   9.682   9.538  0.2401 -0.9722 -0.4045
  797MOL0     C 7493   8.101   9.558   9.533 -0.1337 -0.8619  0.1589
  797MOL0     C 7494   7.976   9.524   9.582  0.0911  0.2424 -0.1484
  797MOL0     C 7495   7.897   9.624   9.642  0.4209  0.0163  0.2034
  797MOL0     O 7496   7.770   9.592   9.686 -0.6854  0.4839  0.5124
  797MOL0     C 7497   7.677   9.699   9.704  0.1713  0.2670 -0.2691
  797MOL0     C 7498   7.530   9.660   9.722 -0.6811  0.0754  0.2706
  797MOL0     C 7499   7.494   9.570   9.608 -0.2096 -0.5260 -0.1214
  797MOL0     C 7500   7.485   9.645   9.474  0.2943  0.0077  0.5306
  797MOL0     C 7501   7.361   9.606   9.393 -0.1096  0.1700 -0.0860
  797MOL0     C 7502   7.391   9.654   9.246 -0.1097  0.0825 -0.7345
  797MOL0     C 7503   7.272   9.613   9.145  0.4125 -0.1176 -0.3160
  797MOL0     C 7504   7.329   9.593   9.008 -0.0839 -0.6639  0.9603
  797MOL0    Cl 7505   7.205   9.568   8.884  0.7674  0.4650  0.3945
  797MOL0     C 7506   7.956   9.750   9.655  0.9435  0.7584 -0.1903
  797MOL0     C 7507   8.077   9.781   9.598 -0.1330  0.1864  0.7641
  797MOL0     O 7508   8.211   9.891   9.359 -0.2169  0.5168 -0.0414
  797MOL0     C 7509   8.555   9.795   9.423  0.4888 -0.4326  0.5027
  797MOL0     C 7510   8.689   9.833   9.380  0.2336  0.6275 -0.0305
  797MOL0     N 7511   9.305  10.276   9.422 -0.0773 -0.1299  0.4472
  797MOL0     N 7512   9.417  10.254   9.475  0.0089  0.9090  0.6523
  797MOL0     C 7513  10.042   9.634   8.659  0.3004  0.5232 -0.1118
  797MOL0     C 7514  10.167   9.598   8.609  0.2162  0.4974  0.1972
  797MOL0     C 7515  10.626   9.498   8.651 -0.0453 -0.1432  0.6855
  797MOL0     C 7516  10.731   9.434   8.730 -0.2140  0.2370  1.3327
  797MOL0     C 7517  10.866   9.476   8.698  0.9135 -0.0080 -0.7038
  797MOL0     C 7518  10.897   9.556   8.587 -0.0856  0.0531 -0.6960
  797MOL0     O 7519  11.023   9.582   8.551 -0.2588 -0.5607 -0.2644
  797MOL0     C 7520  11.135   9.547   8.640 -0.6640  0.1616 -0.1217
  797MOL0     C 7521  11.196   9.399   8.637 -0.1784 -0.1375 -0.4541
  797MOL0     C 7522  11.306   9.376   8.747 -0.6724 -0.5248  0.4995
  797MOL0     C 7523  11.435   9.448   8.697  0.7108 -0.1758 -0.2277
  797MOL0     C 7524  11.548   9.421   8.784 -0.1125  0.6496  0.4657
  797MOL0     C 7525  11.628   9.390   8.865  0.4161 -0.2738 -0.1607
  797MOL0     C 7526  10.797   9.606   8.505 -0.7620  0.1901  0.5956
  797MOL0     C 7527  10.663   9.584   8.547 -0.1027 -0.0314  0.3296
  797MOL0     H 7528  10.334   9.607   8.907  0.4372 -2.8776 -0.4395
  797MOL0     H 7529  10.116   9.665   8.992  3.8488 -0.2025  0.6661
  797MOL0     H 7530   9.813   9.496   8.860  0.2706  0.6246 -1.5079
  797MOL0     H 7531   9.884   9.557   9.013 -0.1707  1.8423  0.3082
  797MOL0     H 7532   9.654   9.721   8.916 -0.8843  1.1473  2.1065
  797MOL0     H 7533   9.635   9.570   9.006 -0.1066  1.0087  5.8806
  797MOL0     H 7534   9.775   9.647   9.180  1.0528  0.7998  0.3940
  797MOL0     H 7535   9.806   9.797   9.086  1.2541 -1.6782 -0.6192
  797MOL0     H 7536   9.556   9.858   9.091  1.8739  0.4791 -0.7718
  797MOL0     H 7537   9.540   9.691   9.160  0.3553 -1.1092 -1.0798
  797MOL0     H 7538   9.523   9.847   9.348 -0.3620 -2.2471 -0.5062
  797MOL0     H 7539   9.697   9.799   9.342  0.8086  0.5121 -0.6066
  797MOL0     H 7540   9.735  10.021   9.202 -0.8641 -0.5991 -0.8841
  797MOL0     H 7541   9.563  10.066   9.220  0.0207  1.6990  0.6106
  797MOL0     H 7542   9.782  10.034   9.435  0.9159  0.4379 -2.6003
  797MOL0     H 7543   9.699  10.175   9.385 -0.2032 -0.2354 -4.1114
  797MOL0     H 7544   9.616  10.122   9.599 -3.2590  1.0960  0.0031
  797MOL0     H 7545   9.548   9.966   9.547 -2.9953  0.4957  0.0772
  797MOL0     H 7546   9.363   9.954   9.358  2.2738  0.9970 -0.6869
  797MOL0     H 7547   9.155  10.178   9.178 -0.4831  0.6636  0.1816
  797MOL0     H 7548   9.133  10.023   9.250 -0.4819  0.2189 -1.5518
  797MOL0     H 7549   9.039  10.284   9.375 -2.3065  2.1110 -3.9373
  797MOL0     H 7550   8.975  10.128   9.421  0.8848  1.2741  1.8712
  797MOL0     H 7551   8.960  10.266   9.150  0.6187 -1.1391 -1.8652
  797MOL0     H 7552   8.817  10.259   9.254 -0.0751 -0.7109  0.0871
  797MOL0     H 7553   8.952  10.027   9.103 -0.6788 -1.8869 -0.0183
  797MOL0     H 7554   8.795  10.086   9.075  0.1824 -1.9159 -0.0649
  797MOL0     H 7555   8.607  10.086   9.170 -1.3933  0.3566  0.4947
  797MOL0     H 7556   8.304   9.988   9.138  1.0504 -0.8442  1.1623
  797MOL0     H 7557   8.318  10.116   9.269 -0.5351 -1.5820  0.9972
  797MOL0     H 7558   8.406  10.123   9.126 -0.2043  0.5451  0.5973
  797MOL0     H 7559   8.162   9.484   9.482  0.2040 -0.0664 -0.5973
  797MOL0     H 7560   7.926   9.427   9.588 -1.2406  0.9319  0.4310
  797MOL0     H 7561   7.700   9.745   9.801 -2.4997 -0.0771  0.6254
  797MOL0     H 7562   7.685   9.776   9.626  0.7397  1.1063  0.5986
  797MOL0     H 7563   7.514   9.602   9.813 -3.0022  1.2452  0.6963
  797MOL0     H 7564   7.457   9.741   9.716  1.2795  1.9729  1.1016
  797MOL0     H 7565   7.392   9.532   9.625  0.2017 -0.8600  1.8587
  797MOL0     H 7566   7.548   9.475   9.600 -0.6607 -0.8419  0.4936
  797MOL0     H 7567   7.472   9.752   9.495 -0.3607 -0.0205  0.3059
  797MOL0     H 7568   7.571   9.624   9.410 -0.2972  2.3527 -1.2126
  797MOL0     H 7569   7.271   9.645   9.442 -0.2293  1.0657 -0.9733
  797MOL0     H 7570   7.359   9.497   9.389 -2.1746  0.0104  2.5996
  797MOL0     H 7571   7.394   9.764   9.247 -3.9242  0.3471  0.1391
  797MOL0     H 7572   7.490   9.619   9.218 -0.3518 -1.8525  0.6150
  797MOL0     H 7573   7.190   9.686   9.138  0.9203  0.6672  1.3802
  797MOL0     H 7574   7.239   9.515   9.180 -1.5226  0.5460 -0.1418
  797MOL0     H 7575   7.391   9.503   9.000  3.1476  1.1754  3.1559
  797MOL0     H 7576   7.393   9.679   8.986 -0.4934 -0.5252  0.2987
  797MOL0     H 7577   7.907   9.825   9.716 -0.1422 -0.9402  1.1044
  797MOL0     H 7578   8.116   9.882   9.606 -1.8644  0.8246  1.8430
  797MOL0     H 7579   8.541   9.716   9.495 -1.1554 -0.1169  0.5561
  797MOL0     H 7580   8.776   9.783   9.421  1.2231  1.2662 -1.2753
  797MOL0     H 7581   9.953   9.652   8.598  0.1958 -0.2428 -0.1987
  797MOL0     H 7582  10.192   9.578   8.505  0.4502 -0.7011  0.4717
  797MOL0     H 7583  10.708   9.367   8.813  0.3457 -1.5805  0.0606
  797MOL0     H 7584  10.940   9.431   8.764  1.3659  2.4608  0.5818
  797MOL0     H 7585  11.217   9.613   8.611 -0.5040 -1.0032 -2.5896
  797MOL0     H 7586  11.104   9.581   8.739 -0.8858  2.2212 -0.8490
  797MOL0     H 7587  11.239   9.393   8.536  1.4732  3.8052 -0.1638
  797MOL0     H 7588  11.116   9.326   8.652 -1.3453  0.6996 -2.2192
  797MOL0     H 7589  11.332   9.270   8.750 -0.1797 -0.3740  1.5486
  797MOL0     H 7590  11.265   9.398   8.846 -1.7740 -0.2569  0.0081
  797MOL0     H 7591  11.408   9.554   8.694  1.9095  0.1445 -2.6072
  797MOL0     H 7592  11.457   9.415   8.595  0.8820 -2.4798  0.4973
  797MOL0     H 7593  11.691   9.361   8.947  1.6179 -0.1600 -1.0132
  797MOL0     H 7594  10.822   9.658   8.414  1.3524 -0.3923  0.7959
  797MOL0     H 7595  10.581   9.628   8.492  1.1080  0.1338 -1.4533
  798MOL0     O 7596  11.275   9.650  11.012 -0.3636 -0.0641 -0.6956
  798MOL0     C 7597  11.327   9.539  11.027 -0.0357 -0.4173 -0.1606
  798MOL0     O 7598  11.261   9.437  11.076  1.0752  0.5836  0.9158
  798MOL0     C 7599  11.129   9.466  11.129 -0.5739  0.7435  0.0522
  798MOL0     C 7600  11.105   9.540  11.237 -0.4680  0.2601  0.7425
  798MOL0     C 7601  10.974   9.553  11.288  0.3793 -0.4470  0.0658
  798MOL0     C 7602  10.863   9.512  11.212 -1.2530 -0.4318 -0.5442
  798MOL0     O 7603  10.738   9.546  11.263 -0.3081 -0.4578 -1.0647
  798MOL0     C 7604  10.624   9.473  11.223 -0.8959  0.2250 -0.3308
  798MOL0     C 7605  10.502   9.543  11.292 -0.0846 -0.0793  0.4161
  798MOL0     C 7606  10.369   9.511  11.223  0.0051 -0.2052 -0.4814
  798MOL0     C 7607  10.246   9.591  11.268 -0.2657 -0.4740 -0.1172
  798MOL0     C 7608  10.118   9.539  11.212  0.4086 -0.6540 -0.0961
  798MOL0     C 7609  10.006   9.640  11.233 -0.1034  0.4620  0.1817
  798MOL0     C 7610   9.877   9.574  11.177  0.0118 -0.3948  0.2959
  798MOL0     C 7611   9.754   9.670  11.165  0.1708  0.7014  0.3211
  798MOL0     N 7612   9.635   9.605  11.107 -0.1862  0.7361  0.6388
  798MOL0     C 7613   9.553   9.520  11.181  0.5360 -0.0817 -0.1058
  798MOL0     C 7614   9.467   9.471  11.088 -0.0458  0.0481  0.4262
  798MOL0     C 7615   9.354   9.378  11.112  0.1102  0.2300  0.1365
  798MOL0     C 7616   9.218   9.453  11.141  0.6406 -0.4617 -1.5286
  798MOL0     C 7617   9.124   9.454  11.029  0.3963 -0.2677  0.7221
  798MOL0     C 7618   8.987   9.507  11.069 -0.2163 -1.0645  0.0515
  798MOL0     O 7619   8.895   9.494  10.961 -0.1482  0.0834  0.0631
  798MOL0     C 7620   8.764   9.482  10.997  0.4460 -0.8511  0.1096
  798MOL0     C 7621   8.708   9.541  11.110  0.4349 -0.7851  0.1535
  798MOL0     C 7622   8.571   9.530  11.143  0.9064  0.7608  0.6331
  798MOL0     C 7623   8.524   9.592  11.278 -0.0088  0.2483  0.0784
  798MOL0     C 7624   8.484   9.459  11.051  0.1443 -0.1720  0.4518
  798MOL0     C 7625   8.339   9.448  11.050  0.5163 -0.5802 -0.4100
  798MOL0     O 7626   8.266   9.375  10.958  0.5809 -0.1913 -0.3637
  798MOL0     C 7627   8.128   9.377  10.971  0.1819  0.2235 -0.2282
  798MOL0     C 7628   8.046   9.488  10.939 -0.9843 -0.3479  0.4675
  798MOL0     C 7629   7.911   9.489  10.979 -0.3903  0.3460  0.1180
  798MOL0     C 7630   7.856   9.372  11.040  0.7822 -0.3550 -0.3464
  798MOL0     O 7631   7.725   9.360  11.083 -0.1094 -0.6108 -0.4226
  798MOL0     C 7632   7.648   9.285  10.983  0.2342 -1.3408  0.0756
  798MOL0     C 7633   7.496   9.322  10.997  0.2893 -0.8162 -0.2141
  798MOL0     C 7634   7.469   9.468  10.971  0.5414 -0.6072 -0.6308
  798MOL0     C 7635   7.333   9.510  11.025 -0.8257  0.6723 -0.3233
  798MOL0     C 7636   7.294   9.653  11.021  0.2602 -0.5838 -0.4871
  798MOL0     C 7637   7.386   9.760  11.070  0.8157 -0.5644  0.5884
  798MOL0     C 7638   7.299   9.883  11.112  0.1922 -0.6008 -0.4572
  798MOL0     C 7639   7.383   9.982  11.185 -0.3275  0.0102 -0.5362
  798MOL0    Cl 7640   7.525  10.040  11.076 -0.0042 -0.2743 -0.1788
  798MOL0     C 7641   7.942   9.262  11.072  0.6392 -0.6019 -0.0829
  798MOL0     C 7642   8.075   9.275  11.044  0.6507  0.1650 -0.0374
  798MOL0     O 7643   8.287   9.500  11.149  0.4375 -0.4532 -0.1521
  798MOL0     C 7644   8.543   9.406  10.935  0.6655 -0.1019 -1.1749
  798MOL0     C 7645   8.681   9.410  10.911 -0.8292  0.8610  0.0035
  798MOL0     N 7646   9.490   9.546  10.971 -0.6734  0.1052  0.1516
  798MOL0     N 7647   9.597   9.620  10.979  0.1288  0.0931  0.0659
  798MOL0     C 7648  10.899   9.427  11.095  0.5123  0.2359 -0.4222
  798MOL0     C 7649  11.026   9.404  11.059 -0.1294  0.3914 -0.5868
  798MOL0     C 7650  11.465   9.514  10.992 -0.1646  0.2499  0.1239
  798MOL0     C 7651  11.554   9.624  10.956  0.0406 -0.4242  0.2799
  798MOL0     C 7652  11.687   9.593  10.921  0.0091  0.2246  1.1109
  798MOL0     C 7653  11.737   9.456  10.920  0.4962 -0.8369  0.5051
  798MOL0     O 7654  11.872   9.421  10.910 -0.4352 -0.5374  0.0578
  798MOL0     C 7655  11.964   9.520  10.863 -0.3859  0.4258 -0.0829
  798MOL0     C 7656  12.101   9.464  10.827 -0.1893  0.5355  0.3724
  798MOL0     C 7657  12.154   9.381  10.945 -0.1461 -0.0731  0.4174
  798MOL0     C 7658  12.303   9.383  10.943 -0.3930  0.3014  0.1980
  798MOL0     C 7659  12.359   9.281  11.036 -0.5135 -0.1399  0.3291
  798MOL0     C 7660  12.413   9.215  11.117 -0.1448 -0.1535 -0.0353
  798MOL0     C 7661  11.648   9.356  10.945 -0.1055 -0.7739 -0.8383
  798MOL0     C 7662  11.512   9.385  10.973  0.3652 -0.6481 -0.3929
  798MOL0     H 7663  11.190   9.572  11.296 -0.0163 -0.8737  0.7423
  798MOL0     H 7664  10.959   9.599  11.385  1.5816 -0.6870  0.3755
  798MOL0     H 7665  10.604   9.478  11.115  0.6412  1.7082 -0.5773
  798MOL0     H 7666  10.640   9.369  11.251 -1.3067  0.0486 -0.7346
  798MOL0     H 7667  10.500   9.509  11.396 -2.3727  1.0757  0.8063
  798MOL0     H 7668  10.520   9.651  11.283 -0.4699 -0.0849 -0.4588
  798MOL0     H 7669  10.378   9.521  11.115 -2.2763 -4.4574 -1.3088
  798MOL0     H 7670  10.351   9.405  11.246  0.2624 -0.9629 -3.3620
  798MOL0     H 7671  10.241   9.611  11.376 -0.2860 -1.2957  0.0438
  798MOL0     H 7672  10.269   9.687  11.220 -0.7085 -0.0337  0.5364
  798MOL0     H 7673  10.134   9.511  11.108 -0.7442 -0.6346 -0.2871
  798MOL0     H 7674  10.096   9.449  11.271  1.5750 -2.7365 -2.6126
  798MOL0     H 7675  10.000   9.663  11.340  2.3770  1.9518  0.0713
  798MOL0     H 7676  10.034   9.723  11.167  0.0273 -0.0354 -0.3940
  798MOL0     H 7677   9.906   9.537  11.078  0.7026  1.3003 -0.1856
  798MOL0     H 7678   9.845   9.489  11.237 -1.5512 -0.1534 -0.1206
  798MOL0     H 7679   9.777   9.762  11.110 -1.0132 -0.5071 -2.3750
  798MOL0     H 7680   9.739   9.694  11.271  2.2420 -3.0973  1.6654
  798MOL0     H 7681   9.557   9.504  11.288 -2.5593 -1.9943 -0.1648
  798MOL0     H 7682   9.343   9.306  11.030  2.2899  0.0371 -0.0327
  798MOL0     H 7683   9.385   9.318  11.198 -0.1788 -1.6279 -0.9885
  798MOL0     H 7684   9.244   9.553  11.176 -0.1209 -0.7432 -0.0737
  798MOL0     H 7685   9.161   9.402  11.219  1.6384  1.9599  0.9624
  798MOL0     H 7686   9.116   9.356  10.981 -0.4493  1.6215 -3.4480
  798MOL0     H 7687   9.165   9.519  10.951 -0.0689 -0.5182  0.2631
  798MOL0     H 7688   8.988   9.612  11.101  1.9201 -1.8340  2.9353
  798MOL0     H 7689   8.955   9.453  11.158 -1.3975  1.4578  1.2729
  798MOL0     H 7690   8.771   9.595  11.181 -0.9472  0.1657  0.7035
  798MOL0     H 7691   8.446   9.667  11.263  0.2218 -0.1424 -4.5790
  798MOL0     H 7692   8.490   9.517  11.351  1.3336 -0.6850 -0.2202
  798MOL0     H 7693   8.600   9.657  11.323  0.9196 -2.0901  2.1816
  798MOL0     H 7694   8.079   9.587  10.909  1.5652  0.0070  3.8270
  798MOL0     H 7695   7.854   9.580  10.962 -0.1412  0.7761  1.4641
  798MOL0     H 7696   7.677   9.289  10.878 -2.3855  0.0844 -0.6832
  798MOL0     H 7697   7.652   9.178  11.006 -1.7828 -1.8861 -1.7887
  798MOL0     H 7698   7.433   9.266  10.927  0.7983 -0.0890 -1.2718
  798MOL0     H 7699   7.468   9.299  11.101  0.3399  1.5596  0.3917
  798MOL0     H 7700   7.479   9.486  10.863 -0.3727  0.9910 -0.4949
  798MOL0     H 7701   7.540   9.534  11.021 -1.9668  1.0890  0.9357
  798MOL0     H 7702   7.254   9.466  10.964 -1.6479 -0.7401  1.6546
  798MOL0     H 7703   7.327   9.464  11.124  0.4154 -0.3734 -0.7143
  798MOL0     H 7704   7.198   9.663  11.073  1.1683 -0.3972  1.1958
  798MOL0     H 7705   7.284   9.677  10.914 -0.2339 -1.0502 -0.5513
  798MOL0     H 7706   7.439   9.726  11.159  2.3014 -0.5113 -0.2473
  798MOL0     H 7707   7.446   9.789  10.983 -0.2945 -0.0947 -0.0410
  798MOL0     H 7708   7.223   9.852  11.184 -1.0633 -1.8333 -2.2353
  798MOL0     H 7709   7.248   9.929  11.027  1.5887  4.0567  0.9465
  798MOL0     H 7710   7.410   9.946  11.284  1.7395  0.1652 -1.0070
  798MOL0     H 7711   7.320  10.070  11.201 -0.6129 -0.2451 -0.2345
  798MOL0     H 7712   7.901   9.182  11.133  0.8066  0.2777  1.2221
  798MOL0     H 7713   8.147   9.203  11.080 -0.6886 -1.7057 -0.9163
  798MOL0     H 7714   8.483   9.349  10.865 -1.1925  1.5415 -1.0141
  798MOL0     H 7715   8.714   9.345  10.831 -1.4668 -3.0775  2.6469
  798MOL0     H 7716  10.825   9.392  11.024 -1.3869 -1.8438  2.3970
  798MOL0     H 7717  11.045   9.361  10.961 -0.8229 -2.7995  0.5599
  798MOL0     H 7718  11.523   9.726  10.938 -0.7407 -0.9881 -1.7929
  798MOL0     H 7719  11.743   9.681  10.891 -2.0021  1.4588  0.7681
  798MOL0     H 7720  11.924   9.583  10.783 -0.5341  1.1094  0.5142
  798MOL0     H 7721  11.987   9.598  10.936  2.4209 -0.0050 -0.4142
  798MOL0     H 7722  12.167   9.549  10.807 -0.9860  1.2418  0.7182
  798MOL0     H 7723  12.104   9.404  10.735  3.0307  0.7975  0.1878
  798MOL0     H 7724  12.125   9.276  10.944  0.3427 -0.2104  0.4106
  798MOL0     H 7725  12.116   9.430  11.035  1.5611  0.4498  0.9100
  798MOL0     H 7726  12.342   9.482  10.967  0.8198 -0.0310 -0.3460
  798MOL0     H 7727  12.333   9.357  10.841 -3.0782 -1.9836 -0.1492
  798MOL0     H 7728  12.448   9.169  11.207 -0.0891 -1.2889 -0.6248
  798MOL0     H 7729  11.684   9.254  10.939  0.3353 -0.8157  1.3664
  798MOL0     H 7730  11.441   9.303  10.981 -1.4153  0.9763  1.4553
  799MOL0     O 7731   2.944   6.766   3.671  0.3241 -0.3348  0.5433
  799MOL0     C 7732   3.012   6.758   3.568  0.0182 -0.3541  0.3163
  799MOL0     O 7733   2.969   6.718   3.449 -0.4448 -0.3799 -0.4642
  799MOL0     C 7734   2.840   6.673   3.441 -0.4918 -0.1984 -0.0987
  799MOL0     C 7735   2.794   6.566   3.523  0.3031  0.3753 -0.4961
  799MOL0     C 7736   2.669   6.511   3.503 -0.6057  0.1694  0.0454
  799MOL0     C 7737   2.582   6.572   3.403  0.8226 -0.3550  0.1501
  799MOL0     O 7738   2.453   6.511   3.396  0.3375  0.2046  0.1531
  799MOL0     C 7739   2.345   6.578   3.327  0.8513 -0.2309  0.2897
  799MOL0     C 7740   2.211   6.532   3.389  0.0695  0.2195  0.1355
  799MOL0     C 7741   2.194   6.565   3.535  0.2146  0.1023 -0.1151
  799MOL0     C 7742   2.074   6.501   3.608 -0.0633 -0.5550 -0.2896
  799MOL0     C 7743   2.084   6.525   3.755 -0.4866  0.2067  0.2963
  799MOL0     C 7744   2.025   6.656   3.812  0.5344 -0.2911  0.4210
  799MOL0     C 7745   1.874   6.682   3.779  0.2643  0.2147  0.6952
  799MOL0     C 7746   1.785   6.572   3.844  0.0584 -0.0253  0.1034
  799MOL0     N 7747   1.636   6.604   3.843 -0.2857  0.1600  0.6515
  799MOL0     C 7748   1.569   6.700   3.917 -0.0896 -0.0770  0.5326
  799MOL0     C 7749   1.438   6.674   3.911  0.6872  0.9419  0.4338
  799MOL0     C 7750   1.332   6.753   3.976  0.3423 -0.1201  1.3815
  799MOL0     C 7751   1.232   6.674   4.056  0.3255  1.1053  0.3210
  799MOL0     C 7752   1.167   6.765   4.160  0.4384  0.6115  0.0045
  799MOL0     C 7753   1.029   6.716   4.200  0.1405  0.3317  0.7305
  799MOL0     O 7754   1.009   6.766   4.340  0.7850  0.4750  0.4295
  799MOL0     C 7755   0.885   6.782   4.393  0.3515  0.1980 -0.8378
  799MOL0     C 7756   0.881   6.833   4.524 -0.8103 -0.1796  0.1409
  799MOL0     C 7757   0.768   6.823   4.606  0.8176 -0.5202  0.4937
  799MOL0     C 7758   0.783   6.856   4.754  0.0318 -0.9438 -0.0650
  799MOL0     C 7759   0.644   6.788   4.538 -1.0864  0.4618 -0.6357
  799MOL0     C 7760   0.505   6.811   4.596 -0.0748  0.0517 -0.2135
  799MOL0     O 7761   0.414   6.732   4.539  0.0352  0.0010  0.0890
  799MOL0     C 7762   0.292   6.714   4.603  0.1985  0.2673 -0.2651
  799MOL0     C 7763   0.249   6.584   4.637  0.6035  0.3693  1.1860
  799MOL0     C 7764   0.127   6.563   4.704  0.0767  0.6895  0.2925
  799MOL0     C 7765   0.035   6.666   4.715  0.3642 -0.0364 -0.1053
  799MOL0     O 7766  -0.093   6.648   4.775  0.3036 -0.4319 -0.2028
  799MOL0     C 7767  -0.145   6.515   4.797 -0.2930  0.8599 -0.9031
  799MOL0     C 7768  -0.290   6.513   4.759 -0.8184 -0.0271 -0.1308
  799MOL0     C 7769  -0.372   6.400   4.823 -0.1415 -0.0390 -0.5129
  799MOL0     C 7770  -0.489   6.367   4.722 -0.3184  0.1337  0.3879
  799MOL0     C 7771  -0.606   6.320   4.798  0.4655  0.2042 -0.5517
  799MOL0     C 7772  -0.717   6.256   4.710  0.9837  0.6262 -0.6150
  799MOL0     C 7773  -0.686   6.107   4.676 -0.0120 -0.1981  0.2065
  799MOL0     C 7774  -0.744   6.010   4.780 -1.0116  0.6019  0.7077
  799MOL0    Cl 7775  -0.730   5.842   4.709  0.4430  0.0134  0.0490
  799MOL0     C 7776   0.077   6.795   4.684  1.0967  0.0254  0.0393
  799MOL0     C 7777   0.205   6.814   4.638  0.0024  0.9222  1.2652
  799MOL0     O 7778   0.490   6.878   4.696  0.2987 -0.0475  0.3151
  799MOL0     C 7779   0.650   6.743   4.399  0.5718 -0.0945 -0.9100
  799MOL0     C 7780   0.767   6.737   4.327 -0.2662 -0.6250  0.0042
  799MOL0     N 7781   1.420   6.566   3.825 -0.4411  0.5278  0.7503
  799MOL0     N 7782   1.543   6.527   3.787  0.5731 -0.0917 -0.3262
  799MOL0     C 7783   2.619   6.675   3.326 -0.3182 -0.5309  0.1058
  799MOL0     C 7784   2.750   6.728   3.350 -0.1391  0.1480 -0.4860
  799MOL0     C 7785   3.164   6.784   3.587  0.6411 -0.1039  0.4646
  799MOL0     C 7786   3.226   6.842   3.695  0.7861  0.7178 -0.7663
  799MOL0     C 7787   3.360   6.864   3.694  0.2184  0.0978 -0.2794
  799MOL0     C 7788   3.442   6.844   3.581 -0.0137 -0.3593  0.6485
  799MOL0     O 7789   3.574   6.873   3.595  0.8075 -0.3801 -0.0553
  799MOL0     C 7790   3.668   6.829   3.498  0.5614  0.3464 -0.2150
  799MOL0     C 7791   3.712   6.684   3.532 -0.5760  0.3086  0.3976
  799MOL0     C 7792   3.759   6.669   3.673  0.1256  1.1101  0.0284
  799MOL0     C 7793   3.871   6.762   3.715  0.3863  0.5561 -0.5107
  799MOL0     C 7794   3.994   6.707   3.669  0.2181 -0.7705 -0.9430
  799MOL0     C 7795   4.097   6.661   3.618  0.0661  0.3200  0.0650
  799MOL0     C 7796   3.380   6.789   3.469  0.0684 -0.3581  0.1595
  799MOL0     C 7797   3.241   6.760   3.468 -0.3300 -0.5015 -0.4325
  799MOL0     H 7798   2.857   6.520   3.598  0.6668 -2.5202 -2.3896
  799MOL0     H 7799   2.626   6.434   3.566  1.2365  0.2823  1.5386
  799MOL0     H 7800   2.359   6.683   3.356 -2.0303  0.9109 -2.0062
  799MOL0     H 7801   2.352   6.574   3.218  0.9028 -1.1673  0.3227
  799MOL0     H 7802   2.131   6.581   3.332 -1.6331 -1.9132  0.5599
  799MOL0     H 7803   2.200   6.427   3.358 -1.4455  0.3941 -0.0185
  799MOL0     H 7804   2.291   6.550   3.583 -0.4780 -1.7306  0.7944
  799MOL0     H 7805   2.172   6.672   3.541 -0.1532  0.1553 -1.7825
  799MOL0     H 7806   1.978   6.538   3.570 -0.3474 -2.2520 -1.3454
  799MOL0     H 7807   2.085   6.392   3.598 -3.2987 -1.0117 -0.2455
  799MOL0     H 7808   2.034   6.438   3.799  1.2117 -1.0205 -0.0884
  799MOL0     H 7809   2.191   6.519   3.778  0.3386 -1.0066 -3.2437
  799MOL0     H 7810   2.039   6.664   3.920 -1.9953 -1.2536  0.9020
  799MOL0     H 7811   2.078   6.741   3.770 -0.8220  0.6469  0.5345
  799MOL0     H 7812   1.838   6.774   3.825  0.4010 -1.1637  3.7926
  799MOL0     H 7813   1.864   6.689   3.670  1.2432 -2.5524  0.3512
  799MOL0     H 7814   1.810   6.538   3.945 -0.2990  1.0309  0.5688
  799MOL0     H 7815   1.805   6.481   3.788  1.5714  0.6356 -0.4718
  799MOL0     H 7816   1.615   6.785   3.967 -2.1333  1.8219 -0.6366
  799MOL0     H 7817   1.375   6.826   4.046 -1.7725  2.7296 -0.1223
  799MOL0     H 7818   1.285   6.815   3.900  0.7700  1.5392  2.4278
  799MOL0     H 7819   1.264   6.581   4.104  0.7976  0.8300 -0.5156
  799MOL0     H 7820   1.166   6.632   3.979  0.7104  0.2837  0.4254
  799MOL0     H 7821   1.143   6.863   4.118 -0.1905  0.1610 -0.7139
  799MOL0     H 7822   1.228   6.769   4.251  1.8753 -1.5135 -0.7703
  799MOL0     H 7823   1.017   6.607   4.200 -2.3409  0.5157  2.7219
  799MOL0     H 7824   0.954   6.749   4.128 -0.5650  0.3737  1.4775
  799MOL0     H 7825   0.977   6.855   4.569  0.0196  0.5810 -1.8663
  799MOL0     H 7826   0.793   6.962   4.778  2.8760 -1.6406  2.4398
  799MOL0     H 7827   0.697   6.815   4.808  0.4182 -0.3077  1.0514
  799MOL0     H 7828   0.873   6.811   4.797 -0.4772 -1.7775  0.1622
  799MOL0     H 7829   0.317   6.504   4.611 -0.9418 -0.9773  1.1028
  799MOL0     H 7830   0.102   6.460   4.727  0.4105  0.3624 -0.7577
  799MOL0     H 7831  -0.097   6.438   4.735 -1.0554  0.8737 -1.5345
  799MOL0     H 7832  -0.140   6.498   4.905  2.4897 -1.3723 -1.2558
  799MOL0     H 7833  -0.334   6.613   4.763  0.2577  0.5204 -1.3531
  799MOL0     H 7834  -0.293   6.500   4.650  2.5446  2.3514 -0.6557
  799MOL0     H 7835  -0.416   6.449   4.910 -0.2602  1.2983 -1.2859
  799MOL0     H 7836  -0.310   6.313   4.845  1.1077  0.9072 -0.1452
  799MOL0     H 7837  -0.515   6.457   4.665  0.2251 -0.3911 -0.7273
  799MOL0     H 7838  -0.453   6.296   4.647  1.8351  2.7070 -1.1942
  799MOL0     H 7839  -0.642   6.409   4.852 -0.3373 -0.3668 -0.1155
  799MOL0     H 7840  -0.582   6.239   4.868 -2.1529 -0.9689 -0.8817
  799MOL0     H 7841  -0.817   6.251   4.754  1.4572 -2.5821  0.3973
  799MOL0     H 7842  -0.716   6.318   4.620  1.0581  1.3489 -0.1211
  799MOL0     H 7843  -0.578   6.090   4.670 -0.0339  0.1057 -1.5318
  799MOL0     H 7844  -0.726   6.086   4.576  0.9390  2.0468 -0.7061
  799MOL0     H 7845  -0.849   6.026   4.804 -0.6595  1.2909  1.9212
  799MOL0     H 7846  -0.678   6.021   4.867  0.4658  3.0405 -0.6128
  799MOL0     H 7847   0.010   6.877   4.706  0.6750 -0.4797  0.7019
  799MOL0     H 7848   0.247   6.911   4.611  1.1853  1.0839  3.5178
  799MOL0     H 7849   0.556   6.709   4.356  0.4049 -0.7555 -0.0575
  799MOL0     H 7850   0.768   6.693   4.228  3.7970 -0.7150 -0.0760
  799MOL0     H 7851   2.563   6.726   3.248 -1.0717  2.0558  2.1980
  799MOL0     H 7852   2.764   6.821   3.295 -2.9817  0.3953 -0.9680
  799MOL0     H 7853   3.159   6.850   3.780  0.5905  2.3266 -1.0533
  799MOL0     H 7854   3.406   6.898   3.786  0.8546 -0.0213 -0.5412
  799MOL0     H 7855   3.643   6.835   3.392  1.6018  1.7724 -0.4016
  799MOL0     H 7856   3.754   6.892   3.519  1.5338 -0.9913 -0.0058
  799MOL0     H 7857   3.786   6.655   3.457 -2.5796  0.4651 -1.7400
  799MOL0     H 7858   3.623   6.622   3.518 -0.0737  0.1973 -3.0000
  799MOL0     H 7859   3.783   6.565   3.700 -2.3075  0.0145 -1.6968
  799MOL0     H 7860   3.678   6.701   3.738 -0.9930  1.3509 -1.4378
  799MOL0     H 7861   3.869   6.769   3.824 -0.7245 -1.0456 -0.3892
  799MOL0     H 7862   3.841   6.861   3.679 -1.9018 -0.2584 -0.9808
  799MOL0     H 7863   4.189   6.616   3.586 -0.0809 -0.2456  0.4314
  799MOL0     H 7864   3.441   6.776   3.380  2.2729  2.1140  1.1908
  799MOL0     H 7865   3.194   6.727   3.376 -0.6200  0.6467 -0.7021
  800MOL0     O 7866  10.929   2.921   5.378  0.0713  0.3219 -0.2916
  800MOL0     C 7867  10.966   2.929   5.261  0.8062 -0.1690  0.1167
  800MOL0     O 7868  10.886   2.944   5.151  0.4840  0.7325 -0.3875
  800MOL0     C 7869  10.748   2.941   5.167 -0.3732 -0.1904 -0.7503
  800MOL0     C 7870  10.678   2.832   5.117 -0.0393 -0.5105  0.1432
  800MOL0     C 7871  10.537   2.832   5.128 -0.3274 -0.2287 -0.4021
  800MOL0     C 7872  10.472   2.934   5.199 -0.6814 -0.5575 -0.0141
  800MOL0     O 7873  10.336   2.929   5.196 -0.8290  0.3974 -0.5716
  800MOL0     C 7874  10.284   2.934   5.059  0.2591 -0.5182  0.5184
  800MOL0     C 7875  10.141   2.989   5.074  0.2023  0.3766  1.1922
  800MOL0     C 7876  10.057   2.874   5.126  0.5161  1.1988  0.2168
  800MOL0     C 7877   9.907   2.896   5.095 -0.1850  0.5826 -0.0595
  800MOL0     C 7878   9.823   2.769   5.117  0.6214  0.0975  0.8112
  800MOL0     C 7879   9.670   2.793   5.091 -0.5645  0.3758  0.2940
  800MOL0     C 7880   9.591   2.670   5.111  0.9904  0.2590  0.4928
  800MOL0     C 7881   9.614   2.562   5.008  0.1367  1.2765  0.6177
  800MOL0     N 7882   9.635   2.626   4.877  0.2911  0.1179 -0.4629
  800MOL0     C 7883   9.751   2.659   4.821 -0.5066  0.4723  0.3029
  800MOL0     C 7884   9.727   2.742   4.717  0.3301 -0.1762 -0.7316
  800MOL0     C 7885   9.821   2.806   4.616  0.1724  0.5974 -0.4564
  800MOL0     C 7886   9.894   2.914   4.687  0.7550  0.3647 -1.0196
  800MOL0     C 7887   9.986   2.975   4.585 -0.2564  0.5270 -0.8648
  800MOL0     C 7888  10.080   3.068   4.657  0.2506  0.1914  0.1623
  800MOL0     O 7889  10.139   3.150   4.554  0.7571  0.4615 -0.2785
  800MOL0     C 7890  10.257   3.113   4.499 -0.2223 -0.3749 -0.8415
  800MOL0     C 7891  10.283   3.153   4.373  0.3407 -0.0177  0.4840
  800MOL0     C 7892  10.411   3.129   4.316  0.9226 -0.5745 -0.2045
  800MOL0     C 7893  10.433   3.190   4.183 -0.1018 -0.0432  0.0090
  800MOL0     C 7894  10.511   3.063   4.394 -0.4620 -0.6604  0.1435
  800MOL0     C 7895  10.646   3.026   4.344 -0.1784  0.2006  0.1003
  800MOL0     O 7896  10.739   2.996   4.436 -0.6136  0.3711  0.5030
  800MOL0     C 7897  10.871   3.023   4.405 -0.1868  0.0674  0.5057
  800MOL0     C 7898  10.950   2.912   4.413  0.2282 -0.4368  0.0164
  800MOL0     C 7899  11.084   2.921   4.390  0.2063  0.0224  0.7623
  800MOL0     C 7900  11.146   3.042   4.361 -0.8306  0.3857  1.2712
  800MOL0     O 7901  11.283   3.042   4.326  0.1638  0.2202  0.2307
  800MOL0     C 7902  11.349   3.165   4.359  0.4787  0.2176 -0.1931
  800MOL0     C 7903  11.496   3.141   4.361  0.5404 -1.1045 -0.0120
  800MOL0     C 7904  11.545   3.089   4.222  0.0815 -0.0566 -0.5828
  800MOL0     C 7905  11.697   3.097   4.233 -0.0841 -0.0380 -0.6136
  800MOL0     C 7906  11.762   3.030   4.117  0.4920  0.1205 -0.2933
  800MOL0     C 7907  11.907   3.052   4.132 -0.5963  0.7915 -0.0416
  800MOL0     C 7908  11.982   2.990   4.010 -0.2924  0.4071  0.2967
  800MOL0     C 7909  12.124   3.017   4.039 -0.0103  1.0423 -0.3025
  800MOL0    Cl 7910  12.181   2.952   4.205  0.3558  0.1018  0.2509
  800MOL0     C 7911  11.069   3.155   4.354  0.4472 -0.0500  0.6524
  800MOL0     C 7912  10.929   3.144   4.370 -0.0795  0.3494  0.2301
  800MOL0     O 7913  10.663   3.016   4.222  0.1027  0.5461 -0.0632
  800MOL0     C 7914  10.481   3.029   4.522 -0.9027  0.2836 -0.5687
  800MOL0     C 7915  10.358   3.056   4.575 -0.1496 -0.4646 -0.1353
  800MOL0     N 7916   9.589   2.750   4.714  0.2427  0.9253 -0.0415
  800MOL0     N 7917   9.534   2.675   4.807 -0.5565  0.4624 -0.6916
  800MOL0     C 7918  10.544   3.053   5.236  0.2600  0.1171  0.5068
  800MOL0     C 7919  10.680   3.054   5.219  0.7127  0.1015 -0.4303
  800MOL0     C 7920  11.113   2.906   5.231  0.1766  0.8872  0.2800
  800MOL0     C 7921  11.203   2.903   5.341  0.0048  0.2556  0.6420
  800MOL0     C 7922  11.341   2.881   5.328  0.5341  0.3963 -0.5856
  800MOL0     C 7923  11.388   2.860   5.195  1.1425 -0.6008 -0.2216
  800MOL0     O 7924  11.521   2.846   5.190  0.4417 -0.3749 -0.3719
  800MOL0     C 7925  11.583   2.804   5.068  0.6635 -0.6126 -0.7975
  800MOL0     C 7926  11.732   2.784   5.106  0.1445 -0.3686 -0.0394
  800MOL0     C 7927  11.758   2.657   5.186 -0.3018 -0.5834  0.3477
  800MOL0     C 7928  11.842   2.560   5.096  0.2588 -0.6835 -0.1766
  800MOL0     C 7929  11.973   2.606   5.050 -0.4682  0.2261 -0.2567
  800MOL0     C 7930  12.075   2.649   5.020 -0.1999 -0.3054  0.7206
  800MOL0     C 7931  11.298   2.863   5.085  0.2057 -0.0165 -0.1964
  800MOL0     C 7932  11.165   2.885   5.103 -0.5821 -0.5025  0.3781
  800MOL0     H 7933  10.733   2.755   5.063  0.9720  0.6814 -0.5805
  800MOL0     H 7934  10.487   2.745   5.087 -1.7716 -1.0014  2.6970
  800MOL0     H 7935  10.334   3.000   4.988 -1.1252  1.7930  1.5688
  800MOL0     H 7936  10.267   2.834   5.016 -0.0030  0.1905 -1.1072
  800MOL0     H 7937  10.148   3.082   5.131  0.3769  2.3035 -1.7294
  800MOL0     H 7938  10.096   3.004   4.975  1.0411 -2.2575  0.3233
  800MOL0     H 7939  10.082   2.775   5.087  4.3748  2.4811 -1.0729
  800MOL0     H 7940  10.076   2.871   5.234 -2.5090  0.1104  0.7970
  800MOL0     H 7941   9.880   2.972   5.169  2.0241  1.0439  0.3677
  800MOL0     H 7942   9.882   2.939   4.997 -1.7855 -1.8892 -0.8017
  800MOL0     H 7943   9.858   2.705   5.035  0.2492  0.2656  0.5183
  800MOL0     H 7944   9.835   2.730   5.218 -1.3731  0.2903  1.1549
  800MOL0     H 7945   9.637   2.871   5.160 -2.9608  1.8190 -2.2806
  800MOL0     H 7946   9.658   2.834   4.991 -2.7509 -0.0380  0.3405
  800MOL0     H 7947   9.636   2.629   5.202  2.9776 -0.3027 -0.6909
  800MOL0     H 7948   9.487   2.700   5.126  0.7542 -0.1737 -0.2173
  800MOL0     H 7949   9.525   2.499   5.010 -0.1242  1.6426  1.9109
  800MOL0     H 7950   9.697   2.495   5.033 -0.1472  0.4432 -0.6047
  800MOL0     H 7951   9.843   2.616   4.858 -0.6771 -0.8420 -0.7235
  800MOL0     H 7952   9.884   2.727   4.575 -1.3541 -0.7981 -0.1932
  800MOL0     H 7953   9.757   2.848   4.538  0.7929 -0.5526 -1.6323
  800MOL0     H 7954   9.948   2.869   4.771 -1.8645 -0.4081  0.3856
  800MOL0     H 7955   9.829   2.984   4.741  0.7390 -0.5839  0.2641
  800MOL0     H 7956   9.941   3.017   4.495  1.3995 -2.6375 -3.3877
  800MOL0     H 7957  10.047   2.897   4.540  1.2901  0.0144  1.8718
  800MOL0     H 7958  10.151   3.012   4.718  1.2520 -1.2678 -2.2026
  800MOL0     H 7959  10.008   3.134   4.706 -0.4365 -0.6996  0.3947
  800MOL0     H 7960  10.206   3.214   4.328  2.2096  0.9586 -1.5629
  800MOL0     H 7961  10.450   3.118   4.102  4.4232 -1.7505  2.1162
  800MOL0     H 7962  10.350   3.250   4.143 -1.8308 -2.3316 -0.0539
  800MOL0     H 7963  10.529   3.241   4.190 -1.7877  3.3303  0.3572
  800MOL0     H 7964  10.898   2.818   4.431 -2.6907  0.9313 -0.6787
  800MOL0     H 7965  11.141   2.829   4.389  0.4083  0.1478  0.2585
  800MOL0     H 7966  11.329   3.244   4.286  0.5415 -2.0946 -2.8761
  800MOL0     H 7967  11.318   3.188   4.462  1.2689 -0.0780  0.1244
  800MOL0     H 7968  11.544   3.234   4.395  0.0566 -0.3509 -1.3280
  800MOL0     H 7969  11.517   3.067   4.438  1.1104  1.2443  2.2572
  800MOL0     H 7970  11.511   3.151   4.138 -0.6145  1.2397  0.6059
  800MOL0     H 7971  11.520   2.986   4.196 -1.0847  0.9385 -3.9363
  800MOL0     H 7972  11.731   3.201   4.229  1.1626 -0.2364  1.9873
  800MOL0     H 7973  11.727   3.061   4.332  2.5113 -0.7148 -1.5589
  800MOL0     H 7974  11.730   3.073   4.022 -1.5294  1.1181  0.7599
  800MOL0     H 7975  11.741   2.923   4.110  1.3721 -0.3805  2.9997
  800MOL0     H 7976  11.936   3.157   4.126 -2.3031  1.2496 -0.7787
  800MOL0     H 7977  11.939   3.008   4.227  0.2941 -0.1935 -0.7607
  800MOL0     H 7978  11.950   3.030   3.913 -0.9978 -1.6679 -0.3780
  800MOL0     H 7979  11.967   2.882   4.017 -0.0010  0.3720  0.4013
  800MOL0     H 7980  12.142   3.125   4.037  0.6347  0.9969  1.4207
  800MOL0     H 7981  12.186   2.979   3.958 -0.2208 -0.6264  0.2912
  800MOL0     H 7982  11.099   3.250   4.312  0.8631 -0.6854 -0.5591
  800MOL0     H 7983  10.868   3.232   4.359  1.9950  1.8335 -0.0821
  800MOL0     H 7984  10.558   2.990   4.588 -3.3894 -1.6035  1.4123
  800MOL0     H 7985  10.354   3.041   4.683 -1.6707 -0.4815 -0.1778
  800MOL0     H 7986  10.500   3.126   5.304  0.0309 -0.1089  0.5992
  800MOL0     H 7987  10.755   3.115   5.267  2.6441 -4.2746  2.8430
  800MOL0     H 7988  11.167   2.924   5.441 -0.7305 -2.3388  0.9974
  800MOL0     H 7989  11.414   2.883   5.409 -0.6472 -0.3684  0.5394
  800MOL0     H 7990  11.537   2.718   5.018 -0.7907 -1.2353  1.4787
  800MOL0     H 7991  11.572   2.889   5.000 -1.5629  0.6192  0.9888
  800MOL0     H 7992  11.764   2.874   5.159 -1.4391  1.2569 -1.6828
  800MOL0     H 7993  11.794   2.786   5.015 -2.5841  0.8228 -2.0013
  800MOL0     H 7994  11.671   2.598   5.216 -0.5681 -1.0143 -1.1789
  800MOL0     H 7995  11.828   2.690   5.264  0.2960  2.5600 -1.3770
  800MOL0     H 7996  11.774   2.550   5.011  0.4377  1.4258 -0.6250
  800MOL0     H 7997  11.858   2.463   5.143 -1.9970 -0.6114  0.8757
  800MOL0     H 7998  12.175   2.680   5.000 -1.0889  2.1284 -0.2778
  800MOL0     H 7999  11.329   2.836   4.984  1.5557  0.2888  0.1215
  800MOL0     H 8000  11.086   2.886   5.027 -1.2124  1.0615  1.0102
  801MOL0     O 8001   9.781   6.874   5.820 -0.2567 -0.3687  0.4453
  801MOL0     C 8002   9.827   6.944   5.729  0.0614 -0.3320  0.3604
  801MOL0     O 8003   9.758   6.984   5.613 -0.3504  0.4111 -0.1582
  801MOL0     C 8004   9.627   6.948   5.581  0.4344  0.3873  0.9539
  801MOL0     C 8005   9.589   6.958   5.446 -0.4327 -0.8369 -0.3566
  801MOL0     C 8006   9.469   6.899   5.394 -0.1777 -0.5475 -0.2767
  801MOL0     C 8007   9.381   6.829   5.483  0.6792  0.3379  0.1724
  801MOL0     O 8008   9.273   6.755   5.449  0.1404 -0.3800  0.2663
  801MOL0     C 8009   9.199   6.776   5.321 -0.0882  0.0265  0.3125
  801MOL0     C 8010   9.126   6.911   5.317  0.5220 -0.0031 -0.0573
  801MOL0     C 8011   8.998   6.918   5.402 -0.1549 -0.1778  0.1686
  801MOL0     C 8012   8.881   6.853   5.335  0.3796  0.6716  0.3737
  801MOL0     C 8013   8.760   6.863   5.420  0.0198 -0.3664 -0.5529
  801MOL0     C 8014   8.634   6.805   5.359  0.5735 -0.2420 -0.6382
  801MOL0     C 8015   8.508   6.832   5.445  0.2886 -0.0345  0.1367
  801MOL0     C 8016   8.381   6.774   5.384 -0.3466  0.2123 -1.3043
  801MOL0     N 8017   8.341   6.838   5.259  0.2021  0.2160  0.6017
  801MOL0     C 8018   8.281   6.770   5.157 -1.2464  0.4574 -0.5356
  801MOL0     C 8019   8.275   6.840   5.045  0.1897 -1.2034 -0.8245
  801MOL0     C 8020   8.224   6.797   4.917 -0.0389  0.5704 -0.3313
  801MOL0     C 8021   8.147   6.660   4.911  0.1560  0.6113 -0.5586
  801MOL0     C 8022   7.999   6.683   4.950  0.3859  0.0390 -0.1579
  801MOL0     C 8023   7.917   6.554   4.929  0.6424  0.1687 -0.5733
  801MOL0     O 8024   7.783   6.592   4.901  0.4930 -0.2679  0.8283
  801MOL0     C 8025   7.673   6.515   4.922  0.3440 -0.7743  0.3207
  801MOL0     C 8026   7.679   6.376   4.949 -0.1952 -0.1251 -0.2209
  801MOL0     C 8027   7.567   6.297   4.975  0.3303  0.5294 -0.3852
  801MOL0     C 8028   7.584   6.149   4.999  0.2069  0.2735 -0.3849
  801MOL0     C 8029   7.442   6.360   4.978  0.0515  0.2344  0.2749
  801MOL0     C 8030   7.311   6.285   5.017  1.0931 -0.6546  0.0138
  801MOL0     O 8031   7.302   6.151   4.985 -0.2925  0.4655  0.3224
  801MOL0     C 8032   7.172   6.101   4.972  0.5003  0.1354 -1.3448
  801MOL0     C 8033   7.160   5.976   5.031 -0.0776  0.4070 -0.3466
  801MOL0     C 8034   7.035   5.917   5.013  0.2829 -1.1113 -0.8018
  801MOL0     C 8035   6.924   5.980   4.956  0.4083  0.2429  0.1180
  801MOL0     O 8036   6.804   5.914   4.964  0.6264 -0.8820 -0.1874
  801MOL0     C 8037   6.675   5.973   4.935  0.3690 -0.1204  0.4385
  801MOL0     C 8038   6.643   5.972   4.777 -0.6259 -0.6208 -0.2820
  801MOL0     C 8039   6.490   5.999   4.748  0.3033 -1.0321  0.4039
  801MOL0     C 8040   6.400   5.877   4.756 -0.9132  0.7127 -0.9842
  801MOL0     C 8041   6.254   5.911   4.729  0.1406  0.6253  0.2696
  801MOL0     C 8042   6.165   5.777   4.745 -0.1810  0.4550  0.1288
  801MOL0     C 8043   6.218   5.665   4.644  0.4433  0.0676 -0.0953
  801MOL0     C 8044   6.137   5.536   4.682 -0.4187 -0.0508 -0.0156
  801MOL0    Cl 8045   6.150   5.417   4.551 -0.2961 -0.3140  0.1790
  801MOL0     C 8046   6.950   6.105   4.900 -0.9921 -0.2175 -0.0417
  801MOL0     C 8047   7.066   6.174   4.912  0.0995 -0.5141 -0.8467
  801MOL0     O 8048   7.221   6.353   5.076  0.1987  0.1465  0.7372
  801MOL0     C 8049   7.435   6.503   4.957  0.1407 -0.3231  0.8322
  801MOL0     C 8050   7.550   6.576   4.924  0.1573 -0.2887 -0.5129
  801MOL0     N 8051   8.324   6.962   5.091  0.9479  0.1497  0.6068
  801MOL0     N 8052   8.365   6.964   5.213  0.3070  0.8708 -0.4087
  801MOL0     C 8053   9.421   6.822   5.618  0.4285 -0.8449 -0.2626
  801MOL0     C 8054   9.538   6.881   5.665 -0.0804  0.4336 -0.3350
  801MOL0     C 8055   9.964   7.004   5.746  1.0150 -0.2778  1.1113
  801MOL0     C 8056  10.044   6.953   5.851 -0.5508 -0.9951 -0.2961
  801MOL0     C 8057  10.175   7.002   5.866 -0.2678 -0.5138 -0.3714
  801MOL0     C 8058  10.223   7.091   5.768  0.2055 -0.7150  0.1255
  801MOL0     O 8059  10.345   7.149   5.785  0.4227 -0.1287  0.4091
  801MOL0     C 8060  10.440   7.124   5.892 -0.6674  0.7110 -0.2304
  801MOL0     C 8061  10.579   7.182   5.867  0.6036 -0.4396 -0.5748
  801MOL0     C 8062  10.560   7.325   5.846 -0.1279 -1.0049  0.1385
  801MOL0     C 8063  10.694   7.406   5.854  0.1503  0.3469  0.9015
  801MOL0     C 8064  10.781   7.379   5.735  0.4623 -0.3906  0.5626
  801MOL0     C 8065  10.852   7.354   5.638  0.0874 -0.3059  0.3905
  801MOL0     C 8066  10.154   7.114   5.659  0.4957 -0.4120  0.1586
  801MOL0     C 8067  10.018   7.079   5.640  0.0706 -0.1116 -0.1673
  801MOL0     H 8068   9.667   6.987   5.376  1.0622 -1.4064  1.0062
  801MOL0     H 8069   9.439   6.893   5.290  0.8222  2.8408 -0.8925
  801MOL0     H 8070   9.271   6.768   5.239 -0.7316 -0.4109 -0.2210
  801MOL0     H 8071   9.136   6.693   5.287  2.1412 -0.4318 -3.3083
  801MOL0     H 8072   9.186   7.002   5.330 -0.1924  0.4600  0.0626
  801MOL0     H 8073   9.093   6.907   5.213 -0.5452 -0.2049  0.2791
  801MOL0     H 8074   9.011   6.882   5.504  2.4761  0.6318  0.1939
  801MOL0     H 8075   8.975   7.024   5.418  0.7956  0.0313  0.2506
  801MOL0     H 8076   8.862   6.906   5.241  1.0233 -3.0329 -2.0303
  801MOL0     H 8077   8.894   6.748   5.310 -0.5067  1.2347 -2.8944
  801MOL0     H 8078   8.783   6.811   5.513  0.8687 -0.3434 -0.7458
  801MOL0     H 8079   8.750   6.970   5.442  2.8034 -0.5083  1.8572
  801MOL0     H 8080   8.625   6.846   5.258 -0.5264 -1.1860 -0.9530
  801MOL0     H 8081   8.660   6.699   5.359  4.5714  0.5129  2.3692
  801MOL0     H 8082   8.543   6.797   5.542  2.9391  1.4536 -0.1760
  801MOL0     H 8083   8.491   6.940   5.456 -2.2396 -0.3191 -0.3710
  801MOL0     H 8084   8.298   6.794   5.451  0.9782  2.2593 -0.1355
  801MOL0     H 8085   8.387   6.666   5.370  0.9806  0.0299  0.2926
  801MOL0     H 8086   8.259   6.664   5.166 -1.0466  0.5929  2.9093
  801MOL0     H 8087   8.161   6.877   4.877 -2.1584 -0.9474 -0.2084
  801MOL0     H 8088   8.311   6.783   4.852  0.6272  3.0831 -0.0898
  801MOL0     H 8089   8.192   6.580   4.971  0.8772  0.3751 -1.3966
  801MOL0     H 8090   8.145   6.619   4.810 -0.0744  1.1955 -0.7952
  801MOL0     H 8091   7.950   6.756   4.884 -0.7663  0.4159  1.0660
  801MOL0     H 8092   7.998   6.706   5.057 -0.0239 -0.2997 -0.0843
  801MOL0     H 8093   7.915   6.490   5.018  1.7535  0.4169 -0.3631
  801MOL0     H 8094   7.966   6.500   4.847  1.4745  1.3594 -0.8791
  801MOL0     H 8095   7.771   6.321   4.956  0.1567  0.6568  2.8575
  801MOL0     H 8096   7.551   6.124   5.101  0.5184 -0.0585 -0.3626
  801MOL0     H 8097   7.532   6.087   4.926  1.1951 -0.5473 -0.4091
  801MOL0     H 8098   7.689   6.122   4.993  0.7212  1.7302  1.1933
  801MOL0     H 8099   7.246   5.926   5.073 -0.4220  0.6406  0.6662
  801MOL0     H 8100   7.017   5.823   5.064  0.8059  2.1671  6.8158
  801MOL0     H 8101   6.608   5.912   4.996  3.3393 -1.0247  3.0352
  801MOL0     H 8102   6.667   6.078   4.962 -1.8519 -0.0887 -0.1284
  801MOL0     H 8103   6.710   6.042   4.726  0.1042  0.7308  2.3626
  801MOL0     H 8104   6.655   5.871   4.736 -1.8477 -1.3825  1.1123
  801MOL0     H 8105   6.479   6.036   4.646 -3.1207 -2.1194  0.2503
  801MOL0     H 8106   6.451   6.077   4.815 -0.2975 -2.2032  1.4620
  801MOL0     H 8107   6.428   5.813   4.672  2.6254  2.3694 -1.2459
  801MOL0     H 8108   6.411   5.822   4.850  0.1902  1.0900 -0.8792
  801MOL0     H 8109   6.243   5.929   4.622  1.5551 -0.8211 -0.1583
  801MOL0     H 8110   6.201   5.993   4.778 -2.3570 -1.5022  1.3964
  801MOL0     H 8111   6.180   5.742   4.847  0.0772 -0.4112 -0.1980
  801MOL0     H 8112   6.058   5.792   4.724  0.0976  0.1839 -1.6631
  801MOL0     H 8113   6.324   5.642   4.656  1.0097  2.5855  0.5069
  801MOL0     H 8114   6.202   5.702   4.543 -0.7141 -1.4034 -0.4800
  801MOL0     H 8115   6.033   5.568   4.688 -0.3461  0.3885 -1.0009
  801MOL0     H 8116   6.159   5.495   4.782 -2.8447  1.2722  1.1390
  801MOL0     H 8117   6.858   6.145   4.858 -1.1809 -2.6661 -2.2099
  801MOL0     H 8118   7.086   6.271   4.867  0.1021  1.0552  2.2781
  801MOL0     H 8119   7.336   6.546   4.962  0.1135 -0.3371  0.4478
  801MOL0     H 8120   7.538   6.684   4.919  2.5073  0.1413  1.5385
  801MOL0     H 8121   9.352   6.779   5.690 -0.7534  0.3012 -0.6852
  801MOL0     H 8122   9.556   6.876   5.772 -0.9884 -0.2554 -0.2070
  801MOL0     H 8123   9.994   6.885   5.919  0.1411 -0.4390  0.7826
  801MOL0     H 8124  10.217   6.982   5.964  2.0161  1.6475 -0.8102
  801MOL0     H 8125  10.396   7.172   5.979 -0.5690  0.8545 -0.2590
  801MOL0     H 8126  10.462   7.017   5.899  1.2574  0.9834 -1.2990
  801MOL0     H 8127  10.638   7.133   5.789  1.2287 -0.5316 -0.0495
  801MOL0     H 8128  10.635   7.168   5.960 -0.4647 -1.0349 -0.0069
  801MOL0     H 8129  10.502   7.373   5.926 -0.9051  1.1919 -1.6430
  801MOL0     H 8130  10.516   7.348   5.748 -0.2985  0.2691  0.4872
  801MOL0     H 8131  10.756   7.382   5.941 -0.4997  0.9839  1.5486
  801MOL0     H 8132  10.665   7.511   5.864  1.3766  0.8983 -0.8556
  801MOL0     H 8133  10.914   7.333   5.554 -1.4339 -2.8358 -0.2111
  801MOL0     H 8134  10.199   7.172   5.579  1.3997  0.0272  0.9769
  801MOL0     H 8135   9.960   7.097   5.550 -2.1096 -1.7846  0.8294
  802MOL0     O 8136  10.941   8.653   0.255  0.5223 -0.1275  0.0974
  802MOL0     C 8137  11.007   8.647   0.359 -1.1064 -0.0954  0.0535
  802MOL0     O 8138  10.964   8.624   0.481 -0.2175  0.0564 -0.2831
  802MOL0     C 8139  10.846   8.561   0.489  0.5610 -0.7074  0.3919
  802MOL0     C 8140  10.854   8.430   0.492 -0.4773  0.8335 -0.8864
  802MOL0     C 8141  10.737   8.353   0.522  0.1230  0.2923  0.5650
  802MOL0     C 8142  10.612   8.412   0.544 -0.3067  0.4057  1.0390
  802MOL0     O 8143  10.496   8.333   0.567  0.3587  0.1322 -0.3267
  802MOL0     C 8144  10.388   8.394   0.646  0.0416  0.7296  1.4668
  802MOL0     C 8145  10.286   8.283   0.677  0.2023 -1.0595  0.3003
  802MOL0     C 8146  10.238   8.206   0.552  0.8750 -0.3777 -0.0969
  802MOL0     C 8147  10.110   8.127   0.596 -0.5119 -0.8962  0.4171
  802MOL0     C 8148  10.077   8.013   0.503 -0.4353  0.0094  0.9756
  802MOL0     C 8149   9.940   7.953   0.532 -0.0879  0.0042 -0.6413
  802MOL0     C 8150   9.916   7.894   0.678 -0.3324 -0.1070 -0.6601
  802MOL0     C 8151   9.770   7.858   0.694 -0.5350  0.6197 -0.2593
  802MOL0     N 8152   9.679   7.973   0.732 -0.2972  0.9692  0.1629
  802MOL0     C 8153   9.555   7.989   0.674 -0.5566  0.4849  0.1635
  802MOL0     C 8154   9.513   8.111   0.720  0.4969 -0.1024  0.7232
  802MOL0     C 8155   9.382   8.176   0.696  0.0233 -0.3507  0.2104
  802MOL0     C 8156   9.381   8.330   0.709  0.1192 -0.0736 -0.5774
  802MOL0     C 8157   9.242   8.381   0.727  0.6905  0.5731  0.7955
  802MOL0     C 8158   9.164   8.339   0.604 -0.5090 -0.9992  0.5084
  802MOL0     O 8159   9.064   8.437   0.581 -0.4132  0.0461  0.3488
  802MOL0     C 8160   8.958   8.437   0.662  0.2525  0.5141 -0.4367
  802MOL0     C 8161   8.914   8.338   0.752 -0.2434 -0.5422 -0.4556
  802MOL0     C 8162   8.797   8.350   0.816  0.7691 -0.1353 -0.2854
  802MOL0     C 8163   8.764   8.233   0.914 -0.1721 -0.5381  0.3475
  802MOL0     C 8164   8.701   8.460   0.789 -0.7039 -0.2874  0.2304
  802MOL0     C 8165   8.570   8.490   0.856 -0.2871 -0.0067  0.9624
  802MOL0     O 8166   8.523   8.617   0.847  0.4522 -0.4540  0.0245
  802MOL0     C 8167   8.405   8.635   0.924  0.7412  0.1443 -0.2808
  802MOL0     C 8168   8.421   8.688   1.049  0.2517  0.6210 -0.9145
  802MOL0     C 8169   8.316   8.695   1.137  0.1580  0.1754 -0.9314
  802MOL0     C 8170   8.188   8.636   1.103 -0.1424 -0.2290  0.1547
  802MOL0     O 8171   8.092   8.646   1.204 -0.1277 -0.0957  0.0759
  802MOL0     C 8172   7.954   8.601   1.185  0.1762  0.5750  0.4917
  802MOL0     C 8173   7.880   8.589   1.317 -0.5649  0.1519  0.0569
  802MOL0     C 8174   7.734   8.590   1.292 -0.5882 -0.1761  0.6498
  802MOL0     C 8175   7.673   8.554   1.429 -0.4703  1.3097  0.4432
  802MOL0     C 8176   7.520   8.553   1.433  0.0236  0.0802  0.4348
  802MOL0     C 8177   7.458   8.463   1.546 -0.5369 -0.2524  0.4496
  802MOL0     C 8178   7.308   8.476   1.532  0.6194 -1.3230  0.4503
  802MOL0     C 8179   7.234   8.368   1.611 -0.0767  0.4887 -0.3971
  802MOL0    Cl 8180   7.316   8.353   1.772  0.3783 -0.1099 -0.0542
  802MOL0     C 8181   8.171   8.600   0.967 -0.0798  0.2747  0.2440
  802MOL0     C 8182   8.277   8.599   0.878 -0.0245  0.4597 -0.2765
  802MOL0     O 8183   8.516   8.395   0.910 -0.6014  0.3449 -0.7710
  802MOL0     C 8184   8.754   8.559   0.703  0.0914  0.8005  0.5658
  802MOL0     C 8185   8.878   8.550   0.648 -1.0455 -0.1366  0.2317
  802MOL0     N 8186   9.611   8.160   0.805 -0.0075  0.2842  0.3734
  802MOL0     N 8187   9.703   8.065   0.826  0.7639 -0.7561  0.2521
  802MOL0     C 8188  10.607   8.550   0.524  0.4220 -0.6171 -0.0202
  802MOL0     C 8189  10.718   8.625   0.499 -0.0184 -0.5630 -0.2886
  802MOL0     C 8190  11.149   8.694   0.354 -0.2057  0.4538 -0.5612
  802MOL0     C 8191  11.240   8.616   0.428  0.3620 -0.1700 -0.1830
  802MOL0     C 8192  11.370   8.659   0.448  0.2365 -0.9973 -0.7277
  802MOL0     C 8193  11.403   8.788   0.397 -0.1059 -0.6014  0.2504
  802MOL0     O 8194  11.524   8.840   0.423  0.0784  0.6181 -0.1723
  802MOL0     C 8195  11.562   8.975   0.379  0.6054  0.0606  0.0498
  802MOL0     C 8196  11.706   9.009   0.421 -0.1934 -0.4460  0.5236
  802MOL0     C 8197  11.801   8.896   0.411 -0.6511  0.2532 -0.0750
  802MOL0     C 8198  11.933   8.912   0.485  0.3327 -0.2483 -0.9439
  802MOL0     C 8199  12.030   9.022   0.449  0.8970  0.9032 -0.1303
  802MOL0     C 8200  12.118   9.103   0.425  0.4598  0.2770  1.2634
  802MOL0     C 8201  11.310   8.859   0.318  0.1738 -0.4453 -0.3632
  802MOL0     C 8202  11.180   8.816   0.300  0.0289 -1.1890  0.6858
  802MOL0     H 8203  10.951   8.382   0.485 -0.4917  0.1485  2.1209
  802MOL0     H 8204  10.726   8.247   0.542 -3.7744  0.8151  2.0782
  802MOL0     H 8205  10.437   8.436   0.734  0.8259  2.7702  0.1571
  802MOL0     H 8206  10.324   8.468   0.596 -2.2393 -0.9094  1.8142
  802MOL0     H 8207  10.331   8.218   0.753  1.9261 -0.3801 -0.0832
  802MOL0     H 8208  10.195   8.327   0.718 -2.9385 -3.5746 -3.2608
  802MOL0     H 8209  10.216   8.268   0.465  1.4595  1.9087  1.2705
  802MOL0     H 8210  10.317   8.135   0.526 -0.3287 -1.7423 -0.1331
  802MOL0     H 8211  10.136   8.085   0.694  0.0919 -0.7872  0.3105
  802MOL0     H 8212  10.028   8.198   0.587  1.3150  1.1672 -1.4118
  802MOL0     H 8213  10.075   8.051   0.400  0.2617  0.6244  1.1805
  802MOL0     H 8214  10.161   7.943   0.496 -0.2225  0.2941  0.6429
  802MOL0     H 8215   9.866   8.029   0.502 -0.8995 -0.8084 -0.7441
  802MOL0     H 8216   9.931   7.869   0.462 -0.6992 -0.5175  0.0578
  802MOL0     H 8217   9.984   7.809   0.679  0.0668  0.1837 -1.8478
  802MOL0     H 8218   9.957   7.955   0.759  1.9418 -1.6855 -0.5449
  802MOL0     H 8219   9.779   7.789   0.778  1.9672 -0.4992 -1.3691
  802MOL0     H 8220   9.726   7.802   0.611 -1.1603 -0.5715  0.8488
  802MOL0     H 8221   9.493   7.918   0.619 -0.5158  1.5816 -1.3707
  802MOL0     H 8222   9.362   8.152   0.591 -2.2026  1.2379  0.2026
  802MOL0     H 8223   9.309   8.124   0.757  0.4988 -1.9537 -0.5336
  802MOL0     H 8224   9.423   8.369   0.617 -1.3083 -0.8237 -1.5909
  802MOL0     H 8225   9.433   8.372   0.796 -1.8772  0.9387  0.1998
  802MOL0     H 8226   9.247   8.490   0.739  0.8801  0.5649  0.7821
  802MOL0     H 8227   9.199   8.327   0.811  2.5823 -0.5902  1.0531
  802MOL0     H 8228   9.130   8.235   0.594  1.7260 -1.5391 -4.2920
  802MOL0     H 8229   9.232   8.350   0.519  1.5753  0.2751  2.2397
  802MOL0     H 8230   8.980   8.255   0.776 -1.3779 -1.7593 -1.3949
  802MOL0     H 8231   8.838   8.154   0.899 -0.2858 -0.8707  1.4418
  802MOL0     H 8232   8.768   8.267   1.018 -1.9577 -1.0163  0.6037
  802MOL0     H 8233   8.668   8.187   0.888 -1.8436  2.1929  1.2371
  802MOL0     H 8234   8.514   8.737   1.076 -0.5238  2.1715 -0.9198
  802MOL0     H 8235   8.332   8.723   1.240 -0.0949  1.9218 -1.3450
  802MOL0     H 8236   7.895   8.666   1.120 -1.0215 -2.3587 -1.5651
  802MOL0     H 8237   7.958   8.504   1.135 -0.1492  1.2926 -0.9629
  802MOL0     H 8238   7.913   8.491   1.352  1.0922  0.5329 -0.3174
  802MOL0     H 8239   7.917   8.664   1.388 -0.1439  0.8348 -0.8467
  802MOL0     H 8240   7.711   8.497   1.240 -2.0861  1.2510 -1.4298
  802MOL0     H 8241   7.689   8.675   1.239 -1.2645 -0.8150  0.1850
  802MOL0     H 8242   7.704   8.453   1.459  0.3459  1.3838 -0.1229
  802MOL0     H 8243   7.713   8.625   1.502  3.0204  1.3708 -1.3101
  802MOL0     H 8244   7.473   8.526   1.338  0.2193  2.4493 -0.4008
  802MOL0     H 8245   7.489   8.658   1.441  1.2633  0.3956  1.3558
  802MOL0     H 8246   7.489   8.358   1.535  0.2697  0.0227 -0.0335
  802MOL0     H 8247   7.503   8.492   1.642 -0.6132 -0.6981  0.6249
  802MOL0     H 8248   7.272   8.465   1.430  0.4326  0.1164  0.3465
  802MOL0     H 8249   7.269   8.573   1.564  1.2347 -1.0663  0.4433
  802MOL0     H 8250   7.242   8.274   1.556  0.8718  1.0552 -1.2429
  802MOL0     H 8251   7.127   8.389   1.622  0.1327  1.1615  0.5201
  802MOL0     H 8252   8.073   8.563   0.937  0.0384  0.2763 -0.1434
  802MOL0     H 8253   8.272   8.560   0.777  3.2585  1.3007 -0.8941
  802MOL0     H 8254   8.697   8.647   0.675  1.2986  1.0348 -1.3422
  802MOL0     H 8255   8.909   8.634   0.586  1.2003 -1.5096 -0.6288
  802MOL0     H 8256  10.511   8.601   0.530  0.3270 -0.4977 -1.9514
  802MOL0     H 8257  10.704   8.732   0.490 -1.6880 -0.7318 -0.0496
  802MOL0     H 8258  11.215   8.518   0.469  0.3288 -0.1463 -0.1468
  802MOL0     H 8259  11.458   8.611   0.490 -0.4149 -1.0959  0.5614
  802MOL0     H 8260  11.556   8.975   0.270 -2.3942  2.6395  0.0620
  802MOL0     H 8261  11.484   9.041   0.418 -2.4802 -2.3322 -1.6047
  802MOL0     H 8262  11.714   9.053   0.521  2.1759  1.1148 -0.2700
  802MOL0     H 8263  11.739   9.084   0.349  0.9599 -1.5185 -0.1068
  802MOL0     H 8264  11.822   8.885   0.304  0.6469  0.5597  0.1295
  802MOL0     H 8265  11.758   8.800   0.437  0.5412 -0.8288 -1.8792
  802MOL0     H 8266  11.982   8.815   0.479  1.0709  0.1334 -1.3343
  802MOL0     H 8267  11.897   8.941   0.584 -1.7709 -0.6256 -1.5489
  802MOL0     H 8268  12.194   9.171   0.392  0.6170 -1.5929 -2.6908
  802MOL0     H 8269  11.328   8.955   0.271 -3.6644 -0.5146 -2.3461
  802MOL0     H 8270  11.108   8.886   0.259  2.0173  0.9435  0.6342
  803MOL0     O 8271   2.915  10.817   0.641  0.3627  0.2694 -0.2833
  803MOL0     C 8272   2.929  10.924   0.689 -0.2809 -0.3441 -0.3176
  803MOL0     O 8273   2.837  11.025   0.707 -0.2532 -1.2405  0.2321
  803MOL0     C 8274   2.699  11.003   0.699 -0.1474 -0.2767  0.1425
  803MOL0     C 8275   2.627  10.907   0.615  0.4772 -0.5506 -0.0516
  803MOL0     C 8276   2.489  10.906   0.605  0.1339  0.2457 -0.9824
  803MOL0     C 8277   2.418  10.994   0.684 -0.4364  0.2142 -0.2847
  803MOL0     O 8278   2.285  11.000   0.665 -0.2451 -0.3491 -0.3892
  803MOL0     C 8279   2.241  11.123   0.596 -0.4570  0.1865 -0.6004
  803MOL0     C 8280   2.116  11.078   0.519  0.6403 -0.0750 -0.2996
  803MOL0     C 8281   2.001  11.063   0.619 -0.1923  0.7750  0.2569
  803MOL0     C 8282   1.880  10.994   0.554 -0.2630  0.5019 -0.3151
  803MOL0     C 8283   1.750  10.980   0.641  0.0805  0.8719 -0.1363
  803MOL0     C 8284   1.623  10.958   0.556  0.5430 -0.1734 -0.0098
  803MOL0     C 8285   1.495  10.974   0.634  0.1389 -0.6395  0.3033
  803MOL0     C 8286   1.366  10.976   0.540 -0.5279  0.6434 -0.8716
  803MOL0     N 8287   1.248  10.986   0.623 -0.1990  0.3377 -0.0502
  803MOL0     C 8288   1.145  10.892   0.651  0.0267  0.0886 -1.4348
  803MOL0     C 8289   1.057  10.956   0.737  1.2211  0.6392 -0.1045
  803MOL0     C 8290   0.919  10.921   0.799  0.5847 -0.0013 -0.4190
  803MOL0     C 8291   0.937  10.885   0.948  0.0006  0.0840 -0.0147
  803MOL0     C 8292   0.831  10.793   0.999  0.1219  0.2185  0.0839
  803MOL0     C 8293   0.690  10.848   0.991  1.0364  0.5452 -0.0873
  803MOL0     O 8294   0.586  10.744   1.006  0.6374 -0.1213  0.7146
  803MOL0     C 8295   0.447  10.782   1.017 -0.2885  1.0159 -0.0256
  803MOL0     C 8296   0.352  10.682   1.028 -0.0011  0.7240 -0.5909
  803MOL0     C 8297   0.211  10.699   1.030 -0.2048 -0.7404 -0.6234
  803MOL0     C 8298   0.122  10.574   1.037 -0.3328  0.3508  0.9175
  803MOL0     C 8299   0.160  10.834   1.017  0.3763  0.6645 -0.3398
  803MOL0     C 8300   0.016  10.870   1.010  0.4508  0.2260  0.5746
  803MOL0     O 8301  -0.013  10.971   0.924  0.1758 -0.1003  0.5208
  803MOL0     C 8302  -0.138  11.019   0.937  0.3248  0.0148 -0.4198
  803MOL0     C 8303  -0.176  11.107   1.043 -0.0306 -0.7819  0.2401
  803MOL0     C 8304  -0.309  11.148   1.056 -0.2372  0.2629 -0.0650
  803MOL0     C 8305  -0.409  11.087   0.974 -0.9633  0.0032 -0.4536
  803MOL0     O 8306  -0.541  11.110   0.986 -0.2066  1.7634  0.1588
  803MOL0     C 8307  -0.576  11.226   1.063  0.0208 -0.4090 -0.2854
  803MOL0     C 8308  -0.726  11.253   1.033  0.6454  0.5179 -0.0398
  803MOL0     C 8309  -0.756  11.405   1.040  0.0656 -0.1523 -0.1271
  803MOL0     C 8310  -0.872  11.446   0.951  0.1798  0.7095  0.4694
  803MOL0     C 8311  -0.923  11.583   0.966  0.2343 -0.8264  0.5983
  803MOL0     C 8312  -0.966  11.635   1.099  0.3196  0.2210 -0.1490
  803MOL0     C 8313  -1.061  11.763   1.079 -0.7331 -0.1024  0.7806
  803MOL0     C 8314  -1.122  11.800   1.218  0.5514  0.6558  0.1572
  803MOL0    Cl 8315  -1.016  11.899   1.325 -0.1855  0.1086 -0.5128
  803MOL0     C 8316  -0.370  10.998   0.875 -0.1759 -0.3655 -0.8390
  803MOL0     C 8317  -0.240  10.971   0.850 -0.5023  0.0690 -0.6144
  803MOL0     O 8318  -0.058  10.809   1.085  0.0054  0.5233 -0.6747
  803MOL0     C 8319   0.256  10.936   1.006 -0.8565  0.1133 -0.2323
  803MOL0     C 8320   0.392  10.910   1.008  0.5903  0.0522  0.1953
  803MOL0     N 8321   1.114  11.078   0.761 -0.1705  0.6583 -0.5288
  803MOL0     N 8322   1.219  11.101   0.680  0.1673 -0.7778 -0.6146
  803MOL0     C 8323   2.483  11.087   0.766 -0.2319  0.4636  0.3182
  803MOL0     C 8324   2.623  11.093   0.768 -0.0968  0.0811 -0.2060
  803MOL0     C 8325   3.071  10.962   0.732  0.1534 -0.5958 -0.0659
  803MOL0     C 8326   3.103  11.084   0.798 -0.3356  0.3821  0.7934
  803MOL0     C 8327   3.236  11.112   0.836  0.7200  0.2525 -0.0447
  803MOL0     C 8328   3.339  11.020   0.821 -0.3209 -0.7574 -0.3261
  803MOL0     O 8329   3.473  11.042   0.856  0.3668 -0.3164  0.4216
  803MOL0     C 8330   3.499  11.133   0.965 -0.6058 -0.0456  0.1886
  803MOL0     C 8331   3.649  11.111   0.996 -0.3295 -0.2600  0.1646
  803MOL0     C 8332   3.691  10.962   1.018  0.8320  0.2940 -0.3664
  803MOL0     C 8333   3.839  10.929   0.993 -0.0905 -0.1966 -0.0926
  803MOL0     C 8334   3.884  10.925   0.851  0.4293 -0.2380  0.0152
  803MOL0     C 8335   3.927  10.912   0.740 -0.3535 -0.2818  0.3122
  803MOL0     C 8336   3.314  10.908   0.751 -0.4249 -0.1500 -0.3530
  803MOL0     C 8337   3.183  10.883   0.704  0.2313  1.0948 -0.2196
  803MOL0     H 8338   2.675  10.846   0.539  2.5012  0.2739  0.4949
  803MOL0     H 8339   2.430  10.844   0.539  0.1849 -0.3713 -0.4539
  803MOL0     H 8340   2.219  11.198   0.672 -0.1275 -1.4992  1.2474
  803MOL0     H 8341   2.318  11.158   0.526  0.2971 -1.0718 -0.4349
  803MOL0     H 8342   2.086  11.155   0.448  1.7226 -0.9178 -1.7249
  803MOL0     H 8343   2.136  10.984   0.468  2.3979 -0.0457  0.2519
  803MOL0     H 8344   2.038  11.000   0.700 -0.1008  2.2510  1.3988
  803MOL0     H 8345   1.975  11.160   0.662  0.4164  0.6511  0.9322
  803MOL0     H 8346   1.852  11.056   0.469  0.2888 -0.9874 -1.6492
  803MOL0     H 8347   1.902  10.896   0.509  1.3168  1.8609 -2.7426
  803MOL0     H 8348   1.773  10.906   0.718  0.0593  2.8632  1.9200
  803MOL0     H 8349   1.726  11.078   0.685  0.4868  1.5411 -1.3645
  803MOL0     H 8350   1.628  11.025   0.470  2.7120 -2.5895 -1.9328
  803MOL0     H 8351   1.617  10.857   0.515  1.8596  0.0467 -0.7938
  803MOL0     H 8352   1.478  10.896   0.709  3.8604 -0.7411  1.2326
  803MOL0     H 8353   1.497  11.064   0.695  5.1327 -1.8889  2.4417
  803MOL0     H 8354   1.360  10.886   0.479 -1.7071 -0.6423  1.0442
  803MOL0     H 8355   1.392  11.066   0.483  2.1104 -1.1817 -2.7554
  803MOL0     H 8356   1.130  10.794   0.609 -0.5752  0.1807 -1.4529
  803MOL0     H 8357   0.859  11.009   0.773  0.0840 -0.9726 -2.7522
  803MOL0     H 8358   0.880  10.835   0.745  0.1568  0.9434 -1.6612
  803MOL0     H 8359   0.941  10.971   1.015  0.2380 -0.3347  0.5188
  803MOL0     H 8360   1.034  10.834   0.959  0.0131  0.4142  1.5104
  803MOL0     H 8361   0.841  10.774   1.106  0.0895  2.1315  0.4590
  803MOL0     H 8362   0.835  10.701   0.939  0.6258  0.3476 -0.0863
  803MOL0     H 8363   0.668  10.896   0.895  2.1587 -0.1376 -0.7217
  803MOL0     H 8364   0.681  10.929   1.064  0.2759  0.7065 -0.3524
  803MOL0     H 8365   0.389  10.581   1.034 -1.0371  0.2521 -1.6655
  803MOL0     H 8366   0.034  10.586   0.972  0.4671 -1.0945 -0.5054
  803MOL0     H 8367   0.169  10.480   1.007  0.7833  0.9279  0.7977
  803MOL0     H 8368   0.089  10.575   1.141  3.2409  3.5023  2.2525
  803MOL0     H 8369  -0.093  11.131   1.109  1.0302 -0.1378 -1.2521
  803MOL0     H 8370  -0.332  11.225   1.129  1.9431 -0.0399  1.0205
  803MOL0     H 8371  -0.568  11.221   1.172 -3.4261 -2.4314 -0.0076
  803MOL0     H 8372  -0.512  11.308   1.029  1.6690 -1.2597  0.6306
  803MOL0     H 8373  -0.742  11.230   0.927  0.0801  1.5411 -0.1896
  803MOL0     H 8374  -0.786  11.187   1.096 -1.8010 -0.0598 -2.7108
  803MOL0     H 8375  -0.669  11.462   1.006 -0.3120  1.8033  1.9844
  803MOL0     H 8376  -0.758  11.447   1.141  1.4816  2.3699 -1.0554
  803MOL0     H 8377  -0.859  11.424   0.845  1.4017  1.3910  0.4548
  803MOL0     H 8378  -0.953  11.377   0.975 -0.0129  0.0163 -1.8897
  803MOL0     H 8379  -1.010  11.578   0.900 -0.7802  2.1258  1.5603
  803MOL0     H 8380  -0.846  11.643   0.917  0.7471 -1.1720  0.9684
  803MOL0     H 8381  -1.025  11.554   1.144  2.4814 -1.0569  0.5619
  803MOL0     H 8382  -0.875  11.659   1.154 -0.7469 -0.5983  2.0884
  803MOL0     H 8383  -1.140  11.739   1.007  0.9111 -0.2658 -1.0487
  803MOL0     H 8384  -1.000  11.841   1.034  0.8870 -2.1975 -0.8152
  803MOL0     H 8385  -1.149  11.706   1.268  1.8280 -0.6976 -1.5901
  803MOL0     H 8386  -1.213  11.857   1.199  1.0835  0.9208 -1.7761
  803MOL0     H 8387  -0.445  10.938   0.823 -1.4022 -2.5063  2.9565
  803MOL0     H 8388  -0.199  10.906   0.773  0.0702  2.4241 -2.4433
  803MOL0     H 8389   0.223  11.039   0.998 -2.0817  0.0030  2.3396
  803MOL0     H 8390   0.460  10.991   0.983  0.1303  1.0034  1.8353
  803MOL0     H 8391   2.415  11.154   0.819  1.8371  1.6455  1.6453
  803MOL0     H 8392   2.671  11.168   0.830 -2.0796  1.7327 -0.5598
  803MOL0     H 8393   3.021  11.153   0.815 -0.2637  0.8012 -0.4793
  803MOL0     H 8394   3.255  11.208   0.883  2.4103  0.0246 -0.2014
  803MOL0     H 8395   3.477  11.234   0.929 -1.4778 -0.5643 -0.7925
  803MOL0     H 8396   3.438  11.110   1.052 -1.5508 -0.3922 -0.5420
  803MOL0     H 8397   3.662  11.176   1.083 -3.5470  0.2617  0.3920
  803MOL0     H 8398   3.717  11.146   0.918 -1.6185  0.4391 -0.6926
  803MOL0     H 8399   3.630  10.893   0.958 -0.5751  1.1267  0.0817
  803MOL0     H 8400   3.676  10.940   1.124  1.9514  2.9140  0.4065
  803MOL0     H 8401   3.864  10.838   1.047  2.5156  2.7640  4.3225
  803MOL0     H 8402   3.904  10.995   1.051  1.8450 -2.0479 -0.0320
  803MOL0     H 8403   3.965  10.897   0.641 -0.5859 -1.6718  0.4204
  803MOL0     H 8404   3.388  10.829   0.739 -0.1522  0.2023 -1.0174
  803MOL0     H 8405   3.161  10.793   0.647  0.4511  1.8884 -1.5887
  804MOL0     O 8406   9.360   2.631   3.002  0.1864  0.1287 -0.2416
  804MOL0     C 8407   9.413   2.573   3.098 -0.1693 -0.3158 -0.0414
  804MOL0     O 8408   9.356   2.496   3.194  0.7086  0.4155  0.3693
  804MOL0     C 8409   9.225   2.465   3.171  0.5021 -0.2225 -0.5389
  804MOL0     C 8410   9.183   2.392   3.063  0.1503  0.5630 -1.3445
  804MOL0     C 8411   9.050   2.357   3.046  0.4175 -0.0952 -1.1850
  804MOL0     C 8412   8.950   2.396   3.136  0.0474  0.7027 -0.7495
  804MOL0     O 8413   8.816   2.364   3.114 -0.3802  0.4386  0.3649
  804MOL0     C 8414   8.777   2.319   2.983  0.3536  0.5200  0.0340
  804MOL0     C 8415   8.622   2.338   2.971 -0.6272  0.7356  0.0988
  804MOL0     C 8416   8.567   2.471   3.015  0.3963 -1.5227 -0.4730
  804MOL0     C 8417   8.600   2.594   2.928 -0.0915  0.0266 -0.0530
  804MOL0     C 8418   8.548   2.718   3.005 -1.0558  0.8796 -0.3839
  804MOL0     C 8419   8.621   2.740   3.135 -0.3014 -0.3763  0.9425
  804MOL0     C 8420   8.610   2.892   3.186  0.0952 -0.3727 -0.7312
  804MOL0     C 8421   8.671   2.898   3.325  0.4692  0.6435  0.1349
  804MOL0     N 8422   8.575   2.854   3.429  0.3618 -0.1606  0.4181
  804MOL0     C 8423   8.476   2.935   3.492 -0.3615  0.3658 -0.2406
  804MOL0     C 8424   8.409   2.855   3.576  0.8857  0.5131  0.8969
  804MOL0     C 8425   8.289   2.904   3.650 -0.6922  0.4696 -0.5259
  804MOL0     C 8426   8.159   2.819   3.625 -0.2013 -0.5165  1.1049
  804MOL0     C 8427   8.120   2.725   3.733  0.3523  0.1726 -0.0149
  804MOL0     C 8428   7.984   2.658   3.707  0.9266 -0.1486 -0.1493
  804MOL0     O 8429   7.989   2.582   3.585  0.6982  0.4745  0.0643
  804MOL0     C 8430   7.871   2.518   3.542  0.1359  0.5696 -0.8611
  804MOL0     C 8431   7.857   2.516   3.401  0.3537  0.1132  0.3150
  804MOL0     C 8432   7.744   2.452   3.344  1.1196 -0.5099  0.2025
  804MOL0     C 8433   7.742   2.426   3.196 -1.0020 -0.4041  0.4852
  804MOL0     C 8434   7.637   2.406   3.423  0.7265 -1.1628 -0.2420
  804MOL0     C 8435   7.509   2.363   3.369  0.6130 -0.3465  0.2487
  804MOL0     O 8436   7.497   2.333   3.244  0.3145 -0.2243  0.2642
  804MOL0     C 8437   7.377   2.314   3.180  0.7291 -0.5285 -0.6524
  804MOL0     C 8438   7.370   2.212   3.091  0.0901  0.9475  0.0280
  804MOL0     C 8439   7.250   2.205   3.011 -0.3022 -0.6223  0.5031
  804MOL0     C 8440   7.135   2.280   3.041 -1.2844 -0.3030 -0.0702
  804MOL0     O 8441   7.031   2.274   2.947 -0.2882 -0.1497 -0.2915
  804MOL0     C 8442   6.917   2.362   2.957  0.9392  0.3502  0.3320
  804MOL0     C 8443   6.816   2.336   2.845  0.1807  0.0950  0.5033
  804MOL0     C 8444   6.697   2.426   2.866 -0.2341  0.1328  0.0782
  804MOL0     C 8445   6.598   2.394   2.753 -0.4481 -0.0112 -0.0338
  804MOL0     C 8446   6.476   2.491   2.771 -0.2867  0.1758  0.2633
  804MOL0     C 8447   6.377   2.453   2.657  0.1872 -0.1155  0.8950
  804MOL0     C 8448   6.243   2.529   2.661 -0.3444  0.0175 -0.5356
  804MOL0     C 8449   6.271   2.660   2.578 -0.2787  0.3656  0.5816
  804MOL0    Cl 8450   6.351   2.795   2.675  0.2446  0.4018 -0.0391
  804MOL0     C 8451   7.150   2.386   3.137  0.4453  0.0402  0.4179
  804MOL0     C 8452   7.268   2.404   3.207 -0.0311  0.8262 -0.3342
  804MOL0     O 8453   7.415   2.343   3.451 -0.4073  0.4386 -0.2393
  804MOL0     C 8454   7.654   2.407   3.554 -0.7317  0.2793 -0.3842
  804MOL0     C 8455   7.778   2.450   3.614  0.0001  0.6607 -0.6293
  804MOL0     N 8456   8.479   2.732   3.577 -0.2028  0.1823  0.1819
  804MOL0     N 8457   8.577   2.736   3.498 -0.0992  0.0595  0.2721
  804MOL0     C 8458   8.997   2.475   3.249 -0.1527 -0.2486  0.7617
  804MOL0     C 8459   9.134   2.502   3.267  0.1132 -0.3180  0.3666
  804MOL0     C 8460   9.557   2.605   3.110  1.3818  0.0555 -0.1604
  804MOL0     C 8461   9.608   2.722   3.062 -1.3104 -1.5595  0.2765
  804MOL0     C 8462   9.743   2.755   3.077 -0.8675 -0.1429 -0.4320
  804MOL0     C 8463   9.828   2.664   3.137 -0.6323  0.1731  0.6135
  804MOL0     O 8464   9.960   2.698   3.143 -0.1179 -0.1763 -0.1561
  804MOL0     C 8465  10.061   2.608   3.198 -0.3426 -0.5096  0.0333
  804MOL0     C 8466  10.202   2.663   3.174  0.5379 -0.0592 -0.7533
  804MOL0     C 8467  10.225   2.793   3.251 -0.7266 -0.6766 -0.9626
  804MOL0     C 8468  10.362   2.852   3.212  0.2101  0.2637  0.5060
  804MOL0     C 8469  10.468   2.745   3.214  0.6455 -0.5805  0.8315
  804MOL0     C 8470  10.537   2.642   3.200  0.0669  0.1270  0.4120
  804MOL0     C 8471   9.782   2.542   3.180 -0.3807 -0.5428 -0.4885
  804MOL0     C 8472   9.646   2.517   3.161 -1.2942  0.0876 -1.5874
  804MOL0     H 8473   9.257   2.346   2.998 -0.7712  0.0361 -2.0450
  804MOL0     H 8474   9.019   2.306   2.955 -0.1006  1.9225 -2.1906
  804MOL0     H 8475   8.824   2.377   2.903  0.1816  1.0544  0.3101
  804MOL0     H 8476   8.807   2.215   2.971 -0.0375  0.5947 -1.8361
  804MOL0     H 8477   8.592   2.317   2.868  2.6338 -0.3074 -0.7811
  804MOL0     H 8478   8.574   2.260   3.032  0.3447  0.7492  0.9231
  804MOL0     H 8479   8.457   2.468   3.020  0.0163  3.9951  1.1755
  804MOL0     H 8480   8.601   2.492   3.117  1.3616  1.3335 -1.2966
  804MOL0     H 8481   8.707   2.610   2.912 -0.2452 -0.7561 -2.0960
  804MOL0     H 8482   8.552   2.584   2.831 -0.1626 -0.6920  0.0541
  804MOL0     H 8483   8.566   2.798   2.932  1.7414 -0.4435 -1.2612
  804MOL0     H 8484   8.443   2.697   3.029 -1.3467 -0.7145 -2.7764
  804MOL0     H 8485   8.568   2.684   3.213 -1.4548  0.9638  1.1508
  804MOL0     H 8486   8.723   2.701   3.137 -1.2396 -3.0887  3.6260
  804MOL0     H 8487   8.654   2.967   3.120 -4.3939  3.4093  0.0285
  804MOL0     H 8488   8.504   2.914   3.202  0.3668 -0.1093  0.9295
  804MOL0     H 8489   8.700   3.000   3.350 -0.8073  0.6418  1.7409
  804MOL0     H 8490   8.764   2.841   3.334 -1.6999 -2.9556  1.9526
  804MOL0     H 8491   8.447   3.036   3.466 -2.0057  0.4500  1.7122
  804MOL0     H 8492   8.318   2.884   3.753  1.6082 -3.7592 -1.7720
  804MOL0     H 8493   8.264   3.009   3.630 -1.1326  0.9635  2.2982
  804MOL0     H 8494   8.157   2.764   3.530  0.6963  0.1282  0.7001
  804MOL0     H 8495   8.082   2.897   3.625 -0.5424 -0.8437  1.6826
  804MOL0     H 8496   8.106   2.780   3.826 -1.4407  1.9797 -1.2389
  804MOL0     H 8497   8.203   2.654   3.735  0.4755  0.1484 -2.5262
  804MOL0     H 8498   7.897   2.725   3.711 -0.0488 -1.4349  1.2656
  804MOL0     H 8499   7.971   2.584   3.787  0.3536  1.0954  0.9469
  804MOL0     H 8500   7.942   2.561   3.350  1.7152 -0.3177  2.0847
  804MOL0     H 8501   7.662   2.487   3.153  1.7321  2.9264 -0.3443
  804MOL0     H 8502   7.841   2.447   3.154 -0.3406  2.0088  2.9223
  804MOL0     H 8503   7.717   2.321   3.179 -1.7871 -0.5117  2.1135
  804MOL0     H 8504   7.459   2.152   3.076  1.6578  2.5041  2.3336
  804MOL0     H 8505   7.243   2.138   2.926  3.3852 -1.8170  0.9528
  804MOL0     H 8506   6.862   2.354   3.051  0.3127 -1.3891 -0.1421
  804MOL0     H 8507   6.959   2.462   2.946  1.4642 -0.0083 -1.0234
  804MOL0     H 8508   6.865   2.344   2.747 -0.8359 -1.5015 -0.1666
  804MOL0     H 8509   6.786   2.231   2.846 -1.5200  0.5045 -1.6701
  804MOL0     H 8510   6.729   2.530   2.854 -2.1032  0.6351 -0.9849
  804MOL0     H 8511   6.648   2.407   2.962  0.0732 -1.3627 -0.0291
  804MOL0     H 8512   6.625   2.397   2.648 -2.0307 -2.2130 -0.5920
  804MOL0     H 8513   6.566   2.290   2.769 -0.8645  0.1243  0.0276
  804MOL0     H 8514   6.507   2.595   2.760 -1.2912  0.5086  0.4659
  804MOL0     H 8515   6.415   2.484   2.862 -3.3949  2.3873 -1.4461
  804MOL0     H 8516   6.426   2.460   2.560  0.0988  0.8589  0.9114
  804MOL0     H 8517   6.351   2.348   2.673 -1.9965  0.2518  0.0120
  804MOL0     H 8518   6.206   2.549   2.761 -4.2027 -0.8507 -1.6273
  804MOL0     H 8519   6.173   2.469   2.603  0.6268 -1.6302 -0.0623
  804MOL0     H 8520   6.174   2.693   2.540 -0.1182 -1.1668 -1.2881
  804MOL0     H 8521   6.328   2.638   2.488 -0.1372  0.9585  0.5184
  804MOL0     H 8522   7.067   2.454   3.149 -0.7662 -1.1941 -0.6344
  804MOL0     H 8523   7.264   2.490   3.273 -3.3230  0.6078 -0.0547
  804MOL0     H 8524   7.589   2.355   3.624  0.1871 -2.3017 -1.3341
  804MOL0     H 8525   7.794   2.444   3.721  1.2478 -1.1025 -0.8756
  804MOL0     H 8526   8.924   2.513   3.320 -0.4392 -1.0119  0.8940
  804MOL0     H 8527   9.167   2.568   3.347  0.9132  0.2638 -0.4145
  804MOL0     H 8528   9.544   2.801   3.024  0.1237 -2.1244 -3.7024
  804MOL0     H 8529   9.792   2.846   3.047  0.8211 -0.9110 -0.1149
  804MOL0     H 8530  10.033   2.585   3.301 -1.6584 -1.1845 -0.4519
  804MOL0     H 8531  10.062   2.516   3.139 -0.1620 -0.4602 -0.0420
  804MOL0     H 8532  10.217   2.671   3.066  0.4098 -0.2274 -0.7843
  804MOL0     H 8533  10.261   2.580   3.214  0.0690  0.1825  0.4914
  804MOL0     H 8534  10.217   2.780   3.359 -1.4698  0.3127 -0.8830
  804MOL0     H 8535  10.148   2.867   3.229 -0.7152  0.0706  1.2250
  804MOL0     H 8536  10.385   2.942   3.269  2.5292  2.1906 -3.0658
  804MOL0     H 8537  10.363   2.895   3.111  1.7249  0.4317  0.5697
  804MOL0     H 8538  10.587   2.548   3.205 -0.2064 -0.0751 -0.4462
  804MOL0     H 8539   9.842   2.474   3.241 -0.0145  0.8088  0.7112
  804MOL0     H 8540   9.610   2.421   3.198 -0.2633 -1.0435 -3.3877
  805MOL0     O 8541  10.653   9.314   1.934  0.4475 -0.4529 -0.0065
  805MOL0     C 8542  10.691   9.227   2.011  0.2913 -0.0365  0.5419
  805MOL0     O 8543  10.615   9.197   2.126 -0.5836 -0.3335 -0.0787
  805MOL0     C 8544  10.483   9.240   2.144 -0.5347  0.8308  0.6226
  805MOL0     C 8545  10.381   9.219   2.047  0.0055  0.3624 -0.1975
  805MOL0     C 8546  10.241   9.236   2.082  0.0065  0.2437 -0.0838
  805MOL0     C 8547  10.210   9.290   2.205  1.0062 -0.3268 -0.0140
  805MOL0     O 8548  10.083   9.318   2.247  0.0474 -0.4290  0.1733
  805MOL0     C 8549  10.006   9.393   2.150  0.4267  0.4762  0.3699
  805MOL0     C 8550   9.907   9.477   2.229 -0.0088 -0.1963  0.1612
  805MOL0     C 8551   9.805   9.392   2.299 -0.1311 -0.6574 -0.0597
  805MOL0     C 8552   9.683   9.470   2.343  0.2397 -0.1209 -0.8949
  805MOL0     C 8553   9.577   9.383   2.406  0.5563  0.6744 -0.4539
  805MOL0     C 8554   9.437   9.444   2.393 -0.1470 -0.2259 -1.1279
  805MOL0     C 8555   9.313   9.358   2.444  0.6981 -0.9046  0.4137
  805MOL0     C 8556   9.187   9.448   2.426 -0.1893  0.5354 -0.0030
  805MOL0     N 8557   9.084   9.378   2.506 -0.4311  0.4695  0.2340
  805MOL0     C 8558   9.058   9.239   2.509  0.3464  0.1547  1.0192
  805MOL0     C 8559   8.938   9.232   2.567 -0.1565 -0.1643  0.3352
  805MOL0     C 8560   8.873   9.104   2.597 -0.3650 -0.1838 -0.3968
  805MOL0     C 8561   8.734   9.131   2.659 -0.0059 -0.1431  0.5450
  805MOL0     C 8562   8.664   9.014   2.723  0.0534 -0.1166 -0.4586
  805MOL0     C 8563   8.521   9.048   2.741  0.9162  0.5988 -0.2122
  805MOL0     O 8564   8.454   9.055   2.615 -0.2177 -0.0908  0.0519
  805MOL0     C 8565   8.322   9.090   2.607  0.2775  0.0882 -0.4754
  805MOL0     C 8566   8.255   9.109   2.482  0.0294  0.9789  0.2089
  805MOL0     C 8567   8.114   9.105   2.478  0.1066 -0.5562 -0.1772
  805MOL0     C 8568   8.067   9.116   2.338  0.1083  0.3236 -0.5004
  805MOL0     C 8569   8.036   9.119   2.591  0.9132  0.7541 -0.4852
  805MOL0     C 8570   7.887   9.128   2.612 -0.4601 -0.6543  0.2533
  805MOL0     O 8571   7.838   9.109   2.733 -0.6854 -0.2223  0.5408
  805MOL0     C 8572   7.707   9.139   2.758  0.2076  0.6103  0.4151
  805MOL0     C 8573   7.682   9.262   2.814  0.4561  0.4567  0.1985
  805MOL0     C 8574   7.549   9.291   2.844  0.4403  1.0784 -1.5776
  805MOL0     C 8575   7.440   9.215   2.816  0.2307  0.5243  1.4878
  805MOL0     O 8576   7.315   9.270   2.834 -0.3893 -0.4775  0.4943
  805MOL0     C 8577   7.208   9.174   2.818 -0.1250  0.6503  0.3340
  805MOL0     C 8578   7.079   9.230   2.855  0.1487 -0.2766  0.7210
  805MOL0     C 8579   7.072   9.262   3.012  0.9606  0.0053 -0.2284
  805MOL0     C 8580   6.939   9.320   3.059  0.8569  0.1404 -0.6471
  805MOL0     C 8581   6.951   9.370   3.204  0.1832  0.5277  0.4353
  805MOL0     C 8582   6.814   9.378   3.278 -0.2949  0.2632 -0.3108
  805MOL0     C 8583   6.747   9.514   3.241 -0.3469  0.5295  0.5205
  805MOL0     C 8584   6.602   9.529   3.260  0.4946 -0.0619  0.2809
  805MOL0    Cl 8585   6.562   9.567   3.430 -0.0694  0.0888  0.3061
  805MOL0     C 8586   7.478   9.096   2.750  0.4469 -0.7171 -0.0657
  805MOL0     C 8587   7.604   9.054   2.730  0.2814 -0.4091 -0.0041
  805MOL0     O 8588   7.823   9.163   2.514 -0.1896 -1.6658  0.6535
  805MOL0     C 8589   8.108   9.113   2.708 -0.0440 -0.7796 -0.4112
  805MOL0     C 8590   8.242   9.090   2.719 -0.0570 -0.0835  0.1937
  805MOL0     N 8591   8.895   9.361   2.599 -0.1154  0.2365 -1.1889
  805MOL0     N 8592   8.980   9.445   2.564  0.2267 -0.1825  0.0130
  805MOL0     C 8593  10.314   9.318   2.296  0.2262  0.6221 -0.2846
  805MOL0     C 8594  10.451   9.281   2.267 -0.3497 -0.7987 -0.2738
  805MOL0     C 8595  10.803   9.138   1.994  0.5610 -0.3183  0.4429
  805MOL0     C 8596  10.864   9.066   2.100 -0.5160  0.8798  0.3231
  805MOL0     C 8597  10.994   9.008   2.085  0.3552  0.4716  0.0482
  805MOL0     C 8598  11.062   9.022   1.958  0.0769  0.1939  0.6924
  805MOL0     O 8599  11.192   8.973   1.944  0.4679  0.2631 -0.5458
  805MOL0     C 8600  11.225   8.902   1.814 -0.4824 -0.3356 -1.5175
  805MOL0     C 8601  11.351   8.828   1.840 -0.4568 -0.0492  0.7346
  805MOL0     C 8602  11.482   8.901   1.803 -0.1066  0.5009  0.1377
  805MOL0     C 8603  11.617   8.836   1.830  0.3206 -0.0671  0.3808
  805MOL0     C 8604  11.621   8.694   1.780 -0.5717 -1.3949  0.4762
  805MOL0     C 8605  11.643   8.589   1.726 -0.0213 -0.0194 -0.6050
  805MOL0     C 8606  11.003   9.095   1.853 -0.7579 -0.2775  0.1561
  805MOL0     C 8607  10.876   9.153   1.873 -0.7962  0.7501 -0.6673
  805MOL0     H 8608  10.403   9.174   1.951 -0.0479  0.2168 -0.1407
  805MOL0     H 8609  10.172   9.216   2.001  0.3419  0.1980 -0.3642
  805MOL0     H 8610  10.082   9.459   2.105 -0.8472 -0.0165 -2.7601
  805MOL0     H 8611   9.960   9.338   2.068  1.6376 -0.0628  0.0254
  805MOL0     H 8612   9.968   9.532   2.302  1.6164  0.5811 -1.6853
  805MOL0     H 8613   9.861   9.557   2.171 -0.6478  0.7262  1.8912
  805MOL0     H 8614   9.769   9.312   2.233  0.4074 -1.6508  0.8181
  805MOL0     H 8615   9.855   9.337   2.380  0.8261  0.8172  0.3857
  805MOL0     H 8616   9.700   9.546   2.421 -0.5335 -0.0550 -0.7743
  805MOL0     H 8617   9.634   9.521   2.260  0.8642 -0.0407 -1.2177
  805MOL0     H 8618   9.578   9.286   2.354  0.5604  0.7095 -0.5203
  805MOL0     H 8619   9.591   9.370   2.514  1.4822 -1.3979 -0.7692
  805MOL0     H 8620   9.444   9.532   2.457  2.0219  1.2275 -3.1923
  805MOL0     H 8621   9.422   9.473   2.288 -0.1730 -1.2496 -1.4191
  805MOL0     H 8622   9.305   9.271   2.378  1.4252 -0.4691 -0.2595
  805MOL0     H 8623   9.318   9.323   2.548 -4.4482 -1.4743  0.7349
  805MOL0     H 8624   9.165   9.458   2.320  4.1502 -0.5108 -1.1948
  805MOL0     H 8625   9.205   9.552   2.457  0.0277  1.2402 -2.3540
  805MOL0     H 8626   9.113   9.152   2.474  0.2578  0.1952  0.7773
  805MOL0     H 8627   8.874   9.045   2.505  0.7896 -1.5690  0.4696
  805MOL0     H 8628   8.926   9.050   2.675 -3.0435 -0.8560  1.0968
  805MOL0     H 8629   8.672   9.183   2.585  2.9270  0.2373 -1.8533
  805MOL0     H 8630   8.745   9.207   2.737 -2.9744  1.5725 -0.5557
  805MOL0     H 8631   8.716   9.009   2.819 -0.2786  1.8987 -0.1263
  805MOL0     H 8632   8.669   8.923   2.662  2.4322 -0.3843  0.0268
  805MOL0     H 8633   8.511   9.145   2.790  0.8624 -0.1116  1.2154
  805MOL0     H 8634   8.477   8.962   2.793 -0.2547  0.1901 -1.7629
  805MOL0     H 8635   8.321   9.116   2.396 -0.2766  1.8397  0.0269
  805MOL0     H 8636   8.149   9.083   2.273 -0.9899 -0.3808 -1.5718
  805MOL0     H 8637   7.979   9.054   2.321  0.6079  0.4467 -4.6934
  805MOL0     H 8638   8.047   9.222   2.317  4.2603  1.5801  0.8686
  805MOL0     H 8639   7.766   9.329   2.826  1.2636 -0.3471 -0.8337
  805MOL0     H 8640   7.529   9.391   2.880 -0.9885  0.8510 -1.6558
  805MOL0     H 8641   7.213   9.123   2.721 -1.1956  0.5589  0.3131
  805MOL0     H 8642   7.237   9.094   2.887  3.2850  1.0759 -0.3891
  805MOL0     H 8643   7.057   9.322   2.801  1.9530  0.8380  1.7650
  805MOL0     H 8644   7.009   9.146   2.848  1.5231 -1.3788 -0.2760
  805MOL0     H 8645   7.154   9.326   3.046  0.5147  0.3182  0.2616
  805MOL0     H 8646   7.074   9.170   3.071 -1.4059  1.9009  3.1365
  805MOL0     H 8647   6.917   9.402   2.990 -0.2486 -0.1907 -0.7133
  805MOL0     H 8648   6.855   9.251   3.041  0.7354  0.0522  0.2282
  805MOL0     H 8649   7.012   9.461   3.210  0.7459  0.2015 -0.1904
  805MOL0     H 8650   7.006   9.292   3.258  0.3948  0.2213 -0.2165
  805MOL0     H 8651   6.744   9.306   3.235 -0.1581  1.4899 -2.7338
  805MOL0     H 8652   6.832   9.369   3.386  1.4383  1.8947 -0.4082
  805MOL0     H 8653   6.764   9.534   3.135 -0.7493 -0.3449  0.2839
  805MOL0     H 8654   6.798   9.588   3.304  0.0856 -1.0950  2.1785
  805MOL0     H 8655   6.551   9.438   3.227  0.8253 -0.8030  1.7655
  805MOL0     H 8656   6.556   9.615   3.210  1.8158  0.6539  0.2631
  805MOL0     H 8657   7.406   9.021   2.717  1.3153 -1.5782 -0.0616
  805MOL0     H 8658   7.617   8.956   2.685  0.5804 -1.5850  2.5187
  805MOL0     H 8659   8.056   9.123   2.803 -2.2546 -0.0300 -1.6160
  805MOL0     H 8660   8.291   9.068   2.813  5.2546  1.4759 -1.8368
  805MOL0     H 8661  10.299   9.351   2.398  0.0355 -1.4166  0.3883
  805MOL0     H 8662  10.523   9.292   2.348 -0.5005  0.6370 -0.3023
  805MOL0     H 8663  10.811   9.043   2.191  0.2653 -3.3646 -0.0892
  805MOL0     H 8664  11.039   8.955   2.169  0.2270 -0.5589 -0.5185
  805MOL0     H 8665  11.152   8.826   1.784  0.8064 -2.1689 -0.2322
  805MOL0     H 8666  11.240   8.979   1.738  1.2963  2.6702  1.5897
  805MOL0     H 8667  11.345   8.749   1.765  1.7186  2.3321 -2.1879
  805MOL0     H 8668  11.366   8.789   1.942  2.1297 -0.4216  0.2800
  805MOL0     H 8669  11.481   8.992   1.863 -1.3683  1.4928 -1.3155
  805MOL0     H 8670  11.487   8.914   1.694 -0.5895 -1.0624 -0.0941
  805MOL0     H 8671  11.635   8.839   1.938 -1.4637  1.4038  0.6846
  805MOL0     H 8672  11.694   8.901   1.787 -0.7289  1.6191  0.9335
  805MOL0     H 8673  11.664   8.494   1.682 -1.4893 -0.5237 -0.2798
  805MOL0     H 8674  11.058   9.123   1.764 -2.1551  0.0499 -0.6414
  805MOL0     H 8675  10.844   9.223   1.796  0.9755  0.6241 -1.5464
  806MOL0     O 8676  10.593   4.509   5.639  0.1286  0.7177 -0.7984
  806MOL0     C 8677  10.574   4.405   5.700 -0.0821 -0.6479  0.5018
  806MOL0     O 8678  10.461   4.368   5.762 -0.2783  0.3039  0.2316
  806MOL0     C 8679  10.352   4.450   5.783  0.1795  0.3713  0.0044
  806MOL0     C 8680  10.324   4.561   5.710 -0.2684 -1.0559  0.5840
  806MOL0     C 8681  10.207   4.628   5.743 -0.7468 -0.1741  0.0070
  806MOL0     C 8682  10.122   4.591   5.851  0.0512  0.2786 -0.4458
  806MOL0     O 8683   9.996   4.660   5.870  0.1058  0.3301  0.0823
  806MOL0     C 8684   9.899   4.609   5.966  0.1171  0.0015  1.2423
  806MOL0     C 8685   9.768   4.675   5.950  0.6897 -0.0688 -0.0722
  806MOL0     C 8686   9.703   4.634   5.817  0.5941 -0.0656  0.3515
  806MOL0     C 8687   9.551   4.673   5.823  0.0370 -1.1382  0.1341
  806MOL0     C 8688   9.461   4.645   5.701 -0.8179 -0.3328  0.1398
  806MOL0     C 8689   9.514   4.719   5.566 -0.2059  0.6899 -0.0451
  806MOL0     C 8690   9.418   4.720   5.447  0.1438 -0.2238 -0.4415
  806MOL0     C 8691   9.439   4.609   5.351  0.2899 -0.2722  0.0578
  806MOL0     N 8692   9.385   4.490   5.405 -0.3347 -0.4422 -1.0089
  806MOL0     C 8693   9.249   4.459   5.419 -0.4192  0.3882 -0.1398
  806MOL0     C 8694   9.240   4.330   5.474 -0.7968 -0.7493 -0.9422
  806MOL0     C 8695   9.138   4.242   5.527  0.3067 -0.3553 -0.4197
  806MOL0     C 8696   8.999   4.293   5.486  1.0180  0.1407  0.1848
  806MOL0     C 8697   8.890   4.210   5.560 -0.2234  0.5996 -0.1105
  806MOL0     C 8698   8.840   4.092   5.487  0.1880  0.8390  0.1638
  806MOL0     O 8699   8.759   4.111   5.373  0.5530  0.0834  0.1487
  806MOL0     C 8700   8.627   4.124   5.384  0.9240 -0.1727 -0.5829
  806MOL0     C 8701   8.548   4.100   5.278 -0.1400  0.1790  0.4600
  806MOL0     C 8702   8.407   4.117   5.275  0.2278  0.3987  0.7123
  806MOL0     C 8703   8.331   4.096   5.138  0.2226 -0.4517  0.0369
  806MOL0     C 8704   8.332   4.139   5.400 -0.1507  0.4111  0.6321
  806MOL0     C 8705   8.182   4.132   5.415 -0.8481  0.3122  0.2506
  806MOL0     O 8706   8.134   4.163   5.544 -0.6605  0.4521  0.2296
  806MOL0     C 8707   8.001   4.179   5.545 -0.4423  0.5531  0.0797
  806MOL0     C 8708   7.917   4.062   5.543 -0.0223  0.1327  0.6752
  806MOL0     C 8709   7.782   4.075   5.571  0.2837 -0.0642  0.1097
  806MOL0     C 8710   7.726   4.203   5.569  0.0381  1.0644  0.3432
  806MOL0     O 8711   7.598   4.241   5.595 -0.0906 -0.5072  0.4748
  806MOL0     C 8712   7.507   4.147   5.649  0.9100  0.0795 -0.0024
  806MOL0     C 8713   7.402   4.229   5.712 -0.7327  0.1347  0.3852
  806MOL0     C 8714   7.306   4.313   5.615 -0.1444 -1.2242  0.8369
  806MOL0     C 8715   7.244   4.419   5.714  0.7211 -0.0435  0.1318
  806MOL0     C 8716   7.137   4.495   5.627 -0.3120  0.1407 -0.1637
  806MOL0     C 8717   7.046   4.571   5.716 -0.0565 -0.6874  0.6096
  806MOL0     C 8718   6.956   4.647   5.627  0.7480 -0.3789 -0.0215
  806MOL0     C 8719   6.892   4.765   5.700 -1.0264 -0.6332 -0.4127
  806MOL0    Cl 8720   6.829   4.703   5.843 -0.2155 -0.4210  0.1299
  806MOL0     C 8721   7.803   4.317   5.570  0.2342  0.6177  0.5083
  806MOL0     C 8722   7.943   4.302   5.561  0.4437 -1.1439 -0.0006
  806MOL0     O 8723   8.116   4.106   5.311  0.3461 -0.0744 -0.5926
  806MOL0     C 8724   8.413   4.164   5.514 -0.0473  0.6801 -0.8472
  806MOL0     C 8725   8.557   4.152   5.505  0.9323  0.0073  0.4953
  806MOL0     N 8726   9.369   4.288   5.492  0.0089 -0.3337 -0.0349
  806MOL0     N 8727   9.449   4.381   5.452  0.5385 -0.1946  0.5658
  806MOL0     C 8728  10.155   4.471   5.922 -0.4002  0.7727  0.2133
  806MOL0     C 8729  10.270   4.400   5.885  0.3272 -0.2838 -0.2162
  806MOL0     C 8730  10.691   4.313   5.696 -0.3520  0.1379  0.5915
  806MOL0     C 8731  10.814   4.351   5.631  0.3877  1.3074 -0.4789
  806MOL0     C 8732  10.918   4.267   5.637 -0.4055 -0.0766  0.2393
  806MOL0     C 8733  10.918   4.143   5.703 -0.0457 -0.2976  0.6365
  806MOL0     O 8734  11.021   4.051   5.707  0.2411  1.0110 -0.2822
  806MOL0     C 8735  11.146   4.083   5.653  0.6945 -0.4136  0.0652
  806MOL0     C 8736  11.256   3.993   5.697  0.1080  0.2561  0.7517
  806MOL0     C 8737  11.393   4.052   5.645  0.7544  0.1249  0.7430
  806MOL0     C 8738  11.506   3.957   5.682 -1.2142  0.2412 -0.0240
  806MOL0     C 8739  11.639   4.021   5.685 -0.4360 -0.6975 -0.3953
  806MOL0     C 8740  11.747   4.066   5.706  0.0243  0.1022 -0.3282
  806MOL0     C 8741  10.801   4.105   5.764 -0.1631  0.0671 -0.3844
  806MOL0     C 8742  10.688   4.188   5.759 -0.2396  0.1960  0.6905
  806MOL0     H 8743  10.384   4.611   5.635 -1.0999  0.2920  0.7771
  806MOL0     H 8744  10.188   4.719   5.686  0.5827  1.7281  2.4005
  806MOL0     H 8745   9.887   4.501   5.954 -1.7503  0.2725  0.2364
  806MOL0     H 8746   9.934   4.625   6.068  0.7513  1.1500  0.8657
  806MOL0     H 8747   9.703   4.655   6.035 -0.6250 -1.0378 -1.2424
  806MOL0     H 8748   9.780   4.783   5.943 -5.0999  0.8264 -1.2865
  806MOL0     H 8749   9.754   4.679   5.732 -2.0883 -0.6639 -1.7360
  806MOL0     H 8750   9.710   4.527   5.796  0.6246  0.3199 -1.8126
  806MOL0     H 8751   9.508   4.624   5.911 -1.1085 -1.4660 -0.5968
  806MOL0     H 8752   9.555   4.781   5.844 -0.9509 -1.1302  0.3111
  806MOL0     H 8753   9.460   4.538   5.683  0.3074 -0.7216  2.0967
  806MOL0     H 8754   9.364   4.686   5.730 -0.9327 -1.4635  1.4278
  806MOL0     H 8755   9.539   4.821   5.597  3.0181 -0.5498  1.9549
  806MOL0     H 8756   9.607   4.670   5.535  0.6166  1.0546  1.7141
  806MOL0     H 8757   9.311   4.721   5.468  0.0544  0.1313 -0.8756
  806MOL0     H 8758   9.429   4.810   5.385 -1.0466  0.7246  0.6668
  806MOL0     H 8759   9.545   4.595   5.330  0.2953  1.6700 -1.4569
  806MOL0     H 8760   9.389   4.626   5.255 -2.6792 -1.1235  1.3319
  806MOL0     H 8761   9.163   4.521   5.396 -0.9533  0.0361  0.8341
  806MOL0     H 8762   9.143   4.135   5.505  1.8122 -0.3755 -0.0691
  806MOL0     H 8763   9.156   4.244   5.635  2.0587 -0.2018 -0.6748
  806MOL0     H 8764   8.976   4.284   5.379 -0.8207 -2.5031  0.7021
  806MOL0     H 8765   8.982   4.396   5.518  0.2460 -0.8376  3.2414
  806MOL0     H 8766   8.809   4.280   5.581  0.4687  1.2017  0.6672
  806MOL0     H 8767   8.932   4.188   5.658  0.6149 -2.0590 -0.9820
  806MOL0     H 8768   8.791   4.037   5.568  1.4762  0.4005  0.6776
  806MOL0     H 8769   8.922   4.028   5.452  0.3821  0.7885  0.6986
  806MOL0     H 8770   8.581   4.085   5.176 -1.0745  3.4515 -0.4494
  806MOL0     H 8771   8.253   4.172   5.131  2.5527  2.2139  1.1890
  806MOL0     H 8772   8.394   4.122   5.052 -0.4256  1.2056  0.0272
  806MOL0     H 8773   8.270   4.005   5.130 -1.6597  0.5627  1.8838
  806MOL0     H 8774   7.956   3.962   5.523  1.0650  0.7260 -0.2847
  806MOL0     H 8775   7.717   3.988   5.562 -0.8575  0.6221  1.2965
  806MOL0     H 8776   7.462   4.075   5.580 -1.2401  1.5977 -0.2774
  806MOL0     H 8777   7.555   4.091   5.730 -0.2343  1.9442  2.0549
  806MOL0     H 8778   7.330   4.166   5.765  0.9593 -1.7318  0.5956
  806MOL0     H 8779   7.455   4.300   5.777 -1.9285  1.8675 -0.4450
  806MOL0     H 8780   7.226   4.247   5.581 -2.0389  0.1808  2.3181
  806MOL0     H 8781   7.364   4.361   5.536 -0.4509 -0.5138  1.0255
  806MOL0     H 8782   7.186   4.372   5.795 -0.6133 -1.9818 -1.8113
  806MOL0     H 8783   7.319   4.487   5.754 -0.1785  0.6426  0.6910
  806MOL0     H 8784   7.077   4.435   5.559 -1.1728  1.1251 -0.2954
  806MOL0     H 8785   7.184   4.569   5.560 -0.4548 -0.4746 -0.9550
  806MOL0     H 8786   6.984   4.503   5.776 -2.4542  0.3740 -0.4927
  806MOL0     H 8787   7.101   4.636   5.784  1.3226  1.1719 -2.1116
  806MOL0     H 8788   6.872   4.585   5.597 -2.4997  3.4236  0.3428
  806MOL0     H 8789   6.993   4.697   5.537  0.3166  0.6475  0.3517
  806MOL0     H 8790   6.816   4.813   5.637 -0.7030  0.7747  0.2382
  806MOL0     H 8791   6.963   4.846   5.721 -0.1570 -1.4930  0.0130
  806MOL0     H 8792   7.766   4.417   5.592  1.0657  0.9887  0.2890
  806MOL0     H 8793   8.008   4.388   5.549 -0.2068  0.0014  3.4131
  806MOL0     H 8794   8.356   4.175   5.605 -1.0396 -1.9757 -1.0612
  806MOL0     H 8795   8.610   4.153   5.600 -1.3272 -1.2067  1.8655
  806MOL0     H 8796  10.099   4.434   6.007 -0.0183 -2.2016 -0.7399
  806MOL0     H 8797  10.304   4.310   5.936  2.9791 -0.5252 -2.1883
  806MOL0     H 8798  10.819   4.449   5.584 -1.0683  2.2383  1.2203
  806MOL0     H 8799  11.006   4.317   5.597  0.1934 -0.1501  1.4039
  806MOL0     H 8800  11.138   4.069   5.544  2.7409 -0.5216 -0.1190
  806MOL0     H 8801  11.180   4.183   5.679  2.0785 -1.8589  4.6580
  806MOL0     H 8802  11.242   3.893   5.657  1.5989  0.4928 -0.4221
  806MOL0     H 8803  11.244   3.976   5.805 -2.4684 -1.5769  0.2813
  806MOL0     H 8804  11.408   4.151   5.690 -0.7295  1.3705 -1.3415
  806MOL0     H 8805  11.394   4.057   5.536 -1.5484  3.2113  0.7463
  806MOL0     H 8806  11.509   3.871   5.614 -0.0921  1.2135 -1.2437
  806MOL0     H 8807  11.489   3.927   5.786 -2.3163  2.7752  0.5854
  806MOL0     H 8808  11.836   4.123   5.721  1.3152 -1.6125 -1.1228
  806MOL0     H 8809  10.798   4.006   5.807 -0.5008 -0.3412 -1.3070
  806MOL0     H 8810  10.598   4.162   5.814  0.2627  0.3703  1.6154
  807MOL0     O 8811   9.769   7.748   8.117 -0.3467 -0.0905 -0.2927
  807MOL0     C 8812   9.786   7.643   8.053  0.4065 -0.3077  0.2384
  807MOL0     O 8813   9.767   7.632   7.923 -0.0272 -0.1651 -0.4434
  807MOL0     C 8814   9.670   7.710   7.866 -0.2151 -0.2400  0.2862
  807MOL0     C 8815   9.535   7.669   7.848  0.6616  0.3032 -0.6261
  807MOL0     C 8816   9.438   7.750   7.791 -0.4244  0.6253  0.5558
  807MOL0     C 8817   9.469   7.881   7.767 -0.4610  0.5027  0.4856
  807MOL0     O 8818   9.375   7.967   7.727  0.4217  0.0022 -0.5237
  807MOL0     C 8819   9.394   8.051   7.614  0.3738 -0.1559 -0.2688
  807MOL0     C 8820   9.254   8.086   7.566  0.5247  0.4423 -0.4076
  807MOL0     C 8821   9.170   8.150   7.675  0.5791 -0.2025 -0.7139
  807MOL0     C 8822   9.051   8.208   7.613  0.6239 -0.2086  0.6746
  807MOL0     C 8823   8.982   8.287   7.720 -0.2076  0.2927 -0.0720
  807MOL0     C 8824   8.851   8.358   7.681 -0.0654  0.5585  0.9512
  807MOL0     C 8825   8.786   8.434   7.788  0.5312 -0.4029 -0.8435
  807MOL0     C 8826   8.637   8.464   7.767  0.4181  0.3462  0.2233
  807MOL0     N 8827   8.550   8.337   7.773  0.2478  0.6008 -0.6582
  807MOL0     C 8828   8.549   8.250   7.879  0.3976 -0.1079 -0.4501
  807MOL0     C 8829   8.463   8.154   7.835  0.4655  0.6441  0.9838
  807MOL0     C 8830   8.427   8.023   7.903  0.6837 -0.0680  0.1899
  807MOL0     C 8831   8.281   8.030   7.953  0.2829  0.0287  0.0202
  807MOL0     C 8832   8.249   7.894   8.019 -0.5504  0.3011  0.6221
  807MOL0     C 8833   8.102   7.852   8.049 -0.5693 -0.2573 -0.9596
  807MOL0     O 8834   8.035   7.825   7.936  0.0724 -0.4754  0.2543
  807MOL0     C 8835   7.942   7.729   7.939 -0.4069 -0.2843 -0.5698
  807MOL0     C 8836   7.856   7.708   8.040  0.5208  0.9971 -0.4824
  807MOL0     C 8837   7.746   7.628   8.029  0.4427 -0.0044  0.1022
  807MOL0     C 8838   7.647   7.634   8.140  0.6277  0.0119  0.5817
  807MOL0     C 8839   7.725   7.553   7.907 -0.4829 -0.1617 -0.1631
  807MOL0     C 8840   7.614   7.447   7.884  0.5589 -0.5477  0.6988
  807MOL0     O 8841   7.611   7.375   7.765 -1.3962 -0.0082 -0.2881
  807MOL0     C 8842   7.513   7.289   7.727 -0.7032  0.1886 -0.5519
  807MOL0     C 8843   7.550   7.194   7.633 -0.4359  0.0674  0.1140
  807MOL0     C 8844   7.458   7.094   7.603  0.2848 -0.2026 -0.0898
  807MOL0     C 8845   7.322   7.100   7.650 -1.0663  0.5095 -0.4186
  807MOL0     O 8846   7.222   7.014   7.611  0.1252  0.2292  0.4577
  807MOL0     C 8847   7.265   6.896   7.532  0.3468 -0.9831  1.1413
  807MOL0     C 8848   7.148   6.807   7.497 -0.3652 -0.0876  0.7346
  807MOL0     C 8849   7.067   6.751   7.618 -0.9952 -0.0235 -0.1928
  807MOL0     C 8850   6.957   6.665   7.552  0.1790 -0.7115  0.1198
  807MOL0     C 8851   6.849   6.621   7.651  0.2170 -0.1602  0.0146
  807MOL0     C 8852   6.720   6.578   7.596  0.0346 -0.2407 -1.1389
  807MOL0     C 8853   6.728   6.461   7.496  0.3128 -0.8625  0.1804
  807MOL0     C 8854   6.591   6.397   7.474  0.4891  0.9818 -0.5652
  807MOL0    Cl 8855   6.532   6.301   7.611  0.0578 -0.0061 -0.1259
  807MOL0     C 8856   7.292   7.202   7.738  0.0921  0.2021  0.6349
  807MOL0     C 8857   7.386   7.291   7.787 -0.0885  0.0996  0.1688
  807MOL0     O 8858   7.547   7.421   7.983  0.2832  0.5456  0.3409
  807MOL0     C 8859   7.821   7.561   7.807 -0.5605  0.7265 -1.1253
  807MOL0     C 8860   7.925   7.649   7.826  0.3932  0.8198  0.2960
  807MOL0     N 8861   8.413   8.197   7.708 -0.4117 -0.2859 -0.7451
  807MOL0     N 8862   8.472   8.298   7.671 -0.1298 -0.3803 -0.0906
  807MOL0     C 8863   9.600   7.918   7.777 -0.0844 -0.1583 -0.2595
  807MOL0     C 8864   9.699   7.835   7.809 -0.2887  0.3856 -0.4590
  807MOL0     C 8865   9.835   7.520   8.113 -0.7950 -0.1112  0.3666
  807MOL0     C 8866   9.856   7.512   8.249  0.6196  0.6124 -0.4852
  807MOL0     C 8867   9.907   7.396   8.299  0.9235  0.4298  0.2390
  807MOL0     C 8868   9.940   7.279   8.225 -0.1918 -0.1606  0.5184
  807MOL0     O 8869   9.986   7.157   8.274  0.0053 -0.2163  0.3384
  807MOL0     C 8870  10.019   7.157   8.411  0.7323 -0.3317  0.9924
  807MOL0     C 8871  10.153   7.221   8.446  0.0176 -0.2602  0.0793
  807MOL0     C 8872  10.277   7.144   8.396  0.2035 -0.1161 -0.5698
  807MOL0     C 8873  10.398   7.211   8.450  0.0375 -0.1136 -0.2236
  807MOL0     C 8874  10.520   7.164   8.397 -0.0843 -0.5932 -0.3078
  807MOL0     C 8875  10.620   7.112   8.349 -0.2638 -0.2027  1.1967
  807MOL0     C 8876   9.916   7.286   8.087  0.3939 -0.0012 -0.5687
  807MOL0     C 8877   9.877   7.412   8.024 -0.2580  0.3435 -0.1622
  807MOL0     H 8878   9.495   7.572   7.878 -2.3613  1.7911  0.4806
  807MOL0     H 8879   9.337   7.714   7.771 -0.0950  0.9829 -2.1791
  807MOL0     H 8880   9.444   8.146   7.636  1.4836 -1.0850  1.4943
  807MOL0     H 8881   9.449   8.002   7.534  0.7718 -1.5251  0.8028
  807MOL0     H 8882   9.269   8.149   7.477  1.0145  1.1721  0.1804
  807MOL0     H 8883   9.197   7.995   7.545 -1.8698  2.0270 -1.1196
  807MOL0     H 8884   9.140   8.091   7.762  1.2529 -0.0023 -0.3398
  807MOL0     H 8885   9.226   8.233   7.718 -3.5189  2.3008  0.3875
  807MOL0     H 8886   9.082   8.278   7.535 -0.2499 -1.4672 -0.8446
  807MOL0     H 8887   8.979   8.132   7.580  1.1376 -1.0789  1.5109
  807MOL0     H 8888   8.958   8.224   7.806 -4.4725  0.8228 -0.6513
  807MOL0     H 8889   9.040   8.371   7.760 -1.9707  0.7676  1.6954
  807MOL0     H 8890   8.859   8.435   7.603 -3.7486  0.0643 -0.0919
  807MOL0     H 8891   8.787   8.278   7.642  1.6044  0.1182 -1.0920
  807MOL0     H 8892   8.799   8.386   7.885  0.2763  1.2639  0.0564
  807MOL0     H 8893   8.832   8.533   7.795 -1.3726  0.4483  0.9199
  807MOL0     H 8894   8.610   8.521   7.677 -0.6228 -1.9192 -0.9943
  807MOL0     H 8895   8.604   8.521   7.854 -1.0673  0.7635 -0.5823
  807MOL0     H 8896   8.606   8.255   7.971 -0.7721 -1.3763  0.3888
  807MOL0     H 8897   8.443   7.947   7.827  2.0300  1.4195 -1.0780
  807MOL0     H 8898   8.490   8.002   7.990  2.7361 -0.6007 -1.3439
  807MOL0     H 8899   8.209   8.037   7.871 -0.3928  0.4979  0.6354
  807MOL0     H 8900   8.265   8.109   8.026 -0.5795  0.2175 -0.3633
  807MOL0     H 8901   8.298   7.892   8.117 -1.8304  2.7926  1.4149
  807MOL0     H 8902   8.295   7.815   7.960 -0.8973  0.7518 -0.2595
  807MOL0     H 8903   8.051   7.930   8.107  0.7287 -1.4625  2.0656
  807MOL0     H 8904   8.104   7.766   8.118  0.9934 -0.0269 -0.6862
  807MOL0     H 8905   7.868   7.765   8.132  0.9198  0.1387  0.0090
  807MOL0     H 8906   7.676   7.690   8.230  1.3775  2.1226 -0.8857
  807MOL0     H 8907   7.555   7.673   8.097  0.7172 -1.9310 -1.6004
  807MOL0     H 8908   7.617   7.538   8.185 -0.9256  0.4203  0.4590
  807MOL0     H 8909   7.645   7.194   7.580  1.0279  0.5245  2.5492
  807MOL0     H 8910   7.491   7.031   7.521  0.1452  1.5848 -1.5894
  807MOL0     H 8911   7.286   6.930   7.430 -2.3333 -1.3099  0.4220
  807MOL0     H 8912   7.340   6.836   7.584  0.0860 -0.8908  1.6257
  807MOL0     H 8913   7.083   6.866   7.432  0.3013 -0.8360 -0.6636
  807MOL0     H 8914   7.186   6.718   7.445 -3.1133 -1.8007  1.4458
  807MOL0     H 8915   7.031   6.832   7.682  1.8969 -0.1489  1.7702
  807MOL0     H 8916   7.118   6.687   7.691 -0.4680  1.8735  1.1781
  807MOL0     H 8917   6.902   6.717   7.473 -0.3693  0.2716  1.1214
  807MOL0     H 8918   7.007   6.580   7.505  0.2575  0.5362 -2.1738
  807MOL0     H 8919   6.817   6.701   7.718 -0.7319  2.4730 -3.3141
  807MOL0     H 8920   6.889   6.537   7.709 -0.8536 -1.8486 -1.6047
  807MOL0     H 8921   6.653   6.557   7.680  3.2357 -0.7449  1.5206
  807MOL0     H 8922   6.673   6.655   7.535  0.6498  0.6834 -0.4801
  807MOL0     H 8923   6.796   6.386   7.536  2.2689  0.8454  0.2261
  807MOL0     H 8924   6.772   6.495   7.402  0.2195 -1.3165 -0.0275
  807MOL0     H 8925   6.592   6.327   7.389 -2.0101 -0.4366  0.4909
  807MOL0     H 8926   6.509   6.467   7.459 -2.2739 -1.8587  0.2443
  807MOL0     H 8927   7.185   7.208   7.757 -0.3735 -3.5663  0.0537
  807MOL0     H 8928   7.351   7.370   7.852 -0.5726  0.1600 -0.1550
  807MOL0     H 8929   7.812   7.498   7.719 -0.6977 -1.8544  0.6268
  807MOL0     H 8930   7.982   7.676   7.738 -1.7158  2.4601 -0.6506
  807MOL0     H 8931   9.623   8.021   7.754  1.8749  0.3598  3.2560
  807MOL0     H 8932   9.800   7.873   7.802 -0.6882  2.0466  1.6426
  807MOL0     H 8933   9.836   7.603   8.305 -0.4930  0.2604 -0.2867
  807MOL0     H 8934   9.947   7.393   8.400 -0.1161 -5.0383  0.7811
  807MOL0     H 8935   9.948   7.216   8.470  3.4884  3.7245  0.6858
  807MOL0     H 8936  10.011   7.053   8.442  1.2279 -1.1772 -1.5369
  807MOL0     H 8937  10.159   7.232   8.554 -0.0913 -0.0019  0.0594
  807MOL0     H 8938  10.157   7.319   8.399 -0.7119 -0.7276 -1.0120
  807MOL0     H 8939  10.273   7.145   8.287  1.5641 -0.3193 -0.6416
  807MOL0     H 8940  10.275   7.041   8.434 -0.9208  0.2949  0.5641
  807MOL0     H 8941  10.415   7.185   8.555 -0.2622  1.9338  0.3682
  807MOL0     H 8942  10.401   7.320   8.445  3.2502 -0.0810  0.1405
  807MOL0     H 8943  10.713   7.078   8.310 -0.0431  0.6422  0.9707
  807MOL0     H 8944   9.929   7.194   8.032 -0.0054  0.5520 -1.6167
  807MOL0     H 8945   9.861   7.410   7.917 -1.5525  1.1074 -0.0022
  808MOL0     O 8946   9.405   0.466   1.100 -0.0154 -0.0243 -0.4373
  808MOL0     C 8947   9.453   0.374   1.021  0.3970  0.6023  0.4329
  808MOL0     O 8948   9.385   0.331   0.905  0.3691 -0.0932  0.1020
  808MOL0     C 8949   9.253   0.350   0.888  0.0979 -0.4225  0.1432
  808MOL0     C 8950   9.147   0.316   0.979 -0.6882 -0.2178 -0.1274
  808MOL0     C 8951   9.011   0.337   0.949  1.2728 -0.0587  0.8061
  808MOL0     C 8952   8.980   0.402   0.829 -0.4818 -0.2146  0.3592
  808MOL0     O 8953   8.846   0.426   0.815  0.0455  0.1637 -0.6404
  808MOL0     C 8954   8.813   0.534   0.727  0.1883  1.4775  0.1897
  808MOL0     C 8955   8.784   0.468   0.596 -0.5594  0.1602  0.5134
  808MOL0     C 8956   8.776   0.566   0.476  0.7249  0.0411 -0.3436
  808MOL0     C 8957   8.644   0.648   0.473 -0.3771  1.1919 -0.0792
  808MOL0     C 8958   8.675   0.775   0.394  0.2909  0.2888  0.0012
  808MOL0     C 8959   8.548   0.846   0.350 -0.4781  0.4687 -0.2043
  808MOL0     C 8960   8.435   0.871   0.453 -0.2736  0.6403  0.5626
  808MOL0     C 8961   8.306   0.923   0.401 -0.8144  0.5623  0.3127
  808MOL0     N 8962   8.203   0.928   0.508 -0.0405  0.6262 -0.1607
  808MOL0     C 8963   8.165   1.044   0.574 -0.1280 -1.0497  0.5598
  808MOL0     C 8964   8.038   1.029   0.618  0.0484  0.8332  1.1831
  808MOL0     C 8965   7.978   1.139   0.698  0.7691  0.2585  0.7081
  808MOL0     C 8966   7.835   1.124   0.748 -1.0560 -0.2934  0.2516
  808MOL0     C 8967   7.747   1.145   0.623  0.5364  0.1865 -0.5914
  808MOL0     C 8968   7.648   1.033   0.623  0.2758  0.4646 -1.1158
  808MOL0     O 8969   7.530   1.052   0.701  0.5221  0.3057  0.1327
  808MOL0     C 8970   7.416   1.100   0.638  0.3553 -0.5778 -0.1289
  808MOL0     C 8971   7.418   1.176   0.513  0.2159  0.5350 -0.1170
  808MOL0     C 8972   7.301   1.213   0.453 -0.1775  0.0772  0.3922
  808MOL0     C 8973   7.320   1.268   0.316 -0.4499  1.3129 -0.4532
  808MOL0     C 8974   7.172   1.181   0.504 -0.0347  1.1086 -0.4819
  808MOL0     C 8975   7.042   1.231   0.450 -0.4520 -0.3791  0.6627
  808MOL0     O 8976   6.933   1.146   0.464 -0.1104 -0.6890 -0.3127
  808MOL0     C 8977   6.809   1.196   0.422 -0.4494  0.2912 -0.7213
  808MOL0     C 8978   6.767   1.236   0.299  0.7277  0.0895 -0.2379
  808MOL0     C 8979   6.631   1.283   0.279  0.0928  0.0645 -0.0831
  808MOL0     C 8980   6.545   1.275   0.391 -0.2146 -0.4748 -0.2287
  808MOL0     O 8981   6.423   1.325   0.373  0.2365 -0.0658 -0.8017
  808MOL0     C 8982   6.348   1.383   0.478  0.5988 -0.0217 -0.6351
  808MOL0     C 8983   6.201   1.424   0.434 -0.3200 -0.8116  0.0650
  808MOL0     C 8984   6.100   1.418   0.552  0.1900 -0.1953 -0.1259
  808MOL0     C 8985   5.961   1.464   0.516  0.2362  0.3759  0.9770
  808MOL0     C 8986   5.874   1.488   0.637  0.4315  0.5572  0.0178
  808MOL0     C 8987   5.736   1.555   0.606 -0.5696 -1.0707  0.7179
  808MOL0     C 8988   5.649   1.573   0.731  0.7497  0.7677 -0.1345
  808MOL0     C 8989   5.532   1.664   0.695  0.2394 -0.2169  1.0084
  808MOL0    Cl 8990   5.382   1.645   0.787  0.2106 -0.2702 -0.0846
  808MOL0     C 8991   6.591   1.221   0.511 -0.2547  0.1849  0.5304
  808MOL0     C 8992   6.715   1.182   0.526  0.7318  0.1005 -0.6733
  808MOL0     O 8993   7.049   1.338   0.387  0.5743  0.1158  0.5302
  808MOL0     C 8994   7.171   1.087   0.609  1.2819 -0.1024 -0.5843
  808MOL0     C 8995   7.281   1.057   0.679 -0.7131 -0.0614  0.3591
  808MOL0     N 8996   7.995   0.911   0.575 -0.3184  0.6886 -0.2674
  808MOL0     N 8997   8.094   0.853   0.515  0.6103 -0.4666  0.4520
  808MOL0     C 8998   9.074   0.418   0.733 -0.3301  0.5285 -0.1900
  808MOL0     C 8999   9.206   0.399   0.765 -0.5310 -0.0347  0.0026
  808MOL0     C 9000   9.588   0.324   1.047  0.0784  0.0150  0.1169
  808MOL0     C 9001   9.660   0.359   1.163  0.0446  0.0769  0.9103
  808MOL0     C 9002   9.780   0.295   1.194 -0.2623 -0.3791  0.5486
  808MOL0     C 9003   9.830   0.194   1.107 -0.3324 -0.2390 -1.2613
  808MOL0     O 9004   9.937   0.112   1.127  0.0413 -0.2190 -0.2513
  808MOL0     C 9005  10.000   0.133   1.255  0.3638  0.2888  0.4174
  808MOL0     C 9006  10.106   0.027   1.300  0.8119  0.1941  1.0473
  808MOL0     C 9007  10.115  -0.092   1.199 -0.0812 -0.5046  0.5566
  808MOL0     C 9008  10.183  -0.221   1.238  0.4523 -0.1084 -0.3470
  808MOL0     C 9009  10.305  -0.210   1.319  0.3108  0.2064 -0.9105
  808MOL0     C 9010  10.402  -0.199   1.401  0.4442  0.4536 -0.1715
  808MOL0     C 9011   9.761   0.159   0.996  0.3376 -0.2979 -0.5533
  808MOL0     C 9012   9.644   0.226   0.964  0.1466  0.1255  0.0049
  808MOL0     H 9013   9.171   0.277   1.077  0.9600 -0.2112 -0.4964
  808MOL0     H 9014   8.928   0.316   1.015 -0.6590  0.8960 -1.1929
  808MOL0     H 9015   8.714   0.571   0.756 -0.5809 -0.2044 -0.1098
  808MOL0     H 9016   8.882   0.617   0.718  0.7767  0.9472 -0.2511
  808MOL0     H 9017   8.867   0.402   0.570  1.9995  2.3988  2.4571
  808MOL0     H 9018   8.694   0.408   0.612 -2.6745  3.5504  2.5806
  808MOL0     H 9019   8.859   0.637   0.480  0.3757  0.4879 -0.8176
  808MOL0     H 9020   8.796   0.506   0.386 -0.9589  2.7588 -2.6987
  808MOL0     H 9021   8.569   0.596   0.414  0.2765  0.2652 -0.1075
  808MOL0     H 9022   8.617   0.674   0.576  3.0819  1.8632  0.8149
  808MOL0     H 9023   8.729   0.849   0.454  2.1452  0.7347 -2.0905
  808MOL0     H 9024   8.747   0.755   0.315  0.6649  0.6380  0.2504
  808MOL0     H 9025   8.570   0.942   0.302  0.2444 -0.0135 -0.8534
  808MOL0     H 9026   8.494   0.786   0.276 -1.0646 -0.6709  1.0985
  808MOL0     H 9027   8.416   0.779   0.507 -1.4595  1.2865  1.2809
  808MOL0     H 9028   8.472   0.949   0.520  0.3625  3.4422 -2.7257
  808MOL0     H 9029   8.272   0.863   0.316 -0.0776  1.4573 -0.6426
  808MOL0     H 9030   8.316   1.022   0.355 -0.2090  1.4867  2.3102
  808MOL0     H 9031   8.232   1.130   0.578 -1.7388  0.3156 -0.2413
  808MOL0     H 9032   8.045   1.160   0.782 -2.4695  1.7181  3.1565
  808MOL0     H 9033   7.974   1.225   0.630 -1.9768 -0.6060 -0.3900
  808MOL0     H 9034   7.821   1.200   0.825  0.5675  1.5028 -1.1113
  808MOL0     H 9035   7.822   1.025   0.792 -0.2452 -1.5471 -2.1032
  808MOL0     H 9036   7.804   1.136   0.531 -0.1201 -0.9643 -0.9022
  808MOL0     H 9037   7.697   1.242   0.633  1.0693  0.4057 -0.0074
  808MOL0     H 9038   7.704   0.942   0.648  2.7566  2.4553  1.2630
  808MOL0     H 9039   7.618   1.025   0.518 -0.2101 -0.4449 -0.9162
  808MOL0     H 9040   7.510   1.198   0.460  0.0817 -0.5170 -0.8074
  808MOL0     H 9041   7.422   1.249   0.282 -0.1695 -0.2162  1.0875
  808MOL0     H 9042   7.255   1.211   0.249  0.6213  0.1023 -0.4910
  808MOL0     H 9043   7.299   1.375   0.309  0.8805  1.7118  1.0644
  808MOL0     H 9044   6.834   1.226   0.214  2.4344 -1.1546  1.1778
  808MOL0     H 9045   6.603   1.312   0.179 -0.2581 -1.6355 -0.5051
  808MOL0     H 9046   6.320   1.322   0.564 -0.2866 -0.7936 -1.4437
  808MOL0     H 9047   6.400   1.468   0.522  0.6469 -0.2702 -0.2106
  808MOL0     H 9048   6.217   1.522   0.389 -0.8724  0.3835  2.3468
  808MOL0     H 9049   6.183   1.358   0.348 -1.7761  1.4313 -1.4589
  808MOL0     H 9050   6.132   1.489   0.629 -1.4450  0.5784 -0.1136
  808MOL0     H 9051   6.086   1.324   0.606 -1.1900  0.4247  0.6536
  808MOL0     H 9052   5.986   1.563   0.476 -2.4134  0.7662  0.0409
  808MOL0     H 9053   5.924   1.398   0.436  0.9790  1.1961 -0.0709
  808MOL0     H 9054   5.920   1.560   0.705 -0.6891 -0.9499  2.5597
  808MOL0     H 9055   5.856   1.396   0.695 -1.7882  0.5121 -0.6306
  808MOL0     H 9056   5.764   1.656   0.576 -0.4383 -1.8574 -2.1105
  808MOL0     H 9057   5.679   1.513   0.523  0.1411 -1.7953  0.5839
  808MOL0     H 9058   5.707   1.603   0.819  0.7341 -1.8361  0.8708
  808MOL0     H 9059   5.604   1.474   0.742  0.9115  0.4647 -1.8784
  808MOL0     H 9060   5.501   1.652   0.591 -0.5595  0.9884  1.0872
  808MOL0     H 9061   5.565   1.767   0.708 -1.5700  0.3936  1.1028
  808MOL0     H 9062   6.523   1.192   0.591  2.5705  0.8828  3.3585
  808MOL0     H 9063   6.745   1.127   0.615  1.8200 -1.2622 -1.8230
  808MOL0     H 9064   7.074   1.055   0.643 -0.8989  3.6685 -2.5591
  808MOL0     H 9065   7.271   0.971   0.744 -1.8868 -2.8111 -3.1596
  808MOL0     H 9066   9.051   0.459   0.635 -1.2047 -0.4319 -0.4030
  808MOL0     H 9067   9.276   0.427   0.687 -0.9510  0.6507 -0.1368
  808MOL0     H 9068   9.616   0.427   1.235 -1.4748 -0.5385  0.5891
  808MOL0     H 9069   9.830   0.324   1.286  1.5129 -0.6450 -0.2894
  808MOL0     H 9070  10.043   0.234   1.252 -2.7229  1.6926 -1.6711
  808MOL0     H 9071   9.921   0.130   1.331 -0.6465  1.0495 -0.5757
  808MOL0     H 9072  10.066  -0.009   1.395  0.6492  1.8689  1.6439
  808MOL0     H 9073  10.208   0.065   1.305  2.0069 -2.2954 -1.4119
  808MOL0     H 9074  10.169  -0.060   1.110  0.9299 -1.5052  0.7977
  808MOL0     H 9075  10.015  -0.117   1.161  1.2331 -2.1375 -2.1062
  808MOL0     H 9076  10.191  -0.282   1.147 -1.6028 -1.1646  0.1228
  808MOL0     H 9077  10.113  -0.275   1.303  2.6590  0.4554  2.6771
  808MOL0     H 9078  10.490  -0.186   1.460  1.5099  2.5123 -2.0955
  808MOL0     H 9079   9.798   0.087   0.923  0.5919 -1.0241  0.2836
  808MOL0     H 9080   9.600   0.199   0.868 -1.8546  0.0937  0.8846
  809MOL0     O 9081   7.971   1.451   4.887  0.0932 -0.2785  0.0860
  809MOL0     C 9082   7.974   1.386   4.989 -0.7049 -0.0295  0.0261
  809MOL0     O 9083   7.878   1.317   5.045 -0.2419 -0.3481 -0.1400
  809MOL0     C 9084   7.754   1.319   4.989 -0.1030  0.8336 -0.6267
  809MOL0     C 9085   7.636   1.361   5.053 -0.5622 -0.8439  0.3924
  809MOL0     C 9086   7.507   1.355   4.988 -0.1190 -0.0793  0.0221
  809MOL0     C 9087   7.502   1.299   4.864  0.2975 -0.3648  0.3185
  809MOL0     O 9088   7.386   1.283   4.790  0.9427 -0.2055 -0.2851
  809MOL0     C 9089   7.266   1.288   4.864  0.5387  0.0139 -0.1066
  809MOL0     C 9090   7.160   1.204   4.790 -0.2242 -0.4097 -0.5041
  809MOL0     C 9091   7.041   1.282   4.763  0.1807 -0.1464  0.7561
  809MOL0     C 9092   6.929   1.202   4.678  0.0146 -0.8535 -0.1924
  809MOL0     C 9093   6.802   1.292   4.658  0.0920 -0.0028  0.3856
  809MOL0     C 9094   6.706   1.212   4.586  0.2119  0.2356 -0.1948
  809MOL0     C 9095   6.591   1.290   4.522 -0.2710 -0.1158 -0.2694
  809MOL0     C 9096   6.478   1.199   4.459 -0.3195  0.8996  0.0802
  809MOL0     N 9097   6.345   1.241   4.511 -0.8266 -0.3971  0.4314
  809MOL0     C 9098   6.270   1.155   4.591 -0.2153  0.4464 -0.1329
  809MOL0     C 9099   6.145   1.215   4.592 -1.0385  0.0027 -0.0449
  809MOL0     C 9100   6.020   1.177   4.671 -0.0685  0.5554  0.3667
  809MOL0     C 9101   5.912   1.124   4.579  0.4160 -0.5622 -0.1101
  809MOL0     C 9102   5.775   1.159   4.630 -0.5843  1.0056 -0.1103
  809MOL0     C 9103   5.677   1.120   4.516  0.4913 -0.2727  0.4054
  809MOL0     O 9104   5.553   1.185   4.547 -0.4110 -0.1819 -0.5737
  809MOL0     C 9105   5.447   1.105   4.587  0.1225  0.1041  0.2235
  809MOL0     C 9106   5.462   0.974   4.635 -0.3382  1.8666 -0.7113
  809MOL0     C 9107   5.357   0.902   4.695 -0.2985 -0.6514 -0.0463
  809MOL0     C 9108   5.398   0.771   4.752  0.6709  0.1374 -0.3538
  809MOL0     C 9109   5.229   0.953   4.684 -0.0079 -0.6377 -1.1386
  809MOL0     C 9110   5.110   0.886   4.729  0.3938  0.5094 -0.3115
  809MOL0     O 9111   5.006   0.959   4.763  0.1771 -0.5291  0.9670
  809MOL0     C 9112   4.882   0.915   4.736 -0.5536  1.1830  0.7860
  809MOL0     C 9113   4.797   0.867   4.835  0.1927  0.1187 -0.0313
  809MOL0     C 9114   4.670   0.834   4.800 -0.0574  0.0297  1.4708
  809MOL0     C 9115   4.630   0.848   4.661 -0.0853  0.0036 -0.6035
  809MOL0     O 9116   4.508   0.807   4.631  0.4261 -0.6559 -0.2949
  809MOL0     C 9117   4.511   0.705   4.539  0.5726 -0.2097 -0.2782
  809MOL0     C 9118   4.372   0.684   4.470 -0.6522  0.7724 -0.1467
  809MOL0     C 9119   4.253   0.677   4.571 -0.0269 -0.8049  0.9805
  809MOL0     C 9120   4.124   0.701   4.486  0.1863  0.5263  0.8938
  809MOL0     C 9121   3.989   0.713   4.563  0.6560  0.8124 -0.0207
  809MOL0     C 9122   3.871   0.723   4.473  0.0856 -0.9843 -0.9522
  809MOL0     C 9123   3.747   0.690   4.554  0.4234 -0.9863  0.9544
  809MOL0     C 9124   3.621   0.682   4.461  0.4165  0.4823 -0.0204
  809MOL0    Cl 9125   3.631   0.539   4.356 -0.2891  0.2516  0.0353
  809MOL0     C 9126   4.712   0.901   4.561  0.8257 -0.0796 -0.6014
  809MOL0     C 9127   4.835   0.936   4.606 -0.3692 -0.7255  0.4591
  809MOL0     O 9128   5.104   0.764   4.714 -0.1543  0.1214  0.3720
  809MOL0     C 9129   5.212   1.085   4.639  0.5086  0.0250 -0.1073
  809MOL0     C 9130   5.317   1.164   4.601 -0.4916 -0.5178  0.4668
  809MOL0     N 9131   6.151   1.330   4.516  0.6346  0.2607 -0.1511
  809MOL0     N 9132   6.271   1.348   4.470  0.4307 -0.2511 -0.0765
  809MOL0     C 9133   7.616   1.261   4.798  0.3890 -0.0886  0.2219
  809MOL0     C 9134   7.738   1.262   4.859 -0.0945 -0.3554  0.3386
  809MOL0     C 9135   8.112   1.366   5.048  0.0535 -0.0994 -0.0227
  809MOL0     C 9136   8.226   1.444   5.005  0.1515 -0.5180  0.2339
  809MOL0     C 9137   8.350   1.418   5.054 -0.2814  0.2123 -0.1870
  809MOL0     C 9138   8.375   1.316   5.149  0.8636  0.4338 -0.2621
  809MOL0     O 9139   8.494   1.284   5.204  0.8852 -0.3957  0.3368
  809MOL0     C 9140   8.610   1.332   5.144  0.1749  0.3478 -0.1125
  809MOL0     C 9141   8.743   1.290   5.217  0.2658  0.9892  0.3793
  809MOL0     C 9142   8.771   1.132   5.218  0.9263  0.7148  0.7741
  809MOL0     C 9143   8.920   1.096   5.241  0.3898  0.1760 -0.7091
  809MOL0     C 9144   8.947   1.107   5.384  0.1733  1.0398 -0.3089
  809MOL0     C 9145   8.966   1.104   5.503  0.6485 -0.2660  0.5330
  809MOL0     C 9146   8.260   1.243   5.201 -0.0711  0.0444 -0.4425
  809MOL0     C 9147   8.136   1.278   5.158 -0.0403 -0.6172 -0.1444
  809MOL0     H 9148   7.647   1.404   5.152  1.0516 -1.9811  0.7521
  809MOL0     H 9149   7.419   1.386   5.045  0.5805  0.0126  1.0946
  809MOL0     H 9150   7.278   1.238   4.961 -0.0041  0.8169  0.3887
  809MOL0     H 9151   7.228   1.390   4.880  0.6850  0.2549 -1.2446
  809MOL0     H 9152   7.202   1.166   4.697 -0.2389 -1.1391 -0.2226
  809MOL0     H 9153   7.127   1.116   4.848 -0.8886  0.7409  0.9392
  809MOL0     H 9154   6.996   1.311   4.858 -0.2002 -1.7352  1.0800
  809MOL0     H 9155   7.081   1.356   4.692 -1.3259 -0.1554 -0.1370
  809MOL0     H 9156   6.968   1.163   4.583 -0.0279  0.8603 -0.9586
  809MOL0     H 9157   6.900   1.115   4.737  1.2802 -0.5183  0.9905
  809MOL0     H 9158   6.760   1.319   4.755 -3.7929  1.1368 -1.3970
  809MOL0     H 9159   6.826   1.384   4.604 -3.1196 -0.2716 -1.7905
  809MOL0     H 9160   6.764   1.150   4.517 -0.8917  0.2949 -1.1958
  809MOL0     H 9161   6.659   1.137   4.650  0.8679  0.6193  0.7722
  809MOL0     H 9162   6.552   1.349   4.605  2.3744 -2.6597  3.0805
  809MOL0     H 9163   6.647   1.340   4.442  0.6512 -1.4922 -0.5342
  809MOL0     H 9164   6.492   1.096   4.491 -1.8722  0.7227  0.2622
  809MOL0     H 9165   6.495   1.214   4.352  1.8203  0.2648  0.2961
  809MOL0     H 9166   6.295   1.062   4.641 -0.4042  1.1700  1.3487
  809MOL0     H 9167   6.050   1.094   4.735 -1.8235 -2.0444 -1.9806
  809MOL0     H 9168   5.992   1.261   4.735  0.8231  1.4153 -0.3377
  809MOL0     H 9169   5.917   1.015   4.568  1.7536 -0.3986 -1.4193
  809MOL0     H 9170   5.927   1.160   4.477  1.0098  0.9629  0.4908
  809MOL0     H 9171   5.763   1.265   4.654  3.2123  2.2415 -2.7504
  809MOL0     H 9172   5.764   1.098   4.720  2.9878 -1.5201 -1.1572
  809MOL0     H 9173   5.677   1.011   4.504  0.9747 -0.1139 -1.2338
  809MOL0     H 9174   5.718   1.160   4.423  1.3244 -0.6621  0.5927
  809MOL0     H 9175   5.555   0.918   4.646 -2.6709 -2.2284  0.3109
  809MOL0     H 9176   5.323   0.744   4.827 -0.6884  1.0307 -1.3461
  809MOL0     H 9177   5.398   0.690   4.678  2.0663 -0.3280  0.1119
  809MOL0     H 9178   5.497   0.774   4.798  0.1764  1.1701  0.6768
  809MOL0     H 9179   4.827   0.853   4.938 -2.0119  0.2515  0.6798
  809MOL0     H 9180   4.596   0.789   4.865 -3.3161 -0.5050 -2.2337
  809MOL0     H 9181   4.581   0.720   4.456  2.0122  0.0206  0.9415
  809MOL0     H 9182   4.541   0.607   4.578 -1.2946 -1.2061 -1.1841
  809MOL0     H 9183   4.355   0.761   4.394  2.9377  3.2512  1.3056
  809MOL0     H 9184   4.382   0.589   4.417  1.3255 -0.7006  2.6690
  809MOL0     H 9185   4.250   0.745   4.657  0.0564  0.2758  0.1427
  809MOL0     H 9186   4.235   0.584   4.626  0.1836 -0.3407  1.8439
  809MOL0     H 9187   4.139   0.787   4.420  1.6351 -1.1676 -1.0883
  809MOL0     H 9188   4.120   0.614   4.420 -1.0112 -0.6439  2.4132
  809MOL0     H 9189   3.997   0.788   4.642  2.3351  1.7718 -1.0388
  809MOL0     H 9190   3.981   0.617   4.615  2.6179  0.6683  0.0941
  809MOL0     H 9191   3.862   0.827   4.438  1.1550  0.2044  2.0242
  809MOL0     H 9192   3.889   0.661   4.385  2.9687 -1.2864 -0.2516
  809MOL0     H 9193   3.739   0.764   4.634 -0.3787  2.4521 -2.0548
  809MOL0     H 9194   3.765   0.592   4.598 -1.0535 -1.5816  0.2689
  809MOL0     H 9195   3.625   0.770   4.396  2.1226  0.1523 -0.4285
  809MOL0     H 9196   3.529   0.680   4.520 -1.9390  2.1860 -3.3060
  809MOL0     H 9197   4.676   0.928   4.462  3.3364  2.8880 -0.8664
  809MOL0     H 9198   4.904   0.980   4.536  1.6856 -0.6033  2.4528
  809MOL0     H 9199   5.113   1.128   4.636 -0.0436 -1.1764  0.3438
  809MOL0     H 9200   5.301   1.261   4.555  1.1064 -1.2707 -1.8578
  809MOL0     H 9201   7.611   1.214   4.700  1.0745  0.7212 -0.2153
  809MOL0     H 9202   7.826   1.224   4.809 -0.8328 -1.6575 -0.0143
  809MOL0     H 9203   8.224   1.508   4.918  2.4678  0.2185  0.6594
  809MOL0     H 9204   8.435   1.475   5.016  1.5800 -1.1364  1.7070
  809MOL0     H 9205   8.624   1.304   5.039 -0.1867  0.5399 -0.2117
  809MOL0     H 9206   8.609   1.441   5.153 -0.2853  0.5500 -2.0382
  809MOL0     H 9207   8.740   1.335   5.317  0.0435  2.1752 -0.1466
  809MOL0     H 9208   8.817   1.342   5.155 -0.4517  0.9660 -0.5052
  809MOL0     H 9209   8.729   1.096   5.124 -0.5326  0.1279  1.6025
  809MOL0     H 9210   8.725   1.080   5.303 -0.8455  0.6590 -0.1716
  809MOL0     H 9211   8.987   1.164   5.187  1.1574  0.4122  0.5134
  809MOL0     H 9212   8.943   0.994   5.210 -1.4794 -0.0978 -1.3375
  809MOL0     H 9213   8.985   1.112   5.608 -0.1859 -2.8839  0.9518
  809MOL0     H 9214   8.290   1.171   5.277  0.0840  0.4253 -0.1411
  809MOL0     H 9215   8.046   1.240   5.206  0.5739 -1.3967  0.4051
  810MOL0     O 9216   1.583   4.052   8.941 -0.0115 -0.2442 -0.1101
  810MOL0     C 9217   1.641   3.971   9.017 -0.4151  0.2250  0.9691
  810MOL0     O 9218   1.575   3.882   9.103  0.2370 -0.5141 -0.0454
  810MOL0     C 9219   1.438   3.871   9.083 -0.0474  0.2825  0.9790
  810MOL0     C 9220   1.383   3.749   9.026 -0.3636 -0.6161  0.0426
  810MOL0     C 9221   1.247   3.735   8.996  0.7293  0.4065  0.2794
  810MOL0     C 9222   1.153   3.834   9.021 -0.1852 -0.5654  0.1182
  810MOL0     O 9223   1.035   3.813   8.969  0.5180 -0.1432  0.0002
  810MOL0     C 9224   1.008   3.886   8.857  0.3942  0.1462 -0.4888
  810MOL0     C 9225   0.897   3.834   8.773 -0.5020  0.7920 -0.4417
  810MOL0     C 9226   0.921   3.694   8.726 -0.8040 -0.0532  0.1134
  810MOL0     C 9227   0.836   3.678   8.602  1.0805  0.2720  0.7836
  810MOL0     C 9228   0.843   3.546   8.539  0.9209  0.1017 -0.0311
  810MOL0     C 9229   0.733   3.528   8.434  0.9132  0.4337 -0.2498
  810MOL0     C 9230   0.751   3.392   8.357  0.1220 -0.4161  0.4110
  810MOL0     C 9231   0.728   3.273   8.447 -0.4503  0.7171  0.5845
  810MOL0     N 9232   0.742   3.147   8.373 -0.3335  0.0557 -0.2174
  810MOL0     C 9233   0.653   3.111   8.273  0.0430  0.3572  0.4311
  810MOL0     C 9234   0.711   2.996   8.228 -0.1750 -0.7895  0.4561
  810MOL0     C 9235   0.661   2.902   8.123 -0.2426 -0.9054  0.5157
  810MOL0     C 9236   0.513   2.859   8.141  0.1317  0.0698  0.2660
  810MOL0     C 9237   0.464   2.749   8.049 -0.2800 -0.3714  0.0896
  810MOL0     C 9238   0.333   2.692   8.099  1.0056  0.2278 -0.7672
  810MOL0     O 9239   0.235   2.788   8.140 -0.1059  0.3478 -0.5132
  810MOL0     C 9240   0.103   2.745   8.171  0.0484 -0.5793  0.5700
  810MOL0     C 9241   0.009   2.840   8.157 -0.0713 -0.9911 -0.0135
  810MOL0     C 9242  -0.125   2.811   8.163 -0.3243 -1.0505  0.3360
  810MOL0     C 9243  -0.231   2.904   8.109 -0.4357 -0.7538 -0.1637
  810MOL0     C 9244  -0.176   2.682   8.203 -0.1994  0.4494  1.0367
  810MOL0     C 9245  -0.309   2.640   8.251  0.1821 -0.3327  0.1936
  810MOL0     O 9246  -0.349   2.505   8.246  0.3396  0.1042  0.1781
  810MOL0     C 9247  -0.487   2.481   8.275 -0.8752  0.4582  0.0511
  810MOL0     C 9248  -0.573   2.468   8.172  0.5117  0.4734 -0.4040
  810MOL0     C 9249  -0.706   2.448   8.197 -0.0534  0.0762 -0.9262
  810MOL0     C 9250  -0.755   2.451   8.328  0.4192 -0.7352  0.1295
  810MOL0     O 9251  -0.889   2.443   8.367 -0.2732 -0.0297 -0.0586
  810MOL0     C 9252  -0.930   2.310   8.364  0.0448  0.2032  0.5120
  810MOL0     C 9253  -1.006   2.289   8.505  0.4384 -0.0455  0.0877
  810MOL0     C 9254  -1.140   2.350   8.491 -0.9612  0.2342  0.5375
  810MOL0     C 9255  -1.229   2.291   8.609 -0.0539 -0.1811 -0.2241
  810MOL0     C 9256  -1.374   2.299   8.564  0.8544  0.6416 -0.4538
  810MOL0     C 9257  -1.462   2.225   8.674 -0.3342 -0.1912  0.1302
  810MOL0     C 9258  -1.599   2.213   8.607  0.2246 -0.3509  0.3870
  810MOL0     C 9259  -1.683   2.117   8.686 -0.3224  0.0173 -1.0675
  810MOL0    Cl 9260  -1.700   2.181   8.857 -0.1041  0.3772  0.4163
  810MOL0     C 9261  -0.669   2.488   8.431 -0.3233  0.3207 -0.3602
  810MOL0     C 9262  -0.529   2.491   8.414  0.0297 -0.1622 -0.0091
  810MOL0     O 9263  -0.378   2.733   8.287  0.2033 -0.5549  0.0878
  810MOL0     C 9264  -0.075   2.580   8.211  0.2758  1.0039  0.5623
  810MOL0     C 9265   0.056   2.613   8.194 -0.3544 -0.8063 -0.4206
  810MOL0     N 9266   0.829   2.967   8.303 -1.4906 -0.2787  0.1635
  810MOL0     N 9267   0.846   3.061   8.388  0.4476  0.7210 -0.1043
  810MOL0     C 9268   1.204   3.947   9.081  0.3081  1.1686 -0.3912
  810MOL0     C 9269   1.342   3.970   9.106  0.1987  0.3599  0.2032
  810MOL0     C 9270   1.783   3.962   8.989 -0.3742 -0.0017 -0.6630
  810MOL0     C 9271   1.848   4.025   8.878 -0.0048 -0.8030 -0.5216
  810MOL0     C 9272   1.980   4.012   8.844  0.0444 -0.2553  1.2198
  810MOL0     C 9273   2.056   3.915   8.920 -0.7007 -0.2541  0.7732
  810MOL0     O 9274   2.188   3.882   8.895 -0.3477  0.5468  0.4821
  810MOL0     C 9275   2.250   3.913   8.771 -1.3435 -0.2327 -0.6930
  810MOL0     C 9276   2.405   3.906   8.782 -0.3914  0.5194  0.2227
  810MOL0     C 9277   2.454   3.766   8.788  0.1515 -0.1249  0.3689
  810MOL0     C 9278   2.604   3.756   8.766 -0.3304  0.1595 -0.3584
  810MOL0     C 9279   2.631   3.777   8.624 -1.1042  0.9744  0.0470
  810MOL0     C 9280   2.647   3.810   8.511 -0.7381 -0.4464 -0.0568
  810MOL0     C 9281   2.002   3.841   9.023 -0.5131 -0.4349 -0.1018
  810MOL0     C 9282   1.866   3.871   9.056 -0.1611 -0.9997 -1.0269
  810MOL0     H 9283   1.449   3.670   8.990  1.3803  1.7416 -2.3494
  810MOL0     H 9284   1.232   3.638   8.949  3.4037 -0.0998  0.3003
  810MOL0     H 9285   0.968   3.979   8.899  0.1309 -1.0180  1.9683
  810MOL0     H 9286   1.097   3.907   8.797  1.4826  0.5602  1.2024
  810MOL0     H 9287   0.808   3.828   8.836 -0.2141 -0.9876 -0.1576
  810MOL0     H 9288   0.887   3.909   8.693  3.6841  1.3569 -0.6390
  810MOL0     H 9289   1.024   3.664   8.709 -1.2599 -0.4278 -2.3657
  810MOL0     H 9290   0.889   3.625   8.804 -2.6377 -0.9124 -1.3034
  810MOL0     H 9291   0.734   3.688   8.640  0.7553 -1.9917  0.6643
  810MOL0     H 9292   0.845   3.756   8.526  2.5761 -0.9401 -0.3343
  810MOL0     H 9293   0.942   3.524   8.498  0.3643 -1.2759 -0.7135
  810MOL0     H 9294   0.835   3.466   8.613  0.2694 -2.2427 -2.5169
  810MOL0     H 9295   0.633   3.540   8.479  2.0912  4.6986  1.7970
  810MOL0     H 9296   0.733   3.614   8.366 -0.5405  1.5422  1.0650
  810MOL0     H 9297   0.673   3.399   8.280 -1.3719  2.1521  2.0136
  810MOL0     H 9298   0.849   3.381   8.309  1.0336 -1.9270  2.4376
  810MOL0     H 9299   0.631   3.285   8.496 -0.3386  1.7550  0.5683
  810MOL0     H 9300   0.810   3.266   8.520 -0.3756 -0.2178  0.4276
  810MOL0     H 9301   0.573   3.161   8.220  1.5174  1.5593 -0.7573
  810MOL0     H 9302   0.669   2.959   8.030  2.7468  0.3328  1.4270
  810MOL0     H 9303   0.726   2.814   8.116  0.8425 -0.0803 -0.0286
  810MOL0     H 9304   0.446   2.943   8.117  0.0204 -0.3258 -0.8932
  810MOL0     H 9305   0.504   2.833   8.246 -0.9247  1.0230  0.4250
  810MOL0     H 9306   0.527   2.662   8.070  0.0999  0.3228  2.0026
  810MOL0     H 9307   0.469   2.775   7.942  1.9805 -2.3760 -0.3823
  810MOL0     H 9308   0.350   2.623   8.182  1.6962 -1.5475 -2.3206
  810MOL0     H 9309   0.298   2.630   8.016 -0.7124  1.9675 -1.4139
  810MOL0     H 9310   0.040   2.936   8.116 -3.6777 -0.7913 -2.7509
  810MOL0     H 9311  -0.182   2.987   8.057  0.3690  0.0279  1.7304
  810MOL0     H 9312  -0.298   2.843   8.049 -0.4529 -1.1420  0.2453
  810MOL0     H 9313  -0.285   2.942   8.196  0.4299  2.2738 -0.8058
  810MOL0     H 9314  -0.537   2.478   8.070 -0.3448 -3.1206 -1.2233
  810MOL0     H 9315  -0.774   2.426   8.116  1.7295  0.7345 -2.6897
  810MOL0     H 9316  -0.996   2.291   8.279  0.3591 -0.4820  0.4161
  810MOL0     H 9317  -0.848   2.240   8.349  0.7727  1.5812 -3.0458
  810MOL0     H 9318  -1.018   2.184   8.530  4.4938 -0.5310  0.5718
  810MOL0     H 9319  -0.951   2.331   8.589 -0.7648 -1.4920  1.6818
  810MOL0     H 9320  -1.190   2.315   8.400 -2.1480  1.3702  0.7222
  810MOL0     H 9321  -1.139   2.459   8.495  1.6255  0.4136 -2.0880
  810MOL0     H 9322  -1.217   2.186   8.639 -1.0519 -0.1431  0.3581
  810MOL0     H 9323  -1.212   2.347   8.701 -0.6618  3.7686 -2.2795
  810MOL0     H 9324  -1.394   2.255   8.466  0.2672  0.3121 -0.1938
  810MOL0     H 9325  -1.407   2.403   8.557 -0.6154  0.0794 -2.5952
  810MOL0     H 9326  -1.424   2.125   8.692 -1.7747 -0.6438  0.7445
  810MOL0     H 9327  -1.446   2.288   8.762  0.0748  1.1235 -0.8467
  810MOL0     H 9328  -1.584   2.169   8.508 -2.0088  2.1020 -1.1981
  810MOL0     H 9329  -1.641   2.314   8.599  3.5881  1.2207  0.7739
  810MOL0     H 9330  -1.627   2.024   8.693  1.5180  1.1723  0.8403
  810MOL0     H 9331  -1.781   2.102   8.639 -0.5652  0.8254 -0.8314
  810MOL0     H 9332  -0.705   2.494   8.533  1.7298  0.6516  0.3878
  810MOL0     H 9333  -0.466   2.510   8.501 -1.6048 -1.2388  1.4866
  810MOL0     H 9334  -0.096   2.479   8.245  4.0589 -0.9378 -2.1560
  810MOL0     H 9335   0.135   2.541   8.213  1.7420  0.5769 -3.1869
  810MOL0     H 9336   1.132   4.028   9.089 -0.8205  0.0420  1.5737
  810MOL0     H 9337   1.380   4.063   9.147 -1.4546 -0.1310  3.1206
  810MOL0     H 9338   1.781   4.093   8.825 -1.7006 -1.5645  0.5834
  810MOL0     H 9339   2.020   4.068   8.760 -2.2263 -3.3008 -2.1695
  810MOL0     H 9340   2.204   3.853   8.692 -1.7528 -0.9304  0.0659
  810MOL0     H 9341   2.237   4.018   8.744  2.0718  0.3530 -0.5727
  810MOL0     H 9342   2.431   3.958   8.874 -0.8964  0.2978  0.4965
  810MOL0     H 9343   2.448   3.964   8.700 -1.2287  1.5125  0.4637
  810MOL0     H 9344   2.402   3.704   8.714 -2.2014  1.4678  0.5560
  810MOL0     H 9345   2.434   3.732   8.890 -1.1516 -1.2289 -0.2180
  810MOL0     H 9346   2.640   3.654   8.785 -0.1771  0.5675  1.7769
  810MOL0     H 9347   2.665   3.819   8.832 -0.2979  1.5841 -1.6896
  810MOL0     H 9348   2.656   3.852   8.413  0.5865  2.0712  1.0506
  810MOL0     H 9349   2.060   3.763   9.070 -1.1186 -2.1331 -2.0201
  810MOL0     H 9350   1.825   3.819   9.142 -3.0707 -0.0134 -1.7000
  811MOL0     O 9351   9.142   4.055   1.462 -0.1616 -0.3188 -0.3300
  811MOL0     C 9352   9.098   3.944   1.457 -0.3374 -0.6492  0.6136
  811MOL0     O 9353   8.969   3.897   1.479 -0.0768 -0.7309  0.2315
  811MOL0     C 9354   8.857   3.984   1.473 -0.0193 -0.4228  0.2119
  811MOL0     C 9355   8.733   3.927   1.482 -0.0552 -0.2320 -1.4905
  811MOL0     C 9356   8.616   4.005   1.461  0.0566 -0.5354  0.0466
  811MOL0     C 9357   8.619   4.143   1.453 -0.3120  0.3354 -0.5392
  811MOL0     O 9358   8.496   4.206   1.451 -0.5100  0.6140 -0.1471
  811MOL0     C 9359   8.482   4.337   1.401 -0.3680 -0.3470 -0.3223
  811MOL0     C 9360   8.332   4.371   1.400 -0.6535  0.7157 -0.0773
  811MOL0     C 9361   8.338   4.517   1.340  0.3672  0.0581  0.2801
  811MOL0     C 9362   8.199   4.575   1.342  0.5665  0.2358 -0.8970
  811MOL0     C 9363   8.205   4.718   1.266  0.5288  0.5877  0.4316
  811MOL0     C 9364   8.089   4.807   1.288 -0.3611  0.2463 -0.4364
  811MOL0     C 9365   7.961   4.752   1.227 -0.1811 -0.0557 -0.2795
  811MOL0     C 9366   7.828   4.813   1.282  0.1225 -0.5665 -0.4491
  811MOL0     N 9367   7.813   4.955   1.248  0.2276 -0.0393 -0.0892
  811MOL0     C 9368   7.808   4.981   1.116  0.1909 -0.4964  0.6464
  811MOL0     C 9369   7.782   5.112   1.119  0.4306 -0.6475  0.7872
  811MOL0     C 9370   7.766   5.207   0.996 -0.0131 -0.5863 -0.4073
  811MOL0     C 9371   7.683   5.153   0.880 -0.6580  0.9740  0.0778
  811MOL0     C 9372   7.668   5.253   0.770 -0.1671 -0.6385  0.3345
  811MOL0     C 9373   7.606   5.183   0.648 -0.7319  0.5577  0.2516
  811MOL0     O 9374   7.480   5.120   0.689  0.5433  0.2371 -0.9047
  811MOL0     C 9375   7.367   5.189   0.683  0.8975 -0.4420  0.1753
  811MOL0     C 9376   7.365   5.325   0.651  0.2109 -0.8576 -0.0554
  811MOL0     C 9377   7.243   5.392   0.647 -0.4454 -0.3669  0.4430
  811MOL0     C 9378   7.255   5.540   0.624  0.1872  0.2609  0.7544
  811MOL0     C 9379   7.122   5.322   0.668  1.0370  0.1382 -0.5487
  811MOL0     C 9380   6.991   5.388   0.674 -0.6676 -0.2085 -0.4608
  811MOL0     O 9381   6.897   5.312   0.623  0.5152  0.0422 -0.0897
  811MOL0     C 9382   6.773   5.360   0.605 -0.3593  0.7996  0.3731
  811MOL0     C 9383   6.677   5.295   0.670  0.6490  0.3673 -0.4163
  811MOL0     C 9384   6.544   5.322   0.641  0.4228 -0.4649 -0.6341
  811MOL0     C 9385   6.503   5.415   0.546 -1.1120  0.4836  0.8100
  811MOL0     O 9386   6.375   5.436   0.503  0.1184 -0.4696 -0.0555
  811MOL0     C 9387   6.261   5.385   0.580  0.0789 -0.5815  0.4729
  811MOL0     C 9388   6.136   5.464   0.540  0.7290  0.3015  0.3962
  811MOL0     C 9389   6.016   5.440   0.637 -0.3765 -0.2719 -0.9937
  811MOL0     C 9390   5.905   5.542   0.595 -0.2634 -0.3948  0.3971
  811MOL0     C 9391   5.785   5.551   0.700 -0.0967  0.0018  0.1652
  811MOL0     C 9392   5.660   5.628   0.654  0.4894  0.4283 -0.4598
  811MOL0     C 9393   5.576   5.655   0.780 -0.5787 -0.2667 -0.8994
  811MOL0     C 9394   5.460   5.749   0.778 -0.0893 -0.6740  0.2984
  811MOL0    Cl 9395   5.332   5.695   0.668 -0.5333 -0.1023  0.1248
  811MOL0     C 9396   6.614   5.480   0.483  0.5565  0.0130 -0.1088
  811MOL0     C 9397   6.745   5.445   0.501  0.4122 -0.5740 -1.5141
  811MOL0     O 9398   6.973   5.492   0.731 -0.4192  0.6406 -1.2034
  811MOL0     C 9399   7.128   5.188   0.689 -0.0804  0.3554 -0.3714
  811MOL0     C 9400   7.247   5.123   0.710 -1.1978  0.7651 -0.3642
  811MOL0     N 9401   7.771   5.158   1.245  0.5527 -0.2483 -0.3027
  811MOL0     N 9402   7.789   5.067   1.328  0.2580  0.3952 -0.3572
  811MOL0     C 9403   8.745   4.206   1.438  0.1102  0.1494 -0.4038
  811MOL0     C 9404   8.861   4.128   1.456  0.0734 -0.9449 -0.8343
  811MOL0     C 9405   9.200   3.840   1.433  0.8011 -0.2659  0.5029
  811MOL0     C 9406   9.193   3.716   1.497  0.2103 -0.0045 -0.2221
  811MOL0     C 9407   9.290   3.620   1.480  0.1662  0.4685  0.1531
  811MOL0     C 9408   9.408   3.641   1.409  0.6086 -1.0221 -0.5129
  811MOL0     O 9409   9.491   3.534   1.407 -0.4132  0.1398  0.0425
  811MOL0     C 9410   9.607   3.553   1.316 -0.1436  0.1531 -0.0530
  811MOL0     C 9411   9.717   3.630   1.392 -0.7013  0.5150  0.4839
  811MOL0     C 9412   9.768   3.542   1.515 -0.5495 -0.5811  0.2734
  811MOL0     C 9413   9.882   3.628   1.578 -0.0140  0.0301  0.7153
  811MOL0     C 9414   9.929   3.562   1.702 -0.3124  0.3302  0.2473
  811MOL0     C 9415  10.009   3.515   1.779 -0.3073  0.7125 -0.9253
  811MOL0     C 9416   9.415   3.765   1.339 -0.1220 -0.5113 -1.6601
  811MOL0     C 9417   9.315   3.867   1.353  0.5288 -0.8008 -0.8435
  811MOL0     H 9418   8.721   3.819   1.488 -1.5035 -0.0266  2.3732
  811MOL0     H 9419   8.517   3.962   1.450  0.2822 -0.9638 -0.3239
  811MOL0     H 9420   8.530   4.399   1.477  3.2809 -1.1647 -1.7690
  811MOL0     H 9421   8.522   4.347   1.300 -0.8853 -1.6562 -0.6793
  811MOL0     H 9422   8.271   4.303   1.339 -0.2665 -0.5080  0.8490
  811MOL0     H 9423   8.285   4.355   1.498 -2.6420 -2.4063 -1.3670
  811MOL0     H 9424   8.406   4.582   1.396  2.2807 -2.9497  1.6828
  811MOL0     H 9425   8.372   4.515   1.236  0.9485 -0.2350  0.4735
  811MOL0     H 9426   8.128   4.509   1.291  0.5854 -0.2286 -0.3337
  811MOL0     H 9427   8.154   4.581   1.442  0.9620 -0.3633 -0.6793
  811MOL0     H 9428   8.290   4.778   1.297  1.3106  1.4871 -3.0493
  811MOL0     H 9429   8.223   4.702   1.159 -1.2993  0.2326  0.1414
  811MOL0     H 9430   8.066   4.819   1.394 -2.3053  0.6037 -0.8603
  811MOL0     H 9431   8.115   4.906   1.250 -2.3116 -0.2597 -3.4544
  811MOL0     H 9432   7.968   4.757   1.118 -1.8622  2.3355 -0.3628
  811MOL0     H 9433   7.948   4.646   1.251 -1.1087  0.4931  1.9090
  811MOL0     H 9434   7.819   4.801   1.390 -0.8409 -1.5192 -0.6120
  811MOL0     H 9435   7.747   4.756   1.236 -0.1509 -0.6528  0.1320
  811MOL0     H 9436   7.822   4.918   1.028 -0.2591  1.0074 -0.5393
  811MOL0     H 9437   7.725   5.300   1.037  0.0029 -1.6420  2.2302
  811MOL0     H 9438   7.870   5.219   0.965  0.7228 -0.4304  1.9174
  811MOL0     H 9439   7.588   5.124   0.927  0.0712  3.2172  3.2715
  811MOL0     H 9440   7.746   5.072   0.844 -0.9681  1.1993 -0.9908
  811MOL0     H 9441   7.764   5.288   0.731  0.4916 -1.5091  1.1267
  811MOL0     H 9442   7.601   5.331   0.806  0.8466 -1.3339  4.2277
  811MOL0     H 9443   7.674   5.106   0.612  0.5640  0.8446  1.9427
  811MOL0     H 9444   7.587   5.256   0.568 -0.4344  0.8910  0.4785
  811MOL0     H 9445   7.453   5.386   0.634 -2.0361  2.2235 -1.7425
  811MOL0     H 9446   7.303   5.590   0.708  2.8492  1.9997 -1.6393
  811MOL0     H 9447   7.331   5.556   0.547  1.6471  0.4963  2.1941
  811MOL0     H 9448   7.156   5.582   0.601 -1.6751 -3.5328  1.0269
  811MOL0     H 9449   6.717   5.223   0.740 -0.1115 -0.5572 -0.9101
  811MOL0     H 9450   6.466   5.264   0.689 -0.7210 -1.4814 -3.5154
  811MOL0     H 9451   6.256   5.278   0.557 -0.1391 -0.3512 -0.6347
  811MOL0     H 9452   6.275   5.391   0.688 -1.9545  1.0646  0.7026
  811MOL0     H 9453   6.171   5.568   0.531  0.8181  0.3139  0.8734
  811MOL0     H 9454   6.096   5.423   0.446 -2.5665 -0.4608  1.9758
  811MOL0     H 9455   6.040   5.456   0.743 -1.4642 -0.7770 -0.6552
  811MOL0     H 9456   5.975   5.339   0.632 -0.6447 -0.2949  0.7795
  811MOL0     H 9457   5.946   5.644   0.589 -0.7465 -0.1777  0.7547
  811MOL0     H 9458   5.875   5.517   0.493  1.0463  0.3830 -0.2109
  811MOL0     H 9459   5.823   5.606   0.786  0.2154  1.8621 -1.0804
  811MOL0     H 9460   5.761   5.447   0.721 -0.3632 -0.4005 -1.9197
  811MOL0     H 9461   5.674   5.722   0.600 -2.1712  0.4402 -1.3105
  811MOL0     H 9462   5.593   5.562   0.598  1.0276 -3.2913  2.8483
  811MOL0     H 9463   5.646   5.700   0.851  1.2739 -0.8610 -2.2845
  811MOL0     H 9464   5.545   5.559   0.823  0.0273  1.1401  3.0818
  811MOL0     H 9465   5.501   5.841   0.735  0.8788 -1.8242 -1.4143
  811MOL0     H 9466   5.421   5.772   0.877 -0.1349 -0.5203  0.2446
  811MOL0     H 9467   6.590   5.542   0.398 -1.2050 -1.5441 -0.8218
  811MOL0     H 9468   6.826   5.485   0.441 -0.2256  2.1925 -0.6847
  811MOL0     H 9469   7.038   5.135   0.718  1.6097 -0.8478  3.4880
  811MOL0     H 9470   7.242   5.018   0.734  1.4470  0.6764  0.0670
  811MOL0     H 9471   8.755   4.314   1.432 -1.9818  0.3548 -0.8897
  811MOL0     H 9472   8.958   4.177   1.462  1.1252 -3.0965  1.6612
  811MOL0     H 9473   9.120   3.695   1.575  1.1952  3.2036  1.7923
  811MOL0     H 9474   9.274   3.520   1.519  0.2908 -0.1796 -1.3764
  811MOL0     H 9475   9.650   3.455   1.294  0.8488  0.3272  0.9953
  811MOL0     H 9476   9.576   3.603   1.224  1.2786  1.0923 -0.0500
  811MOL0     H 9477   9.680   3.730   1.415  2.0805  2.4311 -2.3668
  811MOL0     H 9478   9.804   3.640   1.326  1.1333  1.4440  2.8944
  811MOL0     H 9479   9.794   3.439   1.487  1.9832 -0.9074  3.2823
  811MOL0     H 9480   9.689   3.534   1.590  1.3502 -0.2611  2.4154
  811MOL0     H 9481   9.845   3.730   1.591  1.0119  0.3803  0.9748
  811MOL0     H 9482   9.964   3.646   1.508  0.9341  0.1212  1.8286
  811MOL0     H 9483  10.092   3.490   1.842  1.1410  0.7406 -2.7222
  811MOL0     H 9484   9.510   3.793   1.293  0.9181 -2.0861 -0.5793
  811MOL0     H 9485   9.326   3.966   1.311  0.3822 -0.0181  0.8607
  812MOL0     O 9486   2.646  11.221   2.240 -0.8356  0.1312  0.4138
  812MOL0     C 9487   2.705  11.149   2.313 -0.0045  1.1474  0.4360
  812MOL0     O 9488   2.649  11.052   2.397 -0.3905 -0.0441  0.1321
  812MOL0     C 9489   2.513  11.041   2.382  0.3929  0.5467  0.6174
  812MOL0     C 9490   2.465  10.916   2.337 -0.4346  0.1951  0.0246
  812MOL0     C 9491   2.331  10.892   2.317 -0.3625  0.4529 -0.2566
  812MOL0     C 9492   2.245  10.996   2.332  0.0303  0.6363  0.8168
  812MOL0     O 9493   2.114  10.960   2.301  0.4675 -0.2021 -0.6597
  812MOL0     C 9494   2.014  11.064   2.314  0.4579 -0.4267  0.0050
  812MOL0     C 9495   1.882  10.989   2.332  0.1708  0.1451  0.2234
  812MOL0     C 9496   1.761  11.074   2.381  0.5923  0.3329 -0.1803
  812MOL0     C 9497   1.629  11.000   2.371 -0.5337  0.2989 -0.6387
  812MOL0     C 9498   1.506  11.086   2.422 -0.7445 -0.7723 -0.1086
  812MOL0     C 9499   1.386  11.066   2.321 -0.2118 -1.4827  0.5618
  812MOL0     C 9500   1.276  11.160   2.358  0.0973 -0.0563 -1.1405
  812MOL0     C 9501   1.141  11.169   2.287  0.9109  1.2466 -0.3863
  812MOL0     N 9502   1.071  11.037   2.301 -0.4136 -0.5443 -0.8900
  812MOL0     C 9503   0.988  10.996   2.401  0.5926  0.3831  0.4705
  812MOL0     C 9504   0.944  10.871   2.359 -0.6832 -0.2005 -0.6207
  812MOL0     C 9505   0.836  10.800   2.434 -0.2241 -0.5525  0.6885
  812MOL0     C 9506   0.735  10.742   2.330 -0.5719  0.8743  0.1716
  812MOL0     C 9507   0.625  10.665   2.400  0.2156  0.1909 -1.2388
  812MOL0     C 9508   0.530  10.594   2.301 -0.3600 -0.0922  0.1900
  812MOL0     O 9509   0.465  10.700   2.228 -0.6802 -0.0320  0.0913
  812MOL0     C 9510   0.355  10.665   2.161  0.5845  0.2254 -0.9361
  812MOL0     C 9511   0.247  10.622   2.237 -0.7468  0.3135 -0.8616
  812MOL0     C 9512   0.129  10.567   2.182  0.5998  0.6241  0.2095
  812MOL0     C 9513   0.024  10.499   2.262  0.4886  0.0771  0.4732
  812MOL0     C 9514   0.125  10.564   2.036  0.5036  0.1562 -0.7371
  812MOL0     C 9515  -0.001  10.520   1.966  0.4718  0.9809  0.5412
  812MOL0     O 9516  -0.117  10.584   2.007  0.6308  0.0825  0.3904
  812MOL0     C 9517  -0.227  10.582   1.919 -0.8526 -0.5364 -0.1572
  812MOL0     C 9518  -0.289  10.461   1.893  0.2402 -0.3382 -0.7605
  812MOL0     C 9519  -0.403  10.457   1.809 -0.6332  0.4375  0.2766
  812MOL0     C 9520  -0.455  10.579   1.753  0.6224  0.4477 -0.3293
  812MOL0     O 9521  -0.565  10.587   1.670  0.6919  0.0131 -0.1702
  812MOL0     C 9522  -0.653  10.473   1.639  0.4420 -1.0331 -0.3430
  812MOL0     C 9523  -0.773  10.529   1.554  0.4294 -0.4588 -0.8124
  812MOL0     C 9524  -0.884  10.593   1.656 -0.3319  0.0699 -0.7131
  812MOL0     C 9525  -0.964  10.693   1.592 -0.2534 -0.2439 -0.2187
  812MOL0     C 9526  -1.107  10.705   1.650  0.7959  0.3499  0.5189
  812MOL0     C 9527  -1.182  10.819   1.580 -0.2732 -0.5732  0.3617
  812MOL0     C 9528  -1.322  10.829   1.649 -0.6865 -0.2770 -0.6212
  812MOL0     C 9529  -1.400  10.943   1.580 -0.0582 -0.2544 -0.4523
  812MOL0    Cl 9530  -1.329  11.099   1.620 -0.2352  0.1706  0.1080
  812MOL0     C 9531  -0.397  10.699   1.787  0.3426  0.4098  0.3907
  812MOL0     C 9532  -0.280  10.701   1.862  0.7264  0.3514  0.0396
  812MOL0     O 9533   0.006  10.444   1.872  0.2639  0.4437  0.1328
  812MOL0     C 9534   0.235  10.617   1.965  0.3150  0.2868 -0.0852
  812MOL0     C 9535   0.353  10.665   2.023  0.1863 -1.0045 -0.0734
  812MOL0     N 9536   1.002  10.843   2.239 -0.3631  0.2838 -0.4509
  812MOL0     N 9537   1.084  10.937   2.213  0.4711  0.2099 -0.6620
  812MOL0     C 9538   2.293  11.124   2.374 -0.1812 -0.5405  0.5020
  812MOL0     C 9539   2.425  11.147   2.395 -0.8867 -0.1545 -0.0987
  812MOL0     C 9540   2.849  11.162   2.319 -0.7939 -0.3751  0.2866
  812MOL0     C 9541   2.923  11.077   2.401 -0.0923  0.0844 -0.5666
  812MOL0     C 9542   3.060  11.068   2.381  0.5609  0.4026 -0.5726
  812MOL0     C 9543   3.130  11.161   2.306 -0.3408 -0.1312  0.4723
  812MOL0     O 9544   3.267  11.154   2.304  0.0184 -0.2331 -0.3798
  812MOL0     C 9545   3.350  11.256   2.237 -0.7821  1.3735  0.2851
  812MOL0     C 9546   3.488  11.174   2.231  0.1698  0.4410 -0.2764
  812MOL0     C 9547   3.602  11.272   2.186  0.5483  0.7076 -0.1615
  812MOL0     C 9548   3.740  11.205   2.189  0.4010  0.1956 -0.5387
  812MOL0     C 9549   3.788  11.186   2.331  0.0892  0.4412 -0.2451
  812MOL0     C 9550   3.820  11.146   2.435 -0.2275 -0.4343  0.5106
  812MOL0     C 9551   3.056  11.268   2.240 -1.3281  0.2924 -0.7299
  812MOL0     C 9552   2.919  11.261   2.238  0.7177  0.0139  0.0504
  812MOL0     H 9553   2.540  10.843   2.309 -0.3972  0.0987  0.3678
  812MOL0     H 9554   2.283  10.800   2.285  0.1699 -0.7066  2.0621
  812MOL0     H 9555   2.032  11.127   2.402  2.8339  3.1286 -2.7127
  812MOL0     H 9556   2.012  11.122   2.221  1.6439  0.1468  0.3097
  812MOL0     H 9557   1.859  10.930   2.243 -0.7422 -0.0259  0.5647
  812MOL0     H 9558   1.909  10.921   2.413  0.9535 -0.5196 -0.5786
  812MOL0     H 9559   1.774  11.111   2.484 -2.0078 -1.4519  0.8942
  812MOL0     H 9560   1.757  11.159   2.312  0.0819 -1.3942 -2.3641
  812MOL0     H 9561   1.614  10.971   2.267  1.2624 -1.8442 -0.3934
  812MOL0     H 9562   1.622  10.902   2.419 -1.6521  0.6758  0.0081
  812MOL0     H 9563   1.474  11.062   2.523  0.7608  0.8786  0.8167
  812MOL0     H 9564   1.533  11.192   2.415  2.3265 -1.5272 -1.8803
  812MOL0     H 9565   1.422  11.086   2.220  2.3132  2.2701  1.9411
  812MOL0     H 9566   1.342  10.966   2.330 -2.4991 -0.4301  2.2207
  812MOL0     H 9567   1.256  11.159   2.466 -0.6162  0.1341 -1.2651
  812MOL0     H 9568   1.322  11.257   2.338 -1.6776  0.9214 -0.6915
  812MOL0     H 9569   1.167  11.189   2.183  0.0712 -0.2369 -0.9038
  812MOL0     H 9570   1.077  11.244   2.334 -0.7656 -0.3171 -0.0849
  812MOL0     H 9571   0.956  11.050   2.489  0.9385  0.5653  0.4884
  812MOL0     H 9572   0.865  10.720   2.503  2.0745 -2.4314 -2.2120
  812MOL0     H 9573   0.796  10.879   2.498 -2.3249  0.0566 -1.2156
  812MOL0     H 9574   0.782  10.666   2.267  0.7646 -1.0188  3.2013
  812MOL0     H 9575   0.694  10.827   2.275 -0.3965  1.3223  0.7285
  812MOL0     H 9576   0.568  10.733   2.463  0.6985 -2.9172  2.9602
  812MOL0     H 9577   0.665  10.575   2.447 -1.2623 -1.2941 -2.6665
  812MOL0     H 9578   0.467  10.525   2.358  1.4354 -1.0391  1.1396
  812MOL0     H 9579   0.600  10.536   2.240  0.1488 -0.4506  1.0976
  812MOL0     H 9580   0.249  10.624   2.346 -0.2267  2.4453 -0.8639
  812MOL0     H 9581   0.015  10.401   2.215  0.0468 -0.2084  1.1418
  812MOL0     H 9582   0.060  10.489   2.365  0.5223 -3.0535  0.2572
  812MOL0     H 9583  -0.071  10.552   2.271  0.0360 -0.9220  2.1643
  812MOL0     H 9584  -0.248  10.363   1.915 -0.9478 -0.5007  0.8962
  812MOL0     H 9585  -0.449  10.361   1.788  2.8865 -1.0919 -1.1987
  812MOL0     H 9586  -0.607  10.398   1.573  0.7869 -1.8204  0.7734
  812MOL0     H 9587  -0.681  10.425   1.733  1.7789 -0.7347  0.2340
  812MOL0     H 9588  -0.731  10.601   1.482  1.8094 -3.0594 -2.7935
  812MOL0     H 9589  -0.830  10.454   1.500 -0.7817 -0.3828  0.3193
  812MOL0     H 9590  -0.833  10.636   1.743  0.0242 -0.1700 -0.8037
  812MOL0     H 9591  -0.945  10.508   1.689  2.8544 -1.5029  1.7432
  812MOL0     H 9592  -0.917  10.792   1.594 -0.8255  0.2467 -3.7560
  812MOL0     H 9593  -0.974  10.667   1.486  1.0089 -0.6089 -0.2648
  812MOL0     H 9594  -1.104  10.720   1.759  1.7119  0.6067  0.4630
  812MOL0     H 9595  -1.162  10.611   1.639 -0.1073  0.5947  2.4100
  812MOL0     H 9596  -1.120  10.909   1.593 -0.3810 -0.6827  1.8639
  812MOL0     H 9597  -1.184  10.793   1.474 -0.3104  1.3217 -0.1429
  812MOL0     H 9598  -1.315  10.848   1.756 -2.3979 -0.9135 -0.3733
  812MOL0     H 9599  -1.376  10.738   1.622 -1.6318  0.2006 -0.3636
  812MOL0     H 9600  -1.502  10.951   1.619  0.1376 -0.0767  0.0271
  812MOL0     H 9601  -1.413  10.939   1.471  0.1290  2.1939 -0.6357
  812MOL0     H 9602  -0.425  10.795   1.744  0.5355  0.1447 -0.3469
  812MOL0     H 9603  -0.237  10.799   1.878 -0.1445  1.2135 -2.4323
  812MOL0     H 9604   0.231  10.601   1.857  1.7267  0.2860 -0.1612
  812MOL0     H 9605   0.443  10.703   1.977  0.7379 -2.2423 -0.0363
  812MOL0     H 9606   2.226  11.205   2.400  0.8502  1.6577 -2.9884
  812MOL0     H 9607   2.467  11.238   2.436  3.5469 -2.0878  0.2160
  812MOL0     H 9608   2.874  10.994   2.451 -1.4163 -0.0314 -1.9602
  812MOL0     H 9609   3.119  10.985   2.420 -1.4067  0.5632  3.2740
  812MOL0     H 9610   3.317  11.270   2.134  2.0956 -1.1505 -1.1700
  812MOL0     H 9611   3.366  11.347   2.296 -0.1228  1.4875 -0.0577
  812MOL0     H 9612   3.476  11.092   2.159 -0.3327 -1.6264  1.9992
  812MOL0     H 9613   3.504  11.127   2.329 -1.5735  0.4042  0.0233
  812MOL0     H 9614   3.597  11.361   2.249 -1.3374  2.2528 -2.3457
  812MOL0     H 9615   3.581  11.297   2.082 -0.5933 -1.5318 -0.5254
  812MOL0     H 9616   3.800  11.275   2.129 -1.9682  0.4174 -2.8578
  812MOL0     H 9617   3.731  11.113   2.130  0.3636 -0.0965 -0.0831
  812MOL0     H 9618   3.849  11.095   2.525 -1.7710  0.1799  1.3873
  812MOL0     H 9619   3.103  11.343   2.178 -0.8834  0.4825 -0.1724
  812MOL0     H 9620   2.858  11.328   2.179  0.6694  0.9947  1.1721
  813MOL0     O 9621   1.914   2.571   4.626  0.8964 -0.2436 -0.5101
  813MOL0     C 9622   1.956   2.456   4.650 -0.1317 -0.5877 -0.0543
  813MOL0     O 9623   1.884   2.357   4.707  0.5297  0.8766  0.2749
  813MOL0     C 9624   1.749   2.373   4.718 -0.5282 -0.6743 -0.8167
  813MOL0     C 9625   1.659   2.316   4.628  0.2653 -0.0486  1.5194
  813MOL0     C 9626   1.523   2.328   4.634  0.4205  0.5500  0.0287
  813MOL0     C 9627   1.465   2.400   4.736 -0.2189  0.0366 -0.4680
  813MOL0     O 9628   1.334   2.429   4.766 -0.2115  0.3049  0.0714
  813MOL0     C 9629   1.238   2.370   4.681 -0.2019 -0.0655 -0.8586
  813MOL0     C 9630   1.103   2.417   4.737  0.4580  0.3847 -1.0409
  813MOL0     C 9631   0.981   2.329   4.707 -0.4145 -0.0204  0.6661
  813MOL0     C 9632   0.875   2.362   4.809  0.1775  0.3259  0.0423
  813MOL0     C 9633   0.763   2.256   4.800  0.1517 -0.1852  0.6618
  813MOL0     C 9634   0.661   2.291   4.911 -0.7123 -0.6956 -0.3179
  813MOL0     C 9635   0.564   2.174   4.935  0.3802 -0.6883  0.3106
  813MOL0     C 9636   0.440   2.193   4.844 -0.4220 -0.4378 -0.0694
  813MOL0     N 9637   0.349   2.292   4.909  0.1560  0.0507 -0.2519
  813MOL0     C 9638   0.314   2.317   5.045 -0.6112  0.0179 -0.8868
  813MOL0     C 9639   0.214   2.406   5.031  0.0745 -0.1329 -0.6197
  813MOL0     C 9640   0.147   2.459   5.152 -0.3484  0.2307 -0.6483
  813MOL0     C 9641   0.022   2.384   5.180  0.8048 -0.0183 -0.8599
  813MOL0     C 9642  -0.099   2.473   5.209  0.0710  0.2666 -0.0327
  813MOL0     C 9643  -0.218   2.386   5.231  0.1655  0.7875  0.0681
  813MOL0     O 9644  -0.311   2.469   5.302 -0.8703 -0.1001  0.5591
  813MOL0     C 9645  -0.443   2.440   5.300 -0.3033  0.0490 -0.6543
  813MOL0     C 9646  -0.493   2.311   5.322 -0.1370  0.4200  1.0495
  813MOL0     C 9647  -0.630   2.280   5.312 -0.1645  0.7751 -0.0284
  813MOL0     C 9648  -0.656   2.130   5.299  0.2314 -0.3249  0.0328
  813MOL0     C 9649  -0.720   2.391   5.300 -0.4234  0.3450 -0.1251
  813MOL0     C 9650  -0.867   2.369   5.291 -0.1801  0.4823  0.4957
  813MOL0     O 9651  -0.948   2.474   5.327  0.7450  0.2036 -0.5238
  813MOL0     C 9652  -1.081   2.456   5.309 -0.2043 -0.1741  0.0625
  813MOL0     C 9653  -1.163   2.440   5.422  0.2108 -0.4232 -0.9409
  813MOL0     C 9654  -1.305   2.429   5.407 -1.0637  0.1958 -0.1858
  813MOL0     C 9655  -1.371   2.435   5.279 -0.1896  0.3220 -0.3656
  813MOL0     O 9656  -1.500   2.410   5.263  0.1853  0.2194 -0.4110
  813MOL0     C 9657  -1.583   2.329   5.355  0.1383 -0.2464 -0.2936
  813MOL0     C 9658  -1.717   2.317   5.290 -0.5438 -0.5635  0.2588
  813MOL0     C 9659  -1.828   2.290   5.388 -0.3151  0.0154  0.7317
  813MOL0     C 9660  -1.956   2.260   5.317  0.0949 -0.2419 -0.8428
  813MOL0     C 9661  -2.070   2.186   5.387 -0.8182 -0.1385 -0.5016
  813MOL0     C 9662  -2.176   2.143   5.285 -0.5479  0.4818 -0.5691
  813MOL0     C 9663  -2.294   2.073   5.361 -0.6517 -0.1355 -0.7951
  813MOL0     C 9664  -2.412   2.083   5.268 -0.9146 -0.0615  0.0031
  813MOL0    Cl 9665  -2.376   1.988   5.111 -0.0643 -0.0185  0.2056
  813MOL0     C 9666  -1.292   2.464   5.172  0.0142 -0.3344  0.0559
  813MOL0     C 9667  -1.146   2.474   5.185 -0.6453  0.3269  0.0843
  813MOL0     O 9668  -0.904   2.271   5.220 -0.3123  0.3510 -0.4498
  813MOL0     C 9669  -0.666   2.518   5.301  0.2526  0.1417  0.3724
  813MOL0     C 9670  -0.533   2.546   5.304  0.4175 -0.3443  0.0202
  813MOL0     N 9671   0.191   2.443   4.898 -0.0111 -1.2966 -0.7913
  813MOL0     N 9672   0.269   2.371   4.825 -0.5854 -1.0662  0.1515
  813MOL0     C 9673   1.552   2.461   4.829  0.9595 -0.1829 -0.3154
  813MOL0     C 9674   1.694   2.440   4.829 -0.2484 -0.2458  0.2423
  813MOL0     C 9675   2.099   2.436   4.621 -0.0583 -0.8242  0.5067
  813MOL0     C 9676   2.155   2.309   4.606 -0.1259  0.0627 -0.3467
  813MOL0     C 9677   2.275   2.288   4.550 -1.1357  0.1961  0.9475
  813MOL0     C 9678   2.359   2.396   4.523  0.8014 -0.7924 -0.3794
  813MOL0     O 9679   2.469   2.360   4.465  0.4991  0.1447  0.4603
  813MOL0     C 9680   2.589   2.442   4.481 -0.2171 -0.7969 -0.2235
  813MOL0     C 9681   2.672   2.427   4.351 -0.0105  0.1293 -0.0357
  813MOL0     C 9682   2.807   2.482   4.371 -0.5645  0.3810 -0.1199
  813MOL0     C 9683   2.876   2.511   4.238  0.7526  0.6395 -0.3208
  813MOL0     C 9684   3.023   2.517   4.265  0.0968 -0.4012 -0.7792
  813MOL0     C 9685   3.134   2.554   4.260 -0.2496  0.0441  0.4955
  813MOL0     C 9686   2.312   2.528   4.541  0.2635 -0.4205  0.9593
  813MOL0     C 9687   2.190   2.548   4.598 -0.2380  0.0695  0.5100
  813MOL0     H 9688   1.690   2.259   4.540 -1.6259  0.9361  0.1445
  813MOL0     H 9689   1.465   2.300   4.547  0.6057  1.9182 -0.5723
  813MOL0     H 9690   1.250   2.398   4.576  2.5921 -1.4601 -0.9991
  813MOL0     H 9691   1.243   2.261   4.687  0.9623 -0.0618 -1.4395
  813MOL0     H 9692   1.110   2.431   4.845 -1.0561 -0.9385 -0.7248
  813MOL0     H 9693   1.069   2.516   4.705 -0.3791  0.2518 -0.6111
  813MOL0     H 9694   0.959   2.342   4.601  1.5249  0.7843  0.3307
  813MOL0     H 9695   1.014   2.226   4.724 -0.3882  0.0549  1.0957
  813MOL0     H 9696   0.925   2.362   4.906  2.5344  0.1059 -1.0829
  813MOL0     H 9697   0.838   2.463   4.788 -1.7089  0.1021  2.0622
  813MOL0     H 9698   0.711   2.261   4.704  0.8598 -0.9130  0.2317
  813MOL0     H 9699   0.799   2.154   4.810  2.0523  0.4249  0.4090
  813MOL0     H 9700   0.714   2.286   5.006  1.2909  3.5033 -1.0000
  813MOL0     H 9701   0.611   2.387   4.893  1.6621  0.5030 -0.9191
  813MOL0     H 9702   0.615   2.080   4.912 -0.5455 -0.9615 -0.7006
  813MOL0     H 9703   0.529   2.185   5.038  0.3037 -0.1718  0.2321
  813MOL0     H 9704   0.382   2.101   4.839 -0.4981 -0.3399 -1.0895
  813MOL0     H 9705   0.464   2.231   4.745 -1.6919  3.1582  0.8143
  813MOL0     H 9706   0.347   2.268   5.136  0.4359 -0.2243 -1.3840
  813MOL0     H 9707   0.209   2.462   5.241 -1.2181  0.2350 -0.0259
  813MOL0     H 9708   0.115   2.562   5.133 -1.5182 -0.3425 -2.0773
  813MOL0     H 9709   0.044   2.325   5.269  1.9255  1.0122 -0.4260
  813MOL0     H 9710  -0.001   2.311   5.102 -1.4532  0.6910 -0.9305
  813MOL0     H 9711  -0.113   2.534   5.119  0.1389 -0.9587 -0.9023
  813MOL0     H 9712  -0.086   2.533   5.299  1.7215  0.1342 -0.1514
  813MOL0     H 9713  -0.184   2.308   5.301  2.0887  0.8710 -0.7230
  813MOL0     H 9714  -0.267   2.353   5.139  1.0963 -3.2093  0.8300
  813MOL0     H 9715  -0.420   2.232   5.334 -0.2883  0.4117  1.9275
  813MOL0     H 9716  -0.663   2.116   5.190  3.8467  1.7913 -0.6139
  813MOL0     H 9717  -0.584   2.064   5.348 -1.5549 -0.1392  3.1498
  813MOL0     H 9718  -0.754   2.107   5.343  0.5834  3.2073  3.0775
  813MOL0     H 9719  -1.118   2.433   5.520  3.7549 -0.5678 -2.4212
  813MOL0     H 9720  -1.355   2.388   5.494 -0.1813  1.2434  0.8484
  813MOL0     H 9721  -1.539   2.232   5.378  2.7729  0.9143 -0.0730
  813MOL0     H 9722  -1.587   2.382   5.451  1.6670 -1.4444  0.4737
  813MOL0     H 9723  -1.740   2.411   5.239  2.3185 -2.1391 -4.5520
  813MOL0     H 9724  -1.713   2.242   5.211 -1.6382 -0.0111 -0.3538
  813MOL0     H 9725  -1.835   2.381   5.449 -2.1056 -0.9471  2.0770
  813MOL0     H 9726  -1.802   2.203   5.448  2.7829  0.6032  0.3653
  813MOL0     H 9727  -1.996   2.355   5.280  0.9881  0.4262 -0.1537
  813MOL0     H 9728  -1.936   2.195   5.231  0.1338 -0.2334 -0.8404
  813MOL0     H 9729  -2.119   2.247   5.464 -2.9519 -0.9197 -1.1760
  813MOL0     H 9730  -2.030   2.099   5.440  0.8167  0.4148 -0.7617
  813MOL0     H 9731  -2.225   2.230   5.241  0.4966  0.7800 -1.1633
  813MOL0     H 9732  -2.125   2.088   5.205 -0.5746 -0.2001 -0.1203
  813MOL0     H 9733  -2.310   2.120   5.458  2.3157 -1.6644  0.5655
  813MOL0     H 9734  -2.268   1.968   5.379 -3.3871 -0.5872  0.9932
  813MOL0     H 9735  -2.448   2.179   5.231 -0.8702 -1.2905 -3.7682
  813MOL0     H 9736  -2.501   2.041   5.315 -1.2818  1.1978  0.4592
  813MOL0     H 9737  -1.338   2.484   5.076 -0.1165  1.7955  0.5042
  813MOL0     H 9738  -1.081   2.509   5.105  0.5754 -1.7895  0.0724
  813MOL0     H 9739  -0.725   2.608   5.282  0.2240 -0.4001 -2.5766
  813MOL0     H 9740  -0.502   2.650   5.305  0.8053 -0.3875  2.9170
  813MOL0     H 9741   1.509   2.510   4.915  1.7846  0.5323 -0.2907
  813MOL0     H 9742   1.758   2.475   4.909  1.2534 -1.0254 -0.5653
  813MOL0     H 9743   2.107   2.215   4.631  2.2399 -1.4018 -0.9421
  813MOL0     H 9744   2.309   2.186   4.537  0.3565  0.8667 -0.8372
  813MOL0     H 9745   2.562   2.545   4.506 -2.2513 -1.0767 -1.0557
  813MOL0     H 9746   2.648   2.404   4.565  2.3234  2.7143 -0.1810
  813MOL0     H 9747   2.623   2.468   4.263 -0.0914  0.7319  0.2877
  813MOL0     H 9748   2.680   2.321   4.325  1.3373  0.3649 -0.6800
  813MOL0     H 9749   2.868   2.411   4.429  0.1016  1.7358  0.8810
  813MOL0     H 9750   2.808   2.571   4.434 -3.5233 -1.0664  2.2459
  813MOL0     H 9751   2.834   2.594   4.181 -0.9478 -0.3009 -0.5099
  813MOL0     H 9752   2.854   2.430   4.168 -0.3717  1.2485 -0.6935
  813MOL0     H 9753   3.239   2.575   4.265 -0.8059  3.2662  1.0051
  813MOL0     H 9754   2.382   2.606   4.511 -0.3985  0.7357  2.3216
  813MOL0     H 9755   2.132   2.640   4.594 -2.6932 -1.1458  3.7678
  814MOL0     O 9756   5.005   1.957   4.067 -0.5486 -0.3572 -0.5366
  814MOL0     C 9757   5.079   2.033   3.998 -0.1037  1.6169  0.0362
  814MOL0     O 9758   5.044   2.154   3.953  0.1075 -0.2860  0.6636
  814MOL0     C 9759   4.918   2.206   3.985 -1.0278 -0.4644 -0.2380
  814MOL0     C 9760   4.899   2.325   4.056  0.1453 -0.2411 -0.0459
  814MOL0     C 9761   4.768   2.378   4.081  0.0622  0.8377  0.4738
  814MOL0     C 9762   4.657   2.304   4.030 -0.1801  0.0755  0.2856
  814MOL0     O 9763   4.532   2.369   4.041 -0.1267 -0.5265 -0.4045
  814MOL0     C 9764   4.419   2.326   3.959  0.3101  0.5938  0.2033
  814MOL0     C 9765   4.296   2.414   3.996  0.0713 -0.5570 -0.4875
  814MOL0     C 9766   4.174   2.357   3.939 -0.1604 -0.4508  0.5683
  814MOL0     C 9767   4.068   2.467   3.949 -0.7414  0.1749  0.0976
  814MOL0     C 9768   3.930   2.392   3.940 -0.2050 -0.4076  0.1606
  814MOL0     C 9769   3.825   2.500   3.955  0.8814  0.1102 -0.4819
  814MOL0     C 9770   3.673   2.451   3.938  0.0036  0.5816  0.0602
  814MOL0     C 9771   3.618   2.326   4.027 -0.4062 -0.0993  0.0435
  814MOL0     N 9772   3.477   2.304   3.996 -0.2289  0.0886  0.0186
  814MOL0     C 9773   3.422   2.251   3.888 -0.0553  0.2797  0.1803
  814MOL0     C 9774   3.290   2.275   3.897  0.0195 -0.1222  0.2256
  814MOL0     C 9775   3.197   2.257   3.777  0.3190 -0.7151 -0.0965
  814MOL0     C 9776   3.110   2.125   3.784  0.1321  0.1116  0.0712
  814MOL0     C 9777   3.005   2.117   3.898 -0.1812 -0.5453  0.7973
  814MOL0     C 9778   2.893   2.226   3.877  0.5545  0.1017 -0.2840
  814MOL0     O 9779   2.805   2.229   4.000 -0.5750 -0.3765  0.1680
  814MOL0     C 9780   2.685   2.163   3.989  0.1433 -0.2979  0.0654
  814MOL0     C 9781   2.577   2.222   4.054 -0.1830 -0.5076 -0.6303
  814MOL0     C 9782   2.442   2.172   4.050  0.0841 -0.3476  0.6190
  814MOL0     C 9783   2.337   2.261   4.118 -0.2829  0.3764 -0.0878
  814MOL0     C 9784   2.421   2.062   3.972  0.1788  0.4013  0.1402
  814MOL0     C 9785   2.285   2.005   3.944 -0.2717 -0.0400 -0.2799
  814MOL0     O 9786   2.282   1.889   3.869 -0.1202  0.6982  0.2306
  814MOL0     C 9787   2.164   1.818   3.871 -0.5524 -0.3381  0.2899
  814MOL0     C 9788   2.044   1.863   3.813  0.0864 -0.4456 -0.0817
  814MOL0     C 9789   1.929   1.771   3.823 -0.8577 -1.2165  1.1119
  814MOL0     C 9790   1.930   1.651   3.891 -0.0505 -0.3212  0.2352
  814MOL0     O 9791   1.809   1.583   3.913 -0.7595  0.1221 -0.1668
  814MOL0     C 9792   1.805   1.456   3.987 -0.0698  1.0142  0.6811
  814MOL0     C 9793   1.664   1.405   4.006  0.3613 -0.6559 -0.3756
  814MOL0     C 9794   1.589   1.382   3.874  0.1737  0.4666 -1.0013
  814MOL0     C 9795   1.449   1.326   3.896  0.5230 -0.0087  0.0635
  814MOL0     C 9796   1.447   1.180   3.943 -0.2728 -0.1037  0.2637
  814MOL0     C 9797   1.306   1.128   3.935 -1.2961 -0.7066  0.2766
  814MOL0     C 9798   1.295   0.990   4.001  0.3646 -0.4075  0.4990
  814MOL0     C 9799   1.153   0.937   3.974 -0.4699  0.0600  0.8073
  814MOL0    Cl 9800   1.039   1.027   4.076 -0.7865  0.9644  0.2898
  814MOL0     C 9801   2.055   1.606   3.940 -1.0212  0.0012 -0.4807
  814MOL0     C 9802   2.171   1.689   3.930 -0.2908 -0.1801  0.4274
  814MOL0     O 9803   2.184   2.061   3.988 -0.3723 -0.3439 -0.4769
  814MOL0     C 9804   2.532   1.990   3.928 -0.2572  0.7449 -0.0400
  814MOL0     C 9805   2.659   2.046   3.922 -0.2448  0.6821  0.6926
  814MOL0     N 9806   3.256   2.336   4.012  0.2387  1.2674 -0.7547
  814MOL0     N 9807   3.364   2.339   4.074 -0.3972 -0.7985 -0.0881
  814MOL0     C 9808   4.677   2.184   3.956 -0.4147  0.2247 -0.2684
  814MOL0     C 9809   4.804   2.148   3.926 -0.3057 -0.0614 -0.7419
  814MOL0     C 9810   5.220   1.981   3.967 -0.4819  0.0509 -0.5185
  814MOL0     C 9811   5.296   1.921   4.064  0.6405  0.1597  0.0084
  814MOL0     C 9812   5.434   1.895   4.064  0.2167 -0.1977 -0.0703
  814MOL0     C 9813   5.505   1.916   3.937  0.0994  0.4429 -0.5013
  814MOL0     O 9814   5.643   1.899   3.916  0.2837  0.6285  0.2457
  814MOL0     C 9815   5.714   1.812   4.000 -0.4375  0.2826 -0.3888
  814MOL0     C 9816   5.693   1.670   3.943  0.2386  0.2104  0.5242
  814MOL0     C 9817   5.772   1.663   3.809  0.2394 -0.0313 -0.3171
  814MOL0     C 9818   5.746   1.530   3.742  0.5648 -1.0346 -0.4335
  814MOL0     C 9819   5.840   1.501   3.637  0.2157  0.1733 -0.1035
  814MOL0     C 9820   5.927   1.490   3.552 -0.4649 -0.1948 -0.5432
  814MOL0     C 9821   5.431   1.989   3.842 -0.9998 -0.5025 -0.3936
  814MOL0     C 9822   5.292   2.026   3.855  0.3721 -0.2447 -0.3929
  814MOL0     H 9823   4.984   2.375   4.101 -0.9885  1.6601  0.1232
  814MOL0     H 9824   4.746   2.464   4.145  0.2804 -1.3606  3.7547
  814MOL0     H 9825   4.448   2.333   3.853 -1.1403 -2.5091 -0.5025
  814MOL0     H 9826   4.403   2.221   3.981 -1.0644  0.4040 -1.4890
  814MOL0     H 9827   4.278   2.412   4.103  1.5802 -1.9287 -0.2230
  814MOL0     H 9828   4.315   2.512   3.951  0.2245 -1.4552 -2.5207
  814MOL0     H 9829   4.178   2.323   3.835  1.5368  0.8162  0.1609
  814MOL0     H 9830   4.142   2.267   3.991 -0.6406  1.3386  3.6587
  814MOL0     H 9831   4.080   2.516   4.045  0.8090 -0.0331  0.0368
  814MOL0     H 9832   4.073   2.540   3.868  0.6136  0.4933  0.4462
  814MOL0     H 9833   3.917   2.335   3.847 -0.7817 -0.5157  0.3047
  814MOL0     H 9834   3.920   2.320   4.022  2.6248  1.2432  2.1186
  814MOL0     H 9835   3.829   2.541   4.056  0.3839  0.2948 -0.5321
  814MOL0     H 9836   3.834   2.577   3.878  0.0029  0.7026 -0.0189
  814MOL0     H 9837   3.604   2.534   3.957  0.2163  0.5577  0.9599
  814MOL0     H 9838   3.664   2.417   3.834  0.9315 -0.6546  0.3584
  814MOL0     H 9839   3.643   2.349   4.131  2.6181 -1.3539 -0.3012
  814MOL0     H 9840   3.677   2.236   4.005  1.1876  0.7538  0.6633
  814MOL0     H 9841   3.473   2.212   3.801 -2.8354 -0.1090 -1.4022
  814MOL0     H 9842   3.143   2.352   3.769 -0.4658 -1.1460  0.0236
  814MOL0     H 9843   3.252   2.257   3.683  0.5364  0.2531  0.0183
  814MOL0     H 9844   3.174   2.037   3.772 -1.6722 -1.2085 -0.2437
  814MOL0     H 9845   3.055   2.117   3.690 -1.7552  1.4451  1.0197
  814MOL0     H 9846   3.043   2.126   4.000 -0.5964 -2.9604  1.2261
  814MOL0     H 9847   2.968   2.014   3.894 -1.1237 -0.2311  0.9947
  814MOL0     H 9848   2.835   2.223   3.784  2.4123  1.0756 -1.5407
  814MOL0     H 9849   2.946   2.321   3.866 -0.5426  1.1312  2.4049
  814MOL0     H 9850   2.595   2.310   4.115  0.2766 -0.6877 -0.5014
  814MOL0     H 9851   2.271   2.306   4.044 -0.4606  2.1709  1.0993
  814MOL0     H 9852   2.284   2.201   4.193  1.9627  0.6104  1.7990
  814MOL0     H 9853   2.398   2.337   4.168  0.1985 -2.3892  4.0066
  814MOL0     H 9854   2.029   1.962   3.771  0.7120  1.6963  4.2560
  814MOL0     H 9855   1.838   1.814   3.782 -1.0303 -1.2297  1.4797
  814MOL0     H 9856   1.865   1.374   3.947 -0.2807  0.7733  0.8527
  814MOL0     H 9857   1.853   1.470   4.084 -1.7192 -1.5203  1.9491
  814MOL0     H 9858   1.670   1.317   4.071 -0.8644  0.6900  1.6899
  814MOL0     H 9859   1.607   1.482   4.059 -1.2749 -1.4768 -0.8631
  814MOL0     H 9860   1.650   1.321   3.807 -1.8070 -2.4075 -0.3754
  814MOL0     H 9861   1.578   1.486   3.843 -2.8671  0.5070 -0.0615
  814MOL0     H 9862   1.391   1.378   3.973  0.3876 -2.2270  1.5681
  814MOL0     H 9863   1.384   1.333   3.809 -1.7183  0.4690  1.7016
  814MOL0     H 9864   1.469   1.167   4.049  3.1360 -1.3442 -0.4948
  814MOL0     H 9865   1.511   1.114   3.884  1.2965  0.7840  0.9389
  814MOL0     H 9866   1.238   1.203   3.977 -2.0392 -0.8043 -0.7154
  814MOL0     H 9867   1.292   1.118   3.827 -0.7149  0.3976  0.0777
  814MOL0     H 9868   1.305   1.006   4.109  0.0541  0.1734  0.4462
  814MOL0     H 9869   1.373   0.926   3.959 -0.2636 -1.5951  1.0553
  814MOL0     H 9870   1.152   0.828   3.983 -3.7914 -0.1084 -0.0349
  814MOL0     H 9871   1.126   0.959   3.870 -0.8181  3.1563  1.4541
  814MOL0     H 9872   2.065   1.509   3.986  1.0504  0.6619  0.6132
  814MOL0     H 9873   2.270   1.652   3.956  0.5486  2.4309  1.2009
  814MOL0     H 9874   2.511   1.896   3.877  2.3233  1.4896 -2.7616
  814MOL0     H 9875   2.744   1.986   3.890 -0.4384 -0.4920  2.2430
  814MOL0     H 9876   4.596   2.122   3.918 -0.9488 -1.1030  2.7575
  814MOL0     H 9877   4.808   2.062   3.860 -1.4245 -0.9133  0.2534
  814MOL0     H 9878   5.237   1.901   4.153 -0.7049 -2.1737 -1.3209
  814MOL0     H 9879   5.478   1.847   4.151  1.5743 -0.8086 -1.0504
  814MOL0     H 9880   5.819   1.841   3.993 -0.0549 -1.0858 -0.5819
  814MOL0     H 9881   5.684   1.806   4.105  1.6340 -4.1399  0.1864
  814MOL0     H 9882   5.587   1.643   3.934  0.4307 -0.6683  0.7574
  814MOL0     H 9883   5.732   1.595   4.012  0.1429 -0.5859 -0.2746
  814MOL0     H 9884   5.879   1.671   3.833  0.1948  0.2002 -0.1920
  814MOL0     H 9885   5.736   1.740   3.740  0.6916 -0.6662 -1.2866
  814MOL0     H 9886   5.649   1.528   3.692 -0.3577 -0.4186  1.2612
  814MOL0     H 9887   5.758   1.461   3.825 -1.6666  1.7372  2.4034
  814MOL0     H 9888   6.008   1.488   3.483 -1.4223  0.9298 -1.7477
  814MOL0     H 9889   5.490   2.027   3.760  0.6844  1.8515  1.7237
  814MOL0     H 9890   5.247   2.094   3.784 -0.2491  0.4662  0.6609
  815MOL0     O 9891  10.600   3.084   4.868  0.4132 -0.2646 -0.4210
  815MOL0     C 9892  10.654   3.183   4.918 -0.0911 -0.1187 -0.5248
  815MOL0     O 9893  10.592   3.289   4.974 -0.2506 -0.5949 -0.3086
  815MOL0     C 9894  10.455   3.298   4.968 -0.5046  0.1242 -0.7315
  815MOL0     C 9895  10.374   3.278   4.855 -0.0958  0.8350  0.0654
  815MOL0     C 9896  10.240   3.285   4.871 -0.1323 -0.1661  0.1832
  815MOL0     C 9897  10.178   3.329   4.990  1.0771 -0.1564  0.5228
  815MOL0     O 9898  10.041   3.337   4.980 -0.2280 -0.2620  0.2383
  815MOL0     C 9899   9.968   3.412   5.087 -0.5396 -0.0702  0.1819
  815MOL0     C 9900   9.830   3.415   5.030 -0.1918  0.3274 -0.4587
  815MOL0     C 9901   9.769   3.274   5.013 -0.0902 -0.3391  0.4119
  815MOL0     C 9902   9.617   3.262   5.005 -0.6018 -0.5935 -0.1447
  815MOL0     C 9903   9.571   3.124   4.957 -0.0290  0.0869  0.1698
  815MOL0     C 9904   9.422   3.119   4.957  0.7889  0.2633 -0.4533
  815MOL0     C 9905   9.369   2.970   4.956  0.1946  0.2830 -0.2380
  815MOL0     C 9906   9.221   2.936   4.914 -0.2854 -0.5665 -0.1346
  815MOL0     N 9907   9.200   2.788   4.922  0.2383  0.6821 -0.5823
  815MOL0     C 9908   9.247   2.685   4.840 -0.6318 -0.8917  0.7096
  815MOL0     C 9909   9.216   2.578   4.914  0.1913  0.9791  0.3626
  815MOL0     C 9910   9.249   2.438   4.863 -0.4438 -0.5739 -0.4518
  815MOL0     C 9911   9.140   2.335   4.896 -0.3689 -0.3104  0.3534
  815MOL0     C 9912   9.016   2.354   4.817  0.2911 -0.5084 -0.1191
  815MOL0     C 9913   8.920   2.252   4.849  0.0331  0.4699 -0.8742
  815MOL0     O 9914   8.819   2.242   4.756 -0.5130  0.2497 -0.4731
  815MOL0     C 9915   8.694   2.223   4.804  0.3327 -0.0533 -1.1461
  815MOL0     C 9916   8.656   2.161   4.920  0.1220  0.2174 -0.9517
  815MOL0     C 9917   8.527   2.168   4.981 -0.6275 -0.3895  0.3180
  815MOL0     C 9918   8.513   2.123   5.124  0.1554  0.5100 -0.1070
  815MOL0     C 9919   8.421   2.225   4.906  0.5734  0.5487 -0.3439
  815MOL0     C 9920   8.278   2.237   4.950 -0.7447  0.2655 -0.0627
  815MOL0     O 9921   8.224   2.131   5.009  0.1937  0.2348  0.4414
  815MOL0     C 9922   8.101   2.143   5.070 -0.5993 -0.3659 -0.1509
  815MOL0     C 9923   7.980   2.150   4.997 -0.0873 -0.6461  0.0180
  815MOL0     C 9924   7.853   2.170   5.051 -0.3391  0.2476  0.0450
  815MOL0     C 9925   7.842   2.164   5.196 -0.6664  0.1227  0.0254
  815MOL0     O 9926   7.724   2.178   5.254 -0.1920  0.2363  0.1538
  815MOL0     C 9927   7.703   2.316   5.306 -0.2535  0.8879  0.6470
  815MOL0     C 9928   7.583   2.312   5.405  0.4899 -0.3725 -0.7360
  815MOL0     C 9929   7.513   2.450   5.438 -0.7205 -0.6744 -0.6559
  815MOL0     C 9930   7.400   2.488   5.344  0.2483 -0.0475 -0.0359
  815MOL0     C 9931   7.287   2.576   5.408  0.2468 -0.8049 -0.1390
  815MOL0     C 9932   7.169   2.619   5.321  0.1932  0.1894  0.0566
  815MOL0     C 9933   7.097   2.735   5.389 -0.2137 -0.1216 -0.1940
  815MOL0     C 9934   7.060   2.860   5.302 -0.5792 -0.7233 -0.5254
  815MOL0    Cl 9935   6.916   2.952   5.371  0.1499  0.2170  0.1148
  815MOL0     C 9936   7.955   2.150   5.270 -0.2330 -0.8849 -0.2806
  815MOL0     C 9937   8.085   2.149   5.215 -0.2879  0.0883  0.3739
  815MOL0     O 9938   8.225   2.343   4.941 -0.0711 -0.4405  0.0485
  815MOL0     C 9939   8.453   2.259   4.767  0.4310  0.8669 -0.4359
  815MOL0     C 9940   8.589   2.259   4.720  0.5516  0.3291  0.0782
  815MOL0     N 9941   9.154   2.610   5.034 -1.1266 -0.2514 -0.0743
  815MOL0     N 9942   9.157   2.740   5.041  0.0651 -0.1489  0.2806
  815MOL0     C 9943  10.260   3.372   5.100 -0.0575  0.2411  0.0459
  815MOL0     C 9944  10.395   3.346   5.084  0.2210 -1.1637 -0.4715
  815MOL0     C 9945  10.796   3.185   4.916 -0.1998  0.6035 -0.0400
  815MOL0     C 9946  10.871   3.092   4.839 -0.0360  0.2385  0.7430
  815MOL0     C 9947  11.014   3.093   4.853 -0.0996 -0.0712  0.6103
  815MOL0     C 9948  11.076   3.187   4.940 -0.3188  0.1607 -0.0181
  815MOL0     O 9949  11.213   3.202   4.946 -0.5292  0.4491 -0.1296
  815MOL0     C 9950  11.289   3.164   4.833 -0.2015  0.0497  0.3048
  815MOL0     C 9951  11.420   3.246   4.818  0.1840 -0.0973 -0.2394
  815MOL0     C 9952  11.527   3.170   4.740 -0.9118  0.1033 -0.6006
  815MOL0     C 9953  11.656   3.258   4.738  0.7473 -0.1376 -0.2650
  815MOL0     C 9954  11.763   3.189   4.666 -0.1753  1.1676  0.0765
  815MOL0     C 9955  11.853   3.143   4.599 -0.4501 -0.1726  0.7299
  815MOL0     C 9956  11.002   3.277   5.011  0.3345 -0.1763 -0.8282
  815MOL0     C 9957  10.861   3.281   4.996  0.2980  0.0517 -0.4913
  815MOL0     H 9958  10.407   3.250   4.756  0.4779 -0.0201  0.4840
  815MOL0     H 9959  10.170   3.260   4.791 -0.0412 -3.7304  1.0592
  815MOL0     H 9960   9.969   3.365   5.186 -0.2573 -1.9706 -0.6780
  815MOL0     H 9961  10.009   3.513   5.092  1.1975 -0.5892 -2.1352
  815MOL0     H 9962   9.760   3.466   5.096 -2.3731 -1.6674 -1.0832
  815MOL0     H 9963   9.827   3.477   4.940 -0.9038  0.8581 -0.0792
  815MOL0     H 9964   9.802   3.242   4.914  1.7691 -0.4073  1.0234
  815MOL0     H 9965   9.801   3.202   5.089 -1.9407 -2.4714 -0.6823
  815MOL0     H 9966   9.574   3.293   5.101 -2.6501 -0.6501 -0.9937
  815MOL0     H 9967   9.581   3.334   4.931  0.2490 -1.4049 -1.3811
  815MOL0     H 9968   9.623   3.100   4.863 -0.6783 -2.0717  0.2947
  815MOL0     H 9969   9.613   3.056   5.032  1.2344  1.0535  0.3729
  815MOL0     H 9970   9.385   3.170   5.046 -0.0664 -1.7233  0.4046
  815MOL0     H 9971   9.371   3.178   4.881 -1.9072  0.9274  1.7257
  815MOL0     H 9972   9.442   2.908   4.904 -1.4649 -0.9650 -1.1632
  815MOL0     H 9973   9.381   2.944   5.062  2.7252  5.8223  1.2431
  815MOL0     H 9974   9.204   2.956   4.808  3.3163 -1.6704 -1.0488
  815MOL0     H 9975   9.156   3.002   4.973  2.8379  0.0466  2.9680
  815MOL0     H 9976   9.302   2.692   4.747 -2.1840  0.9411 -0.1371
  815MOL0     H 9977   9.257   2.430   4.754  2.2427 -1.3092 -0.2766
  815MOL0     H 9978   9.338   2.408   4.918 -0.1721  0.9465 -0.0044
  815MOL0     H 9979   9.117   2.338   5.003  1.8751  1.9416  0.8451
  815MOL0     H 9980   9.180   2.235   4.875 -0.6922 -0.2043 -0.8103
  815MOL0     H 9981   9.040   2.339   4.712  0.4562  0.3666 -0.2081
  815MOL0     H 9982   8.966   2.450   4.830 -3.6850 -2.2952 -0.3994
  815MOL0     H 9983   8.883   2.285   4.947 -0.5480  0.4782 -1.0926
  815MOL0     H 9984   8.966   2.153   4.853 -2.7367 -0.8488  0.0715
  815MOL0     H 9985   8.733   2.112   4.979 -0.6468  0.8498  0.6678
  815MOL0     H 9986   8.442   2.041   5.136  0.7806 -0.0649 -0.2962
  815MOL0     H 9987   8.606   2.085   5.166 -1.2327  0.0926  2.8639
  815MOL0     H 9988   8.492   2.215   5.180  1.5879  1.6722 -1.3710
  815MOL0     H 9989   7.964   2.155   4.890 -4.3298 -2.9731  0.3352
  815MOL0     H 9990   7.762   2.187   4.995 -0.7195  1.4169  0.9753
  815MOL0     H 9991   7.794   2.354   5.354  0.6900 -0.0606 -0.3181
  815MOL0     H 9992   7.686   2.379   5.218 -1.4078  0.8000  0.7864
  815MOL0     H 9993   7.499   2.251   5.369 -0.7734 -1.3367  3.2947
  815MOL0     H 9994   7.621   2.263   5.495 -0.5908  1.8675  1.0538
  815MOL0     H 9995   7.599   2.518   5.447 -1.6374  0.6656 -1.7141
  815MOL0     H 9996   7.474   2.453   5.540  1.0861  1.1853  0.0590
  815MOL0     H 9997   7.438   2.544   5.259 -1.4811 -0.2955 -1.0248
  815MOL0     H 9998   7.356   2.397   5.302 -1.3280  1.0098 -0.7870
  815MOL0     H 9999   7.343   2.667   5.430 -0.0149 -0.2768 -1.5866
  815MOL0     H10000   7.251   2.535   5.503  3.9781 -1.2098  1.2621
  815MOL0     H10001   7.191   2.655   5.220 -1.8146  0.2630 -0.3797
  815MOL0     H10002   7.106   2.530   5.324 -0.3708  0.4802 -2.0184
  815MOL0     H10003   7.149   2.761   5.482 -2.7072  1.1934  0.9120
  815MOL0     H10004   7.002   2.698   5.428 -0.1670 -0.8361 -0.7415
  815MOL0     H10005   7.043   2.831   5.198  1.7988 -0.1449 -1.1238
  815MOL0     H10006   7.141   2.932   5.296 -2.6241  1.7338 -0.4698
  815MOL0     H10007   7.944   2.154   5.378  1.7426 -0.2722 -0.0645
  815MOL0     H10008   8.180   2.146   5.267  0.9053 -0.7772 -1.7257
  815MOL0     H10009   8.377   2.286   4.694 -0.4533 -2.5448 -0.9500
  815MOL0     H10010   8.620   2.305   4.627 -0.7631 -1.6074 -1.4196
  815MOL0     H10011  10.213   3.394   5.195 -1.2937  0.7436 -0.6551
  815MOL0     H10012  10.453   3.376   5.171 -0.7549 -2.1560  0.5506
  815MOL0     H10013  10.823   3.019   4.775  0.4637  0.3511  0.2333
  815MOL0     H10014  11.077   3.024   4.797 -1.1849  0.1583 -0.9595
  815MOL0     H10015  11.313   3.060   4.857  0.6055  0.2004  0.1673
  815MOL0     H10016  11.230   3.158   4.741 -3.8404 -0.9827  2.4720
  815MOL0     H10017  11.453   3.285   4.916  0.7571 -0.2163 -0.3822
  815MOL0     H10018  11.390   3.337   4.766 -0.3546 -0.4759 -0.5949
  815MOL0     H10019  11.491   3.158   4.637 -0.9048  3.0688 -1.0427
  815MOL0     H10020  11.549   3.076   4.791 -2.4417 -0.8193 -1.5499
  815MOL0     H10021  11.682   3.289   4.839 -2.2905  1.9106  0.0284
  815MOL0     H10022  11.635   3.351   4.684  0.0633  0.3330  0.7667
  815MOL0     H10023  11.937   3.114   4.540 -0.8559  0.4624 -0.1867
  815MOL0     H10024  11.044   3.354   5.074 -0.6939  0.4757 -0.9174
  815MOL0     H10025  10.815   3.364   5.048  0.8769  0.3786 -0.4983
  816MOL0     O10026   2.860   5.715   3.501 -0.4644 -0.1578  0.0297
  816MOL0     C10027   2.897   5.665   3.612 -0.3932  0.4532  0.7934
  816MOL0     O10028   2.811   5.607   3.702 -0.1563  0.1350 -0.0307
  816MOL0     C10029   2.675   5.613   3.689  0.4863  0.0848 -0.8772
  816MOL0     C10030   2.589   5.694   3.770  0.6879 -0.5026  0.6520
  816MOL0     C10031   2.449   5.690   3.744  0.5344  1.0367  0.6756
  816MOL0     C10032   2.391   5.615   3.638  0.2856  1.1287  0.1788
  816MOL0     O10033   2.257   5.587   3.611  0.3468  1.2536  0.2694
  816MOL0     C10034   2.161   5.627   3.706 -0.3226 -0.7902  0.3131
  816MOL0     C10035   2.031   5.566   3.651 -0.3185 -0.4291 -1.2278
  816MOL0     C10036   1.916   5.592   3.751  2.0630  0.0929  0.6287
  816MOL0     C10037   1.802   5.482   3.720 -0.4468 -0.2556 -1.1535
  816MOL0     C10038   1.735   5.491   3.589  0.4136 -0.0994  0.5764
  816MOL0     C10039   1.610   5.398   3.602 -0.5724  0.5200  0.9839
  816MOL0     C10040   1.548   5.353   3.465 -0.8030  0.7599 -0.5978
  816MOL0     C10041   1.442   5.241   3.477 -0.5830 -0.4774 -0.3344
  816MOL0     N10042   1.329   5.290   3.548 -0.4427 -0.4947 -0.2172
  816MOL0     C10043   1.276   5.244   3.662 -0.4327  0.4904  0.3162
  816MOL0     C10044   1.151   5.301   3.677 -0.3824 -0.9910  0.3708
  816MOL0     C10045   1.062   5.285   3.799  0.0750 -0.1001 -0.3362
  816MOL0     C10046   0.945   5.187   3.763 -0.1715 -0.4221 -0.4822
  816MOL0     C10047   0.864   5.149   3.887 -0.0068  0.1865  0.1339
  816MOL0     C10048   0.784   5.022   3.853 -0.3038 -0.1362  0.1945
  816MOL0     O10049   0.702   4.985   3.968 -0.0363  0.3403  0.2520
  816MOL0     C10050   0.573   5.024   3.970  0.1019  0.9700 -0.4606
  816MOL0     C10051   0.511   5.018   4.090 -0.6816  0.0803 -0.1162
  816MOL0     C10052   0.372   5.048   4.106 -0.2344  1.0553  0.2573
  816MOL0     C10053   0.336   5.039   4.251  0.7839  0.2551  0.1051
  816MOL0     C10054   0.295   5.074   3.987  0.9531  0.5403 -0.0879
  816MOL0     C10055   0.149   5.082   3.987  0.3975 -0.3825 -0.1329
  816MOL0     O10056   0.075   5.093   3.871 -0.2445  0.0072  0.4336
  816MOL0     C10057  -0.058   5.120   3.873 -0.3328  0.3771  0.2423
  816MOL0     C10058  -0.134   5.039   3.788  0.3956  0.3306 -0.3390
  816MOL0     C10059  -0.268   5.073   3.771 -0.3794  0.1983  0.0678
  816MOL0     C10060  -0.332   5.181   3.835 -0.2254  0.2140 -0.1220
  816MOL0     O10061  -0.461   5.203   3.804  0.4338 -0.1767 -1.0434
  816MOL0     C10062  -0.522   5.322   3.868  0.2361  0.2659  0.0192
  816MOL0     C10063  -0.673   5.329   3.829 -0.3428 -0.2815 -0.3716
  816MOL0     C10064  -0.756   5.214   3.888 -0.9117  0.0673 -0.1374
  816MOL0     C10065  -0.907   5.219   3.860 -0.8401 -0.4187  0.4020
  816MOL0     C10066  -0.986   5.344   3.906 -0.4969  0.1791 -0.2274
  816MOL0     C10067  -1.138   5.335   3.889 -0.5963  0.4144  0.1103
  816MOL0     C10068  -1.190   5.326   3.745 -0.1271  0.2326 -0.2901
  816MOL0     C10069  -1.341   5.336   3.752  0.6736  0.2022 -0.1748
  816MOL0    Cl10070  -1.407   5.172   3.780 -0.1960  0.2120 -0.0016
  816MOL0     C10071  -0.249   5.267   3.919  0.1291 -0.1364  0.4792
  816MOL0     C10072  -0.115   5.235   3.932  0.1665  0.4659  0.2700
  816MOL0     O10073   0.095   5.089   4.097 -0.0162 -0.3524  0.1641
  816MOL0     C10074   0.366   5.073   3.862 -0.2550 -0.0186  0.4926
  816MOL0     C10075   0.504   5.063   3.856 -1.1384  0.9108  0.0674
  816MOL0     N10076   1.141   5.388   3.573  0.4509 -0.5284  0.4880
  816MOL0     N10077   1.238   5.370   3.497  0.0427 -0.7926 -0.2085
  816MOL0     C10078   2.480   5.535   3.559 -0.4303  0.0491  0.0088
  816MOL0     C10079   2.617   5.539   3.577 -0.5222 -0.1021 -0.1200
  816MOL0     C10080   3.046   5.653   3.635  0.3550  0.0059 -0.2992
  816MOL0     C10081   3.093   5.609   3.754  0.5405 -0.5892  0.0587
  816MOL0     C10082   3.226   5.577   3.770 -0.6681 -0.0948 -0.0257
  816MOL0     C10083   3.313   5.602   3.659  0.1904 -0.0247  0.1424
  816MOL0     O10084   3.447   5.572   3.650 -0.0942  0.1052 -0.1781
  816MOL0     C10085   3.526   5.523   3.761  0.3365  0.0654  0.6784
  816MOL0     C10086   3.675   5.529   3.734 -0.2638 -0.2882  1.5324
  816MOL0     C10087   3.733   5.447   3.617 -0.5444  0.1612 -0.4207
  816MOL0     C10088   3.804   5.316   3.655  1.4889  0.6275  0.1742
  816MOL0     C10089   3.926   5.332   3.728 -0.1122  1.3497  0.7930
  816MOL0     C10090   4.014   5.332   3.803 -0.6188 -0.8379 -0.2658
  816MOL0     C10091   3.268   5.663   3.540 -0.1340 -0.3196 -0.2509
  816MOL0     C10092   3.135   5.685   3.529 -0.0469  0.8653 -0.0457
  816MOL0     H10093   2.636   5.753   3.847  0.9722 -1.0329  0.8925
  816MOL0     H10094   2.379   5.735   3.814 -0.5873 -0.3125  0.4476
  816MOL0     H10095   2.186   5.615   3.812  0.2599  3.6015  0.8779
  816MOL0     H10096   2.170   5.735   3.692 -0.6438 -0.9569 -1.2643
  816MOL0     H10097   2.005   5.616   3.557  0.4105  2.3820 -0.0456
  816MOL0     H10098   2.038   5.458   3.638  0.8201 -0.3793 -1.1039
  816MOL0     H10099   1.949   5.579   3.854 -0.9633 -2.4330  1.4170
  816MOL0     H10100   1.885   5.696   3.734  1.1521 -0.1333  0.8685
  816MOL0     H10101   1.849   5.384   3.720 -0.5734 -0.3268 -1.8900
  816MOL0     H10102   1.733   5.476   3.804  1.3684  0.2259  0.4452
  816MOL0     H10103   1.690   5.587   3.562  0.0090 -0.6438 -0.7378
  816MOL0     H10104   1.803   5.461   3.509 -1.5562 -1.0450 -0.8195
  816MOL0     H10105   1.637   5.305   3.654  0.5619  1.0729  1.4129
  816MOL0     H10106   1.539   5.453   3.663 -1.2326  0.0224  0.6817
  816MOL0     H10107   1.496   5.438   3.419 -0.8772  2.0516  1.6889
  816MOL0     H10108   1.623   5.311   3.398  1.1215  1.6565  0.8975
  816MOL0     H10109   1.478   5.158   3.538 -0.0962 -1.2830 -1.6658
  816MOL0     H10110   1.423   5.202   3.377 -0.2868 -1.4138 -0.0357
  816MOL0     H10111   1.322   5.167   3.722 -1.4820  0.1868  0.7540
  816MOL0     H10112   1.112   5.237   3.883  0.5539  0.1919 -0.4495
  816MOL0     H10113   1.019   5.376   3.841 -1.3351 -1.0395  0.3191
  816MOL0     H10114   0.980   5.099   3.709  1.4261  1.1002 -2.0592
  816MOL0     H10115   0.874   5.242   3.700 -0.0339 -0.9787 -1.1348
  816MOL0     H10116   0.804   5.235   3.916  2.9915  1.8570  1.8815
  816MOL0     H10117   0.933   5.122   3.968  3.5491  1.8128 -2.0694
  816MOL0     H10118   0.850   4.935   3.847 -1.6161 -1.1853  0.3641
  816MOL0     H10119   0.735   5.035   3.756  0.6561  1.6643 -0.0874
  816MOL0     H10120   0.576   4.978   4.167 -1.7483 -1.5406 -0.0185
  816MOL0     H10121   0.326   4.935   4.281 -1.5340  0.9048  1.8678
  816MOL0     H10122   0.411   5.092   4.310  1.8356 -2.9099  1.8306
  816MOL0     H10123   0.244   5.097   4.267  1.6612  3.0214 -3.4498
  816MOL0     H10124  -0.094   4.948   3.744 -1.7978 -0.7745 -0.1585
  816MOL0     H10125  -0.328   5.007   3.710  0.6725  0.0366 -0.8306
  816MOL0     H10126  -0.513   5.308   3.976 -0.4390 -0.3733  0.0009
  816MOL0     H10127  -0.472   5.411   3.829 -0.1178  0.9501  1.0757
  816MOL0     H10128  -0.714   5.425   3.862  2.3173  1.0940 -0.7931
  816MOL0     H10129  -0.683   5.316   3.721  1.9260  2.2433 -1.0082
  816MOL0     H10130  -0.751   5.211   3.997 -0.7667  0.9834 -0.1093
  816MOL0     H10131  -0.707   5.127   3.845  1.3434  1.9719 -1.7111
  816MOL0     H10132  -0.920   5.235   3.753 -1.8341  1.2424  0.7298
  816MOL0     H10133  -0.951   5.121   3.879  1.7182 -1.8211 -0.4569
  816MOL0     H10134  -0.943   5.433   3.858  3.4615 -1.4967 -0.1652
  816MOL0     H10135  -0.969   5.345   4.014  0.0972 -1.2828 -0.2820
  816MOL0     H10136  -1.176   5.250   3.947  0.5683  0.1737  0.5474
  816MOL0     H10137  -1.182   5.427   3.928  1.0553  2.8538 -3.2738
  816MOL0     H10138  -1.160   5.236   3.690  4.3890  1.4747 -0.2784
  816MOL0     H10139  -1.155   5.415   3.692  0.9286  0.5126  0.8161
  816MOL0     H10140  -1.383   5.363   3.655 -1.7311  3.5041  1.5803
  816MOL0     H10141  -1.386   5.409   3.819 -1.4527  1.1664 -2.5008
  816MOL0     H10142  -0.290   5.354   3.969 -0.6802  0.9988 -2.0166
  816MOL0     H10143  -0.045   5.291   3.993  2.1274  0.5040 -1.8914
  816MOL0     H10144   0.310   5.080   3.769  1.4067 -0.6057 -0.6010
  816MOL0     H10145   0.542   5.048   3.755  3.8200 -0.3589  1.8291
  816MOL0     H10146   2.443   5.482   3.472  1.6157  0.9741 -1.5139
  816MOL0     H10147   2.682   5.488   3.507 -2.9441 -3.7311 -0.0122
  816MOL0     H10148   3.028   5.581   3.837  3.2650 -1.6546  1.9744
  816MOL0     H10149   3.260   5.525   3.859 -0.9003  0.4205  0.3686
  816MOL0     H10150   3.508   5.596   3.841  0.2602  1.0435 -0.2107
  816MOL0     H10151   3.484   5.424   3.777 -1.9741  0.8121 -0.3337
  816MOL0     H10152   3.731   5.503   3.823 -1.8843  1.1173  3.0395
  816MOL0     H10153   3.692   5.634   3.709 -0.0638 -0.5433  0.5435
  816MOL0     H10154   3.805   5.510   3.565 -0.1704  1.9929  2.1435
  816MOL0     H10155   3.658   5.428   3.539  0.3291  0.3348 -1.3225
  816MOL0     H10156   3.821   5.260   3.563 -0.5291  1.2124 -0.6142
  816MOL0     H10157   3.731   5.261   3.716  1.7758  0.0539  0.0043
  816MOL0     H10158   4.095   5.343   3.872 -1.3831  3.3273  0.2436
  816MOL0     H10159   3.326   5.702   3.456 -0.7777 -0.5661 -0.8199
  816MOL0     H10160   3.112   5.731   3.434 -1.7173 -1.2697 -0.7428
  817MOL0     O10161   4.132   7.746   9.064 -0.1347  0.1486 -0.5953
  817MOL0     C10162   4.229   7.816   9.094 -0.2973  0.3638  0.7472
  817MOL0     O10163   4.223   7.940   9.128  0.4518  0.4806 -0.3193
  817MOL0     C10164   4.100   8.000   9.115  0.0834 -1.2139  0.1393
  817MOL0     C10165   4.065   8.047   8.989  0.1826  0.7764  0.2933
  817MOL0     C10166   3.936   8.095   8.967 -0.0147  0.5395 -0.3175
  817MOL0     C10167   3.850   8.111   9.077 -0.0156 -0.6430  0.0364
  817MOL0     O10168   3.726   8.158   9.032  0.0712  0.4503 -0.5928
  817MOL0     C10169   3.630   8.168   9.145  0.2158 -0.6238  0.2699
  817MOL0     C10170   3.492   8.171   9.084 -0.2519  0.1545  0.0653
  817MOL0     C10171   3.373   8.198   9.180 -0.2351 -0.3085  0.0551
  817MOL0     C10172   3.233   8.186   9.104 -0.4582 -0.3516  0.2884
  817MOL0     C10173   3.126   8.213   9.209  0.4967 -0.1221 -0.3849
  817MOL0     C10174   2.994   8.184   9.133  0.5613  0.3132 -1.3635
  817MOL0     C10175   2.882   8.190   9.237  0.4393 -0.3442  0.0537
  817MOL0     C10176   2.749   8.135   9.182 -0.5256  0.2206 -0.2775
  817MOL0     N10177   2.648   8.124   9.293  0.2901  0.4904 -0.0920
  817MOL0     C10178   2.592   8.238   9.345 -0.6923  0.4604  0.3275
  817MOL0     C10179   2.512   8.188   9.442 -0.1867 -0.6346 -0.4077
  817MOL0     C10180   2.418   8.271   9.524  0.1056 -0.5608  0.1848
  817MOL0     C10181   2.274   8.277   9.467  0.2134  0.5529 -0.2525
  817MOL0     C10182   2.191   8.395   9.525  0.0798  0.0309  0.1047
  817MOL0     C10183   2.039   8.382   9.517  0.1906  0.9861 -0.0469
  817MOL0     O10184   2.004   8.347   9.383  1.2030  0.3531  0.7390
  817MOL0     C10185   1.867   8.333   9.346 -0.3026  0.4374  0.4073
  817MOL0     C10186   1.757   8.402   9.402  0.0052  0.4231 -0.2820
  817MOL0     C10187   1.628   8.389   9.347 -0.3101 -0.3078 -0.5238
  817MOL0     C10188   1.521   8.464   9.414 -0.2115  0.7104  0.3445
  817MOL0     C10189   1.602   8.293   9.248 -0.4095  0.4062 -0.1590
  817MOL0     C10190   1.469   8.263   9.193  0.1174  0.3752  1.0807
  817MOL0     O10191   1.455   8.282   9.051 -0.0991  0.2057  0.5506
  817MOL0     C10192   1.327   8.263   9.001 -0.1166  0.3190 -0.2182
  817MOL0     C10193   1.249   8.154   9.036  0.4437  0.8692  0.4462
  817MOL0     C10194   1.132   8.118   8.958  0.4138 -0.2809 -1.4284
  817MOL0     C10195   1.077   8.205   8.863 -0.3701  0.5452  0.3386
  817MOL0     O10196   0.956   8.186   8.789 -0.6702  0.1002  0.2133
  817MOL0     C10197   0.847   8.137   8.870 -0.3422  0.1555  0.2394
  817MOL0     C10198   0.725   8.222   8.839 -0.1791 -0.6356  0.5356
  817MOL0     C10199   0.603   8.198   8.928  0.6538 -0.3935  0.2708
  817MOL0     C10200   0.472   8.249   8.871  0.3961  0.1716  0.0567
  817MOL0     C10201   0.371   8.244   8.980 -0.2403  0.0601 -0.2303
  817MOL0     C10202   0.225   8.282   8.946 -0.3555 -1.4308 -0.1627
  817MOL0     C10203   0.142   8.256   9.068 -0.7450  0.6717  0.1781
  817MOL0     C10204  -0.011   8.249   9.041 -0.2746 -0.1269  0.8900
  817MOL0    Cl10205  -0.106   8.243   9.182  0.1643  0.0090  0.1624
  817MOL0     C10206   1.151   8.314   8.829 -0.0978  0.3275  0.4629
  817MOL0     C10207   1.274   8.340   8.898 -0.3654  0.2824  0.0260
  817MOL0     O10208   1.382   8.228   9.276  0.5290 -0.5060  0.3311
  817MOL0     C10209   1.715   8.227   9.205 -0.9327  0.1961  0.7673
  817MOL0     C10210   1.843   8.249   9.249 -0.3011  0.4012  0.5026
  817MOL0     N10211   2.522   8.048   9.450  0.1148 -0.2701 -0.2157
  817MOL0     N10212   2.601   8.014   9.355  0.0815  0.7782 -0.0296
  817MOL0     C10213   3.898   8.081   9.213 -0.3282 -0.3298  0.6183
  817MOL0     C10214   4.023   8.024   9.229 -0.7427 -0.0246  0.5244
  817MOL0     C10215   4.357   7.750   9.090 -0.3893  0.1062 -0.9605
  817MOL0     C10216   4.363   7.612   9.076 -0.4565  1.2300  0.3928
  817MOL0     C10217   4.492   7.551   9.069  0.4065 -0.4809 -0.9292
  817MOL0     C10218   4.612   7.623   9.063 -0.3319 -0.9308  0.0699
  817MOL0     O10219   4.730   7.548   9.071 -0.5173  0.3572 -0.3404
  817MOL0     C10220   4.856   7.621   9.082  0.4174  0.1207  0.8565
  817MOL0     C10221   4.964   7.514   9.063 -0.4368  0.1453 -0.6985
  817MOL0     C10222   5.103   7.582   9.061 -0.2273  0.2551  0.3268
  817MOL0     C10223   5.221   7.486   9.069 -0.6805 -0.3435 -0.1098
  817MOL0     C10224   5.355   7.559   9.068  0.0924  0.4653  0.1352
  817MOL0     C10225   5.462   7.612   9.051 -0.2319  0.1370  0.8621
  817MOL0     C10226   4.604   7.767   9.067  0.7210 -0.0599  0.0039
  817MOL0     C10227   4.474   7.825   9.085  0.2362 -0.8285  0.5165
  817MOL0     H10228   4.138   8.048   8.909  1.2875 -1.1865  1.1809
  817MOL0     H10229   3.910   8.128   8.867  2.9204  2.6747 -0.5075
  817MOL0     H10230   3.639   8.086   9.217  1.3296 -1.9634 -1.3257
  817MOL0     H10231   3.644   8.266   9.192  0.1055  0.4125 -1.7537
  817MOL0     H10232   3.482   8.243   9.003  0.8334  0.4035  0.1367
  817MOL0     H10233   3.475   8.071   9.043  1.6716 -0.5169  0.8160
  817MOL0     H10234   3.379   8.119   9.256  3.4017  0.4093  0.7049
  817MOL0     H10235   3.388   8.287   9.242  3.4368 -0.4206 -0.4323
  817MOL0     H10236   3.225   8.264   9.027 -1.3357 -1.4981 -0.8172
  817MOL0     H10237   3.224   8.093   9.047  0.2064  0.7809 -1.7807
  817MOL0     H10238   3.131   8.144   9.293  1.1647  1.3427  0.8248
  817MOL0     H10239   3.122   8.315   9.248 -1.7766 -0.5253  0.6153
  817MOL0     H10240   2.977   8.246   9.045  3.5339  2.0005 -0.9181
  817MOL0     H10241   2.996   8.080   9.100 -1.1606 -0.6406  1.1723
  817MOL0     H10242   2.912   8.125   9.320  1.3895  0.3242  0.2572
  817MOL0     H10243   2.875   8.292   9.276  0.4868 -0.6373  0.8386
  817MOL0     H10244   2.768   8.034   9.145  1.9203 -0.0523  1.4276
  817MOL0     H10245   2.715   8.194   9.097  0.6624  1.1029 -0.1700
  817MOL0     H10246   2.602   8.342   9.315 -2.1620  0.3599 -0.5986
  817MOL0     H10247   2.415   8.236   9.627 -1.3102  0.2062  0.4282
  817MOL0     H10248   2.451   8.375   9.535  1.8357 -0.9600 -0.7944
  817MOL0     H10249   2.218   8.191   9.504 -1.9152  2.3411  0.9568
  817MOL0     H10250   2.273   8.263   9.358 -0.5568 -0.4403 -0.1385
  817MOL0     H10251   2.222   8.478   9.461  0.4936  0.4032  0.7728
  817MOL0     H10252   2.225   8.426   9.624 -0.0618 -0.4090  0.2931
  817MOL0     H10253   1.980   8.472   9.537  0.3801  1.5777 -1.9296
  817MOL0     H10254   2.009   8.306   9.589  0.2898 -0.6591 -1.6710
  817MOL0     H10255   1.764   8.472   9.484 -0.9361  1.4535 -1.0666
  817MOL0     H10256   1.456   8.513   9.341  0.4575 -0.6193 -1.2130
  817MOL0     H10257   1.462   8.394   9.474 -1.3244 -0.8708 -2.4080
  817MOL0     H10258   1.567   8.540   9.478  1.9280 -0.5731  0.4458
  817MOL0     H10259   1.272   8.094   9.123 -0.0657  0.6745  0.4495
  817MOL0     H10260   1.080   8.024   8.976 -0.7771  0.7671  1.1447
  817MOL0     H10261   0.824   8.031   8.856  0.3125  0.1453 -0.8530
  817MOL0     H10262   0.873   8.159   8.974 -0.3463  1.4143 -0.0155
  817MOL0     H10263   0.750   8.328   8.850  1.2119 -1.1367  2.7462
  817MOL0     H10264   0.702   8.196   8.735  1.9031 -0.4531 -0.0228
  817MOL0     H10265   0.619   8.245   9.026 -0.0517 -0.6927  0.5326
  817MOL0     H10266   0.589   8.091   8.945  2.4575 -0.8933 -1.0371
  817MOL0     H10267   0.486   8.351   8.832  1.0158 -0.2978 -0.9983
  817MOL0     H10268   0.443   8.187   8.786  1.6642  1.0654 -1.0840
  817MOL0     H10269   0.391   8.308   9.066 -1.3629  0.1232 -0.0029
  817MOL0     H10270   0.370   8.140   9.016 -4.8875 -0.1794 -0.4118
  817MOL0     H10271   0.216   8.390   8.934  2.0094 -0.9135  1.8386
  817MOL0     H10272   0.189   8.229   8.858 -0.9735 -2.4479  0.6805
  817MOL0     H10273   0.166   8.330   9.144  0.1238  0.7839 -0.1971
  817MOL0     H10274   0.168   8.155   9.103 -2.1623 -0.0466 -0.7388
  817MOL0     H10275  -0.032   8.163   8.977 -1.9182  1.1470 -0.3842
  817MOL0     H10276  -0.040   8.337   8.982  1.7914  0.8539  1.2220
  817MOL0     H10277   1.119   8.365   8.739 -0.0794 -1.0514 -0.3582
  817MOL0     H10278   1.333   8.424   8.865  2.7316 -0.8336  2.2318
  817MOL0     H10279   1.705   8.160   9.120 -1.2963  1.1520  0.0487
  817MOL0     H10280   1.926   8.195   9.205 -1.2586 -1.1639  0.5612
  817MOL0     H10281   3.839   8.094   9.302 -0.6479  2.0803  0.1048
  817MOL0     H10282   4.062   7.994   9.326 -0.2167 -1.1194 -0.0115
  817MOL0     H10283   4.272   7.555   9.065 -1.2368  2.2155  1.4743
  817MOL0     H10284   4.505   7.446   9.043  3.0957  0.0530 -2.0158
  817MOL0     H10285   4.865   7.697   9.004  1.4537  1.6118  2.3519
  817MOL0     H10286   4.869   7.682   9.172  0.5109  0.7256  0.4410
  817MOL0     H10287   4.931   7.461   8.973  0.1541 -1.3756 -0.0537
  817MOL0     H10288   4.962   7.451   9.152  0.5872  1.5468  0.3716
  817MOL0     H10289   5.111   7.649   9.148 -0.3223 -0.6265  1.0318
  817MOL0     H10290   5.109   7.643   8.971 -0.2456 -1.3913 -0.8354
  817MOL0     H10291   5.224   7.415   8.985 -0.4531 -2.7123  1.7756
  817MOL0     H10292   5.211   7.420   9.156 -1.1646 -3.2279 -2.1696
  817MOL0     H10293   5.560   7.652   9.036  0.2475 -1.2382  0.0879
  817MOL0     H10294   4.695   7.825   9.062 -0.1675  1.3581 -0.1933
  817MOL0     H10295   4.470   7.934   9.087 -1.8847 -0.8543  0.1614
  818MOL0     O10296   5.218   0.123   3.433  0.5933  0.0993 -0.4337
  818MOL0     C10297   5.244   0.149   3.316  0.8333 -0.2499 -0.9014
  818MOL0     O10298   5.157   0.146   3.214  0.5089 -0.3081 -0.2443
  818MOL0     C10299   5.023   0.117   3.233 -0.4757 -0.8449  0.3489
  818MOL0     C10300   4.957   0.090   3.111  0.6681  0.8643 -0.4607
  818MOL0     C10301   4.819   0.047   3.108 -0.5157  0.1993 -0.7649
  818MOL0     C10302   4.738   0.074   3.221 -0.2206  0.3155  0.3903
  818MOL0     O10303   4.608   0.060   3.229  0.2329  0.2861 -0.4609
  818MOL0     C10304   4.550  -0.020   3.131  0.3022  0.4524 -0.2698
  818MOL0     C10305   4.396  -0.011   3.146 -0.1290 -0.7770  0.5815
  818MOL0     C10306   4.309  -0.086   3.041  1.0184  0.9728 -0.2797
  818MOL0     C10307   4.162  -0.068   3.065  0.1654  0.3899  0.3113
  818MOL0     C10308   4.071  -0.161   2.980  0.2515  0.1413  0.1139
  818MOL0     C10309   3.923  -0.137   2.989 -0.6418 -0.6928 -0.3114
  818MOL0     C10310   3.879  -0.010   2.904  0.2967 -0.6764  0.4323
  818MOL0     C10311   3.721   0.020   2.934 -1.4413  1.7030 -0.4168
  818MOL0     N10312   3.636  -0.097   2.905 -0.9761 -0.0527 -0.1786
  818MOL0     C10313   3.601  -0.138   2.781  1.1154  0.0355  0.3397
  818MOL0     C10314   3.514  -0.240   2.806 -0.1933 -0.4328 -0.6507
  818MOL0     C10315   3.452  -0.337   2.712 -0.5700 -0.0166  1.0127
  818MOL0     C10316   3.345  -0.267   2.634  0.3537  0.0953 -0.1877
  818MOL0     C10317   3.230  -0.207   2.724  0.3154 -0.6004  0.3978
  818MOL0     C10318   3.145  -0.300   2.804  0.2512 -0.6022 -1.1194
  818MOL0     O10319   3.071  -0.257   2.919  0.0410 -0.4275 -0.6444
  818MOL0     C10320   2.935  -0.221   2.903 -0.1103  0.4682  0.0974
  818MOL0     C10321   2.856  -0.239   3.020  0.6757  0.1562 -0.4272
  818MOL0     C10322   2.719  -0.214   3.028  0.1076  0.2342 -0.5243
  818MOL0     C10323   2.652  -0.230   3.164  0.2464  0.3846  0.0680
  818MOL0     C10324   2.653  -0.166   2.911  0.6989  0.0024  0.0452
  818MOL0     C10325   2.502  -0.147   2.888 -0.3734  0.2250  0.5328
  818MOL0     O10326   2.471  -0.039   2.817 -0.0003  0.2595  0.6706
  818MOL0     C10327   2.347  -0.023   2.767  0.4173  0.6483 -1.1693
  818MOL0     C10328   2.270   0.083   2.799  1.0222 -0.7314  0.1732
  818MOL0     C10329   2.131   0.087   2.775  0.0289  0.6158 -0.5952
  818MOL0     C10330   2.062  -0.018   2.710  0.2774  0.0076 -0.0455
  818MOL0     O10331   1.928  -0.026   2.673 -0.1539 -0.0162  0.0150
  818MOL0     C10332   1.858   0.094   2.680  0.6334 -0.1739  0.4013
  818MOL0     C10333   1.716   0.082   2.617  0.9936  0.0692  0.2365
  818MOL0     C10334   1.635   0.201   2.616 -0.1653  0.6880  0.5067
  818MOL0     C10335   1.498   0.184   2.549  0.3813 -0.3157 -0.0471
  818MOL0     C10336   1.407   0.306   2.574  0.2270  0.3190  0.0769
  818MOL0     C10337   1.252   0.283   2.589 -0.7112  0.0645 -0.1528
  818MOL0     C10338   1.194   0.239   2.451  0.5377  0.2399 -1.4723
  818MOL0     C10339   1.038   0.203   2.453 -0.0682  0.3908  0.6528
  818MOL0    Cl10340   0.935   0.293   2.565  0.3704  0.2151  0.3388
  818MOL0     C10341   2.141  -0.127   2.676 -0.2971 -0.0084 -0.3872
  818MOL0     C10342   2.282  -0.129   2.705  0.6222  0.2059  0.1517
  818MOL0     O10343   2.428  -0.233   2.929 -0.2742 -0.3440 -0.1790
  818MOL0     C10344   2.732  -0.153   2.793  0.0222 -0.4722 -0.3680
  818MOL0     C10345   2.872  -0.169   2.786 -0.2287  0.3576 -0.3783
  818MOL0     N10346   3.505  -0.267   2.938 -0.8628 -0.8822  0.0349
  818MOL0     N10347   3.575  -0.174   3.001 -0.5687 -0.3380  0.2292
  818MOL0     C10348   4.799   0.127   3.332 -0.5757  0.0850 -0.1743
  818MOL0     C10349   4.938   0.137   3.339  0.4385 -0.5110 -0.1301
  818MOL0     C10350   5.389   0.160   3.286 -0.0022  0.1025  0.0623
  818MOL0     C10351   5.486   0.149   3.388 -0.3980 -0.2723  0.9315
  818MOL0     C10352   5.621   0.148   3.355  0.0392 -0.1454 -0.4639
  818MOL0     C10353   5.676   0.146   3.222 -0.4429  0.7151  0.9656
  818MOL0     O10354   5.814   0.137   3.201  0.1677 -0.0602 -0.1426
  818MOL0     C10355   5.864   0.120   3.069  0.3195  0.7017 -0.6423
  818MOL0     C10356   5.895  -0.027   3.043 -0.2405 -0.6188 -0.7217
  818MOL0     C10357   5.980  -0.088   3.147  0.0591 -0.1603  0.1763
  818MOL0     C10358   6.048  -0.215   3.103  0.8658 -0.1460  0.0582
  818MOL0     C10359   5.945  -0.318   3.116  0.4991 -0.6674 -0.4255
  818MOL0     C10360   5.855  -0.398   3.134 -0.1425 -0.3382 -0.0346
  818MOL0     C10361   5.579   0.152   3.120  0.3129 -0.3541  0.1529
  818MOL0     C10362   5.436   0.161   3.150  0.3973 -0.5803  0.6652
  818MOL0     H10363   5.016   0.078   3.021 -0.5078 -1.7083 -0.9921
  818MOL0     H10364   4.778   0.018   3.012 -1.6820  1.7290 -0.7884
  818MOL0     H10365   4.573   0.031   3.036  1.4988  4.5834  1.9903
  818MOL0     H10366   4.582  -0.124   3.140 -1.2239  0.1675  4.4296
  818MOL0     H10367   4.366  -0.056   3.241 -1.1560 -1.3760 -0.0125
  818MOL0     H10368   4.370   0.095   3.137 -0.2318 -0.7963  0.6585
  818MOL0     H10369   4.325  -0.048   2.940  1.3215 -3.4010 -2.0863
  818MOL0     H10370   4.332  -0.193   3.046 -0.1627  0.6698 -0.9489
  818MOL0     H10371   4.145  -0.103   3.167 -0.4412  1.1220  0.4626
  818MOL0     H10372   4.126   0.034   3.052  1.1574  0.6444 -0.6232
  818MOL0     H10373   4.093  -0.141   2.875 -0.5785  2.0451  0.2653
  818MOL0     H10374   4.098  -0.264   3.004  0.5113  0.3416  0.6977
  818MOL0     H10375   3.863  -0.225   2.965 -2.6842  0.9498 -1.5900
  818MOL0     H10376   3.911  -0.116   3.096 -0.5034 -0.1710 -0.3952
  818MOL0     H10377   3.926   0.086   2.927 -4.0334  1.8001  0.0885
  818MOL0     H10378   3.884  -0.033   2.798 -1.7514  1.8015 -0.3004
  818MOL0     H10379   3.683   0.105   2.875 -2.1125  2.2143  0.7322
  818MOL0     H10380   3.719   0.053   3.038  0.9381 -0.3209  0.3808
  818MOL0     H10381   3.627  -0.107   2.681  1.9897 -0.6503  0.3460
  818MOL0     H10382   3.513  -0.385   2.635 -3.2302 -1.6473 -0.2260
  818MOL0     H10383   3.405  -0.421   2.764 -1.1391 -0.3323  0.0020
  818MOL0     H10384   3.284  -0.339   2.579  0.0845 -1.4100  1.9512
  818MOL0     H10385   3.393  -0.199   2.563  0.0154 -0.4019 -0.8969
  818MOL0     H10386   3.155  -0.154   2.664 -1.4207 -2.9768  0.3425
  818MOL0     H10387   3.277  -0.147   2.803 -2.7019 -0.7934  2.5421
  818MOL0     H10388   3.218  -0.366   2.851  2.2732 -0.8355 -4.2964
  818MOL0     H10389   3.071  -0.351   2.740 -1.2650  1.3788 -1.0390
  818MOL0     H10390   2.896  -0.287   3.109 -1.1347  1.6012  1.2671
  818MOL0     H10391   2.562  -0.170   3.181 -0.3495 -0.0922 -1.2916
  818MOL0     H10392   2.604  -0.328   3.162 -1.1673  1.0558  0.1957
  818MOL0     H10393   2.720  -0.208   3.247  0.8425  1.6258 -0.7097
  818MOL0     H10394   2.303   0.175   2.846 -0.0983 -0.5805  0.6979
  818MOL0     H10395   2.072   0.174   2.798  0.1596  0.8458 -1.1169
  818MOL0     H10396   1.841   0.137   2.779 -1.7078  1.4866 -0.6032
  818MOL0     H10397   1.905   0.169   2.615  2.0070 -2.5566 -1.5036
  818MOL0     H10398   1.715   0.047   2.514 -0.4662  0.9772 -0.0934
  818MOL0     H10399   1.677  -0.000   2.678  3.0683 -2.1405 -1.2207
  818MOL0     H10400   1.680   0.290   2.571 -1.8640  1.7908  0.9079
  818MOL0     H10401   1.627   0.221   2.723 -0.4431 -1.4547  0.9315
  818MOL0     H10402   1.521   0.176   2.443  1.7748  3.9425 -0.2464
  818MOL0     H10403   1.440   0.097   2.582  0.1146 -0.8990 -1.9606
  818MOL0     H10404   1.420   0.377   2.492  2.2392  1.2089  1.0975
  818MOL0     H10405   1.443   0.351   2.667  1.9546 -2.9701  1.1408
  818MOL0     H10406   1.229   0.213   2.670 -3.4677  1.9657  0.8646
  818MOL0     H10407   1.207   0.378   2.619 -1.9307 -0.5886  0.1716
  818MOL0     H10408   1.261   0.161   2.413  1.6463  0.3851  0.0685
  818MOL0     H10409   1.197   0.319   2.377  1.4725 -0.5772 -2.3468
  818MOL0     H10410   1.017   0.099   2.479 -2.1457  0.2492 -1.2850
  818MOL0     H10411   0.997   0.205   2.352 -2.4878  1.2966  1.5883
  818MOL0     H10412   2.104  -0.216   2.626  0.3026  0.2887 -1.3951
  818MOL0     H10413   2.340  -0.213   2.667  1.8260  0.8090  0.5832
  818MOL0     H10414   2.676  -0.118   2.707  0.2473  0.8408  0.0058
  818MOL0     H10415   2.924  -0.161   2.692 -0.5107 -1.4555 -0.7360
  818MOL0     H10416   4.723   0.144   3.407 -1.3834 -1.3851 -0.6029
  818MOL0     H10417   4.992   0.162   3.430  1.7464 -2.7882 -0.2141
  818MOL0     H10418   5.469   0.136   3.494  2.7308  0.1344  1.5677
  818MOL0     H10419   5.691   0.145   3.438  0.4119 -1.9180 -0.8054
  818MOL0     H10420   5.801   0.142   2.982  0.3087 -1.6173 -1.2915
  818MOL0     H10421   5.951   0.184   3.055  1.9295 -1.4556 -1.1582
  818MOL0     H10422   5.943  -0.029   2.945 -1.2850 -1.5978 -1.2454
  818MOL0     H10423   5.802  -0.083   3.028 -0.3369 -0.5826 -0.2867
  818MOL0     H10424   5.919  -0.113   3.235 -1.1795 -0.5471 -0.7604
  818MOL0     H10425   6.046  -0.005   3.174  0.1051 -0.2216  0.2523
  818MOL0     H10426   6.133  -0.247   3.164  0.3552  1.3656  1.6756
  818MOL0     H10427   6.082  -0.205   3.000 -1.3647 -2.2646 -0.9892
  818MOL0     H10428   5.777  -0.470   3.152 -2.4058  2.1856  0.8959
  818MOL0     H10429   5.608   0.155   3.015 -1.2734  2.0002 -0.3070
  818MOL0     H10430   5.369   0.173   3.066  1.8666  2.4079 -0.2376
  819MOL0     O10431   0.541   5.385   0.743 -0.6939 -0.2799 -0.0628
  819MOL0     C10432   0.636   5.424   0.687  0.2199  0.2217  0.1987
  819MOL0     O10433   0.637   5.507   0.573 -0.3088 -0.2575 -0.3869
  819MOL0     C10434   0.518   5.539   0.516  0.6595  0.3091 -0.2332
  819MOL0     C10435   0.461   5.670   0.538  0.1573  0.7488  0.0850
  819MOL0     C10436   0.340   5.701   0.465 -0.7188  1.2700 -0.4882
  819MOL0     C10437   0.290   5.616   0.368 -0.3592  0.7392  0.2550
  819MOL0     O10438   0.189   5.651   0.280  0.1540  0.3681  0.3776
  819MOL0     C10439   0.074   5.690   0.355 -0.2911 -0.9187 -0.2769
  819MOL0     C10440  -0.034   5.713   0.252  0.6601 -0.2292  0.2974
  819MOL0     C10441  -0.177   5.709   0.320  0.2020  0.3008  0.8316
  819MOL0     C10442  -0.293   5.757   0.224 -0.1256  0.4285 -0.1295
  819MOL0     C10443  -0.411   5.818   0.301  0.4412 -0.4596 -0.8961
  819MOL0     C10444  -0.533   5.806   0.204  0.7469 -0.1443 -0.2775
  819MOL0     C10445  -0.660   5.861   0.265 -0.7824 -0.4617  0.5248
  819MOL0     C10446  -0.785   5.792   0.221  0.4075  0.2135  0.8401
  819MOL0     N10447  -0.906   5.868   0.258  0.4246 -0.0816 -0.5729
  819MOL0     C10448  -1.002   5.829   0.347  0.0493 -0.0589 -0.1080
  819MOL0     C10449  -1.091   5.926   0.350  0.7104  0.1388  0.6094
  819MOL0     C10450  -1.217   5.940   0.436 -0.1707 -0.0424  0.4614
  819MOL0     C10451  -1.347   5.924   0.367 -0.7473 -0.3347  0.2805
  819MOL0     C10452  -1.455   5.930   0.481  0.5905 -0.6175  0.2170
  819MOL0     C10453  -1.594   5.935   0.413 -0.3987  0.3687  0.0955
  819MOL0     O10454  -1.607   5.842   0.303  0.5205 -0.4824  0.0722
  819MOL0     C10455  -1.729   5.850   0.237 -0.3020  1.2391  0.0180
  819MOL0     C10456  -1.756   5.759   0.134 -0.2837 -0.6533 -0.0746
  819MOL0     C10457  -1.881   5.744   0.074  0.0364 -0.5839 -1.0484
  819MOL0     C10458  -1.880   5.688  -0.070  0.8307 -0.6048  0.2851
  819MOL0     C10459  -1.987   5.825   0.124 -0.3624  0.1327 -0.0610
  819MOL0     C10460  -2.121   5.818   0.057 -0.7519 -0.0579  0.0953
  819MOL0     O10461  -2.199   5.929   0.078  0.1662  1.0159 -0.0595
  819MOL0     C10462  -2.335   5.913   0.045  0.0900 -0.1547  0.0298
  819MOL0     C10463  -2.426   5.974   0.133 -0.3759 -1.0060 -0.3716
  819MOL0     C10464  -2.561   5.962   0.112 -0.0933 -0.2977  0.1106
  819MOL0     C10465  -2.605   5.902  -0.013  0.0718  0.2224  0.0575
  819MOL0     O10466  -2.738   5.875  -0.041  0.4855  0.5050  0.3377
  819MOL0     C10467  -2.837   5.949   0.034  0.1347  0.8178  0.8875
  819MOL0     C10468  -2.978   5.926  -0.038 -0.1786  0.7263  0.8978
  819MOL0     C10469  -3.016   5.777  -0.029 -0.2572 -0.4215  0.4032
  819MOL0     C10470  -3.157   5.756  -0.066  0.5744 -0.2117  0.0686
  819MOL0     C10471  -3.183   5.612  -0.080 -0.0686  0.8465  0.9610
  819MOL0     C10472  -3.332   5.567  -0.092  0.8469 -0.1620  0.8179
  819MOL0     C10473  -3.364   5.428  -0.054 -0.4168 -0.4805  0.6866
  819MOL0     C10474  -3.514   5.406  -0.091  0.8705  0.2467 -0.8235
  819MOL0    Cl10475  -3.538   5.412  -0.266 -0.3275 -0.0149  0.3659
  819MOL0     C10476  -2.515   5.854  -0.108 -0.5020  0.3471 -0.6070
  819MOL0     C10477  -2.382   5.868  -0.080  0.4967  0.0735  0.1200
  819MOL0     O10478  -2.152   5.711   0.008 -0.9981  0.1897 -0.5743
  819MOL0     C10479  -1.965   5.913   0.236 -0.6135 -0.2284  0.7160
  819MOL0     C10480  -1.835   5.925   0.287 -0.6257  0.1213 -0.7403
  819MOL0     N10481  -1.053   6.028   0.262  1.0915 -0.2714 -0.5618
  819MOL0     N10482  -0.948   5.989   0.204 -0.4594 -0.3876  0.0026
  819MOL0     C10483   0.346   5.489   0.355  0.1369  0.2885 -0.0444
  819MOL0     C10484   0.450   5.441   0.432  0.0611  0.6221 -0.2079
  819MOL0     C10485   0.764   5.385   0.744  0.0005 -0.1439 -0.2146
  819MOL0     C10486   0.876   5.427   0.674 -0.7427 -0.6739 -0.8349
  819MOL0     C10487   1.005   5.388   0.715  0.0267 -0.6540  1.0157
  819MOL0     C10488   1.029   5.304   0.824 -0.3775  0.6267  0.1418
  819MOL0     O10489   1.159   5.276   0.847 -0.3924 -0.5417  0.1516
  819MOL0     C10490   1.213   5.277   0.980  0.9256  0.1381  0.5120
  819MOL0     C10491   1.356   5.304   0.978  0.2870  0.6207  0.5228
  819MOL0     C10492   1.418   5.167   0.949  1.2787 -0.2793  1.3339
  819MOL0     C10493   1.562   5.177   0.910  0.2358  0.7134  0.6589
  819MOL0     C10494   1.646   5.235   1.017  0.7292  0.6677 -0.1608
  819MOL0     C10495   1.722   5.279   1.099  0.7352  0.0456  0.6117
  819MOL0     C10496   0.923   5.277   0.906 -0.2614  0.9544 -0.8168
  819MOL0     C10497   0.790   5.318   0.868 -0.2323  0.0704 -0.2002
  819MOL0     H10498   0.502   5.746   0.603 -1.0954  2.5261 -1.1246
  819MOL0     H10499   0.313   5.805   0.477 -0.6208  1.0917  1.5595
  819MOL0     H10500   0.037   5.618   0.428  0.5545  1.6115  2.8541
  819MOL0     H10501   0.097   5.772   0.423 -0.6781 -2.8331  2.3204
  819MOL0     H10502  -0.009   5.816   0.222  1.7598  0.2751  2.6892
  819MOL0     H10503  -0.034   5.649   0.163 -1.8266  0.6485 -0.4258
  819MOL0     H10504  -0.196   5.606   0.350  0.1184  0.6457  1.9972
  819MOL0     H10505  -0.182   5.773   0.408 -2.5453  1.5721 -0.1275
  819MOL0     H10506  -0.257   5.828   0.149  1.5535  0.1137  0.3430
  819MOL0     H10507  -0.326   5.669   0.169  0.1233  2.0341 -3.0516
  819MOL0     H10508  -0.437   5.759   0.389 -0.6087  0.5940 -0.4738
  819MOL0     H10509  -0.404   5.922   0.334 -0.7238 -0.2767 -1.1883
  819MOL0     H10510  -0.511   5.872   0.120  0.2463  1.6106  0.8933
  819MOL0     H10511  -0.543   5.702   0.172 -0.3223 -0.1620  0.0619
  819MOL0     H10512  -0.647   5.862   0.374  0.9370 -1.4550  0.3707
  819MOL0     H10513  -0.666   5.967   0.241  2.1941 -0.1258  0.8863
  819MOL0     H10514  -0.795   5.694   0.268 -1.0271  0.2317  0.6157
  819MOL0     H10515  -0.789   5.773   0.114  2.1094  2.1921  0.3591
  819MOL0     H10516  -0.986   5.736   0.401  2.7596  0.9236  0.9217
  819MOL0     H10517  -1.208   5.872   0.521  2.0735 -0.1057  0.2111
  819MOL0     H10518  -1.216   6.037   0.487  0.6350 -0.0300  0.4238
  819MOL0     H10519  -1.350   5.831   0.309 -0.8877 -0.5117  0.5680
  819MOL0     H10520  -1.346   6.005   0.294  2.6363 -0.4404  0.0275
  819MOL0     H10521  -1.450   6.020   0.543 -1.3267  0.2405 -0.7861
  819MOL0     H10522  -1.436   5.836   0.534  1.3812 -1.6169 -1.7556
  819MOL0     H10523  -1.619   6.039   0.388  2.9485  1.1135 -0.7608
  819MOL0     H10524  -1.661   5.896   0.490  0.6098  2.3386  2.0916
  819MOL0     H10525  -1.673   5.701   0.094 -0.2738  0.3855 -1.6772
  819MOL0     H10526  -1.782   5.677  -0.118  0.7992  0.3689 -0.0236
  819MOL0     H10527  -1.915   5.586  -0.052 -3.9122  1.0177  1.8612
  819MOL0     H10528  -1.946   5.743  -0.137  2.4759  1.0153 -0.0835
  819MOL0     H10529  -2.394   6.026   0.223 -0.2851  0.2869 -1.1302
  819MOL0     H10530  -2.639   5.985   0.183 -0.2521 -0.8250  0.1109
  819MOL0     H10531  -2.854   5.913   0.136 -2.2615  1.1348  0.6598
  819MOL0     H10532  -2.830   6.058   0.031 -1.9700  1.0628  2.4191
  819MOL0     H10533  -3.057   5.991  -0.000 -1.7287 -1.7590  2.2120
  819MOL0     H10534  -2.964   5.954  -0.143 -1.6340  0.4634  0.6186
  819MOL0     H10535  -2.993   5.740   0.071  1.8812  1.7705  0.8065
  819MOL0     H10536  -2.958   5.723  -0.104  0.8112 -0.6442  1.3751
  819MOL0     H10537  -3.223   5.802   0.009 -1.7198  1.0486 -2.5629
  819MOL0     H10538  -3.187   5.812  -0.154 -3.1512  1.1498  1.9848
  819MOL0     H10539  -3.142   5.563   0.008 -0.3736  0.2477  0.7788
  819MOL0     H10540  -3.135   5.564  -0.167 -1.3070  0.4721  0.4615
  819MOL0     H10541  -3.394   5.635  -0.032 -0.9841 -1.5589  0.5964
  819MOL0     H10542  -3.370   5.596  -0.191  2.0497  2.0035  0.9078
  819MOL0     H10543  -3.354   5.415   0.054  1.2958 -0.6984  0.5242
  819MOL0     H10544  -3.307   5.351  -0.107  0.1394  0.9190 -0.8117
  819MOL0     H10545  -3.574   5.484  -0.045  1.5647  1.2783 -1.5925
  819MOL0     H10546  -3.550   5.313  -0.047 -0.7749  1.9905  1.7254
  819MOL0     H10547  -2.552   5.805  -0.198 -0.1534 -0.3130 -0.4050
  819MOL0     H10548  -2.317   5.838  -0.161  0.3191  1.0676 -0.4090
  819MOL0     H10549  -2.050   5.973   0.267 -0.6079  1.4835 -2.1834
  819MOL0     H10550  -1.828   5.990   0.374  0.2463 -0.2020 -0.5519
  819MOL0     H10551   0.307   5.430   0.273  1.9958  1.5024 -1.9192
  819MOL0     H10552   0.495   5.344   0.414 -0.4221  0.1854  0.8778
  819MOL0     H10553   0.863   5.488   0.584 -2.0101  0.6734  0.2168
  819MOL0     H10554   1.089   5.410   0.651 -0.8027 -0.1716  0.0614
  819MOL0     H10555   1.157   5.354   1.034 -3.1027 -2.1906  0.0752
  819MOL0     H10556   1.182   5.185   1.030 -3.1801  1.6133  1.0356
  819MOL0     H10557   1.390   5.328   1.079  1.1961 -0.9581  0.6255
  819MOL0     H10558   1.402   5.383   0.917  1.9910 -1.4571 -1.0453
  819MOL0     H10559   1.356   5.130   0.868  3.1909  0.2542 -0.4637
  819MOL0     H10560   1.399   5.106   1.038  1.3434 -1.2973  0.6654
  819MOL0     H10561   1.585   5.220   0.812 -0.0140 -0.3038  0.1470
  819MOL0     H10562   1.592   5.073   0.897  0.9257  1.1949 -2.5866
  819MOL0     H10563   1.791   5.326   1.166  0.3212  1.9718 -0.2452
  819MOL0     H10564   0.941   5.211   0.990 -3.3897  1.3694  0.2735
  819MOL0     H10565   0.700   5.301   0.925  0.4920 -0.1339  0.9220
  820MOL0     O10566  10.085  10.978   7.524 -0.3295 -0.0736  0.0466
  820MOL0     C10567  10.152  11.032   7.611 -0.6251 -0.4616  0.6989
  820MOL0     O10568  10.103  11.089   7.727  0.7020  0.2426  0.4548
  820MOL0     C10569   9.968  11.098   7.733  0.9065  0.0507  0.8901
  820MOL0     C10570   9.916  11.072   7.859  0.2615  0.5337  0.3496
  820MOL0     C10571   9.779  11.086   7.891  1.0778  0.3862  0.1638
  820MOL0     C10572   9.690  11.128   7.783  0.7831 -0.4177 -0.4029
  820MOL0     O10573   9.553  11.150   7.803 -0.5808 -0.0303  0.4814
  820MOL0     C10574   9.499  11.119   7.933 -1.0171  0.0887  0.4954
  820MOL0     C10575   9.363  11.174   7.942  0.0360 -0.6423 -0.5724
  820MOL0     C10576   9.263  11.123   7.833  0.1153 -0.3228  1.0726
  820MOL0     C10577   9.135  11.205   7.853 -0.5083  0.1932  0.4652
  820MOL0     C10578   9.024  11.155   7.757  0.0826 -0.0616 -0.5625
  820MOL0     C10579   8.895  11.239   7.770 -1.0241  0.3863  0.4646
  820MOL0     C10580   8.820  11.231   7.902 -0.5840  0.5735  0.1769
  820MOL0     C10581   8.773  11.087   7.935 -0.4879 -0.0105 -0.0073
  820MOL0     N10582   8.677  11.078   8.048 -0.4269 -0.1263 -0.0697
  820MOL0     C10583   8.543  11.073   8.036  0.1249  0.1767  0.1199
  820MOL0     C10584   8.499  11.074   8.165  0.2361  0.3048 -0.1519
  820MOL0     C10585   8.349  11.072   8.200 -0.2692 -0.9686  0.3061
  820MOL0     C10586   8.283  11.207   8.154  0.2151  0.7178  0.1694
  820MOL0     C10587   8.128  11.196   8.139 -0.3362 -0.1612  1.3270
  820MOL0     C10588   8.068  11.326   8.092  0.2670 -0.3124  0.6479
  820MOL0     O10589   7.939  11.304   8.144  0.6755  0.0782 -0.2786
  820MOL0     C10590   7.841  11.380   8.089 -0.3567 -0.2790  0.2536
  820MOL0     C10591   7.861  11.489   7.997 -0.1967 -0.3301 -0.6279
  820MOL0     C10592   7.756  11.561   7.941  0.1046 -0.4014 -0.8108
  820MOL0     C10593   7.789  11.668   7.835  0.5848  0.0243 -0.9346
  820MOL0     C10594   7.623  11.533   7.977 -0.2486  0.4776  1.5672
  820MOL0     C10595   7.497  11.596   7.923 -0.3238 -0.0243 -0.3264
  820MOL0     O10596   7.373  11.536   7.952 -0.6590  0.3385  1.1420
  820MOL0     C10597   7.264  11.585   7.885 -0.5694  0.1340  0.1610
  820MOL0     C10598   7.191  11.498   7.803  0.3986  0.3763 -0.8994
  820MOL0     C10599   7.063  11.544   7.762 -0.5697  0.4021  0.6993
  820MOL0     C10600   7.014  11.672   7.795  0.2992 -0.2521  0.3091
  820MOL0     O10601   6.895  11.728   7.757 -0.3603 -0.4139  0.1833
  820MOL0     C10602   6.790  11.648   7.696 -0.5448  0.5984 -0.6168
  820MOL0     C10603   6.661  11.726   7.711  0.0586 -0.1896  0.7101
  820MOL0     C10604   6.661  11.853   7.630 -0.5263  0.0846 -0.1791
  820MOL0     C10605   6.513  11.896   7.633  0.2993  0.7965 -0.5048
  820MOL0     C10606   6.499  12.033   7.563  1.0133  0.7267 -0.3638
  820MOL0     C10607   6.358  12.086   7.542 -0.5237  0.3756  1.0541
  820MOL0     C10608   6.293  12.100   7.681 -0.3976 -0.3548 -0.2882
  820MOL0     C10609   6.377  12.146   7.805  0.5403 -0.0544 -0.3597
  820MOL0    Cl10610   6.459  12.300   7.753  0.1796 -0.1088 -0.1481
  820MOL0     C10611   7.100  11.762   7.860 -0.3534  0.1497  0.5386
  820MOL0     C10612   7.224  11.716   7.906  0.9886  0.0758 -0.5609
  820MOL0     O10613   7.508  11.697   7.853  0.0122 -0.2660 -0.6547
  820MOL0     C10614   7.604  11.421   8.065 -0.0490  0.0599 -0.2012
  820MOL0     C10615   7.714  11.347   8.127  0.2412 -0.2583  0.6514
  820MOL0     N10616   8.616  11.087   8.253  0.0667  1.0157 -0.1238
  820MOL0     N10617   8.719  11.093   8.180  0.6981  0.3470 -0.8024
  820MOL0     C10618   9.745  11.156   7.654 -0.1448  0.0436 -0.9039
  820MOL0     C10619   9.886  11.151   7.637 -0.3888  0.8538 -0.1034
  820MOL0     C10620  10.305  11.021   7.613  0.1030  0.4314  0.6074
  820MOL0     C10621  10.383  11.075   7.715 -0.9153  0.0396 -1.0396
  820MOL0     C10622  10.521  11.080   7.708 -0.4689  0.1126  0.1130
  820MOL0     C10623  10.587  11.014   7.597 -0.8873 -1.2014 -0.2144
  820MOL0     O10624  10.729  11.025   7.590 -0.1893  0.2906 -0.1583
  820MOL0     C10625  10.789  10.945   7.485  0.0235  0.4935 -0.3225
  820MOL0     C10626  10.942  10.924   7.510  0.4417 -0.2755  0.5509
  820MOL0     C10627  11.000  11.067   7.532 -0.0568  0.2970  0.2968
  820MOL0     C10628  11.141  11.048   7.586  0.0020  0.2167 -0.7626
  820MOL0     C10629  11.187  11.174   7.642  0.9012 -0.5371 -0.1421
  820MOL0     C10630  11.207  11.278   7.697 -0.1331 -0.3112  0.1886
  820MOL0     C10631  10.507  10.964   7.482  0.1401  0.5645 -0.7986
  820MOL0     C10632  10.369  10.969   7.495  0.1550 -0.1145  0.1912
  820MOL0     H10633   9.973  11.037   7.945 -1.4661 -0.5286  1.1064
  820MOL0     H10634   9.745  11.055   7.989 -1.6213 -2.1485 -1.4034
  820MOL0     H10635   9.508  11.010   7.939  0.7903  0.2912  2.6205
  820MOL0     H10636   9.559  11.152   8.018 -1.3431 -2.2425  1.7184
  820MOL0     H10637   9.320  11.154   8.040  1.2314  2.4079  0.6893
  820MOL0     H10638   9.385  11.281   7.948  0.6951 -0.8532  2.7536
  820MOL0     H10639   9.303  11.137   7.732  0.5223 -1.3226  1.0851
  820MOL0     H10640   9.242  11.017   7.848 -1.9592  0.1915  2.2169
  820MOL0     H10641   9.108  11.173   7.954  2.1473  0.5206  1.3576
  820MOL0     H10642   9.149  11.313   7.860 -2.1063  0.4294  0.4020
  820MOL0     H10643   9.063  11.166   7.656 -0.3230  0.3676 -0.6743
  820MOL0     H10644   8.993  11.056   7.791 -1.4363  0.8229  0.8246
  820MOL0     H10645   8.919  11.345   7.758 -2.3356  0.5847 -0.6538
  820MOL0     H10646   8.833  11.206   7.686 -0.6197  1.2437 -0.1776
  820MOL0     H10647   8.868  11.283   7.986  2.5183  2.1647 -2.3530
  820MOL0     H10648   8.735  11.299   7.888  0.8603  2.0386 -2.1961
  820MOL0     H10649   8.861  11.027   7.959  0.4449  2.1309  2.3671
  820MOL0     H10650   8.732  11.052   7.840 -1.4237  3.2625 -0.9390
  820MOL0     H10651   8.490  11.047   7.945  0.6913 -0.2119 -0.1064
  820MOL0     H10652   8.289  10.999   8.144 -3.4877  0.6577  1.3337
  820MOL0     H10653   8.340  11.051   8.307 -0.9932  2.6110  1.0800
  820MOL0     H10654   8.329  11.234   8.058  1.9318 -0.4335  0.6274
  820MOL0     H10655   8.321  11.288   8.217 -0.6139  1.0151  0.2917
  820MOL0     H10656   8.106  11.157   8.239  0.2537 -0.4289  1.3612
  820MOL0     H10657   8.105  11.116   8.068 -1.4079 -0.5919  2.1377
  820MOL0     H10658   8.068  11.330   7.983  0.2088 -0.7364  0.6316
  820MOL0     H10659   8.122  11.412   8.133  1.1125 -0.3081 -0.4683
  820MOL0     H10660   7.964  11.513   7.973  0.5745 -1.2943  1.4304
  820MOL0     H10661   7.720  11.654   7.751  1.1542 -0.9025 -1.2665
  820MOL0     H10662   7.781  11.771   7.871  0.1047 -0.5269  0.6171
  820MOL0     H10663   7.882  11.651   7.780  0.1936 -2.4488 -0.9318
  820MOL0     H10664   7.246  11.408   7.776  0.6988  0.4009 -0.3887
  820MOL0     H10665   6.984  11.485   7.715  0.7515 -0.0231 -1.1052
  820MOL0     H10666   6.807  11.622   7.592 -0.5729  1.9747 -0.9905
  820MOL0     H10667   6.775  11.560   7.759 -0.7089  2.0288  1.4567
  820MOL0     H10668   6.583  11.659   7.674  1.3138 -1.8787  0.9883
  820MOL0     H10669   6.638  11.736   7.818  0.3664  3.3963  0.5608
  820MOL0     H10670   6.688  11.829   7.527 -0.1835  3.9057 -1.1007
  820MOL0     H10671   6.724  11.933   7.668  1.9495 -0.0484 -3.5611
  820MOL0     H10672   6.440  11.830   7.586  1.3424 -1.7621  1.2543
  820MOL0     H10673   6.475  11.899   7.736 -1.8417  0.2676 -1.2312
  820MOL0     H10674   6.535  12.014   7.462 -0.1532  0.5609 -0.7701
  820MOL0     H10675   6.556  12.113   7.610  3.1431  0.4972 -2.3807
  820MOL0     H10676   6.356  12.185   7.494  0.4963  0.2571  0.7369
  820MOL0     H10677   6.295  12.018   7.484 -2.1872 -0.0005  3.1634
  820MOL0     H10678   6.259  11.999   7.704 -0.2564 -0.0763  1.2535
  820MOL0     H10679   6.206  12.165   7.671  0.5830  0.7696 -2.1791
  820MOL0     H10680   6.457  12.076   7.828  2.0548  1.3757 -1.0563
  820MOL0     H10681   6.311  12.156   7.892  2.6674 -0.4780  1.4069
  820MOL0     H10682   7.073  11.867   7.872 -1.2817  0.3199 -2.2285
  820MOL0     H10683   7.276  11.787   7.970 -0.2211  1.8438 -1.4606
  820MOL0     H10684   7.503  11.391   8.091  1.4676 -1.7582  4.8514
  820MOL0     H10685   7.704  11.267   8.200 -0.8404 -1.4785 -0.7711
  820MOL0     H10686   9.681  11.185   7.571 -0.0059  3.2183 -0.0247
  820MOL0     H10687   9.939  11.183   7.547  0.6671 -1.2934 -0.3111
  820MOL0     H10688  10.341  11.129   7.799  2.6768  0.9034  0.3880
  820MOL0     H10689  10.577  11.122   7.791 -2.5600  1.6686  0.8041
  820MOL0     H10690  10.757  10.841   7.500 -2.7306  1.2179 -0.6196
  820MOL0     H10691  10.775  10.996   7.390 -1.1309  2.6656  0.9311
  820MOL0     H10692  10.985  10.858   7.434  1.2638 -0.8715  1.4930
  820MOL0     H10693  10.956  10.876   7.608  2.0100 -0.0878  0.4345
  820MOL0     H10694  10.940  11.128   7.600  1.7318  0.4550  1.8086
  820MOL0     H10695  11.009  11.123   7.439 -1.7525  3.4268  1.8628
  820MOL0     H10696  11.200  11.027   7.496 -0.7733  0.5305 -1.3601
  820MOL0     H10697  11.149  10.976   7.667  2.3139  2.6984  1.4236
  820MOL0     H10698  11.220  11.379   7.731 -2.8021  0.6609 -1.4353
  820MOL0     H10699  10.556  10.899   7.409 -2.3907 -3.9939  1.1036
  820MOL0     H10700  10.313  10.912   7.422  1.8966 -0.9620 -0.5488
  821MOL0     O10701  10.131   9.466  10.360 -0.6035 -0.3110  0.3443
  821MOL0     C10702  10.137   9.592  10.365  0.4851 -0.1876  0.8887
  821MOL0     O10703  10.021   9.685  10.352 -0.1381  0.1635  0.2214
  821MOL0     C10704   9.897   9.634  10.333  0.1161 -0.4855  1.6547
  821MOL0     C10705   9.813   9.696  10.237 -0.3141 -0.7629 -0.0881
  821MOL0     C10706   9.692   9.643  10.217  0.0243 -0.3042 -0.2582
  821MOL0     C10707   9.641   9.526  10.280 -0.3699  0.3000 -0.2939
  821MOL0     O10708   9.512   9.484  10.253  0.1701 -0.5448  0.1554
  821MOL0     C10709   9.451   9.509  10.123  1.4368 -0.3993  0.1481
  821MOL0     C10710   9.340   9.397  10.101  0.0980 -0.2365 -0.1889
  821MOL0     C10711   9.208   9.426  10.170  0.4856 -0.4902 -0.3533
  821MOL0     C10712   9.102   9.322  10.112 -0.0883  0.4443 -0.1687
  821MOL0     C10713   8.975   9.346  10.198  0.6515 -0.2326  0.1791
  821MOL0     C10714   8.864   9.248  10.181  0.3749 -0.0957 -0.1232
  821MOL0     C10715   8.796   9.258  10.043  0.7102 -0.3877  0.4932
  821MOL0     C10716   8.705   9.153   9.978 -0.6085 -0.5944  0.5567
  821MOL0     N10717   8.598   9.123  10.074  0.1682 -0.1684  0.7468
  821MOL0     C10718   8.470   9.184  10.074  0.5015 -0.1405  0.1733
  821MOL0     C10719   8.387   9.096  10.137  0.1386 -0.4768 -0.0775
  821MOL0     C10720   8.242   9.125  10.172 -0.2704 -0.3261 -0.2113
  821MOL0     C10721   8.142   9.013  10.135  0.2351  0.0836  0.2109
  821MOL0     C10722   8.161   8.888  10.209 -0.2910  0.5094  0.0321
  821MOL0     C10723   8.034   8.794  10.216 -0.1167 -0.6634  0.4399
  821MOL0     O10724   7.953   8.858  10.315 -0.5146  0.3227 -1.0851
  821MOL0     C10725   7.824   8.866  10.288  0.6468 -1.2433  0.2386
  821MOL0     C10726   7.752   8.765  10.229 -0.7031  0.0848  0.7779
  821MOL0     C10727   7.614   8.777  10.208 -0.0434 -0.9612  0.4590
  821MOL0     C10728   7.545   8.659  10.164  0.9579  0.8814  0.3344
  821MOL0     C10729   7.547   8.902  10.231 -0.7166  0.9714 -0.7297
  821MOL0     C10730   7.408   8.918  10.202 -0.4543 -1.1278  0.0832
  821MOL0     O10731   7.370   9.046  10.159  0.4033 -0.8328  0.5191
  821MOL0     C10732   7.244   9.061  10.109 -0.3151  0.4298 -0.2920
  821MOL0     C10733   7.164   9.161  10.166  0.2675 -0.2096  0.8429
  821MOL0     C10734   7.035   9.181  10.112  0.3233  0.4320 -0.8747
  821MOL0     C10735   6.981   9.102  10.011  0.7060  0.0913  1.0382
  821MOL0     O10736   6.855   9.112   9.958 -0.1265  0.4575  0.1573
  821MOL0     C10737   6.834   9.227   9.874  0.1032  0.5688  0.7158
  821MOL0     C10738   6.685   9.271   9.880  0.1927  0.0087  0.1827
  821MOL0     C10739   6.624   9.305  10.020 -0.5092  0.6868 -0.1274
  821MOL0     C10740   6.484   9.371  10.001 -0.1554 -0.2715 -0.5588
  821MOL0     C10741   6.391   9.282   9.920  0.0366 -0.5951 -0.8443
  821MOL0     C10742   6.245   9.330   9.912 -0.3748 -0.3022 -0.4054
  821MOL0     C10743   6.156   9.228   9.836  0.4554  0.3839  0.5254
  821MOL0     C10744   6.020   9.294   9.801  0.2660  0.5341  0.1381
  821MOL0    Cl10745   5.915   9.185   9.691  0.0513 -0.0508  0.2463
  821MOL0     C10746   7.062   9.005   9.961 -0.1334  0.3741 -0.0450
  821MOL0     C10747   7.193   8.980  10.005 -0.1008 -0.4065  0.6772
  821MOL0     O10748   7.333   8.829  10.242 -0.1210 -0.6343 -0.2018
  821MOL0     C10749   7.626   9.001  10.281  0.7338  0.3346 -0.1037
  821MOL0     C10750   7.762   8.985  10.322 -0.2727 -0.4056  0.5745
  821MOL0     N10751   8.470   9.001  10.193 -0.2387  0.6081 -0.0446
  821MOL0     N10752   8.595   9.012  10.159  0.7812 -0.7217  0.0043
  821MOL0     C10753   9.727   9.464  10.369 -0.0840 -0.4790 -0.7675
  821MOL0     C10754   9.851   9.523  10.399 -0.5859  0.3282  0.2658
  821MOL0     C10755  10.265   9.658  10.388 -0.5825 -0.7066 -0.2116
  821MOL0     C10756  10.262   9.800  10.408 -0.2224 -0.6672  1.0711
  821MOL0     C10757  10.386   9.867  10.420  0.7830  0.1793 -0.3649
  821MOL0     C10758  10.500   9.797  10.414 -0.4314  0.0225 -0.4261
  821MOL0     O10759  10.605   9.882  10.415  0.2996 -0.3744 -0.0061
  821MOL0     C10760  10.733   9.838  10.441 -0.8857  0.1730 -0.1123
  821MOL0     C10761  10.834   9.947  10.431  0.3157 -0.4273  0.1249
  821MOL0     C10762  10.857   9.974  10.275  0.0625  0.4834 -0.6515
  821MOL0     C10763  10.907   9.857  10.178 -1.0906 -0.2873 -0.4017
  821MOL0     C10764  11.038   9.804  10.208  0.1095 -1.0437  0.6449
  821MOL0     C10765  11.145   9.774  10.254 -0.0109  0.1678 -0.4611
  821MOL0     C10766  10.503   9.660  10.406 -0.4066 -0.2050  0.1625
  821MOL0     C10767  10.393   9.589  10.390  0.8340 -0.5122 -0.3177
  821MOL0     H10768   9.833   9.790  10.185 -1.7238  0.2727  1.1734
  821MOL0     H10769   9.626   9.692  10.146  1.5989  1.7305 -0.4097
  821MOL0     H10770   9.399   9.605  10.117 -1.2361 -1.6404  1.6953
  821MOL0     H10771   9.529   9.508  10.046  0.5618  1.3598 -0.8178
  821MOL0     H10772   9.328   9.385   9.993 -0.6502  1.8430 -0.3938
  821MOL0     H10773   9.376   9.303  10.142  4.3566  1.5400  0.7284
  821MOL0     H10774   9.217   9.417  10.279 -2.1061 -0.2392 -0.0505
  821MOL0     H10775   9.180   9.527  10.140  0.8216 -0.4051 -0.3739
  821MOL0     H10776   9.085   9.343  10.006 -0.6327 -0.8747 -0.3628
  821MOL0     H10777   9.134   9.218  10.127  0.1726  0.6734  1.0123
  821MOL0     H10778   8.998   9.348  10.305  3.0735 -0.0366 -0.2940
  821MOL0     H10779   8.936   9.448  10.186 -3.6751 -1.8740 -1.7519
  821MOL0     H10780   8.902   9.145  10.189  0.3894 -0.0899 -0.1214
  821MOL0     H10781   8.791   9.267  10.260  0.6230  0.2843  0.0172
  821MOL0     H10782   8.742   9.354  10.039 -1.4722 -1.5819 -1.4538
  821MOL0     H10783   8.875   9.263   9.967  2.6084  2.4524  2.4499
  821MOL0     H10784   8.764   9.065   9.948  0.3782 -0.2798  1.5133
  821MOL0     H10785   8.669   9.199   9.885  1.7760  0.1611 -0.0687
  821MOL0     H10786   8.436   9.278  10.032 -0.6428  0.4923  2.3665
  821MOL0     H10787   8.244   9.148  10.279 -1.7269  1.4180 -0.5144
  821MOL0     H10788   8.216   9.218  10.120 -0.3555 -0.3949 -0.2906
  821MOL0     H10789   8.136   8.998  10.027  1.1235  0.1611  0.1461
  821MOL0     H10790   8.049   9.056  10.175  0.4435  0.5037  0.2521
  821MOL0     H10791   8.205   8.916  10.305 -1.2278 -2.0679  1.2957
  821MOL0     H10792   8.241   8.836  10.156  0.9156 -0.1505  2.3996
  821MOL0     H10793   8.074   8.698  10.249  0.8566 -0.8141 -1.0809
  821MOL0     H10794   7.993   8.781  10.116  0.4562  0.4996  0.0353
  821MOL0     H10795   7.808   8.673  10.216 -0.7716  0.2916 -1.1764
  821MOL0     H10796   7.491   8.671  10.069 -0.5423 -0.1657  1.0104
  821MOL0     H10797   7.603   8.570  10.140 -2.6728 -1.1456 -1.8373
  821MOL0     H10798   7.470   8.629  10.238 -0.1391  1.0640 -0.6713
  821MOL0     H10799   7.204   9.225  10.244  0.4467 -2.0023  2.2873
  821MOL0     H10800   6.972   9.258  10.154  1.6262  1.9609 -1.5918
  821MOL0     H10801   6.906   9.309   9.887  1.0434  0.3001 -2.1368
  821MOL0     H10802   6.860   9.191   9.774 -2.7861  1.1744 -0.3271
  821MOL0     H10803   6.681   9.351   9.806 -0.5144 -0.6044 -0.4653
  821MOL0     H10804   6.629   9.194   9.826  2.9218 -1.1195 -1.2184
  821MOL0     H10805   6.689   9.371  10.079  0.9612 -0.2441 -0.6495
  821MOL0     H10806   6.613   9.208  10.069 -0.9131 -1.8517 -4.7316
  821MOL0     H10807   6.440   9.399  10.097  0.5334  0.3336 -0.4079
  821MOL0     H10808   6.510   9.464   9.951  0.0525  0.7661  1.3903
  821MOL0     H10809   6.380   9.183   9.965 -1.2315 -0.5861 -1.1046
  821MOL0     H10810   6.437   9.271   9.822  3.3080 -0.6490  0.5492
  821MOL0     H10811   6.213   9.360  10.012  2.1960  0.0124  0.4085
  821MOL0     H10812   6.241   9.428   9.863 -0.9954 -0.7486 -1.2625
  821MOL0     H10813   6.147   9.135   9.892  1.2031  0.2962  0.5004
  821MOL0     H10814   6.209   9.199   9.744  1.0018 -1.9590  1.5036
  821MOL0     H10815   6.035   9.388   9.747  0.4976  0.1734 -0.4360
  821MOL0     H10816   5.968   9.304   9.896  2.2408 -0.5556  1.4071
  821MOL0     H10817   7.028   8.947   9.876  1.9763 -1.2770  0.1813
  821MOL0     H10818   7.249   8.897   9.962 -0.6368 -0.4702  0.0994
  821MOL0     H10819   7.585   9.100  10.298  1.6500  0.8893 -1.0234
  821MOL0     H10820   7.833   9.059  10.359 -0.8215  0.5178 -0.1913
  821MOL0     H10821   9.699   9.371  10.419  1.6526  0.1682  1.5655
  821MOL0     H10822   9.909   9.479  10.480  0.0438  1.6648  0.5793
  821MOL0     H10823  10.166   9.849  10.407  0.9463  1.7562  1.5838
  821MOL0     H10824  10.375   9.974  10.431 -1.6580 -0.0345 -0.0541
  821MOL0     H10825  10.723   9.817  10.548 -1.2424 -0.7151 -0.3129
  821MOL0     H10826  10.764   9.748  10.387 -1.6003 -0.2883  0.2302
  821MOL0     H10827  10.930   9.922  10.478 -0.3782 -2.2212  0.7022
  821MOL0     H10828  10.797  10.034  10.484 -0.4931 -1.4121  1.2365
  821MOL0     H10829  10.930  10.056  10.270  0.1277  0.3784 -1.7657
  821MOL0     H10830  10.764  10.021  10.242 -1.7794 -0.0821  3.2308
  821MOL0     H10831  10.915   9.899  10.077  2.5325  0.9531  0.2608
  821MOL0     H10832  10.836   9.773  10.180 -0.0224 -1.3266 -2.6535
  821MOL0     H10833  11.240   9.748  10.295 -0.3162 -3.2292 -1.6048
  821MOL0     H10834  10.603   9.618  10.407 -0.1334  0.3856 -0.9803
  821MOL0     H10835  10.382   9.484  10.368 -3.9086  0.1053 -1.9774
  822MOL0     O10836  10.312   6.440   7.695 -0.3099  0.2072  1.0819
  822MOL0     C10837  10.308   6.558   7.655  0.0270  0.4109  0.1905
  822MOL0     O10838  10.191   6.628   7.647  0.2958 -0.0958 -0.1721
  822MOL0     C10839  10.076   6.556   7.670 -0.0660 -0.6839 -0.2294
  822MOL0     C10840  10.031   6.519   7.793 -0.7690 -0.3737 -0.2875
  822MOL0     C10841   9.924   6.425   7.800  0.1104 -0.1214 -0.0955
  822MOL0     C10842   9.858   6.373   7.687  0.0645 -0.0936  0.2912
  822MOL0     O10843   9.762   6.277   7.685  0.1663 -0.0203 -0.2529
  822MOL0     C10844   9.729   6.217   7.811 -0.3456 -0.0640 -1.0958
  822MOL0     C10845   9.621   6.116   7.792  0.8482  0.0103  0.5301
  822MOL0     C10846   9.523   6.102   7.910  0.8555  0.3606  0.1003
  822MOL0     C10847   9.423   5.987   7.883  0.3420  0.1951 -0.3139
  822MOL0     C10848   9.303   5.981   7.974 -1.0222  0.3074 -0.4295
  822MOL0     C10849   9.336   5.919   8.107  0.6290  0.4742 -0.2879
  822MOL0     C10850   9.201   5.881   8.179  0.8063  0.1973  0.2991
  822MOL0     C10851   9.111   6.002   8.211  0.0148 -0.6140 -0.7581
  822MOL0     N10852   9.000   5.946   8.294  0.0797 -0.1223 -0.4495
  822MOL0     C10853   8.911   5.848   8.263  0.1581  0.0743  0.1377
  822MOL0     C10854   8.828   5.836   8.366 -0.7228  0.2750 -0.5157
  822MOL0     C10855   8.714   5.734   8.364 -0.0834 -0.1041  0.1564
  822MOL0     C10856   8.600   5.749   8.464 -0.0497  0.1971  0.4381
  822MOL0     C10857   8.487   5.640   8.458  0.8851  0.0362  0.1638
  822MOL0     C10858   8.362   5.694   8.532 -1.2203 -0.1502 -0.6542
  822MOL0     O10859   8.252   5.618   8.477  0.2827  0.0484  0.2841
  822MOL0     C10860   8.128   5.660   8.521  0.1182 -0.2602  0.9145
  822MOL0     C10861   8.013   5.613   8.451 -1.5163  0.0850 -0.1855
  822MOL0     C10862   7.883   5.643   8.497 -0.3013  0.0603  0.4020
  822MOL0     C10863   7.766   5.586   8.423 -0.4918 -1.0361 -0.6856
  822MOL0     C10864   7.865   5.722   8.618 -0.4155  0.0816 -0.0363
  822MOL0     C10865   7.731   5.757   8.687  0.6282 -0.1686 -0.0832
  822MOL0     O10866   7.727   5.811   8.810 -0.1588 -0.1614 -0.0965
  822MOL0     C10867   7.607   5.816   8.880 -1.6842 -0.6951 -0.0950
  822MOL0     C10868   7.527   5.930   8.876 -0.3465  0.0625  0.1866
  822MOL0     C10869   7.409   5.924   8.949  0.4964 -0.3814  0.3613
  822MOL0     C10870   7.360   5.809   9.013  0.1260 -0.2954  0.2677
  822MOL0     O10871   7.237   5.822   9.071  0.1915  0.0445 -0.2178
  822MOL0     C10872   7.232   5.777   9.206  0.3571  0.3808 -0.5821
  822MOL0     C10873   7.082   5.772   9.257  0.6137 -0.3490 -0.6811
  822MOL0     C10874   6.981   5.696   9.171  0.6244 -0.3481 -0.1638
  822MOL0     C10875   6.848   5.650   9.232  0.6010  0.4228 -0.5988
  822MOL0     C10876   6.764   5.581   9.139  0.0012  0.0239 -0.5587
  822MOL0     C10877   6.638   5.535   9.220 -0.4118  0.8301  0.1380
  822MOL0     C10878   6.566   5.428   9.147 -0.0529 -0.1239 -0.4139
  822MOL0     C10879   6.477   5.362   9.244  1.6162 -0.0337 -0.0468
  822MOL0    Cl10880   6.360   5.253   9.158 -0.2649 -0.2596  0.1700
  822MOL0     C10881   7.441   5.695   9.002 -0.3515 -0.4830  0.0182
  822MOL0     C10882   7.567   5.694   8.932  0.6122 -0.7278 -0.4980
  822MOL0     O10883   7.626   5.749   8.620  0.4470 -0.0882  0.1533
  822MOL0     C10884   7.978   5.779   8.679  0.0519  0.0815 -1.3117
  822MOL0     C10885   8.106   5.749   8.630 -0.0866  0.0054  1.0084
  822MOL0     N10886   8.872   5.919   8.467  0.5652  0.5557  0.1297
  822MOL0     N10887   8.978   5.978   8.425  0.0039 -0.2210 -0.2121
  822MOL0     C10888   9.896   6.424   7.566 -0.7685  0.0877 -0.0579
  822MOL0     C10889  10.003   6.519   7.559  0.4699 -0.3818 -0.5585
  822MOL0     C10890  10.440   6.616   7.607 -0.6134  0.8542  0.6657
  822MOL0     C10891  10.553   6.538   7.587  0.9459  0.4635  1.1044
  822MOL0     C10892  10.680   6.590   7.553 -0.0210  0.9152 -0.0726
  822MOL0     C10893  10.692   6.733   7.530  0.6208  1.1483 -0.5931
  822MOL0     O10894  10.808   6.777   7.493 -0.3689 -0.6573  0.1767
  822MOL0     C10895  10.838   6.919   7.496  0.3473 -0.0892 -0.9295
  822MOL0     C10896  10.989   6.920   7.496 -0.4326 -0.2121 -0.3445
  822MOL0     C10897  11.054   7.062   7.513  0.0949  0.2714 -0.4786
  822MOL0     C10898  11.204   7.046   7.526  0.0431  0.5465  0.0286
  822MOL0     C10899  11.263   7.037   7.661  0.7488  0.3888 -1.0331
  822MOL0     C10900  11.330   7.016   7.759  0.0018  0.7007 -0.1490
  822MOL0     C10901  10.577   6.814   7.543  0.9962 -0.2460 -0.8410
  822MOL0     C10902  10.452   6.756   7.582 -0.0497 -0.1680 -0.5833
  822MOL0     H10903  10.077   6.557   7.884 -3.4467  0.4893  0.8086
  822MOL0     H10904   9.900   6.394   7.901 -2.7112  4.3025  0.8969
  822MOL0     H10905   9.816   6.170   7.859  0.0331  1.5108 -0.1393
  822MOL0     H10906   9.688   6.284   7.887  2.1746  0.0482  0.2950
  822MOL0     H10907   9.558   6.139   7.705  0.0906  0.4378  1.1813
  822MOL0     H10908   9.670   6.021   7.766  0.9135 -0.0324  0.8062
  822MOL0     H10909   9.577   6.086   8.003  1.5463 -0.0244 -0.3568
  822MOL0     H10910   9.462   6.191   7.928 -0.1057 -0.2562 -0.0467
  822MOL0     H10911   9.384   5.990   7.781 -1.1578 -1.5884  0.1436
  822MOL0     H10912   9.476   5.891   7.881  1.8762  1.0135 -0.8387
  822MOL0     H10913   9.266   6.079   8.006  0.9356  0.8466  0.3569
  822MOL0     H10914   9.224   5.935   7.914 -0.7993 -1.7332  0.7381
  822MOL0     H10915   9.389   5.825   8.092 -0.5710  0.1266 -2.8228
  822MOL0     H10916   9.393   5.985   8.174  0.1048 -0.4287  1.0965
  822MOL0     H10917   9.145   5.821   8.107 -0.3439  0.2512  1.1088
  822MOL0     H10918   9.220   5.824   8.271 -0.1046 -2.0699 -0.8334
  822MOL0     H10919   9.075   6.048   8.118  1.2129  1.6764 -0.1615
  822MOL0     H10920   9.174   6.075   8.262 -2.7924  1.6989 -0.3124
  822MOL0     H10921   8.898   5.791   8.171  0.7266  2.2776 -1.3802
  822MOL0     H10922   8.672   5.730   8.263  2.2279 -0.0001 -0.8699
  822MOL0     H10923   8.749   5.631   8.377  0.9103  0.2995  0.7636
  822MOL0     H10924   8.554   5.846   8.443 -1.9934 -0.7628  0.0171
  822MOL0     H10925   8.639   5.742   8.566  1.1195  1.9902  0.1576
  822MOL0     H10926   8.520   5.549   8.508  2.8146  0.9007  0.5577
  822MOL0     H10927   8.466   5.619   8.352 -0.7670  1.0924  0.2505
  822MOL0     H10928   8.344   5.798   8.504 -0.3592  0.1068 -0.2682
  822MOL0     H10929   8.370   5.694   8.641 -2.8056 -1.4616 -0.4977
  822MOL0     H10930   8.025   5.534   8.377  0.1007  0.0355  0.0855
  822MOL0     H10931   7.695   5.662   8.390 -1.4210 -1.4317  0.3220
  822MOL0     H10932   7.799   5.526   8.338 -1.5379 -1.9958 -0.4342
  822MOL0     H10933   7.710   5.516   8.486 -0.6428 -0.0953  0.2568
  822MOL0     H10934   7.549   6.022   8.823  0.3269  0.5996  1.3759
  822MOL0     H10935   7.342   6.009   8.953 -0.1231 -0.8234 -0.3779
  822MOL0     H10936   7.272   5.676   9.216 -1.0335 -0.2953 -1.5354
  822MOL0     H10937   7.282   5.856   9.262 -0.9954  1.3762 -0.7221
  822MOL0     H10938   7.095   5.725   9.355 -0.8293 -3.1478 -1.7564
  822MOL0     H10939   7.034   5.869   9.273 -3.5795 -2.2724 -0.4217
  822MOL0     H10940   7.039   5.609   9.139  1.7854 -0.3072  1.6935
  822MOL0     H10941   6.961   5.770   9.093  2.8352 -1.8027 -2.2486
  822MOL0     H10942   6.883   5.582   9.311  1.6926  0.3079 -1.1603
  822MOL0     H10943   6.799   5.741   9.269  0.3528  1.1175 -2.5514
  822MOL0     H10944   6.814   5.491   9.101  1.7742 -0.5881  2.8724
  822MOL0     H10945   6.738   5.653   9.060  1.0902 -2.0051 -2.9344
  822MOL0     H10946   6.667   5.501   9.320 -0.4617  0.2703 -0.0336
  822MOL0     H10947   6.574   5.623   9.231 -0.4247  1.1899 -2.2914
  822MOL0     H10948   6.626   5.350   9.099  0.1294 -0.4377  0.3110
  822MOL0     H10949   6.510   5.479   9.068 -0.0776 -1.1446 -1.0834
  822MOL0     H10950   6.416   5.435   9.297  1.1481 -0.3850 -0.0917
  822MOL0     H10951   6.535   5.297   9.310  2.2969 -1.7428 -2.2099
  822MOL0     H10952   7.411   5.599   9.044 -0.1213 -1.4809 -1.9708
  822MOL0     H10953   7.626   5.603   8.936  1.2692 -0.2812  0.0783
  822MOL0     H10954   7.965   5.853   8.758 -0.5130 -1.8168  0.4639
  822MOL0     H10955   8.195   5.785   8.679  1.6432 -0.0056 -1.8732
  822MOL0     H10956   9.838   6.389   7.482  0.9519  2.3657 -2.3606
  822MOL0     H10957  10.032   6.573   7.469 -0.8582  2.5457  0.6161
  822MOL0     H10958  10.535   6.431   7.582 -2.6385  0.9296  1.5783
  822MOL0     H10959  10.764   6.526   7.531 -2.7408 -2.7745 -0.7657
  822MOL0     H10960  10.788   6.969   7.412 -0.0362  0.7437 -0.2151
  822MOL0     H10961  10.817   6.970   7.590  0.5365  0.2405 -1.0652
  822MOL0     H10962  11.023   6.877   7.401  2.7081  0.9795  0.0983
  822MOL0     H10963  11.016   6.862   7.585  2.1494 -0.1234 -0.9764
  822MOL0     H10964  11.009   7.106   7.603  0.4123 -0.6284  0.1314
  822MOL0     H10965  11.025   7.128   7.431  0.6003  2.2247  0.8238
  822MOL0     H10966  11.256   7.125   7.472  1.0813 -1.2415 -1.7514
  822MOL0     H10967  11.231   6.958   7.466 -0.3128  0.3284  0.1855
  822MOL0     H10968  11.415   6.995   7.821 -0.9886 -3.0701  0.1542
  822MOL0     H10969  10.593   6.921   7.535 -0.1390  0.0282  0.1363
  822MOL0     H10970  10.367   6.822   7.598  1.7846  1.8575  1.6271
  823MOL0     O10971   0.627   0.602   6.962 -0.5239  0.5107 -0.1510
  823MOL0     C10972   0.637   0.619   7.085 -0.5033  0.3610  0.3025
  823MOL0     O10973   0.533   0.609   7.170 -0.2969  0.1727 -0.1387
  823MOL0     C10974   0.407   0.579   7.115  0.2824  0.3667 -0.0094
  823MOL0     C10975   0.352   0.619   6.987 -0.8327  0.3733 -0.0324
  823MOL0     C10976   0.228   0.584   6.946 -0.2181 -0.4969 -0.3430
  823MOL0     C10977   0.144   0.507   7.021  0.0810 -0.5294  0.4179
  823MOL0     O10978   0.017   0.473   6.968 -1.1174  0.5547 -0.5007
  823MOL0     C10979  -0.056   0.369   7.035 -0.4062 -0.7999  0.1945
  823MOL0     C10980  -0.154   0.321   6.925 -0.0908  0.5012  0.4585
  823MOL0     C10981  -0.274   0.418   6.897  0.7545 -0.2140  0.1805
  823MOL0     C10982  -0.359   0.438   7.025  0.6188 -0.2082 -0.6763
  823MOL0     C10983  -0.479   0.539   7.005 -0.5214 -0.0225 -0.2959
  823MOL0     C10984  -0.583   0.559   7.125 -0.8785  0.0301 -0.4151
  823MOL0     C10985  -0.671   0.678   7.124  0.5493 -0.4833  0.5677
  823MOL0     C10986  -0.730   0.711   6.984 -0.6497 -0.4911  0.0612
  823MOL0     N10987  -0.808   0.608   6.912  0.1930  0.3700  0.9517
  823MOL0     C10988  -0.847   0.493   6.969  0.4346  0.3461  0.7556
  823MOL0     C10989  -0.892   0.413   6.873 -0.4189  0.0214  0.0567
  823MOL0     C10990  -0.961   0.286   6.897  0.5980  0.5255 -0.2236
  823MOL0     C10991  -1.088   0.271   6.817 -0.5931  0.8922  0.4785
  823MOL0     C10992  -1.185   0.378   6.851 -0.3694  0.1531 -0.4939
  823MOL0     C10993  -1.272   0.339   6.967  0.0030 -0.0614 -0.3532
  823MOL0     O10994  -1.365   0.235   6.927 -0.3100 -0.0339  0.1071
  823MOL0     C10995  -1.477   0.234   7.009  1.3798  0.4159  0.9835
  823MOL0     C10996  -1.487   0.125   7.088 -0.4294  0.0685  0.8300
  823MOL0     C10997  -1.584   0.117   7.182 -0.2463 -0.1591  0.1972
  823MOL0     C10998  -1.575  -0.002   7.282  0.4179  0.5371 -0.6497
  823MOL0     C10999  -1.687   0.213   7.186 -0.8462 -0.3502 -0.0190
  823MOL0     C11000  -1.794   0.206   7.284 -0.0577 -0.5459 -0.5048
  823MOL0     O11001  -1.867   0.316   7.309 -0.1300  0.2052  0.3582
  823MOL0     C11002  -1.997   0.315   7.362  0.2786  0.1768  0.5064
  823MOL0     C11003  -2.063   0.211   7.436 -0.1663 -1.1974 -0.4215
  823MOL0     C11004  -2.199   0.234   7.479 -0.6959 -0.8332 -0.6190
  823MOL0     C11005  -2.270   0.348   7.424 -0.1456 -0.4699 -0.0638
  823MOL0     O11006  -2.399   0.372   7.450  0.6306 -0.3453  0.0189
  823MOL0     C11007  -2.465   0.287   7.552  0.5470  0.3844 -0.0928
  823MOL0     C11008  -2.610   0.330   7.559 -0.5677  0.1945  1.1267
  823MOL0     C11009  -2.700   0.248   7.646  0.8750 -0.5514 -0.6586
  823MOL0     C11010  -2.853   0.300   7.646 -0.3328  0.5881  0.1005
  823MOL0     C11011  -2.917   0.302   7.505 -0.7093  1.0982  0.3425
  823MOL0     C11012  -3.052   0.231   7.504 -0.1866 -0.5059 -1.3087
  823MOL0     C11013  -3.133   0.283   7.384 -0.1819 -0.3242  0.1221
  823MOL0     C11014  -3.281   0.252   7.392  0.7979 -0.1519 -0.3091
  823MOL0    Cl11015  -3.382   0.387   7.455 -0.4095  0.2109  0.2644
  823MOL0     C11016  -2.204   0.445   7.349  0.0012  0.2852 -0.2006
  823MOL0     C11017  -2.066   0.427   7.316 -0.2583 -0.7187  0.3379
  823MOL0     O11018  -1.826   0.096   7.330 -0.6830  0.0917  0.3845
  823MOL0     C11019  -1.673   0.325   7.092  0.4029 -0.1059 -0.5567
  823MOL0     C11020  -1.563   0.339   7.012  0.2401 -0.0669  0.9970
  823MOL0     N11021  -0.873   0.474   6.747 -0.1782 -1.2151 -0.1043
  823MOL0     N11022  -0.814   0.585   6.777 -0.6421  0.3983  0.9424
  823MOL0     C11023   0.188   0.464   7.152 -0.1638  0.6231  0.2835
  823MOL0     C11024   0.322   0.498   7.191  0.1596 -0.4845  0.0545
  823MOL0     C11025   0.764   0.638   7.155  0.5297 -0.0671  0.3540
  823MOL0     C11026   0.883   0.595   7.090  0.4384 -0.3022 -0.8361
  823MOL0     C11027   1.007   0.606   7.158  0.8420 -0.7854  0.2713
  823MOL0     C11028   1.018   0.680   7.278  0.0919  0.1601 -0.5221
  823MOL0     O11029   1.150   0.702   7.313 -0.0397  0.1526 -0.3296
  823MOL0     C11030   1.187   0.738   7.442  0.1734 -0.4778 -0.0362
  823MOL0     C11031   1.326   0.681   7.464  0.2528 -0.5946 -0.0194
  823MOL0     C11032   1.363   0.730   7.599 -0.6937 -0.0715 -0.2731
  823MOL0     C11033   1.502   0.663   7.630  0.4761  0.6129  1.1605
  823MOL0     C11034   1.514   0.657   7.772  0.6261 -0.2471  0.4486
  823MOL0     C11035   1.536   0.652   7.894 -0.7041  0.3920  0.6841
  823MOL0     C11036   0.899   0.728   7.335 -0.1364  0.9783 -0.4232
  823MOL0     C11037   0.772   0.700   7.280 -0.6318 -0.1804  0.4331
  823MOL0     H11038   0.400   0.684   6.914  0.2110  0.0926  0.3894
  823MOL0     H11039   0.192   0.628   6.853 -0.9373  4.2270  1.8826
  823MOL0     H11040   0.017   0.289   7.050  1.2122  0.0806 -2.4065
  823MOL0     H11041  -0.097   0.399   7.132 -1.4352 -0.1157 -0.4376
  823MOL0     H11042  -0.106   0.303   6.829 -1.0673 -3.3569  0.5235
  823MOL0     H11043  -0.178   0.217   6.953  0.3344 -0.0416 -1.0713
  823MOL0     H11044  -0.234   0.513   6.861 -1.9758  0.8223 -0.3220
  823MOL0     H11045  -0.338   0.381   6.816 -1.5269  0.6155  1.5056
  823MOL0     H11046  -0.406   0.342   7.047 -0.6904  0.4968 -0.3146
  823MOL0     H11047  -0.298   0.461   7.112 -2.5584 -4.5265  3.1691
  823MOL0     H11048  -0.424   0.633   6.998  0.8771 -0.8259 -0.5839
  823MOL0     H11049  -0.528   0.523   6.909  2.1311 -0.6490 -1.6658
  823MOL0     H11050  -0.637   0.464   7.126 -1.4843  0.3633  0.6299
  823MOL0     H11051  -0.532   0.570   7.221 -2.9530  0.6688  0.6833
  823MOL0     H11052  -0.750   0.663   7.199 -0.9516 -1.6385 -1.1648
  823MOL0     H11053  -0.611   0.766   7.151  0.2444 -0.1612  0.1956
  823MOL0     H11054  -0.645   0.741   6.923  0.5719 -1.8209  1.0529
  823MOL0     H11055  -0.795   0.797   7.004  0.4165 -0.1907  2.6010
  823MOL0     H11056  -0.852   0.479   7.076 -1.6550 -1.2570  0.5163
  823MOL0     H11057  -0.887   0.209   6.873  0.1322  0.3471 -1.1227
  823MOL0     H11058  -0.983   0.277   7.004  0.6078 -2.7578 -0.3869
  823MOL0     H11059  -1.134   0.174   6.835 -1.2383  1.1850  0.4641
  823MOL0     H11060  -1.062   0.273   6.711  3.1261  1.4481  1.2741
  823MOL0     H11061  -1.247   0.387   6.762  3.5492  1.1621 -3.4090
  823MOL0     H11062  -1.137   0.476   6.859 -0.3333  0.3092 -2.2129
  823MOL0     H11063  -1.306   0.437   7.000 -0.0104 -0.0810 -0.3098
  823MOL0     H11064  -1.216   0.299   7.052  1.2238  1.1821 -0.5319
  823MOL0     H11065  -1.419   0.041   7.083  0.6986  0.9965 -0.1157
  823MOL0     H11066  -1.655  -0.070   7.253 -0.4864  2.1317 -2.0556
  823MOL0     H11067  -1.477  -0.050   7.278  1.4312  2.1737  1.6623
  823MOL0     H11068  -1.582   0.027   7.388  1.9866 -2.0391  0.2587
  823MOL0     H11069  -2.011   0.123   7.471 -2.5649 -2.6128 -0.1500
  823MOL0     H11070  -2.259   0.171   7.543  0.7173 -1.2209  0.3812
  823MOL0     H11071  -2.461   0.183   7.518 -1.3761  1.1801 -3.0677
  823MOL0     H11072  -2.414   0.294   7.649  3.0011  1.5192 -1.4019
  823MOL0     H11073  -2.613   0.427   7.610  2.9912  0.2019  1.5806
  823MOL0     H11074  -2.647   0.332   7.456 -0.9805  0.6685  1.2794
  823MOL0     H11075  -2.671   0.251   7.751  1.9207 -2.8787 -0.8264
  823MOL0     H11076  -2.703   0.142   7.620  0.5608 -1.4498  2.6204
  823MOL0     H11077  -2.909   0.226   7.705  0.5945 -1.1865 -1.1389
  823MOL0     H11078  -2.863   0.397   7.694  0.0558  0.4981  0.3640
  823MOL0     H11079  -2.854   0.266   7.424 -1.8648  0.1818 -0.1789
  823MOL0     H11080  -2.929   0.409   7.486  2.2333  1.8669  2.1625
  823MOL0     H11081  -3.056   0.122   7.494 -1.9825 -0.4096 -2.1071
  823MOL0     H11082  -3.103   0.255   7.597  1.3412  1.1370 -0.8380
  823MOL0     H11083  -3.090   0.230   7.299  1.2546  1.7293 -0.4921
  823MOL0     H11084  -3.114   0.389   7.366 -0.6947 -0.1501  0.5641
  823MOL0     H11085  -3.307   0.163   7.450  1.5667  1.5554  2.8677
  823MOL0     H11086  -3.319   0.222   7.294  1.3778 -5.3442  0.7457
  823MOL0     H11087  -2.264   0.521   7.300 -1.8000 -1.2411 -0.4824
  823MOL0     H11088  -2.001   0.487   7.254 -2.6836  0.9859 -0.7070
  823MOL0     H11089  -1.739   0.411   7.091  1.4444  0.8788  2.5530
  823MOL0     H11090  -1.533   0.422   6.950 -1.9925 -0.7537 -1.1375
  823MOL0     H11091   0.124   0.410   7.221  0.3729 -1.9588 -1.0817
  823MOL0     H11092   0.351   0.476   7.293 -0.4256 -2.9512 -0.2392
  823MOL0     H11093   0.885   0.546   6.993 -0.8336  0.4881 -1.2729
  823MOL0     H11094   1.100   0.566   7.118  1.1280 -0.0103  0.1502
  823MOL0     H11095   1.197   0.847   7.435 -2.1442 -0.2120  0.0456
  823MOL0     H11096   1.113   0.711   7.518 -0.1924 -2.0819 -0.9276
  823MOL0     H11097   1.402   0.720   7.396 -1.2417  1.2230 -0.7170
  823MOL0     H11098   1.323   0.571   7.467 -1.1235 -0.5533  1.0223
  823MOL0     H11099   1.290   0.698   7.674  0.5676 -2.1862  0.1331
  823MOL0     H11100   1.378   0.838   7.604  2.2164 -0.2926 -1.9090
  823MOL0     H11101   1.589   0.721   7.597  0.4763  0.0241  0.0816
  823MOL0     H11102   1.513   0.564   7.585  0.1878  1.0838  0.0066
  823MOL0     H11103   1.549   0.647   8.000  0.5211  0.2966  0.5502
  823MOL0     H11104   0.898   0.784   7.428  0.4401  0.0943  0.1272
  823MOL0     H11105   0.681   0.738   7.326 -1.3970 -3.4174  1.8846
  824MOL0     O11106   0.444   6.342   4.355 -0.0483 -0.0331  0.0409
  824MOL0     C11107   0.536   6.269   4.401  0.0710 -0.0603  0.7253
  824MOL0     O11108   0.527   6.200   4.518  0.0674  0.1411 -0.6809
  824MOL0     C11109   0.408   6.204   4.588 -0.3400  0.0588  0.5149
  824MOL0     C11110   0.423   6.166   4.714 -0.3056  0.9208  0.4007
  824MOL0     C11111   0.312   6.158   4.806 -0.2471 -0.1890  0.3521
  824MOL0     C11112   0.190   6.204   4.764  0.5781  0.0043  0.4254
  824MOL0     O11113   0.076   6.212   4.845 -0.1801  0.1782  0.3562
  824MOL0     C11114   0.100   6.189   4.978 -0.2617 -1.0981  1.0388
  824MOL0     C11115  -0.029   6.225   5.055  0.1658  0.0809 -0.3226
  824MOL0     C11116  -0.146   6.130   5.038  0.4154 -0.5845  0.2561
  824MOL0     C11117  -0.246   6.148   5.153 -1.1296  0.2519 -0.0094
  824MOL0     C11118  -0.368   6.050   5.144 -0.1163  0.2896 -0.3357
  824MOL0     C11119  -0.344   5.913   5.202  0.1094  0.3298  0.2444
  824MOL0     C11120  -0.468   5.843   5.243  0.7207 -0.7841  0.1696
  824MOL0     C11121  -0.538   5.783   5.126 -0.3335  0.5604 -0.2953
  824MOL0     N11122  -0.660   5.716   5.156  0.2253  0.6669  0.6492
  824MOL0     C11123  -0.670   5.598   5.223 -0.3709  0.3066 -0.1407
  824MOL0     C11124  -0.790   5.551   5.187 -0.5487  0.1013 -0.4581
  824MOL0     C11125  -0.834   5.410   5.222  0.8638 -0.7637 -1.3084
  824MOL0     C11126  -0.985   5.382   5.209 -0.3296 -0.3640 -0.3006
  824MOL0     C11127  -1.063   5.461   5.313  0.0735 -0.8534  0.1583
  824MOL0     C11128  -1.190   5.524   5.253 -0.3704  0.1558  0.6181
  824MOL0     O11129  -1.265   5.418   5.190  0.2512  0.0153  0.5877
  824MOL0     C11130  -1.381   5.446   5.131  1.0726 -0.2380  0.2041
  824MOL0     C11131  -1.416   5.580   5.092 -0.7410  0.9325 -0.8167
  824MOL0     C11132  -1.543   5.605   5.038  0.1522  0.0965 -0.3404
  824MOL0     C11133  -1.573   5.744   4.996  0.0655  0.4170  0.7564
  824MOL0     C11134  -1.641   5.505   5.027  0.2423  0.0142 -0.4917
  824MOL0     C11135  -1.767   5.537   4.975 -0.5835  0.4827  0.4208
  824MOL0     O11136  -1.790   5.487   4.850 -0.2662  0.0301 -0.8705
  824MOL0     C11137  -1.913   5.515   4.798  0.3286  0.1983  0.2429
  824MOL0     C11138  -2.019   5.428   4.821 -0.3640 -0.6817  0.0783
  824MOL0     C11139  -2.147   5.452   4.764  0.4322  0.1283  0.0921
  824MOL0     C11140  -2.162   5.557   4.675  0.5777  0.0074  0.5259
  824MOL0     O11141  -2.276   5.583   4.607  0.6609  0.6169 -0.1742
  824MOL0     C11142  -2.407   5.574   4.666  0.4494 -0.5494 -0.7407
  824MOL0     C11143  -2.523   5.581   4.573  0.4443  0.4202  0.5719
  824MOL0     C11144  -2.540   5.444   4.496 -0.5545 -0.8042 -0.1384
  824MOL0     C11145  -2.648   5.468   4.392  0.5097  0.4019  0.9051
  824MOL0     C11146  -2.657   5.342   4.299  0.3285 -0.4315  0.6733
  824MOL0     C11147  -2.757   5.358   4.200 -0.0337  0.1659 -0.0681
  824MOL0     C11148  -2.744   5.255   4.087 -0.0813  1.0219 -0.0600
  824MOL0     C11149  -2.870   5.248   4.003 -0.0465 -0.1990 -1.1974
  824MOL0    Cl11150  -3.025   5.224   4.083 -0.2495  0.5377  0.1100
  824MOL0     C11151  -2.058   5.645   4.658  0.0576  0.3702 -0.6843
  824MOL0     C11152  -1.936   5.629   4.721  0.1920 -0.3296  0.0958
  824MOL0     O11153  -1.842   5.609   5.036 -0.1513  0.3694 -0.1738
  824MOL0     C11154  -1.594   5.375   5.059  0.5661  0.0624 -0.7671
  824MOL0     C11155  -1.474   5.347   5.121  0.7860 -0.1202  0.5792
  824MOL0     N11156  -0.856   5.646   5.111  0.4510 -0.9236 -0.4471
  824MOL0     N11157  -0.776   5.743   5.096 -0.1365 -0.8847  0.8591
  824MOL0     C11158   0.167   6.223   4.625  0.9701  0.4313 -0.0318
  824MOL0     C11159   0.279   6.216   4.535  0.8829 -0.1776 -0.1968
  824MOL0     C11160   0.661   6.268   4.333 -0.1999 -0.3903  0.5055
  824MOL0     C11161   0.696   6.361   4.234 -0.1244 -0.0706 -0.3640
  824MOL0     C11162   0.828   6.372   4.184  0.0781  0.7730  0.8463
  824MOL0     C11163   0.925   6.284   4.233 -0.4750 -0.5800  0.3613
  824MOL0     O11164   1.053   6.292   4.191 -0.1999 -0.3805 -0.0267
  824MOL0     C11165   1.084   6.198   4.089 -1.0084  0.4236  0.0389
  824MOL0     C11166   1.209   6.252   4.015  0.5078  0.5515  0.7459
  824MOL0     C11167   1.327   6.264   4.111 -0.0834 -0.6726 -0.5908
  824MOL0     C11168   1.463   6.257   4.025 -0.6083  0.0219  0.4975
  824MOL0     C11169   1.581   6.323   4.084 -0.3303  0.3384 -0.5386
  824MOL0     C11170   1.678   6.382   4.138  0.3391  0.0345  0.3018
  824MOL0     C11171   0.884   6.182   4.320 -0.6719  0.2504  1.0352
  824MOL0     C11172   0.760   6.173   4.372 -0.4126  0.4554  0.4431
  824MOL0     H11173   0.523   6.136   4.743  0.7734  2.0337 -1.9269
  824MOL0     H11174   0.346   6.137   4.907  2.7274  1.2265 -0.2409
  824MOL0     H11175   0.119   6.081   4.985 -1.1827 -1.2988  0.6939
  824MOL0     H11176   0.174   6.261   5.013 -0.3775 -0.3046 -0.2619
  824MOL0     H11177  -0.006   6.220   5.162  2.6651  0.8257 -0.7655
  824MOL0     H11178  -0.063   6.325   5.027 -0.4154 -0.2724 -0.9218
  824MOL0     H11179  -0.196   6.146   4.942 -0.8832  3.0647  1.3711
  824MOL0     H11180  -0.100   6.031   5.041  2.2694  0.2531  2.7577
  824MOL0     H11181  -0.212   6.144   5.257 -2.4637 -2.1789  0.4005
  824MOL0     H11182  -0.273   6.254   5.150  0.0832  0.5771 -0.0097
  824MOL0     H11183  -0.440   6.078   5.222  2.1558 -4.0431  3.9123
  824MOL0     H11184  -0.407   6.040   5.043 -1.4713  0.3447  0.1662
  824MOL0     H11185  -0.285   5.854   5.131 -1.4380 -0.4347 -0.4590
  824MOL0     H11186  -0.280   5.929   5.290  1.7928  1.8657 -1.1766
  824MOL0     H11187  -0.427   5.767   5.310 -0.7846 -1.2369  0.6221
  824MOL0     H11188  -0.540   5.904   5.298  0.6055 -0.9043  0.1519
  824MOL0     H11189  -0.469   5.712   5.082 -1.1046 -1.2559  1.2623
  824MOL0     H11190  -0.549   5.856   5.045 -1.6325 -0.6969 -1.3048
  824MOL0     H11191  -0.589   5.533   5.256 -1.0096 -0.6557 -0.4297
  824MOL0     H11192  -0.797   5.339   5.147  1.8669  1.5091 -3.0857
  824MOL0     H11193  -0.794   5.380   5.319 -0.4044 -0.9144 -0.8127
  824MOL0     H11194  -1.003   5.276   5.227  2.5634 -0.3555  4.1398
  824MOL0     H11195  -1.011   5.403   5.104 -0.9502 -0.6268 -0.2018
  824MOL0     H11196  -0.999   5.540   5.354  1.2448 -0.3143 -2.5234
  824MOL0     H11197  -1.099   5.394   5.392 -0.9537 -2.0831 -1.2884
  824MOL0     H11198  -1.157   5.594   5.175  1.3620  0.3181  1.4408
  824MOL0     H11199  -1.248   5.566   5.336  0.5366 -1.6085  2.2322
  824MOL0     H11200  -1.342   5.659   5.089  0.5198 -0.1021  1.0341
  824MOL0     H11201  -1.485   5.809   4.990 -2.3410  3.9221  0.8601
  824MOL0     H11202  -1.614   5.743   4.894 -0.6466 -2.4482  0.9771
  824MOL0     H11203  -1.633   5.787   5.076 -1.8544 -0.8139  0.0618
  824MOL0     H11204  -2.011   5.340   4.884  0.2982 -0.7971 -0.1622
  824MOL0     H11205  -2.223   5.376   4.779 -0.3638  0.6209 -1.2112
  824MOL0     H11206  -2.405   5.484   4.729 -0.1559 -1.1437 -1.5545
  824MOL0     H11207  -2.410   5.657   4.737 -0.8062 -0.3649 -0.9951
  824MOL0     H11208  -2.607   5.579   4.643  0.9325 -2.0464  1.2175
  824MOL0     H11209  -2.533   5.663   4.502  0.4414 -2.0958 -2.5804
  824MOL0     H11210  -2.566   5.364   4.566 -1.8402 -0.3077 -0.0195
  824MOL0     H11211  -2.442   5.429   4.451 -0.2133  2.6112 -0.8206
  824MOL0     H11212  -2.743   5.492   4.440  0.5338  1.3556  0.4925
  824MOL0     H11213  -2.611   5.555   4.336 -1.9231  1.4930  0.8744
  824MOL0     H11214  -2.678   5.253   4.360  0.8034 -1.0983 -0.1068
  824MOL0     H11215  -2.562   5.333   4.246  1.0033 -1.4660  1.9929
  824MOL0     H11216  -2.858   5.357   4.242 -0.5495  0.5318 -1.2515
  824MOL0     H11217  -2.742   5.452   4.146  1.8157 -0.7355 -1.2073
  824MOL0     H11218  -2.727   5.160   4.139  0.8491 -0.6614 -3.2190
  824MOL0     H11219  -2.668   5.264   4.009 -1.9722 -0.8177 -2.2314
  824MOL0     H11220  -2.858   5.156   3.945  1.7335 -0.4128 -0.5708
  824MOL0     H11221  -2.861   5.334   3.937  1.9301  1.0164  0.5186
  824MOL0     H11222  -2.070   5.728   4.589 -1.0121 -0.8003 -1.9663
  824MOL0     H11223  -1.851   5.696   4.712  3.5208 -3.9978  1.4352
  824MOL0     H11224  -1.657   5.286   5.054 -0.0678  0.3589  1.1219
  824MOL0     H11225  -1.459   5.249   5.166  0.6469  0.1296  1.1715
  824MOL0     H11226   0.071   6.253   4.586 -0.1659 -0.1146  2.1558
  824MOL0     H11227   0.251   6.230   4.431 -2.2601  0.5933  0.6380
  824MOL0     H11228   0.618   6.429   4.202 -1.0180 -0.0992  1.6544
  824MOL0     H11229   0.854   6.445   4.109  1.3496 -3.1206 -2.9090
  824MOL0     H11230   1.095   6.093   4.116 -2.0529 -0.0126 -1.1408
  824MOL0     H11231   1.007   6.194   4.011 -0.0524  2.5538 -1.1131
  824MOL0     H11232   1.187   6.349   3.969 -0.1425 -0.0999 -0.3659
  824MOL0     H11233   1.240   6.191   3.930  0.8579  1.8824 -0.1004
  824MOL0     H11234   1.322   6.173   4.172  1.3538 -2.4946 -2.9801
  824MOL0     H11235   1.312   6.349   4.178 -0.7222 -2.3480  1.5012
  824MOL0     H11236   1.453   6.294   3.922 -0.1439 -2.6865 -0.6242
  824MOL0     H11237   1.482   6.152   4.000 -0.0918  0.5940 -1.8229
  824MOL0     H11238   1.753   6.447   4.179 -0.1516  1.5804 -1.1297
  824MOL0     H11239   0.956   6.102   4.337  3.6258  2.9045 -2.3940
  824MOL0     H11240   0.739   6.090   4.439  0.3158 -0.9419 -1.0072
  825MOL0     O11241   6.846   1.100   3.832  0.2013  1.1059 -1.1361
  825MOL0     C11242   6.922   1.162   3.767  0.3622 -0.6717 -0.4694
  825MOL0     O11243   6.896   1.212   3.643 -0.6326 -0.2666  0.3026
  825MOL0     C11244   6.771   1.224   3.597 -0.0792  0.4305 -0.2947
  825MOL0     C11245   6.671   1.280   3.676  0.9227 -0.3176 -0.5943
  825MOL0     C11246   6.540   1.294   3.618 -0.3391 -0.0900 -0.6826
  825MOL0     C11247   6.516   1.250   3.496  0.1298  0.5116  0.4378
  825MOL0     O11248   6.391   1.259   3.441  0.8236 -0.8216 -0.2055
  825MOL0     C11249   6.346   1.143   3.367 -0.2640  0.8486  0.8308
  825MOL0     C11250   6.194   1.136   3.350 -0.2662  0.3415  0.1255
  825MOL0     C11251   6.116   1.164   3.473 -0.3825 -0.2828  1.6544
  825MOL0     C11252   5.971   1.105   3.466 -0.0370 -0.3726 -0.5877
  825MOL0     C11253   5.908   1.119   3.606 -0.0386 -0.1524  0.1991
  825MOL0     C11254   5.779   1.034   3.621 -0.3120  0.1835  0.3977
  825MOL0     C11255   5.723   1.060   3.762  0.0199 -0.0663 -0.3635
  825MOL0     C11256   5.593   0.983   3.787 -0.0265  0.1036 -0.3459
  825MOL0     N11257   5.471   1.043   3.738 -1.0840 -0.2088  1.1841
  825MOL0     C11258   5.421   1.160   3.792  0.0066  0.4287 -0.1637
  825MOL0     C11259   5.336   1.213   3.691 -0.2595  0.9842 -0.3075
  825MOL0     C11260   5.260   1.343   3.685  0.1120  0.0641 -0.2787
  825MOL0     C11261   5.356   1.460   3.713 -0.2572  0.4911  0.4019
  825MOL0     C11262   5.307   1.593   3.651  0.1575 -0.0519  0.4747
  825MOL0     C11263   5.172   1.639   3.709 -0.3965 -0.1223 -0.1028
  825MOL0     O11264   5.073   1.598   3.607 -0.2217 -0.5477  0.3541
  825MOL0     C11265   4.938   1.596   3.641  0.7663  0.1562  0.0898
  825MOL0     C11266   4.883   1.669   3.748 -0.0609  0.8929  0.0574
  825MOL0     C11267   4.747   1.655   3.791  0.2265  0.9225  0.9469
  825MOL0     C11268   4.696   1.752   3.893 -0.2874  0.1053  0.1135
  825MOL0     C11269   4.661   1.596   3.695  0.0533 -0.2024 -0.9158
  825MOL0     C11270   4.515   1.605   3.705 -0.6908 -0.7549  0.0906
  825MOL0     O11271   4.459   1.614   3.586 -0.5429 -0.8171  0.6127
  825MOL0     C11272   4.328   1.621   3.586  0.3848 -0.2687 -0.7543
  825MOL0     C11273   4.267   1.740   3.605  0.7587  0.1023 -0.9322
  825MOL0     C11274   4.129   1.751   3.630 -1.3097  0.0318  0.3101
  825MOL0     C11275   4.050   1.635   3.630  0.1957 -0.2485  0.0144
  825MOL0     O11276   3.918   1.628   3.670  0.2536  0.3394  0.0390
  825MOL0     C11277   3.854   1.753   3.729 -0.0459  1.1789 -0.9017
  825MOL0     C11278   3.813   1.865   3.628  0.1088  0.5014  0.3438
  825MOL0     C11279   3.785   1.812   3.484 -0.5667 -0.1475 -0.6154
  825MOL0     C11280   3.800   1.920   3.382  0.8932 -0.4160  0.0007
  825MOL0     C11281   3.944   1.942   3.338 -0.7698 -0.5088 -0.1251
  825MOL0     C11282   4.020   2.062   3.418 -0.5734  0.0750  0.8107
  825MOL0     C11283   4.139   2.108   3.339 -0.2989 -0.6337 -0.1158
  825MOL0     C11284   4.224   2.219   3.416  0.0890  0.1934 -0.3851
  825MOL0    Cl11285   4.120   2.368   3.439 -0.2221 -0.1126 -0.0272
  825MOL0     C11286   4.114   1.512   3.604  0.4362  0.2965 -0.9230
  825MOL0     C11287   4.248   1.501   3.581 -0.1382  0.3845  0.1160
  825MOL0     O11288   4.452   1.596   3.811  0.2326  0.5826 -0.2289
  825MOL0     C11289   4.714   1.523   3.588 -0.1591  0.4691 -0.5583
  825MOL0     C11290   4.851   1.520   3.564 -0.2809 -0.1729  0.5726
  825MOL0     N11291   5.340   1.114   3.592 -0.0003  0.5984  0.9340
  825MOL0     N11292   5.413   1.012   3.616 -0.3028 -0.0809 -1.0500
  825MOL0     C11293   6.619   1.211   3.416 -0.0583 -0.1752 -1.4692
  825MOL0     C11294   6.746   1.191   3.464 -0.8926  0.1866 -0.5569
  825MOL0     C11295   7.061   1.164   3.809 -0.7422 -0.0832 -0.0828
  825MOL0     C11296   7.095   1.156   3.942  0.5431  0.6335  0.1145
  825MOL0     C11297   7.224   1.164   3.984 -1.1012  0.2902 -0.0327
  825MOL0     C11298   7.327   1.194   3.885  0.0352 -0.5904 -0.0917
  825MOL0     O11299   7.459   1.201   3.927  0.0742 -0.8529  0.0701
  825MOL0     C11300   7.506   1.139   4.042  0.4766  0.8248  0.2259
  825MOL0     C11301   7.509   0.980   4.031 -0.5522 -0.4727 -0.1311
  825MOL0     C11302   7.613   0.921   3.935 -0.5481 -0.7683 -0.3464
  825MOL0     C11303   7.753   0.909   3.996 -0.4156 -0.5240 -1.0626
  825MOL0     C11304   7.845   1.012   3.941  1.0746 -0.6987 -0.6120
  825MOL0     C11305   7.923   1.094   3.894 -0.1333  0.4424 -0.0327
  825MOL0     C11306   7.297   1.210   3.753  0.5896 -0.4189  0.5157
  825MOL0     C11307   7.160   1.193   3.713  0.0070 -0.4459  0.1058
  825MOL0     H11308   6.680   1.308   3.781  0.1325  0.9266 -0.8366
  825MOL0     H11309   6.462   1.333   3.683  1.0268  0.5444  0.6282
  825MOL0     H11310   6.389   1.146   3.267 -3.1989  0.1455 -0.5366
  825MOL0     H11311   6.378   1.051   3.418  1.2442  0.4344 -0.7702
  825MOL0     H11312   6.162   1.193   3.262  0.7944  0.8673  0.0594
  825MOL0     H11313   6.181   1.032   3.318  0.5943  0.1947  0.2241
  825MOL0     H11314   6.170   1.116   3.554  0.0782 -0.1236  1.4449
  825MOL0     H11315   6.116   1.273   3.484  2.0710  0.1503 -1.3419
  825MOL0     H11316   5.920   1.167   3.391  0.4575 -1.8377 -2.2307
  825MOL0     H11317   5.971   0.998   3.442  2.6172 -0.1762 -1.8487
  825MOL0     H11318   5.979   1.073   3.675 -2.8400 -2.2945  1.9356
  825MOL0     H11319   5.892   1.222   3.637  2.1917  0.7165 -1.2969
  825MOL0     H11320   5.702   1.065   3.549 -0.0474 -0.4766 -0.1820
  825MOL0     H11321   5.785   0.926   3.607 -0.8447 -0.0582  1.8736
  825MOL0     H11322   5.789   1.012   3.836 -1.5109 -0.8716  0.5191
  825MOL0     H11323   5.725   1.167   3.786 -0.5633 -0.3051  0.8485
  825MOL0     H11324   5.574   0.962   3.893 -1.7609  0.9201 -0.4604
  825MOL0     H11325   5.601   0.889   3.732  2.8316  0.2938 -0.4154
  825MOL0     H11326   5.451   1.219   3.879  1.1181  1.2755 -1.0860
  825MOL0     H11327   5.213   1.352   3.587  0.0467 -3.2902 -0.6630
  825MOL0     H11328   5.173   1.342   3.753  0.8256  0.0265  0.6606
  825MOL0     H11329   5.448   1.446   3.655 -1.5904  2.6230 -2.4183
  825MOL0     H11330   5.369   1.470   3.821  4.3070  1.4519 -0.0428
  825MOL0     H11331   5.305   1.580   3.543 -2.1005 -1.7897  0.6646
  825MOL0     H11332   5.377   1.673   3.679 -0.8475  0.0632  2.9516
  825MOL0     H11333   5.183   1.747   3.711  0.4517 -0.2072  1.9350
  825MOL0     H11334   5.153   1.606   3.811 -1.5132 -1.2573 -0.6391
  825MOL0     H11335   4.934   1.743   3.809  1.5184 -0.7975  0.8970
  825MOL0     H11336   4.635   1.700   3.968 -0.2946 -1.5369 -0.9926
  825MOL0     H11337   4.780   1.805   3.939 -1.0075  2.2744 -0.9484
  825MOL0     H11338   4.633   1.828   3.846  1.0525  0.9841 -0.3082
  825MOL0     H11339   4.323   1.833   3.608 -0.3730  0.9016 -2.6388
  825MOL0     H11340   4.087   1.848   3.652  2.8784  2.3831 -0.9930
  825MOL0     H11341   3.772   1.726   3.797  1.6443  0.5756  1.0060
  825MOL0     H11342   3.930   1.801   3.793 -0.4439 -1.2430  1.5575
  825MOL0     H11343   3.726   1.921   3.663 -2.2446 -1.0398 -2.7026
  825MOL0     H11344   3.900   1.933   3.626  1.6631 -1.2596  2.4428
  825MOL0     H11345   3.684   1.771   3.483 -1.9828  2.1887  4.9003
  825MOL0     H11346   3.848   1.724   3.464  1.1074  0.7133  0.6262
  825MOL0     H11347   3.745   1.884   3.295 -1.4910  0.9335  0.8578
  825MOL0     H11348   3.742   2.004   3.421 -0.3301 -1.6072  0.8259
  825MOL0     H11349   3.951   1.980   3.235  1.6376 -1.4978 -0.3998
  825MOL0     H11350   4.006   1.852   3.341  0.6425  0.4666  1.3911
  825MOL0     H11351   3.952   2.146   3.430 -0.2480 -0.0038  3.7339
  825MOL0     H11352   4.041   2.031   3.520  0.0330 -1.2921  0.2922
  825MOL0     H11353   4.103   2.154   3.246 -1.5520  1.1808  1.1819
  825MOL0     H11354   4.198   2.018   3.321 -0.9139 -0.9912 -0.3575
  825MOL0     H11355   4.301   2.240   3.342  0.7465  0.5552  0.3852
  825MOL0     H11356   4.268   2.188   3.511 -3.1445  1.5852  1.7608
  825MOL0     H11357   4.048   1.427   3.618 -0.3308  1.2341  1.8738
  825MOL0     H11358   4.297   1.407   3.557 -0.2712  0.6590 -1.3271
  825MOL0     H11359   4.647   1.469   3.522  0.3798  0.6402 -1.2628
  825MOL0     H11360   4.898   1.462   3.485  1.8990  1.6379  0.4287
  825MOL0     H11361   6.601   1.198   3.309  0.5573  3.0042 -2.0555
  825MOL0     H11362   6.824   1.160   3.395 -0.4542  0.3078 -0.1211
  825MOL0     H11363   7.018   1.157   4.018 -0.2236 -0.3416 -0.6283
  825MOL0     H11364   7.237   1.159   4.092  0.7856  0.3775 -0.2202
  825MOL0     H11365   7.605   1.174   4.074  0.5738 -0.2193  1.0869
  825MOL0     H11366   7.441   1.166   4.126 -1.2500 -0.8498 -0.5069
  825MOL0     H11367   7.412   0.942   4.000  0.0625 -2.8055  0.5769
  825MOL0     H11368   7.529   0.945   4.133  2.1744  2.5882  0.5561
  825MOL0     H11369   7.614   0.985   3.847 -0.8532 -0.9395 -0.4760
  825MOL0     H11370   7.575   0.820   3.919 -0.0602 -1.3299  1.7232
  825MOL0     H11371   7.801   0.819   3.957  2.8937  0.3366  0.6488
  825MOL0     H11372   7.749   0.911   4.105  0.0732 -0.1938 -1.0453
  825MOL0     H11373   7.985   1.174   3.857  2.3266 -1.6281 -0.6280
  825MOL0     H11374   7.381   1.245   3.695  1.3642 -0.2833  1.6934
  825MOL0     H11375   7.131   1.204   3.609 -0.7347 -3.3660 -0.1061
  826MOL0     O11376   0.543   1.604   9.712  0.6126  0.4980  0.5270
  826MOL0     C11377   0.562   1.498   9.651 -0.2656  0.3673  0.3357
  826MOL0     O11378   0.468   1.409   9.617  0.7192  0.3960 -0.1637
  826MOL0     C11379   0.345   1.432   9.664  0.3605  0.4158 -0.2573
  826MOL0     C11380   0.312   1.432   9.803  0.3149 -0.5539  0.2626
  826MOL0     C11381   0.178   1.453   9.852 -0.7003 -0.7033 -0.4361
  826MOL0     C11382   0.075   1.468   9.759 -0.2518 -0.3498 -0.4262
  826MOL0     O11383  -0.042   1.499   9.819 -0.4875 -0.3662  0.6281
  826MOL0     C11384  -0.123   1.599   9.755  0.7020  0.7905 -0.3826
  826MOL0     C11385  -0.266   1.622   9.813 -0.5293  1.5892  0.6404
  826MOL0     C11386  -0.355   1.499   9.847 -0.9493  0.2267  0.8430
  826MOL0     C11387  -0.438   1.527   9.975  0.7105 -0.1126 -0.1272
  826MOL0     C11388  -0.528   1.411  10.020 -0.8341  1.0102  0.2114
  826MOL0     C11389  -0.632   1.369   9.910  0.4328  0.3905  0.2332
  826MOL0     C11390  -0.737   1.277   9.957 -0.3248 -0.0125  0.1174
  826MOL0     C11391  -0.816   1.221   9.843  0.1008 -0.5431 -0.0369
  826MOL0     N11392  -0.965   1.229   9.845  0.5309 -0.1376 -0.3277
  826MOL0     C11393  -1.046   1.271   9.737  0.3247  0.1186 -0.2583
  826MOL0     C11394  -1.174   1.267   9.780 -0.5213 -0.4190 -0.3106
  826MOL0     C11395  -1.288   1.266   9.688  0.7348  0.7256 -0.1587
  826MOL0     C11396  -1.306   1.129   9.615  0.4472 -0.7368  0.4360
  826MOL0     C11397  -1.317   1.013   9.714  0.1488  0.3338 -0.0699
  826MOL0     C11398  -1.328   0.880   9.645  0.4886 -0.1541 -0.4219
  826MOL0     O11399  -1.445   0.870   9.558  0.4768 -0.4295 -0.3408
  826MOL0     C11400  -1.569   0.894   9.618  0.3475  0.6427 -0.0084
  826MOL0     C11401  -1.599   0.867   9.753 -0.3937 -0.8831 -0.7583
  826MOL0     C11402  -1.735   0.887   9.806 -0.0229 -0.2971 -0.7249
  826MOL0     C11403  -1.755   0.849   9.952  0.6662 -0.6878  0.3974
  826MOL0     C11404  -1.838   0.934   9.720 -0.6925 -0.1953 -0.1332
  826MOL0     C11405  -1.975   0.963   9.766 -0.5070  0.8463 -0.4369
  826MOL0     O11406  -2.041   1.052   9.682 -0.1506 -0.0350 -0.5781
  826MOL0     C11407  -2.155   1.115   9.734  0.1567  0.2553 -0.1690
  826MOL0     C11408  -2.279   1.059   9.693  0.8665  0.4282 -0.0941
  826MOL0     C11409  -2.399   1.113   9.750  0.2179 -0.6380 -0.2498
  826MOL0     C11410  -2.386   1.210   9.849 -0.0399  0.1674  0.3621
  826MOL0     O11411  -2.498   1.264   9.904 -0.2477 -0.4551 -0.1122
  826MOL0     C11412  -2.516   1.250  10.048 -0.7110 -0.7571 -0.2490
  826MOL0     C11413  -2.664   1.273  10.076 -0.4330  0.3766 -0.3060
  826MOL0     C11414  -2.709   1.421  10.040 -0.9240  0.6825 -0.3690
  826MOL0     C11415  -2.859   1.442  10.066  0.0358 -0.8631  0.0741
  826MOL0     C11416  -2.901   1.583  10.093  0.3483  0.0921 -0.6571
  826MOL0     C11417  -3.053   1.594  10.131 -0.2853 -0.6736  0.0412
  826MOL0     C11418  -3.137   1.567  10.002 -0.3426 -0.3522 -0.5229
  826MOL0     C11419  -3.264   1.639   9.984  0.4731 -0.5322 -0.2427
  826MOL0    Cl11420  -3.330   1.621   9.817 -0.0026  0.0345 -0.1659
  826MOL0     C11421  -2.262   1.272   9.880 -0.3994  0.9650 -0.7945
  826MOL0     C11422  -2.145   1.221   9.828 -0.3467 -0.4811  1.1468
  826MOL0     O11423  -2.025   0.911   9.866  0.2538 -0.0796 -0.3547
  826MOL0     C11424  -1.802   0.944   9.589 -0.1630 -0.2854 -0.7437
  826MOL0     C11425  -1.677   0.923   9.532  0.7607  0.3489  0.1048
  826MOL0     N11426  -1.169   1.232   9.918  0.2264 -0.1689  0.5121
  826MOL0     N11427  -1.043   1.212   9.949 -0.1586 -0.2827 -0.5497
  826MOL0     C11428   0.102   1.474   9.622 -0.1191 -0.1292 -0.1984
  826MOL0     C11429   0.236   1.457   9.574 -0.8381 -1.0266  0.0460
  826MOL0     C11430   0.708   1.461   9.619  1.3735  0.1439  0.2822
  826MOL0     C11431   0.724   1.336   9.553 -0.1127  0.2800 -0.2844
  826MOL0     C11432   0.845   1.292   9.513 -0.0899  0.6296 -0.8618
  826MOL0     C11433   0.962   1.355   9.554 -0.4626 -0.1610 -0.7930
  826MOL0     O11434   1.094   1.316   9.531 -0.3750 -0.6350  0.3143
  826MOL0     C11435   1.101   1.191   9.462 -0.4797  0.6514 -0.1198
  826MOL0     C11436   1.253   1.143   9.448  0.2856 -0.3052  0.0532
  826MOL0     C11437   1.328   1.237   9.354 -0.6012 -0.2113  0.1036
  826MOL0     C11438   1.437   1.165   9.273 -0.0468 -0.6889 -0.3433
  826MOL0     C11439   1.372   1.079   9.178  0.6982 -0.5807  0.1519
  826MOL0     C11440   1.314   1.006   9.099 -0.4461  0.1703  0.5107
  826MOL0     C11441   0.948   1.475   9.623 -0.1648  0.1245  0.0973
  826MOL0     C11442   0.820   1.537   9.640 -0.0023 -0.1050 -0.4636
  826MOL0     H11443   0.387   1.424   9.882 -2.6325  0.5009  3.4543
  826MOL0     H11444   0.149   1.447   9.957 -2.4087 -0.7553 -0.8795
  826MOL0     H11445  -0.066   1.692   9.756 -1.7335  2.3846 -1.1145
  826MOL0     H11446  -0.141   1.579   9.649 -0.2992  2.3501 -0.5362
  826MOL0     H11447  -0.256   1.666   9.913  0.4560  0.9233  0.8499
  826MOL0     H11448  -0.325   1.685   9.746 -1.2529 -0.5747 -0.8577
  826MOL0     H11449  -0.411   1.475   9.756  0.5380 -0.4362  0.0563
  826MOL0     H11450  -0.296   1.408   9.861 -2.2659 -1.3846 -2.6720
  826MOL0     H11451  -0.379   1.559  10.061  0.6397 -1.0509  0.2742
  826MOL0     H11452  -0.502   1.615   9.958 -0.6573 -1.4391 -2.2528
  826MOL0     H11453  -0.455   1.331  10.035  0.2784  2.0701  0.6227
  826MOL0     H11454  -0.573   1.436  10.117  1.0224  0.2183  1.3479
  826MOL0     H11455  -0.685   1.460   9.880 -1.7564 -1.8232 -3.3735
  826MOL0     H11456  -0.589   1.319   9.823 -0.8187 -0.8790  0.3151
  826MOL0     H11457  -0.694   1.191  10.009 -0.6962 -1.0416 -1.2207
  826MOL0     H11458  -0.808   1.336  10.015  1.7576  3.5997 -0.6627
  826MOL0     H11459  -0.788   1.116   9.831 -4.2385 -1.8111 -0.6605
  826MOL0     H11460  -0.786   1.275   9.753 -3.5055  1.4900 -0.2399
  826MOL0     H11461  -1.027   1.304   9.636 -1.0648  0.1345 -0.5399
  826MOL0     H11462  -1.383   1.297   9.735  0.4545  0.4243 -0.5250
  826MOL0     H11463  -1.264   1.339   9.610 -0.3893  0.5923 -0.6479
  826MOL0     H11464  -1.230   1.101   9.542  0.2770 -4.1687  1.3817
  826MOL0     H11465  -1.401   1.144   9.562  0.8284 -0.3730 -0.1544
  826MOL0     H11466  -1.397   1.033   9.787 -0.3887  1.7230 -0.9937
  826MOL0     H11467  -1.222   1.005   9.768 -0.9457 -1.2998  1.7712
  826MOL0     H11468  -1.331   0.798   9.718 -2.2308  0.4254  0.2104
  826MOL0     H11469  -1.240   0.859   9.583  1.7174  1.7589  0.5722
  826MOL0     H11470  -1.529   0.848   9.834 -2.4067 -2.2283  0.7816
  826MOL0     H11471  -1.808   0.927  10.008  0.7330 -0.4319  0.1095
  826MOL0     H11472  -1.817   0.759   9.952 -1.2519  0.5593  1.8354
  826MOL0     H11473  -1.657   0.840  10.000  1.5312 -0.1669 -1.1886
  826MOL0     H11474  -2.277   0.985   9.614  1.8394 -1.2676  1.4488
  826MOL0     H11475  -2.499   1.089   9.716 -0.4906  0.2925  1.0937
  826MOL0     H11476  -2.481   1.155  10.088 -1.0468 -1.2782 -1.1549
  826MOL0     H11477  -2.453   1.325  10.097 -0.6825 -1.3008  0.5501
  826MOL0     H11478  -2.726   1.208  10.013  0.6551  0.3751 -1.4092
  826MOL0     H11479  -2.672   1.247  10.183  2.3371  0.6773  0.0456
  826MOL0     H11480  -2.685   1.442   9.935  0.4168 -1.7812 -0.6142
  826MOL0     H11481  -2.645   1.488  10.097  2.2414  0.8173 -3.6916
  826MOL0     H11482  -2.911   1.393   9.983  0.1436 -0.2273 -0.3756
  826MOL0     H11483  -2.885   1.383  10.155 -2.0453  2.6303  2.0098
  826MOL0     H11484  -2.882   1.640  10.002 -0.1382  2.1361  0.4571
  826MOL0     H11485  -2.847   1.627  10.177 -1.1791  0.0812  0.3911
  826MOL0     H11486  -3.083   1.518  10.204  1.5279  0.8303  2.5105
  826MOL0     H11487  -3.078   1.695  10.163  0.6114 -0.7329  0.9944
  826MOL0     H11488  -3.161   1.460  10.003 -0.7831 -0.2456  0.4851
  826MOL0     H11489  -3.079   1.596   9.914 -0.6866  2.1428  0.0009
  826MOL0     H11490  -3.242   1.746   9.990  0.8551 -0.4915 -1.7793
  826MOL0     H11491  -3.340   1.608  10.055  0.3724 -1.1615 -0.6070
  826MOL0     H11492  -2.248   1.352   9.951  3.4446 -0.3283  0.1323
  826MOL0     H11493  -2.043   1.249   9.852  0.1570  0.5685 -1.7918
  826MOL0     H11494  -1.871   0.980   9.513 -3.6694 -0.3362  2.1272
  826MOL0     H11495  -1.645   0.945   9.431  0.8163  0.3449  0.1215
  826MOL0     H11496   0.031   1.497   9.542  1.2915  0.3043 -1.3720
  826MOL0     H11497   0.253   1.466   9.468  0.8800 -0.4930  0.3339
  826MOL0     H11498   0.635   1.285   9.517 -0.4138  1.1783 -0.8333
  826MOL0     H11499   0.842   1.194   9.466  1.1582 -0.3894  1.0821
  826MOL0     H11500   1.053   1.115   9.524  0.1225  1.6997  1.7155
  826MOL0     H11501   1.057   1.195   9.363  0.2256  0.4906 -0.4456
  826MOL0     H11502   1.260   1.038   9.420 -1.6333 -0.2660 -0.6941
  826MOL0     H11503   1.307   1.148   9.543  0.1926 -2.0837  0.2268
  826MOL0     H11504   1.385   1.308   9.415  2.6366  0.2458 -3.1104
  826MOL0     H11505   1.264   1.299   9.291 -0.9471 -0.5381  0.1293
  826MOL0     H11506   1.506   1.107   9.335  0.1135  2.0695  2.3486
  826MOL0     H11507   1.493   1.248   9.228  0.3845 -0.2884  0.8896
  826MOL0     H11508   1.259   0.943   9.031  0.4887 -0.1683  0.0554
  826MOL0     H11509   1.037   1.528   9.656 -1.6836  2.2704  1.0074
  826MOL0     H11510   0.816   1.634   9.686  2.0044  0.3177 -1.0620
  827MOL0     O11511   8.556   3.678   0.306 -0.4358 -0.1270  0.3558
  827MOL0     C11512   8.542   3.786   0.254 -0.1312  0.4872 -0.4897
  827MOL0     O11513   8.634   3.875   0.210 -0.2413 -0.1568 -0.4077
  827MOL0     C11514   8.773   3.850   0.230  0.1129  0.2494  0.1487
  827MOL0     C11515   8.850   3.885   0.113  0.8674 -0.0556 -0.5246
  827MOL0     C11516   8.987   3.865   0.110  0.0024 -0.2363  0.1184
  827MOL0     C11517   9.060   3.814   0.222 -0.2776 -0.1828 -0.6885
  827MOL0     O11518   9.196   3.816   0.210 -0.2289  0.3255 -0.0740
  827MOL0     C11519   9.255   3.776   0.329 -0.1238  0.4316 -0.1414
  827MOL0     C11520   9.407   3.777   0.317  0.2854 -0.2340 -0.4068
  827MOL0     C11521   9.477   3.785   0.452  0.0289 -0.2718 -0.4245
  827MOL0     C11522   9.490   3.932   0.494  0.2404  0.2034 -0.6781
  827MOL0     C11523   9.583   3.946   0.619  0.3593  0.2069 -0.2617
  827MOL0     C11524   9.595   4.086   0.670 -0.2274 -0.4292  0.5285
  827MOL0     C11525   9.662   4.180   0.557  0.0664 -0.3179 -0.6673
  827MOL0     C11526   9.802   4.123   0.534  0.5999  0.7228 -0.2047
  827MOL0     N11527   9.903   4.128   0.640  0.6770 -0.4266 -0.4105
  827MOL0     C11528   9.929   4.041   0.738 -0.3487 -0.2964  0.9282
  827MOL0     C11529  10.027   4.098   0.809  0.1891 -0.1996 -0.0933
  827MOL0     C11530  10.093   4.040   0.929 -0.2533 -1.1285 -0.2493
  827MOL0     C11531  10.219   3.949   0.898  0.7429  0.4378  0.1235
  827MOL0     C11532  10.183   3.818   0.826 -0.1478 -0.2213  0.9424
  827MOL0     C11533  10.301   3.756   0.746 -0.1921 -0.0496 -0.4715
  827MOL0     O11534  10.345   3.832   0.631 -0.2308 -0.4262 -0.3247
  827MOL0     C11535  10.261   3.858   0.526 -0.5849  0.5159 -0.4634
  827MOL0     C11536  10.252   3.985   0.488  0.4017  0.1852  0.6205
  827MOL0     C11537  10.171   4.028   0.385  0.3550 -0.5152  0.5580
  827MOL0     C11538  10.178   4.173   0.345 -0.6082 -0.7325  0.1122
  827MOL0     C11539  10.077   3.937   0.326 -0.6136  0.4121  1.5100
  827MOL0     C11540   9.969   3.978   0.227  0.3107 -0.8550 -0.5805
  827MOL0     O11541   9.909   3.881   0.152 -0.2522 -0.2122 -0.0324
  827MOL0     C11542   9.805   3.898   0.074  0.5490  0.1263  0.1547
  827MOL0     C11543   9.813   3.833  -0.052  0.3818  0.4367 -0.5076
  827MOL0     C11544   9.705   3.841  -0.139  0.3100  0.9282  0.3027
  827MOL0     C11545   9.582   3.898  -0.101  1.3450  0.8693 -0.2066
  827MOL0     O11546   9.481   3.880  -0.191 -0.0301 -0.7282 -0.7780
  827MOL0     C11547   9.348   3.925  -0.159  0.1600  0.3425  0.1281
  827MOL0     C11548   9.257   3.913  -0.285  0.7958  0.0753  0.1477
  827MOL0     C11549   9.207   3.769  -0.311  0.4499  1.0514  0.0389
  827MOL0     C11550   9.085   3.714  -0.224 -0.0149 -0.8483 -0.1171
  827MOL0     C11551   8.949   3.774  -0.266 -0.6590 -0.4318 -0.1693
  827MOL0     C11552   8.835   3.695  -0.199 -0.8333 -0.2562 -0.0748
  827MOL0     C11553   8.698   3.753  -0.228 -0.9155  0.4164  0.2151
  827MOL0     C11554   8.600   3.694  -0.132  0.7969 -0.0832 -0.0648
  827MOL0    Cl11555   8.463   3.810  -0.122 -0.0978 -0.4751 -0.0027
  827MOL0     C11556   9.578   3.956   0.026 -0.1236  0.7970 -0.0393
  827MOL0     C11557   9.690   3.958   0.113  0.5914  0.8396 -0.7764
  827MOL0     O11558   9.937   4.095   0.222  0.5643 -0.0413 -0.2939
  827MOL0     C11559  10.087   3.807   0.367  0.1143  1.3501  0.2113
  827MOL0     C11560  10.173   3.762   0.463 -0.0864 -0.3845  0.7050
  827MOL0     N11561  10.051   4.221   0.758 -0.1625 -0.0149 -0.0068
  827MOL0     N11562   9.975   4.245   0.653 -0.5196 -0.4793  0.2056
  827MOL0     C11563   8.979   3.776   0.338  0.3237  0.0590  0.4126
  827MOL0     C11564   8.839   3.789   0.343  0.3578 -0.0396  0.0759
  827MOL0     C11565   8.401   3.819   0.225  0.2519  0.8397  0.2064
  827MOL0     C11566   8.294   3.753   0.283 -0.3070  1.2316  0.7611
  827MOL0     C11567   8.164   3.801   0.274  0.2071 -1.0180  0.1133
  827MOL0     C11568   8.137   3.920   0.200 -0.1616 -0.3719  0.6500
  827MOL0     O11569   8.006   3.952   0.208  0.1843 -0.2342  0.6085
  827MOL0     C11570   7.965   4.078   0.156  0.6703  0.3667 -0.7911
  827MOL0     C11571   7.820   4.076   0.116  0.5259  0.2291 -0.5717
  827MOL0     C11572   7.766   4.218   0.077 -0.3968  0.2309  0.3587
  827MOL0     C11573   7.624   4.231   0.131  0.1954 -0.6469 -0.2911
  827MOL0     C11574   7.625   4.271   0.269  0.3535 -0.0140  0.0900
  827MOL0     C11575   7.632   4.309   0.381 -0.1900 -0.1940  0.0596
  827MOL0     C11576   8.252   3.988   0.150  1.0451 -0.0778 -0.5655
  827MOL0     C11577   8.378   3.937   0.158 -0.7852  0.2280 -0.7167
  827MOL0     H11578   8.798   3.916   0.023 -1.6727 -0.2724  0.7713
  827MOL0     H11579   9.040   3.895   0.021  2.8983 -0.1158  1.7531
  827MOL0     H11580   9.218   3.831   0.416 -2.7017 -0.2599 -0.7286
  827MOL0     H11581   9.228   3.674   0.356  0.7543  1.0743  3.7526
  827MOL0     H11582   9.447   3.688   0.266 -0.5933 -1.4094  0.8846
  827MOL0     H11583   9.445   3.854   0.249  2.3646 -2.9172 -2.5359
  827MOL0     H11584   9.427   3.745   0.540  3.3187  0.6069  2.0719
  827MOL0     H11585   9.569   3.726   0.450 -0.3398 -0.8425 -1.5915
  827MOL0     H11586   9.550   3.982   0.418  1.9591  2.1186  1.7461
  827MOL0     H11587   9.396   3.982   0.518  1.3824  1.9698  0.3637
  827MOL0     H11588   9.536   3.892   0.701 -0.7231  1.7919  0.2023
  827MOL0     H11589   9.680   3.897   0.607  0.2917 -0.2476  0.8823
  827MOL0     H11590   9.500   4.129   0.704 -1.8163 -1.0833 -2.6802
  827MOL0     H11591   9.661   4.087   0.757 -1.1864  1.4932  1.2977
  827MOL0     H11592   9.604   4.192   0.465  0.2730  0.9316 -0.6499
  827MOL0     H11593   9.663   4.282   0.596 -3.6426  0.7574 -2.8907
  827MOL0     H11594   9.848   4.181   0.453  0.0521  1.7291  0.1936
  827MOL0     H11595   9.793   4.019   0.500 -5.0477 -0.1824  2.8713
  827MOL0     H11596   9.894   3.940   0.760  0.0909 -0.8316 -0.6805
  827MOL0     H11597  10.121   4.122   0.996 -2.9645  0.0656 -0.4290
  827MOL0     H11598  10.021   3.978   0.983  0.4423 -2.4927 -0.8436
  827MOL0     H11599  10.255   3.917   0.996 -1.0598 -0.6527  0.4781
  827MOL0     H11600  10.286   4.015   0.843 -0.6546 -0.9691 -3.6303
  827MOL0     H11601  10.102   3.834   0.754  0.9689  0.0915 -0.2906
  827MOL0     H11602  10.149   3.752   0.906 -0.2483  1.7321  2.5968
  827MOL0     H11603  10.248   3.671   0.700 -0.8007  2.3545 -4.8286
  827MOL0     H11604  10.383   3.727   0.812  0.3433  3.6335  0.6879
  827MOL0     H11605  10.323   4.053   0.535  0.0718  0.8494  0.1761
  827MOL0     H11606  10.176   4.181   0.236 -1.9909 -3.2344 -0.1263
  827MOL0     H11607  10.099   4.241   0.380  0.6311  1.7584 -1.6482
  827MOL0     H11608  10.274   4.215   0.377  0.0117 -1.4615 -0.7533
  827MOL0     H11609   9.903   3.782  -0.084 -1.5941 -3.7589  0.0333
  827MOL0     H11610   9.727   3.800  -0.237 -1.0655 -0.0869  0.3935
  827MOL0     H11611   9.309   3.864  -0.077 -2.4322  1.5674 -0.1192
  827MOL0     H11612   9.361   4.027  -0.125  1.0780 -0.4046  2.1717
  827MOL0     H11613   9.168   3.977  -0.284  1.4048  1.2331 -3.6068
  827MOL0     H11614   9.317   3.948  -0.370  1.1366  1.7842  1.0328
  827MOL0     H11615   9.288   3.695  -0.304 -1.9581 -2.0214 -1.9178
  827MOL0     H11616   9.158   3.762  -0.408 -0.1285  0.6778  0.3541
  827MOL0     H11617   9.089   3.606  -0.241 -1.0998 -1.1015  1.0495
  827MOL0     H11618   9.102   3.746  -0.120 -1.2639 -0.1056 -0.1092
  827MOL0     H11619   8.930   3.774  -0.373 -2.8287 -1.1757  0.1499
  827MOL0     H11620   8.937   3.879  -0.238  0.6005  0.0704 -1.4063
  827MOL0     H11621   8.848   3.591  -0.230  4.3979 -0.0063  0.3854
  827MOL0     H11622   8.855   3.699  -0.092 -1.4163 -0.7760  0.0613
  827MOL0     H11623   8.673   3.727  -0.332  0.5993  1.0963 -0.3585
  827MOL0     H11624   8.701   3.862  -0.233  1.1224  0.3426 -1.4685
  827MOL0     H11625   8.636   3.678  -0.030 -1.5978 -1.0872  0.6915
  827MOL0     H11626   8.569   3.599  -0.176  0.4073 -0.1561  0.3616
  827MOL0     H11627   9.484   4.000   0.059  1.2629  2.0166  2.5849
  827MOL0     H11628   9.689   4.009   0.208 -3.1529  0.5170 -0.4943
  827MOL0     H11629  10.018   3.737   0.319  1.6179 -0.4430  0.5499
  827MOL0     H11630  10.180   3.660   0.500  4.3824  0.0045  1.4254
  827MOL0     H11631   9.025   3.730   0.425  1.5585 -1.8012 -1.1315
  827MOL0     H11632   8.788   3.758   0.434  2.0950 -1.7511  0.5395
  827MOL0     H11633   8.307   3.653   0.325  1.1745 -0.2044 -2.6958
  827MOL0     H11634   8.089   3.741   0.325  0.6311 -1.4644  0.2113
  827MOL0     H11635   7.978   4.154   0.234 -0.0790 -0.2224 -0.0766
  827MOL0     H11636   8.023   4.111   0.069  1.0637 -1.9226 -1.4578
  827MOL0     H11637   7.753   4.030   0.189 -0.7444  3.1169  0.2436
  827MOL0     H11638   7.814   4.016   0.025  0.9556  0.6689 -0.8930
  827MOL0     H11639   7.760   4.231  -0.032 -0.9233 -1.3355  0.1643
  827MOL0     H11640   7.819   4.309   0.104 -0.1583  0.8035 -1.8455
  827MOL0     H11641   7.568   4.137   0.120 -4.1324  1.4538  1.4826
  827MOL0     H11642   7.563   4.309   0.083 -1.1392 -1.4680  0.0215
  827MOL0     H11643   7.633   4.347   0.480 -0.8708  0.5009 -0.1867
  827MOL0     H11644   8.236   4.087   0.110 -0.3015  0.1042  0.3266
  827MOL0     H11645   8.455   4.006   0.126 -0.2329  0.3845  0.8451
  828MOL0     O11646   6.774  11.105   7.551 -0.5876 -0.0403 -0.0471
  828MOL0     C11647   6.801  11.170   7.654 -0.5247 -0.1116  0.0009
  828MOL0     O11648   6.734  11.288   7.695  0.2637 -1.1791 -0.1887
  828MOL0     C11649   6.605  11.311   7.653  0.6303 -0.0895  0.4260
  828MOL0     C11650   6.582  11.358   7.522 -0.2861 -0.6905  0.9818
  828MOL0     C11651   6.452  11.400   7.475 -0.1405  0.2439  0.2596
  828MOL0     C11652   6.347  11.382   7.561  0.5542 -0.4865  0.4646
  828MOL0     O11653   6.224  11.399   7.513  0.0654  0.2009  1.1496
  828MOL0     C11654   6.181  11.526   7.537  0.0436  0.6246  0.1118
  828MOL0     C11655   6.071  11.557   7.437  0.1303 -0.3506 -1.3965
  828MOL0     C11656   5.998  11.689   7.485 -0.1659  0.1427 -0.3777
  828MOL0     C11657   5.898  11.740   7.373  0.8063 -0.0836 -0.1394
  828MOL0     C11658   5.878  11.890   7.392 -0.2777 -0.4193  0.5904
  828MOL0     C11659   6.004  11.976   7.356  0.6265  0.5306 -0.2272
  828MOL0     C11660   5.976  12.128   7.336  0.0979  0.0441  0.8887
  828MOL0     C11661   5.968  12.208   7.467  0.4027  0.1652 -0.8572
  828MOL0     N11662   5.877  12.331   7.453 -0.5819  0.0339  0.2739
  828MOL0     C11663   5.918  12.449   7.394  0.4701 -0.4666  0.4249
  828MOL0     C11664   5.814  12.533   7.412  0.4380  0.6767  0.9123
  828MOL0     C11665   5.799  12.669   7.339  0.0502 -0.1247 -0.3563
  828MOL0     C11666   5.674  12.668   7.244  0.8964  0.2639 -0.5950
  828MOL0     C11667   5.628  12.806   7.193 -0.1428  0.4880 -0.4232
  828MOL0     C11668   5.505  12.809   7.095 -0.4789 -0.2595 -0.2420
  828MOL0     O11669   5.424  12.920   7.119 -0.3836 -0.6467 -0.3687
  828MOL0     C11670   5.291  12.915   7.082  0.9005 -0.8271 -0.2733
  828MOL0     C11671   5.233  12.811   7.003 -0.1885 -0.1605  0.6298
  828MOL0     C11672   5.096  12.817   6.962 -0.3251  0.2636 -0.2947
  828MOL0     C11673   5.043  12.697   6.880  0.2899 -0.1029 -0.4976
  828MOL0     C11674   5.011  12.921   7.011  0.2553 -0.5562  0.3387
  828MOL0     C11675   4.866  12.933   6.989 -0.8382 -0.0223  0.5672
  828MOL0     O11676   4.799  12.995   7.087 -0.0604  0.3016  0.1990
  828MOL0     C11677   4.663  12.992   7.072 -0.3286  0.4304 -0.0365
  828MOL0     C11678   4.603  13.091   6.998 -0.1883 -0.5655 -0.0833
  828MOL0     C11679   4.467  13.092   6.978 -0.1147 -0.5021  0.4418
  828MOL0     C11680   4.385  13.007   7.058  1.0350 -0.8666 -0.2578
  828MOL0     O11681   4.250  13.019   7.039  0.2641 -0.3216 -0.4138
  828MOL0     C11682   4.178  13.013   7.157  1.6265  0.3521 -0.4711
  828MOL0     C11683   4.039  13.074   7.135  0.7555  0.3919  0.1571
  828MOL0     C11684   4.054  13.224   7.102  0.0664  0.4773  0.1177
  828MOL0     C11685   3.919  13.284   7.068 -1.0910  0.5460  0.4093
  828MOL0     C11686   3.843  13.315   7.189 -0.3811  0.2409  0.3974
  828MOL0     C11687   3.727  13.420   7.168 -0.6732  0.4497 -0.2447
  828MOL0     C11688   3.646  13.442   7.299 -0.4051  0.3864  0.1251
  828MOL0     C11689   3.503  13.502   7.279 -0.1789  0.3885 -0.6990
  828MOL0    Cl11690   3.400  13.385   7.180 -0.4166 -0.4973  0.1765
  828MOL0     C11691   4.448  12.905   7.135 -0.0671 -0.4393 -0.2541
  828MOL0     C11692   4.588  12.900   7.151  0.8900 -0.8257  0.0702
  828MOL0     O11693   4.816  12.886   6.890  0.1625 -0.6869 -0.1887
  828MOL0     C11694   5.071  13.017   7.094  0.2581 -0.2864  0.8561
  828MOL0     C11695   5.207  13.017   7.122  0.9557  0.0236 -0.3660
  828MOL0     N11696   5.704  12.464   7.471 -0.5155  0.4316 -0.0908
  828MOL0     N11697   5.753  12.347   7.507 -1.4217 -0.2085 -0.0743
  828MOL0     C11698   6.366  11.342   7.690 -0.1599  0.7901 -0.1511
  828MOL0     C11699   6.491  11.308   7.735 -0.2022  0.8024 -0.2526
  828MOL0     C11700   6.925  11.145   7.728 -0.0067 -0.2789  0.5722
  828MOL0     C11701   7.017  11.045   7.691  0.5352 -0.1851 -0.1744
  828MOL0     C11702   7.118  11.001   7.779 -0.6525 -0.4211  0.1881
  828MOL0     C11703   7.143  11.063   7.902 -0.3140 -0.2579  1.3377
  828MOL0     O11704   7.251  11.017   7.976 -0.0648  0.0685  0.3330
  828MOL0     C11705   7.296  11.089   8.092 -0.7668 -0.2612 -1.0527
  828MOL0     C11706   7.448  11.073   8.123 -0.0983 -0.5993  0.5713
  828MOL0     C11707   7.486  10.923   8.133  0.3566  0.1186  0.8655
  828MOL0     C11708   7.618  10.874   8.190 -0.4154 -0.4169  0.2575
  828MOL0     C11709   7.722  10.953   8.114  1.0465  0.3452  0.2304
  828MOL0     C11710   7.785  11.018   8.034 -0.2677  0.2070 -0.2374
  828MOL0     C11711   7.057  11.178   7.927  0.0022  0.1885  0.1557
  828MOL0     C11712   6.948  11.220   7.848 -0.7345 -0.6583 -0.0608
  828MOL0     H11713   6.665  11.370   7.453 -0.5215 -2.2465  0.3846
  828MOL0     H11714   6.423  11.436   7.377 -0.2513  1.4342  0.7096
  828MOL0     H11715   6.142  11.519   7.640  2.5286 -2.7679  1.0004
  828MOL0     H11716   6.252  11.609   7.536 -0.6583  1.2463  0.2701
  828MOL0     H11717   6.127  11.553   7.343 -0.0147 -3.0414 -1.4392
  828MOL0     H11718   5.991  11.483   7.439  0.8531 -1.1534  0.7095
  828MOL0     H11719   5.952  11.685   7.584 -0.7651  2.2337 -0.5155
  828MOL0     H11720   6.085  11.755   7.496  1.3524 -1.8053 -0.2859
  828MOL0     H11721   5.935  11.712   7.274 -0.0600 -0.2694 -0.4169
  828MOL0     H11722   5.800  11.693   7.384  0.0303  0.9408 -2.1747
  828MOL0     H11723   5.797  11.928   7.330  0.1668 -1.1436 -0.4734
  828MOL0     H11724   5.860  11.910   7.498  2.2766  1.0337  0.8429
  828MOL0     H11725   6.076  11.962   7.438 -2.2594 -0.4619  2.3446
  828MOL0     H11726   6.044  11.925   7.268 -0.8546 -2.3660  0.6549
  828MOL0     H11727   6.057  12.175   7.279 -0.5126 -1.6590 -1.5336
  828MOL0     H11728   5.884  12.144   7.280  0.8233  0.5987 -0.1786
  828MOL0     H11729   6.069  12.239   7.494  1.2033 -0.9691 -2.4390
  828MOL0     H11730   5.926  12.152   7.551 -0.5202 -0.6996 -1.8584
  828MOL0     H11731   6.005  12.473   7.333  0.0676  2.1228  0.7629
  828MOL0     H11732   5.787  12.751   7.410  0.2897  0.2104 -0.6980
  828MOL0     H11733   5.888  12.684   7.278  1.0493 -5.4008 -0.6529
  828MOL0     H11734   5.589  12.627   7.300  3.1711 -1.1236  2.0677
  828MOL0     H11735   5.715  12.608   7.163  2.2934  1.2244 -0.6326
  828MOL0     H11736   5.709  12.853   7.137 -1.3676  1.3928 -1.4903
  828MOL0     H11737   5.607  12.867   7.282 -2.6319 -0.9428  0.0711
  828MOL0     H11738   5.454  12.717   7.123 -1.0938  0.3566  0.7271
  828MOL0     H11739   5.552  12.815   6.996  0.4141  1.8350  0.2580
  828MOL0     H11740   5.296  12.729   6.969  0.0305 -0.7945  2.4596
  828MOL0     H11741   4.969  12.635   6.931 -1.3481  0.4731 -2.0722
  828MOL0     H11742   4.991  12.728   6.789 -0.6720  0.9467  0.3645
  828MOL0     H11743   5.126  12.632   6.851  2.2948  2.0338  0.1021
  828MOL0     H11744   4.661  13.166   6.945  0.3487  0.5783  2.0323
  828MOL0     H11745   4.424  13.166   6.911  2.7143  1.2081  0.3500
  828MOL0     H11746   4.160  12.907   7.179 -2.6269  0.3394 -2.9811
  828MOL0     H11747   4.226  13.058   7.245  1.4574 -0.2140 -0.0761
  828MOL0     H11748   3.989  13.016   7.056  0.0518 -0.9695  1.5579
  828MOL0     H11749   3.973  13.059   7.221 -3.3525  0.2320 -2.7140
  828MOL0     H11750   4.120  13.233   7.015  0.0293  3.1300  0.2865
  828MOL0     H11751   4.098  13.276   7.188 -2.5981  2.1651  0.5818
  828MOL0     H11752   3.934  13.376   7.011 -1.2087 -1.3024 -2.8562
  828MOL0     H11753   3.856  13.216   7.011  1.1710 -1.5206  0.2082
  828MOL0     H11754   3.902  13.356   7.271  0.6650  1.5734 -0.9829
  828MOL0     H11755   3.793  13.225   7.227 -0.4511 -0.3418 -0.9961
  828MOL0     H11756   3.770  13.518   7.148 -2.7599  0.6229 -5.3518
  828MOL0     H11757   3.664  13.404   7.080  0.4673  2.4278 -1.5092
  828MOL0     H11758   3.705  13.517   7.352  0.6952 -1.8176  2.2060
  828MOL0     H11759   3.642  13.350   7.358  0.8675  2.3999  3.6310
  828MOL0     H11760   3.491  13.598   7.226 -2.3089  1.4376  1.4909
  828MOL0     H11761   3.451  13.507   7.375 -2.2326  1.4874 -1.7818
  828MOL0     H11762   4.389  12.828   7.184 -0.9954 -2.6447 -4.3793
  828MOL0     H11763   4.635  12.821   7.208 -0.3895 -1.6713  0.0050
  828MOL0     H11764   5.016  13.103   7.133 -0.2572 -0.6471  0.9424
  828MOL0     H11765   5.265  13.080   7.190  0.4783 -0.1810  0.2455
  828MOL0     H11766   6.283  11.318   7.754 -1.1853 -0.2229 -1.7946
  828MOL0     H11767   6.508  11.269   7.835  1.5959 -0.6546 -1.0642
  828MOL0     H11768   6.999  10.991   7.599 -2.4865  1.0735 -0.4777
  828MOL0     H11769   7.176  10.914   7.749 -0.7688 -0.7662  0.9454
  828MOL0     H11770   7.287  11.198   8.082 -1.2257  0.0824  2.2101
  828MOL0     H11771   7.245  11.060   8.184 -0.1492  1.0568 -0.2600
  828MOL0     H11772   7.479  11.110   8.221  1.3371 -1.7247  0.5724
  828MOL0     H11773   7.506  11.123   8.045 -1.5156  0.4170  0.1369
  828MOL0     H11774   7.469  10.889   8.030  4.0557  3.4820 -1.1566
  828MOL0     H11775   7.416  10.876   8.201  1.2414 -1.3034  0.8271
  828MOL0     H11776   7.633  10.766   8.178  1.2402 -0.0409 -1.4506
  828MOL0     H11777   7.622  10.905   8.295  0.1489  0.5317 -0.0297
  828MOL0     H11778   7.850  11.073   7.969  0.6317  0.6424  0.9963
  828MOL0     H11779   7.090  11.241   8.009  1.2541  0.5700 -0.6075
  828MOL0     H11780   6.882  11.304   7.868 -1.0479 -1.0339  0.4861
  829MOL0     O11781   8.774   0.702  10.750 -0.2618  0.6538  0.3313
  829MOL0     C11782   8.840   0.650  10.657 -0.3539 -0.0065  0.2639
  829MOL0     O11783   8.821   0.675  10.524 -0.4129  0.2108  0.2981
  829MOL0     C11784   8.726   0.754  10.474  0.4023  0.2304 -0.5556
  829MOL0     C11785   8.757   0.845  10.375 -0.1967 -0.4682 -0.2615
  829MOL0     C11786   8.656   0.920  10.316  0.3231 -0.4888 -0.2916
  829MOL0     C11787   8.523   0.899  10.351 -0.1042 -0.4251  1.0083
  829MOL0     O11788   8.431   0.984  10.291 -0.6929  0.8035  0.7094
  829MOL0     C11789   8.318   1.022  10.358 -0.3916  0.1666 -1.0097
  829MOL0     C11790   8.227   1.092  10.256  0.0493 -0.4355  0.3765
  829MOL0     C11791   8.085   1.106  10.315 -0.3475 -0.2422  0.1350
  829MOL0     C11792   8.005   1.164  10.199 -0.2422 -1.1887  1.0996
  829MOL0     C11793   7.875   1.208  10.252 -1.1227 -0.0505  0.5127
  829MOL0     C11794   7.772   1.248  10.144  1.0041  0.1175 -0.4999
  829MOL0     C11795   7.627   1.249  10.199  0.8387 -0.9139 -0.4644
  829MOL0     C11796   7.538   1.340  10.117 -0.1017  0.5708  0.4609
  829MOL0     N11797   7.403   1.359  10.177 -0.2881 -0.2018 -0.3099
  829MOL0     C11798   7.323   1.473  10.165 -0.4993  0.4919 -0.4225
  829MOL0     C11799   7.218   1.457  10.237 -0.1935 -0.2820 -1.0218
  829MOL0     C11800   7.095   1.542  10.251 -0.4162  0.1580  0.1427
  829MOL0     C11801   6.973   1.460  10.281 -0.2436  0.1511 -0.8331
  829MOL0     C11802   6.843   1.535  10.253  0.5290  0.0278  0.3757
  829MOL0     C11803   6.755   1.505  10.374 -0.0162  0.1095 -0.2937
  829MOL0     O11804   6.626   1.557  10.344  0.2675  0.6042  0.4764
  829MOL0     C11805   6.520   1.492  10.399 -0.1924  0.4266  0.0489
  829MOL0     C11806   6.485   1.484  10.539 -0.3757 -0.7099  0.9391
  829MOL0     C11807   6.365   1.426  10.573 -0.2776  0.3750 -0.1305
  829MOL0     C11808   6.337   1.429  10.730 -0.5954  0.7986  0.7969
  829MOL0     C11809   6.280   1.366  10.487  0.5211 -0.4050 -0.4346
  829MOL0     C11810   6.153   1.291  10.519  0.2935 -0.5322  0.1234
  829MOL0     O11811   6.095   1.209  10.425 -0.1891  0.4463  0.4295
  829MOL0     C11812   5.976   1.140  10.455 -0.3995 -0.3345 -0.3429
  829MOL0     C11813   5.860   1.159  10.377 -0.4793  0.1596  0.1570
  829MOL0     C11814   5.748   1.088  10.409 -0.5419 -0.4503 -0.1281
  829MOL0     C11815   5.735   0.997  10.515  0.3542 -0.6811  0.3573
  829MOL0     O11816   5.630   0.917  10.548 -0.4954  0.3335  0.1222
  829MOL0     C11817   5.503   0.936  10.482 -0.8211 -0.3089 -0.5550
  829MOL0     C11818   5.397   0.868  10.559 -0.2466 -0.2532 -0.3929
  829MOL0     C11819   5.280   0.857  10.476 -1.0787 -0.6160 -0.1828
  829MOL0     C11820   5.167   0.788  10.558 -0.2298 -0.5918 -0.0283
  829MOL0     C11821   5.033   0.757  10.485 -0.6471 -0.7079  0.2843
  829MOL0     C11822   4.925   0.703  10.586  0.6637  0.9347  0.2104
  829MOL0     C11823   4.797   0.652  10.501 -0.1571  0.4409 -0.3956
  829MOL0     C11824   4.729   0.539  10.575  0.2407  0.2655  0.0577
  829MOL0    Cl11825   4.563   0.508  10.529 -0.3403  0.6411 -0.2571
  829MOL0     C11826   5.846   0.976  10.590  1.0121  0.8037 -0.0567
  829MOL0     C11827   5.964   1.049  10.568  0.5210 -0.9602 -0.1335
  829MOL0     O11828   6.097   1.324  10.622 -0.1734 -0.3135  0.5260
  829MOL0     C11829   6.309   1.377  10.353 -0.2109 -0.3302 -0.6580
  829MOL0     C11830   6.425   1.438  10.309 -0.2764 -0.1955  0.6158
  829MOL0     N11831   7.226   1.333  10.305 -0.1466 -0.3231  0.6606
  829MOL0     N11832   7.340   1.280  10.272  0.1192 -0.1539 -0.5093
  829MOL0     C11833   8.491   0.807  10.450  0.0908  0.6529 -0.0884
  829MOL0     C11834   8.584   0.727  10.511 -0.1925  0.2850 -0.1131
  829MOL0     C11835   8.954   0.561  10.687  0.4476  0.3498 -0.0436
  829MOL0     C11836   8.956   0.498  10.815  0.1053  0.5981  0.1938
  829MOL0     C11837   9.074   0.425  10.850 -0.1011 -0.2102  0.5272
  829MOL0     C11838   9.180   0.401  10.758  0.1336  0.2635 -0.0581
  829MOL0     O11839   9.297   0.356  10.819 -0.3019  0.4064 -1.2779
  829MOL0     C11840   9.408   0.311  10.740 -0.0379  0.2109  0.2413
  829MOL0     C11841   9.525   0.271  10.826  0.7884  0.5346 -0.6525
  829MOL0     C11842   9.652   0.253  10.753 -0.2890 -0.2688  0.0128
  829MOL0     C11843   9.781   0.230  10.839  0.1659 -0.0607  0.2742
  829MOL0     C11844   9.782   0.101  10.913  0.7709  0.3123 -0.0540
  829MOL0     C11845   9.771  -0.003  10.979  0.0332  0.4583  0.1483
  829MOL0     C11846   9.171   0.458  10.631  0.0577  0.1866  0.5378
  829MOL0     C11847   9.058   0.536  10.596 -0.2228 -0.1685 -0.3184
  829MOL0     H11848   8.863   0.856  10.352 -0.6432  0.5569 -1.9381
  829MOL0     H11849   8.683   0.997  10.243  1.2233  0.4713  0.9968
  829MOL0     H11850   8.260   0.938  10.398 -0.2786 -0.9392 -3.0151
  829MOL0     H11851   8.340   1.100  10.432  2.3137  0.4217 -1.9969
  829MOL0     H11852   8.274   1.188  10.236 -1.4844  0.3431  0.3208
  829MOL0     H11853   8.225   1.027  10.167 -0.6094  0.0105  0.0584
  829MOL0     H11854   8.043   1.006  10.331 -0.2984 -0.4127 -0.7650
  829MOL0     H11855   8.073   1.166  10.405 -1.8067 -1.8973  1.1040
  829MOL0     H11856   8.050   1.253  10.154 -1.1147 -0.7852  1.0190
  829MOL0     H11857   7.990   1.080  10.130  1.0286 -1.0684  0.6540
  829MOL0     H11858   7.834   1.125  10.311  0.1693 -1.6226 -0.7240
  829MOL0     H11859   7.892   1.286  10.328 -1.1980 -0.5649  1.0623
  829MOL0     H11860   7.804   1.346  10.109  5.2921 -0.0617  2.2586
  829MOL0     H11861   7.773   1.177  10.060  2.3041  0.3356 -0.6874
  829MOL0     H11862   7.577   1.152  10.208 -2.4420  0.4707 -2.1114
  829MOL0     H11863   7.638   1.296  10.298  2.3598  0.6452 -1.3240
  829MOL0     H11864   7.523   1.298  10.017  0.7128  0.3747  0.4145
  829MOL0     H11865   7.585   1.438  10.105  0.8323  0.0368 -0.4915
  829MOL0     H11866   7.352   1.558  10.104 -1.2483  1.9553  1.1665
  829MOL0     H11867   7.116   1.615  10.330  0.3851  0.0420  0.0470
  829MOL0     H11868   7.071   1.595  10.158  0.7543  2.5849  1.1268
  829MOL0     H11869   6.982   1.435  10.387  3.7480 -1.6962 -1.4367
  829MOL0     H11870   6.978   1.364  10.229  2.5655 -0.5764  0.5837
  829MOL0     H11871   6.794   1.496  10.163  0.2289  1.2275 -0.0007
  829MOL0     H11872   6.853   1.642  10.232 -0.0966 -0.0716 -0.4800
  829MOL0     H11873   6.788   1.550  10.468  1.6277  1.3388 -1.3846
  829MOL0     H11874   6.750   1.397  10.393  0.1611  0.2882  0.8503
  829MOL0     H11875   6.548   1.535  10.612  2.0724 -3.7377  1.1907
  829MOL0     H11876   6.238   1.473  10.744 -2.9809 -3.3594 -0.8855
  829MOL0     H11877   6.337   1.324  10.761  3.9341  0.4067  0.1375
  829MOL0     H11878   6.416   1.489  10.775  0.7044  1.1610 -1.7837
  829MOL0     H11879   5.868   1.232  10.297 -1.9388  0.8602  0.6203
  829MOL0     H11880   5.661   1.115  10.350  0.3909 -0.1394 -1.4249
  829MOL0     H11881   5.485   1.043  10.467 -0.4306 -0.2368 -0.5382
  829MOL0     H11882   5.516   0.898  10.380  1.8117 -1.1914  0.0356
  829MOL0     H11883   5.450   0.776  10.585  3.2867  2.5617  3.8313
  829MOL0     H11884   5.382   0.920  10.654  1.2781  0.6069 -0.5994
  829MOL0     H11885   5.323   0.789  10.403  1.4909 -1.2985  1.8083
  829MOL0     H11886   5.244   0.947  10.426  1.8729  1.3146  0.8830
  829MOL0     H11887   5.202   0.693  10.601  1.3624  1.2085  2.9407
  829MOL0     H11888   5.149   0.855  10.642 -0.3335 -0.7367  0.0665
  829MOL0     H11889   5.061   0.683  10.410  0.0361 -0.9354  0.7543
  829MOL0     H11890   4.990   0.845  10.438 -2.1738 -0.5441  1.8674
  829MOL0     H11891   4.969   0.630  10.655  0.8708  0.6632 -0.2082
  829MOL0     H11892   4.893   0.786  10.650  2.1918  2.6735 -1.1704
  829MOL0     H11893   4.832   0.619  10.403  0.7610  0.8460 -0.2206
  829MOL0     H11894   4.728   0.735  10.487 -1.5482 -0.9786 -2.4285
  829MOL0     H11895   4.719   0.550  10.683 -1.1827 -3.2358  0.4129
  829MOL0     H11896   4.790   0.451  10.555 -0.0877 -0.1049  0.6572
  829MOL0     H11897   5.831   0.900  10.666  2.2632 -1.6008 -2.0607
  829MOL0     H11898   6.050   1.021  10.627  1.1140  0.1668 -0.4303
  829MOL0     H11899   6.257   1.332  10.270  0.7002 -0.6549 -1.0692
  829MOL0     H11900   6.455   1.440  10.205 -0.2313  1.1846  0.6329
  829MOL0     H11901   8.387   0.780  10.467 -0.0557 -0.3991 -2.2616
  829MOL0     H11902   8.560   0.656  10.590 -0.6314  2.7838  2.1557
  829MOL0     H11903   8.869   0.504  10.879  0.0645  2.2934  0.0055
  829MOL0     H11904   9.076   0.383  10.950  0.1849 -2.3502 -0.3331
  829MOL0     H11905   9.378   0.221  10.686 -0.8687 -0.9368  2.4594
  829MOL0     H11906   9.442   0.389  10.671  2.8328 -0.6415  0.5667
  829MOL0     H11907   9.504   0.178  10.879  0.5623  0.1710 -1.3627
  829MOL0     H11908   9.544   0.355  10.893 -2.6264  3.5875 -3.1058
  829MOL0     H11909   9.664   0.349  10.700 -1.3840  0.2838  0.7383
  829MOL0     H11910   9.654   0.169  10.683 -4.7146 -3.2482  2.9755
  829MOL0     H11911   9.796   0.319  10.900 -0.2248  0.5753 -0.5356
  829MOL0     H11912   9.868   0.236  10.772  1.9319  0.9037  2.5335
  829MOL0     H11913   9.771  -0.095  11.034 -0.5233 -0.0850 -0.7362
  829MOL0     H11914   9.249   0.440  10.558 -0.2019 -2.0615  0.7310
  829MOL0     H11915   9.069   0.572  10.494  0.4183 -1.1077 -0.5960
  830MOL0     O11916   0.353   1.885   8.515 -0.0089  0.2690  0.3743
  830MOL0     C11917   0.379   1.789   8.595  0.8130  0.2873  0.3484
  830MOL0     O11918   0.286   1.719   8.666 -0.0211  0.7282  0.2879
  830MOL0     C11919   0.149   1.748   8.655 -0.3344 -0.5129  0.0715
  830MOL0     C11920   0.091   1.871   8.669 -0.0614 -0.1203  0.2001
  830MOL0     C11921  -0.048   1.891   8.672 -0.1579 -0.9189  0.8977
  830MOL0     C11922  -0.132   1.783   8.669 -0.3736 -0.4255 -0.7139
  830MOL0     O11923  -0.273   1.800   8.690 -0.1201  1.2029  0.2497
  830MOL0     C11924  -0.310   1.819   8.827 -0.0761  0.2980 -0.4432
  830MOL0     C11925  -0.448   1.774   8.858  0.1105 -0.3383 -0.2809
  830MOL0     C11926  -0.477   1.626   8.840  0.3380  0.4827  0.2338
  830MOL0     C11927  -0.636   1.597   8.835 -0.1566 -0.2468  0.1837
  830MOL0     C11928  -0.710   1.629   8.963 -0.4688  0.4403 -0.8899
  830MOL0     C11929  -0.855   1.606   8.956  0.2509 -0.2095 -0.0931
  830MOL0     C11930  -0.931   1.651   9.080  0.1449  0.2989 -0.2135
  830MOL0     C11931  -1.092   1.633   9.055 -0.9485  0.5338  0.5581
  830MOL0     N11932  -1.160   1.650   9.181 -0.4813 -0.3665 -0.0596
  830MOL0     C11933  -1.162   1.775   9.239  0.6993 -0.1353 -0.3160
  830MOL0     C11934  -1.259   1.767   9.338 -0.3350  0.6516 -0.5138
  830MOL0     C11935  -1.307   1.872   9.437  0.3535  0.5174  0.0749
  830MOL0     C11936  -1.418   1.953   9.369 -0.1325  0.7633 -0.3239
  830MOL0     C11937  -1.551   1.942   9.446  0.1807 -0.6037 -0.1759
  830MOL0     C11938  -1.616   1.806   9.417  1.0270  0.3583 -0.7828
  830MOL0     O11939  -1.753   1.810   9.462  0.4289  0.0299  0.2129
  830MOL0     C11940  -1.856   1.854   9.380  1.4427  0.1664  0.6953
  830MOL0     C11941  -1.850   1.880   9.241  0.3820 -0.2661  1.0190
  830MOL0     C11942  -1.963   1.922   9.170  0.0241 -0.0642  0.5714
  830MOL0     C11943  -1.937   1.969   9.028 -0.0271  0.6802  0.1875
  830MOL0     C11944  -2.087   1.942   9.240 -1.1272  0.3553  0.0238
  830MOL0     C11945  -2.212   2.002   9.185  0.6858 -0.2547 -0.7014
  830MOL0     O11946  -2.220   2.006   9.050 -0.7781  0.0825  0.1324
  830MOL0     C11947  -2.329   2.061   8.981  0.3947 -0.9432 -0.7609
  830MOL0     C11948  -2.446   1.990   8.982  0.1483 -0.5069 -0.2003
  830MOL0     C11949  -2.570   2.045   8.935  0.3428  0.0514 -0.0960
  830MOL0     C11950  -2.568   2.172   8.877 -0.6240  0.1885 -0.1552
  830MOL0     O11951  -2.676   2.234   8.823 -0.1392  0.5112  0.7640
  830MOL0     C11952  -2.813   2.195   8.865  1.4215  0.4822 -0.8920
  830MOL0     C11953  -2.866   2.088   8.768  0.0816  0.9069 -0.8364
  830MOL0     C11954  -3.004   2.044   8.818  0.2429 -0.3186  0.2731
  830MOL0     C11955  -3.053   1.937   8.727 -0.0715 -0.1073  0.5824
  830MOL0     C11956  -3.206   1.903   8.757 -1.0892 -0.3649  0.4282
  830MOL0     C11957  -3.236   1.754   8.731 -0.5656 -0.1851  0.1115
  830MOL0     C11958  -3.378   1.728   8.773 -0.1030 -0.2115 -0.5590
  830MOL0     C11959  -3.488   1.779   8.677  0.7421 -0.1416 -0.1363
  830MOL0    Cl11960  -3.498   1.661   8.545 -0.0469 -0.1210  0.2677
  830MOL0     C11961  -2.438   2.243   8.879  1.0894  0.4471 -0.3171
  830MOL0     C11962  -2.324   2.192   8.942 -1.0360 -0.1344  0.1985
  830MOL0     O11963  -2.308   2.034   9.260  0.1606 -0.2347 -0.5721
  830MOL0     C11964  -2.093   1.904   9.378 -0.0708  0.6130 -0.3392
  830MOL0     C11965  -1.979   1.858   9.444  0.2523  0.2465 -0.2888
  830MOL0     N11966  -1.298   1.631   9.346 -0.2694  0.0556  0.6020
  830MOL0     N11967  -1.242   1.561   9.251 -0.3440 -0.0479  0.2561
  830MOL0     C11968  -0.074   1.656   8.659  0.0711  0.0435 -0.8599
  830MOL0     C11969   0.068   1.633   8.652  0.9193 -0.8411 -0.1765
  830MOL0     C11970   0.516   1.739   8.614  0.1265 -0.3147 -0.4779
  830MOL0     C11971   0.546   1.604   8.644 -0.2555  0.0553 -0.8482
  830MOL0     C11972   0.678   1.564   8.668 -0.1182 -0.9253  0.2547
  830MOL0     C11973   0.781   1.661   8.647  0.3649 -0.0322  0.1452
  830MOL0     O11974   0.910   1.621   8.652 -0.8231  0.2872  0.1228
  830MOL0     C11975   0.949   1.492   8.689  0.6054 -0.3494 -0.4239
  830MOL0     C11976   1.100   1.462   8.670 -0.5966 -0.1810 -0.3898
  830MOL0     C11977   1.166   1.477   8.526  0.2176  0.3135  0.3800
  830MOL0     C11978   1.317   1.469   8.516  0.9539  0.1827  0.1284
  830MOL0     C11979   1.364   1.494   8.380 -0.7234 -0.2760 -0.6359
  830MOL0     C11980   1.390   1.534   8.266 -0.5223 -0.0386 -0.6680
  830MOL0     C11981   0.756   1.790   8.602 -0.0568  0.3981  0.4868
  830MOL0     C11982   0.623   1.830   8.593 -0.0877  0.6216 -0.6402
  830MOL0     H11983   0.152   1.961   8.667  0.6784 -0.6187 -0.2778
  830MOL0     H11984  -0.102   1.985   8.679  0.7375  0.0425 -2.9772
  830MOL0     H11985  -0.234   1.783   8.897  1.1697 -0.4996 -2.1367
  830MOL0     H11986  -0.308   1.926   8.852 -0.4880 -0.5661  4.1398
  830MOL0     H11987  -0.470   1.796   8.963  0.9250 -0.0480 -0.1614
  830MOL0     H11988  -0.513   1.829   8.789  1.7990  0.8357 -0.9932
  830MOL0     H11989  -0.443   1.582   8.746  2.0700  0.0924  1.0133
  830MOL0     H11990  -0.412   1.574   8.911 -0.1752  1.4061  1.4229
  830MOL0     H11991  -0.670   1.663   8.755 -0.1976  0.4073  0.7208
  830MOL0     H11992  -0.654   1.493   8.808  1.8620 -0.1635 -1.8012
  830MOL0     H11993  -0.671   1.556   9.035  0.6380  0.8117 -1.0865
  830MOL0     H11994  -0.687   1.728   9.004 -0.8238  0.1051  0.1567
  830MOL0     H11995  -0.898   1.656   8.869 -1.1713 -2.4994 -0.8067
  830MOL0     H11996  -0.870   1.499   8.934  1.7496  0.5070 -6.5148
  830MOL0     H11997  -0.904   1.590   9.167 -0.6620  1.4369  0.8798
  830MOL0     H11998  -0.904   1.753   9.111 -0.0109 -0.0876  1.2909
  830MOL0     H11999  -1.108   1.536   9.007  1.7359  0.2766 -0.0263
  830MOL0     H12000  -1.124   1.704   8.978 -0.3126 -2.1991 -2.4475
  830MOL0     H12001  -1.106   1.864   9.214  1.4725 -0.6720 -0.5439
  830MOL0     H12002  -1.353   1.825   9.525  0.1594  0.1980 -0.1972
  830MOL0     H12003  -1.233   1.943   9.476  1.4959 -0.4041 -0.3585
  830MOL0     H12004  -1.433   1.930   9.264  2.7439 -1.5497 -0.3437
  830MOL0     H12005  -1.384   2.056   9.384  1.9979 -0.0776  1.0712
  830MOL0     H12006  -1.612   2.027   9.414  0.3672 -0.1388  0.6974
  830MOL0     H12007  -1.522   1.947   9.551 -0.0775 -0.4114 -0.1122
  830MOL0     H12008  -1.550   1.730   9.460  0.2978  0.0675 -0.1642
  830MOL0     H12009  -1.617   1.780   9.311 -1.0260 -2.1832 -0.2280
  830MOL0     H12010  -1.757   1.871   9.185  0.6926  0.7334  1.3592
  830MOL0     H12011  -2.021   1.960   8.958 -0.3318  2.4295  0.2978
  830MOL0     H12012  -1.902   2.072   9.027  1.9718  0.0690 -1.8579
  830MOL0     H12013  -1.848   1.916   8.992  0.7883 -0.5106  3.5608
  830MOL0     H12014  -2.452   1.896   9.035  0.0673  1.2232  3.1664
  830MOL0     H12015  -2.655   1.980   8.949 -0.1219  0.9563  1.4726
  830MOL0     H12016  -2.816   2.165   8.970 -0.2295  1.3995 -0.6452
  830MOL0     H12017  -2.877   2.282   8.856 -0.5501 -0.7087  0.8827
  830MOL0     H12018  -2.870   2.132   8.668 -0.9495  2.0802 -0.3033
  830MOL0     H12019  -2.797   2.003   8.762  1.1900  1.6266  0.9524
  830MOL0     H12020  -3.067   2.132   8.805  2.4292  1.7823  2.7341
  830MOL0     H12021  -3.008   2.005   8.920  2.1411  0.6033  0.7453
  830MOL0     H12022  -3.048   1.965   8.621 -1.3619  1.2428  0.8497
  830MOL0     H12023  -2.994   1.846   8.740  0.7106  0.7386  3.6742
  830MOL0     H12024  -3.264   1.971   8.694  0.0348 -0.8111 -1.1547
  830MOL0     H12025  -3.232   1.940   8.857 -0.0024  2.0850 -0.1247
  830MOL0     H12026  -3.216   1.746   8.624  1.7194  1.9990  0.2827
  830MOL0     H12027  -3.175   1.686   8.790 -1.6936 -0.6277  0.8122
  830MOL0     H12028  -3.400   1.768   8.872  0.4316 -0.9143 -0.1447
  830MOL0     H12029  -3.391   1.619   8.783  1.7788 -0.3458  1.1905
  830MOL0     H12030  -3.471   1.883   8.648  0.5694  0.0621  0.4808
  830MOL0     H12031  -3.578   1.787   8.738  2.2148  3.2024  1.9652
  830MOL0     H12032  -2.444   2.340   8.831 -0.6770 -0.1679 -1.4216
  830MOL0     H12033  -2.230   2.245   8.951 -2.0374  1.9486 -0.9795
  830MOL0     H12034  -2.178   1.904   9.445 -0.4037 -0.3637 -0.7492
  830MOL0     H12035  -1.972   1.841   9.551  0.8057 -2.3050 -0.6829
  830MOL0     H12036  -0.153   1.583   8.642 -0.1495  0.6490 -2.6452
  830MOL0     H12037   0.108   1.532   8.651 -0.5855 -1.7003  4.0912
  830MOL0     H12038   0.468   1.530   8.660 -0.6104  0.9485  2.0146
  830MOL0     H12039   0.689   1.458   8.691  0.1520 -1.0009 -0.2217
  830MOL0     H12040   0.928   1.489   8.796 -1.5681  4.3231 -0.4604
  830MOL0     H12041   0.893   1.410   8.643 -1.6309  0.2118  1.1071
  830MOL0     H12042   1.128   1.367   8.716  2.7996  0.5250 -0.6914
  830MOL0     H12043   1.160   1.532   8.729  1.4562  0.3348 -2.9165
  830MOL0     H12044   1.135   1.576   8.493 -1.6548  1.2515  4.3124
  830MOL0     H12045   1.122   1.406   8.456  2.1961  0.9725 -1.6284
  830MOL0     H12046   1.336   1.364   8.542  1.2540 -0.8464 -3.6263
  830MOL0     H12047   1.354   1.529   8.599  0.3274  1.4570 -0.4838
  830MOL0     H12048   1.411   1.541   8.161  0.9460  2.7188 -0.2850
  830MOL0     H12049   0.837   1.851   8.563  1.8001 -2.4264 -0.3630
  830MOL0     H12050   0.599   1.933   8.565  0.4147  1.4846  1.8720
  831MOL0     O12051   9.728   7.737   9.911 -0.2562 -0.1172  0.4863
  831MOL0     C12052   9.764   7.618   9.877 -0.0888 -0.5236 -0.2038
  831MOL0     O12053   9.678   7.511   9.852  0.3533  0.3889  0.7140
  831MOL0     C12054   9.541   7.524   9.857 -0.3469  0.2449  0.0696
  831MOL0     C12055   9.471   7.602   9.955  0.5502 -0.1247  0.2600
  831MOL0     C12056   9.330   7.587   9.965  0.9629 -0.3664 -0.1053
  831MOL0     C12057   9.256   7.501   9.882 -1.0801  0.1137 -0.4065
  831MOL0     O12058   9.122   7.485   9.879  0.4308 -0.2748 -0.0085
  831MOL0     C12059   9.064   7.468  10.010  0.2583  0.8452  0.5144
  831MOL0     C12060   8.917   7.425   9.996 -0.1596 -0.1370  0.1003
  831MOL0     C12061   8.835   7.502   9.904  0.7113 -0.0911 -0.0538
  831MOL0     C12062   8.804   7.639   9.945  0.2891  0.3734  1.0938
  831MOL0     C12063   8.708   7.710   9.856  0.3539 -0.0019 -0.6729
  831MOL0     C12064   8.555   7.665   9.867  0.6015  1.1702 -0.0978
  831MOL0     C12065   8.464   7.763   9.791  0.2621 -0.7356 -0.6209
  831MOL0     C12066   8.312   7.740   9.803 -0.3642 -0.0363 -0.5482
  831MOL0     N12067   8.268   7.619   9.740 -0.9759  0.2389 -0.0706
  831MOL0     C12068   8.264   7.588   9.604 -0.7388 -0.3950 -0.0561
  831MOL0     C12069   8.202   7.471   9.595 -0.0765  0.0743 -0.2759
  831MOL0     C12070   8.162   7.407   9.464 -0.1981 -0.3446  0.1520
  831MOL0     C12071   8.019   7.466   9.424 -0.3507  0.0169 -0.6947
  831MOL0     C12072   7.967   7.393   9.299 -0.1308  0.5242  0.8313
  831MOL0     C12073   7.811   7.413   9.284 -0.1237  0.7373 -0.2705
  831MOL0     O12074   7.751   7.288   9.327 -0.5609 -0.1662  0.2299
  831MOL0     C12075   7.629   7.249   9.274  0.0943  0.0688 -0.2995
  831MOL0     C12076   7.579   7.129   9.321  0.0883 -1.0093 -0.4186
  831MOL0     C12077   7.456   7.084   9.268  0.3446 -0.6401 -0.3699
  831MOL0     C12078   7.413   6.956   9.314  0.3514  0.1174 -0.1303
  831MOL0     C12079   7.382   7.159   9.171 -0.5548 -0.0553 -0.1897
  831MOL0     C12080   7.248   7.124   9.105 -0.7123 -0.1681  0.1345
  831MOL0     O12081   7.214   7.171   8.985 -0.4429 -1.1765 -0.8759
  831MOL0     C12082   7.099   7.136   8.916  0.0300 -0.1332  0.7470
  831MOL0     C12083   7.008   7.025   8.934 -0.1052  0.3610 -0.2856
  831MOL0     C12084   6.899   7.013   8.852 -0.0614  0.8535  0.8199
  831MOL0     C12085   6.871   7.096   8.742 -0.3208  0.4986 -0.5182
  831MOL0     O12086   6.756   7.098   8.676 -0.7358 -0.1695  0.0230
  831MOL0     C12087   6.636   7.043   8.747  0.6751 -0.2045 -0.4737
  831MOL0     C12088   6.513   7.074   8.660 -0.2516  0.2533 -0.1643
  831MOL0     C12089   6.383   7.050   8.735 -0.0031  0.1117  0.0782
  831MOL0     C12090   6.265   7.061   8.635 -0.0873 -0.5457  0.5966
  831MOL0     C12091   6.136   7.007   8.667 -0.2363 -1.5013 -0.1432
  831MOL0     C12092   6.027   7.074   8.579 -0.3834 -0.0904 -0.1291
  831MOL0     C12093   5.888   7.026   8.630 -0.2585  0.3827 -0.5865
  831MOL0     C12094   5.772   7.083   8.552 -0.3015  0.0044  0.0058
  831MOL0    Cl12095   5.617   7.041   8.630 -0.0161 -0.2199  0.2989
  831MOL0     C12096   6.962   7.199   8.721 -0.1457 -0.0472 -0.1692
  831MOL0     C12097   7.072   7.231   8.811 -1.0088  1.0726  0.2483
  831MOL0     O12098   7.175   7.053   9.174  0.3827  0.0537  0.1062
  831MOL0     C12099   7.440   7.286   9.133 -0.1811 -0.6389  0.5263
  831MOL0     C12100   7.560   7.327   9.181 -0.0915  0.6349 -0.2214
  831MOL0     N12101   8.181   7.419   9.725 -0.1178 -0.5276  0.0909
  831MOL0     N12102   8.224   7.509   9.812  0.3206  0.1342  0.8685
  831MOL0     C12103   9.329   7.440   9.780  1.0568  0.3312 -0.2381
  831MOL0     C12104   9.465   7.435   9.778  0.0053  0.2232 -0.6098
  831MOL0     C12105   9.909   7.581   9.868  0.3467  0.7765  0.3139
  831MOL0     C12106  10.012   7.675   9.852  0.9510  0.8680 -0.2046
  831MOL0     C12107  10.147   7.647   9.853 -0.2044  0.6324  0.2234
  831MOL0     C12108  10.196   7.522   9.878 -0.3659 -0.5358 -0.5995
  831MOL0     O12109  10.333   7.507   9.891  0.4991 -0.2197  0.1760
  831MOL0     C12110  10.385   7.373   9.902 -0.4044 -0.0966 -0.5406
  831MOL0     C12111  10.532   7.370   9.917 -0.6943  0.0097  0.7354
  831MOL0     C12112  10.605   7.238   9.939  0.3060  0.3822 -0.4195
  831MOL0     C12113  10.756   7.249   9.937 -0.8353 -0.1646 -0.2148
  831MOL0     C12114  10.814   7.342  10.041 -0.1871 -0.8153 -0.7037
  831MOL0     C12115  10.857   7.413  10.132 -0.7573  0.5876  0.3701
  831MOL0     C12116  10.098   7.425   9.904 -1.0066 -0.4308 -0.5311
  831MOL0     C12117   9.960   7.449   9.896  0.5619  0.2565  0.0972
  831MOL0     H12118   9.533   7.670  10.013 -0.3618  0.0030  1.0982
  831MOL0     H12119   9.275   7.651  10.033  0.3383 -1.6711  0.6414
  831MOL0     H12120   9.110   7.379  10.052 -1.7102 -0.7133 -0.4823
  831MOL0     H12121   9.083   7.550  10.080 -0.6782  1.2173  0.3457
  831MOL0     H12122   8.922   7.323   9.958  1.6083  1.1171 -3.4100
  831MOL0     H12123   8.870   7.431  10.095  1.7427 -1.0460  1.1109
  831MOL0     H12124   8.879   7.494   9.804  3.6253 -0.0908  1.1419
  831MOL0     H12125   8.737   7.455   9.907 -0.0416  1.4542  1.2158
  831MOL0     H12126   8.764   7.638  10.047 -0.8480  2.7996  0.7447
  831MOL0     H12127   8.895   7.700   9.951 -0.4707  1.8782 -1.2729
  831MOL0     H12128   8.721   7.818   9.867 -0.5681 -0.1351  3.6619
  831MOL0     H12129   8.742   7.694   9.753  1.6042  0.8201 -0.3983
  831MOL0     H12130   8.542   7.563   9.829  1.9295  0.5374  1.0499
  831MOL0     H12131   8.534   7.656   9.974  4.9807 -1.0067  0.8195
  831MOL0     H12132   8.485   7.863   9.829  0.2481  0.1579 -2.7834
  831MOL0     H12133   8.493   7.757   9.685  1.6757 -1.0069 -0.2325
  831MOL0     H12134   8.257   7.818   9.751 -1.8396 -1.2479 -0.8652
  831MOL0     H12135   8.289   7.731   9.910 -1.5031 -1.2440 -0.8745
  831MOL0     H12136   8.304   7.641   9.518 -0.9012 -0.4899 -0.1880
  831MOL0     H12137   8.230   7.444   9.387 -1.7189  4.3168  0.7229
  831MOL0     H12138   8.155   7.298   9.467  0.4821 -0.6058 -3.4362
  831MOL0     H12139   8.026   7.573   9.407 -0.8719 -0.2468 -2.9894
  831MOL0     H12140   7.945   7.444   9.502  0.4781 -0.8412 -0.1234
  831MOL0     H12141   7.992   7.286   9.297  2.2793  1.0495 -0.0920
  831MOL0     H12142   8.020   7.438   9.215 -1.8201  2.8797  0.9199
  831MOL0     H12143   7.786   7.446   9.182  0.6812 -0.8371 -1.0288
  831MOL0     H12144   7.776   7.484   9.359  0.0139  0.8502 -0.3116
  831MOL0     H12145   7.642   7.066   9.383  2.5336  1.2966 -0.3571
  831MOL0     H12146   7.311   6.950   9.354  0.6632  1.0975  0.8782
  831MOL0     H12147   7.417   6.883   9.233 -1.6882  1.7387 -1.8230
  831MOL0     H12148   7.477   6.921   9.396  0.6256  1.1075  0.0913
  831MOL0     H12149   7.010   6.953   9.015  1.6420 -1.1349 -1.5715
  831MOL0     H12150   6.823   6.939   8.875 -0.4753  0.9385 -0.2209
  831MOL0     H12151   6.646   6.939   8.779 -1.7940  0.1377  1.7590
  831MOL0     H12152   6.627   7.092   8.845 -0.0292 -4.4173  1.7827
  831MOL0     H12153   6.507   7.178   8.627 -3.2425  0.7274  1.4792
  831MOL0     H12154   6.525   7.010   8.572 -2.2135 -0.4329  0.0123
  831MOL0     H12155   6.386   7.123   8.816  1.6267 -1.1235  1.1766
  831MOL0     H12156   6.384   6.948   8.775 -0.3103 -0.9294 -2.3602
  831MOL0     H12157   6.243   7.166   8.615 -2.7644 -0.7710  1.8252
  831MOL0     H12158   6.290   7.027   8.534  0.7011  3.6103 -0.7754
  831MOL0     H12159   6.123   7.033   8.773  1.8586  3.2024 -0.7659
  831MOL0     H12160   6.136   6.899   8.652 -2.1443 -1.5858  0.1824
  831MOL0     H12161   6.037   7.182   8.585 -2.0472  0.0097  1.9627
  831MOL0     H12162   6.050   7.041   8.477  0.8482 -3.7409  1.1433
  831MOL0     H12163   5.869   7.050   8.735 -2.0692  1.0900 -1.0367
  831MOL0     H12164   5.886   6.916   8.624  1.5466  0.1584  1.4921
  831MOL0     H12165   5.768   7.055   8.446 -0.1636 -0.4541  0.1211
  831MOL0     H12166   5.786   7.192   8.552 -2.6331  0.4852 -3.3390
  831MOL0     H12167   6.929   7.274   8.649  0.1344  1.6909  1.4220
  831MOL0     H12168   7.129   7.323   8.807  3.1447 -1.2804 -0.6507
  831MOL0     H12169   7.393   7.356   9.065  2.6164 -0.3840 -1.3025
  831MOL0     H12170   7.594   7.427   9.154 -3.2656  1.1639 -2.9262
  831MOL0     H12171   9.272   7.378   9.712 -0.4313  1.3312  0.0553
  831MOL0     H12172   9.518   7.376   9.704  1.1741  2.4103 -1.6163
  831MOL0     H12173   9.992   7.780   9.831  0.4793  0.7928 -0.1506
  831MOL0     H12174  10.207   7.736   9.836  1.7931 -0.5003  0.9729
  831MOL0     H12175  10.337   7.321   9.986 -3.4802  4.7719  1.1401
  831MOL0     H12176  10.360   7.317   9.812  1.1285 -0.7130 -0.6027
  831MOL0     H12177  10.558   7.438   9.999  1.1824  0.8309 -0.4673
  831MOL0     H12178  10.563   7.412   9.821 -1.6663  0.2052  0.4946
  831MOL0     H12179  10.557   7.167   9.871 -1.3140  0.8540  0.1590
  831MOL0     H12180  10.576   7.202  10.039 -0.0660  0.7855 -0.3760
  831MOL0     H12181  10.803   7.283   9.844 -0.6473  3.1029  0.9395
  831MOL0     H12182  10.790   7.145   9.946 -1.6929 -0.3382  1.3616
  831MOL0     H12183  10.892   7.476  10.212  1.8802 -0.1790 -0.1035
  831MOL0     H12184  10.137   7.329   9.934  1.6540  1.3190  2.2388
  831MOL0     H12185   9.883   7.377   9.924  1.3567 -0.8295 -0.4539
  832MOL0     O12186   2.191   8.854   6.067  0.1385 -0.6152 -0.0065
  832MOL0     C12187   2.262   8.812   5.977 -1.0413  0.4556 -0.7448
  832MOL0     O12188   2.217   8.751   5.865  0.0753 -0.0824 -0.4536
  832MOL0     C12189   2.093   8.774   5.823  0.9652  0.5794 -0.8225
  832MOL0     C12190   1.986   8.692   5.876 -0.4994  0.3105  0.3817
  832MOL0     C12191   1.856   8.711   5.822 -0.5297  0.4556 -0.1389
  832MOL0     C12192   1.831   8.805   5.727 -0.4681 -0.2423 -0.6300
  832MOL0     O12193   1.708   8.806   5.685  0.0491 -0.5265 -0.5022
  832MOL0     C12194   1.652   8.938   5.663 -0.0414 -0.2175  0.0050
  832MOL0     C12195   1.505   8.942   5.635 -0.2760  0.5224 -0.0109
  832MOL0     C12196   1.469   9.080   5.573  0.5839  0.1741  0.2866
  832MOL0     C12197   1.336   9.060   5.510 -0.0419 -0.0759 -0.1742
  832MOL0     C12198   1.264   9.188   5.445 -0.0652  0.0309 -0.4688
  832MOL0     C12199   1.176   9.271   5.542 -0.8521  0.5009  0.4355
  832MOL0     C12200   1.135   9.403   5.475  0.4756  0.1537 -0.3192
  832MOL0     C12201   1.083   9.512   5.568  0.0596  0.1449  1.0184
  832MOL0     N12202   0.991   9.446   5.668  0.3163 -0.6486 -0.4450
  832MOL0     C12203   0.870   9.384   5.639 -0.2918  0.9754  0.7750
  832MOL0     C12204   0.804   9.371   5.763 -0.0690  0.3118 -0.2815
  832MOL0     C12205   0.663   9.318   5.762 -0.4980 -0.5835 -0.4107
  832MOL0     C12206   0.678   9.172   5.815  0.5602 -0.1089 -0.0194
  832MOL0     C12207   0.546   9.095   5.779 -0.4827 -0.1728  0.2118
  832MOL0     C12208   0.431   9.131   5.891 -0.1096 -0.6760  0.5500
  832MOL0     O12209   0.311   9.070   5.844  0.7026 -0.3085  0.3883
  832MOL0     C12210   0.188   9.108   5.904 -0.3901 -0.1110  0.3161
  832MOL0     C12211   0.174   9.214   6.007  0.5842 -1.2531 -0.1924
  832MOL0     C12212   0.044   9.245   6.052 -0.0952  0.2532 -0.1355
  832MOL0     C12213   0.037   9.369   6.137 -0.3293 -1.1823 -0.4069
  832MOL0     C12214  -0.072   9.162   6.021  0.1958  0.0205 -0.9496
  832MOL0     C12215  -0.208   9.180   6.073  0.2967  0.6699 -0.2534
  832MOL0     O12216  -0.295   9.078   6.029 -0.0696 -0.4877 -0.5272
  832MOL0     C12217  -0.434   9.105   6.024  0.4562 -0.4206 -0.3829
  832MOL0     C12218  -0.514   8.992   6.027  0.2521  0.5021  0.1962
  832MOL0     C12219  -0.656   9.002   5.995 -0.3609  0.0215  0.5807
  832MOL0     C12220  -0.716   9.125   5.972 -0.0959  0.1666 -0.4780
  832MOL0     O12221  -0.856   9.126   5.957  0.7683  0.2759 -0.3178
  832MOL0     C12222  -0.924   9.248   5.988  0.8265  0.8693  0.1044
  832MOL0     C12223  -1.072   9.232   5.990 -0.6378  0.4040 -0.6023
  832MOL0     C12224  -1.124   9.145   6.110 -0.2131  0.0735 -0.1106
  832MOL0     C12225  -1.262   9.185   6.136  0.2830 -0.2840  0.2654
  832MOL0     C12226  -1.344   9.099   6.232  0.7961  0.2132 -0.8543
  832MOL0     C12227  -1.480   9.172   6.255  0.7029 -0.4726 -0.2811
  832MOL0     C12228  -1.587   9.083   6.322 -0.7659 -0.4620  0.2175
  832MOL0     C12229  -1.579   9.104   6.477 -0.0603  0.8813 -0.0533
  832MOL0    Cl12230  -1.661   9.262   6.526  0.2320  0.1812 -0.1677
  832MOL0     C12231  -0.642   9.236   5.978 -0.2372 -0.0873  1.4373
  832MOL0     C12232  -0.501   9.227   6.006  1.2127 -1.1522  0.5310
  832MOL0     O12233  -0.238   9.284   6.143 -0.0380  0.1879 -0.3269
  832MOL0     C12234  -0.046   9.049   5.934  0.7097 -0.3518 -0.6493
  832MOL0     C12235   0.076   9.029   5.865 -0.2841  0.7733  0.2974
  832MOL0     N12236   0.890   9.404   5.866  0.7216 -0.4388  0.3846
  832MOL0     N12237   1.002   9.451   5.804 -0.2603 -0.0858  0.2064
  832MOL0     C12238   1.934   8.893   5.685 -0.3572 -0.4795  0.1674
  832MOL0     C12239   2.062   8.877   5.737 -0.5255  0.2686  0.5659
  832MOL0     C12240   2.411   8.827   6.004  0.2265 -0.7826 -0.0751
  832MOL0     C12241   2.494   8.813   5.896  0.1267 -0.3903  0.5624
  832MOL0     C12242   2.632   8.810   5.910  0.8868 -0.3045  0.2240
  832MOL0     C12243   2.698   8.824   6.027  0.5566 -0.6453 -0.9432
  832MOL0     O12244   2.842   8.845   6.038  0.5538 -0.0919 -0.1190
  832MOL0     C12245   2.902   8.866   6.166  0.0035 -0.1367 -0.2995
  832MOL0     C12246   3.058   8.893   6.162  0.6345 -1.1025 -0.2290
  832MOL0     C12247   3.124   8.824   6.033 -0.1836 -0.4388 -0.5183
  832MOL0     C12248   3.283   8.821   6.046 -0.3928 -0.4526 -1.0225
  832MOL0     C12249   3.331   8.957   6.030  0.0611 -0.0720  0.0548
  832MOL0     C12250   3.361   9.068   6.030 -0.9090  0.4927  0.5624
  832MOL0     C12251   2.612   8.818   6.141 -1.3572 -0.7757 -0.3144
  832MOL0     C12252   2.470   8.833   6.129  0.0885  0.4347 -0.2622
  832MOL0     H12253   2.015   8.606   5.936 -0.8629 -3.4766 -4.3150
  832MOL0     H12254   1.771   8.657   5.863 -0.8479  1.4920  0.6147
  832MOL0     H12255   1.678   9.012   5.740  1.4120  3.0165 -3.2770
  832MOL0     H12256   1.705   8.985   5.579 -0.7124  0.5196 -0.0217
  832MOL0     H12257   1.488   8.864   5.560  1.3181 -0.0277  0.1551
  832MOL0     H12258   1.446   8.932   5.726  0.5096  2.8668  0.8212
  832MOL0     H12259   1.463   9.155   5.652  1.4264  0.4633  0.0905
  832MOL0     H12260   1.548   9.105   5.502 -0.6198  0.4087 -1.0040
  832MOL0     H12261   1.358   8.999   5.422  2.2595 -0.4396  0.5851
  832MOL0     H12262   1.269   9.001   5.573  0.4504 -1.7021 -1.1223
  832MOL0     H12263   1.351   9.242   5.408  0.8470 -0.9242  0.1870
  832MOL0     H12264   1.197   9.164   5.363 -3.5545  2.4203  1.4428
  832MOL0     H12265   1.088   9.213   5.572  0.3733 -0.8976  1.4611
  832MOL0     H12266   1.242   9.292   5.627  0.1284  0.3657 -0.2715
  832MOL0     H12267   1.223   9.445   5.426  1.1326  0.1734  0.8543
  832MOL0     H12268   1.051   9.388   5.406  0.2703 -1.6727  0.2696
  832MOL0     H12269   1.031   9.593   5.515  0.6689 -1.0908 -1.6259
  832MOL0     H12270   1.170   9.558   5.616  3.1579 -1.5549 -2.4293
  832MOL0     H12271   0.823   9.367   5.543  0.0328  3.4837  0.0842
  832MOL0     H12272   0.592   9.379   5.819  0.1808 -0.3133  0.1558
  832MOL0     H12273   0.636   9.319   5.656  0.6029  0.2011 -0.7044
  832MOL0     H12274   0.695   9.157   5.923  0.5210 -3.3611 -0.3529
  832MOL0     H12275   0.763   9.123   5.767  1.9084  0.4708  1.6540
  832MOL0     H12276   0.583   8.992   5.787  1.0526  0.4209  1.3847
  832MOL0     H12277   0.520   9.115   5.675  1.7867  0.1688 -0.3605
  832MOL0     H12278   0.419   9.240   5.884  1.6790 -0.4868 -0.0969
  832MOL0     H12279   0.458   9.102   5.993  1.6916 -0.5327  0.1476
  832MOL0     H12280   0.259   9.277   6.032 -1.5130  2.3750 -1.4470
  832MOL0     H12281   0.121   9.439   6.131 -0.9546 -0.1334  2.0086
  832MOL0     H12282  -0.042   9.435   6.100  2.1228  2.4367  0.2549
  832MOL0     H12283   0.028   9.339   6.242  0.9127  1.1361  0.4230
  832MOL0     H12284  -0.470   8.893   6.038  1.1934  1.0418  1.4606
  832MOL0     H12285  -0.716   8.912   5.996  1.5097 -1.3248 -0.8736
  832MOL0     H12286  -0.890   9.268   6.090 -1.0837 -0.7488  1.1322
  832MOL0     H12287  -0.897   9.337   5.930 -0.1481  1.0391 -0.1033
  832MOL0     H12288  -1.117   9.331   6.006  2.7333  1.4596  4.8393
  832MOL0     H12289  -1.116   9.205   5.893  0.2216  1.3585 -1.2836
  832MOL0     H12290  -1.063   9.162   6.199 -0.9752 -2.5259  0.9855
  832MOL0     H12291  -1.116   9.039   6.085  0.5976 -0.0111  0.4646
  832MOL0     H12292  -1.243   9.285   6.176  0.9276  0.9079 -2.7268
  832MOL0     H12293  -1.317   9.206   6.044  0.1273 -1.1484  0.1572
  832MOL0     H12294  -1.284   9.088   6.323 -1.2965  2.4207  0.9475
  832MOL0     H12295  -1.375   9.005   6.187 -1.7588  1.2855 -1.5428
  832MOL0     H12296  -1.460   9.259   6.318  2.7951 -0.6723 -0.6216
  832MOL0     H12297  -1.515   9.219   6.163  2.5895  0.2289 -0.6764
  832MOL0     H12298  -1.574   8.980   6.289 -1.0422 -0.0071 -1.4517
  832MOL0     H12299  -1.690   9.113   6.298 -2.0410 -2.2756  3.0283
  832MOL0     H12300  -1.477   9.101   6.519 -1.6247 -0.1908  4.2084
  832MOL0     H12301  -1.638   9.028   6.530  1.2031 -0.4176 -0.4375
  832MOL0     H12302  -0.699   9.328   5.968 -0.9947 -0.5049  1.8342
  832MOL0     H12303  -0.448   9.321   6.007  0.0393 -0.4799  0.6767
  832MOL0     H12304  -0.125   8.983   5.898  1.2284 -2.3168  1.5909
  832MOL0     H12305   0.091   8.944   5.799 -0.1401 -1.5406  3.1103
  832MOL0     H12306   1.920   8.961   5.602 -1.8402 -1.4149 -0.3847
  832MOL0     H12307   2.143   8.940   5.701 -0.3039  1.2043  2.5730
  832MOL0     H12308   2.451   8.804   5.797  0.0380  1.9419  0.3271
  832MOL0     H12309   2.683   8.803   5.814  0.1903 -1.0916 -0.0986
  832MOL0     H12310   2.858   8.954   6.215  1.5946  0.5869 -0.1100
  832MOL0     H12311   2.874   8.786   6.235 -3.1085  0.3541 -0.8439
  832MOL0     H12312   3.115   8.852   6.246  1.6810  2.7925  1.1596
  832MOL0     H12313   3.079   9.000   6.164  1.0670 -1.1630 -0.9794
  832MOL0     H12314   3.097   8.865   5.936 -0.1905 -0.0371 -0.3483
  832MOL0     H12315   3.081   8.724   6.026 -2.4304  0.2047  2.1070
  832MOL0     H12316   3.321   8.752   5.969 -3.3965 -1.3869 -1.8233
  832MOL0     H12317   3.312   8.777   6.142 -1.0071 -0.0747 -0.6610
  832MOL0     H12318   3.389   9.171   6.025 -1.3031  0.5530 -0.4697
  832MOL0     H12319   2.657   8.816   6.240  1.4231  1.3120 -1.4372
  832MOL0     H12320   2.418   8.847   6.223  0.0635 -3.4448  0.4480
  833MOL0     O12321   8.582   7.458   2.778  0.2338 -0.0293 -0.4685
  833MOL0     C12322   8.624   7.346   2.790 -0.2482  0.5248 -0.7875
  833MOL0     O12323   8.541   7.236   2.834 -0.2590 -0.7421  0.2210
  833MOL0     C12324   8.414   7.266   2.883 -0.4194  0.7765 -0.3416
  833MOL0     C12325   8.398   7.284   3.022 -0.6977  1.6318 -0.5919
  833MOL0     C12326   8.279   7.304   3.081 -1.1501  0.1714 -0.5614
  833MOL0     C12327   8.159   7.293   3.016  0.7093 -0.0118 -0.4484
  833MOL0     O12328   8.041   7.309   3.088  0.6053  0.5861  0.4413
  833MOL0     C12329   7.915   7.299   3.016  0.1323  0.6768 -0.3204
  833MOL0     C12330   7.796   7.318   3.101 -0.1691  0.1498 -0.3166
  833MOL0     C12331   7.655   7.288   3.041 -0.1929 -0.2787  0.5465
  833MOL0     C12332   7.625   7.392   2.929  0.2530  0.4337  0.3909
  833MOL0     C12333   7.473   7.380   2.912 -0.2105  0.9766  0.6923
  833MOL0     C12334   7.419   7.466   2.793 -0.4154  0.6615  0.2110
  833MOL0     C12335   7.464   7.427   2.651  0.7739  0.1624 -0.0692
  833MOL0     C12336   7.429   7.282   2.618  1.1786 -0.4156  0.0071
  833MOL0     N12337   7.290   7.248   2.623  0.3708  0.1708 -0.5076
  833MOL0     C12338   7.187   7.313   2.562  0.5488  0.5003  0.6904
  833MOL0     C12339   7.078   7.236   2.602 -0.6654  0.6592  0.2085
  833MOL0     C12340   6.934   7.249   2.570 -0.1803 -0.0782 -0.3819
  833MOL0     C12341   6.921   7.343   2.445  0.5384 -0.0093  0.8714
  833MOL0     C12342   6.931   7.271   2.314 -0.5881 -0.0932  0.4431
  833MOL0     C12343   6.814   7.174   2.285 -0.4371  0.6703  0.6418
  833MOL0     O12344   6.682   7.233   2.309  0.5205 -0.0958 -0.2481
  833MOL0     C12345   6.572   7.157   2.298 -0.6993  0.3951  0.2761
  833MOL0     C12346   6.458   7.226   2.328  0.3274 -0.4250 -0.3614
  833MOL0     C12347   6.331   7.169   2.288  0.3038  0.2295  0.2406
  833MOL0     C12348   6.212   7.266   2.313 -0.0071  0.7483 -0.6303
  833MOL0     C12349   6.328   7.040   2.228 -0.0628  0.0753  1.1371
  833MOL0     C12350   6.201   6.971   2.182  0.7347 -0.8246  0.7352
  833MOL0     O12351   6.215   6.876   2.089 -0.1554 -0.3761 -0.1568
  833MOL0     C12352   6.103   6.809   2.049  0.0843  0.0256 -0.1931
  833MOL0     C12353   6.107   6.669   2.062 -0.9908 -1.0251 -0.0802
  833MOL0     C12354   5.997   6.590   2.028  0.3135  0.3396  0.1377
  833MOL0     C12355   5.872   6.646   1.999  0.3550 -0.1259  1.0226
  833MOL0     O12356   5.770   6.558   1.966  0.2115  0.3245 -0.2913
  833MOL0     C12357   5.648   6.613   1.933  0.8616 -0.5305  0.7084
  833MOL0     C12358   5.553   6.496   1.917  0.3838  1.1621  0.3968
  833MOL0     C12359   5.435   6.556   1.835 -0.5205 -0.2829 -0.6553
  833MOL0     C12360   5.326   6.454   1.811 -0.3075  0.3116 -0.2212
  833MOL0     C12361   5.206   6.518   1.749  0.7005 -0.9700 -0.0911
  833MOL0     C12362   5.114   6.590   1.856  0.2726 -0.3687  0.6220
  833MOL0     C12363   4.983   6.654   1.788 -0.3593 -0.3989 -0.0454
  833MOL0     C12364   4.875   6.724   1.882  1.2268  0.1684 -0.0178
  833MOL0    Cl12365   4.769   6.608   1.963  0.0675  0.6938 -0.0160
  833MOL0     C12366   5.862   6.784   1.987  0.1646 -0.1454  0.5034
  833MOL0     C12367   5.977   6.866   2.001 -0.3589  1.0550 -0.3203
  833MOL0     O12368   6.094   7.014   2.226  0.1772  0.0269 -0.5236
  833MOL0     C12369   6.445   6.965   2.214  0.5129  0.0840 -0.6652
  833MOL0     C12370   6.566   7.020   2.255 -0.5673  0.7172  0.3336
  833MOL0     N12371   7.116   7.144   2.699  0.5882  0.2006 -0.1075
  833MOL0     N12372   7.242   7.154   2.711  0.9496  0.4749 -0.5952
  833MOL0     C12373   8.172   7.269   2.875  0.2190 -0.0232 -1.1888
  833MOL0     C12374   8.291   7.251   2.810  0.5617 -0.3830  0.3194
  833MOL0     C12375   8.769   7.311   2.762 -0.1482  0.1574 -0.6343
  833MOL0     C12376   8.856   7.391   2.703  0.1449 -0.3600 -0.3859
  833MOL0     C12377   8.994   7.372   2.672  0.2975 -0.8994 -0.9249
  833MOL0     C12378   9.044   7.244   2.699 -0.3211 -0.5319 -1.2795
  833MOL0     O12379   9.178   7.219   2.679  0.3685 -0.1554  0.2245
  833MOL0     C12380   9.234   7.106   2.740 -0.4148  0.7350 -0.4810
  833MOL0     C12381   9.388   7.136   2.757 -0.1676  0.0931  0.6596
  833MOL0     C12382   9.475   7.076   2.645 -0.2190  0.5580 -0.3238
  833MOL0     C12383   9.627   7.078   2.693 -0.1399  1.0630  0.5518
  833MOL0     C12384   9.645   6.961   2.784  0.5355 -0.9964  0.6157
  833MOL0     C12385   9.628   6.862   2.852  0.5890 -0.5403 -0.2042
  833MOL0     C12386   8.958   7.151   2.766 -0.6755 -0.1120 -0.4468
  833MOL0     C12387   8.825   7.184   2.806 -0.4836  0.0471  0.9380
  833MOL0     H12388   8.485   7.272   3.086 -1.4684  1.2382  0.3891
  833MOL0     H12389   8.283   7.319   3.189 -5.2649  1.7896 -0.4689
  833MOL0     H12390   7.904   7.365   2.930 -0.1271  0.5844 -0.3595
  833MOL0     H12391   7.903   7.195   2.985 -1.7742  0.3413  1.3124
  833MOL0     H12392   7.810   7.241   3.178 -3.2608 -0.9015 -0.6638
  833MOL0     H12393   7.799   7.421   3.138 -2.5840  0.1392  0.0889
  833MOL0     H12394   7.657   7.187   2.999 -0.7838 -0.1938  0.3149
  833MOL0     H12395   7.584   7.294   3.123 -0.1082  0.1805  0.5892
  833MOL0     H12396   7.641   7.491   2.972 -1.1305  0.1589  1.5894
  833MOL0     H12397   7.681   7.373   2.836  0.6524  1.7693  0.3301
  833MOL0     H12398   7.439   7.277   2.894  0.2915  0.5018  2.3422
  833MOL0     H12399   7.424   7.417   3.002 -2.8428  1.0162 -0.6550
  833MOL0     H12400   7.310   7.470   2.800 -0.3654  1.0037  0.8179
  833MOL0     H12401   7.451   7.570   2.810  1.4833  0.3804 -1.2361
  833MOL0     H12402   7.426   7.500   2.579 -0.1162 -0.9745 -0.7851
  833MOL0     H12403   7.574   7.427   2.656  0.7689 -2.0428  2.7559
  833MOL0     H12404   7.479   7.214   2.687  0.2474 -2.7379 -1.4826
  833MOL0     H12405   7.464   7.263   2.516 -1.2345 -0.8661 -0.8023
  833MOL0     H12406   7.187   7.407   2.507  2.5327  0.3299  0.3230
  833MOL0     H12407   6.887   7.152   2.550  0.0646  0.1247 -2.1416
  833MOL0     H12408   6.893   7.297   2.659 -0.2817 -2.1345  0.7397
  833MOL0     H12409   6.979   7.435   2.437  2.7429 -1.3415  0.8823
  833MOL0     H12410   6.817   7.377   2.450 -0.1169 -1.4826 -1.5457
  833MOL0     H12411   7.025   7.215   2.315 -0.5127  0.0337  0.4479
  833MOL0     H12412   6.932   7.344   2.232  2.1389 -2.8392 -2.2555
  833MOL0     H12413   6.819   7.077   2.337 -0.1699  1.1932  1.6163
  833MOL0     H12414   6.835   7.143   2.182  0.6522  2.2954  0.3366
  833MOL0     H12415   6.453   7.333   2.346 -1.9114 -0.1591 -2.1628
  833MOL0     H12416   6.172   7.295   2.216 -2.0331  0.5560  0.1092
  833MOL0     H12417   6.130   7.215   2.365  2.1216 -2.5693 -0.2099
  833MOL0     H12418   6.240   7.357   2.368 -2.2001  2.1250 -1.6455
  833MOL0     H12419   6.202   6.624   2.090 -0.2000  0.7879  0.2639
  833MOL0     H12420   6.001   6.481   2.031 -1.3107  0.2182 -1.0704
  833MOL0     H12421   5.612   6.677   2.014 -1.2785 -0.5810 -0.1593
  833MOL0     H12422   5.657   6.659   1.834 -1.0128 -0.9884  0.2904
  833MOL0     H12423   5.608   6.415   1.867  0.2926  1.3526 -0.0097
  833MOL0     H12424   5.519   6.460   2.015 -1.9848  0.6286 -0.5758
  833MOL0     H12425   5.467   6.586   1.735 -0.0439  0.9006 -0.1647
  833MOL0     H12426   5.404   6.649   1.884  0.0807 -0.1132 -0.5817
  833MOL0     H12427   5.368   6.377   1.745  2.1305  4.6977 -4.4281
  833MOL0     H12428   5.304   6.414   1.910  0.6958 -2.9774 -1.2037
  833MOL0     H12429   5.147   6.434   1.709  1.0937 -1.3861  0.1893
  833MOL0     H12430   5.223   6.589   1.667  0.1945  0.6383  1.1601
  833MOL0     H12431   5.087   6.517   1.933  1.2963 -2.3150 -0.7889
  833MOL0     H12432   5.168   6.677   1.896 -2.3663  1.5320  0.3333
  833MOL0     H12433   4.933   6.569   1.741  0.9336 -0.9492 -0.4906
  833MOL0     H12434   5.004   6.719   1.702  0.0685  3.2127  2.5557
  833MOL0     H12435   4.808   6.776   1.812  1.1240 -0.3965 -0.3501
  833MOL0     H12436   4.909   6.797   1.955 -0.4699  1.7167 -0.6791
  833MOL0     H12437   5.770   6.840   1.971  0.9400  0.9268 -0.3403
  833MOL0     H12438   5.972   6.974   1.995  1.9393  1.2083 -0.3466
  833MOL0     H12439   6.428   6.861   2.187  1.2209  0.3785 -2.4270
  833MOL0     H12440   6.652   6.958   2.232 -1.3857  0.0943 -1.1668
  833MOL0     H12441   8.077   7.259   2.824 -1.4031  0.6596  1.5259
  833MOL0     H12442   8.300   7.229   2.704 -1.2958  0.8029 -0.1267
  833MOL0     H12443   8.826   7.494   2.683  0.6560 -0.5857 -2.4570
  833MOL0     H12444   9.065   7.440   2.625  0.4931 -1.5376 -1.5667
  833MOL0     H12445   9.198   7.079   2.839 -1.4567  0.8273 -0.8166
  833MOL0     H12446   9.213   7.022   2.672 -0.1276 -0.7769  1.2350
  833MOL0     H12447   9.415   7.085   2.850  1.9080 -1.2335 -0.5973
  833MOL0     H12448   9.415   7.241   2.758  3.8446 -0.5669 -3.5039
  833MOL0     H12449   9.475   7.138   2.555 -0.3594  0.7049 -0.2227
  833MOL0     H12450   9.451   6.973   2.617 -1.7002  0.9685 -0.6628
  833MOL0     H12451   9.651   7.167   2.752  0.4179  1.6056 -0.4573
  833MOL0     H12452   9.690   7.079   2.604  2.6418  0.0658  2.3902
  833MOL0     H12453   9.598   6.773   2.903  0.6018 -1.4904 -1.7879
  833MOL0     H12454   8.988   7.053   2.802  2.2127  0.8610  0.0044
  833MOL0     H12455   8.758   7.116   2.857  0.3246 -0.5501  1.2205
  834MOL0     O12456   0.815   2.029   5.106  0.4395  0.5665  0.2295
  834MOL0     C12457   0.855   1.923   5.056 -0.3090  0.9401  0.9557
  834MOL0     O12458   0.789   1.803   5.040  0.1938 -0.7753  0.0135
  834MOL0     C12459   0.653   1.812   5.055 -0.7526  0.6406  0.3644
  834MOL0     C12460   0.595   1.831   5.182  0.5170  1.4939 -0.4056
  834MOL0     C12461   0.458   1.845   5.195  0.0264 -0.5273  0.7244
  834MOL0     C12462   0.372   1.856   5.086  0.4382 -1.2725 -0.0490
  834MOL0     O12463   0.235   1.874   5.094 -0.0868  0.7367  0.0944
  834MOL0     C12464   0.192   1.961   5.204  0.3982  0.9435  0.0479
  834MOL0     C12465   0.042   1.968   5.204 -0.1513  0.9170  0.7340
  834MOL0     C12466  -0.025   1.898   5.319 -0.8368  0.3341 -0.3542
  834MOL0     C12467  -0.170   1.887   5.271  0.3906 -0.4389  0.3805
  834MOL0     C12468  -0.264   1.821   5.374  0.3309 -0.0066  0.3025
  834MOL0     C12469  -0.403   1.827   5.301 -0.5106 -0.2093  0.4825
  834MOL0     C12470  -0.519   1.760   5.371 -0.1495  0.4830  0.3852
  834MOL0     C12471  -0.494   1.633   5.452 -0.6215  0.8539 -0.3184
  834MOL0     N12472  -0.487   1.512   5.361 -0.2973  0.3271  0.5018
  834MOL0     C12473  -0.583   1.417   5.336  0.2333  0.2944  0.1415
  834MOL0     C12474  -0.519   1.331   5.248 -0.1180 -0.2772 -0.2112
  834MOL0     C12475  -0.580   1.205   5.182 -0.7819 -0.9394  0.1616
  834MOL0     C12476  -0.693   1.145   5.269 -0.1154  0.8099 -0.1550
  834MOL0     C12477  -0.772   1.036   5.194 -0.4045  0.4519 -0.4851
  834MOL0     C12478  -0.890   0.983   5.269 -0.5726  0.0762  0.0531
  834MOL0     O12479  -0.983   1.088   5.251  0.0579 -0.4301  0.9878
  834MOL0     C12480  -1.114   1.054   5.240 -0.1692  0.1976 -1.1356
  834MOL0     C12481  -1.170   0.946   5.316  0.5615 -0.2308  0.5684
  834MOL0     C12482  -1.304   0.917   5.303  0.2381 -0.2780  0.4905
  834MOL0     C12483  -1.346   0.792   5.386  0.6187 -1.0467  0.2745
  834MOL0     C12484  -1.388   0.991   5.208  0.6997  0.9286 -0.0961
  834MOL0     C12485  -1.537   0.973   5.186 -0.7441 -0.1173  0.4510
  834MOL0     O12486  -1.601   0.904   5.277  0.6353  0.1109 -0.3546
  834MOL0     C12487  -1.736   0.872   5.258  0.6274  0.0684 -0.3971
  834MOL0     C12488  -1.774   0.748   5.198 -0.8426 -0.7419 -0.5985
  834MOL0     C12489  -1.907   0.715   5.186  0.5468  0.1584  0.1062
  834MOL0     C12490  -2.012   0.788   5.240 -0.4141 -0.0512  0.1685
  834MOL0     O12491  -2.136   0.757   5.213  0.7126 -0.3526  1.1090
  834MOL0     C12492  -2.173   0.637   5.279  0.2534 -0.1742  0.3763
  834MOL0     C12493  -2.310   0.588   5.230 -0.9280  0.7120  1.3846
  834MOL0     C12494  -2.429   0.662   5.296  0.3607 -1.1981 -0.2171
  834MOL0     C12495  -2.556   0.647   5.211 -1.0312 -0.0827  0.1042
  834MOL0     C12496  -2.669   0.726   5.268 -0.0067  0.1267 -0.5384
  834MOL0     C12497  -2.775   0.760   5.161 -0.2179  0.2239  0.2519
  834MOL0     C12498  -2.871   0.865   5.211  0.2186 -0.0097  0.9794
  834MOL0     C12499  -3.005   0.874   5.138  0.7396  0.3750  0.7816
  834MOL0    Cl12500  -3.129   0.928   5.242  0.2855 -0.3032  0.2236
  834MOL0     C12501  -1.973   0.917   5.304 -0.0574  0.3985  0.7177
  834MOL0     C12502  -1.837   0.957   5.319 -0.0713  0.2600  0.6593
  834MOL0     O12503  -1.592   1.029   5.092  0.1660 -0.0389 -0.1237
  834MOL0     C12504  -1.323   1.086   5.131  0.1030 -0.1704  0.3229
  834MOL0     C12505  -1.190   1.120   5.152  0.6675 -0.4873  0.2019
  834MOL0     N12506  -0.388   1.373   5.227  0.6912 -0.2277 -0.9273
  834MOL0     N12507  -0.371   1.484   5.288 -0.0447 -0.7626  0.2759
  834MOL0     C12508   0.426   1.850   4.955 -0.7037  0.2847 -0.0473
  834MOL0     C12509   0.566   1.831   4.939 -0.0119 -0.5607 -0.6528
  834MOL0     C12510   0.987   1.922   4.987 -0.4065 -0.4301 -0.9685
  834MOL0     C12511   1.043   2.046   4.956  0.0841  0.2661  0.3786
  834MOL0     C12512   1.169   2.042   4.889 -0.7010 -0.1008 -1.0773
  834MOL0     C12513   1.237   1.928   4.861 -0.1609 -0.3051 -0.7337
  834MOL0     O12514   1.353   1.929   4.795  0.0022 -0.4940 -0.5081
  834MOL0     C12515   1.474   1.925   4.875 -0.8269 -0.1566  0.7243
  834MOL0     C12516   1.595   1.959   4.791 -0.5566 -0.2590  0.6320
  834MOL0     C12517   1.632   1.842   4.690 -0.5699 -0.1835  0.1672
  834MOL0     C12518   1.737   1.882   4.590  0.0427 -0.0842 -0.6566
  834MOL0     C12519   1.854   1.922   4.661  0.2733  0.3622  0.8699
  834MOL0     C12520   1.955   1.945   4.718 -0.5818  0.6048 -0.2278
  834MOL0     C12521   1.187   1.807   4.907  0.0021 -0.1427  0.1934
  834MOL0     C12522   1.065   1.807   4.971 -0.1697  0.4271  0.3218
  834MOL0     H12523   0.654   1.821   5.272 -0.5581  0.3674  0.2005
  834MOL0     H12524   0.423   1.840   5.298 -2.7271  2.4759  0.1064
  834MOL0     H12525   0.231   1.920   5.298 -1.6526 -1.4182 -0.0284
  834MOL0     H12526   0.236   2.059   5.182 -0.3217  1.4940  1.0198
  834MOL0     H12527   0.010   2.073   5.197  1.7488  1.4488 -1.6564
  834MOL0     H12528   0.012   1.911   5.116  1.2783  0.4957  0.4982
  834MOL0     H12529   0.025   1.802   5.332 -3.6272 -1.1031  0.5746
  834MOL0     H12530  -0.016   1.961   5.407  0.3864  0.8485 -0.8265
  834MOL0     H12531  -0.210   1.986   5.247  0.7497 -0.9240 -2.6453
  834MOL0     H12532  -0.182   1.838   5.174 -2.1768 -1.8956  1.3530
  834MOL0     H12533  -0.240   1.719   5.406 -2.7113 -1.1748 -0.7713
  834MOL0     H12534  -0.276   1.884   5.462  1.8917 -2.7045  2.6214
  834MOL0     H12535  -0.425   1.932   5.279 -1.3816 -0.6088 -0.6528
  834MOL0     H12536  -0.385   1.775   5.206  1.9063  0.2943  0.5864
  834MOL0     H12537  -0.560   1.827   5.447  0.9529 -2.8254  4.1795
  834MOL0     H12538  -0.596   1.751   5.293  0.4263  0.6840 -0.2139
  834MOL0     H12539  -0.578   1.627   5.523  1.4541  1.6949  2.3715
  834MOL0     H12540  -0.406   1.640   5.516 -0.2188  0.0516 -0.7710
  834MOL0     H12541  -0.686   1.410   5.368 -0.3129  0.7019 -1.4463
  834MOL0     H12542  -0.624   1.224   5.083 -1.7086  0.8174  0.8636
  834MOL0     H12543  -0.501   1.130   5.183  0.6700  0.4509  2.9942
  834MOL0     H12544  -0.760   1.224   5.304  1.0160  1.4208  0.7052
  834MOL0     H12545  -0.650   1.101   5.359  0.8101 -0.7562 -1.3209
  834MOL0     H12546  -0.711   0.946   5.187 -0.5441  0.3285 -0.1431
  834MOL0     H12547  -0.804   1.072   5.096 -0.9219  0.8504 -0.1852
  834MOL0     H12548  -0.867   0.955   5.373 -0.8108 -2.3938 -0.5013
  834MOL0     H12549  -0.920   0.886   5.229 -0.8677  0.2520 -0.1557
  834MOL0     H12550  -1.105   0.912   5.396  0.9906 -0.9883 -0.0887
  834MOL0     H12551  -1.261   0.733   5.421 -0.2630 -1.2582  2.1434
  834MOL0     H12552  -1.411   0.813   5.471  0.4520 -0.9014  0.1129
  834MOL0     H12553  -1.410   0.721   5.334 -3.5713 -0.8776  4.5793
  834MOL0     H12554  -1.693   0.683   5.167  0.6502  0.8366 -0.1841
  834MOL0     H12555  -1.933   0.621   5.137  0.2714  0.7822 -0.9702
  834MOL0     H12556  -2.106   0.551   5.268  1.7445  1.1248 -1.1243
  834MOL0     H12557  -2.170   0.649   5.387 -0.5268  3.0784  0.1437
  834MOL0     H12558  -2.309   0.589   5.120  0.1750 -0.1920  1.3630
  834MOL0     H12559  -2.327   0.485   5.264 -1.6460  0.5810  0.6492
  834MOL0     H12560  -2.397   0.767   5.301 -2.2520 -0.3571  0.0108
  834MOL0     H12561  -2.452   0.629   5.398  0.9695 -1.4290 -0.1490
  834MOL0     H12562  -2.531   0.678   5.109 -0.2628 -0.3620  0.1977
  834MOL0     H12563  -2.582   0.541   5.205 -0.3132 -0.4103  1.9530
  834MOL0     H12564  -2.629   0.821   5.304 -0.7832  0.2694 -0.0307
  834MOL0     H12565  -2.720   0.663   5.341  0.6800  2.3722  2.0433
  834MOL0     H12566  -2.721   0.796   5.073 -2.1665  0.1709 -1.0326
  834MOL0     H12567  -2.820   0.666   5.130 -0.1506  0.4106 -0.4177
  834MOL0     H12568  -2.818   0.961   5.215 -1.2247  0.7917  1.3876
  834MOL0     H12569  -2.887   0.841   5.317  1.5921  0.8364  1.4118
  834MOL0     H12570  -3.034   0.776   5.100  0.3891  0.1379  1.6362
  834MOL0     H12571  -2.997   0.933   5.047  1.7722 -2.1218 -0.8488
  834MOL0     H12572  -2.058   0.981   5.326  0.1288  0.5354  1.0531
  834MOL0     H12573  -1.811   1.056   5.357 -0.2468  0.3831  0.4617
  834MOL0     H12574  -1.380   1.138   5.055 -1.4901 -2.9670 -0.5511
  834MOL0     H12575  -1.148   1.192   5.082 -1.7219  0.0296 -0.7859
  834MOL0     H12576   0.365   1.844   4.865 -0.7383  1.8496 -0.1657
  834MOL0     H12577   0.612   1.819   4.841  2.3387  1.1997  0.1548
  834MOL0     H12578   1.005   2.147   4.972  3.8684  2.3817 -2.3609
  834MOL0     H12579   1.217   2.138   4.874  0.5075  0.1839  3.3466
  834MOL0     H12580   1.474   1.997   4.957 -1.0984  3.4417 -2.1760
  834MOL0     H12581   1.488   1.822   4.910  1.8458 -0.1266 -0.0937
  834MOL0     H12582   1.678   1.974   4.860 -2.1253 -1.3222  2.9084
  834MOL0     H12583   1.580   2.052   4.736  0.0390  0.9967  2.4741
  834MOL0     H12584   1.545   1.813   4.631  1.2548 -3.4703 -1.1651
  834MOL0     H12585   1.658   1.752   4.747 -1.1272 -1.2010 -1.1499
  834MOL0     H12586   1.703   1.966   4.528  0.2707  0.1893 -0.4183
  834MOL0     H12587   1.752   1.795   4.526 -1.1510 -0.8662  0.0887
  834MOL0     H12588   2.054   1.972   4.750 -0.4342  0.9676 -0.9662
  834MOL0     H12589   1.242   1.714   4.896  3.7998  1.9214 -0.2337
  834MOL0     H12590   1.028   1.712   5.005  1.8733 -0.4762  0.1797
  835MOL0     O12591   2.927   2.191   8.399  0.0142 -0.0438 -0.7118
  835MOL0     C12592   2.940   2.310   8.419 -1.0039 -0.3299  0.7682
  835MOL0     O12593   2.845   2.396   8.461 -0.6468  0.1688 -0.0405
  835MOL0     C12594   2.732   2.347   8.519  0.1550 -0.5758 -0.8770
  835MOL0     C12595   2.740   2.265   8.625  0.0732 -0.0665  0.2696
  835MOL0     C12596   2.619   2.240   8.689 -1.0036 -0.2332 -0.3698
  835MOL0     C12597   2.493   2.296   8.657 -1.1981 -0.5994  0.1402
  835MOL0     O12598   2.371   2.273   8.715  0.3377 -0.5740  0.7703
  835MOL0     C12599   2.368   2.225   8.857  0.6648  0.0100  0.5951
  835MOL0     C12600   2.222   2.232   8.916  0.1851 -0.3759 -0.0978
  835MOL0     C12601   2.143   2.359   8.893 -0.1459  0.1044 -0.2603
  835MOL0     C12602   2.008   2.358   8.965  0.2348  0.5613 -0.2676
  835MOL0     C12603   1.952   2.503   8.967  0.7912  0.4989  0.5680
  835MOL0     C12604   1.822   2.525   9.041  0.7298  0.2313 -0.4212
  835MOL0     C12605   1.780   2.671   9.049 -0.4955  0.6389 -0.1754
  835MOL0     C12606   1.636   2.680   9.073  0.5235 -0.2202 -0.4220
  835MOL0     N12607   1.575   2.814   9.106 -0.2041  0.8755 -0.0441
  835MOL0     C12608   1.558   2.914   9.013  0.6212  0.8691 -0.8726
  835MOL0     C12609   1.518   3.024   9.080 -0.4659  0.4357 -0.1869
  835MOL0     C12610   1.506   3.162   9.019  1.1697 -0.6774  0.2827
  835MOL0     C12611   1.368   3.182   8.956 -0.1079  0.1176  0.4071
  835MOL0     C12612   1.343   3.104   8.822 -0.2009  0.0346  0.4789
  835MOL0     C12613   1.192   3.096   8.778 -0.7376  0.9740  0.0291
  835MOL0     O12614   1.122   3.214   8.791 -0.1927  0.4501  0.1512
  835MOL0     C12615   0.983   3.209   8.784  0.0623  0.2580 -0.0530
  835MOL0     C12616   0.911   3.099   8.742 -0.1511  0.1272 -0.4731
  835MOL0     C12617   0.775   3.094   8.753  0.9054  0.0827 -0.0051
  835MOL0     C12618   0.706   2.964   8.709 -0.2556  0.0024 -0.4894
  835MOL0     C12619   0.707   3.202   8.801 -0.2884 -0.3422  0.1760
  835MOL0     C12620   0.559   3.207   8.821  0.2073  0.0490  0.4293
  835MOL0     O12621   0.481   3.091   8.804 -0.7301 -0.2096  0.1218
  835MOL0     C12622   0.345   3.097   8.830 -0.0421  0.4286 -0.3306
  835MOL0     C12623   0.297   3.051   8.956 -0.4725 -0.2121 -0.3911
  835MOL0     C12624   0.156   3.048   8.979 -0.2762 -0.0087 -0.5220
  835MOL0     C12625   0.064   3.097   8.878 -0.0984 -0.5797 -1.0096
  835MOL0     O12626  -0.071   3.100   8.889  0.5457 -0.2631 -0.3193
  835MOL0     C12627  -0.136   3.056   9.007 -0.5964 -0.6104 -0.3287
  835MOL0     C12628  -0.283   3.046   8.986 -0.4311  0.0423  0.5867
  835MOL0     C12629  -0.348   2.929   9.068 -0.3204  1.0752  0.0035
  835MOL0     C12630  -0.493   2.920   9.038  0.6134  0.1203 -0.1320
  835MOL0     C12631  -0.559   2.811   9.125  0.3846 -0.2862 -0.1887
  835MOL0     C12632  -0.706   2.819   9.109  0.3181  0.4562  1.3089
  835MOL0     C12633  -0.774   2.746   9.222 -0.6122 -0.0535  0.5241
  835MOL0     C12634  -0.926   2.736   9.221  0.0868 -0.0620 -0.9255
  835MOL0    Cl12635  -0.982   2.901   9.264 -0.1329 -0.5204  0.1778
  835MOL0     C12636   0.120   3.149   8.758 -0.1675  0.5530 -0.6014
  835MOL0     C12637   0.256   3.144   8.735  0.6561 -0.2249 -0.0355
  835MOL0     O12638   0.511   3.321   8.847  0.0140 -0.5595 -0.0208
  835MOL0     C12639   0.774   3.321   8.843 -0.6009  0.8968  1.1029
  835MOL0     C12640   0.916   3.325   8.829 -0.3455 -0.2619  0.3684
  835MOL0     N12641   1.491   2.973   9.212 -0.2241  0.1502  0.5765
  835MOL0     N12642   1.524   2.850   9.223  0.3372  0.1826 -0.5235
  835MOL0     C12643   2.499   2.379   8.538 -0.4491 -0.6259 -0.2198
  835MOL0     C12644   2.620   2.405   8.468 -0.2177  0.0257 -0.3056
  835MOL0     C12645   3.080   2.361   8.412  0.7627 -0.0034 -0.5983
  835MOL0     C12646   3.182   2.301   8.345 -0.8601  0.0029  0.3137
  835MOL0     C12647   3.314   2.349   8.354 -0.0754  0.3278  0.7244
  835MOL0     C12648   3.349   2.459   8.427 -0.5079 -0.0253  0.8701
  835MOL0     O12649   3.478   2.508   8.430  0.6790 -0.4196  0.0722
  835MOL0     C12650   3.585   2.448   8.351  0.0390 -1.0211  0.4770
  835MOL0     C12651   3.707   2.543   8.325 -0.2803  0.0980 -0.2159
  835MOL0     C12652   3.747   2.619   8.451 -0.9770  1.1095  0.1182
  835MOL0     C12653   3.881   2.696   8.439  0.6295  0.4790  1.0073
  835MOL0     C12654   3.879   2.798   8.547 -1.1701 -0.9428  0.8595
  835MOL0     C12655   3.887   2.882   8.640  0.3942  0.4812  0.1392
  835MOL0     C12656   3.244   2.526   8.484  0.0775 -0.0256 -0.8506
  835MOL0     C12657   3.117   2.471   8.481  0.0604 -0.1689  0.1119
  835MOL0     H12658   2.832   2.213   8.650  1.5097  2.4799  0.5863
  835MOL0     H12659   2.621   2.173   8.775 -1.8608 -1.1068 -1.0058
  835MOL0     H12660   2.406   2.122   8.854 -0.4400 -0.3959 -0.5192
  835MOL0     H12661   2.432   2.289   8.919  0.1434  2.7040 -1.4533
  835MOL0     H12662   2.163   2.146   8.882 -0.3189 -1.0133  2.2238
  835MOL0     H12663   2.246   2.213   9.021  0.1272 -1.8245 -0.3196
  835MOL0     H12664   2.202   2.439   8.940 -0.5124 -1.4255  3.1247
  835MOL0     H12665   2.137   2.386   8.787  0.8085  1.4530 -0.0040
  835MOL0     H12666   1.945   2.286   8.912  1.9116 -1.3028  0.1501
  835MOL0     H12667   2.036   2.322   9.065  0.2662  0.0738 -0.4469
  835MOL0     H12668   2.034   2.557   9.015  1.6097  0.2566 -0.5182
  835MOL0     H12669   1.937   2.535   8.864 -1.0405  0.8273  0.9001
  835MOL0     H12670   1.752   2.469   8.980  3.2328 -0.0607 -3.2619
  835MOL0     H12671   1.819   2.480   9.141 -2.6988  1.4234  0.1321
  835MOL0     H12672   1.819   2.715   9.141  0.6183 -0.4269 -0.1029
  835MOL0     H12673   1.815   2.724   8.960 -0.5862  0.0430 -0.5754
  835MOL0     H12674   1.623   2.617   9.162  1.6691 -0.5250 -0.4463
  835MOL0     H12675   1.576   2.632   8.995  2.3465 -3.6294  0.0676
  835MOL0     H12676   1.583   2.899   8.909 -1.9936 -2.2207 -1.2110
  835MOL0     H12677   1.509   3.236   9.100 -1.3076  0.1225 -0.2734
  835MOL0     H12678   1.580   3.191   8.944 -0.6699  0.6134 -1.1209
  835MOL0     H12679   1.365   3.289   8.935  1.2433  0.3566  1.3203
  835MOL0     H12680   1.295   3.167   9.035  1.9857 -3.3215  1.9149
  835MOL0     H12681   1.378   3.002   8.840  1.5777  0.0631 -2.3676
  835MOL0     H12682   1.391   3.152   8.737  0.0607 -1.5317 -0.3006
  835MOL0     H12683   1.140   3.024   8.843 -1.1374 -2.2307 -3.5171
  835MOL0     H12684   1.200   3.056   8.677  0.5261 -0.6503  0.7072
  835MOL0     H12685   0.972   3.029   8.685 -0.3422 -2.0190  1.8003
  835MOL0     H12686   0.771   2.907   8.642 -2.0780 -2.1144 -0.5599
  835MOL0     H12687   0.669   2.910   8.796 -0.0157  1.1299  0.3319
  835MOL0     H12688   0.633   2.999   8.635  0.3442 -0.1811 -1.1816
  835MOL0     H12689   0.368   3.005   9.025  0.3365 -0.6826 -1.5027
  835MOL0     H12690   0.103   3.009   9.065 -1.0732 -0.6590 -1.2923
  835MOL0     H12691  -0.099   2.955   9.026  1.0609 -0.0138 -0.2057
  835MOL0     H12692  -0.118   3.120   9.093  0.3201 -1.6326  0.2761
  835MOL0     H12693  -0.338   3.136   9.015  1.5536  0.6052  2.9256
  835MOL0     H12694  -0.291   3.043   8.876  3.9213 -1.8472  0.1159
  835MOL0     H12695  -0.324   2.943   9.174  1.0888  0.9496 -0.2794
  835MOL0     H12696  -0.302   2.839   9.027 -0.4102 -0.3728  2.8849
  835MOL0     H12697  -0.535   3.017   9.066 -0.3201 -0.1407 -0.5927
  835MOL0     H12698  -0.507   2.898   8.932 -1.7306  0.0066  0.1599
  835MOL0     H12699  -0.528   2.823   9.229  0.1376 -0.8272 -0.0510
  835MOL0     H12700  -0.514   2.715   9.100  2.3229 -0.8355  4.4686
  835MOL0     H12701  -0.742   2.923   9.106  3.0472  1.4575  0.3215
  835MOL0     H12702  -0.735   2.777   9.012  0.5688  0.4009  1.2583
  835MOL0     H12703  -0.745   2.800   9.313 -0.7332  0.4689  0.2578
  835MOL0     H12704  -0.739   2.642   9.224  0.8953  0.4174 -0.0581
  835MOL0     H12705  -0.960   2.664   9.296 -0.0676  1.1668  0.2188
  835MOL0     H12706  -0.970   2.708   9.125  0.3945 -0.8150 -0.8524
  835MOL0     H12707   0.051   3.184   8.682 -3.2893 -0.1514  1.7165
  835MOL0     H12708   0.285   3.186   8.640 -0.8400  0.9872 -0.0121
  835MOL0     H12709   0.728   3.408   8.890  0.6742  0.9739  2.2653
  835MOL0     H12710   0.959   3.418   8.865 -3.5177  1.5891 -0.2470
  835MOL0     H12711   2.409   2.434   8.511  0.9555  2.5155  1.0652
  835MOL0     H12712   2.632   2.468   8.380 -2.4416  2.9376  1.2926
  835MOL0     H12713   3.157   2.218   8.279 -0.3100  1.2900 -1.6226
  835MOL0     H12714   3.386   2.289   8.300 -2.1883 -0.5996 -1.2410
  835MOL0     H12715   3.624   2.360   8.404  1.6506  0.3041  1.5977
  835MOL0     H12716   3.551   2.410   8.254  1.0078 -3.3450  0.9892
  835MOL0     H12717   3.668   2.614   8.251 -1.0057 -0.0034  0.0605
  835MOL0     H12718   3.785   2.474   8.295  0.1518  0.3030  0.4002
  835MOL0     H12719   3.759   2.541   8.527  1.0406 -0.0026 -1.2348
  835MOL0     H12720   3.664   2.686   8.477 -0.6004  1.7152 -0.1921
  835MOL0     H12721   3.876   2.749   8.343 -1.2609 -2.5194 -0.7363
  835MOL0     H12722   3.970   2.634   8.437 -1.3634 -2.6906 -2.2733
  835MOL0     H12723   3.889   2.945   8.727 -0.8878 -1.0453  1.3529
  835MOL0     H12724   3.273   2.618   8.534  1.0997 -1.1950  0.7975
  835MOL0     H12725   3.039   2.534   8.525 -1.1543 -0.6924 -1.2203
  836MOL0     O12726   9.671   9.400   1.872 -0.5429  0.8391 -0.5775
  836MOL0     C12727   9.706   9.512   1.914  1.2546  0.8206 -0.0028
  836MOL0     O12728   9.633   9.592   1.996  0.3266 -0.0015 -0.4892
  836MOL0     C12729   9.498   9.579   2.020 -0.0820  0.1247 -0.7663
  836MOL0     C12730   9.449   9.679   2.097  0.8005 -0.1812  0.2456
  836MOL0     C12731   9.313   9.699   2.113 -0.9974  0.1709 -1.4910
  836MOL0     C12732   9.220   9.613   2.055 -0.4263  0.7316  0.1728
  836MOL0     O12733   9.079   9.614   2.072 -0.6532 -0.0147  0.4837
  836MOL0     C12734   9.034   9.707   2.170 -0.5450 -0.4494 -0.8699
  836MOL0     C12735   8.881   9.677   2.209 -0.0367 -0.1499 -0.2344
  836MOL0     C12736   8.784   9.724   2.102 -0.2143  0.1805  0.1934
  836MOL0     C12737   8.814   9.700   1.947  0.5672  0.0439  0.6655
  836MOL0     C12738   8.678   9.671   1.871  0.0712 -0.6619  0.3137
  836MOL0     C12739   8.581   9.786   1.869  1.1118 -0.2549  0.2435
  836MOL0     C12740   8.462   9.749   1.781  0.0150 -0.0428 -0.5293
  836MOL0     C12741   8.356   9.680   1.869 -0.6420 -0.1308 -0.6478
  836MOL0     N12742   8.241   9.633   1.792  0.8267  0.1041  0.1498
  836MOL0     C12743   8.242   9.550   1.684 -0.1594  0.8763 -0.4359
  836MOL0     C12744   8.123   9.556   1.626  1.3535  0.4537 -0.0035
  836MOL0     C12745   8.095   9.482   1.500 -0.0626 -0.1478  0.2593
  836MOL0     C12746   7.999   9.359   1.529 -0.7968  0.5077 -0.3710
  836MOL0     C12747   7.853   9.406   1.540 -1.1106 -0.6183 -0.3520
  836MOL0     C12748   7.754   9.297   1.589  0.1980 -1.0113 -0.3626
  836MOL0     O12749   7.617   9.342   1.584 -0.2840 -0.4164  0.5480
  836MOL0     C12750   7.545   9.327   1.466  0.0359 -0.0086  0.3987
  836MOL0     C12751   7.591   9.274   1.343  1.3765 -0.4580  0.0154
  836MOL0     C12752   7.489   9.243   1.243  0.6850 -0.4347 -0.5306
  836MOL0     C12753   7.548   9.171   1.117 -0.0758 -0.2894 -0.2689
  836MOL0     C12754   7.353   9.283   1.262  0.2332 -0.3316 -0.0866
  836MOL0     C12755   7.255   9.265   1.160  1.0279  0.4083  1.2047
  836MOL0     O12756   7.121   9.251   1.211  0.7778  0.0982 -0.2452
  836MOL0     C12757   7.019   9.256   1.113  0.2146 -0.2064 -0.3217
  836MOL0     C12758   6.936   9.368   1.102 -1.0822 -0.3868  0.7077
  836MOL0     C12759   6.850   9.385   0.995  0.1675 -0.6245 -1.1076
  836MOL0     C12760   6.819   9.283   0.905  0.6119 -0.0255 -0.6317
  836MOL0     O12761   6.732   9.283   0.808  0.4236  0.1769  0.8478
  836MOL0     C12762   6.714   9.407   0.730 -0.2783 -0.1155  0.0644
  836MOL0     C12763   6.581   9.473   0.777 -0.3403  0.1111  0.4492
  836MOL0     C12764   6.460   9.414   0.718  0.3101 -0.0308  0.6004
  836MOL0     C12765   6.337   9.461   0.805  0.7609  0.5061 -0.5096
  836MOL0     C12766   6.204   9.463   0.727 -0.2853 -0.2998  0.1864
  836MOL0     C12767   6.133   9.333   0.711 -0.3348  0.2258  0.0116
  836MOL0     C12768   6.006   9.349   0.627 -0.0490  0.7586 -0.7035
  836MOL0     C12769   5.902   9.240   0.631 -0.4356  0.3610 -0.0924
  836MOL0    Cl12770   5.846   9.235   0.800 -0.2357  0.0414 -0.0230
  836MOL0     C12771   6.893   9.160   0.928 -0.0410  0.5738 -0.3484
  836MOL0     C12772   6.989   9.144   1.027 -0.2786  0.6943 -1.0957
  836MOL0     O12773   7.289   9.289   1.043  0.3220  0.0609  0.2627
  836MOL0     C12774   7.314   9.332   1.391 -0.5832  0.0465 -0.1407
  836MOL0     C12775   7.414   9.360   1.492  0.2368  0.0146 -0.2059
  836MOL0     N12776   8.044   9.641   1.701  0.1719  0.3439 -0.2451
  836MOL0     N12777   8.118   9.687   1.804  0.2095 -0.6359 -0.0686
  836MOL0     C12778   9.268   9.499   1.990  0.0512  0.1054  0.5908
  836MOL0     C12779   9.406   9.480   1.970 -0.0659  0.1054 -0.1589
  836MOL0     C12780   9.836   9.571   1.868 -0.2586  0.1902 -0.2090
  836MOL0     C12781   9.932   9.485   1.818  0.3136 -0.4404  0.5079
  836MOL0     C12782  10.058   9.534   1.786 -0.1871 -0.2553  0.3284
  836MOL0     C12783  10.090   9.667   1.816  0.1534 -0.7808  0.1323
  836MOL0     O12784  10.215   9.703   1.786 -0.3293  0.5334 -0.0838
  836MOL0     C12785  10.299   9.667   1.898 -0.2334 -0.1323 -0.3929
  836MOL0     C12786  10.414   9.580   1.851 -0.4766 -0.2079 -0.2121
  836MOL0     C12787  10.484   9.642   1.732 -0.1316 -1.1427 -0.2917
  836MOL0     C12788  10.597   9.551   1.681  0.3448 -0.4123 -0.6004
  836MOL0     C12789  10.699   9.624   1.601  0.8901  0.2793  0.6823
  836MOL0     C12790  10.783   9.668   1.522  0.5684 -0.5157 -1.3299
  836MOL0     C12791   9.998   9.754   1.873 -0.2309  0.3164 -0.9661
  836MOL0     C12792   9.870   9.702   1.891 -0.3163 -0.4723 -0.2509
  836MOL0     H12793   9.514   9.735   2.163  0.2231  0.8042  0.0070
  836MOL0     H12794   9.284   9.781   2.179  0.3338 -0.1354 -0.4746
  836MOL0     H12795   9.087   9.692   2.265 -1.7974 -1.5870 -0.3230
  836MOL0     H12796   9.035   9.811   2.139 -1.3444 -0.4296 -0.8448
  836MOL0     H12797   8.886   9.572   2.237 -2.3120 -0.4877 -0.9635
  836MOL0     H12798   8.864   9.744   2.294  1.3116 -0.2209  0.1268
  836MOL0     H12799   8.696   9.663   2.123 -0.3846  0.0753 -0.7835
  836MOL0     H12800   8.747   9.826   2.115  2.3735  1.1631  0.5324
  836MOL0     H12801   8.869   9.778   1.894 -0.8757 -2.2960 -5.0554
  836MOL0     H12802   8.880   9.613   1.943  2.4887  1.4806 -0.6355
  836MOL0     H12803   8.720   9.645   1.773  2.3722  1.1457  0.7465
  836MOL0     H12804   8.639   9.583   1.924 -0.6849  0.1970  1.2017
  836MOL0     H12805   8.552   9.818   1.969 -0.4477  4.2189 -1.3783
  836MOL0     H12806   8.636   9.872   1.828 -1.5599  1.3106 -0.3043
  836MOL0     H12807   8.414   9.839   1.742 -1.7301 -1.1225 -1.0356
  836MOL0     H12808   8.500   9.684   1.702 -0.7114 -1.6575  0.3843
  836MOL0     H12809   8.325   9.762   1.935 -2.2621 -2.4671  1.6625
  836MOL0     H12810   8.383   9.594   1.931  2.9965  0.7586 -0.7309
  836MOL0     H12811   8.327   9.499   1.640 -0.0415  1.4668 -0.9099
  836MOL0     H12812   8.050   9.549   1.425 -1.3895  1.5101  2.4046
  836MOL0     H12813   8.194   9.454   1.463  0.8722 -0.8906  3.0912
  836MOL0     H12814   8.038   9.297   1.610 -1.0168  0.5561 -0.2262
  836MOL0     H12815   8.020   9.307   1.435  0.9378 -1.4346  1.0059
  836MOL0     H12816   7.816   9.437   1.441  0.0569  1.4930 -0.1608
  836MOL0     H12817   7.847   9.492   1.607  1.4895 -0.4429 -0.2539
  836MOL0     H12818   7.782   9.278   1.693 -2.8852 -1.2334  0.5257
  836MOL0     H12819   7.765   9.206   1.529  0.7190  0.3076 -2.3940
  836MOL0     H12820   7.689   9.235   1.318  0.8553 -1.2052 -0.9150
  836MOL0     H12821   7.620   9.092   1.142  0.2695 -0.3414 -1.3706
  836MOL0     H12822   7.468   9.112   1.070  0.4882 -3.5662  2.4695
  836MOL0     H12823   7.602   9.243   1.056  2.1226 -1.2745  0.3997
  836MOL0     H12824   6.957   9.452   1.168  2.7325  0.8164 -1.7007
  836MOL0     H12825   6.819   9.486   0.970  0.4629  0.2989  1.8523
  836MOL0     H12826   6.796   9.479   0.740  2.2134 -2.7333 -0.1867
  836MOL0     H12827   6.711   9.385   0.623  0.8360  1.4189 -0.3280
  836MOL0     H12828   6.572   9.460   0.885  2.5106  1.0223  0.8648
  836MOL0     H12829   6.588   9.579   0.749 -1.8001  0.3217  0.7857
  836MOL0     H12830   6.455   9.305   0.709 -2.0072  0.1242 -0.8614
  836MOL0     H12831   6.447   9.445   0.614  0.7156  2.1220  1.1564
  836MOL0     H12832   6.324   9.385   0.882 -2.9683 -1.8775 -3.1766
  836MOL0     H12833   6.350   9.563   0.843  1.2173  0.1168  0.4134
  836MOL0     H12834   6.237   9.500   0.630  3.4729  5.1694  3.0085
  836MOL0     H12835   6.130   9.535   0.761  2.0273  2.6429 -0.6051
  836MOL0     H12836   6.186   9.252   0.659 -1.2390 -0.3733 -0.0189
  836MOL0     H12837   6.115   9.297   0.813  0.0096 -0.5144 -0.1811
  836MOL0     H12838   6.041   9.352   0.523  1.1207  1.7438 -0.3047
  836MOL0     H12839   5.957   9.442   0.657  0.1976  0.4752  0.6084
  836MOL0     H12840   5.950   9.143   0.617 -2.4573 -0.5023 -1.6019
  836MOL0     H12841   5.818   9.240   0.560 -0.9341 -1.7402  0.4286
  836MOL0     H12842   6.879   9.080   0.857  0.2446  2.2653 -2.4004
  836MOL0     H12843   7.046   9.053   1.044 -0.0946  0.9615 -0.2339
  836MOL0     H12844   7.215   9.364   1.422 -1.3817  0.5124 -2.9169
  836MOL0     H12845   7.383   9.388   1.592  2.7954 -1.6544  1.1611
  836MOL0     H12846   9.194   9.431   1.950 -0.1282  2.0104 -2.6678
  836MOL0     H12847   9.446   9.401   1.907  1.3416  0.9206 -0.3367
  836MOL0     H12848   9.905   9.382   1.796 -0.2467  0.1291 -1.6478
  836MOL0     H12849  10.137   9.472   1.746  0.6119  1.1821 -0.3942
  836MOL0     H12850  10.349   9.754   1.940 -0.3437 -1.7380  3.4975
  836MOL0     H12851  10.256   9.628   1.991  3.0910  1.3671  1.9914
  836MOL0     H12852  10.364   9.491   1.811  0.3589  1.0455 -4.5563
  836MOL0     H12853  10.483   9.563   1.934 -1.4286 -1.5645  0.3286
  836MOL0     H12854  10.527   9.738   1.764 -3.4111  1.1708 -2.1825
  836MOL0     H12855  10.416   9.660   1.648 -1.6646 -0.7427  0.9782
  836MOL0     H12856  10.543   9.491   1.607  1.1885  1.4746 -2.8855
  836MOL0     H12857  10.643   9.496   1.763  2.0668  0.4940 -0.8946
  836MOL0     H12858  10.858   9.711   1.458 -0.0965  0.4707 -1.4597
  836MOL0     H12859  10.036   9.850   1.908  0.5306 -0.1948 -0.3524
  836MOL0     H12860   9.794   9.761   1.940 -1.6756 -2.0947 -0.3172
  837MOL0     O12861   2.812  11.160   4.288 -0.2570  0.8659  0.0374
  837MOL0     C12862   2.913  11.225   4.262 -0.8724  0.6922  0.6914
  837MOL0     O12863   2.913  11.335   4.170  0.4409 -0.6286 -0.4220
  837MOL0     C12864   2.791  11.374   4.132 -0.7384 -0.9898  0.0880
  837MOL0     C12865   2.770  11.513   4.139  0.0466  0.2883 -0.6925
  837MOL0     C12866   2.659  11.569   4.091 -0.5754  0.6242  0.3125
  837MOL0     C12867   2.553  11.487   4.052  0.2958 -0.0498  1.3887
  837MOL0     O12868   2.447  11.560   4.010 -0.3556 -0.0400  0.0772
  837MOL0     C12869   2.316  11.497   4.011 -0.0461  0.1656 -0.2226
  837MOL0     C12870   2.211  11.597   3.972 -0.2366 -0.2509  0.3041
  837MOL0     C12871   2.074  11.543   3.994  0.0191 -0.1040  0.2342
  837MOL0     C12872   1.979  11.628   3.903 -0.4443  0.4534 -0.0101
  837MOL0     C12873   1.838  11.574   3.889  0.1157  0.1522 -0.5497
  837MOL0     C12874   1.756  11.540   4.018 -0.2079 -0.2027  0.1688
  837MOL0     C12875   1.605  11.538   3.989  0.0789 -1.1760 -0.2358
  837MOL0     C12876   1.546  11.424   3.908 -0.4758 -0.6128 -0.4999
  837MOL0     N12877   1.401  11.443   3.869 -0.4554  0.1700  0.6191
  837MOL0     C12878   1.291  11.372   3.913 -0.5300  0.1327 -0.2408
  837MOL0     C12879   1.190  11.445   3.861 -0.0090 -0.0444  0.1105
  837MOL0     C12880   1.049  11.420   3.895 -0.7228 -0.0126  0.2073
  837MOL0     C12881   1.019  11.408   4.043 -0.4552  0.8187 -0.6062
  837MOL0     C12882   0.866  11.431   4.079  0.5924 -0.5611  0.1652
  837MOL0     C12883   0.815  11.569   4.036 -0.0580 -0.4215  0.0888
  837MOL0     O12884   0.765  11.585   3.906 -0.1686 -0.4487  0.6107
  837MOL0     C12885   0.628  11.566   3.890 -0.3868 -0.3283  0.5828
  837MOL0     C12886   0.552  11.466   3.946  0.7256  0.2988  0.3644
  837MOL0     C12887   0.410  11.474   3.939  0.2242 -0.6033 -0.3896
  837MOL0     C12888   0.340  11.355   4.011 -0.4731 -0.3241  0.0202
  837MOL0     C12889   0.342  11.574   3.868  0.2541 -0.0402 -0.2013
  837MOL0     C12890   0.189  11.582   3.867 -0.2921  0.8148 -0.2197
  837MOL0     O12891   0.146  11.653   3.761 -0.4793  0.4671  0.0580
  837MOL0     C12892   0.016  11.666   3.738  0.0304  0.1599  0.5624
  837MOL0     C12893  -0.024  11.645   3.601 -0.3700  0.0567 -0.4207
  837MOL0     C12894  -0.150  11.659   3.555 -0.6417  0.5165 -0.0873
  837MOL0     C12895  -0.249  11.680   3.649  0.1085  0.5029 -0.7497
  837MOL0     O12896  -0.381  11.696   3.615 -0.0663 -0.2859  0.9905
  837MOL0     C12897  -0.433  11.683   3.480  0.1598 -0.3383 -0.3036
  837MOL0     C12898  -0.582  11.743   3.476  0.0100 -0.2541 -0.1957
  837MOL0     C12899  -0.674  11.639   3.407 -0.1528 -0.0390  0.1083
  837MOL0     C12900  -0.824  11.666   3.437  0.0814 -0.0974  0.7713
  837MOL0     C12901  -0.871  11.789   3.357 -0.6560 -0.7412  0.5117
  837MOL0     C12902  -0.993  11.856   3.422  1.1154  0.2131 -0.6984
  837MOL0     C12903  -1.063  11.946   3.318  0.2866  0.4908  0.1714
  837MOL0     C12904  -1.213  11.954   3.364  0.1343 -0.7169  0.3137
  837MOL0    Cl12905  -1.242  12.036   3.527  0.1440 -0.1005  0.2548
  837MOL0     C12906  -0.224  11.685   3.786  0.0142  0.1117 -0.1397
  837MOL0     C12907  -0.090  11.683   3.832 -0.1483  0.2912  0.2004
  837MOL0     O12908   0.120  11.532   3.950 -0.0996  0.1831  0.1727
  837MOL0     C12909   0.427  11.658   3.794 -0.7776  0.3030 -0.7036
  837MOL0     C12910   0.565  11.658   3.810 -0.5374 -0.0121  0.4026
  837MOL0     N12911   1.242  11.541   3.774 -0.0357  0.6896 -0.0774
  837MOL0     N12912   1.364  11.546   3.784 -1.1642  0.3092 -0.3342
  837MOL0     C12913   2.565  11.352   4.046 -0.2973  0.0414  0.1333
  837MOL0     C12914   2.683  11.296   4.075  0.3209 -0.0304  0.1432
  837MOL0     C12915   3.042  11.186   4.322  0.1842  0.3076  0.8137
  837MOL0     C12916   3.053  11.054   4.366 -0.5584  0.0930 -0.2204
  837MOL0     C12917   3.173  11.000   4.417  1.0631  0.2862  0.0330
  837MOL0     C12918   3.277  11.085   4.441  0.4918 -1.3640 -0.4162
  837MOL0     O12919   3.389  11.029   4.496 -0.3554  0.3925  0.3320
  837MOL0     C12920   3.513  11.099   4.483 -0.2521 -0.4908  0.4633
  837MOL0     C12921   3.628  11.014   4.535  0.1376 -0.4129  0.4711
  837MOL0     C12922   3.758  11.086   4.506 -0.3369  0.3686 -0.2900
  837MOL0     C12923   3.866  11.004   4.571 -1.0903  0.4373 -0.8783
  837MOL0     C12924   3.998  11.071   4.550 -1.0451 -0.3669  0.2930
  837MOL0     C12925   4.104  11.135   4.528 -0.1654 -0.4584  0.8833
  837MOL0     C12926   3.258  11.223   4.411 -0.0671  0.3431 -0.9742
  837MOL0     C12927   3.141  11.275   4.344 -0.8334 -0.5966 -0.1037
  837MOL0     H12928   2.848  11.571   4.188  1.9242 -0.8992 -2.1322
  837MOL0     H12929   2.671  11.677   4.081  0.7561  0.3186 -2.0932
  837MOL0     H12930   2.316  11.412   3.942  0.8559  0.2397 -0.3290
  837MOL0     H12931   2.298  11.463   4.113 -1.4872  0.4896 -0.3418
  837MOL0     H12932   2.230  11.693   4.021 -0.0276  1.7709 -3.3801
  837MOL0     H12933   2.228  11.623   3.867  3.9242 -3.6493 -0.1157
  837MOL0     H12934   2.071  11.439   3.959  1.4958 -0.2425  0.4788
  837MOL0     H12935   2.047  11.554   4.099 -0.5200 -1.3948  0.2538
  837MOL0     H12936   1.985  11.729   3.943 -0.4298  0.4798 -0.0773
  837MOL0     H12937   2.031  11.623   3.806 -0.0950 -0.3896  0.2074
  837MOL0     H12938   1.776  11.643   3.830 -2.7986 -1.2840  0.6483
  837MOL0     H12939   1.840  11.481   3.832 -1.4537 -0.7830  0.8126
  837MOL0     H12940   1.788  11.441   4.050  2.0684 -0.5955 -2.7638
  837MOL0     H12941   1.790  11.610   4.094  0.2707  2.0424 -1.9617
  837MOL0     H12942   1.554  11.546   4.085 -1.5443  1.2624 -1.1937
  837MOL0     H12943   1.578  11.632   3.940  1.3942 -0.0252  1.1485
  837MOL0     H12944   1.553  11.332   3.967 -0.1486 -2.0078 -2.6227
  837MOL0     H12945   1.605  11.408   3.818  0.7853  2.4741 -0.3365
  837MOL0     H12946   1.291  11.298   3.993  0.8580  2.1895  1.8137
  837MOL0     H12947   0.981  11.489   3.845 -3.1312 -0.5427  2.5452
  837MOL0     H12948   1.036  11.317   3.860  0.0262  0.0335 -0.2385
  837MOL0     H12949   1.080  11.479   4.100 -0.7340  1.0262 -0.5651
  837MOL0     H12950   1.049  11.310   4.080 -2.1370  1.0082  1.3961
  837MOL0     H12951   0.843  11.426   4.186 -2.5333 -1.2426 -0.4527
  837MOL0     H12952   0.807  11.345   4.046  0.7821 -0.8753  0.6352
  837MOL0     H12953   0.900  11.637   4.044 -0.6213  0.2070  0.8455
  837MOL0     H12954   0.743  11.602   4.112  1.0240  0.2802  0.8324
  837MOL0     H12955   0.606  11.384   3.992  0.2303  0.2136  0.8065
  837MOL0     H12956   0.263  11.318   3.943  1.1263 -0.6457 -1.6911
  837MOL0     H12957   0.409  11.273   4.031 -0.3006 -0.0856  0.4191
  837MOL0     H12958   0.306  11.401   4.104  1.8619  1.6571 -0.0280
  837MOL0     H12959   0.054  11.630   3.527  0.6486 -0.7081  0.7778
  837MOL0     H12960  -0.167  11.658   3.447 -1.6859  0.2931  0.0632
  837MOL0     H12961  -0.371  11.736   3.407  1.3831 -1.6344 -0.2502
  837MOL0     H12962  -0.429  11.577   3.453 -0.1087 -0.2651 -0.6267
  837MOL0     H12963  -0.617  11.791   3.567  0.8767  1.4217 -0.7013
  837MOL0     H12964  -0.579  11.826   3.405  3.2207  1.1508  1.3422
  837MOL0     H12965  -0.649  11.537   3.441 -0.4923 -0.9179 -2.1299
  837MOL0     H12966  -0.655  11.652   3.301  0.1397 -1.7505 -0.0762
  837MOL0     H12967  -0.884  11.575   3.429 -0.4339  0.3146 -0.3360
  837MOL0     H12968  -0.828  11.688   3.544  1.6069 -2.6454  1.4329
  837MOL0     H12969  -0.892  11.756   3.255 -3.4806 -0.0830  0.8163
  837MOL0     H12970  -0.791  11.865   3.355 -1.7169  0.4696  1.7599
  837MOL0     H12971  -1.068  11.789   3.463  0.4485  0.8518 -0.8493
  837MOL0     H12972  -0.965  11.918   3.508 -1.2106 -0.8435  0.8975
  837MOL0     H12973  -1.054  11.899   3.220  0.7490 -2.2397  1.4416
  837MOL0     H12974  -1.021  12.048   3.313 -1.7175  1.4684  1.7576
  837MOL0     H12975  -1.258  11.854   3.363 -1.9306  0.0730  3.0756
  837MOL0     H12976  -1.279  12.000   3.290 -0.9399 -3.1670 -0.3619
  837MOL0     H12977  -0.304  11.701   3.858 -0.0491  0.8411 -0.3597
  837MOL0     H12978  -0.069  11.705   3.936 -2.5005  2.2965  0.3494
  837MOL0     H12979   0.387  11.741   3.737  0.9948  2.9457  1.6411
  837MOL0     H12980   0.638  11.720   3.761  1.3062  0.0937  3.0506
  837MOL0     H12981   2.488  11.289   4.003  1.1573 -1.7919  0.0907
  837MOL0     H12982   2.698  11.190   4.056 -1.3635  0.1807 -3.0465
  837MOL0     H12983   2.968  10.991   4.346 -1.4546  1.4199 -0.7536
  837MOL0     H12984   3.163  10.899   4.455 -1.3880  1.1118  1.8634
  837MOL0     H12985   3.532  11.125   4.378 -4.0046  0.7740 -0.0475
  837MOL0     H12986   3.503  11.191   4.542  0.0346 -1.1113  1.4941
  837MOL0     H12987   3.621  10.916   4.487  0.1101  0.0809 -0.5489
  837MOL0     H12988   3.612  10.998   4.642  0.7289 -0.8911  0.4973
  837MOL0     H12989   3.759  11.185   4.553  1.2264  0.0293  0.4678
  837MOL0     H12990   3.760  11.093   4.397  2.4980 -1.6058 -0.4819
  837MOL0     H12991   3.865  10.904   4.527 -0.8122 -0.8599  1.8524
  837MOL0     H12992   3.844  10.995   4.678 -1.0465  0.7484 -0.8444
  837MOL0     H12993   4.196  11.187   4.515  0.1966 -1.5935 -1.5811
  837MOL0     H12994   3.332  11.294   4.446  0.5171 -0.5188 -0.4402
  837MOL0     H12995   3.118  11.377   4.315 -3.6168 -1.2734 -0.5186
  838MOL0     O12996  10.926  10.281  10.517 -0.2326 -0.2680  0.9274
  838MOL0     C12997  10.931  10.349  10.413 -0.5752 -0.1528  0.6190
  838MOL0     O12998  10.826  10.397  10.341  0.2322 -0.0654 -0.5222
  838MOL0     C12999  10.700  10.369  10.388 -0.2472  0.1361  0.3927
  838MOL0     C13000  10.635  10.423  10.493  0.3786 -0.7258  0.4675
  838MOL0     C13001  10.515  10.376  10.541  0.6923 -0.4663 -0.0309
  838MOL0     C13002  10.458  10.259  10.489  1.0835 -1.3160 -0.4726
  838MOL0     O13003  10.351  10.197  10.550 -0.1932  0.7791 -0.8179
  838MOL0     C13004  10.215  10.230  10.514  0.1288 -0.2157 -0.3355
  838MOL0     C13005  10.186  10.379  10.533  0.0114 -1.0505 -0.9465
  838MOL0     C13006  10.039  10.408  10.522  0.1330 -0.2550 -0.5847
  838MOL0     C13007  10.004  10.549  10.569 -0.5354 -0.3177  0.4865
  838MOL0     C13008   9.852  10.574  10.593  0.4156 -0.6725 -0.0252
  838MOL0     C13009   9.813  10.723  10.581  0.1731  0.0310 -0.1480
  838MOL0     C13010   9.900  10.826  10.661 -0.9203 -0.4791  0.6109
  838MOL0     C13011   9.908  10.818  10.811 -0.3546 -0.3320  0.5445
  838MOL0     N13012   9.771  10.832  10.866  0.9700 -0.7633 -0.2290
  838MOL0     C13013   9.685  10.734  10.893 -0.2301  1.0360 -1.4065
  838MOL0     C13014   9.596  10.797  10.971  0.2635 -0.0956 -0.2888
  838MOL0     C13015   9.469  10.741  11.027 -0.2395 -0.2785  0.7814
  838MOL0     C13016   9.356  10.754  10.925 -0.6778  0.1621  0.2472
  838MOL0     C13017   9.361  10.655  10.805  0.0256  0.4025 -0.4595
  838MOL0     C13018   9.235  10.668  10.714 -0.0502 -0.2152 -0.8221
  838MOL0     O13019   9.116  10.617  10.771 -0.5190 -0.1471 -0.0881
  838MOL0     C13020   9.002  10.604  10.697  0.1954 -0.2957  0.1430
  838MOL0     C13021   8.993  10.641  10.562  0.5452  0.2928  0.5570
  838MOL0     C13022   8.866  10.627  10.499 -0.2018 -0.3984 -0.6015
  838MOL0     C13023   8.867  10.643  10.349 -0.1473  0.0951 -0.0461
  838MOL0     C13024   8.750  10.592  10.575  0.1089 -0.1881 -0.0734
  838MOL0     C13025   8.612  10.584  10.524 -0.1280 -0.2854  0.0064
  838MOL0     O13026   8.532  10.485  10.572  0.0998  0.6214 -0.3022
  838MOL0     C13027   8.416  10.466  10.504  0.4825  0.6509  0.3553
  838MOL0     C13028   8.299  10.535  10.543  0.8222 -0.6088 -0.2191
  838MOL0     C13029   8.181  10.496  10.481  0.1061  0.0685 -0.2279
  838MOL0     C13030   8.163  10.397  10.389 -0.1010  0.3666  0.3289
  838MOL0     O13031   8.048  10.392  10.316 -0.2474  0.2525 -0.4792
  838MOL0     C13032   8.054  10.331  10.178 -0.0331 -0.2873 -0.3570
  838MOL0     C13033   7.934  10.388  10.090  0.2712 -0.1218  0.0710
  838MOL0     C13034   7.793  10.358  10.144  0.4784 -0.1485 -0.5343
  838MOL0     C13035   7.685  10.454  10.086  0.6005  0.5859 -0.4830
  838MOL0     C13036   7.559  10.406  10.157  0.8423  0.1553  0.0412
  838MOL0     C13037   7.437  10.487  10.121  0.4487 -0.1445 -0.4980
  838MOL0     C13038   7.327  10.488  10.229 -0.3673  0.5634 -1.2819
  838MOL0     C13039   7.193  10.490  10.176 -0.1599 -0.4408  0.0046
  838MOL0    Cl13040   7.079  10.516  10.316 -0.2745 -0.1053 -0.1546
  838MOL0     C13041   8.284  10.321  10.357 -0.1807  0.9221 -0.0383
  838MOL0     C13042   8.404  10.356  10.419 -0.3406  0.4371 -0.5177
  838MOL0     O13043   8.579  10.672  10.444 -0.5776 -0.2066  0.0687
  838MOL0     C13044   8.759  10.552  10.710 -0.4821 -0.3010  0.2084
  838MOL0     C13045   8.891  10.553  10.767  0.5885 -0.3322 -0.3049
  838MOL0     N13046   9.638  10.925  11.007 -0.2515 -0.1800  0.0067
  838MOL0     N13047   9.743  10.947  10.935  0.6780 -0.7315 -0.7242
  838MOL0     C13048  10.514  10.207  10.376 -0.3012 -0.4892  0.5902
  838MOL0     C13049  10.631  10.265  10.323  0.5833 -0.3662  0.4692
  838MOL0     C13050  11.057  10.362  10.342 -0.0705 -0.3416  0.1893
  838MOL0     C13051  11.161  10.269  10.383  0.2969  0.0308  0.3585
  838MOL0     C13052  11.284  10.265  10.317 -0.6200  0.1290 -1.5639
  838MOL0     C13053  11.311  10.357  10.221  0.5259 -0.5595  0.1528
  838MOL0     O13054  11.424  10.370  10.150 -0.3839 -0.0872  0.4785
  838MOL0     C13055  11.530  10.278  10.156  0.0619  0.4744 -0.5242
  838MOL0     C13056  11.626  10.285  10.042 -0.2562 -0.0499  0.3529
  838MOL0     C13057  11.573  10.264   9.905  0.9749 -0.6524 -0.1205
  838MOL0     C13058  11.695  10.249   9.805  0.1193 -0.0592  0.4371
  838MOL0     C13059  11.661  10.181   9.676 -0.6285 -0.2238  0.2963
  838MOL0     C13060  11.645  10.123   9.575 -0.7627 -0.1102  0.5123
  838MOL0     C13061  11.216  10.458  10.183 -0.3003 -0.1062  0.3131
  838MOL0     C13062  11.093  10.463  10.246 -0.3298 -0.0460  0.6783
  838MOL0     H13063  10.685  10.507  10.542  0.4687 -0.7878  0.4815
  838MOL0     H13064  10.468  10.434  10.620  4.4777  0.4861  1.7658
  838MOL0     H13065  10.199  10.194  10.412 -0.5561 -3.3202  0.7328
  838MOL0     H13066  10.149  10.166  10.574  1.5447  1.4019  3.2817
  838MOL0     H13067  10.216  10.410  10.634  1.7962 -0.7090 -1.5381
  838MOL0     H13068  10.250  10.443  10.471  0.1903 -0.5454 -0.2495
  838MOL0     H13069  10.002  10.379  10.423  0.1006  0.9218 -0.9317
  838MOL0     H13070   9.979  10.355  10.597 -0.6465  0.7264 -0.4943
  838MOL0     H13071  10.047  10.565  10.668  0.8311 -1.6939  0.1600
  838MOL0     H13072  10.041  10.630  10.505  1.6477 -0.5479  1.3844
  838MOL0     H13073   9.784  10.527  10.521 -0.1707  0.8568 -0.5075
  838MOL0     H13074   9.815  10.518  10.680 -1.4520 -0.7572 -0.8290
  838MOL0     H13075   9.828  10.758  10.479  0.6938  0.9626  0.2398
  838MOL0     H13076   9.708  10.732  10.610  0.6390 -2.8727  3.1040
  838MOL0     H13077  10.006  10.820  10.635 -0.9412  3.3393 -1.1079
  838MOL0     H13078   9.867  10.924  10.624 -0.8592 -0.8589 -0.4754
  838MOL0     H13079   9.967  10.898  10.856 -0.9171 -0.1731  1.0161
  838MOL0     H13080   9.957  10.723  10.835  3.3130  0.7395 -1.8776
  838MOL0     H13081   9.683  10.631  10.857  0.3268  1.1309 -1.7173
  838MOL0     H13082   9.499  10.638  11.049 -0.0024 -0.7016 -1.3249
  838MOL0     H13083   9.438  10.797  11.116 -1.5725  0.6362 -0.2213
  838MOL0     H13084   9.360  10.860  10.897  2.4927  0.3117  0.9445
  838MOL0     H13085   9.260  10.741  10.975  0.6253  1.1872  3.2320
  838MOL0     H13086   9.374  10.549  10.830 -2.0282 -0.1861 -1.6840
  838MOL0     H13087   9.448  10.679  10.743  0.7335 -1.0231 -0.0537
  838MOL0     H13088   9.245  10.622  10.615  1.9026  1.8057 -1.6533
  838MOL0     H13089   9.234  10.777  10.700  0.3358  0.5587  3.6140
  838MOL0     H13090   9.073  10.686  10.504  0.1925  0.9114  0.5403
  838MOL0     H13091   8.785  10.617  10.282  1.5722  2.6687 -3.4343
  838MOL0     H13092   8.900  10.741  10.315  0.8676 -0.4315 -0.6155
  838MOL0     H13093   8.950  10.577  10.323  1.6391  1.6945  1.2893
  838MOL0     H13094   8.303  10.617  10.615  1.0660 -1.9541  1.3578
  838MOL0     H13095   8.092  10.556  10.495 -0.7876 -1.2592  0.0301
  838MOL0     H13096   8.145  10.358  10.124 -0.4131 -0.2778 -1.0039
  838MOL0     H13097   8.052  10.222  10.182  1.0877 -0.2895  0.5607
  838MOL0     H13098   7.961  10.494  10.085 -0.9746  0.1542 -1.4950
  838MOL0     H13099   7.949  10.346   9.990  2.3776  0.6735  0.0076
  838MOL0     H13100   7.804  10.364  10.253 -0.4674  1.8157 -0.5173
  838MOL0     H13101   7.766  10.256  10.115  0.6586 -0.3297 -0.0867
  838MOL0     H13102   7.717  10.558  10.100  0.9870  0.2229  1.6504
  838MOL0     H13103   7.677  10.442   9.977  1.8675 -2.4506 -0.3430
  838MOL0     H13104   7.582  10.410  10.264 -0.4147 -2.3923  0.4885
  838MOL0     H13105   7.544  10.300  10.134 -1.3438  0.5852 -0.6833
  838MOL0     H13106   7.465  10.590  10.095  2.0377 -1.0036 -2.4325
  838MOL0     H13107   7.392  10.443  10.032 -1.8902 -1.9481  1.4189
  838MOL0     H13108   7.338  10.579  10.290 -0.0222 -1.0814  1.2597
  838MOL0     H13109   7.337  10.402  10.296  2.6075  1.6869 -0.1004
  838MOL0     H13110   7.177  10.390  10.134  0.6683 -0.8787  0.6900
  838MOL0     H13111   7.166  10.558  10.095 -1.9497 -3.6886 -2.3833
  838MOL0     H13112   8.284  10.235  10.290  0.3078 -1.1757  2.5212
  838MOL0     H13113   8.501  10.311  10.398 -0.1164 -1.4650  3.7177
  838MOL0     H13114   8.680  10.510  10.771  1.8977 -0.4503  3.4984
  838MOL0     H13115   8.898  10.508  10.865 -0.2081  0.5201  0.1565
  838MOL0     H13116  10.474  10.117  10.330 -1.5191 -0.1861  1.0445
  838MOL0     H13117  10.685  10.241  10.232  1.3837 -1.3328  1.1755
  838MOL0     H13118  11.141  10.187  10.451  0.5508  0.0259  0.4282
  838MOL0     H13119  11.359  10.198  10.357 -1.3807  0.3484  0.3459
  838MOL0     H13120  11.593  10.293  10.244 -1.5865 -1.3072  1.0584
  838MOL0     H13121  11.491  10.176  10.160  2.5090 -0.5445 -1.0747
  838MOL0     H13122  11.714  10.224  10.066  0.1619 -0.3945 -1.8041
  838MOL0     H13123  11.669  10.386  10.043  2.6207 -1.1758  1.2243
  838MOL0     H13124  11.509  10.347   9.872  0.5765 -0.9707 -0.1649
  838MOL0     H13125  11.515  10.171   9.900  0.9588 -0.8593  2.5370
  838MOL0     H13126  11.770  10.191   9.859 -0.8454 -2.5171 -0.7215
  838MOL0     H13127  11.737  10.346   9.777  0.2735 -0.2141  0.1228
  838MOL0     H13128  11.642  10.082   9.476 -0.7371  1.3078 -0.0869
  838MOL0     H13129  11.250  10.525  10.105  0.7562 -0.1352  0.7325
  838MOL0     H13130  11.032  10.550  10.222  1.2580  0.9690  0.1941
  839MOL0     O13131   5.838   8.071  10.533  0.3768 -0.0114 -0.0163
  839MOL0     C13132   5.861   8.037  10.647  0.6799 -0.3844 -0.2949
  839MOL0     O13133   5.826   8.111  10.762  0.2131 -0.0745 -0.8380
  839MOL0     C13134   5.746   8.219  10.759  0.2150  0.1089 -0.7760
  839MOL0     C13135   5.742   8.319  10.652 -0.2683 -0.3973  0.1519
  839MOL0     C13136   5.642   8.407  10.644 -0.2759  0.9564 -0.1963
  839MOL0     C13137   5.545   8.421  10.744 -0.1374  0.4185 -0.0207
  839MOL0     O13138   5.441   8.517  10.739 -0.3028  0.6496  0.4090
  839MOL0     C13139   5.418   8.594  10.620 -0.2250 -0.8864 -0.2744
  839MOL0     C13140   5.378   8.502  10.504  0.1443 -0.1544 -0.6125
  839MOL0     C13141   5.237   8.435  10.524 -0.6554 -0.4011  0.6419
  839MOL0     C13142   5.246   8.285  10.562  0.6421  0.3965 -0.1111
  839MOL0     C13143   5.103   8.222  10.601 -0.9737  0.5857  0.0563
  839MOL0     C13144   5.129   8.074  10.622  0.1783  0.2996  0.4740
  839MOL0     C13145   4.993   8.006  10.662  0.0868  0.4592  0.0166
  839MOL0     C13146   5.016   7.860  10.649  0.3202 -0.1008 -0.4727
  839MOL0     N13147   4.904   7.785  10.709  0.6870  0.2389  0.8788
  839MOL0     C13148   4.838   7.809  10.826  0.6766 -0.2780  0.0521
  839MOL0     C13149   4.736   7.716  10.826 -0.6884 -0.1080  0.1758
  839MOL0     C13150   4.649   7.695  10.942 -0.5959 -0.1760  0.2117
  839MOL0     C13151   4.537   7.806  10.958 -0.2264  0.2618  0.3560
  839MOL0     C13152   4.575   7.956  10.972  0.2392  0.8759  0.3851
  839MOL0     C13153   4.650   7.980  11.106  1.1009  0.1668  0.4116
  839MOL0     O13154   4.561   7.945  11.217  0.0864 -0.3796  0.2710
  839MOL0     C13155   4.578   8.001  11.343  0.1801  0.0868 -0.3464
  839MOL0     C13156   4.481   7.999  11.441 -0.1363  0.6081 -0.1261
  839MOL0     C13157   4.505   8.045  11.571  0.5629  0.2113  0.6349
  839MOL0     C13158   4.383   8.038  11.666  0.4883 -0.1823  0.2497
  839MOL0     C13159   4.633   8.095  11.605  0.4108  0.6900 -0.0270
  839MOL0     C13160   4.666   8.157  11.735 -0.6156  1.1597  0.1277
  839MOL0     O13161   4.788   8.126  11.792  0.6422  0.1442  0.0065
  839MOL0     C13162   4.852   8.009  11.783  0.4786  0.1285 -0.2574
  839MOL0     C13163   4.791   7.880  11.814  0.2539 -0.5904  0.3031
  839MOL0     C13164   4.857   7.761  11.785  0.3108 -0.3486  0.0497
  839MOL0     C13165   4.987   7.764  11.730 -0.0567 -0.7135  0.0448
  839MOL0     O13166   5.049   7.644  11.705 -0.0323  0.4271  0.0278
  839MOL0     C13167   5.192   7.633  11.743  0.2303  0.9309  0.5036
  839MOL0     C13168   5.267   7.565  11.632  0.0670  0.3294  0.1590
  839MOL0     C13169   5.272   7.657  11.508 -0.6643 -0.0389  0.1043
  839MOL0     C13170   5.377   7.588  11.411  0.6930 -0.0596 -0.0082
  839MOL0     C13171   5.380   7.657  11.268 -1.3383  0.1867 -0.5085
  839MOL0     C13172   5.432   7.795  11.269  0.7893  0.3764 -0.8584
  839MOL0     C13173   5.436   7.875  11.141 -0.4478  0.0263 -0.4126
  839MOL0     C13174   5.493   7.805  11.018  0.0858 -0.0029  0.3878
  839MOL0    Cl13175   5.491   7.922  10.878  0.3085 -0.5032  0.3327
  839MOL0     C13176   5.045   7.889  11.696  0.2790 -0.5102 -0.2028
  839MOL0     C13177   4.978   8.011  11.726 -0.1708 -0.4701  0.0418
  839MOL0     O13178   4.583   8.232  11.788 -0.4908 -0.4921 -0.1193
  839MOL0     C13179   4.733   8.094  11.508 -0.0489  0.1794  0.4848
  839MOL0     C13180   4.701   8.058  11.378 -0.0167 -0.3312  0.5281
  839MOL0     N13181   4.733   7.645  10.712 -1.1884 -0.1915 -0.6246
  839MOL0     N13182   4.842   7.683  10.641  1.2283 -0.6245 -0.2470
  839MOL0     C13183   5.550   8.329  10.847 -0.5681 -0.0359  0.0660
  839MOL0     C13184   5.645   8.227  10.854 -0.0244  1.0681  0.6904
  839MOL0     C13185   5.940   7.914  10.677 -0.4338  0.0384  0.5232
  839MOL0     C13186   5.952   7.816  10.578  0.3137  0.1849 -0.3684
  839MOL0     C13187   6.029   7.701  10.590 -0.5171 -0.5017 -0.6844
  839MOL0     C13188   6.109   7.685  10.710  0.0374  0.2471  0.2279
  839MOL0     O13189   6.199   7.576  10.735  0.6727 -0.5749  0.2480
  839MOL0     C13190   6.157   7.450  10.685 -0.3625  0.7967  0.2437
  839MOL0     C13191   6.089   7.358  10.780  0.2104  0.0751 -0.6401
  839MOL0     C13192   5.972   7.421  10.861 -0.1759  0.2921 -0.0426
  839MOL0     C13193   5.895   7.308  10.928  0.7074 -1.1179 -0.2025
  839MOL0     C13194   5.764   7.367  10.970 -0.4827 -0.0924  0.6840
  839MOL0     C13195   5.669   7.435  11.009  0.8160  0.1601 -0.0951
  839MOL0     C13196   6.106   7.798  10.799 -0.5885 -0.4324 -0.2759
  839MOL0     C13197   6.023   7.907  10.787  0.5614  0.2170  0.8154
  839MOL0     H13198   5.809   8.316  10.566  2.1261  2.0988  1.7583
  839MOL0     H13199   5.638   8.467  10.554 -1.1476 -0.4040 -1.1131
  839MOL0     H13200   5.341   8.665  10.651  1.0115 -0.1513  1.2392
  839MOL0     H13201   5.510   8.651  10.603 -1.6709  2.8734  3.0095
  839MOL0     H13202   5.376   8.568  10.417  0.3984  0.2176 -0.3423
  839MOL0     H13203   5.448   8.425  10.470  1.4929 -0.1387  1.9016
  839MOL0     H13204   5.178   8.492  10.597  0.9236  2.0160  0.1548
  839MOL0     H13205   5.180   8.439  10.431 -0.8241 -1.5992  0.6805
  839MOL0     H13206   5.297   8.218  10.494 -2.7276 -1.4140 -1.0798
  839MOL0     H13207   5.305   8.277  10.654  0.4034 -2.1435 -0.1107
  839MOL0     H13208   5.073   8.266  10.696 -1.9864  1.8767 -0.8099
  839MOL0     H13209   5.019   8.241  10.533 -1.0945 -0.8545 -0.2278
  839MOL0     H13210   5.161   8.050  10.520  0.3016  0.3928  0.4925
  839MOL0     H13211   5.207   8.056  10.696 -0.0677  1.1568  0.9509
  839MOL0     H13212   4.960   8.039  10.761 -1.1919 -0.0702 -0.2130
  839MOL0     H13213   4.920   8.029  10.585  0.6530 -0.9029 -0.9655
  839MOL0     H13214   5.112   7.831  10.693  0.2755  0.1427 -0.2120
  839MOL0     H13215   5.017   7.831  10.544 -2.0034 -1.6055 -0.1644
  839MOL0     H13216   4.884   7.865  10.907  0.7285  0.6000 -0.5633
  839MOL0     H13217   4.594   7.602  10.924 -0.0913 -1.0174  2.7220
  839MOL0     H13218   4.720   7.690  11.025 -1.6147 -1.0030  1.0607
  839MOL0     H13219   4.469   7.782  11.040 -0.8017  0.6715  0.0073
  839MOL0     H13220   4.479   7.798  10.865  1.2002  0.2856 -0.5772
  839MOL0     H13221   4.489   8.023  10.975  0.8844  1.6999  1.1101
  839MOL0     H13222   4.643   7.985  10.891  0.4689 -1.1133 -0.1793
  839MOL0     H13223   4.668   8.088  11.114 -1.7567  0.8337 -0.8829
  839MOL0     H13224   4.747   7.930  11.114  1.6866  1.0640 -0.7518
  839MOL0     H13225   4.387   7.952  11.414 -1.1712  0.7981  2.8032
  839MOL0     H13226   4.333   7.942  11.647 -1.5150  0.9153 -0.2278
  839MOL0     H13227   4.409   8.043  11.772 -1.9538 -2.8006  1.1317
  839MOL0     H13228   4.312   8.121  11.654 -0.2560 -0.9091 -0.5726
  839MOL0     H13229   4.692   7.883  11.859 -0.5694  0.4880 -1.4854
  839MOL0     H13230   4.818   7.665  11.818  0.1445 -0.2166  0.2440
  839MOL0     H13231   5.233   7.734  11.754  2.6625 -0.1117  1.5390
  839MOL0     H13232   5.196   7.576  11.836 -2.0137 -1.7193 -0.8870
  839MOL0     H13233   5.367   7.539  11.666  0.6254  3.5073  1.2203
  839MOL0     H13234   5.215   7.472  11.604  0.7892 -0.5438  1.5886
  839MOL0     H13235   5.312   7.755  11.534  0.8923 -0.3853 -0.8377
  839MOL0     H13236   5.181   7.677  11.452 -0.5702  0.1857  0.0305
  839MOL0     H13237   5.481   7.598  11.442  1.8428  0.2585 -3.5433
  839MOL0     H13238   5.352   7.482  11.415 -0.9770  0.2933  4.4866
  839MOL0     H13239   5.280   7.646  11.224 -0.1064 -1.6858 -3.1482
  839MOL0     H13240   5.449   7.608  11.199  1.4312  1.7438  0.9897
  839MOL0     H13241   5.361   7.861  11.321 -2.5419 -2.3961 -1.5643
  839MOL0     H13242   5.535   7.790  11.306  1.3336  0.7979 -2.2820
  839MOL0     H13243   5.479   7.973  11.165 -0.1196 -0.6160  1.8800
  839MOL0     H13244   5.331   7.888  11.113 -0.4149  0.6360 -0.2636
  839MOL0     H13245   5.426   7.725  10.987  0.1961 -0.7165  1.8844
  839MOL0     H13246   5.590   7.761  11.044  0.1100 -1.9018 -2.4772
  839MOL0     H13247   5.138   7.901  11.643  0.1897 -0.0022 -0.2537
  839MOL0     H13248   5.026   8.104  11.697  1.6332 -1.0853  0.9296
  839MOL0     H13249   4.832   8.136  11.527  0.7125 -0.5496 -1.5536
  839MOL0     H13250   4.779   8.064  11.303  0.6114  2.1302  1.2759
  839MOL0     H13251   5.472   8.334  10.923  0.1981  1.4977  0.7949
  839MOL0     H13252   5.653   8.155  10.935 -2.9337  1.6712  1.6279
  839MOL0     H13253   5.881   7.819  10.496 -2.3990 -3.1396  1.5905
  839MOL0     H13254   6.018   7.630  10.509  2.0539 -0.8085 -0.8389
  839MOL0     H13255   6.084   7.464  10.605 -1.6029  2.1697  1.5579
  839MOL0     H13256   6.247   7.406  10.639 -0.8773  0.5219 -0.5270
  839MOL0     H13257   6.164   7.316  10.848  1.3080  0.4932 -1.5572
  839MOL0     H13258   6.045   7.275  10.723 -2.2388 -0.5875  1.9919
  839MOL0     H13259   5.901   7.474  10.797  0.1719  1.7541  0.7223
  839MOL0     H13260   6.017   7.498  10.924  3.5634 -0.6533 -1.3294
  839MOL0     H13261   5.949   7.271  11.016 -0.8959  0.2816  1.4276
  839MOL0     H13262   5.876   7.219  10.867 -2.7105  0.3498 -1.4986
  839MOL0     H13263   5.593   7.488  11.063 -0.8608  0.0816 -2.2188
  839MOL0     H13264   6.163   7.795  10.891  0.1578 -0.4571 -0.7270
  839MOL0     H13265   6.029   7.993  10.853 -2.0244  1.7771 -0.7919
  840MOL0     O13266   1.564   7.585   1.669 -0.0727  0.7675  0.4022
  840MOL0     C13267   1.571   7.670   1.585 -0.1917  0.2593 -0.0866
  840MOL0     O13268   1.495   7.783   1.575  0.0230  0.2587  0.1070
  840MOL0     C13269   1.398   7.801   1.673  0.3147  0.6524  0.1333
  840MOL0     C13270   1.280   7.714   1.671 -0.3026  0.0538  0.1008
  840MOL0     C13271   1.193   7.729   1.767  0.5737 -0.4087 -0.3016
  840MOL0     C13272   1.200   7.828   1.865  0.1507 -0.0723 -0.5535
  840MOL0     O13273   1.098   7.830   1.957 -0.1065  0.2960 -0.2208
  840MOL0     C13274   1.115   7.736   2.067 -1.3743 -0.8739  0.2706
  840MOL0     C13275   0.981   7.732   2.137  0.3240  0.2689  0.0014
  840MOL0     C13276   0.993   7.655   2.276  0.0645 -0.8742  0.8546
  840MOL0     C13277   0.857   7.599   2.305  0.3661 -0.4792 -0.7981
  840MOL0     C13278   0.845   7.495   2.425  0.6152  0.6083  0.2917
  840MOL0     C13279   0.692   7.454   2.447 -0.1785  0.3188 -0.2244
  840MOL0     C13280   0.674   7.339   2.559  0.2522 -0.0338 -1.1361
  840MOL0     C13281   0.750   7.207   2.543 -0.3655  0.5064 -0.3284
  840MOL0     N13282   0.684   7.110   2.643  0.0175 -0.5743  1.1363
  840MOL0     C13283   0.747   7.056   2.752  0.2636 -0.7191 -0.7012
  840MOL0     C13284   0.683   6.941   2.781  0.6327  0.3960  0.0489
  840MOL0     C13285   0.723   6.831   2.884 -0.0352  0.2270  0.5315
  840MOL0     C13286   0.841   6.748   2.836 -0.8151  1.3766  0.6101
  840MOL0     C13287   0.885   6.642   2.942  0.2859 -0.4955 -0.3443
  840MOL0     C13288   0.996   6.557   2.889  0.0383  0.3005 -0.8779
  840MOL0     O13289   1.058   6.480   2.992 -0.4544  0.0340 -0.8048
  840MOL0     C13290   1.192   6.448   2.956  0.1152  0.1241 -0.5140
  840MOL0     C13291   1.219   6.364   2.846  0.8061  0.4307 -0.0723
  840MOL0     C13292   1.352   6.351   2.802  0.6832  1.0746 -0.8930
  840MOL0     C13293   1.368   6.256   2.687 -0.1558 -0.1263 -0.3466
  840MOL0     C13294   1.456   6.422   2.851  0.2332  0.6495  0.3338
  840MOL0     C13295   1.591   6.431   2.795  0.4010  0.7423 -0.3781
  840MOL0     O13296   1.601   6.417   2.664  0.1274 -0.3951 -0.0952
  840MOL0     C13297   1.726   6.428   2.606 -0.1052 -0.9117  0.0976
  840MOL0     C13298   1.833   6.344   2.634  0.3172 -0.9598 -0.0713
  840MOL0     C13299   1.955   6.355   2.564 -0.9013  0.2720 -0.5026
  840MOL0     C13300   1.970   6.460   2.471 -0.7979  0.8229 -0.3182
  840MOL0     O13301   2.090   6.494   2.403  0.1748 -0.5930 -0.2457
  840MOL0     C13302   2.207   6.413   2.424  0.0452  0.1594  0.0555
  840MOL0     C13303   2.274   6.463   2.551  0.8092  0.1685 -0.6686
  840MOL0     C13304   2.345   6.602   2.540  0.0628  0.3322 -0.2753
  840MOL0     C13305   2.478   6.569   2.473  0.1096  1.0974  1.1307
  840MOL0     C13306   2.565   6.685   2.493  0.2553 -0.4567  0.3927
  840MOL0     C13307   2.714   6.653   2.442 -0.6600 -1.0675  0.1695
  840MOL0     C13308   2.801   6.773   2.487 -0.2495  0.3515  0.3462
  840MOL0     C13309   2.949   6.744   2.459  0.5948 -0.2756 -0.2967
  840MOL0    Cl13310   3.060   6.840   2.577 -0.3420 -0.1385  0.0068
  840MOL0     C13311   1.860   6.545   2.444 -0.4573 -0.2147 -0.4652
  840MOL0     C13312   1.738   6.526   2.505  0.2758 -0.2620 -0.3428
  840MOL0     O13313   1.683   6.417   2.874 -0.3345  0.1736 -0.8431
  840MOL0     C13314   1.426   6.493   2.973 -0.5332 -0.1999  0.6371
  840MOL0     C13315   1.300   6.510   3.024  0.0372  0.9603 -0.2510
  840MOL0     N13316   0.568   6.939   2.700  0.3155 -0.2213 -0.2049
  840MOL0     N13317   0.577   7.028   2.614 -0.4995 -1.0415 -0.1725
  840MOL0     C13318   1.306   7.927   1.861  0.0821  0.0499  0.4967
  840MOL0     C13319   1.408   7.907   1.765 -0.2770  0.4597  0.1817
  840MOL0     C13320   1.674   7.653   1.481  0.2303  0.4287  0.3555
  840MOL0     C13321   1.735   7.529   1.456  0.6302  0.1091  0.0135
  840MOL0     C13322   1.839   7.511   1.362 -0.3500 -0.6732 -0.5595
  840MOL0     C13323   1.883   7.618   1.295 -1.0385 -0.2027  0.3912
  840MOL0     O13324   1.974   7.583   1.206 -0.7540  0.3476  0.5035
  840MOL0     C13325   2.063   7.683   1.152  1.0487  0.2667 -0.5978
  840MOL0     C13326   2.153   7.620   1.048 -0.2944  0.4472  0.4931
  840MOL0     C13327   2.084   7.527   0.946  0.3848  0.4412  0.0797
  840MOL0     C13328   2.168   7.462   0.836 -0.8624  0.0315  0.3879
  840MOL0     C13329   2.222   7.545   0.729  0.2228  0.2223  0.4250
  840MOL0     C13330   2.260   7.607   0.628 -0.0271  0.2954  0.4979
  840MOL0     C13331   1.833   7.747   1.321 -0.1261 -0.0371  0.2106
  840MOL0     C13332   1.722   7.764   1.405 -0.0482  0.3205  0.4584
  840MOL0     H13333   1.268   7.629   1.605 -3.3470 -1.2526  2.1162
  840MOL0     H13334   1.109   7.661   1.775  0.0359  0.4781  2.9235
  840MOL0     H13335   1.145   7.633   2.044 -0.2928 -0.2915 -1.0127
  840MOL0     H13336   1.192   7.778   2.134  1.4204 -1.1990 -2.4805
  840MOL0     H13337   0.938   7.831   2.159 -0.9371 -0.2205 -0.1752
  840MOL0     H13338   0.910   7.676   2.076 -1.8655  0.2017  2.4333
  840MOL0     H13339   1.072   7.578   2.282  1.2198  0.2742  0.7465
  840MOL0     H13340   1.032   7.725   2.351 -1.3880  2.0624 -0.9627
  840MOL0     H13341   0.785   7.681   2.315  1.8310  0.8759 -0.8894
  840MOL0     H13342   0.822   7.551   2.213  1.2696  0.4704 -1.6561
  840MOL0     H13343   0.901   7.403   2.405  3.6142  1.5149  3.5557
  840MOL0     H13344   0.880   7.548   2.514 -0.4587  1.8892 -0.0150
  840MOL0     H13345   0.622   7.537   2.456 -0.3454  0.1974 -0.3946
  840MOL0     H13346   0.671   7.414   2.347  0.2827 -1.2856  0.2823
  840MOL0     H13347   0.691   7.378   2.660  0.7711 -0.2536 -1.1379
  840MOL0     H13348   0.567   7.315   2.551 -0.4763  3.0388 -1.7846
  840MOL0     H13349   0.856   7.226   2.563 -0.5967  3.7894 -1.5825
  840MOL0     H13350   0.742   7.166   2.441 -1.7097  2.3617 -1.0064
  840MOL0     H13351   0.839   7.086   2.801 -0.8844 -0.7008  1.5241
  840MOL0     H13352   0.745   6.875   2.981  1.6308 -0.5332  0.5278
  840MOL0     H13353   0.634   6.767   2.884  0.2954 -0.2292  0.5142
  840MOL0     H13354   0.926   6.815   2.816  1.0178 -0.1113  2.8423
  840MOL0     H13355   0.816   6.698   2.742  0.0306  4.0302 -1.1295
  840MOL0     H13356   0.810   6.566   2.966  1.2915 -1.2624  0.4640
  840MOL0     H13357   0.907   6.689   3.038  0.1805  0.9394 -1.0004
  840MOL0     H13358   1.066   6.618   2.832  0.0723 -0.0462 -1.2165
  840MOL0     H13359   0.945   6.491   2.818 -3.4817  1.1417  0.6765
  840MOL0     H13360   1.134   6.320   2.795  1.3670 -2.6592  1.4276
  840MOL0     H13361   1.461   6.202   2.703 -1.2661 -2.4645 -1.3429
  840MOL0     H13362   1.290   6.180   2.683 -1.0294  0.3007  3.7046
  840MOL0     H13363   1.370   6.320   2.599 -1.0674 -2.6033 -2.2753
  840MOL0     H13364   1.829   6.261   2.704 -1.8907  1.0294  2.3243
  840MOL0     H13365   2.035   6.287   2.590 -0.7184  0.4399 -0.6274
  840MOL0     H13366   2.172   6.309   2.422  2.3451 -0.6731 -0.0181
  840MOL0     H13367   2.279   6.436   2.344 -0.4536  2.7535  0.2615
  840MOL0     H13368   2.196   6.478   2.626 -0.4189 -0.7711 -1.7134
  840MOL0     H13369   2.346   6.390   2.591  1.7363  1.8967  0.9987
  840MOL0     H13370   2.360   6.641   2.641  2.2518 -0.6255 -0.1596
  840MOL0     H13371   2.278   6.665   2.481 -1.8935 -1.4223 -0.0523
  840MOL0     H13372   2.523   6.473   2.501 -0.8769 -1.0531 -3.6231
  840MOL0     H13373   2.461   6.564   2.365  1.6702  0.0291  0.9050
  840MOL0     H13374   2.557   6.696   2.602 -0.7335 -1.5151  0.4477
  840MOL0     H13375   2.519   6.775   2.449 -1.2698 -0.6682  1.4608
  840MOL0     H13376   2.747   6.563   2.495  2.9881  0.7143  1.2826
  840MOL0     H13377   2.714   6.640   2.333  0.4690 -2.2994  0.2947
  840MOL0     H13378   2.790   6.783   2.595  0.4408 -2.2917  0.7337
  840MOL0     H13379   2.772   6.868   2.441 -1.7489 -0.4815 -0.5097
  840MOL0     H13380   2.969   6.775   2.356 -0.5636  0.5057 -0.2979
  840MOL0     H13381   2.968   6.636   2.466 -2.1628 -0.9409 -1.5979
  840MOL0     H13382   1.862   6.635   2.384  0.6757 -0.0385 -0.1912
  840MOL0     H13383   1.649   6.584   2.479  0.3153  0.9609  1.9994
  840MOL0     H13384   1.504   6.555   3.016 -3.0879  1.7307  2.8656
  840MOL0     H13385   1.298   6.576   3.111 -2.5218  1.5736 -0.6811
  840MOL0     H13386   1.318   8.007   1.933  1.1015  1.5560 -1.2512
  840MOL0     H13387   1.492   7.975   1.772 -0.2414  0.3863  0.4784
  840MOL0     H13388   1.698   7.438   1.502  0.7195  0.4163  0.6957
  840MOL0     H13389   1.885   7.415   1.340  0.5041 -0.0852 -1.4305
  840MOL0     H13390   1.999   7.760   1.109 -0.1170  0.8572  2.0157
  840MOL0     H13391   2.121   7.738   1.226 -2.1449  2.5818  0.4094
  840MOL0     H13392   2.244   7.568   1.080 -0.1064  1.1202  1.0648
  840MOL0     H13393   2.194   7.707   0.996 -0.5679 -0.1368 -0.7689
  840MOL0     H13394   1.998   7.578   0.901  0.4480  0.9405  0.5262
  840MOL0     H13395   2.036   7.449   1.005  0.9255  0.5454  0.6575
  840MOL0     H13396   2.100   7.386   0.796  0.6154 -0.8061 -0.6170
  840MOL0     H13397   2.256   7.408   0.873 -0.9965 -0.5833 -0.1737
  840MOL0     H13398   2.290   7.654   0.536  1.7311 -1.0435  0.3389
  840MOL0     H13399   1.871   7.838   1.277  0.2325 -0.3447 -0.1291
  840MOL0     H13400   1.692   7.866   1.426 -0.4199  0.0181  1.5060
  841MOL0     O13401   4.154   0.018  10.495  0.2393  0.3574  0.0667
  841MOL0     C13402   4.207   0.076  10.590 -0.3377 -0.4466 -0.7418
  841MOL0     O13403   4.143   0.130  10.705  0.3770  0.7000 -0.5201
  841MOL0     C13404   4.007   0.116  10.715 -0.4049 -0.4126 -0.2187
  841MOL0     C13405   3.924   0.222  10.686 -0.3142  1.0586 -0.5680
  841MOL0     C13406   3.787   0.206  10.687  0.0291  0.8247 -0.3446
  841MOL0     C13407   3.731   0.074  10.695 -0.4717 -0.3276 -1.2465
  841MOL0     O13408   3.603   0.032  10.665 -0.1053  0.1789 -0.5223
  841MOL0     C13409   3.502   0.137  10.634  0.0507 -0.0465  0.5916
  841MOL0     C13410   3.374   0.056  10.601 -0.3477  0.5957  0.1702
  841MOL0     C13411   3.262   0.141  10.533  0.2262 -0.4030 -0.4355
  841MOL0     C13412   3.122   0.065  10.549  0.2824  0.4626  0.2336
  841MOL0     C13413   3.009   0.160  10.531  0.2148  0.2033  0.2215
  841MOL0     C13414   2.878   0.080  10.506 -1.1866  0.1392 -0.2212
  841MOL0     C13415   2.748   0.156  10.527  0.2572  0.4819  0.3350
  841MOL0     C13416   2.687   0.199  10.390  0.2283 -0.5250 -0.0231
  841MOL0     N13417   2.535   0.204  10.399  0.4700  0.2198  0.4999
  841MOL0     C13418   2.446   0.104  10.372 -0.1268  0.0245  0.0268
  841MOL0     C13419   2.322   0.162  10.369  0.1597 -0.3420  0.2692
  841MOL0     C13420   2.199   0.098  10.313  0.3638 -0.0578  0.2636
  841MOL0     C13421   2.136   0.194  10.206  0.0960  0.5582  0.9494
  841MOL0     C13422   2.017   0.123  10.136  0.1263  0.2525 -0.0231
  841MOL0     C13423   1.915   0.085  10.240  0.1772  0.1916  0.6606
  841MOL0     O13424   1.801   0.046  10.161 -0.1505 -0.2373 -0.1773
  841MOL0     C13425   1.686   0.045  10.219 -0.2737 -0.4251 -0.0799
  841MOL0     C13426   1.580   0.029  10.136 -0.8849 -0.2822  0.4792
  841MOL0     C13427   1.448   0.014  10.179 -0.4727 -0.1847  0.8561
  841MOL0     C13428   1.342  -0.027  10.077  0.5578  0.0559  0.7821
  841MOL0     C13429   1.421   0.029  10.317 -0.2266  0.1825 -0.1726
  841MOL0     C13430   1.290   0.002  10.387  0.4318  0.4711  0.6765
  841MOL0     O13431   1.290  -0.048  10.511 -0.7484  0.0734  0.2034
  841MOL0     C13432   1.170  -0.068  10.570 -0.1950 -0.3713  0.1737
  841MOL0     C13433   1.126  -0.198  10.566  0.3896 -0.0027 -0.1546
  841MOL0     C13434   1.005  -0.234  10.617  0.8419  0.4021 -0.6700
  841MOL0     C13435   0.925  -0.135  10.681  0.0390 -0.7957 -0.9989
  841MOL0     O13436   0.798  -0.172  10.716 -0.0403  0.0390  0.6641
  841MOL0     C13437   0.706  -0.070  10.769  0.0908  0.6891  0.7364
  841MOL0     C13438   0.575  -0.121  10.764  0.3602 -0.3110 -0.1618
  841MOL0     C13439   0.481  -0.012  10.800 -0.5067  0.8473  0.3750
  841MOL0     C13440   0.339  -0.059  10.818 -0.2725  0.0950 -0.0272
  841MOL0     C13441   0.249   0.074  10.822  0.1841 -0.1541  0.3654
  841MOL0     C13442   0.100   0.032  10.809  0.3313 -0.1767 -0.1571
  841MOL0     C13443  -0.007   0.144  10.841 -0.1241 -0.7447 -0.3641
  841MOL0     C13444  -0.155   0.115  10.829  0.3830 -0.1687  0.1355
  841MOL0    Cl13445  -0.250   0.260  10.877 -0.0423  0.0734  0.0015
  841MOL0     C13446   0.977  -0.006  10.686 -0.3408  0.9644 -0.1706
  841MOL0     C13447   1.101   0.035  10.628  0.1140  0.1519  0.1354
  841MOL0     O13448   1.186   0.018  10.317  0.1875  0.7552 -0.6328
  841MOL0     C13449   1.529   0.054  10.402  0.5143  0.7137 -0.2085
  841MOL0     C13450   1.657   0.064  10.355  0.2318  0.3613  0.7303
  841MOL0     N13451   2.341   0.284  10.427 -0.0049  0.2139  0.6389
  841MOL0     N13452   2.466   0.304  10.446 -0.7310 -0.3495  0.2673
  841MOL0     C13453   3.817  -0.031  10.716 -0.8041 -0.5615  0.2869
  841MOL0     C13454   3.952  -0.005  10.736 -0.4394 -0.0376  0.1930
  841MOL0     C13455   4.357   0.089  10.588  1.1108 -0.1347 -0.1813
  841MOL0     C13456   4.438   0.010  10.502 -0.1795 -0.4555  0.0715
  841MOL0     C13457   4.576   0.026  10.494 -0.0170  0.0029  0.6032
  841MOL0     C13458   4.641   0.117  10.577  0.1869  0.4420 -0.1553
  841MOL0     O13459   4.783   0.136  10.563 -0.1346  0.0196  0.6888
  841MOL0     C13460   4.856   0.172  10.680  0.4874 -0.0098  0.8746
  841MOL0     C13461   5.005   0.162  10.660  0.2743 -0.0952 -0.2557
  841MOL0     C13462   5.069   0.299  10.611 -0.0795  0.4718 -0.3638
  841MOL0     C13463   5.221   0.278  10.584 -0.5527  0.2210 -0.7513
  841MOL0     C13464   5.288   0.392  10.524  0.4530  0.1077  1.3543
  841MOL0     C13465   5.346   0.490  10.485 -0.1297 -0.2754  0.1553
  841MOL0     C13466   4.562   0.185  10.676  0.5467 -0.1237  0.6674
  841MOL0     C13467   4.420   0.176  10.680  0.2238 -0.4562 -0.4358
  841MOL0     H13468   3.971   0.316  10.658  0.0782  1.1399  0.3005
  841MOL0     H13469   3.736   0.294  10.650 -1.4858  1.6939  3.4039
  841MOL0     H13470   3.492   0.199  10.724  1.0421 -1.1638  1.5081
  841MOL0     H13471   3.527   0.199  10.548  2.2677 -0.9578  0.5147
  841MOL0     H13472   3.389  -0.020  10.523  0.8313  1.4838 -0.5040
  841MOL0     H13473   3.334   0.010  10.691  2.5720 -0.1196  1.2293
  841MOL0     H13474   3.258   0.244  10.569  0.0577 -0.9259  1.1314
  841MOL0     H13475   3.288   0.149  10.427  0.0477  1.9392 -0.3566
  841MOL0     H13476   3.122  -0.003  10.463  0.4860  0.1561  0.4777
  841MOL0     H13477   3.112   0.014  10.645 -0.7058  2.9783  1.5460
  841MOL0     H13478   2.993   0.232  10.612 -2.3736 -0.3732  0.3248
  841MOL0     H13479   3.017   0.218  10.439  2.2028  0.9759  0.8337
  841MOL0     H13480   2.890   0.052  10.402  1.0055  1.5677 -0.4390
  841MOL0     H13481   2.874  -0.009  10.569  1.2744  1.0478  1.3951
  841MOL0     H13482   2.673   0.093  10.574  1.9552  0.0485  2.6665
  841MOL0     H13483   2.769   0.237  10.598 -2.7258 -0.2583  2.2156
  841MOL0     H13484   2.721   0.133  10.309 -1.9544 -3.1210  1.0473
  841MOL0     H13485   2.733   0.296  10.368 -1.1054  0.1610  0.1620
  841MOL0     H13486   2.454   0.010  10.317 -0.5888  2.2387 -4.2414
  841MOL0     H13487   2.237   0.005  10.271  1.2123 -0.1514  1.1829
  841MOL0     H13488   2.126   0.077  10.392  0.7562  2.9277  1.6086
  841MOL0     H13489   2.202   0.223  10.124  0.6572 -0.3526  1.0555
  841MOL0     H13490   2.104   0.283  10.260  1.5817  2.1157 -0.6276
  841MOL0     H13491   2.066   0.033  10.097 -0.5098 -0.6429  1.1639
  841MOL0     H13492   1.965   0.176  10.056 -2.4669 -1.7901  0.1718
  841MOL0     H13493   1.892   0.174  10.300  0.3049  0.2335  0.6480
  841MOL0     H13494   1.962   0.001  10.292  0.6842 -0.8411 -1.3763
  841MOL0     H13495   1.606   0.009  10.033  0.8962  0.1245  0.8223
  841MOL0     H13496   1.285   0.065  10.062 -1.7145 -1.2546  0.9494
  841MOL0     H13497   1.388  -0.066   9.986 -0.7766  1.6745 -0.6761
  841MOL0     H13498   1.272  -0.099  10.120  1.2703 -0.3502  1.2635
  841MOL0     H13499   1.183  -0.278  10.521  1.3808  0.2897  0.5434
  841MOL0     H13500   0.957  -0.332  10.620  0.2480  0.6831  2.2410
  841MOL0     H13501   0.730  -0.036  10.870 -2.3672  1.3405  1.1780
  841MOL0     H13502   0.690   0.018  10.706  0.8284 -0.4869 -1.1745
  841MOL0     H13503   0.549  -0.168  10.668 -1.1122 -0.7630  0.4312
  841MOL0     H13504   0.557  -0.199  10.838 -0.2827 -1.3016 -1.3292
  841MOL0     H13505   0.486   0.061  10.719 -2.0107  2.6320  1.7961
  841MOL0     H13506   0.511   0.038  10.893 -2.3068 -3.8378  3.8621
  841MOL0     H13507   0.314  -0.131  10.739 -0.7747  0.3341 -0.0919
  841MOL0     H13508   0.338  -0.124  10.906  1.0672 -2.2897 -1.6283
  841MOL0     H13509   0.284   0.131  10.736 -1.3838 -1.6557 -1.3298
  841MOL0     H13510   0.264   0.128  10.917 -2.8707 -1.7951  1.9410
  841MOL0     H13511   0.081   0.002  10.706  2.3294 -0.1338 -0.5794
  841MOL0     H13512   0.093  -0.058  10.870  1.4638 -0.2234 -0.0708
  841MOL0     H13513   0.006   0.231  10.776 -1.4097 -0.2763 -0.0097
  841MOL0     H13514   0.001   0.174  10.946  0.9002  0.7638 -0.8296
  841MOL0     H13515  -0.193   0.037  10.895 -2.7160  2.3384  1.5796
  841MOL0     H13516  -0.188   0.089  10.728  0.1678  1.8910 -0.3685
  841MOL0     H13517   0.925   0.069  10.744 -2.3095 -0.4746  0.0471
  841MOL0     H13518   1.143   0.135  10.639 -1.2487  0.6675  0.8908
  841MOL0     H13519   1.519   0.069  10.509 -1.0456 -0.8425 -0.0808
  841MOL0     H13520   1.740   0.081  10.423 -0.6193  0.2611  1.8290
  841MOL0     H13521   3.790  -0.135  10.728 -2.3544 -0.1256  0.8095
  841MOL0     H13522   4.027  -0.077  10.766 -0.2209  0.3139  0.5037
  841MOL0     H13523   4.388  -0.062  10.437 -2.1146 -0.2908  1.3007
  841MOL0     H13524   4.646  -0.032  10.436 -0.4973 -0.0063  0.0211
  841MOL0     H13525   4.823   0.273  10.705 -2.9957 -0.7407 -0.1895
  841MOL0     H13526   4.825   0.099  10.755 -2.2673 -0.0293 -0.1670
  841MOL0     H13527   5.042   0.090  10.586  0.7371  2.1561 -2.3463
  841MOL0     H13528   5.045   0.125  10.755 -0.7868 -0.5955  0.0125
  841MOL0     H13529   5.055   0.380  10.684 -1.9595 -1.5130  1.6246
  841MOL0     H13530   5.022   0.328  10.517 -2.5390 -0.6718  0.4296
  841MOL0     H13531   5.229   0.193  10.515 -0.2719 -0.9299  0.6502
  841MOL0     H13532   5.264   0.253  10.681 -0.9619 -0.3653 -0.7201
  841MOL0     H13533   5.400   0.577  10.456  0.6369  0.2960  3.0470
  841MOL0     H13534   4.602   0.252  10.752 -0.3497 -1.5264  2.4770
  841MOL0     H13535   4.365   0.250  10.739 -0.7178  0.2623 -2.1332
  842MOL0     O13536   2.299   9.853   7.120  0.0741 -0.1295 -0.8168
  842MOL0     C13537   2.319   9.829   7.235 -0.2307  0.2320  0.0953
  842MOL0     O13538   2.230   9.787   7.325 -0.0653 -0.2764  0.7318
  842MOL0     C13539   2.108   9.747   7.265  0.8005 -0.3395 -1.1167
  842MOL0     C13540   2.104   9.646   7.171 -0.3241 -0.0381 -0.6716
  842MOL0     C13541   1.979   9.609   7.120  0.1123  0.1136  0.1861
  842MOL0     C13542   1.854   9.667   7.156 -0.7464  0.0064 -0.6615
  842MOL0     O13543   1.730   9.641   7.105  0.0781 -0.0393 -0.1383
  842MOL0     C13544   1.708   9.536   7.017  0.7593 -0.0725 -0.4351
  842MOL0     C13545   1.565   9.567   6.959  0.1630  0.0488 -0.2446
  842MOL0     C13546   1.500   9.442   6.904 -0.0872  0.0572  0.3203
  842MOL0     C13547   1.356   9.469   6.862 -0.3242 -0.0556 -0.7265
  842MOL0     C13548   1.311   9.359   6.782  0.1835  0.3975  0.5514
  842MOL0     C13549   1.159   9.387   6.750 -0.3483  0.9485 -0.1978
  842MOL0     C13550   1.091   9.276   6.663  0.8507  0.0951  0.0702
  842MOL0     C13551   0.950   9.301   6.623 -0.6210 -0.3990 -0.8415
  842MOL0     N13552   0.870   9.344   6.742 -0.6333 -0.7105  0.5453
  842MOL0     C13553   0.838   9.473   6.755  0.6754 -0.0292  0.1241
  842MOL0     C13554   0.749   9.468   6.857  0.1875  0.0737 -0.2968
  842MOL0     C13555   0.682   9.591   6.929 -0.2309  0.6036  0.5104
  842MOL0     C13556   0.717   9.612   7.067 -0.6579 -0.2142 -0.8874
  842MOL0     C13557   0.660   9.745   7.110  0.6530  0.0799 -0.2253
  842MOL0     C13558   0.511   9.753   7.132 -1.0679  0.3114 -0.2440
  842MOL0     O13559   0.430   9.769   7.013  0.3002 -0.2337 -0.6312
  842MOL0     C13560   0.293   9.796   7.034  0.4104 -0.6391 -0.4212
  842MOL0     C13561   0.231   9.791   6.907  0.1043  0.6445 -0.4994
  842MOL0     C13562   0.093   9.801   6.891 -1.0573  0.2245 -0.6657
  842MOL0     C13563   0.037   9.782   6.746  0.4230 -0.1434  0.4136
  842MOL0     C13564   0.014   9.829   7.005  0.1090 -0.5235  0.6071
  842MOL0     C13565  -0.137   9.870   6.991  0.0293  0.3725  0.2019
  842MOL0     O13566  -0.209   9.857   7.104  0.0613 -0.2882 -0.2879
  842MOL0     C13567  -0.335   9.895   7.102  0.5724  0.4417 -0.8941
  842MOL0     C13568  -0.375  10.028   7.093 -0.0583 -0.1625  0.1138
  842MOL0     C13569  -0.516  10.065   7.077 -0.0971  0.1245 -0.3788
  842MOL0     C13570  -0.611   9.963   7.108 -0.0865 -0.3964  0.6276
  842MOL0     O13571  -0.747   9.984   7.120 -0.1418  0.1181 -0.6738
  842MOL0     C13572  -0.788  10.117   7.078  0.8689 -0.3955 -0.3436
  842MOL0     C13573  -0.938  10.128   7.079 -0.2409 -0.0142  0.0904
  842MOL0     C13574  -1.001  10.265   7.063 -0.2243  0.5578  0.1384
  842MOL0     C13575  -1.151  10.253   7.097 -0.3118 -0.8310  0.6512
  842MOL0     C13576  -1.220  10.393   7.070  0.0338  0.4642 -0.5672
  842MOL0     C13577  -1.374  10.404   7.095 -0.0416  0.5399 -0.5325
  842MOL0     C13578  -1.447  10.279   7.033 -0.2224 -0.0206  0.8016
  842MOL0     C13579  -1.596  10.291   7.049  0.1003  0.3168 -0.7119
  842MOL0    Cl13580  -1.639  10.293   7.222  0.1635  0.1004 -0.3712
  842MOL0     C13581  -0.566   9.828   7.120  0.3458  0.0456 -0.6684
  842MOL0     C13582  -0.430   9.793   7.113  0.0019  0.1310  0.3045
  842MOL0     O13583  -0.184   9.921   6.885  0.2325 -0.4811  0.1841
  842MOL0     C13584   0.078   9.832   7.129  0.2878  0.4958 -0.3807
  842MOL0     C13585   0.220   9.815   7.142 -0.4539  0.1332 -0.8145
  842MOL0     N13586   0.740   9.333   6.903  0.2298 -0.0432  0.1583
  842MOL0     N13587   0.821   9.262   6.836 -0.3099  0.4921  0.4231
  842MOL0     C13588   1.864   9.762   7.248 -0.7155 -0.3851 -0.4773
  842MOL0     C13589   1.987   9.804   7.311 -0.2376 -0.9875  1.0173
  842MOL0     C13590   2.453   9.831   7.275 -1.0434 -0.0814 -0.2487
  842MOL0     C13591   2.489   9.805   7.413 -0.4996 -0.3046 -0.3877
  842MOL0     C13592   2.628   9.807   7.453 -0.5484  0.8388 -0.3261
  842MOL0     C13593   2.731   9.827   7.359  0.1813  0.2961 -0.1472
  842MOL0     O13594   2.868   9.819   7.383 -0.8522 -0.0139 -0.3583
  842MOL0     C13595   2.907   9.758   7.505  0.6147  0.4386 -0.5690
  842MOL0     C13596   3.059   9.757   7.532 -0.1670 -0.4895 -0.1013
  842MOL0     C13597   3.096   9.703   7.666  0.3024  0.0321  0.3704
  842MOL0     C13598   3.232   9.636   7.664 -0.3227  0.0892 -0.1192
  842MOL0     C13599   3.286   9.633   7.800 -0.6261  0.5277 -0.9917
  842MOL0     C13600   3.337   9.622   7.911  0.5182  0.2267  0.3937
  842MOL0     C13601   2.692   9.856   7.226  0.2297  0.5731  0.0043
  842MOL0     C13602   2.557   9.851   7.181 -0.8762 -0.3307 -0.6871
  842MOL0     H13603   2.194   9.596   7.137 -0.4089  0.1289 -1.1448
  842MOL0     H13604   1.990   9.530   7.046  0.3386  1.3427 -1.1181
  842MOL0     H13605   1.778   9.542   6.933  1.3794 -1.7568 -0.0719
  842MOL0     H13606   1.717   9.442   7.072 -2.3324  0.9835  2.1600
  842MOL0     H13607   1.502   9.607   7.039  0.3635  0.2495 -0.1854
  842MOL0     H13608   1.574   9.640   6.878 -2.4298 -0.3879 -1.0425
  842MOL0     H13609   1.554   9.402   6.818 -1.9903  1.5110 -1.6893
  842MOL0     H13610   1.496   9.370   6.986  0.7618  1.6054  1.7938
  842MOL0     H13611   1.300   9.493   6.953 -0.5763 -2.0004 -0.3322
  842MOL0     H13612   1.368   9.562   6.806  0.2626  1.1107  1.2107
  842MOL0     H13613   1.364   9.357   6.686  0.7437 -3.2402  0.8112
  842MOL0     H13614   1.318   9.260   6.828 -3.2788  0.0450  0.6344
  842MOL0     H13615   1.107   9.384   6.846 -0.5123  1.8423 -0.2502
  842MOL0     H13616   1.142   9.484   6.701  0.3991 -0.0092 -2.5009
  842MOL0     H13617   1.149   9.260   6.572 -0.2218  2.2858 -1.0938
  842MOL0     H13618   1.097   9.197   6.739 -0.0573  2.8150  3.2505
  842MOL0     H13619   0.910   9.207   6.584 -1.9015  0.5005 -1.7921
  842MOL0     H13620   0.943   9.371   6.539 -0.6046 -1.1251 -1.4628
  842MOL0     H13621   0.866   9.556   6.691 -1.8331  0.3033 -0.6889
  842MOL0     H13622   0.710   9.680   6.871  1.4351  1.1162  1.9937
  842MOL0     H13623   0.575   9.572   6.921 -0.3099 -0.2050  2.8348
  842MOL0     H13624   0.826   9.617   7.077 -0.2598 -1.9555 -3.2857
  842MOL0     H13625   0.683   9.524   7.124  1.1725 -0.1757  0.3494
  842MOL0     H13626   0.685   9.828   7.044  0.7754 -1.7311 -2.6088
  842MOL0     H13627   0.708   9.766   7.206 -0.4624  0.5394  0.2520
  842MOL0     H13628   0.505   9.840   7.199  2.4912  1.6763 -1.4521
  842MOL0     H13629   0.475   9.666   7.188  1.2428 -0.2327  0.4995
  842MOL0     H13630   0.291   9.776   6.818  3.2736 -1.1697  1.7057
  842MOL0     H13631   0.022   9.875   6.691 -2.2292 -1.7568 -1.8791
  842MOL0     H13632   0.089   9.710   6.682 -2.2024  1.1098 -3.5477
  842MOL0     H13633  -0.070   9.759   6.743 -0.5707  3.3120  2.8032
  842MOL0     H13634  -0.304  10.110   7.094  0.8355 -0.7251 -3.1665
  842MOL0     H13635  -0.526  10.173   7.084  0.0201  0.0486  1.4343
  842MOL0     H13636  -0.745  10.176   7.159  2.0828 -0.5654 -0.8461
  842MOL0     H13637  -0.753  10.150   6.980 -0.4375 -0.3033 -0.8063
  842MOL0     H13638  -0.966  10.068   6.992  0.1616  0.7475 -0.5818
  842MOL0     H13639  -0.980  10.085   7.170 -0.4221 -0.2538 -0.1060
  842MOL0     H13640  -0.986  10.309   6.965 -1.0794  0.2344 -0.1445
  842MOL0     H13641  -0.953  10.338   7.129  0.7181 -1.8521  2.3317
  842MOL0     H13642  -1.197  10.177   7.032  0.4626 -0.9863  0.2733
  842MOL0     H13643  -1.161  10.227   7.203 -4.1685 -0.4708  0.5238
  842MOL0     H13644  -1.192  10.421   6.968  4.8118 -1.1094  0.0683
  842MOL0     H13645  -1.176  10.467   7.137 -1.3563  0.8078  0.0079
  842MOL0     H13646  -1.395  10.403   7.202  1.8891  1.7733 -0.1082
  842MOL0     H13647  -1.411  10.491   7.040 -2.0406  0.3415  0.3958
  842MOL0     H13648  -1.413  10.182   7.071 -0.7953 -0.4131  0.3310
  842MOL0     H13649  -1.426  10.278   6.926 -1.8282 -0.0599  0.4532
  842MOL0     H13650  -1.631  10.209   6.987 -1.4158  0.6279 -0.3010
  842MOL0     H13651  -1.641  10.379   7.001  1.8988  0.9028 -1.4075
  842MOL0     H13652  -0.636   9.746   7.129  0.8479 -0.2907  0.2952
  842MOL0     H13653  -0.408   9.687   7.119 -1.3475 -0.1699  0.2359
  842MOL0     H13654   0.026   9.847   7.223  1.5839  0.0103  0.4461
  842MOL0     H13655   0.257   9.800   7.243  0.9720 -1.7827 -1.5433
  842MOL0     H13656   1.771   9.798   7.291 -1.2113 -0.0194 -1.8243
  842MOL0     H13657   1.984   9.879   7.390  2.3244 -0.2216  0.4729
  842MOL0     H13658   2.407   9.806   7.485  1.0102  0.4449  1.4055
  842MOL0     H13659   2.642   9.781   7.557 -2.5142  0.0664 -0.2049
  842MOL0     H13660   2.853   9.801   7.589 -0.9786 -0.9919 -0.8120
  842MOL0     H13661   2.872   9.654   7.508  3.3466 -0.5610  0.3488
  842MOL0     H13662   3.089   9.861   7.525 -1.6948 -0.0805 -1.2207
  842MOL0     H13663   3.109   9.693   7.459 -0.3831 -0.0423 -0.6493
  842MOL0     H13664   3.022   9.624   7.682  1.0095 -1.0953 -1.6081
  842MOL0     H13665   3.085   9.783   7.740 -1.6458  0.5738 -0.4258
  842MOL0     H13666   3.300   9.685   7.594  1.1075 -0.4574  0.8206
  842MOL0     H13667   3.223   9.533   7.628 -2.0033 -0.0157  0.5404
  842MOL0     H13668   3.355   9.622   8.017  0.0373 -1.0343  0.4957
  842MOL0     H13669   2.765   9.868   7.147  1.3083  0.8244  1.0157
  842MOL0     H13670   2.529   9.862   7.077 -2.1090 -2.4621 -0.6298
  843MOL0     O13671   0.176   8.361   6.163 -0.1502 -0.6650  0.7729
  843MOL0     C13672   0.298   8.390   6.187 -0.5750 -0.1143  0.1822
  843MOL0     O13673   0.342   8.469   6.287 -0.0964 -0.2450  0.2253
  843MOL0     C13674   0.253   8.523   6.374  0.5718 -0.8408 -1.1505
  843MOL0     C13675   0.323   8.595   6.473 -0.5171  0.3871  0.4068
  843MOL0     C13676   0.264   8.665   6.581 -0.1947  0.5232 -0.5654
  843MOL0     C13677   0.124   8.655   6.592  0.0616  0.1587 -0.8927
  843MOL0     O13678   0.072   8.720   6.704  0.7654 -0.1559  0.4489
  843MOL0     C13679  -0.071   8.723   6.712 -0.3408  0.8535  0.1185
  843MOL0     C13680  -0.102   8.738   6.863 -0.6832 -0.0360 -0.7982
  843MOL0     C13681  -0.248   8.756   6.890  0.8126  0.1052  0.5013
  843MOL0     C13682  -0.282   8.756   7.038  0.7059  0.5953 -0.5602
  843MOL0     C13683  -0.410   8.837   7.060 -0.0691  0.8381  0.3154
  843MOL0     C13684  -0.537   8.771   7.009  0.6118  0.2184 -1.0546
  843MOL0     C13685  -0.652   8.856   7.056 -0.1767  0.0499 -0.7217
  843MOL0     C13686  -0.789   8.791   7.023  0.0707  0.4180 -0.2327
  843MOL0     N13687  -0.910   8.870   7.059  0.5943 -1.1305  0.6061
  843MOL0     C13688  -0.961   8.892   7.181 -0.0952 -0.0506  0.0012
  843MOL0     C13689  -1.082   8.951   7.158  0.1722  0.3184  0.2769
  843MOL0     C13690  -1.174   9.009   7.261 -0.3040 -0.1724  0.1672
  843MOL0     C13691  -1.296   8.935   7.290 -0.3010 -0.1002  0.3530
  843MOL0     C13692  -1.392   9.011   7.388 -0.0646 -0.2418  0.4817
  843MOL0     C13693  -1.502   8.913   7.437  0.7282  0.2668  1.2152
  843MOL0     O13694  -1.584   8.996   7.522 -0.2025 -0.0327 -0.0796
  843MOL0     C13695  -1.701   9.024   7.462 -0.0250  0.4734  0.4918
  843MOL0     C13696  -1.722   9.152   7.408 -0.7820  0.2087 -0.3452
  843MOL0     C13697  -1.847   9.186   7.357  0.1224  0.1498 -0.1919
  843MOL0     C13698  -1.858   9.329   7.312  0.5953  0.3850  0.0949
  843MOL0     C13699  -1.950   9.085   7.349 -1.0322  0.1548  0.1789
  843MOL0     C13700  -2.073   9.099   7.268 -0.6615  0.1815  0.1034
  843MOL0     O13701  -2.130   8.986   7.222 -1.1537  0.6818  0.0143
  843MOL0     C13702  -2.251   8.998   7.165  0.2286  0.3646  0.1867
  843MOL0     C13703  -2.371   9.013   7.234  0.6297 -0.0917 -0.1673
  843MOL0     C13704  -2.498   9.002   7.166 -0.2365 -0.4217 -0.1292
  843MOL0     C13705  -2.488   8.988   7.024  0.2943  0.4005 -0.1455
  843MOL0     O13706  -2.598   9.008   6.946 -0.7679 -0.1122 -0.3854
  843MOL0     C13707  -2.729   8.982   7.005 -0.7492  0.4880 -0.9861
  843MOL0     C13708  -2.838   8.972   6.901 -0.2359  0.3905  0.5151
  843MOL0     C13709  -2.981   8.946   6.967  0.8675  0.1168 -0.0312
  843MOL0     C13710  -3.032   9.064   7.051 -0.5284 -0.9383  0.5306
  843MOL0     C13711  -3.180   9.043   7.080 -0.8497 -0.4865  0.1973
  843MOL0     C13712  -3.209   8.913   7.159  0.1489  0.7069 -0.1314
  843MOL0     C13713  -3.350   8.911   7.227  0.3281 -0.0071 -0.1933
  843MOL0     C13714  -3.355   8.791   7.328  0.2137  0.7419  0.4986
  843MOL0    Cl13715  -3.503   8.817   7.437 -0.0480 -0.3257 -0.3163
  843MOL0     C13716  -2.367   8.974   6.953 -0.4430  0.1732 -0.7227
  843MOL0     C13717  -2.245   8.977   7.029 -0.0771 -0.2849  0.4984
  843MOL0     O13718  -2.113   9.215   7.239 -0.5528  0.5879 -0.2140
  843MOL0     C13719  -1.920   8.957   7.402 -0.0924 -0.5301 -0.2246
  843MOL0     C13720  -1.806   8.936   7.481  0.3784 -1.0034  0.3875
  843MOL0     N13721  -1.098   8.967   7.021 -0.1803 -0.1656  0.6267
  843MOL0     N13722  -0.993   8.920   6.965  0.3247 -0.4440  0.8247
  843MOL0     C13723   0.054   8.588   6.485  0.5281 -0.3714  0.3412
  843MOL0     C13724   0.111   8.523   6.378 -0.7054  0.0544 -0.4749
  843MOL0     C13725   0.400   8.323   6.097 -0.1724  0.1549 -0.1173
  843MOL0     C13726   0.366   8.213   6.015 -0.0525  0.3061 -0.3866
  843MOL0     C13727   0.458   8.169   5.926  0.0002 -0.2488 -0.0369
  843MOL0     C13728   0.597   8.209   5.934  0.1941 -0.4093 -0.4673
  843MOL0     O13729   0.699   8.168   5.849 -0.1498 -0.2628  0.5218
  843MOL0     C13730   0.686   8.058   5.755 -0.3742  0.1483 -1.0183
  843MOL0     C13731   0.823   8.014   5.724 -0.4753  0.1661  0.0754
  843MOL0     C13732   0.809   7.900   5.627 -0.2244 -0.0176  0.2821
  843MOL0     C13733   0.934   7.869   5.536 -0.1026  0.0384 -0.2357
  843MOL0     C13734   1.051   7.834   5.613  0.3849  0.3297 -0.1371
  843MOL0     C13735   1.143   7.796   5.679 -0.3148  0.2197 -0.2856
  843MOL0     C13736   0.634   8.307   6.025  0.0192 -0.4407  0.4167
  843MOL0     C13737   0.534   8.366   6.102 -0.5323  0.6935  0.2390
  843MOL0     H13738   0.431   8.596   6.456 -0.7210 -1.1816 -1.3577
  843MOL0     H13739   0.322   8.710   6.660 -0.1072  0.5297 -0.6338
  843MOL0     H13740  -0.119   8.804   6.655  0.7159  2.1700  1.0323
  843MOL0     H13741  -0.120   8.627   6.695 -0.4204 -0.2594  5.1681
  843MOL0     H13742  -0.070   8.654   6.924  0.6504 -0.1540 -1.6355
  843MOL0     H13743  -0.056   8.828   6.905  0.9206 -0.8301 -0.7937
  843MOL0     H13744  -0.270   8.855   6.848  0.0022  0.7168  2.2737
  843MOL0     H13745  -0.310   8.684   6.836  1.0642  1.5310 -1.8821
  843MOL0     H13746  -0.299   8.655   7.077  0.2577  1.1895  0.8560
  843MOL0     H13747  -0.201   8.805   7.093 -0.8307  2.4898  0.1173
  843MOL0     H13748  -0.422   8.871   7.164  1.1715  0.1070  0.7184
  843MOL0     H13749  -0.389   8.927   7.002  1.6135 -0.1616 -0.7188
  843MOL0     H13750  -0.532   8.760   6.900  0.9494  1.1853 -1.1398
  843MOL0     H13751  -0.553   8.675   7.059  1.9602  1.1688  1.3528
  843MOL0     H13752  -0.643   8.881   7.162 -0.3779 -4.2084  0.4783
  843MOL0     H13753  -0.642   8.952   7.003 -0.1057  0.1102 -0.6006
  843MOL0     H13754  -0.786   8.698   7.080 -0.5595  0.5169 -0.0317
  843MOL0     H13755  -0.804   8.764   6.918  0.4182  2.3430 -0.8113
  843MOL0     H13756  -0.924   8.867   7.280  1.1365  4.8342  1.0252
  843MOL0     H13757  -1.117   9.014   7.354  0.1664 -0.5849 -0.0927
  843MOL0     H13758  -1.195   9.114   7.242  4.3155  0.9681  0.3051
  843MOL0     H13759  -1.264   8.838   7.331 -0.9728 -0.2850  0.4412
  843MOL0     H13760  -1.348   8.908   7.198  0.6560 -1.6031  0.2139
  843MOL0     H13761  -1.436   9.090   7.327 -0.7532 -2.5135 -2.2127
  843MOL0     H13762  -1.344   9.064   7.470  1.1206 -0.9393  0.2549
  843MOL0     H13763  -1.453   8.836   7.497  1.6313  0.6926  1.0573
  843MOL0     H13764  -1.554   8.857   7.359  2.8014 -2.6958  1.7728
  843MOL0     H13765  -1.635   9.216   7.397 -2.0590  2.6347  2.2955
  843MOL0     H13766  -1.761   9.381   7.309  0.3471  0.8448 -1.9791
  843MOL0     H13767  -1.900   9.330   7.211 -0.4939 -0.9801  0.5127
  843MOL0     H13768  -1.927   9.378   7.381  0.7919  3.7646 -1.8471
  843MOL0     H13769  -2.379   9.039   7.339 -1.1240 -0.3375 -0.2171
  843MOL0     H13770  -2.590   9.023   7.220 -0.4610 -1.5407 -0.0531
  843MOL0     H13771  -2.721   8.894   7.069 -1.5414  1.3426  0.3393
  843MOL0     H13772  -2.751   9.063   7.075  0.3320 -0.5472  0.6371
  843MOL0     H13773  -2.852   9.065   6.847 -1.4827  0.3230  0.6900
  843MOL0     H13774  -2.816   8.896   6.826  1.0818  1.7746 -0.5622
  843MOL0     H13775  -2.972   8.859   7.032 -0.0678 -0.6545 -0.8990
  843MOL0     H13776  -3.047   8.929   6.882  0.2105  3.2887 -0.2982
  843MOL0     H13777  -2.971   9.065   7.142 -0.4868  0.4521  0.5070
  843MOL0     H13778  -3.015   9.162   7.006 -1.0600 -0.7380  0.7588
  843MOL0     H13779  -3.240   9.035   6.989 -1.0106  1.1353  0.1368
  843MOL0     H13780  -3.212   9.131   7.138  0.3060 -0.3214  0.6108
  843MOL0     H13781  -3.191   8.828   7.092  0.2360 -1.2246  2.1904
  843MOL0     H13782  -3.139   8.908   7.243  2.6384  1.7788 -2.0140
  843MOL0     H13783  -3.427   8.914   7.149 -0.4269  0.9923  0.5673
  843MOL0     H13784  -3.356   9.004   7.284 -3.1118 -0.8556  1.0846
  843MOL0     H13785  -3.271   8.793   7.398 -2.2312 -1.2891  3.7912
  843MOL0     H13786  -3.369   8.696   7.275 -0.3649  0.5493  0.9920
  843MOL0     H13787  -2.365   8.954   6.847  2.5305  2.9731 -1.3724
  843MOL0     H13788  -2.148   8.954   6.984 -0.9521 -2.1235 -0.5675
  843MOL0     H13789  -1.992   8.876   7.389  0.3306 -0.9307 -0.0882
  843MOL0     H13790  -1.786   8.847   7.539 -2.8566 -1.8664  0.3142
  843MOL0     H13791  -0.055   8.584   6.491  0.5106  0.0726  0.3273
  843MOL0     H13792   0.046   8.481   6.303 -0.5156  0.3055 -0.7814
  843MOL0     H13793   0.261   8.188   6.021  0.2959 -1.0365  0.4666
  843MOL0     H13794   0.434   8.095   5.850  0.8892 -1.9382  1.2596
  843MOL0     H13795   0.627   7.981   5.807 -0.8544  1.8478  1.1082
  843MOL0     H13796   0.627   8.095   5.671 -3.4365  0.5539  1.1405
  843MOL0     H13797   0.880   7.981   5.811  1.0185 -0.4043 -1.0619
  843MOL0     H13798   0.872   8.104   5.685 -0.6093  0.9574  1.6767
  843MOL0     H13799   0.735   7.914   5.548  1.9594 -1.0388 -2.1160
  843MOL0     H13800   0.767   7.812   5.677  0.1984  0.7683  2.1024
  843MOL0     H13801   0.962   7.954   5.474  1.1884 -0.9359 -1.0361
  843MOL0     H13802   0.905   7.793   5.463 -0.6290  2.4257 -2.6714
  843MOL0     H13803   1.220   7.753   5.741  2.1562  0.8275 -2.7106
  843MOL0     H13804   0.736   8.339   6.038  0.8675 -2.9077  0.4397
  843MOL0     H13805   0.564   8.442   6.173 -2.9969  3.6508 -1.6681
  844MOL0     O13806   0.984   3.701   6.544  0.4563  0.2649 -0.0572
  844MOL0     C13807   1.065   3.770   6.608  0.9702  0.4688 -0.2030
  844MOL0     O13808   1.031   3.853   6.708 -0.4441 -0.3160 -0.2443
  844MOL0     C13809   0.901   3.857   6.744  0.6926  0.5046  0.4548
  844MOL0     C13810   0.831   3.750   6.806 -0.8579  0.7617  0.2705
  844MOL0     C13811   0.699   3.766   6.844  0.4039 -0.3272 -0.2227
  844MOL0     C13812   0.636   3.894   6.828  0.1477  0.1690  0.6105
  844MOL0     O13813   0.517   3.902   6.892  0.2273 -0.3107 -0.4899
  844MOL0     C13814   0.462   4.033   6.934  0.0642  0.0582  0.2099
  844MOL0     C13815   0.348   4.020   7.033  0.4506 -0.1994  0.0111
  844MOL0     C13816   0.290   4.148   7.076  0.3438  0.4622 -0.3460
  844MOL0     C13817   0.154   4.123   7.152  0.0389  0.4120  0.4067
  844MOL0     C13818   0.095   4.242   7.218 -0.3147  0.0056  0.4842
  844MOL0     C13819  -0.053   4.213   7.228  0.0792  0.5416  0.1046
  844MOL0     C13820  -0.129   4.330   7.293  0.5130  0.5546 -0.1815
  844MOL0     C13821  -0.264   4.287   7.346  0.6798 -1.0068 -0.1477
  844MOL0     N13822  -0.330   4.401   7.412 -0.2136 -0.6476  0.1694
  844MOL0     C13823  -0.401   4.501   7.346  0.2212  0.1869 -0.5770
  844MOL0     C13824  -0.459   4.570   7.443 -0.4090 -0.4841 -0.5648
  844MOL0     C13825  -0.535   4.701   7.428 -0.2710  0.0525 -0.4548
  844MOL0     C13826  -0.439   4.823   7.453 -0.0570  0.3283 -0.0279
  844MOL0     C13827  -0.373   4.884   7.330 -0.1419  0.7550 -0.9831
  844MOL0     C13828  -0.258   4.981   7.357 -0.7421 -0.1209  0.1533
  844MOL0     O13829  -0.302   5.088   7.440  0.4102  0.1265 -0.3288
  844MOL0     C13830  -0.207   5.182   7.473 -0.4184 -0.4067 -0.2259
  844MOL0     C13831  -0.263   5.302   7.533 -1.1056 -0.2048  0.1493
  844MOL0     C13832  -0.173   5.410   7.570 -0.0369  0.3846  0.0851
  844MOL0     C13833  -0.240   5.526   7.653  0.4165  0.0500  0.7063
  844MOL0     C13834  -0.034   5.390   7.545  0.0056 -0.1221  0.0491
  844MOL0     C13835   0.068   5.487   7.610 -0.6066 -0.4999  0.8533
  844MOL0     O13836   0.188   5.489   7.540 -0.6318  0.5321  0.2859
  844MOL0     C13837   0.304   5.551   7.586 -0.9064 -0.2906  0.1025
  844MOL0     C13838   0.422   5.511   7.520 -1.0769 -0.3427 -0.6957
  844MOL0     C13839   0.552   5.563   7.546  0.2050  0.2608  0.1777
  844MOL0     C13840   0.561   5.656   7.644  0.5646  0.5786 -0.5846
  844MOL0     O13841   0.688   5.694   7.688  1.0532 -0.6809  0.1902
  844MOL0     C13842   0.712   5.836   7.700 -0.2675  0.1220 -0.4312
  844MOL0     C13843   0.846   5.872   7.761 -0.5754 -0.8921  0.2977
  844MOL0     C13844   0.965   5.809   7.689  0.3039  0.0075  0.0704
  844MOL0     C13845   1.100   5.876   7.728 -0.3551 -0.2618  0.7213
  844MOL0     C13846   1.227   5.780   7.708  0.5789 -0.5148 -0.3385
  844MOL0     C13847   1.235   5.651   7.798 -0.8819  0.8784 -0.7497
  844MOL0     C13848   1.218   5.514   7.724 -0.5868 -0.0863 -0.0486
  844MOL0     C13849   1.146   5.411   7.799 -0.1552  0.0982 -0.9017
  844MOL0    Cl13850   1.106   5.278   7.686 -0.3883  0.3578 -0.1218
  844MOL0     C13851   0.446   5.689   7.724 -0.3606  0.7468  0.6384
  844MOL0     C13852   0.318   5.640   7.692  0.7821  0.0554 -0.1926
  844MOL0     O13853   0.040   5.554   7.708  0.1803  0.2200  0.3586
  844MOL0     C13854   0.018   5.276   7.482  0.0166 -0.2953  0.8657
  844MOL0     C13855  -0.066   5.171   7.450 -0.6356  0.2552 -0.3183
  844MOL0     N13856  -0.434   4.510   7.561 -0.1129  0.3747  0.2042
  844MOL0     N13857  -0.362   4.406   7.541 -0.0148 -0.3513 -0.3822
  844MOL0     C13858   0.704   3.999   6.764 -0.2569  0.5034 -0.9626
  844MOL0     C13859   0.833   3.976   6.711  0.4574  0.5660  0.2939
  844MOL0     C13860   1.196   3.776   6.558  0.3874 -0.9935 -0.7779
  844MOL0     C13861   1.291   3.858   6.624 -0.3658  0.1327 -0.1118
  844MOL0     C13862   1.419   3.854   6.602  0.1158 -0.1403 -0.1790
  844MOL0     C13863   1.470   3.773   6.495  0.3130 -0.1914  0.6175
  844MOL0     O13864   1.606   3.766   6.484 -0.5591  0.1580 -0.3765
  844MOL0     C13865   1.654   3.710   6.363 -0.2350 -0.0938 -0.0813
  844MOL0     C13866   1.800   3.758   6.343 -0.3996 -0.0617 -0.3088
  844MOL0     C13867   1.886   3.691   6.448  0.7107  0.2341 -0.7114
  844MOL0     C13868   2.028   3.683   6.414  0.0803  0.1699  0.0965
  844MOL0     C13869   2.119   3.665   6.532  0.5103  0.0502 -0.2284
  844MOL0     C13870   2.194   3.641   6.621 -0.7168  0.0069  0.4406
  844MOL0     C13871   1.373   3.698   6.416  0.2094  0.3201 -1.1080
  844MOL0     C13872   1.238   3.699   6.450  0.0960  0.3849 -1.0057
  844MOL0     H13873   0.876   3.652   6.818 -0.1571  1.0482 -0.0106
  844MOL0     H13874   0.646   3.684   6.892 -1.5383  0.6425 -0.6137
  844MOL0     H13875   0.536   4.095   6.985 -1.5553  1.7058  0.7018
  844MOL0     H13876   0.431   4.086   6.843  3.0337 -0.9537 -1.5102
  844MOL0     H13877   0.272   3.965   6.977 -0.7524 -0.0770  1.4653
  844MOL0     H13878   0.375   3.949   7.112  0.1423  0.6925  0.9289
  844MOL0     H13879   0.364   4.187   7.147  0.1553 -1.3114  0.8981
  844MOL0     H13880   0.272   4.213   6.990 -2.1876  1.8466  1.0940
  844MOL0     H13881   0.088   4.084   7.074 -0.2585 -1.3172  1.4753
  844MOL0     H13882   0.172   4.051   7.232  0.9619  1.0803  0.8239
  844MOL0     H13883   0.139   4.261   7.317  2.3003 -0.1615 -0.5880
  844MOL0     H13884   0.116   4.331   7.158 -0.1988  0.6650  1.4713
  844MOL0     H13885  -0.089   4.195   7.126  1.0492  3.2950 -0.8275
  844MOL0     H13886  -0.056   4.127   7.296  4.0488  0.7587  0.7737
  844MOL0     H13887  -0.081   4.358   7.387 -1.5213  1.2139  0.6982
  844MOL0     H13888  -0.132   4.415   7.224  2.1551  0.4873 -0.3860
  844MOL0     H13889  -0.254   4.208   7.421  0.2904  0.2566  1.2768
  844MOL0     H13890  -0.338   4.253   7.273  1.6633  1.1171 -2.2846
  844MOL0     H13891  -0.412   4.517   7.240 -4.2631 -0.1810 -0.3633
  844MOL0     H13892  -0.570   4.711   7.324 -5.7844 -0.2068  1.0566
  844MOL0     H13893  -0.627   4.696   7.487 -1.2356  0.4356 -1.8545
  844MOL0     H13894  -0.363   4.792   7.525  0.4057  1.1235 -0.1623
  844MOL0     H13895  -0.495   4.905   7.498  0.9438 -0.3421  2.5917
  844MOL0     H13896  -0.452   4.938   7.278  0.4722  0.7522 -1.9518
  844MOL0     H13897  -0.339   4.805   7.263 -1.2088 -0.7699  0.2295
  844MOL0     H13898  -0.230   5.011   7.256  3.4403 -4.3036 -0.3089
  844MOL0     H13899  -0.174   4.925   7.399 -0.8183 -0.3048  0.0594
  844MOL0     H13900  -0.368   5.321   7.548 -1.2225  0.9865 -1.8288
  844MOL0     H13901  -0.218   5.503   7.758 -0.9781 -0.1194  0.9716
  844MOL0     H13902  -0.196   5.623   7.629  0.5797  0.1314  1.2997
  844MOL0     H13903  -0.348   5.542   7.645  0.2892 -0.9196  0.4743
  844MOL0     H13904   0.426   5.431   7.446  3.0548 -1.7336  0.7654
  844MOL0     H13905   0.642   5.535   7.492  1.4668 -0.1619  2.3455
  844MOL0     H13906   0.711   5.876   7.599  1.4148  1.9346  0.1970
  844MOL0     H13907   0.637   5.876   7.768 -1.2588 -0.9130 -0.9001
  844MOL0     H13908   0.856   5.981   7.765 -1.8399 -0.7281 -0.2234
  844MOL0     H13909   0.852   5.831   7.862  0.8394  0.3503  0.7657
  844MOL0     H13910   0.948   5.820   7.581 -0.1904 -0.5415  0.0901
  844MOL0     H13911   0.963   5.701   7.703 -0.2254  0.1753  1.4303
  844MOL0     H13912   1.103   5.975   7.681  0.4928  1.6394  4.3818
  844MOL0     H13913   1.099   5.908   7.833 -3.4109  1.4843  0.2684
  844MOL0     H13914   1.310   5.841   7.745  2.0487 -1.1034 -2.4945
  844MOL0     H13915   1.255   5.762   7.604 -0.0578  2.6171 -1.1572
  844MOL0     H13916   1.336   5.648   7.841 -1.0311 -0.4899 -0.4474
  844MOL0     H13917   1.164   5.664   7.880  0.4296 -3.1197  1.2544
  844MOL0     H13918   1.320   5.481   7.702 -0.1596 -1.2613  3.1511
  844MOL0     H13919   1.175   5.540   7.627  1.2412  0.3098 -0.7758
  844MOL0     H13920   1.057   5.451   7.850  0.1991  2.0650 -1.7025
  844MOL0     H13921   1.220   5.372   7.870  0.8151  0.3143 -1.7780
  844MOL0     H13922   0.439   5.764   7.802 -2.2339  1.5932 -0.2823
  844MOL0     H13923   0.234   5.690   7.740  0.8799  1.8193 -1.7443
  844MOL0     H13924   0.124   5.257   7.466  0.7105  2.2268  2.0194
  844MOL0     H13925  -0.011   5.087   7.407 -0.0047  0.5305 -0.0713
  844MOL0     H13926   0.659   4.098   6.754 -0.7120  0.2678 -1.2846
  844MOL0     H13927   0.876   4.053   6.649 -0.1099 -0.2947 -1.2437
  844MOL0     H13928   1.256   3.925   6.702 -1.0349 -0.7164  0.3299
  844MOL0     H13929   1.498   3.890   6.667  0.0924  0.0926 -0.2794
  844MOL0     H13930   1.640   3.602   6.354  0.0661 -0.0675 -1.0311
  844MOL0     H13931   1.598   3.743   6.275  0.3922 -0.3998 -0.6015
  844MOL0     H13932   1.797   3.864   6.371 -0.6206 -0.4361  1.1450
  844MOL0     H13933   1.851   3.733   6.249 -0.1699  1.0962 -0.5081
  844MOL0     H13934   1.840   3.594   6.466 -0.4738  0.7997 -0.5958
  844MOL0     H13935   1.872   3.746   6.541 -0.3430 -0.8471 -0.2168
  844MOL0     H13936   2.054   3.765   6.347  0.2459 -1.4736 -1.9696
  844MOL0     H13937   2.044   3.591   6.357  1.6943 -1.6326  3.1563
  844MOL0     H13938   2.249   3.620   6.710  0.9441 -1.4471 -0.8796
  844MOL0     H13939   1.404   3.622   6.345  1.1322 -0.9957  0.6203
  844MOL0     H13940   1.171   3.629   6.400 -1.1906 -0.6379  1.9320
  845MOL0     O13941   8.296   5.378   7.391 -0.0639 -0.7880 -0.1966
  845MOL0     C13942   8.236   5.483   7.369 -0.1473  0.3119  0.4563
  845MOL0     O13943   8.286   5.610   7.385  0.1840  0.1043 -0.4579
  845MOL0     C13944   8.418   5.621   7.406 -0.1128 -0.0172 -0.1970
  845MOL0     C13945   8.482   5.710   7.319 -0.5261  0.9025  0.0999
  845MOL0     C13946   8.620   5.750   7.346 -0.6017  0.6726 -0.4753
  845MOL0     C13947   8.695   5.673   7.432  0.4815  0.3479 -0.5601
  845MOL0     O13948   8.833   5.676   7.429 -0.0730  0.2962 -0.2932
  845MOL0     C13949   8.901   5.764   7.347 -1.0285 -0.0912  0.0306
  845MOL0     C13950   9.048   5.723   7.343  0.3863  0.1924  0.1685
  845MOL0     C13951   9.117   5.731   7.480  0.8737 -0.1529 -0.0634
  845MOL0     C13952   9.260   5.682   7.463 -0.6370  1.0689  0.3410
  845MOL0     C13953   9.361   5.753   7.555  0.0203 -0.1398 -0.0821
  845MOL0     C13954   9.489   5.668   7.561 -0.0895 -0.3403  0.2926
  845MOL0     C13955   9.592   5.759   7.624 -0.3358 -0.9326 -0.3026
  845MOL0     C13956   9.731   5.696   7.626  0.5138 -0.4356  1.0735
  845MOL0     N13957   9.745   5.566   7.683 -0.2341 -0.2650 -0.3460
  845MOL0     C13958   9.764   5.540   7.812 -0.1356  0.4046 -1.3629
  845MOL0     C13959   9.784   5.409   7.828  0.4185  0.2957 -0.6641
  845MOL0     C13960   9.808   5.327   7.947 -0.2234  0.5728 -1.0466
  845MOL0     C13961   9.675   5.285   8.017 -0.1290 -0.7018  1.0947
  845MOL0     C13962   9.685   5.201   8.144 -0.0268 -0.5462  0.4710
  845MOL0     C13963   9.544   5.166   8.195 -0.3639  0.2615  0.7077
  845MOL0     O13964   9.470   5.278   8.253 -0.0992 -0.4633 -0.0786
  845MOL0     C13965   9.330   5.276   8.272  0.6333 -0.7556  0.1617
  845MOL0     C13966   9.258   5.384   8.314  0.5195  0.0013  0.2445
  845MOL0     C13967   9.120   5.386   8.319  0.1052  0.1453  0.2508
  845MOL0     C13968   9.058   5.503   8.387 -0.5212 -0.1747 -0.1190
  845MOL0     C13969   9.043   5.275   8.287  0.0546  0.7589 -0.2079
  845MOL0     C13970   8.890   5.264   8.298 -0.2051 -0.7450 -0.5547
  845MOL0     O13971   8.844   5.135   8.297  0.2060 -0.1540 -0.1157
  845MOL0     C13972   8.710   5.112   8.263  0.1138 -0.5606 -0.1209
  845MOL0     C13973   8.621   5.049   8.353 -0.3966  0.0305 -1.0719
  845MOL0     C13974   8.493   5.002   8.303 -0.3437 -0.8958 -0.3833
  845MOL0     C13975   8.452   5.022   8.172 -0.3341 -0.3115 -0.8146
  845MOL0     O13976   8.331   4.972   8.130 -0.5389  0.0378  0.5504
  845MOL0     C13977   8.271   5.037   8.024  0.0722 -0.6378  0.6895
  845MOL0     C13978   8.136   4.960   8.011  0.6780 -0.7961  0.7199
  845MOL0     C13979   8.044   5.015   7.902  0.0523  0.2744  0.8328
  845MOL0     C13980   7.898   4.960   7.917 -0.3094  0.8506  0.3369
  845MOL0     C13981   7.826   4.993   7.787  0.4732  0.2182 -0.3759
  845MOL0     C13982   7.674   4.977   7.797 -0.5398  0.4031 -0.1043
  845MOL0     C13983   7.618   4.946   7.666  0.0261 -0.3994 -0.2000
  845MOL0     C13984   7.468   4.931   7.669  0.1695  0.3294 -0.1339
  845MOL0    Cl13985   7.411   4.893   7.501 -0.0473  0.2855 -0.5788
  845MOL0     C13986   8.543   5.103   8.094 -0.9392  0.6576  1.2855
  845MOL0     C13987   8.670   5.144   8.136  0.0115  0.3619  0.3974
  845MOL0     O13988   8.818   5.363   8.318 -0.3285 -0.8657  0.1925
  845MOL0     C13989   9.120   5.161   8.240  0.5948 -0.7897 -0.1690
  845MOL0     C13990   9.260   5.155   8.247  1.0743  0.7140  0.2783
  845MOL0     N13991   9.791   5.360   7.699 -0.4809  0.8133  0.1982
  845MOL0     N13992   9.772   5.456   7.615  0.0707  0.3652  0.2133
  845MOL0     C13993   8.624   5.586   7.518 -0.4770  0.4612  0.5286
  845MOL0     C13994   8.486   5.570   7.513 -0.5182 -0.5476  0.0422
  845MOL0     C13995   8.101   5.460   7.319  0.4593  0.0472 -0.1803
  845MOL0     C13996   8.060   5.333   7.278  0.2141  0.3357 -0.6614
  845MOL0     C13997   7.932   5.308   7.242 -0.5578 -0.0388 -0.1869
  845MOL0     C13998   7.837   5.410   7.235 -0.4750 -0.0559  0.0922
  845MOL0     O13999   7.707   5.394   7.195  0.4757 -0.3993  0.2058
  845MOL0     C14000   7.671   5.261   7.162  0.3076 -0.3315  0.4056
  845MOL0     C14001   7.521   5.262   7.144  0.6976 -0.1363 -0.1752
  845MOL0     C14002   7.481   5.281   7.001  0.5657 -0.0942 -0.4134
  845MOL0     C14003   7.326   5.259   6.981  0.2046 -0.0193 -0.6795
  845MOL0     C14004   7.281   5.255   6.846  0.6651  0.0827  0.3942
  845MOL0     C14005   7.233   5.255   6.732  0.3150 -0.0637  0.3012
  845MOL0     C14006   7.875   5.537   7.277  0.9407  0.5298  0.3174
  845MOL0     C14007   8.008   5.564   7.314  0.0115  0.4389 -0.4296
  845MOL0     H14008   8.431   5.766   7.242  0.6854  0.8968 -0.7428
  845MOL0     H14009   8.664   5.824   7.281 -1.6840  1.3107 -0.5085
  845MOL0     H14010   8.865   5.769   7.244  1.7048 -2.2931 -1.1478
  845MOL0     H14011   8.896   5.859   7.401 -1.6289  0.9806 -1.8282
  845MOL0     H14012   9.040   5.622   7.301 -0.2791 -0.5760  2.0297
  845MOL0     H14013   9.112   5.783   7.279  3.9333 -1.7204  1.6197
  845MOL0     H14014   9.139   5.833   7.513  2.7615  0.1522 -2.0360
  845MOL0     H14015   9.068   5.683   7.566  0.6309  0.6599  0.2717
  845MOL0     H14016   9.258   5.573   7.477 -2.7719  0.9373 -0.5267
  845MOL0     H14017   9.286   5.714   7.362 -4.2363 -0.1932 -1.1511
  845MOL0     H14018   9.392   5.846   7.508 -0.3377 -1.4800 -3.1765
  845MOL0     H14019   9.321   5.760   7.657 -2.1375  1.6079 -0.9867
  845MOL0     H14020   9.473   5.580   7.624  0.8469 -0.5530  0.2435
  845MOL0     H14021   9.525   5.635   7.464 -0.6731 -1.0222  0.3028
  845MOL0     H14022   9.597   5.857   7.576  3.7436 -0.3334  1.0234
  845MOL0     H14023   9.566   5.786   7.727 -1.5841  1.9608 -1.2655
  845MOL0     H14024   9.797   5.768   7.675 -0.0833  1.3970 -0.6506
  845MOL0     H14025   9.765   5.677   7.523 -0.0091 -0.1741  0.8478
  845MOL0     H14026   9.755   5.600   7.902 -3.9898  0.4452 -1.6444
  845MOL0     H14027   9.854   5.234   7.914 -0.7147 -1.1200  2.5893
  845MOL0     H14028   9.874   5.381   8.016  2.3579 -3.4970 -0.0180
  845MOL0     H14029   9.613   5.232   7.944  0.0583 -1.5932  1.5629
  845MOL0     H14030   9.625   5.381   8.036  1.5113  1.0862 -2.5541
  845MOL0     H14031   9.725   5.260   8.227  5.0367  2.0650 -3.2755
  845MOL0     H14032   9.741   5.108   8.134 -0.1308 -0.9731  3.0160
  845MOL0     H14033   9.561   5.093   8.274 -0.6406  1.8760  2.3213
  845MOL0     H14034   9.486   5.125   8.112  1.3556  1.2451 -1.0902
  845MOL0     H14035   9.311   5.475   8.343  1.0931 -0.7793  1.7561
  845MOL0     H14036   9.142   5.571   8.406 -1.1789  0.0577  2.2487
  845MOL0     H14037   8.992   5.554   8.315  1.7595 -1.6355 -3.4813
  845MOL0     H14038   9.010   5.479   8.482 -1.9971  0.4176 -0.6834
  845MOL0     H14039   8.663   5.016   8.447 -1.4854  1.4161 -0.0506
  845MOL0     H14040   8.436   4.938   8.370 -1.5265 -0.1672 -0.6731
  845MOL0     H14041   8.261   5.142   8.051  5.0255  0.4678 -0.6697
  845MOL0     H14042   8.338   5.042   7.938  1.1775  0.6958  1.5926
  845MOL0     H14043   8.153   4.855   7.984  0.7769 -0.1580 -1.9420
  845MOL0     H14044   8.083   4.974   8.106 -1.7211  0.3072 -0.6842
  845MOL0     H14045   8.077   4.987   7.802 -0.4815  2.1745  0.0774
  845MOL0     H14046   8.040   5.124   7.913  1.0071  0.1226  3.3561
  845MOL0     H14047   7.902   4.851   7.927 -0.1910  0.7174 -1.0524
  845MOL0     H14048   7.847   5.009   8.001  1.9128  2.8546  0.6016
  845MOL0     H14049   7.859   4.921   7.712 -1.1695 -1.9508  0.8688
  845MOL0     H14050   7.844   5.097   7.758  3.8611 -0.0251  0.4786
  845MOL0     H14051   7.648   4.891   7.860  0.9794 -0.6019 -0.7864
  845MOL0     H14052   7.641   5.075   7.833  3.8812  1.7062  1.0354
  845MOL0     H14053   7.661   4.851   7.633  0.2763 -0.4234  0.1836
  845MOL0     H14054   7.643   5.027   7.596 -0.7226 -0.8023 -0.9424
  845MOL0     H14055   7.416   5.020   7.706  1.6565  0.8193  0.8464
  845MOL0     H14056   7.440   4.846   7.732  1.3987  0.2372  0.2961
  845MOL0     H14057   8.527   5.140   7.993  3.7890  0.0128  0.0339
  845MOL0     H14058   8.734   5.194   8.065 -0.9539 -0.5498 -1.1879
  845MOL0     H14059   9.063   5.072   8.216  1.2913 -0.7493 -2.1043
  845MOL0     H14060   9.305   5.058   8.228 -2.3416 -0.8543 -0.6329
  845MOL0     H14061   8.681   5.536   7.595  2.7017 -0.5118 -2.1599
  845MOL0     H14062   8.433   5.515   7.590  3.8607 -1.8447  2.5348
  845MOL0     H14063   8.125   5.246   7.276 -3.2574 -2.4801  0.2869
  845MOL0     H14064   7.913   5.205   7.212 -1.0125 -0.3731  1.1661
  845MOL0     H14065   7.725   5.221   7.075 -0.4011 -1.4972  0.4750
  845MOL0     H14066   7.693   5.193   7.245 -2.1716 -0.0192  1.4074
  845MOL0     H14067   7.482   5.344   7.205  0.6865 -0.8617  0.8126
  845MOL0     H14068   7.485   5.165   7.180  0.0768 -0.6103 -1.9835
  845MOL0     H14069   7.536   5.214   6.934  0.9413 -1.7677  1.4543
  845MOL0     H14070   7.512   5.382   6.976 -0.1411 -0.1290 -1.4814
  845MOL0     H14071   7.275   5.345   7.025  1.3872  0.2798  0.1568
  845MOL0     H14072   7.286   5.173   7.036  0.1177  0.1638 -0.4553
  845MOL0     H14073   7.188   5.248   6.635  1.0373 -0.4227 -0.0185
  845MOL0     H14074   7.796   5.610   7.268  0.4582 -0.1519 -1.6290
  845MOL0     H14075   8.039   5.662   7.349  0.8945 -0.2528  0.7742
  846MOL0     O14076   9.991   1.364   0.478  0.3084 -0.6560  0.1185
  846MOL0     C14077   9.932   1.271   0.423 -0.2273 -0.4534  0.0034
  846MOL0     O14078   9.879   1.270   0.299  0.5230  0.0232 -0.1680
  846MOL0     C14079   9.877   1.374   0.205 -0.2115 -0.4424 -0.2711
  846MOL0     C14080   9.894   1.514   0.229 -0.4164  0.6266  0.3376
  846MOL0     C14081   9.885   1.607   0.132  0.3500 -0.3641  0.0145
  846MOL0     C14082   9.858   1.573   0.002  0.6394 -0.3951 -0.1399
  846MOL0     O14083   9.835   1.660  -0.102  0.1915 -0.0747  0.1575
  846MOL0     C14084   9.838   1.805  -0.081  0.2257 -0.3019 -0.0880
  846MOL0     C14085   9.717   1.861  -0.005 -0.1473 -0.1316  0.2578
  846MOL0     C14086   9.703   2.016  -0.023  0.2415  0.7092 -0.9741
  846MOL0     C14087   9.606   2.078   0.084  0.5770  0.0014 -0.0974
  846MOL0     C14088   9.606   2.233   0.070  0.0050  0.2340  0.4108
  846MOL0     C14089   9.505   2.292   0.166 -0.4166 -0.1315  0.2074
  846MOL0     C14090   9.495   2.439   0.131 -0.2075 -0.7754  0.1525
  846MOL0     C14091   9.404   2.519   0.227 -0.0670 -0.0668  0.1772
  846MOL0     N14092   9.266   2.466   0.229 -0.2601  0.4267 -0.1766
  846MOL0     C14093   9.161   2.510   0.147 -0.1244 -0.1983 -0.1082
  846MOL0     C14094   9.057   2.430   0.179 -0.1843 -0.4044 -0.1666
  846MOL0     C14095   8.920   2.424   0.118  0.0403 -0.1570 -0.0259
  846MOL0     C14096   8.819   2.474   0.227  0.8984  1.5162  0.4717
  846MOL0     C14097   8.673   2.471   0.180 -0.1929 -0.5718 -1.4716
  846MOL0     C14098   8.592   2.502   0.305 -0.0489  0.5780 -0.1409
  846MOL0     O14099   8.451   2.507   0.279 -0.1526 -0.3367 -0.1701
  846MOL0     C14100   8.366   2.582   0.361  0.5777  0.0345  0.4415
  846MOL0     C14101   8.390   2.638   0.489  0.1588  0.2262 -0.0936
  846MOL0     C14102   8.302   2.715   0.555  0.5077 -0.6733  0.0359
  846MOL0     C14103   8.350   2.781   0.676 -0.3980 -0.2127 -0.5451
  846MOL0     C14104   8.169   2.726   0.493 -1.2039 -0.1613 -0.0930
  846MOL0     C14105   8.048   2.792   0.567 -0.0902 -1.0309  0.2283
  846MOL0     O14106   7.936   2.828   0.494 -0.1397  0.6555  0.5655
  846MOL0     C14107   7.818   2.887   0.544 -0.6034  0.0218  0.0689
  846MOL0     C14108   7.786   2.891   0.678 -0.1717 -0.2400  0.9954
  846MOL0     C14109   7.654   2.921   0.719  0.2561  0.0436  0.1230
  846MOL0     C14110   7.553   2.954   0.632  0.3892  0.1001  0.3312
  846MOL0     O14111   7.434   2.980   0.688  0.3197 -0.9613  0.3210
  846MOL0     C14112   7.325   3.009   0.602 -0.4393 -0.0271 -0.0634
  846MOL0     C14113   7.198   3.033   0.690  0.4979 -0.7497 -0.0434
  846MOL0     C14114   7.072   3.027   0.592  0.5993  0.5400 -0.0637
  846MOL0     C14115   6.951   3.056   0.669  0.1342 -0.7496 -0.5490
  846MOL0     C14116   6.837   3.032   0.580  0.8307  0.0169  0.7967
  846MOL0     C14117   6.706   3.076   0.647  0.3142 -0.7767 -0.1971
  846MOL0     C14118   6.577   3.072   0.560 -0.7471  0.6534 -0.0810
  846MOL0     C14119   6.567   3.182   0.451  0.2573  0.8942  0.0914
  846MOL0    Cl14120   6.621   3.342   0.519 -0.2518 -0.7570  0.3077
  846MOL0     C14121   7.588   2.953   0.493 -0.8489 -1.5765 -0.1719
  846MOL0     C14122   7.715   2.915   0.458  0.5858  0.2975 -0.6607
  846MOL0     O14123   8.069   2.816   0.690  0.0288 -0.3828 -0.8774
  846MOL0     C14124   8.141   2.664   0.366  1.5950 -0.0582  0.2980
  846MOL0     C14125   8.241   2.589   0.308  0.8256 -0.4644 -0.1407
  846MOL0     N14126   9.093   2.354   0.291  0.7988 -0.5199  0.2569
  846MOL0     N14127   9.218   2.369   0.314  0.6471 -0.3911  1.2103
  846MOL0     C14128   9.853   1.440  -0.030  0.7458  0.6303 -0.1311
  846MOL0     C14129   9.859   1.344   0.073  0.4908  1.0919  0.6972
  846MOL0     C14130   9.920   1.145   0.498 -0.5989  0.3040  0.5877
  846MOL0     C14131   9.838   1.040   0.448 -0.7945  0.1694  0.8859
  846MOL0     C14132   9.820   0.924   0.525 -0.4675  0.2992 -0.5296
  846MOL0     C14133   9.874   0.912   0.655 -0.1617 -0.8198  0.5490
  846MOL0     O14134   9.846   0.815   0.741 -0.3502 -0.3396  0.1451
  846MOL0     C14135   9.712   0.811   0.796  0.1619 -0.2971 -0.7839
  846MOL0     C14136   9.642   0.678   0.770 -0.1562  0.0364  0.0212
  846MOL0     C14137   9.533   0.695   0.660 -0.8005 -0.2854 -0.1603
  846MOL0     C14138   9.392   0.737   0.709  0.0851 -0.4124 -0.8171
  846MOL0     C14139   9.304   0.716   0.594  0.1408  0.1770  0.3042
  846MOL0     C14140   9.230   0.700   0.500  0.4014 -0.2851  0.7264
  846MOL0     C14141   9.957   1.015   0.706  0.6190  0.4777 -0.8298
  846MOL0     C14142   9.978   1.126   0.625  0.2964 -1.1429  0.1297
  846MOL0     H14143   9.907   1.552   0.330 -0.1914 -1.1401  1.0056
  846MOL0     H14144   9.899   1.711   0.160 -1.1949  0.1209 -0.8743
  846MOL0     H14145   9.916   1.839  -0.013 -1.1382  1.1021  0.8332
  846MOL0     H14146   9.858   1.856  -0.176  0.8477  0.8584  0.6531
  846MOL0     H14147   9.634   1.804  -0.048  0.9051 -2.1054  0.7592
  846MOL0     H14148   9.708   1.841   0.102 -0.4736 -0.8408  0.0996
  846MOL0     H14149   9.805   2.056  -0.014 -0.1114  1.3682  0.5060
  846MOL0     H14150   9.665   2.032  -0.124  0.5717 -0.4737 -1.2929
  846MOL0     H14151   9.507   2.044   0.052  1.2828 -2.0671 -0.2691
  846MOL0     H14152   9.628   2.042   0.185  1.1210  0.1707 -0.1536
  846MOL0     H14153   9.705   2.279   0.077  0.1708 -0.2597  1.5773
  846MOL0     H14154   9.563   2.254  -0.028 -0.8400  0.8390  0.8899
  846MOL0     H14155   9.413   2.234   0.159 -0.2125 -0.2721 -5.1936
  846MOL0     H14156   9.550   2.285   0.266 -0.8625 -0.1627  0.4058
  846MOL0     H14157   9.595   2.483   0.146 -1.0761  1.6531 -0.6300
  846MOL0     H14158   9.458   2.463   0.031 -0.5578 -0.1766  0.4177
  846MOL0     H14159   9.407   2.624   0.198  1.2309  0.0826  0.7991
  846MOL0     H14160   9.446   2.505   0.327  0.8076  0.9774 -0.0227
  846MOL0     H14161   9.168   2.584   0.067  3.1540 -0.5706 -0.2671
  846MOL0     H14162   8.920   2.483   0.026 -1.1607 -0.6172 -0.3385
  846MOL0     H14163   8.893   2.319   0.104 -1.4108  0.0111  1.3155
  846MOL0     H14164   8.851   2.569   0.272  4.1946  2.4854 -3.3646
  846MOL0     H14165   8.815   2.393   0.302 -1.8047  1.6842  0.6079
  846MOL0     H14166   8.642   2.370   0.150 -3.1282 -0.1688 -0.0843
  846MOL0     H14167   8.645   2.551   0.112 -2.9355 -0.1940 -0.0284
  846MOL0     H14168   8.619   2.594   0.357  0.7906 -0.0630  0.5932
  846MOL0     H14169   8.600   2.414   0.368  0.3965  0.7735  0.0757
  846MOL0     H14170   8.488   2.622   0.533 -1.1932 -0.0973  3.0940
  846MOL0     H14171   8.335   2.719   0.764 -1.5396  2.0183  0.9479
  846MOL0     H14172   8.459   2.785   0.670 -0.4308  0.3695 -0.8745
  846MOL0     H14173   8.303   2.880   0.686 -0.4546 -0.4068  1.4136
  846MOL0     H14174   7.862   2.866   0.751  0.9459  3.4276  1.2616
  846MOL0     H14175   7.627   2.923   0.824 -2.4957  0.9230 -0.5071
  846MOL0     H14176   7.344   3.100   0.544 -1.1463  1.5296  2.0160
  846MOL0     H14177   7.315   2.923   0.535  0.1026  0.5414 -0.8889
  846MOL0     H14178   7.181   2.961   0.770  3.6676 -0.5980  0.8910
  846MOL0     H14179   7.215   3.132   0.733 -3.2631 -0.8048  1.9214
  846MOL0     H14180   7.070   2.926   0.549  0.0206  1.9729 -3.7852
  846MOL0     H14181   7.084   3.104   0.516 -2.7231  0.6887 -0.5628
  846MOL0     H14182   6.949   2.999   0.763  1.2508  0.1801  0.0604
  846MOL0     H14183   6.954   3.161   0.698  1.9067 -0.6114 -1.1157
  846MOL0     H14184   6.833   2.927   0.551 -0.3236  0.9271 -2.8364
  846MOL0     H14185   6.855   3.094   0.492  1.5811 -0.4120  0.6485
  846MOL0     H14186   6.686   3.001   0.724 -2.2468  0.6596  0.6669
  846MOL0     H14187   6.707   3.174   0.696  1.8295  0.7689 -3.0621
  846MOL0     H14188   6.495   3.083   0.631 -0.0420  0.1865  0.8248
  846MOL0     H14189   6.574   2.979   0.502  2.6714 -0.1059  0.7187
  846MOL0     H14190   6.465   3.187   0.414  0.5740 -2.9999 -1.8684
  846MOL0     H14191   6.637   3.156   0.370 -0.0176  3.2104 -0.9518
  846MOL0     H14192   7.519   2.991   0.419  1.8087  2.4805 -0.8845
  846MOL0     H14193   7.752   2.926   0.356  1.0005 -0.3120 -0.5811
  846MOL0     H14194   8.048   2.683   0.313  0.8084  1.2288  2.0519
  846MOL0     H14195   8.223   2.539   0.213 -0.0481  0.6941 -0.6112
  846MOL0     H14196   9.837   1.397  -0.129  0.1649 -0.4835  0.4247
  846MOL0     H14197   9.842   1.241   0.046  1.3593  1.1139  0.0319
  846MOL0     H14198   9.786   1.056   0.354 -4.1247 -3.0614  1.9558
  846MOL0     H14199   9.754   0.847   0.486  0.1135  0.8906 -2.8346
  846MOL0     H14200   9.730   0.815   0.904 -0.5109 -2.7787 -0.5186
  846MOL0     H14201   9.652   0.896   0.764 -1.1832 -0.3138  1.4965
  846MOL0     H14202   9.601   0.653   0.868  1.1971  3.7966  1.7204
  846MOL0     H14203   9.715   0.602   0.738 -0.2431  0.1386 -0.4194
  846MOL0     H14204   9.512   0.595   0.620  0.0213  0.1990 -1.8979
  846MOL0     H14205   9.578   0.763   0.587  1.3453  3.2577  3.9902
  846MOL0     H14206   9.390   0.842   0.739 -0.1955 -0.4880 -0.5642
  846MOL0     H14207   9.359   0.684   0.799 -0.6873 -0.2116 -0.9744
  846MOL0     H14208   9.173   0.687   0.411  1.1214 -1.6974  0.4499
  846MOL0     H14209  10.013   0.991   0.796  1.4742  0.5696 -1.3217
  846MOL0     H14210  10.043   1.199   0.673 -0.8825  0.0719 -0.0724
  847MOL0     O14211   9.289  10.320   2.371 -0.4586  0.0965  0.0665
  847MOL0     C14212   9.352  10.382   2.456 -0.9798 -0.0515  0.6872
  847MOL0     O14213   9.296  10.475   2.548 -0.2444 -0.4634  0.0664
  847MOL0     C14214   9.167  10.492   2.539 -0.3102 -1.0641  0.4933
  847MOL0     C14215   9.081  10.404   2.599  0.1199  0.6301 -0.1059
  847MOL0     C14216   8.945  10.428   2.611 -0.6908  0.4168  0.2585
  847MOL0     C14217   8.891  10.545   2.562 -0.4918  0.3938  0.9776
  847MOL0     O14218   8.760  10.558   2.583  0.0451 -1.2592 -0.1329
  847MOL0     C14219   8.689  10.599   2.464 -0.6265  0.2793 -0.2943
  847MOL0     C14220   8.583  10.507   2.430  0.1408 -0.2486 -0.9257
  847MOL0     C14221   8.507  10.563   2.304  0.4719  0.5005 -0.5679
  847MOL0     C14222   8.355  10.608   2.334 -0.4450  0.1551  0.3242
  847MOL0     C14223   8.357  10.757   2.381 -0.2327  0.1281  0.0584
  847MOL0     C14224   8.206  10.800   2.395 -0.8391  1.4097 -0.1918
  847MOL0     C14225   8.193  10.951   2.417  0.4966  0.5853  0.0238
  847MOL0     C14226   8.071  11.006   2.332  0.4881 -0.5288 -0.4052
  847MOL0     N14227   7.946  10.933   2.369  0.4243 -0.2079  0.3015
  847MOL0     C14228   7.885  10.823   2.301  0.2737  0.1965  0.7650
  847MOL0     C14229   7.786  10.777   2.374 -0.2943  0.4793 -0.8155
  847MOL0     C14230   7.691  10.671   2.338  0.5873  0.2524  0.8897
  847MOL0     C14231   7.632  10.673   2.195 -0.1454 -0.1131  0.3057
  847MOL0     C14232   7.531  10.568   2.165 -0.2166  0.0905 -0.2419
  847MOL0     C14233   7.401  10.605   2.227  0.5232 -0.1605  0.5965
  847MOL0     O14234   7.356  10.724   2.161 -0.0954  0.4610  0.2978
  847MOL0     C14235   7.222  10.764   2.185 -0.4588 -0.4925  0.1530
  847MOL0     C14236   7.120  10.696   2.245  0.6454 -0.2874  0.2897
  847MOL0     C14237   6.983  10.732   2.255 -0.2532  0.6305  1.5223
  847MOL0     C14238   6.885  10.636   2.316 -0.3391  0.1012  0.0493
  847MOL0     C14239   6.950  10.859   2.206 -0.0023 -0.1494 -0.2934
  847MOL0     C14240   6.813  10.917   2.205 -0.3360 -0.1213 -1.0408
  847MOL0     O14241   6.801  11.035   2.146 -0.3011 -0.1460 -0.4315
  847MOL0     C14242   6.674  11.087   2.151  0.5421  0.1781 -0.1610
  847MOL0     C14243   6.592  11.049   2.045  0.2327  0.0756  0.1387
  847MOL0     C14244   6.455  11.079   2.061  0.0310  0.1986 -1.4122
  847MOL0     C14245   6.411  11.161   2.161 -0.0072 -1.0081  0.1782
  847MOL0     O14246   6.275  11.186   2.163 -0.3462 -0.2237  0.6283
  847MOL0     C14247   6.213  11.294   2.246 -0.5281  0.3791  1.1845
  847MOL0     C14248   6.067  11.310   2.220 -0.2073 -0.4655 -0.0658
  847MOL0     C14249   5.998  11.425   2.291 -0.0755  0.2208  0.6164
  847MOL0     C14250   5.850  11.423   2.246  0.0613 -0.0959  0.3811
  847MOL0     C14251   5.794  11.562   2.255 -0.6018  0.5346  0.0224
  847MOL0     C14252   5.670  11.558   2.170  1.1206 -1.2742 -0.2271
  847MOL0     C14253   5.558  11.454   2.191 -0.7562  0.7181 -0.5356
  847MOL0     C14254   5.433  11.472   2.111 -1.0199  0.3107  0.2682
  847MOL0    Cl14255   5.354  11.624   2.176  0.1358  0.1328  0.3294
  847MOL0     C14256   6.492  11.200   2.264  0.0164 -0.4035 -0.2841
  847MOL0     C14257   6.620  11.162   2.263 -0.5745 -0.0015  0.0482
  847MOL0     O14258   6.730  10.862   2.281 -0.2997  0.4404 -0.0007
  847MOL0     C14259   7.056  10.945   2.151 -0.6393  0.6623 -0.5904
  847MOL0     C14260   7.190  10.894   2.150 -0.3426 -0.2790  1.5758
  847MOL0     N14261   7.777  10.871   2.481 -0.3541  1.2651 -0.1423
  847MOL0     N14262   7.876  10.953   2.486  0.9278  0.2533  0.4490
  847MOL0     C14263   8.974  10.635   2.488 -0.0144  0.6858 -0.0844
  847MOL0     C14264   9.110  10.604   2.475 -0.3220 -0.1127 -0.1410
  847MOL0     C14265   9.497  10.358   2.463 -0.9378  0.1576 -0.0967
  847MOL0     C14266   9.573  10.460   2.527 -0.9760 -0.1029 -0.9278
  847MOL0     C14267   9.711  10.440   2.541  0.4670  0.4168  0.2991
  847MOL0     C14268   9.774  10.324   2.485  0.4981  0.6098  0.0246
  847MOL0     O14269   9.907  10.315   2.499 -0.1710  0.0514 -0.1241
  847MOL0     C14270   9.946  10.238   2.612  0.8065 -0.1262 -0.0858
  847MOL0     C14271  10.084  10.275   2.650 -0.0312  0.5791 -0.3051
  847MOL0     C14272  10.173  10.147   2.649 -0.5161 -0.4021 -0.4659
  847MOL0     C14273  10.308  10.162   2.724 -0.2377 -0.0148  0.3816
  847MOL0     C14274  10.358  10.036   2.777  0.5621 -0.3505 -0.7341
  847MOL0     C14275  10.396   9.921   2.799 -0.5713  0.9399  0.1129
  847MOL0     C14276   9.692  10.226   2.427  0.0146 -0.4643  0.2439
  847MOL0     C14277   9.560  10.241   2.412 -0.1064 -0.0074 -0.6369
  847MOL0     H14278   9.119  10.313   2.645 -2.4500  0.4072  1.7528
  847MOL0     H14279   8.886  10.354   2.664  0.1945 -0.8485 -0.4545
  847MOL0     H14280   8.657  10.703   2.474  0.8273  1.0023 -2.4241
  847MOL0     H14281   8.760  10.601   2.381  1.3749  2.7689  1.3402
  847MOL0     H14282   8.619  10.407   2.406 -1.4735 -0.8409 -0.9928
  847MOL0     H14283   8.521  10.501   2.520  2.0477  0.3467  0.4850
  847MOL0     H14284   8.561  10.654   2.275  2.5863 -0.6214 -0.3485
  847MOL0     H14285   8.515  10.493   2.220  0.6459  1.1372 -1.0921
  847MOL0     H14286   8.302  10.610   2.238  3.4771 -1.0995 -2.0937
  847MOL0     H14287   8.309  10.544   2.409 -0.5531 -2.1408 -1.5888
  847MOL0     H14288   8.414  10.770   2.474  0.5236 -1.6848 -0.1160
  847MOL0     H14289   8.400  10.821   2.304  0.3697  0.8357  0.9679
  847MOL0     H14290   8.161  10.772   2.299  0.8819  2.5821 -1.3896
  847MOL0     H14291   8.172  10.740   2.480  3.0596 -0.4146  0.2751
  847MOL0     H14292   8.169  10.971   2.522 -3.1274  0.3530 -0.6167
  847MOL0     H14293   8.281  10.999   2.374  0.4138 -0.2489 -1.1287
  847MOL0     H14294   8.091  11.004   2.224  1.3131 -1.6857 -0.2507
  847MOL0     H14295   8.053  11.113   2.350 -3.0502 -0.9590 -0.7032
  847MOL0     H14296   7.910  10.789   2.201  2.2014  1.9212  0.5936
  847MOL0     H14297   7.750  10.581   2.355  2.1278  0.8683 -0.8863
  847MOL0     H14298   7.606  10.670   2.407 -0.1483 -0.5085 -0.0096
  847MOL0     H14299   7.712  10.649   2.125 -0.9741 -2.2825  0.0292
  847MOL0     H14300   7.592  10.774   2.177 -1.4114 -0.5512  0.5340
  847MOL0     H14301   7.567  10.481   2.221  0.6509  1.2220  1.0345
  847MOL0     H14302   7.519  10.554   2.057  0.1932  1.0730 -0.4260
  847MOL0     H14303   7.407  10.618   2.335 -0.6295  2.6440  0.4229
  847MOL0     H14304   7.328  10.526   2.206  1.3944 -0.4114 -1.8312
  847MOL0     H14305   7.143  10.597   2.283 -0.0130  0.0816  1.6934
  847MOL0     H14306   6.788  10.631   2.266 -0.4122  0.4854  0.1472
  847MOL0     H14307   6.931  10.537   2.325 -1.2566 -0.4194 -0.7722
  847MOL0     H14308   6.872  10.652   2.423  0.7456 -1.7786  0.5055
  847MOL0     H14309   6.629  10.988   1.963 -1.1948  0.1132 -0.5670
  847MOL0     H14310   6.383  11.042   1.988 -0.1813  0.0405 -1.1225
  847MOL0     H14311   6.238  11.278   2.351  1.7371  0.5721  0.7327
  847MOL0     H14312   6.255  11.389   2.213 -0.7950  0.2018  0.3149
  847MOL0     H14313   6.058  11.316   2.111 -2.6383 -3.2495 -0.1666
  847MOL0     H14314   6.009  11.220   2.243 -1.9291  0.4959 -0.4685
  847MOL0     H14315   6.044  11.520   2.262 -0.5970 -0.3426 -2.3869
  847MOL0     H14316   6.018  11.408   2.397  0.4441 -1.2309  0.3089
  847MOL0     H14317   5.858  11.387   2.143  1.3797 -0.6655  0.6617
  847MOL0     H14318   5.801  11.348   2.310 -0.6832  1.6710  1.9717
  847MOL0     H14319   5.870  11.623   2.206 -0.4046 -0.1435 -0.5444
  847MOL0     H14320   5.772  11.588   2.358  0.7164 -0.3942  0.5594
  847MOL0     H14321   5.620  11.654   2.186 -1.6153 -2.4597 -1.1949
  847MOL0     H14322   5.696  11.546   2.065  0.1160 -1.1912 -0.4953
  847MOL0     H14323   5.528  11.450   2.296 -0.3170 -0.3114 -0.4366
  847MOL0     H14324   5.610  11.361   2.165 -0.0685  1.1323 -0.6747
  847MOL0     H14325   5.371  11.384   2.130  1.9919 -1.5813  2.1399
  847MOL0     H14326   5.473  11.478   2.009  1.0257 -0.5187  0.9738
  847MOL0     H14327   6.444  11.249   2.348  0.7592 -1.5461  0.8386
  847MOL0     H14328   6.680  11.188   2.349  0.8313 -2.2517 -0.1714
  847MOL0     H14329   7.035  11.044   2.112  1.9978  0.4243 -2.8900
  847MOL0     H14330   7.272  10.955   2.111 -1.7447 -0.0417 -1.2585
  847MOL0     H14331   8.930  10.724   2.445 -2.7986  0.6109  2.3006
  847MOL0     H14332   9.173  10.680   2.430 -0.9748  1.1080  0.9465
  847MOL0     H14333   9.533  10.552   2.568  2.8771  2.3030 -2.0348
  847MOL0     H14334   9.776  10.515   2.585  0.4074  1.1877 -0.8765
  847MOL0     H14335   9.876  10.254   2.694 -2.7818 -1.3835 -2.6453
  847MOL0     H14336   9.939  10.130   2.593  0.1737 -0.2505  0.8180
  847MOL0     H14337  10.081  10.323   2.748  0.9642  1.5167 -0.7167
  847MOL0     H14338  10.108  10.344   2.569  1.8591  1.2076  0.7304
  847MOL0     H14339  10.175  10.100   2.550 -3.0528 -1.1827 -0.2047
  847MOL0     H14340  10.116  10.074   2.706 -2.6652  1.4849 -0.0271
  847MOL0     H14341  10.286  10.225   2.811 -0.3855 -0.8655  0.9723
  847MOL0     H14342  10.380  10.210   2.657  0.0883  0.2644  0.9269
  847MOL0     H14343  10.431   9.821   2.818  1.3474  1.6480  0.5805
  847MOL0     H14344   9.743  10.151   2.368  2.6252  2.0213 -0.8808
  847MOL0     H14345   9.496  10.166   2.366  1.1077 -0.4901 -1.5968
  848MOL0     O14346   3.433   4.802   1.238  0.2049 -0.6750  0.2589
  848MOL0     C14347   3.400   4.810   1.123  0.6619 -0.3754  0.3096
  848MOL0     O14348   3.270   4.785   1.073 -0.0741 -0.4990  0.2910
  848MOL0     C14349   3.159   4.775   1.158  0.5155 -0.4931 -0.1377
  848MOL0     C14350   3.098   4.890   1.212  0.8208  0.4424 -0.2180
  848MOL0     C14351   2.972   4.888   1.278  0.2548 -0.0837 -0.2741
  848MOL0     C14352   2.905   4.762   1.297  0.7835 -1.8176  0.6580
  848MOL0     O14353   2.786   4.745   1.366 -0.0113 -0.4130  0.0012
  848MOL0     C14354   2.729   4.864   1.413 -0.3192  0.2162 -0.4146
  848MOL0     C14355   2.591   4.851   1.485  0.0002  0.2746  0.7062
  848MOL0     C14356   2.495   4.751   1.412 -0.1400  0.3668 -0.2219
  848MOL0     C14357   2.348   4.765   1.462 -0.2921 -0.2954  0.5451
  848MOL0     C14358   2.247   4.668   1.395  0.1438 -0.0389 -0.1456
  848MOL0     C14359   2.102   4.679   1.448  0.1239  0.4958  0.1842
  848MOL0     C14360   2.037   4.814   1.409  0.1906 -0.2513 -0.0057
  848MOL0     C14361   1.886   4.802   1.427 -0.0902 -0.4996  0.2291
  848MOL0     N14362   1.815   4.928   1.439  0.0042  0.1371  0.3424
  848MOL0     C14363   1.717   4.973   1.352  0.1610 -0.2400  1.0446
  848MOL0     C14364   1.660   5.073   1.412 -0.1103  0.6826  0.0216
  848MOL0     C14365   1.547   5.147   1.350 -0.5325 -0.2091 -0.1537
  848MOL0     C14366   1.410   5.112   1.405  0.5935 -0.6628 -0.1168
  848MOL0     C14367   1.311   5.192   1.324  0.8407  0.4538 -0.0988
  848MOL0     C14368   1.168   5.155   1.370  0.5997  0.0918 -0.3431
  848MOL0     O14369   1.072   5.218   1.284 -0.6213 -0.6604  0.1209
  848MOL0     C14370   0.978   5.309   1.334  0.4281 -0.7039  0.3270
  848MOL0     C14371   0.995   5.385   1.453 -0.7301 -0.9071  0.4093
  848MOL0     C14372   0.894   5.468   1.503  0.4233  0.2934 -0.3250
  848MOL0     C14373   0.924   5.546   1.629  0.3713  0.2680  0.2438
  848MOL0     C14374   0.773   5.485   1.429  0.1498  0.7082 -0.7690
  848MOL0     C14375   0.662   5.572   1.481  0.4044  0.0559 -0.0633
  848MOL0     O14376   0.543   5.547   1.428  0.5819  0.1057 -0.2381
  848MOL0     C14377   0.448   5.646   1.463 -0.7586  0.2234  0.6915
  848MOL0     C14378   0.338   5.609   1.537  0.4087  0.8089  0.3083
  848MOL0     C14379   0.245   5.702   1.567  0.1307 -0.1934  0.1863
  848MOL0     C14380   0.249   5.834   1.506  0.1786  0.4464 -0.9770
  848MOL0     O14381   0.142   5.919   1.531 -0.1952  0.3695 -0.8628
  848MOL0     C14382   0.036   5.909   1.434  0.1320 -0.3710  0.9323
  848MOL0     C14383  -0.077   6.018   1.441  0.2598  0.2793  0.7480
  848MOL0     C14384  -0.130   6.017   1.585 -0.2849 -0.3933  0.9289
  848MOL0     C14385  -0.215   6.146   1.610  0.1043 -0.4179 -0.1735
  848MOL0     C14386  -0.268   6.147   1.752  0.2056 -0.5593  0.5119
  848MOL0     C14387  -0.362   6.272   1.775 -0.3334  1.0493  0.4615
  848MOL0     C14388  -0.299   6.409   1.749 -0.0893  0.1096  0.9258
  848MOL0     C14389  -0.416   6.514   1.768 -0.9395 -0.1673  0.5319
  848MOL0    Cl14390  -0.530   6.494   1.631 -0.1589  0.0029 -0.1261
  848MOL0     C14391   0.357   5.869   1.429 -0.6983 -0.0367 -0.7057
  848MOL0     C14392   0.462   5.780   1.406  0.2926  0.0940  0.8231
  848MOL0     O14393   0.683   5.657   1.566 -0.8997  0.3331 -0.3045
  848MOL0     C14394   0.760   5.415   1.302  0.1582  0.4486  0.8282
  848MOL0     C14395   0.857   5.322   1.267 -0.2120  0.0324  0.3613
  848MOL0     N14396   1.710   5.085   1.535  0.0802  0.2596 -1.0529
  848MOL0     N14397   1.794   4.994   1.557 -0.2569  0.5607 -0.1696
  848MOL0     C14398   2.963   4.645   1.239  0.1397 -0.9715 -1.6426
  848MOL0     C14399   3.088   4.657   1.171  0.0407 -0.1645  0.8217
  848MOL0     C14400   3.504   4.864   1.025  0.4826 -0.0412  0.0962
  848MOL0     C14401   3.483   4.840   0.890  0.2448  0.3715  0.1064
  848MOL0     C14402   3.571   4.891   0.790 -0.0668  0.2490  0.9963
  848MOL0     C14403   3.682   4.963   0.822 -0.0827 -0.1512  0.6328
  848MOL0     O14404   3.762   4.987   0.716 -0.2752 -0.3710 -0.4174
  848MOL0     C14405   3.898   5.031   0.739  0.8168  0.1237  1.0765
  848MOL0     C14406   3.982   5.060   0.609 -0.9118  0.1802  0.1013
  848MOL0     C14407   3.923   5.153   0.519  0.6678 -0.1988  0.1453
  848MOL0     C14408   3.986   5.155   0.380  0.2911  0.0302  0.3981
  848MOL0     C14409   3.922   5.243   0.283  0.3180  1.0552  0.0190
  848MOL0     C14410   3.874   5.323   0.209 -0.3341  0.0077  0.0781
  848MOL0     C14411   3.694   4.988   0.959  0.1182 -0.4490 -0.1405
  848MOL0     C14412   3.606   4.941   1.058 -0.3566  0.8355 -0.2255
  848MOL0     H14413   3.151   4.983   1.193  0.1525  1.1158  1.0947
  848MOL0     H14414   2.931   4.985   1.302  2.7202  1.2826 -1.1337
  848MOL0     H14415   2.796   4.911   1.484 -1.4011  1.2916 -0.0748
  848MOL0     H14416   2.723   4.934   1.329  1.5017  0.4184 -0.3946
  848MOL0     H14417   2.599   4.829   1.592 -1.6056 -2.0521  0.4203
  848MOL0     H14418   2.550   4.952   1.481  2.0709  1.1501  0.3025
  848MOL0     H14419   2.495   4.769   1.304  4.0021 -3.7160 -1.2536
  848MOL0     H14420   2.523   4.645   1.414  0.8398  0.6131  1.0145
  848MOL0     H14421   2.360   4.744   1.569 -0.0007  0.0317  0.5760
  848MOL0     H14422   2.311   4.867   1.458  0.6606  0.0375 -3.2910
  848MOL0     H14423   2.252   4.710   1.294  3.0802  0.8710  0.3007
  848MOL0     H14424   2.276   4.563   1.387  0.5304  0.0787 -0.3005
  848MOL0     H14425   2.037   4.602   1.407 -0.6266  1.5966 -0.7731
  848MOL0     H14426   2.103   4.686   1.557  0.0659  1.9284  0.1091
  848MOL0     H14427   2.086   4.897   1.462  0.2892  1.0192 -1.9713
  848MOL0     H14428   2.049   4.831   1.301 -1.0990  1.3419  0.0524
  848MOL0     H14429   1.877   4.747   1.522 -0.8580 -1.0061 -0.1308
  848MOL0     H14430   1.842   4.743   1.346 -0.4546  0.3717 -0.2167
  848MOL0     H14431   1.685   4.938   1.254  1.0127 -1.0914  1.0559
  848MOL0     H14432   1.573   5.252   1.364 -0.8386 -0.3749  2.0758
  848MOL0     H14433   1.534   5.129   1.243  0.0483  0.8581 -0.4072
  848MOL0     H14434   1.394   5.140   1.509 -0.2758 -0.2766 -0.3482
  848MOL0     H14435   1.388   5.006   1.387  1.8914 -0.8249 -0.9278
  848MOL0     H14436   1.316   5.172   1.217  0.1929  0.7668 -0.1947
  848MOL0     H14437   1.327   5.297   1.352  1.9821  0.4891 -0.8558
  848MOL0     H14438   1.152   5.166   1.477  1.0606 -0.8812 -0.1607
  848MOL0     H14439   1.167   5.047   1.357  3.6116 -0.0491 -0.0166
  848MOL0     H14440   1.096   5.377   1.493 -0.4451  0.2858 -0.0458
  848MOL0     H14441   0.922   5.655   1.615 -1.0659  0.2264  0.0274
  848MOL0     H14442   0.846   5.522   1.702 -0.3014 -1.4795 -0.9822
  848MOL0     H14443   1.024   5.525   1.667  1.7066  1.2665 -2.4182
  848MOL0     H14444   0.326   5.509   1.577 -2.0029 -0.1286 -2.4102
  848MOL0     H14445   0.166   5.666   1.632  0.0667  2.2451  1.5880
  848MOL0     H14446   0.093   5.915   1.340  2.0208 -0.4204  2.0168
  848MOL0     H14447  -0.015   5.813   1.434 -1.7441  0.5699  0.0010
  848MOL0     H14448  -0.020   6.109   1.420  0.8857  0.1546  1.8417
  848MOL0     H14449  -0.149   5.994   1.362  1.2325 -0.9729  0.2269
  848MOL0     H14450  -0.044   6.029   1.652  0.0678 -2.1743  0.8480
  848MOL0     H14451  -0.193   5.928   1.590 -2.7116  0.9840 -1.7592
  848MOL0     H14452  -0.153   6.236   1.609 -0.8920  0.3572  2.3140
  848MOL0     H14453  -0.302   6.138   1.545 -1.5141 -3.0022  2.1193
  848MOL0     H14454  -0.186   6.159   1.824  0.5412 -0.2477  0.0836
  848MOL0     H14455  -0.323   6.055   1.773  3.7539 -2.7655  0.9544
  848MOL0     H14456  -0.446   6.256   1.706  1.9109  0.8227 -2.4193
  848MOL0     H14457  -0.399   6.264   1.878 -1.1787  0.6632  0.1361
  848MOL0     H14458  -0.261   6.415   1.647 -1.4035 -4.3893 -0.0406
  848MOL0     H14459  -0.218   6.429   1.820  0.7658  1.8147 -0.4343
  848MOL0     H14460  -0.378   6.616   1.757  0.6626 -0.7039  0.8969
  848MOL0     H14461  -0.452   6.505   1.871  1.5502  1.8247  1.6760
  848MOL0     H14462   0.363   5.968   1.383 -3.4412  2.1853  3.1472
  848MOL0     H14463   0.556   5.792   1.353  0.0984 -3.0232 -0.4202
  848MOL0     H14464   0.679   5.426   1.231  0.8093 -0.3803 -0.0646
  848MOL0     H14465   0.845   5.264   1.176 -0.1383 -1.5575  1.3261
  848MOL0     H14466   2.926   4.544   1.256 -0.4917 -0.2837  1.9290
  848MOL0     H14467   3.135   4.567   1.133  0.4797 -0.1602  1.3368
  848MOL0     H14468   3.390   4.789   0.867 -0.0394  0.8976  0.0813
  848MOL0     H14469   3.546   4.886   0.684  0.8382  2.4271  0.6319
  848MOL0     H14470   3.900   5.113   0.812  2.6714 -1.2943  2.7397
  848MOL0     H14471   3.952   4.947   0.784  0.2442 -1.5168 -1.1633
  848MOL0     H14472   3.990   4.964   0.557 -1.4659  0.0070  0.3245
  848MOL0     H14473   4.079   5.103   0.633 -0.6745 -0.0024 -0.5177
  848MOL0     H14474   3.938   5.249   0.569  1.8938  0.8734 -2.1628
  848MOL0     H14475   3.813   5.147   0.519  0.4122 -0.6403  5.5145
  848MOL0     H14476   3.975   5.053   0.341  0.8785  0.1705 -0.1367
  848MOL0     H14477   4.094   5.170   0.387  0.1491  1.6293 -0.3936
  848MOL0     H14478   3.842   5.400   0.142  0.0501  1.2383  1.2833
  848MOL0     H14479   3.774   5.051   0.996  0.0860 -0.7649  0.4965
  848MOL0     H14480   3.631   4.969   1.160  0.7464 -0.1444 -0.1996
  849MOL0     O14481   4.856   4.444   9.116 -0.0857  0.2325 -0.1371
  849MOL0     C14482   4.872   4.538   9.200  0.9060 -0.0218 -0.1802
  849MOL0     O14483   4.786   4.641   9.221  0.2524  0.1609  0.6525
  849MOL0     C14484   4.655   4.632   9.175  0.3515 -1.4648  0.2146
  849MOL0     C14485   4.581   4.745   9.147 -1.0718  0.0485  0.1476
  849MOL0     C14486   4.448   4.740   9.120  0.7727  0.3758 -0.5602
  849MOL0     C14487   4.374   4.614   9.131 -0.5730 -0.7152 -0.7020
  849MOL0     O14488   4.241   4.610   9.104 -0.1793  0.1842  0.6894
  849MOL0     C14489   4.170   4.697   9.195  0.0015  0.3332 -0.9592
  849MOL0     C14490   4.023   4.666   9.158  1.2646 -0.8151  0.1289
  849MOL0     C14491   3.929   4.767   9.218 -0.6437  0.1278 -0.0078
  849MOL0     C14492   3.781   4.734   9.175 -0.1388 -0.0236 -1.2370
  849MOL0     C14493   3.685   4.801   9.267 -0.3614 -0.4110 -0.6874
  849MOL0     C14494   3.547   4.735   9.256 -0.0485  0.0604 -0.2782
  849MOL0     C14495   3.437   4.818   9.326  0.7129 -0.3706  0.2450
  849MOL0     C14496   3.311   4.796   9.256 -0.1363  0.5472  0.5457
  849MOL0     N14497   3.196   4.850   9.333 -0.2637 -0.5939  0.2025
  849MOL0     C14498   3.123   4.778   9.419  0.2904  0.6824  0.5601
  849MOL0     C14499   3.028   4.858   9.463  0.2715  0.5608 -0.4371
  849MOL0     C14500   2.953   4.827   9.591 -0.0136 -0.0529  0.5933
  849MOL0     C14501   2.806   4.871   9.595  0.2300 -0.0603  0.5847
  849MOL0     C14502   2.757   4.916   9.729 -0.2408  0.6008  0.4020
  849MOL0     C14503   2.626   4.978   9.717  0.4143 -0.0751  0.5183
  849MOL0     O14504   2.587   4.991   9.853 -0.9336  0.1345  0.0684
  849MOL0     C14505   2.458   5.022   9.881 -0.7262 -0.6418 -1.0856
  849MOL0     C14506   2.405   4.992  10.009 -0.2284  1.3039 -0.1991
  849MOL0     C14507   2.267   5.004  10.034 -0.1108  0.0826  0.2593
  849MOL0     C14508   2.218   4.944  10.160 -0.0135 -0.0326 -0.3646
  849MOL0     C14509   2.176   5.052   9.928 -0.0001  0.4475  0.6118
  849MOL0     C14510   2.027   5.070   9.937 -0.4971 -0.6010 -0.8067
  849MOL0     O14511   1.971   5.072  10.065  0.1338  0.1017  0.0381
  849MOL0     C14512   1.846   5.115  10.079  0.4295 -0.2985 -0.3423
  849MOL0     C14513   1.841   5.250  10.120  0.0049 -0.4966  0.5976
  849MOL0     C14514   1.719   5.318  10.142  0.3557 -0.3630  0.0252
  849MOL0     C14515   1.592   5.256  10.122 -0.8193  0.2268 -0.1313
  849MOL0     O14516   1.474   5.317  10.142  0.3226  0.5602 -0.2845
  849MOL0     C14517   1.349   5.247  10.159  0.3735  0.1880  0.2096
  849MOL0     C14518   1.237   5.340  10.125  0.3181  0.0475  0.1204
  849MOL0     C14519   1.097   5.277  10.114  0.0827  0.6321 -0.6774
  849MOL0     C14520   1.061   5.211  10.249  0.9552 -0.2468  0.1921
  849MOL0     C14521   0.914   5.156  10.241 -0.4797  0.2574 -0.7118
  849MOL0     C14522   0.801   5.265  10.251 -1.0473 -0.4828  0.6565
  849MOL0     C14523   0.676   5.193  10.279  0.5029  1.4036  0.4910
  849MOL0     C14524   0.555   5.269  10.228  0.0427  0.0140  0.6683
  849MOL0    Cl14525   0.416   5.166  10.247  0.0584 -0.0720  0.1381
  849MOL0     C14526   1.601   5.128  10.078 -0.4468  0.6195  0.0018
  849MOL0     C14527   1.720   5.053  10.059 -0.5090 -0.3779  0.3085
  849MOL0     O14528   1.968   5.070   9.833 -0.3144  0.3910 -0.1584
  849MOL0     C14529   2.234   5.082   9.802 -0.2804  0.6353  0.1743
  849MOL0     C14530   2.371   5.068   9.783 -0.4836 -0.1229  0.2486
  849MOL0     N14531   3.031   4.979   9.397  0.1176  0.6848  0.0813
  849MOL0     N14532   3.132   4.972   9.321 -0.3824 -0.0794 -0.0497
  849MOL0     C14533   4.452   4.504   9.167  0.3014 -0.7092  0.2340
  849MOL0     C14534   4.588   4.517   9.200  0.2941 -0.2734 -0.7379
  849MOL0     C14535   4.999   4.534   9.281 -0.6882  0.2778 -0.2444
  849MOL0     C14536   5.022   4.632   9.372  0.1442  0.4135  0.3596
  849MOL0     C14537   5.139   4.638   9.445  0.0406 -0.3257  0.9220
  849MOL0     C14538   5.236   4.544   9.428  0.1906 -0.5302  0.9320
  849MOL0     O14539   5.341   4.526   9.505 -0.1929  0.1928  0.1616
  849MOL0     C14540   5.351   4.604   9.623 -0.5395 -0.3608  0.2495
  849MOL0     C14541   5.424   4.542   9.736 -0.1792 -0.3984  0.2052
  849MOL0     C14542   5.422   4.643   9.841 -0.4691  0.4885 -0.5135
  849MOL0     C14543   5.465   4.585   9.982  0.2995  0.4045  0.4696
  849MOL0     C14544   5.473   4.694  10.077 -0.1888 -0.3057 -0.4854
  849MOL0     C14545   5.470   4.778  10.169 -0.1269 -1.1774  0.8508
  849MOL0     C14546   5.212   4.435   9.336  0.3248  0.0251  0.3399
  849MOL0     C14547   5.098   4.431   9.260 -0.3942  0.1110 -0.7836
  849MOL0     H14548   4.623   4.846   9.143 -1.4934  0.3457  2.1488
  849MOL0     H14549   4.391   4.829   9.098 -1.1815 -0.2640  1.5867
  849MOL0     H14550   4.189   4.673   9.300  0.2774 -2.1064 -1.5077
  849MOL0     H14551   4.194   4.802   9.179 -0.4533  0.4141 -1.1261
  849MOL0     H14552   4.024   4.681   9.050 -0.4834 -0.4381  0.1419
  849MOL0     H14553   3.985   4.565   9.175  0.2371 -0.5331 -0.4605
  849MOL0     H14554   3.933   4.746   9.326  1.7633 -0.1094 -0.0834
  849MOL0     H14555   3.968   4.867   9.196  1.5940 -0.6696  0.0750
  849MOL0     H14556   3.754   4.765   9.074  0.5070  0.1763 -1.3525
  849MOL0     H14557   3.770   4.628   9.199 -0.7085  0.0862 -1.0056
  849MOL0     H14558   3.712   4.782   9.371 -0.6664 -0.2414 -0.5759
  849MOL0     H14559   3.679   4.909   9.254  1.4201 -0.4123 -1.7951
  849MOL0     H14560   3.524   4.727   9.149  0.0635 -0.3815 -0.2717
  849MOL0     H14561   3.551   4.638   9.305 -4.2958  0.6242  1.6452
  849MOL0     H14562   3.437   4.785   9.430  2.0323  0.0271  0.3829
  849MOL0     H14563   3.455   4.925   9.335  1.9305 -0.3617 -1.7629
  849MOL0     H14564   3.291   4.690   9.242 -0.3135  0.7871 -1.1773
  849MOL0     H14565   3.328   4.845   9.160  2.1702 -3.1042 -1.0878
  849MOL0     H14566   3.150   4.682   9.463 -0.8919 -1.0978 -2.3230
  849MOL0     H14567   2.961   4.720   9.614  1.2488 -0.2122 -0.4476
  849MOL0     H14568   3.003   4.880   9.673  0.0464 -1.1829  1.3141
  849MOL0     H14569   2.742   4.786   9.571  0.9609 -0.6120  0.5616
  849MOL0     H14570   2.785   4.947   9.519 -1.2050 -1.0719 -0.0799
  849MOL0     H14571   2.818   5.000   9.765 -1.0064  1.1368  0.4743
  849MOL0     H14572   2.776   4.832   9.797  4.2014  0.9580 -0.0892
  849MOL0     H14573   2.555   4.912   9.666 -2.2143  2.2543  0.9732
  849MOL0     H14574   2.626   5.073   9.664  0.7543 -0.0490  0.5645
  849MOL0     H14575   2.480   4.969  10.084 -0.3443 -0.4480 -0.5811
  849MOL0     H14576   2.163   5.018  10.217  1.1404 -1.2438  2.4891
  849MOL0     H14577   2.152   4.862  10.128 -1.3582  1.5396 -1.8015
  849MOL0     H14578   2.304   4.909  10.218 -0.7377 -0.2028  0.6191
  849MOL0     H14579   1.937   5.298  10.137 -0.7519  0.3277  2.7994
  849MOL0     H14580   1.714   5.421  10.174  0.8004 -0.3557  0.0827
  849MOL0     H14581   1.320   5.168  10.089 -0.5554 -0.0468  0.8393
  849MOL0     H14582   1.349   5.202  10.258 -1.3612 -0.4256 -0.0185
  849MOL0     H14583   1.227   5.420  10.200 -0.7195  0.7185 -0.6958
  849MOL0     H14584   1.269   5.384  10.031  1.3796 -0.6152  0.1673
  849MOL0     H14585   1.111   5.192  10.046  1.2422 -0.8809  1.3240
  849MOL0     H14586   1.014   5.340  10.082 -1.5618 -1.2880 -0.4071
  849MOL0     H14587   1.133   5.129  10.261  1.8601  0.6599  1.2212
  849MOL0     H14588   1.079   5.276  10.335 -1.0175 -3.1655  3.0683
  849MOL0     H14589   0.891   5.081  10.318 -1.8416  2.1027  0.7506
  849MOL0     H14590   0.895   5.099  10.149  1.5621  0.0457 -1.0535
  849MOL0     H14591   0.815   5.338  10.331 -0.7069  1.3343 -0.9901
  849MOL0     H14592   0.781   5.314  10.156 -2.7733 -2.7534 -0.2435
  849MOL0     H14593   0.657   5.166  10.383 -0.9501 -0.0178 -0.0920
  849MOL0     H14594   0.673   5.095  10.230  1.3131  1.2953  0.6518
  849MOL0     H14595   0.573   5.291  10.123  0.1724  0.1640  0.7220
  849MOL0     H14596   0.545   5.365  10.279  3.0336  1.4578 -1.1858
  849MOL0     H14597   1.514   5.073  10.041  0.5384 -1.3225  0.4242
  849MOL0     H14598   1.722   4.956  10.010  2.9641  0.2161 -1.0065
  849MOL0     H14599   2.162   5.105   9.724 -2.3787 -1.0087  1.5099
  849MOL0     H14600   2.420   5.089   9.689  0.3235 -0.1382  0.6523
  849MOL0     H14601   4.395   4.416   9.195 -0.5387 -0.1005  0.4900
  849MOL0     H14602   4.652   4.439   9.240  0.0772 -0.5607 -0.9449
  849MOL0     H14603   4.947   4.707   9.389 -1.2510 -0.9337  0.3765
  849MOL0     H14604   5.146   4.719   9.517  0.3962 -0.7466  1.3688
  849MOL0     H14605   5.405   4.697   9.605  2.3761 -2.0953 -0.6360
  849MOL0     H14606   5.250   4.613   9.664 -1.3285 -1.1925 -1.3809
  849MOL0     H14607   5.528   4.521   9.712 -0.6179 -0.2636 -2.0722
  849MOL0     H14608   5.376   4.452   9.775 -3.0275  0.5079 -0.8887
  849MOL0     H14609   5.327   4.697   9.845 -0.8313  0.1459 -3.0801
  849MOL0     H14610   5.497   4.714   9.804 -2.2449  1.8472 -1.6438
  849MOL0     H14611   5.557   4.528   9.969  0.4290  0.1984  2.1561
  849MOL0     H14612   5.389   4.514  10.016 -1.0345  1.8342  0.6094
  849MOL0     H14613   5.455   4.848  10.249  2.2798  1.7818 -1.0800
  849MOL0     H14614   5.288   4.358   9.335 -1.6063 -2.0393  1.7658
  849MOL0     H14615   5.086   4.344   9.196 -0.6165 -0.2643 -0.2372
  850MOL0     O14616   9.425   1.766   5.430  0.3583  0.4609 -0.0051
  850MOL0     C14617   9.504   1.798   5.341  1.0016 -0.5823  0.9007
  850MOL0     O14618   9.485   1.779   5.204 -0.3811 -0.0345  0.7063
  850MOL0     C14619   9.374   1.706   5.161 -0.4185  0.8114 -0.1864
  850MOL0     C14620   9.244   1.751   5.201 -0.7700 -0.1014  0.4484
  850MOL0     C14621   9.133   1.709   5.134  0.2840  0.3145  0.1586
  850MOL0     C14622   9.149   1.612   5.023  0.1714 -0.3828 -0.5454
  850MOL0     O14623   9.040   1.564   4.951 -0.1155  0.4151 -0.0384
  850MOL0     C14624   8.904   1.614   4.970 -0.2470 -0.0752 -0.6489
  850MOL0     C14625   8.811   1.570   4.858 -0.0370  0.1068  0.0224
  850MOL0     C14626   8.676   1.630   4.871  1.1293 -0.4892 -0.4539
  850MOL0     C14627   8.588   1.624   4.741 -0.7624  0.8258 -0.4148
  850MOL0     C14628   8.460   1.708   4.770  0.5549 -0.7208  0.1161
  850MOL0     C14629   8.387   1.737   4.641  0.3060 -0.1951 -0.1553
  850MOL0     C14630   8.233   1.757   4.647  0.2612 -0.3120 -0.2280
  850MOL0     C14631   8.191   1.896   4.701  0.2568 -0.2616  0.8812
  850MOL0     N14632   8.046   1.890   4.713 -0.3945 -0.2261  0.2223
  850MOL0     C14633   7.979   1.797   4.789  0.3976  0.4719 -0.5179
  850MOL0     C14634   7.849   1.791   4.734  0.5380  0.2328 -1.0185
  850MOL0     C14635   7.730   1.715   4.780 -0.7053  0.7820  0.3887
  850MOL0     C14636   7.639   1.688   4.663  0.0684  0.1258  0.3602
  850MOL0     C14637   7.506   1.633   4.705  0.1756  0.3443 -0.1311
  850MOL0     C14638   7.399   1.739   4.729  0.2997 -0.4738  0.1128
  850MOL0     O14639   7.280   1.674   4.785 -0.0391  0.3387  0.2858
  850MOL0     C14640   7.178   1.753   4.834 -0.0960 -0.6642  0.3670
  850MOL0     C14641   7.054   1.681   4.859 -0.1862 -0.4367 -1.2272
  850MOL0     C14642   6.937   1.753   4.903 -0.4924  0.6206 -0.0746
  850MOL0     C14643   6.818   1.664   4.932  0.6302  0.0014  0.4983
  850MOL0     C14644   6.937   1.894   4.901  0.7660 -0.1195 -0.1654
  850MOL0     C14645   6.813   1.977   4.935  0.3094  0.2690 -0.3498
  850MOL0     O14646   6.829   2.115   4.928 -0.2911 -0.0065  0.4701
  850MOL0     C14647   6.718   2.188   4.952  0.3021 -0.4797  0.1068
  850MOL0     C14648   6.639   2.229   4.848  1.0901 -0.4226  0.3728
  850MOL0     C14649   6.533   2.327   4.877  0.2100 -0.1456 -0.3458
  850MOL0     C14650   6.500   2.371   5.004  0.8410 -0.0372  0.0232
  850MOL0     O14651   6.407   2.468   5.031  0.7427  0.0847  0.2866
  850MOL0     C14652   6.315   2.491   4.919 -1.1994 -0.0044 -0.4419
  850MOL0     C14653   6.203   2.577   4.977  0.1252 -0.2033  0.0237
  850MOL0     C14654   6.110   2.620   4.858 -0.0785  0.8524 -1.3857
  850MOL0     C14655   5.976   2.673   4.908  0.0769 -0.3002 -0.5464
  850MOL0     C14656   5.866   2.708   4.805 -0.6214 -0.0175  0.0358
  850MOL0     C14657   5.807   2.846   4.836  0.0705  0.3397 -0.5368
  850MOL0     C14658   5.701   2.827   4.942  0.3851  0.0612 -0.5522
  850MOL0     C14659   5.609   2.943   4.956 -0.6113 -0.5304 -0.2859
  850MOL0    Cl14660   5.706   3.097   4.998 -0.1565 -0.1265 -0.1388
  850MOL0     C14661   6.584   2.323   5.110 -0.4815  0.3362 -0.3920
  850MOL0     C14662   6.692   2.235   5.083 -0.2925  0.1243 -0.5123
  850MOL0     O14663   6.700   1.921   4.944  0.6699 -0.1395  0.4204
  850MOL0     C14664   7.056   1.957   4.871 -0.3786 -0.2683 -0.2542
  850MOL0     C14665   7.181   1.891   4.846  0.4880  0.1191 -0.0766
  850MOL0     N14666   7.843   1.899   4.645  1.2349 -0.2955  0.5613
  850MOL0     N14667   7.959   1.948   4.632 -0.0734 -0.7498 -0.5734
  850MOL0     C14668   9.278   1.561   4.992  0.5736 -0.1973  0.3258
  850MOL0     C14669   9.387   1.612   5.061 -0.2794 -0.4350 -0.4622
  850MOL0     C14670   9.636   1.856   5.381  0.2376 -0.2588 -0.1516
  850MOL0     C14671   9.653   1.913   5.509 -0.3664  0.4470  0.4214
  850MOL0     C14672   9.780   1.965   5.543  1.6153 -0.3218 -0.7562
  850MOL0     C14673   9.884   1.945   5.454  0.3541 -0.4405 -0.2472
  850MOL0     O14674  10.004   1.995   5.495 -0.0751  0.4751 -0.9998
  850MOL0     C14675  10.099   2.063   5.413 -0.4129  0.4703  0.9279
  850MOL0     C14676  10.218   1.975   5.383 -0.2600  0.3910 -0.3573
  850MOL0     C14677  10.299   1.947   5.514 -0.2480  0.4884 -0.1341
  850MOL0     C14678  10.423   1.863   5.482  0.1971  0.0112 -0.5933
  850MOL0     C14679  10.404   1.740   5.406 -0.0018  0.5731  0.3791
  850MOL0     C14680  10.389   1.636   5.340 -0.2330  0.5055  0.5310
  850MOL0     C14681   9.873   1.880   5.332 -0.2535  0.4112  0.4885
  850MOL0     C14682   9.747   1.835   5.292  0.7936  0.6681  0.8137
  850MOL0     H14683   9.234   1.828   5.277 -0.1041 -0.0870  0.5288
  850MOL0     H14684   9.040   1.760   5.155  1.2923  2.6782 -0.7462
  850MOL0     H14685   8.866   1.584   5.068  0.7671  2.3062  0.5749
  850MOL0     H14686   8.901   1.724   4.966 -1.0065 -0.1132 -1.7118
  850MOL0     H14687   8.850   1.589   4.758  0.5086 -1.6993 -0.1616
  850MOL0     H14688   8.804   1.460   4.861  0.8637  0.0620  1.0295
  850MOL0     H14689   8.628   1.590   4.961  3.0791 -0.9974  0.4048
  850MOL0     H14690   8.698   1.737   4.868  0.9268 -0.4450 -3.1754
  850MOL0     H14691   8.645   1.657   4.654  0.2996 -1.1262 -0.5142
  850MOL0     H14692   8.555   1.522   4.720 -0.3064  0.8984 -1.5753
  850MOL0     H14693   8.386   1.651   4.828 -0.3859  0.1640 -0.1775
  850MOL0     H14694   8.479   1.806   4.814  1.0864 -1.5670  1.8506
  850MOL0     H14695   8.435   1.810   4.575 -2.8098 -0.8935 -3.5448
  850MOL0     H14696   8.404   1.641   4.590 -0.2397 -0.3490 -0.0537
  850MOL0     H14697   8.196   1.749   4.545 -0.2536  0.0492 -0.0743
  850MOL0     H14698   8.191   1.680   4.713  1.1023  1.1964  2.1930
  850MOL0     H14699   8.222   1.973   4.630  0.8187 -0.0074  1.3860
  850MOL0     H14700   8.226   1.928   4.800  0.2157  3.5279 -0.1829
  850MOL0     H14701   8.017   1.728   4.863 -0.6176  0.9686  0.5099
  850MOL0     H14702   7.750   1.620   4.831 -0.8282 -0.6913 -2.1496
  850MOL0     H14703   7.683   1.783   4.852  1.4895  3.1071 -0.2463
  850MOL0     H14704   7.674   1.620   4.585  1.3771  1.3415 -0.1579
  850MOL0     H14705   7.627   1.781   4.606 -1.7529 -1.0683 -1.3512
  850MOL0     H14706   7.519   1.576   4.798 -0.7151 -0.9440 -0.7724
  850MOL0     H14707   7.474   1.562   4.629 -1.0630 -1.8221  2.2932
  850MOL0     H14708   7.379   1.793   4.636  3.3277  0.9964  0.2074
  850MOL0     H14709   7.442   1.814   4.796  1.8502 -1.3751  0.1655
  850MOL0     H14710   7.052   1.574   4.842  2.3240 -0.5683 -1.1245
  850MOL0     H14711   6.743   1.671   4.852  0.6580 -1.6799  0.3080
  850MOL0     H14712   6.836   1.557   4.932 -2.4422 -0.6413 -1.2056
  850MOL0     H14713   6.778   1.694   5.030  1.3729 -1.8911  1.4231
  850MOL0     H14714   6.638   2.204   4.742  0.8048  2.1027 -0.2804
  850MOL0     H14715   6.482   2.368   4.791 -3.8662  1.5475  2.5665
  850MOL0     H14716   6.373   2.543   4.842 -2.3707  3.3163  0.7278
  850MOL0     H14717   6.274   2.395   4.888  1.3031 -1.5245  0.6638
  850MOL0     H14718   6.154   2.514   5.052  0.2137 -1.2752 -0.7953
  850MOL0     H14719   6.245   2.667   5.022  0.3952 -1.1146  1.6685
  850MOL0     H14720   6.093   2.532   4.794  2.1358 -0.6688 -0.0272
  850MOL0     H14721   6.160   2.694   4.795  2.4318 -1.7990 -2.7507
  850MOL0     H14722   5.934   2.605   4.983 -1.0687  0.1157 -0.7778
  850MOL0     H14723   6.013   2.760   4.963 -1.2990 -0.0447  0.0247
  850MOL0     H14724   5.795   2.626   4.818  0.6274 -0.8345  2.4019
  850MOL0     H14725   5.912   2.720   4.707  1.8339  1.9478  1.3133
  850MOL0     H14726   5.887   2.910   4.873  0.0423 -1.2563  2.5670
  850MOL0     H14727   5.765   2.892   4.745 -2.9782 -0.6727  0.2183
  850MOL0     H14728   5.750   2.808   5.037 -0.2802  0.9921 -0.0019
  850MOL0     H14729   5.643   2.739   4.915  3.0160 -2.4724  1.5299
  850MOL0     H14730   5.533   2.929   5.034 -0.5469  0.5941 -0.0003
  850MOL0     H14731   5.553   2.945   4.862 -1.5927 -3.2061  0.1647
  850MOL0     H14732   6.566   2.357   5.212  0.9445 -0.0107 -0.0086
  850MOL0     H14733   6.757   2.205   5.165  1.1251  1.4995 -1.0688
  850MOL0     H14734   7.063   2.065   4.881  0.4784 -0.3371 -0.0171
  850MOL0     H14735   7.265   1.958   4.832  1.9792 -1.6556 -0.0213
  850MOL0     H14736   9.299   1.490   4.913 -2.0930 -1.7162  0.8437
  850MOL0     H14737   9.490   1.590   5.034  0.5468  2.8208 -0.2734
  850MOL0     H14738   9.576   1.929   5.584 -0.3187  0.9954  0.3562
  850MOL0     H14739   9.800   2.017   5.636 -2.2789  1.1316 -0.5154
  850MOL0     H14740  10.062   2.095   5.315  0.5668 -0.8717  0.0945
  850MOL0     H14741  10.127   2.152   5.470  0.2497  0.6783  0.2934
  850MOL0     H14742  10.273   2.028   5.304 -2.3474 -0.3330 -2.4309
  850MOL0     H14743  10.197   1.881   5.331  2.6265 -0.1319 -0.7452
  850MOL0     H14744  10.232   1.893   5.581 -1.3489 -0.3076 -1.8096
  850MOL0     H14745  10.317   2.049   5.550 -0.4748  0.5712 -0.2525
  850MOL0     H14746  10.468   1.840   5.579  2.9193 -0.4340 -1.8462
  850MOL0     H14747  10.493   1.932   5.433  1.1045  0.9435  1.8504
  850MOL0     H14748  10.390   1.545   5.284  0.2441  0.7339  0.1571
  850MOL0     H14749   9.959   1.858   5.270  1.1652  0.9618  2.1685
  850MOL0     H14750   9.741   1.778   5.199  1.8032  0.2812  0.9687
  851MOL0     O14751   8.668   3.593   0.818 -0.6983  0.4257  0.5717
  851MOL0     C14752   8.710   3.552   0.709  0.5573  0.0371  0.0665
  851MOL0     O14753   8.625   3.531   0.603  0.0967 -0.4266  0.1474
  851MOL0     C14754   8.490   3.565   0.614  0.0339 -0.2470  0.4125
  851MOL0     C14755   8.398   3.469   0.565  0.5147  0.2173  0.3598
  851MOL0     C14756   8.264   3.489   0.552  0.1117 -0.2004  0.7747
  851MOL0     C14757   8.205   3.618   0.577  0.0024 -0.1576 -0.1707
  851MOL0     O14758   8.079   3.672   0.572  0.2028  0.0923 -0.2424
  851MOL0     C14759   7.965   3.588   0.572 -0.3879 -0.1771 -0.2845
  851MOL0     C14760   7.843   3.644   0.494  0.3614 -0.8130  0.3438
  851MOL0     C14761   7.797   3.782   0.537  0.5450  0.2851  0.2848
  851MOL0     C14762   7.642   3.804   0.514 -0.6285 -0.2343  0.2624
  851MOL0     C14763   7.611   3.795   0.362  0.2057 -0.2667  0.0421
  851MOL0     C14764   7.476   3.853   0.326  0.2086 -0.7654  0.3149
  851MOL0     C14765   7.421   3.817   0.188 -0.8789  0.4294  0.5895
  851MOL0     C14766   7.273   3.861   0.174  0.4190  0.4227 -0.0992
  851MOL0     N14767   7.250   4.008   0.203 -0.5292  0.1846 -0.1860
  851MOL0     C14768   7.226   4.097   0.100 -0.4170 -1.1118 -0.1199
  851MOL0     C14769   7.227   4.215   0.172  0.2288 -0.3195  0.7308
  851MOL0     C14770   7.246   4.340   0.088 -0.1942  0.0232  0.1859
  851MOL0     C14771   7.254   4.461   0.182 -0.4427 -0.4409 -0.0733
  851MOL0     C14772   7.296   4.596   0.125 -0.7308  0.3066 -0.3771
  851MOL0     C14773   7.214   4.645   0.005 -1.2997 -0.7526 -0.5578
  851MOL0     O14774   7.083   4.691   0.041  0.0992  0.2067 -0.0189
  851MOL0     C14775   6.978   4.639  -0.031 -0.8112 -1.0914  0.0099
  851MOL0     C14776   6.925   4.512  -0.010  0.0860  0.5082  0.4450
  851MOL0     C14777   6.809   4.463  -0.064 -0.8901  0.5928  0.4823
  851MOL0     C14778   6.772   4.323  -0.015 -0.2841 -0.2818 -0.3088
  851MOL0     C14779   6.736   4.546  -0.147 -0.1318  0.8917 -0.4168
  851MOL0     C14780   6.597   4.509  -0.199  0.6767 -0.2549  0.0900
  851MOL0     O14781   6.542   4.380  -0.179 -0.0993  0.5686 -0.4603
  851MOL0     C14782   6.412   4.358  -0.227 -0.3191  0.7800 -0.2267
  851MOL0     C14783   6.312   4.452  -0.208  0.1935  0.3532  0.8234
  851MOL0     C14784   6.175   4.417  -0.228 -0.3170 -0.2187 -0.3074
  851MOL0     C14785   6.134   4.293  -0.273 -0.9800  0.0437  0.3420
  851MOL0     O14786   6.000   4.264  -0.286  0.3498 -0.2292  0.2673
  851MOL0     C14787   5.970   4.132  -0.328 -0.4277  0.8793 -0.0531
  851MOL0     C14788   5.815   4.128  -0.334 -1.1008  0.2673  0.3087
  851MOL0     C14789   5.762   3.987  -0.370  1.5889  0.2122  0.3276
  851MOL0     C14790   5.606   3.995  -0.355  0.5043 -0.3122 -0.1291
  851MOL0     C14791   5.545   3.851  -0.362  0.0869 -0.3279 -0.0214
  851MOL0     C14792   5.396   3.865  -0.371  0.4177  0.2567  0.6225
  851MOL0     C14793   5.334   3.720  -0.385  0.1873 -0.2539 -0.1637
  851MOL0     C14794   5.187   3.721  -0.439 -0.5458  0.7331  0.0335
  851MOL0    Cl14795   5.051   3.736  -0.310 -0.0564 -0.3864 -0.1200
  851MOL0     C14796   6.247   4.201  -0.295 -0.0596 -0.0190  0.1871
  851MOL0     C14797   6.376   4.229  -0.274  0.0536  0.5976 -0.1837
  851MOL0     O14798   6.538   4.591  -0.269 -0.3443 -0.8857 -0.8998
  851MOL0     C14799   6.792   4.673  -0.178  0.5270  0.5189 -0.2064
  851MOL0     C14800   6.911   4.718  -0.120 -0.1231 -0.4072 -0.2522
  851MOL0     N14801   7.235   4.196   0.307 -0.6043 -0.2496  0.0012
  851MOL0     N14802   7.247   4.072   0.327 -1.1560 -0.3171  0.3126
  851MOL0     C14803   8.290   3.706   0.632 -1.2536  1.2647  0.2072
  851MOL0     C14804   8.427   3.680   0.652  0.1747  0.1433 -0.1516
  851MOL0     C14805   8.851   3.544   0.688 -0.0720 -0.3188  0.1734
  851MOL0     C14806   8.950   3.555   0.785 -0.4654  0.7845 -0.4893
  851MOL0     C14807   9.087   3.532   0.742  0.1967  0.2425 -0.7107
  851MOL0     C14808   9.127   3.508   0.608  0.2266 -0.1361 -0.4078
  851MOL0     O14809   9.250   3.512   0.565 -0.0427  0.3856  0.4637
  851MOL0     C14810   9.343   3.422   0.632 -0.7008  0.7744 -0.5169
  851MOL0     C14811   9.420   3.344   0.530  0.0308 -0.7840  0.0930
  851MOL0     C14812   9.540   3.272   0.584 -0.4524 -0.0308  0.9392
  851MOL0     C14813   9.500   3.162   0.677 -0.4763  0.3250  0.2397
  851MOL0     C14814   9.616   3.081   0.725 -0.7197  0.0034  0.8030
  851MOL0     C14815   9.722   3.027   0.770  0.3250  0.3405 -0.4395
  851MOL0     C14816   9.030   3.487   0.521  0.7003  0.3282  0.1764
  851MOL0     C14817   8.896   3.504   0.561  0.2306 -0.1363  0.8578
  851MOL0     H14818   8.432   3.384   0.507 -3.1514  0.7380 -2.9746
  851MOL0     H14819   8.209   3.408   0.505 -0.9599  1.4288 -0.9262
  851MOL0     H14820   7.979   3.490   0.526 -0.8709  0.1423 -1.1336
  851MOL0     H14821   7.936   3.571   0.676  1.9901 -2.6818  0.0708
  851MOL0     H14822   7.860   3.644   0.386 -2.3485  1.2652 -0.1938
  851MOL0     H14823   7.761   3.577   0.520  0.0506  0.8680  4.4345
  851MOL0     H14824   7.822   3.807   0.641  0.8519  0.0970  0.2596
  851MOL0     H14825   7.847   3.857   0.475 -0.0357  1.2670  0.9736
  851MOL0     H14826   7.592   3.723   0.568 -0.7405  1.2938  2.5906
  851MOL0     H14827   7.610   3.898   0.558  2.2667  1.3587 -0.7541
  851MOL0     H14828   7.684   3.841   0.295 -1.4491 -2.8281 -3.9202
  851MOL0     H14829   7.608   3.688   0.337 -0.5789 -0.0005 -1.0712
  851MOL0     H14830   7.407   3.827   0.407 -0.3705  0.0443  0.0891
  851MOL0     H14831   7.487   3.962   0.326  1.4997 -0.8636  1.1245
  851MOL0     H14832   7.478   3.878   0.118 -1.6489  0.9568  0.4037
  851MOL0     H14833   7.425   3.710   0.163 -0.6218 -0.1177  2.7793
  851MOL0     H14834   7.218   3.804   0.249 -0.7837  1.3417 -0.2553
  851MOL0     H14835   7.227   3.842   0.077 -1.6066  0.1940  0.8491
  851MOL0     H14836   7.225   4.078  -0.007 -1.5834  0.0244 -0.3432
  851MOL0     H14837   7.330   4.335   0.018 -1.5170 -2.8746 -1.3667
  851MOL0     H14838   7.163   4.359   0.019  0.0841  0.2653 -0.0848
  851MOL0     H14839   7.330   4.429   0.253  1.6073 -3.3528 -3.2467
  851MOL0     H14840   7.163   4.490   0.236  1.9901  0.5111  3.8965
  851MOL0     H14841   7.401   4.599   0.097 -0.5749  2.5906  0.2172
  851MOL0     H14842   7.286   4.659   0.214  1.7872  0.0107  0.1801
  851MOL0     H14843   7.215   4.573  -0.076  1.7025 -1.7621  0.2627
  851MOL0     H14844   7.275   4.731  -0.025 -1.9018 -0.7072 -1.6767
  851MOL0     H14845   6.991   4.462   0.060  1.4835  0.1306 -1.0981
  851MOL0     H14846   6.668   4.308   0.015  0.3980 -1.6996  1.5642
  851MOL0     H14847   6.811   4.249  -0.085 -2.0040 -2.8919  1.3000
  851MOL0     H14848   6.818   4.302   0.082 -0.8998 -0.9346 -0.1505
  851MOL0     H14849   6.334   4.546  -0.158 -0.6182  0.7586  0.4425
  851MOL0     H14850   6.101   4.489  -0.192 -0.6741  0.0726 -1.5933
  851MOL0     H14851   6.010   4.122  -0.429  0.1025 -0.5240  0.2710
  851MOL0     H14852   6.007   4.049  -0.266  0.6338  0.8967 -0.6488
  851MOL0     H14853   5.776   4.149  -0.234 -0.1403  2.6191  0.2365
  851MOL0     H14854   5.776   4.202  -0.404 -0.3229 -2.1698 -2.9112
  851MOL0     H14855   5.799   3.909  -0.304  0.1449 -0.4015  0.4544
  851MOL0     H14856   5.784   3.955  -0.473 -2.1602 -2.6875  0.2197
  851MOL0     H14857   5.576   4.033  -0.257 -1.5475  0.2127 -0.9157
  851MOL0     H14858   5.573   4.051  -0.443  2.8858  1.4077 -0.0333
  851MOL0     H14859   5.581   3.807  -0.269  3.2856  2.8216  0.4142
  851MOL0     H14860   5.588   3.796  -0.447  0.2402 -0.0570 -0.1186
  851MOL0     H14861   5.355   3.927  -0.291 -1.0459  1.1877 -0.7911
  851MOL0     H14862   5.387   3.929  -0.459  0.5917  0.4015  0.7096
  851MOL0     H14863   5.338   3.660  -0.293 -2.2159  0.2603  0.3397
  851MOL0     H14864   5.385   3.685  -0.475 -1.7825 -0.3407 -1.3033
  851MOL0     H14865   5.179   3.626  -0.493 -0.0494  0.0431  1.1183
  851MOL0     H14866   5.163   3.795  -0.516  0.4954 -2.0575 -3.2213
  851MOL0     H14867   6.220   4.101  -0.330  2.4516 -1.3001  1.6248
  851MOL0     H14868   6.449   4.149  -0.278  0.8067  1.1836  1.4401
  851MOL0     H14869   6.754   4.739  -0.255 -2.8368 -1.5202 -0.4972
  851MOL0     H14870   6.925   4.824  -0.141  0.4918 -0.9281 -2.7480
  851MOL0     H14871   8.267   3.801   0.678 -0.4565  0.5071  2.2781
  851MOL0     H14872   8.491   3.750   0.705  0.8522  1.0068 -2.0324
  851MOL0     H14873   8.927   3.568   0.890  1.4547  0.5231  0.0028
  851MOL0     H14874   9.166   3.537   0.816 -0.4673 -2.0713  0.2628
  851MOL0     H14875   9.415   3.487   0.683  1.4670 -1.2960 -0.7661
  851MOL0     H14876   9.298   3.356   0.707 -0.8801  2.3940  0.8659
  851MOL0     H14877   9.442   3.410   0.446 -3.6753 -0.5464 -0.8870
  851MOL0     H14878   9.353   3.273   0.480  2.3375 -2.0589 -1.3550
  851MOL0     H14879   9.601   3.344   0.639  0.3430 -2.5234  3.5534
  851MOL0     H14880   9.594   3.228   0.499 -3.3113  0.0217 -1.0554
  851MOL0     H14881   9.428   3.098   0.623  0.1089  0.9977 -1.4050
  851MOL0     H14882   9.449   3.209   0.761 -1.3900  2.7917 -1.5719
  851MOL0     H14883   9.793   2.965   0.822 -2.3429 -1.9570  0.7426
  851MOL0     H14884   9.062   3.451   0.424  0.0708 -0.6340  0.3088
  851MOL0     H14885   8.825   3.476   0.484 -0.0061  0.3205  0.9075
  852MOL0     O14886   7.861   3.226   9.117 -0.1999 -0.1426  0.3530
  852MOL0     C14887   7.934   3.323   9.096 -0.6532 -0.0843 -0.2655
  852MOL0     O14888   7.902   3.438   9.035 -0.2066  0.3307  0.3028
  852MOL0     C14889   7.787   3.450   8.963  0.1963  0.6935 -0.5589
  852MOL0     C14890   7.717   3.573   8.951 -0.2942  0.3256 -0.7932
  852MOL0     C14891   7.595   3.577   8.887 -0.2618 -0.1814 -0.8068
  852MOL0     C14892   7.544   3.460   8.826 -0.1756  0.3716  0.2402
  852MOL0     O14893   7.426   3.474   8.757 -0.0326 -0.2176 -0.3541
  852MOL0     C14894   7.351   3.362   8.717  0.6063 -0.0871  0.4273
  852MOL0     C14895   7.230   3.413   8.631 -0.3102 -0.2174  0.7117
  852MOL0     C14896   7.139   3.508   8.713 -0.3211 -0.9730 -0.0949
  852MOL0     C14897   7.017   3.541   8.635 -0.2567 -0.4680 -0.2025
  852MOL0     C14898   6.928   3.649   8.699 -0.2994 -0.5123 -0.5507
  852MOL0     C14899   6.808   3.678   8.607 -0.5361 -0.1167  0.2553
  852MOL0     C14900   6.693   3.753   8.677 -0.2397  0.4286 -0.0336
  852MOL0     C14901   6.584   3.772   8.569  1.5161  0.2980 -0.3233
  852MOL0     N14902   6.474   3.862   8.599  0.2134 -0.1997 -1.3052
  852MOL0     C14903   6.357   3.825   8.660 -0.3657 -0.0609 -0.0250
  852MOL0     C14904   6.281   3.934   8.667 -0.4211  0.1475 -0.2025
  852MOL0     C14905   6.155   3.956   8.751 -0.0344  0.5644 -0.1466
  852MOL0     C14906   6.035   3.872   8.698 -0.3223  0.8392 -0.2063
  852MOL0     C14907   5.975   3.929   8.567 -0.1991  0.4266  0.0337
  852MOL0     C14908   5.843   3.868   8.512 -0.6712  0.5717  0.3136
  852MOL0     O14909   5.880   3.732   8.483 -0.3658 -0.1111 -0.0593
  852MOL0     C14910   5.776   3.640   8.454 -0.4209 -0.6024 -0.5210
  852MOL0     C14911   5.639   3.667   8.430  0.3822  0.4533 -0.8884
  852MOL0     C14912   5.545   3.569   8.375  0.1174  0.3105 -0.4528
  852MOL0     C14913   5.411   3.621   8.340  0.1338 -0.1798 -0.4100
  852MOL0     C14914   5.600   3.430   8.369  0.1216  0.7755 -0.1690
  852MOL0     C14915   5.517   3.303   8.331 -0.5214 -0.5412 -1.1527
  852MOL0     O14916   5.383   3.329   8.325  0.6858  0.0913  0.2423
  852MOL0     C14917   5.314   3.213   8.295  0.7997 -0.6365  0.1892
  852MOL0     C14918   5.301   3.145   8.170 -0.2097 -0.0642 -0.0985
  852MOL0     C14919   5.235   3.031   8.161 -0.1193 -0.5094  0.2994
  852MOL0     C14920   5.155   2.974   8.263 -0.8697 -0.4534 -0.2187
  852MOL0     O14921   5.068   2.862   8.259 -0.1519  0.3129  0.2872
  852MOL0     C14922   4.971   2.872   8.148 -0.1406 -0.3689  0.3880
  852MOL0     C14923   4.883   2.753   8.125  0.1400  0.0777  0.4911
  852MOL0     C14924   4.800   2.733   8.255  0.0156  0.6455  0.7557
  852MOL0     C14925   4.725   2.598   8.250 -0.6295  0.3485 -0.0124
  852MOL0     C14926   4.790   2.484   8.329 -0.2043 -0.3408  0.0566
  852MOL0     C14927   4.737   2.339   8.306  0.1987 -0.3897 -0.5454
  852MOL0     C14928   4.776   2.255   8.186 -0.8091  0.1780 -0.0423
  852MOL0     C14929   4.757   2.319   8.056  0.2190  0.2951  0.2237
  852MOL0    Cl14930   4.913   2.409   8.030 -0.3816 -0.1937 -0.0429
  852MOL0     C14931   5.174   3.034   8.388 -0.1905  0.2144  0.1649
  852MOL0     C14932   5.251   3.143   8.406  0.1727  0.5035  0.2141
  852MOL0     O14933   5.576   3.197   8.331 -0.5100  0.3104 -0.5475
  852MOL0     C14934   5.737   3.409   8.390  0.2960 -0.1856 -0.2418
  852MOL0     C14935   5.816   3.513   8.435 -1.0671  0.0249 -0.7880
  852MOL0     N14936   6.351   4.033   8.603 -0.4697 -0.6278 -0.5130
  852MOL0     N14937   6.469   3.999   8.567 -0.2886  0.1950 -0.0629
  852MOL0     C14938   7.614   3.339   8.822 -0.6162  0.7264 -0.1308
  852MOL0     C14939   7.741   3.338   8.889 -0.0206  0.3044 -0.4636
  852MOL0     C14940   8.067   3.311   9.147 -0.1545 -0.4071  0.0525
  852MOL0     C14941   8.113   3.209   9.227 -0.1470 -0.4642 -0.1596
  852MOL0     C14942   8.249   3.212   9.264 -0.1537 -0.4586  0.0872
  852MOL0     C14943   8.338   3.311   9.216  0.5083  0.0396  0.1437
  852MOL0     O14944   8.465   3.307   9.258  0.0308 -0.1735 -0.2699
  852MOL0     C14945   8.572   3.391   9.212  0.2068 -0.2177  0.5628
  852MOL0     C14946   8.700   3.366   9.286 -0.3151 -0.2334  0.0151
  852MOL0     C14947   8.700   3.438   9.418  0.8627 -0.0375 -0.3742
  852MOL0     C14948   8.841   3.420   9.477 -0.0157  0.8648 -0.0435
  852MOL0     C14949   8.903   3.542   9.532 -0.0764 -0.6575  1.0224
  852MOL0     C14950   8.964   3.639   9.572 -0.2163 -0.1408  0.1987
  852MOL0     C14951   8.289   3.407   9.128  0.4238 -0.0297  0.2438
  852MOL0     C14952   8.156   3.404   9.091 -0.8441 -0.1549  0.6506
  852MOL0     H14953   7.762   3.661   8.996  1.3517 -1.5842  1.5171
  852MOL0     H14954   7.542   3.671   8.880  1.3024  0.8610  0.6878
  852MOL0     H14955   7.408   3.285   8.664  0.1678 -0.9574  1.1945
  852MOL0     H14956   7.310   3.318   8.808 -1.3268  0.0269 -0.3243
  852MOL0     H14957   7.270   3.462   8.541  1.4425 -2.5051  0.1503
  852MOL0     H14958   7.171   3.331   8.589 -0.9869  1.2856 -1.5007
  852MOL0     H14959   7.103   3.467   8.808 -0.6097  1.2092  0.7981
  852MOL0     H14960   7.192   3.600   8.740 -2.5665  0.0649  1.0689
  852MOL0     H14961   7.052   3.576   8.538  0.1447  0.4212  0.2513
  852MOL0     H14962   6.958   3.449   8.627 -1.7993  0.4686  0.1333
  852MOL0     H14963   6.901   3.605   8.795  2.2294 -0.3068  0.3200
  852MOL0     H14964   6.996   3.731   8.723 -0.2980 -0.2274 -1.4986
  852MOL0     H14965   6.849   3.738   8.525  0.0801  0.5911  1.0532
  852MOL0     H14966   6.770   3.583   8.568  1.2946 -0.5589 -0.5572
  852MOL0     H14967   6.651   3.700   8.763 -1.4519  1.2005 -0.1205
  852MOL0     H14968   6.726   3.852   8.710  0.3153 -0.2415  1.4981
  852MOL0     H14969   6.542   3.674   8.546 -2.6980  2.0529 -1.1888
  852MOL0     H14970   6.625   3.815   8.478  1.9716  1.6160  0.4684
  852MOL0     H14971   6.331   3.725   8.694 -2.3094 -0.3450 -2.0646
  852MOL0     H14972   6.181   3.931   8.854 -0.4948 -0.1022 -0.1895
  852MOL0     H14973   6.133   4.063   8.751 -1.0793  0.3825  1.3031
  852MOL0     H14974   5.952   3.875   8.769 -0.0398  1.4901  0.1116
  852MOL0     H14975   6.074   3.771   8.681  0.7276  0.9718  1.1948
  852MOL0     H14976   6.053   3.915   8.491 -0.5046  1.0650 -0.4078
  852MOL0     H14977   5.968   4.037   8.583  1.8885  0.2350  2.8178
  852MOL0     H14978   5.809   3.938   8.434  1.5404  0.9673 -0.3660
  852MOL0     H14979   5.777   3.880   8.599  2.4263  0.8316  2.7872
  852MOL0     H14980   5.592   3.761   8.454 -2.0270 -1.0187  0.5842
  852MOL0     H14981   5.414   3.730   8.353  0.1949 -0.2277 -0.0086
  852MOL0     H14982   5.390   3.612   8.233 -0.3282  2.0173 -0.5464
  852MOL0     H14983   5.323   3.586   8.394  0.9020 -0.8739  0.4281
  852MOL0     H14984   5.341   3.204   8.088  1.3538 -0.2412  0.4938
  852MOL0     H14985   5.239   2.983   8.063 -0.8547  0.2689 -0.1253
  852MOL0     H14986   4.913   2.963   8.164  0.0261 -0.1458 -0.2331
  852MOL0     H14987   5.032   2.885   8.058  0.0318  1.9962  0.7944
  852MOL0     H14988   4.833   2.762   8.029  2.5730 -2.4274 -1.1414
  852MOL0     H14989   4.956   2.673   8.111 -1.6660 -1.6595  0.6584
  852MOL0     H14990   4.720   2.807   8.256 -1.6283 -1.0113 -0.4420
  852MOL0     H14991   4.867   2.726   8.341 -1.4293 -2.4094  1.7821
  852MOL0     H14992   4.633   2.620   8.306  0.5826  5.3610  0.5748
  852MOL0     H14993   4.697   2.572   8.148 -2.2064 -1.2642  0.7692
  852MOL0     H14994   4.781   2.513   8.434  3.0949  0.5642  0.2297
  852MOL0     H14995   4.899   2.487   8.314 -0.4416  0.3762 -1.8716
  852MOL0     H14996   4.758   2.278   8.395 -1.6164 -0.8464 -0.3896
  852MOL0     H14997   4.628   2.350   8.300  0.1682 -0.9118 -1.0862
  852MOL0     H14998   4.721   2.160   8.189  0.0020 -0.2749  0.8646
  852MOL0     H14999   4.875   2.209   8.191 -0.5427  0.7112 -0.3975
  852MOL0     H15000   4.669   2.383   8.045  0.9133  1.3776  0.6948
  852MOL0     H15001   4.734   2.233   7.993  1.6996  0.7808 -1.0372
  852MOL0     H15002   5.115   2.993   8.470  0.3639 -1.4004 -0.2105
  852MOL0     H15003   5.259   3.183   8.507  2.4002 -2.0292  1.1430
  852MOL0     H15004   5.799   3.320   8.383  1.6900  0.7929 -0.8376
  852MOL0     H15005   5.923   3.499   8.442 -1.0281  1.0168  1.4587
  852MOL0     H15006   7.570   3.252   8.775  2.8833 -2.2269  1.5649
  852MOL0     H15007   7.800   3.247   8.883 -1.7073 -0.8470 -0.2421
  852MOL0     H15008   8.045   3.132   9.262  0.5180 -1.1786 -0.4041
  852MOL0     H15009   8.292   3.143   9.336 -0.8030  0.0617  1.0051
  852MOL0     H15010   8.583   3.361   9.108 -0.7609 -1.3078  0.7524
  852MOL0     H15011   8.552   3.498   9.206 -1.7321 -0.5131  1.0996
  852MOL0     H15012   8.781   3.406   9.224  1.4978  0.3492  2.5724
  852MOL0     H15013   8.713   3.259   9.303 -1.5415 -0.0688  2.4649
  852MOL0     H15014   8.619   3.400   9.481 -0.6588  0.5044 -1.9017
  852MOL0     H15015   8.684   3.546   9.407  1.9314  0.0645 -1.0588
  852MOL0     H15016   8.901   3.387   9.392 -0.7009 -3.4889  0.8933
  852MOL0     H15017   8.832   3.348   9.560  0.3516  1.0756  0.1798
  852MOL0     H15018   9.008   3.730   9.607 -0.9805 -0.0394  0.9032
  852MOL0     H15019   8.352   3.483   9.082 -2.2461  0.8596 -2.2705
  852MOL0     H15020   8.128   3.480   9.019 -1.5825  0.6427  1.7408
  853MOL0     O15021   8.247   8.628   0.447  0.6820 -0.8646  0.4126
  853MOL0     C15022   8.299   8.734   0.475  0.4244 -0.0210 -0.4656
  853MOL0     O15023   8.256   8.827   0.571 -0.0042 -0.2709 -0.4991
  853MOL0     C15024   8.132   8.826   0.639 -0.3606  0.3376 -0.4788
  853MOL0     C15025   8.089   8.942   0.679 -0.6068  0.2608  0.0491
  853MOL0     C15026   7.972   8.956   0.746  0.3506  0.0608 -0.3895
  853MOL0     C15027   7.894   8.839   0.779  0.2867  0.1536  0.1481
  853MOL0     O15028   7.782   8.857   0.857  0.6572  0.0878  0.7818
  853MOL0     C15029   7.694   8.745   0.877 -0.1168 -0.6842  0.2276
  853MOL0     C15030   7.558   8.787   0.927  0.0275 -0.2223  0.1297
  853MOL0     C15031   7.475   8.677   0.989  0.0460  0.1605 -0.0564
  853MOL0     C15032   7.335   8.736   1.031  0.3082  0.0587  0.4978
  853MOL0     C15033   7.349   8.791   1.175  0.2029  0.7407 -0.1801
  853MOL0     C15034   7.218   8.834   1.231  0.1178  0.9839 -0.3572
  853MOL0     C15035   7.228   8.908   1.369  0.3608  0.0027 -0.1671
  853MOL0     C15036   7.097   8.957   1.419 -0.6360 -0.0073 -0.0277
  853MOL0     N15037   7.013   8.835   1.444 -0.0461 -0.7484  0.3773
  853MOL0     C15038   7.018   8.758   1.560  1.2055  0.3381 -0.4380
  853MOL0     C15039   6.908   8.676   1.543  0.4199 -0.0017  0.2131
  853MOL0     C15040   6.873   8.551   1.626  0.3637 -0.2528  0.1392
  853MOL0     C15041   6.728   8.514   1.657 -0.4597 -0.0376 -0.1389
  853MOL0     C15042   6.675   8.434   1.538  0.4547 -0.1566  0.2825
  853MOL0     C15043   6.532   8.380   1.569 -0.3409 -0.1953  0.4202
  853MOL0     O15044   6.537   8.296   1.685 -0.2703  0.6789  0.3218
  853MOL0     C15045   6.421   8.227   1.703 -1.6206 -0.4394 -0.1188
  853MOL0     C15046   6.421   8.113   1.789 -0.3288 -0.3581  0.4551
  853MOL0     C15047   6.313   8.025   1.810 -0.2230 -0.0404 -0.0512
  853MOL0     C15048   6.339   7.916   1.907 -0.0026  0.5183 -0.0128
  853MOL0     C15049   6.194   8.047   1.735  0.4809  0.2529 -0.5030
  853MOL0     C15050   6.065   7.970   1.745  0.4779 -0.8406 -1.2530
  853MOL0     O15051   5.953   8.020   1.684 -0.2563  0.6732  0.4483
  853MOL0     C15052   5.842   7.931   1.697  0.1364  0.2397  0.3546
  853MOL0     C15053   5.845   7.818   1.614 -0.5462  0.7185 -1.1062
  853MOL0     C15054   5.741   7.725   1.617 -0.2148  0.9500  0.3605
  853MOL0     C15055   5.640   7.740   1.714  0.7107 -0.8044 -0.0003
  853MOL0     O15056   5.538   7.656   1.704 -0.0711  0.1399  0.8247
  853MOL0     C15057   5.460   7.645   1.827  0.1096  0.8863 -1.2640
  853MOL0     C15058   5.371   7.514   1.812  1.2524  0.1912 -0.4146
  853MOL0     C15059   5.285   7.492   1.940  1.0851 -0.2248  0.7139
  853MOL0     C15060   5.188   7.375   1.919  0.5481  0.3800  0.2431
  853MOL0     C15061   5.053   7.435   1.863 -0.5107  0.5782  0.5678
  853MOL0     C15062   4.944   7.324   1.875  0.0797  0.3383 -0.5669
  853MOL0     C15063   4.888   7.355   2.021  0.7591 -0.2548 -0.4868
  853MOL0     C15064   4.789   7.245   2.075 -0.6835  0.6257  0.2590
  853MOL0    Cl15065   4.829   7.071   2.032 -0.2652 -0.1499 -0.2208
  853MOL0     C15066   5.645   7.851   1.805  0.0204  0.4525  0.3448
  853MOL0     C15067   5.750   7.936   1.796 -0.0338 -0.4744 -0.3523
  853MOL0     O15068   6.069   7.863   1.814  0.1722  0.0237  0.0475
  853MOL0     C15069   6.199   8.146   1.643  0.1272 -0.0743  0.5410
  853MOL0     C15070   6.304   8.237   1.630 -0.5472  0.5410 -0.8292
  853MOL0     N15071   6.847   8.702   1.422 -0.2031 -1.1690 -0.2490
  853MOL0     N15072   6.912   8.794   1.360 -0.2400 -0.3018  0.3393
  853MOL0     C15073   7.941   8.719   0.732  0.2501  0.3198  0.0713
  853MOL0     C15074   8.058   8.710   0.653  0.9558 -0.2792  0.2904
  853MOL0     C15075   8.434   8.758   0.418  0.3214 -0.1523 -0.2304
  853MOL0     C15076   8.492   8.666   0.334  0.4931  0.1569  0.4710
  853MOL0     C15077   8.628   8.669   0.297 -0.1247  0.3941 -0.4093
  853MOL0     C15078   8.712   8.778   0.327 -0.0974 -0.3244  0.6141
  853MOL0     O15079   8.846   8.777   0.311 -0.0464  0.1909  0.4945
  853MOL0     C15080   8.901   8.734   0.185  0.4733  0.6166 -0.2250
  853MOL0     C15081   9.054   8.722   0.183  0.1953  0.5254  0.5623
  853MOL0     C15082   9.095   8.602   0.259 -0.9636  0.2739 -1.0250
  853MOL0     C15083   9.238   8.570   0.234 -0.4837  0.5445 -0.3779
  853MOL0     C15084   9.331   8.667   0.292 -1.0457  0.6712  0.0989
  853MOL0     C15085   9.417   8.747   0.335 -0.1394  0.3463 -0.4954
  853MOL0     C15086   8.658   8.870   0.412  0.0709  0.2749  0.6130
  853MOL0     C15087   8.525   8.867   0.454 -0.1848  0.6529  0.8165
  853MOL0     H15088   8.162   9.021   0.666  0.0996 -0.4136 -0.1499
  853MOL0     H15089   7.942   9.051   0.788  0.5128  0.3743 -0.9775
  853MOL0     H15090   7.670   8.709   0.777  1.0721  0.3829 -0.4830
  853MOL0     H15091   7.732   8.660   0.936  0.7665 -0.4441  0.0197
  853MOL0     H15092   7.577   8.861   1.005 -0.5767  0.2785 -0.1966
  853MOL0     H15093   7.508   8.849   0.853 -0.2696  1.0847  1.3967
  853MOL0     H15094   7.447   8.600   0.916  1.8900 -2.7384  2.0730
  853MOL0     H15095   7.529   8.626   1.070 -0.5502  0.3196  0.4455
  853MOL0     H15096   7.304   8.813   0.960  0.2853  0.0441  0.4915
  853MOL0     H15097   7.259   8.658   1.018  0.2892  0.4334 -2.4832
  853MOL0     H15098   7.376   8.710   1.244 -0.1036  0.3168 -0.5600
  853MOL0     H15099   7.416   8.877   1.171 -1.8159  2.5346  1.5157
  853MOL0     H15100   7.173   8.904   1.161  0.7746  0.6513 -1.1214
  853MOL0     H15101   7.159   8.742   1.230 -1.1144  1.7245  0.6869
  853MOL0     H15102   7.270   8.847   1.450  0.0954 -0.7034 -0.5523
  853MOL0     H15103   7.301   8.987   1.349  1.3392 -1.0951 -1.1646
  853MOL0     H15104   7.062   9.021   1.337  1.2529  0.5449 -0.4710
  853MOL0     H15105   7.103   9.014   1.512 -2.2720  0.7615 -0.3488
  853MOL0     H15106   7.094   8.750   1.637 -0.4551  0.7751  1.3380
  853MOL0     H15107   6.920   8.460   1.588  0.0380  0.2407 -1.5325
  853MOL0     H15108   6.911   8.563   1.728  0.6956 -2.0241  0.2523
  853MOL0     H15109   6.665   8.602   1.672 -0.9300 -0.3854 -0.0373
  853MOL0     H15110   6.717   8.459   1.751 -2.2034  1.0638  0.3405
  853MOL0     H15111   6.748   8.354   1.523  2.8787  1.8335  0.7407
  853MOL0     H15112   6.671   8.489   1.444  1.7226 -0.3261  0.1113
  853MOL0     H15113   6.495   8.325   1.483 -2.4853  2.0707 -0.2311
  853MOL0     H15114   6.474   8.472   1.584  0.0026 -0.1509  1.6205
  853MOL0     H15115   6.512   8.094   1.846  1.5998  2.9105 -1.2666
  853MOL0     H15116   6.440   7.909   1.947 -0.7817 -0.8636  1.8645
  853MOL0     H15117   6.288   7.921   2.003  0.4885  0.8241  0.2330
  853MOL0     H15118   6.321   7.814   1.870 -0.7403  1.0303 -1.1419
  853MOL0     H15119   5.925   7.808   1.541 -0.3250 -0.9917 -0.6860
  853MOL0     H15120   5.749   7.639   1.551 -0.1249 -0.6603  2.3674
  853MOL0     H15121   5.525   7.616   1.910 -1.7216 -1.4005 -0.5182
  853MOL0     H15122   5.387   7.724   1.848 -2.5170 -0.8621 -3.2356
  853MOL0     H15123   5.301   7.524   1.729 -0.6742 -1.9020  0.8319
  853MOL0     H15124   5.432   7.425   1.797 -0.2107 -1.5790  2.9313
  853MOL0     H15125   5.224   7.578   1.968  0.0666  0.3459 -2.7071
  853MOL0     H15126   5.355   7.471   2.021  1.6458  2.7984  1.1181
  853MOL0     H15127   5.212   7.295   1.849 -2.4377 -1.0282  0.6637
  853MOL0     H15128   5.172   7.326   2.015  2.2731 -0.7537 -0.0080
  853MOL0     H15129   5.062   7.463   1.758 -0.9678  0.5077  0.5091
  853MOL0     H15130   5.030   7.523   1.924 -1.2845  0.1871  0.8517
  853MOL0     H15131   4.861   7.357   1.812 -0.9343 -1.7416 -0.3787
  853MOL0     H15132   4.977   7.223   1.851  2.2602  1.2103 -1.6257
  853MOL0     H15133   4.839   7.452   2.022 -0.5748 -0.9048  0.0529
  853MOL0     H15134   4.974   7.354   2.088  0.4622 -3.3960 -0.0101
  853MOL0     H15135   4.691   7.273   2.037 -0.5529  0.6425 -0.0676
  853MOL0     H15136   4.781   7.252   2.184 -3.3884 -0.7813  0.2329
  853MOL0     H15137   5.576   7.867   1.887  2.6032  2.3185  2.3168
  853MOL0     H15138   5.750   8.019   1.866  0.0259  1.5173 -2.6083
  853MOL0     H15139   6.121   8.152   1.568  0.0143 -2.3662  0.4175
  853MOL0     H15140   6.287   8.307   1.549 -0.3020  1.0818 -0.4267
  853MOL0     H15141   7.893   8.622   0.743 -0.0891  0.7003  2.3205
  853MOL0     H15142   8.091   8.612   0.619  0.2750 -0.7656  0.9844
  853MOL0     H15143   8.436   8.576   0.316 -0.9961  1.3221 -1.0265
  853MOL0     H15144   8.666   8.577   0.254 -3.1934 -0.7612 -0.9518
  853MOL0     H15145   8.864   8.633   0.166 -2.3896  0.7317  3.6443
  853MOL0     H15146   8.871   8.797   0.100 -0.3118 -0.4872 -0.7937
  853MOL0     H15147   9.106   8.812   0.217 -1.6202  3.0302 -2.6727
  853MOL0     H15148   9.083   8.697   0.081 -0.7544 -4.2445  1.2534
  853MOL0     H15149   9.037   8.515   0.228 -0.0969 -0.1310 -1.5325
  853MOL0     H15150   9.072   8.607   0.366  1.5345 -0.9819 -0.3694
  853MOL0     H15151   9.252   8.573   0.126  2.0803 -2.4234 -0.2546
  853MOL0     H15152   9.253   8.469   0.272 -1.9632  0.7908  0.9937
  853MOL0     H15153   9.491   8.819   0.364  1.7820 -0.7905 -2.3235
  853MOL0     H15154   8.733   8.944   0.440  1.5974 -0.7352 -0.5838
  853MOL0     H15155   8.487   8.943   0.522 -3.2580 -0.6235  0.6813
  854MOL0     O15156   8.928   2.557   9.698  0.3467  0.9668  0.3920
  854MOL0     C15157   8.989   2.519   9.794 -0.3986  0.1533  0.7522
  854MOL0     O15158   8.937   2.491   9.916 -0.2917  0.7265 -0.0049
  854MOL0     C15159   8.808   2.456   9.922  0.4273 -0.3800 -0.1635
  854MOL0     C15160   8.773   2.332   9.978  0.5905  1.0281  0.1915
  854MOL0     C15161   8.638   2.303   9.997  0.2736 -0.0788 -0.1401
  854MOL0     C15162   8.544   2.399   9.975  0.2961  0.4429 -1.3596
  854MOL0     O15163   8.412   2.371  10.009  0.2453  0.0119  0.5264
  854MOL0     C15164   8.313   2.398   9.913 -0.1356  1.0960 -0.1794
  854MOL0     C15165   8.203   2.461   9.995 -0.6451  0.1462  0.4146
  854MOL0     C15166   8.087   2.482   9.903  0.3539 -0.2475  0.0867
  854MOL0     C15167   7.962   2.530   9.976  0.1404 -0.1372 -0.3021
  854MOL0     C15168   7.846   2.577   9.899  0.3268  0.4053  0.0919
  854MOL0     C15169   7.818   2.475   9.791 -0.0117  0.2203 -0.0893
  854MOL0     C15170   7.670   2.484   9.753 -0.9415  1.0327  0.4050
  854MOL0     C15171   7.631   2.370   9.663  0.2578  1.0772  0.0163
  854MOL0     N15172   7.488   2.357   9.642  0.3326  0.2261 -0.5177
  854MOL0     C15173   7.409   2.244   9.660 -0.7685  0.1730 -0.2436
  854MOL0     C15174   7.286   2.293   9.628  0.4199 -0.1102  0.0517
  854MOL0     C15175   7.166   2.197   9.629 -0.6448  0.1390 -0.1364
  854MOL0     C15176   7.122   2.157   9.769 -1.7475 -0.8032  0.1068
  854MOL0     C15177   7.011   2.041   9.776  0.5675 -0.3272  0.5901
  854MOL0     C15178   6.877   2.097   9.736  0.7863  0.1600  0.1305
  854MOL0     O15179   6.865   2.108   9.592 -0.2325 -0.5603 -0.5364
  854MOL0     C15180   6.735   2.135   9.548 -0.2395 -0.6144 -0.2888
  854MOL0     C15181   6.613   2.134   9.619 -0.2938  0.0134 -0.7173
  854MOL0     C15182   6.491   2.160   9.560  1.3790  0.5022 -0.6211
  854MOL0     C15183   6.369   2.156   9.661 -0.1258  0.0877  0.0852
  854MOL0     C15184   6.475   2.179   9.419 -0.7042  0.8377 -0.0480
  854MOL0     C15185   6.354   2.196   9.345 -0.4368 -0.3763  0.0803
  854MOL0     O15186   6.363   2.172   9.208 -0.2922  0.1174 -0.4330
  854MOL0     C15187   6.266   2.224   9.124  0.7714 -0.7648 -0.3557
  854MOL0     C15188   6.306   2.314   9.030 -0.1088 -0.9022  0.7913
  854MOL0     C15189   6.210   2.365   8.946  0.1400 -0.0125  0.5879
  854MOL0     C15190   6.079   2.320   8.946 -0.7238  0.4456 -0.1511
  854MOL0     O15191   5.981   2.396   8.880  0.1145  0.6604  0.8340
  854MOL0     C15192   5.849   2.337   8.866  0.4594  0.5786  0.1473
  854MOL0     C15193   5.754   2.431   8.784  0.4465 -0.0200  0.2844
  854MOL0     C15194   5.604   2.380   8.756  0.5334  0.3420  0.4551
  854MOL0     C15195   5.602   2.246   8.668 -0.0972 -0.6529 -0.1247
  854MOL0     C15196   5.664   2.271   8.527  0.9266  0.0986 -0.7152
  854MOL0     C15197   5.598   2.181   8.425  0.1863 -0.1221 -0.6509
  854MOL0     C15198   5.683   2.163   8.296  0.3513 -0.4279 -0.4856
  854MOL0     C15199   5.719   2.298   8.227  0.4635 -0.3494 -0.4404
  854MOL0    Cl15200   5.809   2.259   8.081  0.0290  0.0700  0.2085
  854MOL0     C15201   6.046   2.222   9.036  0.1115  0.5218 -0.2245
  854MOL0     C15202   6.139   2.169   9.123  1.4328  0.6898 -0.8081
  854MOL0     O15203   6.250   2.228   9.403 -0.8547 -0.1988  1.1977
  854MOL0     C15204   6.597   2.180   9.354 -0.2530  0.2291  0.7008
  854MOL0     C15205   6.725   2.158   9.411 -0.1107  0.2101  0.2479
  854MOL0     N15206   7.288   2.422   9.590  0.2400 -0.1612 -0.3883
  854MOL0     N15207   7.408   2.461   9.615  0.6373  0.7689  0.1052
  854MOL0     C15208   8.583   2.522   9.916 -0.2246  0.0623  0.4916
  854MOL0     C15209   8.713   2.549   9.884 -0.5484 -0.1484  0.4471
  854MOL0     C15210   9.131   2.524   9.782 -0.2181  0.4002 -0.8021
  854MOL0     C15211   9.200   2.494   9.901  0.3024  0.3903 -0.4984
  854MOL0     C15212   9.341   2.503   9.909 -0.6342  0.0050  0.3848
  854MOL0     C15213   9.410   2.524   9.788  0.0472 -0.3238 -0.0596
  854MOL0     O15214   9.551   2.524   9.780 -0.3151 -0.6057 -0.4618
  854MOL0     C15215   9.630   2.462   9.886  0.2973 -0.0534  0.4044
  854MOL0     C15216   9.764   2.418   9.816  0.7635  0.7716 -0.1695
  854MOL0     C15217   9.757   2.345   9.680 -0.5619  0.2987 -0.6806
  854MOL0     C15218   9.705   2.200   9.698  0.0560 -0.2712  0.4126
  854MOL0     C15219   9.807   2.109   9.751 -0.2490 -0.6874  0.2199
  854MOL0     C15220   9.903   2.046   9.795 -0.7096 -0.3696 -0.0841
  854MOL0     C15221   9.341   2.552   9.675  0.4920 -0.1126 -0.9995
  854MOL0     C15222   9.205   2.552   9.669  0.9335  0.5274  0.9638
  854MOL0     H15223   8.854   2.262  10.001  0.8560  0.9149 -1.0113
  854MOL0     H15224   8.608   2.206  10.035 -0.4310 -0.1970 -0.9771
  854MOL0     H15225   8.343   2.468   9.834  1.3355  1.8062  0.9563
  854MOL0     H15226   8.273   2.305   9.874 -0.4820  0.5419  1.4293
  854MOL0     H15227   8.168   2.401  10.080  0.1189 -2.0212 -0.7315
  854MOL0     H15228   8.233   2.560  10.030  0.5665  0.4656 -1.3930
  854MOL0     H15229   8.110   2.561   9.831 -1.7752  1.2379  0.9276
  854MOL0     H15230   8.071   2.386   9.853 -0.6381  1.1580 -2.5106
  854MOL0     H15231   7.928   2.460  10.053  0.7870 -0.3363 -0.1892
  854MOL0     H15232   7.999   2.613  10.037  1.0052  0.9790 -2.2513
  854MOL0     H15233   7.766   2.600   9.970  0.7386  1.0240  0.3611
  854MOL0     H15234   7.863   2.670   9.844  0.5352 -0.3431 -1.1698
  854MOL0     H15235   7.875   2.499   9.701  0.5082  2.3809  0.7511
  854MOL0     H15236   7.834   2.371   9.820 -2.4670 -0.7264 -1.8641
  854MOL0     H15237   7.615   2.465   9.845 -1.6899 -1.3251 -0.4586
  854MOL0     H15238   7.638   2.585   9.724 -1.7038  1.0424  1.2431
  854MOL0     H15239   7.670   2.279   9.710 -1.9237  0.9605  1.7563
  854MOL0     H15240   7.673   2.388   9.563  1.3619  0.8252  0.4181
  854MOL0     H15241   7.439   2.141   9.680  0.7445  0.2590 -1.8869
  854MOL0     H15242   7.076   2.239   9.583 -0.9248 -1.1709 -0.8292
  854MOL0     H15243   7.179   2.104   9.573 -1.9619  0.3974 -0.9134
  854MOL0     H15244   7.075   2.246   9.812  0.4642 -0.4940  2.0593
  854MOL0     H15245   7.214   2.128   9.821 -1.2850 -1.3875 -1.0010
  854MOL0     H15246   7.000   1.985   9.869 -0.2691  0.6172  1.0791
  854MOL0     H15247   7.046   1.968   9.703  1.8663  1.6590 -0.8600
  854MOL0     H15248   6.861   2.196   9.780  0.2656  0.4677 -0.7235
  854MOL0     H15249   6.804   2.025   9.774  0.4830 -0.3356 -1.3322
  854MOL0     H15250   6.623   2.117   9.726 -0.0779 -0.5626 -0.8230
  854MOL0     H15251   6.296   2.094   9.608 -0.0162 -1.4611  1.6557
  854MOL0     H15252   6.392   2.119   9.761 -3.2038  0.4213  1.0137
  854MOL0     H15253   6.319   2.253   9.669  0.2305  0.3224 -0.4800
  854MOL0     H15254   6.407   2.354   9.034 -1.1718  1.8988  1.2527
  854MOL0     H15255   6.223   2.450   8.881  0.6699 -0.7838 -0.3351
  854MOL0     H15256   5.866   2.242   8.816 -0.0730 -0.9106  2.6383
  854MOL0     H15257   5.798   2.322   8.961  0.3521 -0.3183 -0.0504
  854MOL0     H15258   5.741   2.521   8.845  1.7932  0.7324 -0.4851
  854MOL0     H15259   5.797   2.451   8.686  3.3779  0.8369  1.6158
  854MOL0     H15260   5.545   2.447   8.694 -1.4370 -3.2056 -1.8456
  854MOL0     H15261   5.545   2.359   8.846  0.4690 -1.0808  0.1068
  854MOL0     H15262   5.650   2.160   8.716  0.3335  0.1831  0.9951
  854MOL0     H15263   5.496   2.220   8.660  0.1581 -1.1551 -2.2911
  854MOL0     H15264   5.769   2.243   8.542  0.2686 -1.8429  0.6592
  854MOL0     H15265   5.656   2.375   8.495 -0.8196  0.2010 -0.0701
  854MOL0     H15266   5.588   2.087   8.481 -0.2716  0.4657  0.2834
  854MOL0     H15267   5.498   2.218   8.402  0.1592  1.7612  1.9644
  854MOL0     H15268   5.621   2.102   8.229 -0.5433 -0.4698  0.3532
  854MOL0     H15269   5.772   2.110   8.332  0.3785  0.8553  1.4473
  854MOL0     H15270   5.776   2.364   8.295  0.3057 -1.0581  0.4022
  854MOL0     H15271   5.632   2.356   8.195  0.9562 -0.2015 -1.5686
  854MOL0     H15272   5.945   2.182   9.045 -0.5532  2.1677  0.1187
  854MOL0     H15273   6.104   2.096   9.196 -2.7280  2.1283 -1.0938
  854MOL0     H15274   6.598   2.207   9.249 -0.7757  2.7172  1.2790
  854MOL0     H15275   6.815   2.170   9.352 -0.8002  0.1948 -0.8531
  854MOL0     H15276   8.507   2.595   9.888  1.8074  1.8186 -0.7979
  854MOL0     H15277   8.749   2.649   9.858  0.2649 -0.1920  1.3591
  854MOL0     H15278   9.154   2.479   9.998 -0.0217  2.4628 -0.2968
  854MOL0     H15279   9.389   2.501  10.007  3.0785  2.6825 -1.1531
  854MOL0     H15280   9.641   2.529   9.972 -2.4776 -0.7016  1.3714
  854MOL0     H15281   9.583   2.377   9.936 -0.4836  1.7885  3.0368
  854MOL0     H15282   9.811   2.354   9.892 -1.0676 -2.1038 -1.2787
  854MOL0     H15283   9.827   2.506   9.802  2.5288 -0.4856 -0.4292
  854MOL0     H15284   9.853   2.355   9.628  0.2085 -0.6025  0.5112
  854MOL0     H15285   9.692   2.399   9.609 -1.5449 -0.8282 -0.6642
  854MOL0     H15286   9.675   2.171   9.597 -1.9610  0.5034  0.7445
  854MOL0     H15287   9.615   2.197   9.760 -0.2767 -0.0071 -0.0466
  854MOL0     H15288   9.989   1.988   9.822 -0.6808  0.7561  2.5059
  854MOL0     H15289   9.399   2.591   9.592 -1.8676  0.9717 -2.2341
  854MOL0     H15290   9.159   2.560   9.571  3.4706  0.8752 -0.2870
  855MOL0     O15291   5.885   0.778   3.862 -0.0401 -0.6424  0.3656
  855MOL0     C15292   5.901   0.709   3.761 -0.0165  0.1905 -0.3417
  855MOL0     O15293   5.801   0.644   3.701  0.1861  0.0708 -0.4821
  855MOL0     C15294   5.680   0.640   3.763  0.3395  0.9652 -0.2283
  855MOL0     C15295   5.566   0.664   3.684  0.3608  1.8513 -0.2954
  855MOL0     C15296   5.434   0.659   3.732  0.2121 -0.1120  0.0722
  855MOL0     C15297   5.416   0.635   3.867 -0.5526  0.0238 -0.5782
  855MOL0     O15298   5.293   0.621   3.924  0.5569 -0.4628 -0.1902
  855MOL0     C15299   5.171   0.643   3.852 -0.1636 -0.1487 -0.5653
  855MOL0     C15300   5.139   0.792   3.843  0.1291  0.3868 -0.7613
  855MOL0     C15301   4.997   0.827   3.797  0.0875  0.4517 -0.4073
  855MOL0     C15302   4.967   0.978   3.781  0.1932 -0.5297  1.0069
  855MOL0     C15303   4.953   1.007   3.630 -0.9288  0.3909 -0.0751
  855MOL0     C15304   4.817   0.975   3.576 -0.2221 -0.5320  0.0726
  855MOL0     C15305   4.814   1.000   3.420 -1.0058 -0.9539  0.2002
  855MOL0     C15306   4.673   0.980   3.359  0.6087 -1.2169 -0.0180
  855MOL0     N15307   4.575   1.071   3.410 -0.1272 -0.3780 -0.4070
  855MOL0     C15308   4.490   1.035   3.516  0.8393  0.3186  0.2084
  855MOL0     C15309   4.451   1.146   3.568 -0.3420 -0.3672 -0.6582
  855MOL0     C15310   4.358   1.169   3.686 -0.2876  0.6170  0.7015
  855MOL0     C15311   4.212   1.132   3.657  0.2983  0.0282 -0.0788
  855MOL0     C15312   4.113   1.116   3.780 -0.2847  0.1036  0.9870
  855MOL0     C15313   3.964   1.101   3.752  0.0762 -0.0051 -1.4361
  855MOL0     O15314   3.902   1.214   3.687 -0.4413  0.1325 -0.0255
  855MOL0     C15315   3.765   1.207   3.694 -0.3960  0.7663 -0.6191
  855MOL0     C15316   3.699   1.331   3.684  0.3375  0.3410  1.0473
  855MOL0     C15317   3.561   1.345   3.676  0.1638  0.3462 -0.2757
  855MOL0     C15318   3.514   1.487   3.641  0.2077  0.0252  0.5465
  855MOL0     C15319   3.481   1.236   3.691  0.6449 -0.3602 -0.4060
  855MOL0     C15320   3.331   1.247   3.708 -0.0713 -0.8405 -0.7053
  855MOL0     O15321   3.272   1.131   3.751  0.3412  0.8298 -0.3250
  855MOL0     C15322   3.136   1.112   3.773  0.8540 -0.6905  0.5118
  855MOL0     C15323   3.041   1.218   3.766  0.0538  0.2379  0.3287
  855MOL0     C15324   2.910   1.199   3.814  0.6981 -0.7785 -0.3125
  855MOL0     C15325   2.863   1.076   3.863  0.4677 -0.0153  0.7928
  855MOL0     O15326   2.730   1.034   3.897 -0.5631 -0.5796  0.1480
  855MOL0     C15327   2.636   1.134   3.939 -0.4911  0.0895  0.7221
  855MOL0     C15328   2.535   1.078   4.041 -0.0481  0.1034  0.1180
  855MOL0     C15329   2.434   1.189   4.087 -0.0174 -0.4486 -0.0312
  855MOL0     C15330   2.355   1.127   4.203 -0.0208 -0.9871  0.0362
  855MOL0     C15331   2.256   1.224   4.255 -0.0125  0.0701  0.1722
  855MOL0     C15332   2.195   1.165   4.385 -0.3474 -0.4156  0.4032
  855MOL0     C15333   2.132   1.031   4.357  0.1431  0.2611  0.4764
  855MOL0     C15334   2.034   0.990   4.461  0.0561 -0.0840 -0.6913
  855MOL0    Cl15335   1.888   1.098   4.479  0.2204 -0.5274  0.0477
  855MOL0     C15336   2.953   0.970   3.864 -0.3901  0.1020 -0.1179
  855MOL0     C15337   3.086   0.986   3.817 -0.1080  0.7065  0.4398
  855MOL0     O15338   3.272   1.339   3.660  0.3998  0.0091  0.3175
  855MOL0     C15339   3.543   1.110   3.698 -0.1952  0.5394 -0.0558
  855MOL0     C15340   3.681   1.094   3.708 -0.3040  0.5275 -0.2067
  855MOL0     N15341   4.491   1.251   3.478 -0.0936  0.3955 -0.1521
  855MOL0     N15342   4.562   1.203   3.388 -0.6532  0.1090  0.5073
  855MOL0     C15343   5.531   0.610   3.950 -0.2310  0.7798 -0.9025
  855MOL0     C15344   5.658   0.605   3.901  0.2977 -0.6118 -0.6250
  855MOL0     C15345   6.026   0.716   3.692 -0.5471  0.1725 -0.3571
  855MOL0     C15346   6.029   0.701   3.556  0.3072 -0.1223  0.7578
  855MOL0     C15347   6.147   0.713   3.489  0.0711  0.4802  0.7351
  855MOL0     C15348   6.266   0.748   3.561  0.4164 -0.6191  0.1111
  855MOL0     O15349   6.379   0.760   3.489 -0.9693 -0.0877  0.7952
  855MOL0     C15350   6.500   0.808   3.548 -0.1844 -0.5109  0.3875
  855MOL0     C15351   6.615   0.798   3.452 -0.2156  0.2788  0.0574
  855MOL0     C15352   6.752   0.823   3.523 -0.0220  0.0903 -0.2119
  855MOL0     C15353   6.854   0.854   3.409 -0.5581  0.4866 -0.4293
  855MOL0     C15354   6.980   0.899   3.472 -0.1939 -0.2374  0.1029
  855MOL0     C15355   7.086   0.926   3.521 -0.0907 -0.0940  0.7440
  855MOL0     C15356   6.260   0.768   3.702  0.4548  0.9174  0.4627
  855MOL0     C15357   6.141   0.754   3.767  0.3857 -0.3527  0.0447
  855MOL0     H15358   5.587   0.694   3.582  3.7758  2.2514  0.4016
  855MOL0     H15359   5.350   0.678   3.667  0.5595 -0.0084 -0.3510
  855MOL0     H15360   5.167   0.616   3.746 -1.1157  0.5534 -0.7189
  855MOL0     H15361   5.088   0.595   3.905 -1.5172  1.6218 -1.0035
  855MOL0     H15362   5.147   0.840   3.941 -1.3304  3.6258 -2.0813
  855MOL0     H15363   5.215   0.835   3.778  0.2322  2.8343  0.8106
  855MOL0     H15364   4.977   0.774   3.703  2.0736 -0.5260 -0.3433
  855MOL0     H15365   4.922   0.785   3.865 -0.5192  1.8045 -0.2158
  855MOL0     H15366   4.868   1.009   3.814 -0.1967  1.7140 -1.8473
  855MOL0     H15367   5.037   1.044   3.833  0.1472  1.1071 -0.8457
  855MOL0     H15368   4.971   1.112   3.603  2.1574 -0.5126 -2.0062
  855MOL0     H15369   5.028   0.951   3.573  1.5443  3.5099 -0.1620
  855MOL0     H15370   4.787   0.874   3.604  1.3437 -0.3238  2.9380
  855MOL0     H15371   4.750   1.042   3.631  2.4219  1.6752  0.8313
  855MOL0     H15372   4.857   1.098   3.398  3.2866 -2.2464  1.6992
  855MOL0     H15373   4.884   0.930   3.373 -0.6717 -0.2137 -0.4257
  855MOL0     H15374   4.641   0.879   3.384 -1.0404 -1.5621 -3.0476
  855MOL0     H15375   4.677   0.983   3.250 -0.0394 -0.1887 -0.0353
  855MOL0     H15376   4.479   0.944   3.573  0.9919  1.7005  2.5708
  855MOL0     H15377   4.393   1.107   3.769  0.0290  1.9062  1.5599
  855MOL0     H15378   4.360   1.276   3.708  0.1777  1.4058 -2.7122
  855MOL0     H15379   4.199   1.039   3.602 -1.3184  1.2944 -2.0255
  855MOL0     H15380   4.170   1.213   3.596 -2.8127  0.3921  2.3245
  855MOL0     H15381   4.116   1.210   3.835 -1.9304  0.7352  0.0790
  855MOL0     H15382   4.139   1.036   3.850 -3.2956 -3.1584 -1.2247
  855MOL0     H15383   3.921   1.083   3.851  0.5597  0.8618 -1.0612
  855MOL0     H15384   3.957   1.009   3.692 -2.6704 -0.7262 -0.1853
  855MOL0     H15385   3.760   1.420   3.685  1.8816 -0.6213 -0.9860
  855MOL0     H15386   3.450   1.514   3.725  0.2416  0.1449  0.5340
  855MOL0     H15387   3.592   1.562   3.628 -0.2391  0.2747 -0.9321
  855MOL0     H15388   3.454   1.485   3.549  0.4900 -1.1136  0.3708
  855MOL0     H15389   3.064   1.312   3.716  1.5430 -0.2934 -0.0361
  855MOL0     H15390   2.828   1.270   3.809  1.1398 -0.3211 -1.2923
  855MOL0     H15391   2.686   1.210   4.000 -0.5277  0.1927  0.6228
  855MOL0     H15392   2.584   1.188   3.859 -0.4949 -1.0961 -0.0993
  855MOL0     H15393   2.483   0.988   4.007 -1.9573  0.5303  1.7648
  855MOL0     H15394   2.599   1.050   4.125  1.7275 -1.8422 -1.7452
  855MOL0     H15395   2.360   1.209   4.008 -0.4407 -1.4510  0.1012
  855MOL0     H15396   2.483   1.278   4.128  0.2386 -1.1611  1.2306
  855MOL0     H15397   2.302   1.038   4.169 -0.0628 -1.2744  0.8275
  855MOL0     H15398   2.430   1.095   4.276  1.9977  2.2537 -0.4225
  855MOL0     H15399   2.179   1.248   4.181 -0.1647 -0.3273  0.1986
  855MOL0     H15400   2.305   1.318   4.279 -0.1143  0.3610 -0.7465
  855MOL0     H15401   2.266   1.159   4.468 -1.3209 -2.0401  1.1697
  855MOL0     H15402   2.119   1.242   4.402 -0.0804 -0.0747  0.0596
  855MOL0     H15403   2.203   0.948   4.362 -2.5804 -2.1690  3.9248
  855MOL0     H15404   2.076   1.010   4.265 -1.2790 -1.7660  1.7157
  855MOL0     H15405   2.091   0.977   4.553  2.2921  0.3042 -1.9548
  855MOL0     H15406   1.985   0.893   4.446 -2.5198  0.7981  1.2624
  855MOL0     H15407   2.922   0.867   3.872  1.4170 -0.6451 -1.8020
  855MOL0     H15408   3.139   0.892   3.808 -1.6807 -0.2520  0.7319
  855MOL0     H15409   3.480   1.022   3.692  2.5934 -1.4978 -1.1277
  855MOL0     H15410   3.728   0.999   3.735  0.4127  1.2773  1.2769
  855MOL0     H15411   5.516   0.579   4.053  3.3594 -2.5097 -1.1055
  855MOL0     H15412   5.736   0.588   3.975 -0.2254  1.0119  0.3624
  855MOL0     H15413   5.938   0.671   3.504  1.1975 -0.5932 -0.5798
  855MOL0     H15414   6.146   0.705   3.381  2.2698  0.1086  0.6821
  855MOL0     H15415   6.488   0.912   3.577  1.1571 -0.0541 -0.5838
  855MOL0     H15416   6.523   0.740   3.630 -0.4900  0.4192  1.2635
  855MOL0     H15417   6.599   0.870   3.372  0.2856 -0.6229 -0.8813
  855MOL0     H15418   6.616   0.701   3.402  0.2409  0.5297 -0.4249
  855MOL0     H15419   6.786   0.730   3.570  2.3149  1.1079  0.2092
  855MOL0     H15420   6.750   0.900   3.600  0.1834  0.0874 -0.2051
  855MOL0     H15421   6.820   0.931   3.339  0.7297  2.1140  0.6626
  855MOL0     H15422   6.868   0.763   3.350 -1.0051  0.2266 -0.1382
  855MOL0     H15423   7.182   0.937   3.567  0.1809  1.7222 -0.1905
  855MOL0     H15424   6.346   0.806   3.756  2.7835 -1.9276 -0.9798
  855MOL0     H15425   6.129   0.771   3.874  3.4720  0.8552  0.3089
  856MOL0     O15426   4.009   7.938   7.488 -0.1752  0.0332  0.1894
  856MOL0     C15427   4.087   7.840   7.505  0.9000 -0.3018  0.8123
  856MOL0     O15428   4.046   7.708   7.514 -0.4330  0.3357  0.4366
  856MOL0     C15429   3.942   7.686   7.425 -0.8776 -0.7294  0.2314
  856MOL0     C15430   3.808   7.695   7.468 -0.2491  0.4831  0.2673
  856MOL0     C15431   3.701   7.680   7.372  0.1702  0.6820 -0.4910
  856MOL0     C15432   3.722   7.636   7.240 -0.1179  0.1973 -0.5871
  856MOL0     O15433   3.617   7.597   7.159  0.2682  0.4827  0.1983
  856MOL0     C15434   3.599   7.686   7.052 -0.2097 -0.4923  0.7146
  856MOL0     C15435   3.567   7.606   6.926  0.1343  0.5128  0.2007
  856MOL0     C15436   3.453   7.508   6.936  0.0247  0.2575  0.1361
  856MOL0     C15437   3.327   7.576   6.977  0.5233 -0.0208  0.1574
  856MOL0     C15438   3.204   7.491   6.985  0.3399  0.1229 -0.9029
  856MOL0     C15439   3.069   7.563   6.997  0.5088  0.4243 -1.0249
  856MOL0     C15440   2.958   7.465   7.005 -0.1954  0.2232  0.4589
  856MOL0     C15441   2.822   7.529   7.026  1.0188  0.6129 -0.2935
  856MOL0     N15442   2.715   7.431   6.990  0.3848  0.0561 -0.5383
  856MOL0     C15443   2.677   7.396   6.864 -0.6894 -0.1835  0.2945
  856MOL0     C15444   2.568   7.326   6.883  0.1123  0.1596  0.0429
  856MOL0     C15445   2.497   7.252   6.780  0.0556  0.4698 -0.0079
  856MOL0     C15446   2.347   7.286   6.772 -0.0926  0.4570  0.4949
  856MOL0     C15447   2.281   7.190   6.871 -0.4475  0.8553  0.6938
  856MOL0     C15448   2.134   7.186   6.852  0.7635  0.3468  0.0183
  856MOL0     O15449   2.071   7.124   6.969  0.6703  0.6135  0.3727
  856MOL0     C15450   1.940   7.089   6.955 -0.1361  0.7837 -0.2486
  856MOL0     C15451   1.846   7.153   6.870 -0.0759 -0.3109  0.1687
  856MOL0     C15452   1.710   7.126   6.864  0.3036  0.4843 -0.5007
  856MOL0     C15453   1.630   7.210   6.767 -0.7349 -0.2983  0.3030
  856MOL0     C15454   1.651   7.031   6.955 -0.5748 -0.5922  0.1782
  856MOL0     C15455   1.504   6.980   6.953  0.4044  0.7201  0.0183
  856MOL0     O15456   1.489   6.853   6.984  0.3716 -0.6155  0.4049
  856MOL0     C15457   1.371   6.778   6.964 -0.3989  0.2237 -0.6047
  856MOL0     C15458   1.292   6.780   6.854  0.4225 -0.5314  0.4457
  856MOL0     C15459   1.180   6.703   6.849  0.5778  0.5801 -0.2739
  856MOL0     C15460   1.144   6.617   6.955 -0.5918  1.0613  0.0313
  856MOL0     O15461   1.020   6.560   6.940 -0.3406  0.2547  0.0779
  856MOL0     C15462   0.981   6.441   6.993 -0.4556 -0.8875 -0.3105
  856MOL0     C15463   0.833   6.435   6.993 -0.3353 -0.3468  0.2171
  856MOL0     C15464   0.768   6.427   6.852 -0.0616 -0.2563 -0.2361
  856MOL0     C15465   0.621   6.389   6.864  0.0119 -0.2520  0.3528
  856MOL0     C15466   0.530   6.480   6.953 -1.0581  0.5894 -0.1109
  856MOL0     C15467   0.387   6.468   6.937  0.0093  0.5605  0.1241
  856MOL0     C15468   0.308   6.577   7.008  0.3424  0.8997  0.4963
  856MOL0     C15469   0.158   6.529   7.001 -0.5498 -0.4887 -1.1354
  856MOL0    Cl15470   0.077   6.613   6.857  0.4198 -0.3152 -0.2268
  856MOL0     C15471   1.228   6.601   7.061  0.0877  0.6896 -0.5893
  856MOL0     C15472   1.336   6.683   7.066 -0.8893 -0.2640  0.5623
  856MOL0     O15473   1.417   7.054   6.923  0.0907 -0.5551 -0.0151
  856MOL0     C15474   1.737   6.979   7.056  0.3569 -0.1747  0.1667
  856MOL0     C15475   1.879   6.998   7.051 -0.4007  1.2663  0.1107
  856MOL0     N15476   2.546   7.312   7.016  0.7770  0.1037  0.4242
  856MOL0     N15477   2.637   7.376   7.082 -0.4169 -0.4490 -0.3264
  856MOL0     C15478   3.853   7.626   7.198 -0.8706 -0.8432  0.0648
  856MOL0     C15479   3.957   7.649   7.288 -1.1040  0.1719 -0.0601
  856MOL0     C15480   4.235   7.871   7.526 -0.0944  0.9775 -0.4470
  856MOL0     C15481   4.336   7.795   7.466  0.3775 -0.1506  0.3391
  856MOL0     C15482   4.473   7.812   7.495 -0.3913 -0.0411 -0.3833
  856MOL0     C15483   4.508   7.916   7.579  0.9336  0.8609 -0.7912
  856MOL0     O15484   4.639   7.933   7.611 -0.2934  1.1348  0.4382
  856MOL0     C15485   4.687   8.059   7.572  0.3950 -0.2033 -0.2807
  856MOL0     C15486   4.836   8.051   7.536 -0.2109 -0.0261  0.2215
  856MOL0     C15487   4.929   8.011   7.658 -0.1363 -0.3688 -0.0881
  856MOL0     C15488   5.082   8.028   7.630  0.2121 -0.5279 -0.6799
  856MOL0     C15489   5.152   7.994   7.758  0.4279 -0.6048 -0.1829
  856MOL0     C15490   5.211   7.963   7.859 -0.5970  0.9803 -0.3858
  856MOL0     C15491   4.409   7.997   7.633 -0.0186 -0.5200 -0.2043
  856MOL0     C15492   4.278   7.968   7.613 -0.1792  0.0613  0.7949
  856MOL0     H15493   3.790   7.735   7.567 -1.6906  0.7670 -0.0827
  856MOL0     H15494   3.596   7.683   7.397  0.1750 -3.1829  0.5603
  856MOL0     H15495   3.524   7.754   7.092  1.0049  0.1730  1.9265
  856MOL0     H15496   3.689   7.739   7.021  0.6751 -2.5768 -0.4805
  856MOL0     H15497   3.537   7.682   6.853  1.1773 -1.0805 -2.0110
  856MOL0     H15498   3.657   7.551   6.901  0.0861 -0.4084  1.9594
  856MOL0     H15499   3.441   7.467   6.835 -1.1997  1.1984 -0.1200
  856MOL0     H15500   3.478   7.429   7.007 -0.8409  0.9014  1.1971
  856MOL0     H15501   3.343   7.631   7.071  0.9657 -1.9711  1.2847
  856MOL0     H15502   3.311   7.646   6.894 -0.1806  0.3650  0.6099
  856MOL0     H15503   3.209   7.420   6.902  1.4830 -0.7022 -0.1708
  856MOL0     H15504   3.223   7.434   7.077  2.9731  3.2062  0.6711
  856MOL0     H15505   3.070   7.638   7.077 -1.6178  0.1820 -0.7031
  856MOL0     H15506   3.052   7.628   6.911 -0.0076  0.3330 -0.9945
  856MOL0     H15507   2.954   7.411   6.910  1.5620  0.6161  0.1350
  856MOL0     H15508   2.976   7.401   7.092 -2.1552  0.4998  1.1183
  856MOL0     H15509   2.817   7.612   6.955  1.6081 -2.6748 -4.5101
  856MOL0     H15510   2.812   7.557   7.132 -0.2325 -1.2960  0.1424
  856MOL0     H15511   2.725   7.412   6.768 -1.4424 -1.1130 -0.2578
  856MOL0     H15512   2.535   7.278   6.681 -1.4202 -1.2653 -1.0921
  856MOL0     H15513   2.517   7.145   6.785 -0.6048  0.2381 -1.6786
  856MOL0     H15514   2.316   7.263   6.669 -0.3964  0.3984  0.5970
  856MOL0     H15515   2.322   7.391   6.789  1.5025  1.0114 -0.4255
  856MOL0     H15516   2.302   7.242   6.965  1.9557  1.4826 -0.1176
  856MOL0     H15517   2.325   7.092   6.887 -0.3576  1.0125  1.4673
  856MOL0     H15518   2.111   7.130   6.760 -1.5617  1.1822  0.0194
  856MOL0     H15519   2.098   7.287   6.833  0.1604 -0.0013 -0.7795
  856MOL0     H15520   1.866   7.241   6.810 -5.8034  0.9648 -0.4392
  856MOL0     H15521   1.583   7.138   6.700 -0.2752  0.3368 -0.7159
  856MOL0     H15522   1.556   7.259   6.831 -0.4535 -0.3848  0.6994
  856MOL0     H15523   1.687   7.286   6.713  0.1036  0.7016  2.4832
  856MOL0     H15524   1.313   6.850   6.775  0.5384 -1.3704 -0.2787
  856MOL0     H15525   1.129   6.708   6.754  0.6426 -0.6179 -0.3968
  856MOL0     H15526   1.024   6.357   6.937  2.6997 -0.5714  1.4513
  856MOL0     H15527   1.008   6.432   7.098 -0.2159  2.3517 -0.0154
  856MOL0     H15528   0.793   6.357   7.057  1.7138 -3.1149 -1.6597
  856MOL0     H15529   0.805   6.534   7.031  0.4755  1.1626 -2.7218
  856MOL0     H15530   0.828   6.357   6.794  0.7790 -0.0577  0.3850
  856MOL0     H15531   0.767   6.523   6.799 -1.0172  1.1723  2.1651
  856MOL0     H15532   0.579   6.368   6.765 -0.5019 -2.4847  0.9896
  856MOL0     H15533   0.620   6.296   6.922 -2.1062  1.2136  2.8652
  856MOL0     H15534   0.556   6.583   6.928 -1.4783  0.5347 -0.8034
  856MOL0     H15535   0.557   6.468   7.058 -2.0003  1.2581  0.2275
  856MOL0     H15536   0.375   6.481   6.829  2.2605  0.2643 -0.2033
  856MOL0     H15537   0.357   6.364   6.957  1.0342  0.0839 -0.6962
  856MOL0     H15538   0.327   6.680   6.977 -1.6306  1.7514  1.8587
  856MOL0     H15539   0.331   6.569   7.115  1.8467 -0.8263  0.0880
  856MOL0     H15540   0.110   6.552   7.096  0.2443  0.1754 -0.8902
  856MOL0     H15541   0.152   6.420   6.991 -0.6253 -0.8260  1.8689
  856MOL0     H15542   1.195   6.545   7.148  0.5607  0.0528 -0.8117
  856MOL0     H15543   1.407   6.663   7.146 -1.1270  1.8183  1.3359
  856MOL0     H15544   1.696   6.915   7.134  0.8549 -0.7818 -0.0585
  856MOL0     H15545   1.942   6.951   7.127  1.1411  1.7505 -0.8273
  856MOL0     H15546   3.871   7.582   7.100  2.8494 -2.3605  1.2339
  856MOL0     H15547   4.060   7.638   7.253 -0.4823  2.9467  0.6646
  856MOL0     H15548   4.311   7.717   7.395  0.8414  0.8509 -0.9672
  856MOL0     H15549   4.549   7.751   7.446 -0.5630  0.1748 -0.9183
  856MOL0     H15550   4.628   8.110   7.496 -1.6364  0.5545  1.6857
  856MOL0     H15551   4.671   8.120   7.662  1.6041  0.5156 -0.5188
  856MOL0     H15552   4.871   8.148   7.498  2.1472 -0.4899  1.0617
  856MOL0     H15553   4.845   7.982   7.452  0.1624  0.0310  0.2130
  856MOL0     H15554   4.912   7.904   7.676 -1.8894 -0.3642 -1.4536
  856MOL0     H15555   4.895   8.070   7.744 -2.2449  1.6233 -2.1478
  856MOL0     H15556   5.107   8.130   7.600  1.9322 -0.6800  0.0743
  856MOL0     H15557   5.113   7.952   7.557  0.1152 -0.6812 -0.5630
  856MOL0     H15558   5.264   7.951   7.951 -1.4583 -0.1700 -0.0035
  856MOL0     H15559   4.441   8.088   7.683 -1.2100 -0.2920  0.1675
  856MOL0     H15560   4.209   8.043   7.650 -2.6443 -2.0020  0.6172
  857MOL0     O15561   9.111   2.666   4.405 -0.5348 -0.4167 -0.5097
  857MOL0     C15562   9.141   2.554   4.433  0.1101 -0.5311 -0.8312
  857MOL0     O15563   9.062   2.441   4.438  0.7464  0.1162 -0.3582
  857MOL0     C15564   8.928   2.457   4.438 -0.5439 -0.8438  0.5612
  857MOL0     C15565   8.862   2.383   4.340 -0.2721  0.7117 -0.0475
  857MOL0     C15566   8.721   2.374   4.334  0.9585 -0.9506  0.4962
  857MOL0     C15567   8.650   2.460   4.424 -0.2279 -0.0371  0.1550
  857MOL0     O15568   8.514   2.460   4.404  0.3006  0.0279 -0.4188
  857MOL0     C15569   8.445   2.549   4.486 -0.2196 -0.1680 -0.2906
  857MOL0     C15570   8.297   2.568   4.445  0.2474  0.2799 -1.2065
  857MOL0     C15571   8.198   2.469   4.500  0.2900 -0.4156  0.2198
  857MOL0     C15572   8.055   2.481   4.427  0.4222 -0.9174  0.1139
  857MOL0     C15573   7.942   2.386   4.496  0.4970 -0.5418  0.7037
  857MOL0     C15574   7.867   2.466   4.605  0.1896  0.3905 -0.0674
  857MOL0     C15575   7.791   2.376   4.708 -0.4310 -0.2520 -0.2462
  857MOL0     C15576   7.673   2.287   4.654 -0.0070 -0.5424  0.0599
  857MOL0     N15577   7.592   2.236   4.759  0.8046 -0.1416  0.2959
  857MOL0     C15578   7.535   2.312   4.855  0.7167  0.7459  0.3916
  857MOL0     C15579   7.468   2.223   4.937 -0.3783 -0.2285  0.6259
  857MOL0     C15580   7.405   2.270   5.060  0.2514 -0.5332 -0.0691
  857MOL0     C15581   7.256   2.304   5.043 -0.0484 -0.5308 -0.0277
  857MOL0     C15582   7.244   2.434   4.971  0.3130  0.2642  0.3194
  857MOL0     C15583   7.103   2.493   4.984  0.6663 -0.1553  0.0257
  857MOL0     O15584   7.115   2.631   4.960  0.0185 -0.8141  0.1168
  857MOL0     C15585   6.997   2.693   4.910  0.3652  0.0328  0.1281
  857MOL0     C15586   6.871   2.673   4.978  0.3935 -0.3087 -0.4956
  857MOL0     C15587   6.762   2.747   4.928 -0.5608  0.7765 -0.4005
  857MOL0     C15588   6.635   2.728   4.999  0.8718  0.9151 -0.1737
  857MOL0     C15589   6.778   2.823   4.812 -0.0882 -0.4456 -0.2036
  857MOL0     C15590   6.674   2.890   4.746  0.0290  0.2339  0.3778
  857MOL0     O15591   6.559   2.818   4.750 -0.0729 -0.4574 -0.2990
  857MOL0     C15592   6.459   2.838   4.662  0.2077  0.1303 -0.0814
  857MOL0     C15593   6.479   2.856   4.518  0.1085  0.6877 -0.6041
  857MOL0     C15594   6.375   2.894   4.432 -0.5518  0.7075 -0.1680
  857MOL0     C15595   6.250   2.923   4.480  0.2363  0.0140  0.1471
  857MOL0     O15596   6.144   2.952   4.392 -0.6546  0.1761 -0.4592
  857MOL0     C15597   6.014   2.922   4.443 -0.1751 -0.4424  0.5850
  857MOL0     C15598   5.913   2.970   4.343  0.0621 -0.9842 -0.2640
  857MOL0     C15599   5.769   2.953   4.399  0.6260 -0.5053 -0.2726
  857MOL0     C15600   5.661   3.032   4.317 -0.7595  0.5211  0.4499
  857MOL0     C15601   5.663   2.975   4.175 -0.0166 -0.2681 -0.6625
  857MOL0     C15602   5.746   3.055   4.070  0.8493 -0.1350 -0.9567
  857MOL0     C15603   5.718   2.997   3.932 -0.2060 -0.1424  0.5500
  857MOL0     C15604   5.773   3.091   3.817 -0.0240 -0.3459 -0.4809
  857MOL0    Cl15605   5.952   3.099   3.806 -0.3400  0.3508  0.1340
  857MOL0     C15606   6.229   2.920   4.618 -0.0542  0.1559  0.0816
  857MOL0     C15607   6.334   2.875   4.710  0.3526  0.3317 -0.6523
  857MOL0     O15608   6.681   2.999   4.689 -0.5504 -0.4314  0.9679
  857MOL0     C15609   6.901   2.847   4.756  0.7555 -0.1972  0.1607
  857MOL0     C15610   7.013   2.778   4.801  1.1546  0.2442 -0.2299
  857MOL0     N15611   7.496   2.095   4.898  0.4502 -0.0918 -0.3659
  857MOL0     N15612   7.561   2.105   4.787  0.6263  0.2822 -0.0980
  857MOL0     C15613   8.726   2.537   4.524 -0.1993  0.4571 -1.1277
  857MOL0     C15614   8.860   2.528   4.536 -0.3230 -0.2800 -0.7038
  857MOL0     C15615   9.283   2.515   4.434 -1.4500 -1.0155 -0.5246
  857MOL0     C15616   9.318   2.389   4.378 -0.7580 -0.6997 -0.2095
  857MOL0     C15617   9.452   2.349   4.350 -0.8475 -0.1357  0.2829
  857MOL0     C15618   9.553   2.434   4.400  0.1856  0.7438  0.0132
  857MOL0     O15619   9.685   2.392   4.391  0.1534 -0.3497 -0.8347
  857MOL0     C15620   9.721   2.259   4.367 -0.1084  0.3661  0.9450
  857MOL0     C15621   9.869   2.230   4.350  0.0987  0.1670 -0.9774
  857MOL0     C15622   9.948   2.240   4.488  0.2975 -0.9475 -0.9588
  857MOL0     C15623  10.085   2.161   4.484 -0.0252 -0.0135  0.1988
  857MOL0     C15624  10.178   2.210   4.389  0.0408 -0.1917  0.2843
  857MOL0     C15625  10.246   2.260   4.301 -0.7292 -0.0161 -0.0123
  857MOL0     C15626   9.521   2.564   4.457  0.1906 -0.1184 -0.1156
  857MOL0     C15627   9.387   2.607   4.461  0.5006 -0.8553  0.8283
  857MOL0     H15628   8.927   2.317   4.282 -0.5855  2.7496 -2.9431
  857MOL0     H15629   8.664   2.327   4.255  1.7978  1.1656 -1.4811
  857MOL0     H15630   8.471   2.521   4.589  0.4734  2.9950  0.4970
  857MOL0     H15631   8.495   2.643   4.461 -1.3978 -0.0669 -2.4855
  857MOL0     H15632   8.268   2.666   4.483 -4.3959 -1.4329  0.4436
  857MOL0     H15633   8.301   2.564   4.335  0.3839 -0.8393 -1.1767
  857MOL0     H15634   8.229   2.364   4.492 -0.6377 -0.6868 -0.0433
  857MOL0     H15635   8.175   2.489   4.605 -2.6827 -0.0898 -0.3902
  857MOL0     H15636   8.019   2.584   4.433 -1.6792 -1.6773  1.8626
  857MOL0     H15637   8.064   2.451   4.322  1.9054  1.0116 -0.3517
  857MOL0     H15638   7.864   2.371   4.420  0.2325  0.4695  0.7541
  857MOL0     H15639   7.978   2.294   4.544  0.4237 -0.2023  1.4222
  857MOL0     H15640   7.944   2.527   4.653 -0.6415  0.4273  1.2479
  857MOL0     H15641   7.793   2.534   4.561  0.2204  1.1986  1.0955
  857MOL0     H15642   7.857   2.298   4.747  2.1664 -0.6738 -4.8649
  857MOL0     H15643   7.763   2.455   4.779  2.9673  0.0483  0.9544
  857MOL0     H15644   7.721   2.213   4.589  1.9614  1.4523 -0.9021
  857MOL0     H15645   7.610   2.342   4.584 -1.4397  1.0223  2.4456
  857MOL0     H15646   7.530   2.420   4.858 -1.5663  0.8099 -2.0418
  857MOL0     H15647   7.404   2.185   5.129 -1.4476  0.5820  1.3692
  857MOL0     H15648   7.471   2.339   5.113 -1.0270 -1.1656  2.4990
  857MOL0     H15649   7.205   2.294   5.139 -0.2518 -1.7537 -0.2470
  857MOL0     H15650   7.207   2.229   4.981  1.6818 -0.7871 -1.1495
  857MOL0     H15651   7.264   2.437   4.863  0.0696 -1.0770  0.2182
  857MOL0     H15652   7.309   2.508   5.018 -1.8931  1.7379  1.2711
  857MOL0     H15653   7.062   2.480   5.085  0.8451  1.1484  0.2805
  857MOL0     H15654   7.030   2.450   4.914  1.4920 -0.8063 -0.4542
  857MOL0     H15655   6.865   2.609   5.065  1.3840 -3.0668 -2.3023
  857MOL0     H15656   6.571   2.653   4.950 -0.1405  1.3765  0.4052
  857MOL0     H15657   6.647   2.699   5.103  1.2323 -0.5740 -0.6058
  857MOL0     H15658   6.572   2.817   5.000  1.1740  1.2253  3.2146
  857MOL0     H15659   6.579   2.870   4.479  1.5127  1.4762  2.8735
  857MOL0     H15660   6.389   2.890   4.324  3.6299 -1.7337  0.2233
  857MOL0     H15661   5.997   2.819   4.475  2.4080 -1.2840 -0.4131
  857MOL0     H15662   5.992   2.988   4.527 -2.6405 -1.1536  0.5557
  857MOL0     H15663   5.932   3.076   4.324 -2.9239 -0.3915 -0.5091
  857MOL0     H15664   5.933   2.924   4.246  1.7450 -0.9863  0.0640
  857MOL0     H15665   5.762   3.004   4.495 -2.9632 -1.0071 -0.1172
  857MOL0     H15666   5.749   2.847   4.421 -0.4191 -1.0529 -3.3157
  857MOL0     H15667   5.559   3.022   4.355 -1.4698  1.3235 -1.1381
  857MOL0     H15668   5.696   3.135   4.329  0.3136  0.3802 -1.1940
  857MOL0     H15669   5.560   2.994   4.147  0.2032  0.8881 -0.7347
  857MOL0     H15670   5.675   2.866   4.166  2.6014  0.0717 -2.4551
  857MOL0     H15671   5.724   3.162   4.079  0.6325 -0.2441 -0.0842
  857MOL0     H15672   5.854   3.050   4.089  0.5962 -0.3685  0.5595
  857MOL0     H15673   5.611   2.988   3.910 -0.0589  1.5130 -1.1430
  857MOL0     H15674   5.763   2.898   3.919 -0.3246 -0.2664  1.0461
  857MOL0     H15675   5.736   3.187   3.853  0.3735  0.1610 -1.3874
  857MOL0     H15676   5.728   3.070   3.719  0.1544 -2.4406 -0.1762
  857MOL0     H15677   6.136   2.948   4.666  1.2700  0.6570  2.5406
  857MOL0     H15678   6.320   2.863   4.817  0.0099 -2.3113 -0.9276
  857MOL0     H15679   6.911   2.908   4.667 -0.2219 -1.0104 -0.5225
  857MOL0     H15680   7.108   2.788   4.751  1.0384  3.1240 -0.0770
  857MOL0     H15681   8.675   2.586   4.606  0.9583  1.3587 -0.9141
  857MOL0     H15682   8.916   2.563   4.623 -0.1706  3.7054 -2.1901
  857MOL0     H15683   9.241   2.315   4.363 -2.1432  0.7921 -0.8181
  857MOL0     H15684   9.473   2.251   4.310 -0.1069  1.0050 -2.3419
  857MOL0     H15685   9.692   2.204   4.458 -0.1745  0.0289  0.7208
  857MOL0     H15686   9.676   2.212   4.280 -0.0315  0.8429  0.6444
  857MOL0     H15687   9.913   2.298   4.277 -1.4128  0.1672 -1.9372
  857MOL0     H15688   9.876   2.130   4.306 -3.1407 -0.5657 -0.0797
  857MOL0     H15689   9.885   2.200   4.568 -0.7051  2.3615  0.0632
  857MOL0     H15690   9.971   2.344   4.515  0.6041 -1.6670  1.8801
  857MOL0     H15691  10.061   2.058   4.458  1.8122 -0.1375 -1.1713
  857MOL0     H15692  10.134   2.169   4.582  2.0816  0.0824 -0.8118
  857MOL0     H15693  10.317   2.292   4.228  2.5473 -1.6636  2.2013
  857MOL0     H15694   9.604   2.626   4.491 -0.6238  0.3591  1.0923
  857MOL0     H15695   9.369   2.706   4.503 -1.0741 -1.4913  1.7332
  858MOL0     O15696   9.947   0.440   2.013 -0.5347  0.5248 -0.3836
  858MOL0     C15697   9.950   0.327   2.060 -1.1935 -0.0626  0.9138
  858MOL0     O15698   9.845   0.253   2.109  1.0915 -0.7732 -0.2996
  858MOL0     C15699   9.715   0.298   2.125  0.0898  0.3101 -0.3760
  858MOL0     C15700   9.684   0.432   2.129 -0.2954 -0.1584 -0.0561
  858MOL0     C15701   9.558   0.478   2.152 -0.1359 -0.2999 -0.1977
  858MOL0     C15702   9.455   0.389   2.156 -0.3252  0.1885  0.0270
  858MOL0     O15703   9.329   0.443   2.178  0.3644  0.0462  0.5147
  858MOL0     C15704   9.214   0.357   2.183 -0.3042 -0.9365  0.5103
  858MOL0     C15705   9.086   0.443   2.181  0.0894 -0.2728  0.2368
  858MOL0     C15706   8.958   0.381   2.207  1.2065  0.2691 -0.2794
  858MOL0     C15707   8.852   0.486   2.240  0.4326  0.0540 -0.6182
  858MOL0     C15708   8.717   0.423   2.261 -0.1031 -0.2380 -0.3706
  858MOL0     C15709   8.717   0.328   2.397 -0.1094 -0.7011 -0.0335
  858MOL0     C15710   8.578   0.272   2.400  0.2562 -0.3568  0.7371
  858MOL0     C15711   8.546   0.206   2.533  0.3762  0.1065 -0.4660
  858MOL0     N15712   8.404   0.162   2.546 -0.0913  0.0528 -0.5229
  858MOL0     C15713   8.313   0.219   2.634 -0.8532 -0.3789 -0.4585
  858MOL0     C15714   8.192   0.159   2.609  0.5051 -0.6738 -0.3610
  858MOL0     C15715   8.060   0.182   2.684 -0.4979 -1.0210 -0.3175
  858MOL0     C15716   7.937   0.153   2.591 -0.9012 -0.4075 -0.2727
  858MOL0     C15717   7.800   0.118   2.649 -0.1119 -0.1614  0.0752
  858MOL0     C15718   7.764   0.195   2.775 -0.1683 -0.2466 -0.0053
  858MOL0     O15719   7.703   0.310   2.716  0.1196 -0.2028 -0.4891
  858MOL0     C15720   7.568   0.313   2.740  0.4406  0.0975  0.6087
  858MOL0     C15721   7.483   0.213   2.705  0.0376  0.2486  0.6461
  858MOL0     C15722   7.344   0.237   2.707  0.1730 -0.2982  0.0946
  858MOL0     C15723   7.251   0.125   2.657 -0.6774  0.9340  0.3719
  858MOL0     C15724   7.290   0.356   2.770 -0.7731 -0.1235  0.3182
  858MOL0     C15725   7.147   0.386   2.803  0.1306  0.5395  0.8686
  858MOL0     O15726   7.120   0.478   2.895  0.6215  0.4990  0.4306
  858MOL0     C15727   6.995   0.498   2.940 -0.1822  0.9610 -0.4403
  858MOL0     C15728   6.924   0.391   3.000  0.0358  0.0223  0.0833
  858MOL0     C15729   6.786   0.416   3.030 -0.7504  0.0797  0.7193
  858MOL0     C15730   6.716   0.531   3.001  0.1346 -0.1449 -1.1354
  858MOL0     O15731   6.583   0.543   3.030  0.0190  0.0587  0.0506
  858MOL0     C15732   6.512   0.659   3.000  0.5014 -0.3242 -0.1654
  858MOL0     C15733   6.393   0.660   3.096 -0.2332 -0.6694 -0.5271
  858MOL0     C15734   6.299   0.786   3.109  0.7174 -0.1032 -0.2132
  858MOL0     C15735   6.213   0.814   2.983  0.1086  0.1376 -0.5898
  858MOL0     C15736   6.107   0.911   3.005 -0.2605 -0.4690  0.3781
  858MOL0     C15737   5.973   0.850   3.062  0.2902  0.0045  0.3920
  858MOL0     C15738   5.881   0.959   3.126 -1.4841 -0.2748 -0.2751
  858MOL0     C15739   5.747   0.918   3.185 -0.0353 -0.1415 -0.1788
  858MOL0    Cl15740   5.768   0.821   3.334 -0.5006 -0.1092 -0.0640
  858MOL0     C15741   6.795   0.626   2.934  0.1542 -0.2838 -0.7139
  858MOL0     C15742   6.926   0.619   2.911 -0.4598 -0.2179 -0.0355
  858MOL0     O15743   7.061   0.321   2.738  0.2970  0.3193  0.4426
  858MOL0     C15744   7.388   0.449   2.816  1.3143 -0.3344  0.2577
  858MOL0     C15745   7.519   0.427   2.799  0.0740  0.3756  0.0433
  858MOL0     N15746   8.215   0.059   2.520 -0.2457 -0.3056  1.1031
  858MOL0     N15747   8.335   0.065   2.478 -0.5155 -0.3169  0.1509
  858MOL0     C15748   9.478   0.255   2.153 -0.0248 -0.5112 -0.1558
  858MOL0     C15749   9.605   0.210   2.135 -0.6218  0.7060  0.3992
  858MOL0     C15750  10.089   0.272   2.068  0.3538  0.6083 -0.3400
  858MOL0     C15751  10.203   0.352   2.068 -0.6818 -0.0390 -0.1696
  858MOL0     C15752  10.331   0.298   2.090 -0.6098 -0.2322  0.3882
  858MOL0     C15753  10.350   0.159   2.110 -0.3171 -0.6051  0.7321
  858MOL0     O15754  10.482   0.127   2.141 -0.1613  0.2143 -0.0925
  858MOL0     C15755  10.514  -0.020   2.139 -0.3537 -0.7577  0.0238
  858MOL0     C15756  10.512  -0.077   2.281 -0.1627 -0.2065  0.4003
  858MOL0     C15757  10.634  -0.022   2.346  0.0730  0.3951  0.6196
  858MOL0     C15758  10.622  -0.043   2.497  0.7029 -0.0450 -0.2764
  858MOL0     C15759  10.614  -0.190   2.525 -0.0052  0.3057  0.3237
  858MOL0     C15760  10.626  -0.310   2.546  0.0861  0.0809  0.0220
  858MOL0     C15761  10.237   0.072   2.106 -0.6385 -1.0352 -0.1588
  858MOL0     C15762  10.108   0.133   2.083 -1.2046  0.6078 -0.1369
  858MOL0     H15763   9.758   0.512   2.126 -1.9709  1.4450  0.1571
  858MOL0     H15764   9.527   0.579   2.179 -1.1668 -1.2780  2.6389
  858MOL0     H15765   9.206   0.282   2.103  0.4016 -0.6702  0.1860
  858MOL0     H15766   9.216   0.291   2.271  0.1453  1.2767  2.2425
  858MOL0     H15767   9.115   0.517   2.257  3.4040 -2.4699  1.3258
  858MOL0     H15768   9.078   0.504   2.091 -1.3015 -1.8976 -0.7789
  858MOL0     H15769   8.925   0.333   2.115  2.1564 -0.0906 -0.4414
  858MOL0     H15770   8.970   0.308   2.288 -0.2010 -0.7354 -0.9324
  858MOL0     H15771   8.877   0.545   2.328 -1.7294  0.6812 -0.3598
  858MOL0     H15772   8.842   0.553   2.154 -0.6091 -0.9226 -1.2841
  858MOL0     H15773   8.651   0.509   2.275  1.1852  1.6394 -4.2533
  858MOL0     H15774   8.674   0.368   2.177  0.6416 -1.4505  0.0194
  858MOL0     H15775   8.798   0.254   2.400 -0.4855 -1.1034  0.2528
  858MOL0     H15776   8.743   0.393   2.481  3.5643 -2.5640  0.4965
  858MOL0     H15777   8.501   0.349   2.388  2.0781  1.1210 -2.5289
  858MOL0     H15778   8.564   0.194   2.325  3.9817  0.5797 -1.1227
  858MOL0     H15779   8.556   0.277   2.615  0.5229 -0.9104  0.4171
  858MOL0     H15780   8.613   0.121   2.546  0.2415  0.0759  0.0664
  858MOL0     H15781   8.326   0.294   2.711 -3.1073 -0.0879 -0.2957
  858MOL0     H15782   8.049   0.105   2.760 -4.3991 -1.6033 -1.2376
  858MOL0     H15783   8.063   0.284   2.724  0.5810 -1.3299  0.4196
  858MOL0     H15784   7.947   0.066   2.525 -0.7929 -1.7474  1.4238
  858MOL0     H15785   7.925   0.237   2.522 -2.4439 -0.3984 -0.0337
  858MOL0     H15786   7.792   0.013   2.680 -2.3916 -1.2186 -3.4365
  858MOL0     H15787   7.723   0.127   2.572  0.2099  0.0704 -0.2245
  858MOL0     H15788   7.844   0.219   2.846 -2.2647 -0.4545  2.5755
  858MOL0     H15789   7.700   0.129   2.834  1.2612 -0.1826  1.6952
  858MOL0     H15790   7.522   0.127   2.651 -1.7362  0.0332 -0.3423
  858MOL0     H15791   7.212   0.153   2.559  1.1444  2.5588  0.0400
  858MOL0     H15792   7.309   0.034   2.641 -1.1525  0.9500 -1.7638
  858MOL0     H15793   7.165   0.106   2.721 -1.0423  1.3187  0.0014
  858MOL0     H15794   6.969   0.294   3.017 -2.7514 -1.3516  0.1486
  858MOL0     H15795   6.736   0.328   3.069 -0.3686 -0.0700  0.8733
  858MOL0     H15796   6.578   0.747   3.003 -0.3209  0.2824  1.7237
  858MOL0     H15797   6.485   0.642   2.896  1.9070  2.4226 -1.0781
  858MOL0     H15798   6.331   0.571   3.078  0.9556 -1.1678 -2.4016
  858MOL0     H15799   6.440   0.654   3.195 -0.8880  0.1184 -0.1583
  858MOL0     H15800   6.361   0.876   3.121 -0.2251  0.4449  0.7595
  858MOL0     H15801   6.238   0.773   3.199  1.3447 -2.1809 -0.0381
  858MOL0     H15802   6.283   0.850   2.907 -1.4551  1.0200 -1.6736
  858MOL0     H15803   6.167   0.718   2.959  0.0515  0.4998 -2.0190
  858MOL0     H15804   6.084   0.953   2.906  2.8773  1.6229  0.3718
  858MOL0     H15805   6.143   0.994   3.066  0.0318  1.3152 -2.0600
  858MOL0     H15806   5.910   0.808   2.984  2.3857 -3.6792  0.4503
  858MOL0     H15807   6.000   0.767   3.128  0.9614  0.0846  0.2274
  858MOL0     H15808   5.867   1.040   3.054  2.2187 -0.5082 -1.4925
  858MOL0     H15809   5.946   0.995   3.207 -0.9642 -0.3683 -0.6474
  858MOL0     H15810   5.682   0.872   3.110 -0.8869  0.0170  0.4584
  858MOL0     H15811   5.697   1.012   3.212  0.2472 -0.2052  0.5774
  858MOL0     H15812   6.747   0.719   2.904 -1.8765 -0.9075  0.4078
  858MOL0     H15813   6.980   0.700   2.864  0.1183  0.3095  1.4529
  858MOL0     H15814   7.361   0.546   2.855  0.6856 -0.4947  0.2325
  858MOL0     H15815   7.589   0.504   2.828 -1.6929  1.4272  1.7804
  858MOL0     H15816   9.399   0.181   2.163  0.2846 -0.9085 -0.6220
  858MOL0     H15817   9.622   0.103   2.135  1.1144  0.8958  2.5857
  858MOL0     H15818  10.201   0.461   2.067  2.0110  0.0839 -1.5856
  858MOL0     H15819  10.411   0.369   2.107 -0.6369 -0.2055  0.4050
  858MOL0     H15820  10.451  -0.077   2.070 -2.3835  0.2202  0.9928
  858MOL0     H15821  10.615  -0.028   2.096 -0.9915 -1.1291 -1.4812
  858MOL0     H15822  10.519  -0.186   2.287 -1.7091 -0.2607  4.5837
  858MOL0     H15823  10.416  -0.045   2.322 -0.4717  0.6592 -0.9347
  858MOL0     H15824  10.659   0.084   2.331 -1.6499  0.5248 -2.3614
  858MOL0     H15825  10.720  -0.079   2.310 -1.0269  1.2401 -4.1604
  858MOL0     H15826  10.540   0.014   2.541 -0.4122 -2.1127  0.4760
  858MOL0     H15827  10.711  -0.008   2.551  1.0866 -1.7818  0.3102
  858MOL0     H15828  10.627  -0.415   2.564  0.3602  0.0960  0.0979
  858MOL0     H15829  10.249  -0.033   2.128  2.0630 -1.1016 -1.5094
  858MOL0     H15830  10.021   0.070   2.100 -0.0366 -2.2097 -3.3302
  859MOL0     O15831   7.284   6.117   7.625  0.0314 -0.4648  0.6000
  859MOL0     C15832   7.260   6.241   7.626  0.0845 -0.1682  0.5089
  859MOL0     O15833   7.164   6.303   7.698  0.4920  0.2439 -0.4352
  859MOL0     C15834   7.113   6.234   7.804  0.1898  0.1025 -0.5844
  859MOL0     C15835   7.166   6.228   7.931 -0.0861 -0.9033 -0.2185
  859MOL0     C15836   7.104   6.155   8.037 -0.0106  0.1179  1.0994
  859MOL0     C15837   6.982   6.094   8.012  0.0507  0.0678  0.0675
  859MOL0     O15838   6.912   6.019   8.102 -0.0401  0.1400 -0.1552
  859MOL0     C15839   6.919   6.055   8.236 -0.0760 -0.3944 -0.4848
  859MOL0     C15840   6.779   6.062   8.278  0.2626  0.1829 -0.1569
  859MOL0     C15841   6.765   6.092   8.423  0.2269 -0.0353 -0.2804
  859MOL0     C15842   6.625   6.132   8.448  0.0187  0.8845 -0.5359
  859MOL0     C15843   6.597   6.116   8.596  0.5519  0.2247 -0.1971
  859MOL0     C15844   6.447   6.151   8.628 -0.1084 -0.7942 -0.3180
  859MOL0     C15845   6.351   6.044   8.577 -0.5016 -0.6534 -0.6547
  859MOL0     C15846   6.201   6.080   8.587 -1.0698  0.6833 -0.7410
  859MOL0     N15847   6.155   6.108   8.731  0.0052  0.7402  0.0415
  859MOL0     C15848   6.161   6.024   8.839  0.2730  0.2703  0.4010
  859MOL0     C15849   6.117   6.101   8.941  0.3163 -0.5259 -0.0808
  859MOL0     C15850   6.095   6.053   9.082 -0.5986 -0.7326  0.2653
  859MOL0     C15851   5.956   6.087   9.131  0.7798  0.0739 -0.6309
  859MOL0     C15852   5.839   6.017   9.047  0.8612 -0.3611 -0.5774
  859MOL0     C15853   5.817   5.865   9.080 -0.4273 -0.1731 -0.2273
  859MOL0     O15854   5.715   5.823   8.994 -0.7474  0.1816  1.0997
  859MOL0     C15855   5.589   5.805   9.038  0.5451  0.4093 -0.3393
  859MOL0     C15856   5.549   5.857   9.163  1.0497 -0.0429  0.2953
  859MOL0     C15857   5.407   5.873   9.193  0.3000  0.8515 -0.1582
  859MOL0     C15858   5.366   5.918   9.324  0.3636 -0.1726 -0.6192
  859MOL0     C15859   5.311   5.832   9.099 -0.4340  0.7970 -0.3089
  859MOL0     C15860   5.167   5.821   9.133 -0.2224  0.7481  0.0291
  859MOL0     O15861   5.111   5.896   9.231 -0.0639  0.1926 -0.5562
  859MOL0     C15862   4.986   5.862   9.277  0.5182 -0.7396  0.2491
  859MOL0     C15863   4.874   5.888   9.194  0.1984 -0.1477  0.1392
  859MOL0     C15864   4.741   5.874   9.249  0.1102  0.1961  0.2403
  859MOL0     C15865   4.719   5.828   9.381  0.3680 -0.3250  0.2368
  859MOL0     O15866   4.594   5.817   9.441 -0.0820  0.3603 -0.4736
  859MOL0     C15867   4.484   5.856   9.354  1.0697  0.8420 -0.9174
  859MOL0     C15868   4.355   5.843   9.435  0.5657  0.4776 -0.0368
  859MOL0     C15869   4.364   5.909   9.574 -0.5130  0.7112 -0.0011
  859MOL0     C15870   4.225   5.892   9.632 -0.7173 -0.6959 -0.5731
  859MOL0     C15871   4.120   5.978   9.561  0.1493  0.0256 -0.1765
  859MOL0     C15872   4.001   5.982   9.664 -0.3558 -0.2789 -0.2706
  859MOL0     C15873   3.891   6.064   9.601  0.0751 -0.6453 -0.5850
  859MOL0     C15874   3.780   6.094   9.708 -0.6529  0.0692 -0.4432
  859MOL0    Cl15875   3.640   6.202   9.657  0.0044 -0.5296 -0.0582
  859MOL0     C15876   4.832   5.799   9.458  0.3035  0.2010  0.4520
  859MOL0     C15877   4.964   5.815   9.401  0.6323 -0.3832 -0.0415
  859MOL0     O15878   5.108   5.740   9.060 -0.6532  0.2459 -0.1390
  859MOL0     C15879   5.362   5.781   8.975 -0.1679 -0.0176 -0.2829
  859MOL0     C15880   5.497   5.759   8.947  0.7603 -0.6714 -0.2132
  859MOL0     N15881   6.085   6.226   8.894  0.2793  0.2153 -0.5736
  859MOL0     N15882   6.106   6.224   8.772  0.1788  0.1502 -0.5159
  859MOL0     C15883   6.930   6.100   7.883 -0.5114 -0.4688 -0.3873
  859MOL0     C15884   6.992   6.173   7.786 -0.5572 -0.4885  0.5988
  859MOL0     C15885   7.319   6.334   7.529 -0.5054  1.0842 -0.0484
  859MOL0     C15886   7.349   6.461   7.574 -0.7681  0.2584 -0.4235
  859MOL0     C15887   7.427   6.552   7.495  0.4577  0.3758 -0.6368
  859MOL0     C15888   7.472   6.508   7.379  0.5654  0.0697 -0.0923
  859MOL0     O15889   7.553   6.585   7.290  0.3143  0.2800 -0.6499
  859MOL0     C15890   7.593   6.722   7.334  0.2876 -0.0800 -0.2235
  859MOL0     C15891   7.729   6.730   7.408 -0.2907 -0.3602 -0.5824
  859MOL0     C15892   7.830   6.628   7.345 -0.2259 -0.0645  0.0151
  859MOL0     C15893   7.955   6.630   7.429  0.2558 -0.1122  0.6311
  859MOL0     C15894   8.041   6.733   7.380  0.2170  0.1590  0.4762
  859MOL0     C15895   8.120   6.822   7.354  0.8494  0.1426 -0.0606
  859MOL0     C15896   7.451   6.373   7.334 -0.7489 -0.2295 -0.1202
  859MOL0     C15897   7.369   6.286   7.410  0.2501 -0.2915  0.3248
  859MOL0     H15898   7.257   6.282   7.956 -0.2877 -1.1969  1.1969
  859MOL0     H15899   7.150   6.153   8.135  0.2886  0.7925  0.9852
  859MOL0     H15900   6.969   5.988   8.307 -0.9116  1.1829  1.6857
  859MOL0     H15901   6.952   6.158   8.251 -2.6358  0.4991 -0.5397
  859MOL0     H15902   6.725   6.140   8.222 -0.4010 -0.9571 -1.1527
  859MOL0     H15903   6.728   5.966   8.268 -0.7768  0.6530  0.5193
  859MOL0     H15904   6.785   6.002   8.482  0.6687 -0.4171 -1.0041
  859MOL0     H15905   6.832   6.175   8.446  2.8384 -1.7876 -1.1248
  859MOL0     H15906   6.599   6.232   8.413 -0.2530  0.3823 -1.8358
  859MOL0     H15907   6.557   6.069   8.390  1.6377 -2.1636  0.6200
  859MOL0     H15908   6.617   6.011   8.623 -1.1682  0.6509  3.2278
  859MOL0     H15909   6.655   6.189   8.652 -1.6617  3.0123 -1.2870
  859MOL0     H15910   6.439   6.166   8.736 -0.7032  0.1028 -0.4759
  859MOL0     H15911   6.426   6.245   8.576 -0.4555 -1.4561 -1.4141
  859MOL0     H15912   6.372   6.004   8.478  0.6349  1.3921 -1.2939
  859MOL0     H15913   6.369   5.965   8.651  0.3562 -0.2633 -0.4244
  859MOL0     H15914   6.151   5.996   8.539 -2.7281  1.8564 -1.1474
  859MOL0     H15915   6.181   6.168   8.525 -0.0472  1.6425  0.2445
  859MOL0     H15916   6.176   5.917   8.847  3.1939  0.5685  0.0843
  859MOL0     H15917   6.115   5.946   9.098  1.7037 -0.7177 -1.9242
  859MOL0     H15918   6.159   6.110   9.150 -1.1304 -0.5734  0.6497
  859MOL0     H15919   5.944   6.196   9.134 -0.8574 -0.1020  0.8438
  859MOL0     H15920   5.951   6.056   9.236  0.0151 -0.9196 -0.9448
  859MOL0     H15921   5.870   6.019   8.942 -0.4553 -2.0546 -1.0497
  859MOL0     H15922   5.750   6.078   9.062  0.6608 -0.4244 -1.4303
  859MOL0     H15923   5.805   5.836   9.184 -1.1816  0.7552 -0.0381
  859MOL0     H15924   5.912   5.820   9.050 -0.2512  1.1386 -1.7990
  859MOL0     H15925   5.621   5.900   9.233 -2.1485 -0.6952  4.3783
  859MOL0     H15926   5.295   6.000   9.311  0.5990  0.4294  1.4972
  859MOL0     H15927   5.309   5.843   9.379 -0.9593  1.6929  0.6971
  859MOL0     H15928   5.456   5.954   9.375  1.4041 -2.5251 -0.6625
  859MOL0     H15929   4.881   5.930   9.094 -0.2466 -1.7510 -0.5933
  859MOL0     H15930   4.656   5.898   9.186 -0.6821 -0.8046  0.9028
  859MOL0     H15931   4.507   5.957   9.321  1.2212  1.1949  0.2260
  859MOL0     H15932   4.472   5.792   9.266 -1.4046 -1.5502  0.9925
  859MOL0     H15933   4.281   5.881   9.364  0.2025 -0.5205 -0.2155
  859MOL0     H15934   4.338   5.735   9.441  2.2842  0.2387  1.3868
  859MOL0     H15935   4.385   6.015   9.555 -1.8445  1.4686  2.3707
  859MOL0     H15936   4.445   5.873   9.637 -0.0356 -0.1372 -1.0726
  859MOL0     H15937   4.187   5.790   9.647  0.7831 -1.2227 -0.2205
  859MOL0     H15938   4.240   5.930   9.733  1.4913 -1.5839 -0.5189
  859MOL0     H15939   4.100   5.935   9.462  0.4175 -2.2452  0.6928
  859MOL0     H15940   4.151   6.083   9.559  0.0993  0.0741  0.8544
  859MOL0     H15941   3.980   5.876   9.677 -0.8761 -0.6714 -3.5514
  859MOL0     H15942   4.040   6.032   9.753  1.6170 -0.1807 -1.1327
  859MOL0     H15943   3.849   6.010   9.516  0.4462 -1.6136 -0.1676
  859MOL0     H15944   3.937   6.154   9.561  0.2045  0.4051  1.7781
  859MOL0     H15945   3.837   6.153   9.781  0.9194 -1.1766 -0.6323
  859MOL0     H15946   3.730   6.006   9.750 -0.2068 -0.5357 -1.1673
  859MOL0     H15947   4.820   5.780   9.564  1.3207 -0.3219  0.4873
  859MOL0     H15948   5.045   5.794   9.470 -0.6481 -0.6263  1.4346
  859MOL0     H15949   5.286   5.754   8.902  1.4213 -0.4071 -1.8736
  859MOL0     H15950   5.515   5.729   8.844 -2.4151  0.5908 -1.2757
  859MOL0     H15951   6.836   6.054   7.854 -1.2660  0.4282  0.5375
  859MOL0     H15952   6.949   6.182   7.686 -0.7419  1.6770  0.8393
  859MOL0     H15953   7.299   6.502   7.661 -2.1617  0.5386 -1.3106
  859MOL0     H15954   7.451   6.652   7.531 -1.1601  1.9750 -3.5923
  859MOL0     H15955   7.604   6.776   7.240 -1.1904 -2.4080 -1.8381
  859MOL0     H15956   7.525   6.774   7.403  0.6195 -1.1284  0.9328
  859MOL0     H15957   7.725   6.712   7.516 -2.0982  1.6995 -0.2300
  859MOL0     H15958   7.756   6.836   7.403 -0.6473 -0.3146 -2.1635
  859MOL0     H15959   7.858   6.644   7.241  1.4598 -1.3338  0.2241
  859MOL0     H15960   7.785   6.528   7.346  3.6711 -2.0164 -1.3631
  859MOL0     H15961   7.995   6.529   7.412  0.1625  0.1677 -1.5681
  859MOL0     H15962   7.929   6.641   7.534 -1.8127  0.7791  0.0824
  859MOL0     H15963   8.197   6.892   7.333 -0.4185  1.3325 -0.9049
  859MOL0     H15964   7.517   6.347   7.251  1.4408  0.0478  1.4328
  859MOL0     H15965   7.351   6.183   7.383 -1.6059 -0.4020  1.7560
  860MOL0     O15966   9.732   2.578   3.810 -0.0118 -0.0517 -0.4567
  860MOL0     C15967   9.690   2.548   3.923  0.2244 -0.3691 -0.5078
  860MOL0     O15968   9.759   2.482   4.016 -0.5245 -0.3281 -0.5282
  860MOL0     C15969   9.889   2.448   3.989  0.8887  0.2320 -0.0081
  860MOL0     C15970   9.991   2.546   3.972 -0.5281  0.6010 -0.0545
  860MOL0     C15971  10.125   2.505   3.957 -0.2273 -0.0196 -0.3249
  860MOL0     C15972  10.166   2.368   3.971  0.6619  0.2661  0.0855
  860MOL0     O15973  10.289   2.323   3.942 -0.2970 -0.2814  0.3896
  860MOL0     C15974  10.388   2.416   3.888 -0.2485  0.3373  0.6295
  860MOL0     C15975  10.536   2.347   3.880  0.3839 -0.9040 -0.6181
  860MOL0     C15976  10.574   2.299   4.020  0.4679 -0.9764  0.0095
  860MOL0     C15977  10.727   2.277   4.016 -0.3853  0.6825  0.1239
  860MOL0     C15978  10.755   2.135   3.951 -0.3440 -1.5066 -0.1607
  860MOL0     C15979  10.883   2.112   3.872  0.3323  0.0726 -0.2433
  860MOL0     C15980  10.931   1.973   3.841  0.4114  0.2536 -0.1709
  860MOL0     C15981  10.831   1.914   3.736 -0.4659  0.0246  0.4765
  860MOL0     N15982  10.764   1.789   3.790 -0.1804  0.0893 -0.7160
  860MOL0     C15983  10.671   1.787   3.893 -0.0909 -0.8711  0.8560
  860MOL0     C15984  10.627   1.658   3.899 -0.1813  0.1585 -0.0300
  860MOL0     C15985  10.524   1.606   4.000 -0.2799 -0.0416 -0.1504
  860MOL0     C15986  10.587   1.494   4.086 -0.3482  0.0676 -0.3592
  860MOL0     C15987  10.585   1.354   4.014  0.6775 -0.0366 -0.3713
  860MOL0     C15988  10.602   1.232   4.119  0.6478  0.0021  0.1305
  860MOL0     O15989  10.518   1.243   4.235  0.5770 -0.5409 -0.1176
  860MOL0     C15990  10.378   1.237   4.218 -1.4372  0.3642 -0.4749
  860MOL0     C15991  10.304   1.145   4.142 -0.3799 -0.2027 -0.2051
  860MOL0     C15992  10.166   1.158   4.138  0.1971  0.0796 -0.7019
  860MOL0     C15993  10.098   1.055   4.050  0.2441 -0.5826  0.0493
  860MOL0     C15994  10.095   1.266   4.207 -0.2371  0.4416 -0.1039
  860MOL0     C15995   9.956   1.276   4.190 -0.1111  0.0282 -0.3900
  860MOL0     O15996   9.881   1.279   4.308 -0.2483 -0.0519  0.5638
  860MOL0     C15997   9.744   1.255   4.298 -0.8303  0.3422 -0.1830
  860MOL0     C15998   9.696   1.124   4.288 -0.7842  0.5492 -0.0276
  860MOL0     C15999   9.560   1.098   4.288  0.1294  0.3297  0.2137
  860MOL0     C16000   9.470   1.198   4.309 -0.4329 -0.9444  0.2120
  860MOL0     O16001   9.342   1.158   4.322 -0.1416 -0.1611 -0.4643
  860MOL0     C16002   9.251   1.212   4.233 -0.3396 -0.3121 -0.6364
  860MOL0     C16003   9.129   1.115   4.226  0.5417 -0.2914  0.9639
  860MOL0     C16004   9.080   1.080   4.362 -0.0846 -0.4880  0.4883
  860MOL0     C16005   8.924   1.059   4.357 -0.5670 -0.0093 -0.1730
  860MOL0     C16006   8.876   0.982   4.481  0.0284  0.6785 -0.5565
  860MOL0     C16007   8.734   0.926   4.446  0.0056  0.3559  1.6731
  860MOL0     C16008   8.661   0.878   4.573 -0.1732 -0.3158 -0.5504
  860MOL0     C16009   8.512   0.864   4.553  0.1169  0.3361  0.5039
  860MOL0    Cl16010   8.456   0.759   4.415 -0.1513 -0.1146  0.1102
  860MOL0     C16011   9.520   1.336   4.311 -0.2246 -0.2536  0.0442
  860MOL0     C16012   9.653   1.362   4.302 -0.5533  0.5149  0.0351
  860MOL0     O16013   9.907   1.278   4.079 -0.7112  0.1982 -0.6694
  860MOL0     C16014  10.164   1.352   4.289  0.0897 -0.3023  0.3555
  860MOL0     C16015  10.306   1.333   4.297  0.4338  0.2750 -0.4719
  860MOL0     N16016  10.697   1.582   3.801 -0.4191 -0.1922 -0.2333
  860MOL0     N16017  10.779   1.654   3.740 -0.1610 -0.8951 -0.3263
  860MOL0     C16018  10.060   2.277   3.991  0.4298  0.7184 -0.6035
  860MOL0     C16019   9.926   2.306   3.987  0.8743 -0.3797 -0.0886
  860MOL0     C16020   9.547   2.592   3.953 -0.1051 -0.7837 -0.7656
  860MOL0     C16021   9.482   2.687   3.872  0.0507 -0.8119 -0.0844
  860MOL0     C16022   9.337   2.712   3.889  0.3753  0.1744  0.0361
  860MOL0     C16023   9.270   2.646   3.990  0.0617  0.9895 -0.1245
  860MOL0     O16024   9.133   2.657   3.977  0.3932 -0.1619  0.2779
  860MOL0     C16025   9.058   2.541   4.020  0.4324 -0.5350 -0.6900
  860MOL0     C16026   8.914   2.596   4.038 -0.5046  0.1378  0.3271
  860MOL0     C16027   8.908   2.712   4.134  0.6085 -0.2338 -0.2733
  860MOL0     C16028   8.767   2.755   4.167  0.6530 -0.9560  0.0160
  860MOL0     C16029   8.688   2.786   4.043  1.2181  0.7620  0.3616
  860MOL0     C16030   8.635   2.815   3.943  0.0973 -1.1022  1.2407
  860MOL0     C16031   9.336   2.561   4.073 -0.7608  0.0632 -0.1529
  860MOL0     C16032   9.473   2.543   4.056 -0.3697 -0.4182 -0.5653
  860MOL0     H16033   9.981   2.654   3.973  2.7650  1.0193 -1.2862
  860MOL0     H16034  10.203   2.580   3.955  1.1044 -1.3773 -1.9320
  860MOL0     H16035  10.369   2.453   3.787  0.0357  1.3355  0.9347
  860MOL0     H16036  10.401   2.507   3.947 -1.8351  1.0252 -0.0330
  860MOL0     H16037  10.516   2.261   3.814 -2.6046 -0.6101 -0.2309
  860MOL0     H16038  10.602   2.420   3.833  1.9567 -1.0068  1.2712
  860MOL0     H16039  10.553   2.372   4.098  0.3922 -2.3755  1.3266
  860MOL0     H16040  10.525   2.203   4.040  1.4983 -1.7325 -0.9590
  860MOL0     H16041  10.788   2.345   3.956 -0.1664 -0.1810 -0.6444
  860MOL0     H16042  10.769   2.280   4.117  0.1970  0.5823 -0.1162
  860MOL0     H16043  10.752   2.049   4.019 -1.8354 -3.0265 -2.0106
  860MOL0     H16044  10.674   2.120   3.879 -0.8660  1.3932 -0.3254
  860MOL0     H16045  10.873   2.169   3.780  1.6887  0.5900 -0.0933
  860MOL0     H16046  10.961   2.167   3.925 -1.4864  2.9077 -0.2845
  860MOL0     H16047  11.033   1.982   3.802  1.0753  0.1121  1.4663
  860MOL0     H16048  10.926   1.908   3.928 -0.9134 -0.4432 -0.7425
  860MOL0     H16049  10.886   1.882   3.647  2.6483  1.9872  1.5004
  860MOL0     H16050  10.751   1.981   3.706 -1.9527 -1.1524  1.6767
  860MOL0     H16051  10.645   1.872   3.955 -3.5613 -0.3178 -1.1346
  860MOL0     H16052  10.492   1.687   4.067 -2.2072  0.4130 -1.5145
  860MOL0     H16053  10.434   1.571   3.948 -1.8821  1.7190  1.2647
  860MOL0     H16054  10.524   1.491   4.175 -0.1876  1.3652 -0.1858
  860MOL0     H16055  10.694   1.505   4.106 -0.2144 -2.2305  0.4659
  860MOL0     H16056  10.668   1.359   3.943 -0.0868 -0.7132 -1.3381
  860MOL0     H16057  10.494   1.342   3.954 -0.3133 -0.5173  1.1894
  860MOL0     H16058  10.705   1.236   4.158  0.5077  0.6008  0.4598
  860MOL0     H16059  10.590   1.137   4.066 -1.0580 -0.5620  1.4460
  860MOL0     H16060  10.364   1.077   4.081  1.8330  1.9553 -0.6031
  860MOL0     H16061   9.997   1.024   4.079  0.4166  1.8487  4.0371
  860MOL0     H16062  10.101   1.093   3.948  0.0981 -3.2247 -0.9999
  860MOL0     H16063  10.154   0.962   4.060 -2.5581 -2.5176 -0.8737
  860MOL0     H16064   9.758   1.036   4.278 -0.0227  1.0514  0.1811
  860MOL0     H16065   9.528   0.994   4.289 -1.5742  0.7698 -1.6815
  860MOL0     H16066   9.217   1.309   4.270  0.7068  0.4192 -1.5406
  860MOL0     H16067   9.298   1.229   4.135 -1.8409  3.2130 -0.8975
  860MOL0     H16068   9.054   1.164   4.164  1.7613  1.0841  0.5007
  860MOL0     H16069   9.168   1.025   4.179  0.7169 -0.5767  1.6485
  860MOL0     H16070   9.103   1.158   4.435 -0.0453 -2.2314  2.4558
  860MOL0     H16071   9.127   0.985   4.391  0.0515 -0.7497 -0.5577
  860MOL0     H16072   8.880   1.159   4.359 -0.4416  0.0399  0.2375
  860MOL0     H16073   8.906   1.017   4.258 -1.2583 -1.3573  0.4945
  860MOL0     H16074   8.856   1.050   4.564 -0.2175 -0.1794  0.1115
  860MOL0     H16075   8.943   0.903   4.516 -0.3699 -0.5427 -2.4010
  860MOL0     H16076   8.692   1.012   4.393 -0.2669 -0.5631  0.3260
  860MOL0     H16077   8.744   0.847   4.370 -1.5943  2.7425 -1.2128
  860MOL0     H16078   8.672   0.953   4.652 -1.2868 -1.6504  0.9438
  860MOL0     H16079   8.694   0.781   4.612 -0.5146  0.5425  2.1125
  860MOL0     H16080   8.474   0.966   4.538  0.5727  0.5033  0.4715
  860MOL0     H16081   8.473   0.828   4.649  0.0950 -1.0684 -0.0137
  860MOL0     H16082   9.451   1.415   4.339 -0.7721 -2.0039  4.2510
  860MOL0     H16083   9.694   1.462   4.316  0.6357 -0.0688  0.9121
  860MOL0     H16084  10.107   1.421   4.351 -0.2306 -2.3964  2.5080
  860MOL0     H16085  10.365   1.407   4.350 -0.2724  0.8546 -0.4728
  860MOL0     H16086  10.083   2.172   4.009 -1.5001  0.3333 -0.1079
  860MOL0     H16087   9.854   2.226   4.003 -1.2486  1.1860 -1.2374
  860MOL0     H16088   9.533   2.725   3.784  1.4117 -2.3617 -0.0030
  860MOL0     H16089   9.287   2.781   3.821  1.1810  0.0752 -0.6778
  860MOL0     H16090   9.068   2.464   3.943  0.3987  0.0154 -1.2466
  860MOL0     H16091   9.087   2.512   4.122 -1.0982  1.3793  0.3774
  860MOL0     H16092   8.849   2.511   4.063  1.6036 -0.7388  3.3648
  860MOL0     H16093   8.883   2.633   3.940 -0.8251  2.9387  1.4083
  860MOL0     H16094   8.953   2.802   4.091  0.4841  0.9001  1.7926
  860MOL0     H16095   8.955   2.688   4.231 -0.3082 -2.0113 -0.2415
  860MOL0     H16096   8.768   2.841   4.234 -2.3413 -1.2137  0.5231
  860MOL0     H16097   8.708   2.680   4.221 -1.8210  0.2793 -0.8397
  860MOL0     H16098   8.572   2.848   3.863 -1.3344 -1.0697  2.3366
  860MOL0     H16099   9.284   2.483   4.128 -1.5878  1.2751  0.8458
  860MOL0     H16100   9.533   2.476   4.118  0.9880  0.8279 -0.4640
  861MOL0     O16101   5.199   9.052   3.472 -0.3105  0.0006 -0.4934
  861MOL0     C16102   5.180   9.007   3.357 -0.8121 -0.1917 -0.4201
  861MOL0     O16103   5.056   8.976   3.296 -0.1309 -0.5869  0.3719
  861MOL0     C16104   4.939   9.007   3.358 -0.8421  0.7467 -0.4221
  861MOL0     C16105   4.830   8.943   3.297  0.3223  0.0663 -0.2345
  861MOL0     C16106   4.695   8.943   3.347 -0.1960  0.5682 -0.9765
  861MOL0     C16107   4.672   9.002   3.472 -0.1683 -1.1539 -0.1159
  861MOL0     O16108   4.547   8.998   3.528  0.5501 -0.1064 -0.0081
  861MOL0     C16109   4.528   9.058   3.659  0.0765 -0.7762 -0.5201
  861MOL0     C16110   4.389   9.031   3.728  0.2880  0.3914  0.1482
  861MOL0     C16111   4.285   9.032   3.618 -0.8513 -0.2982 -0.2985
  861MOL0     C16112   4.157   9.005   3.698  0.2452 -0.6853  0.4402
  861MOL0     C16113   4.033   8.992   3.606  0.0153 -0.4734  0.0927
  861MOL0     C16114   3.911   8.998   3.703 -1.1888 -0.2944  0.3685
  861MOL0     C16115   3.775   8.984   3.625 -0.0123 -0.1659  0.3813
  861MOL0     C16116   3.648   9.017   3.704  0.5499 -0.2133  0.1637
  861MOL0     N16117   3.559   9.097   3.620 -1.0745  0.1729 -0.0231
  861MOL0     C16118   3.429   9.098   3.614  0.2924 -0.1220 -0.7568
  861MOL0     C16119   3.385   9.209   3.552  0.3829 -0.6217  0.4442
  861MOL0     C16120   3.241   9.251   3.527 -0.1024  0.5640  0.0882
  861MOL0     C16121   3.176   9.336   3.640  1.0883  0.6035  0.1321
  861MOL0     C16122   3.243   9.483   3.648  0.0180 -0.2650 -0.5158
  861MOL0     C16123   3.183   9.549   3.772 -0.6293  0.7504 -0.0716
  861MOL0     O16124   3.041   9.550   3.769  0.0263  0.4260  0.1409
  861MOL0     C16125   2.964   9.638   3.703  0.3372 -0.6726 -1.0211
  861MOL0     C16126   2.820   9.625   3.711 -0.6933 -0.2369 -0.4485
  861MOL0     C16127   2.731   9.710   3.640 -0.4442  0.1158  0.0950
  861MOL0     C16128   2.584   9.681   3.671 -0.5861 -0.4451 -1.2066
  861MOL0     C16129   2.785   9.797   3.552 -0.5126  0.6877 -0.0561
  861MOL0     C16130   2.689   9.871   3.470  0.3017  0.6062 -0.3291
  861MOL0     O16131   2.733   9.909   3.335 -1.3720  0.3582 -0.1146
  861MOL0     C16132   2.660   9.991   3.262  0.8819  0.9828 -0.4888
  861MOL0     C16133   2.538   9.954   3.196  0.2667 -0.4327  0.2807
  861MOL0     C16134   2.461  10.041   3.116 -0.6876 -0.3474  1.2288
  861MOL0     C16135   2.510  10.165   3.075  1.1819  0.3903 -0.4268
  861MOL0     O16136   2.432  10.253   3.011 -0.6533 -0.5868  0.1575
  861MOL0     C16137   2.497  10.325   2.894  0.2108 -0.2831 -0.0998
  861MOL0     C16138   2.499  10.241   2.768  0.4013  0.5642  0.0326
  861MOL0     C16139   2.360  10.227   2.696 -0.4395 -0.4596 -0.5268
  861MOL0     C16140   2.376  10.162   2.556  0.3305 -0.1138 -0.4434
  861MOL0     C16141   2.238  10.116   2.495  0.5710 -0.9305  0.0157
  861MOL0     C16142   2.127  10.231   2.488 -0.3857 -0.4380 -0.3113
  861MOL0     C16143   1.981  10.193   2.447 -0.6910 -0.1111  0.3073
  861MOL0     C16144   1.887  10.311   2.435  0.2219  0.0029  0.5961
  861MOL0    Cl16145   1.736  10.232   2.428 -0.1691 -0.2858  0.6497
  861MOL0     C16146   2.633  10.205   3.136  0.6432  0.0764 -0.0658
  861MOL0     C16147   2.706  10.121   3.231  0.1738 -1.2896  0.9249
  861MOL0     O16148   2.590   9.916   3.524  0.3275  0.3101  0.2870
  861MOL0     C16149   2.931   9.807   3.529  0.3563 -0.4781 -0.5916
  861MOL0     C16150   3.012   9.725   3.606 -0.1527 -0.0795 -0.2293
  861MOL0     N16151   3.497   9.280   3.515  0.0172 -0.5284 -0.3073
  861MOL0     N16152   3.598   9.205   3.547  0.3864  0.3305 -0.5382
  861MOL0     C16153   4.786   9.084   3.528  0.1719  0.9263  0.1760
  861MOL0     C16154   4.908   9.085   3.471  0.2440  0.6902 -0.2776
  861MOL0     C16155   5.305   8.973   3.281  0.2306  0.8074 -0.0785
  861MOL0     C16156   5.295   8.905   3.159 -0.1838 -0.3433  0.3110
  861MOL0     C16157   5.405   8.858   3.086  0.3207  0.4259 -0.5849
  861MOL0     C16158   5.530   8.872   3.150  0.1231 -0.3073  0.2024
  861MOL0     O16159   5.635   8.813   3.087 -0.0567  0.1128 -0.3522
  861MOL0     C16160   5.749   8.773   3.165 -0.6738 -1.4083 -0.1728
  861MOL0     C16161   5.875   8.825   3.098  0.1778 -0.5775  0.1545
  861MOL0     C16162   6.003   8.756   3.154 -0.3712 -0.7739 -0.5558
  861MOL0     C16163   6.049   8.620   3.088 -0.5219 -0.6305  0.2322
  861MOL0     C16164   5.972   8.509   3.123 -0.0177 -0.7419  0.0492
  861MOL0     C16165   5.891   8.423   3.142  0.3200  0.1656  0.3318
  861MOL0     C16166   5.539   8.942   3.270 -0.2553 -0.6574 -0.4345
  861MOL0     C16167   5.431   8.996   3.338 -0.6156 -0.1368 -0.6373
  861MOL0     H16168   4.856   8.885   3.209  4.2276  0.3558  0.5429
  861MOL0     H16169   4.624   8.877   3.299 -0.2244  0.3752 -0.6734
  861MOL0     H16170   4.601   9.030   3.736 -1.9379 -0.1597  1.7435
  861MOL0     H16171   4.539   9.167   3.658  1.6725 -0.7435  3.3062
  861MOL0     H16172   4.388   8.938   3.786 -3.1255  0.4161  0.3128
  861MOL0     H16173   4.374   9.113   3.799 -0.0972 -0.9310  1.6510
  861MOL0     H16174   4.275   9.125   3.562 -1.6437 -2.0573 -3.3444
  861MOL0     H16175   4.313   8.954   3.546  2.6225 -0.4627  1.0140
  861MOL0     H16176   4.160   8.915   3.761 -1.1801 -0.4301  0.8975
  861MOL0     H16177   4.152   9.091   3.765  1.9186 -0.6706  0.5788
  861MOL0     H16178   4.035   9.075   3.535 -1.2614 -0.0508  0.5326
  861MOL0     H16179   4.035   8.896   3.555  1.0749 -0.7269  0.5857
  861MOL0     H16180   3.926   8.907   3.762  0.3304  0.1302  0.6808
  861MOL0     H16181   3.924   9.096   3.749 -0.8244  0.6160 -1.5601
  861MOL0     H16182   3.789   9.058   3.546  2.8752 -0.9295  0.0511
  861MOL0     H16183   3.757   8.892   3.569 -3.0263  1.9396 -2.4873
  861MOL0     H16184   3.679   9.083   3.786  0.2146 -1.1389  1.0527
  861MOL0     H16185   3.604   8.931   3.754 -0.1767  1.6392  2.9323
  861MOL0     H16186   3.366   9.015   3.645  1.9835 -1.1619  0.0677
  861MOL0     H16187   3.246   9.312   3.436  0.9709 -3.0031 -2.4697
  861MOL0     H16188   3.179   9.161   3.518  0.1243  0.4594 -0.5137
  861MOL0     H16189   3.180   9.294   3.741 -2.4370  0.1797  0.2081
  861MOL0     H16190   3.068   9.344   3.624  1.4412  4.0163 -1.4389
  861MOL0     H16191   3.221   9.542   3.559  2.1691  2.3833  0.5593
  861MOL0     H16192   3.351   9.492   3.663 -0.2059  2.4745 -0.0110
  861MOL0     H16193   3.229   9.648   3.768  2.5964 -0.6305  0.1358
  861MOL0     H16194   3.211   9.503   3.868  1.3007  2.0853  0.0583
  861MOL0     H16195   2.778   9.552   3.779  0.5689 -1.0753 -0.5389
  861MOL0     H16196   2.523   9.669   3.581  0.1815 -0.4468 -1.7421
  861MOL0     H16197   2.567   9.592   3.733 -1.2605 -0.2158 -1.0638
  861MOL0     H16198   2.545   9.763   3.731  2.0471 -0.0855  0.1959
  861MOL0     H16199   2.504   9.853   3.215 -0.2362  0.0435  2.1225
  861MOL0     H16200   2.365  10.005   3.079 -0.6093  0.3971  0.2716
  861MOL0     H16201   2.454  10.425   2.877  0.0855 -0.0024  1.6600
  861MOL0     H16202   2.602  10.349   2.914 -0.3202  1.0918  1.3297
  861MOL0     H16203   2.568  10.275   2.690  1.5965 -1.4453  0.1437
  861MOL0     H16204   2.531  10.144   2.807 -1.6843 -0.8450 -1.5707
  861MOL0     H16205   2.333  10.332   2.686  1.6654 -0.0011 -2.4034
  861MOL0     H16206   2.290  10.163   2.750  1.1647 -3.0514 -1.3245
  861MOL0     H16207   2.419  10.231   2.483  0.7554  0.4351  0.3100
  861MOL0     H16208   2.448  10.079   2.563  3.9814  2.7085 -1.2693
  861MOL0     H16209   2.203  10.023   2.540 -2.6463 -0.4487 -1.1888
  861MOL0     H16210   2.256  10.085   2.391 -0.9500 -1.3691 -0.1352
  861MOL0     H16211   2.121  10.275   2.589 -1.8855 -0.5840 -0.3014
  861MOL0     H16212   2.162  10.312   2.425  0.3219  1.6655  2.5727
  861MOL0     H16213   1.948  10.129   2.530 -0.7232  0.5922  0.8471
  861MOL0     H16214   1.984  10.133   2.356  0.4480  1.1301 -0.5049
  861MOL0     H16215   1.889  10.378   2.349 -0.7205  0.9128  1.2659
  861MOL0     H16216   1.894  10.373   2.525  0.8253  1.6521 -0.5601
  861MOL0     H16217   2.673  10.299   3.100  0.9269 -0.0375 -0.0496
  861MOL0     H16218   2.802  10.163   3.258  0.3367  1.4867 -3.1467
  861MOL0     H16219   2.984   9.874   3.462 -0.0646 -1.3232 -1.8129
  861MOL0     H16220   3.119   9.732   3.587 -0.6206  0.0807 -3.3435
  861MOL0     H16221   4.767   9.152   3.610 -2.1926  0.9680 -0.3374
  861MOL0     H16222   4.976   9.157   3.516 -0.6304  1.2114  0.2275
  861MOL0     H16223   5.203   8.873   3.111 -0.3834  2.4976 -1.4279
  861MOL0     H16224   5.390   8.803   2.994 -1.5890  1.0650 -0.6811
  861MOL0     H16225   5.747   8.801   3.270 -3.7147 -0.1663 -0.4477
  861MOL0     H16226   5.742   8.664   3.168 -1.8166 -1.3228  2.0793
  861MOL0     H16227   5.894   8.932   3.110  1.8763 -0.4670 -2.6453
  861MOL0     H16228   5.874   8.815   2.989  5.7011  0.6545 -0.2859
  861MOL0     H16229   5.993   8.744   3.262  1.2413  1.0497 -0.1537
  861MOL0     H16230   6.087   8.825   3.136  0.8973 -2.3230 -0.8191
  861MOL0     H16231   6.151   8.603   3.123 -0.0524  2.2016  0.4461
  861MOL0     H16232   6.067   8.623   2.980  0.7244 -1.8421  0.3663
  861MOL0     H16233   5.819   8.345   3.129  1.0560 -0.4549 -0.0241
  861MOL0     H16234   5.640   8.963   3.304  0.1636  2.0088 -2.9444
  861MOL0     H16235   5.442   9.061   3.424 -1.0035 -2.8373  1.6316
  862MOL0     O16236  11.125   3.762   6.048 -0.4103  0.9460  0.0290
  862MOL0     C16237  11.189   3.711   5.960 -0.1712 -0.2236  0.3727
  862MOL0     O16238  11.145   3.646   5.850  0.5434 -0.1829 -0.5822
  862MOL0     C16239  11.009   3.605   5.853 -0.3326  0.4041 -0.1481
  862MOL0     C16240  10.979   3.472   5.891 -0.1866 -0.0616  0.5128
  862MOL0     C16241  10.845   3.441   5.923 -0.0044 -0.0741  1.2170
  862MOL0     C16242  10.747   3.541   5.916 -0.2045  0.5266  0.1409
  862MOL0     O16243  10.621   3.509   5.951 -0.8070  0.1619  0.5658
  862MOL0     C16244  10.540   3.470   5.836  0.2877 -0.3661  0.1220
  862MOL0     C16245  10.390   3.488   5.866  0.3899  0.6869 -0.3856
  862MOL0     C16246  10.365   3.621   5.936 -0.5276 -0.1324  0.2393
  862MOL0     C16247  10.215   3.644   5.938 -0.1358 -0.2838 -0.0299
  862MOL0     C16248  10.156   3.781   5.974  0.0385  0.0410  0.0475
  862MOL0     C16249  10.190   3.871   5.851 -0.3857 -0.0401 -0.1917
  862MOL0     C16250  10.133   4.010   5.861 -0.0875 -0.9768 -0.4751
  862MOL0     C16251   9.982   4.002   5.825 -0.5477 -0.0836 -0.0400
  862MOL0     N16252   9.918   4.119   5.879 -0.0928  0.7260 -0.1878
  862MOL0     C16253   9.898   4.150   6.009 -0.3530 -0.2263 -0.3566
  862MOL0     C16254   9.819   4.266   6.007 -0.6104 -0.1022  0.8317
  862MOL0     C16255   9.783   4.331   6.137 -0.0934 -1.0239 -0.0357
  862MOL0     C16256   9.698   4.238   6.222  0.8812  0.2262  0.3870
  862MOL0     C16257   9.585   4.156   6.139 -0.8033 -0.6463 -0.3354
  862MOL0     C16258   9.469   4.107   6.231 -1.7897  0.3957 -0.2417
  862MOL0     O16259   9.380   4.210   6.247  0.7935  0.1378 -0.0201
  862MOL0     C16260   9.276   4.195   6.338 -0.0202  1.5429 -0.3986
  862MOL0     C16261   9.223   4.312   6.393  0.3692  0.1954  0.0982
  862MOL0     C16262   9.136   4.309   6.496  0.2891  0.2488  0.1548
  862MOL0     C16263   9.080   4.442   6.540 -0.0123  0.9963  0.0368
  862MOL0     C16264   9.095   4.183   6.550  0.6044 -0.2574 -0.4934
  862MOL0     C16265   8.994   4.170   6.663 -0.0238 -0.4242 -0.1524
  862MOL0     O16266   8.989   4.267   6.760  0.0674  0.3559  0.2986
  862MOL0     C16267   8.873   4.302   6.812  0.5560  0.1371  0.2732
  862MOL0     C16268   8.880   4.357   6.941  0.4913 -0.1208 -0.6762
  862MOL0     C16269   8.760   4.399   7.008 -0.8167 -0.4417 -0.1509
  862MOL0     C16270   8.642   4.413   6.940 -0.2798  0.0818  0.0920
  862MOL0     O16271   8.535   4.454   7.021  0.1965  0.7516 -0.3367
  862MOL0     C16272   8.403   4.458   6.963  0.5918 -0.5409 -0.5573
  862MOL0     C16273   8.328   4.331   6.961  0.1885  0.6163  0.2281
  862MOL0     C16274   8.198   4.323   6.881 -0.5104 -0.0348  0.7533
  862MOL0     C16275   8.227   4.315   6.733  1.2218 -0.0212 -0.8391
  862MOL0     C16276   8.091   4.338   6.658 -0.2133  0.0588  0.2214
  862MOL0     C16277   8.107   4.295   6.513 -0.2283 -1.1499 -0.0904
  862MOL0     C16278   7.972   4.300   6.450  0.0562  0.7011  0.6404
  862MOL0     C16279   7.984   4.248   6.306  0.1970 -0.3799  0.0622
  862MOL0    Cl16280   7.822   4.200   6.257 -0.2505  0.5193 -0.3870
  862MOL0     C16281   8.645   4.372   6.808  0.1965 -0.3193  0.3282
  862MOL0     C16282   8.753   4.312   6.745 -0.1728  0.0328  0.4337
  862MOL0     O16283   8.935   4.060   6.664 -0.6942 -0.0223 -0.6420
  862MOL0     C16284   9.136   4.063   6.487 -0.9153 -0.4301 -0.2171
  862MOL0     C16285   9.236   4.068   6.387 -0.5077  0.1473  0.0118
  862MOL0     N16286   9.776   4.289   5.876 -0.2783  0.1796 -0.3236
  862MOL0     N16287   9.837   4.198   5.807  0.2824 -0.4947  0.4719
  862MOL0     C16288  10.773   3.659   5.855 -0.0895 -0.0645 -0.2663
  862MOL0     C16289  10.907   3.695   5.829  0.4180 -0.4966 -0.7842
  862MOL0     C16290  11.338   3.736   5.965  0.3529 -0.1421 -0.0215
  862MOL0     C16291  11.429   3.657   5.891  0.2216  0.3472 -0.0081
  862MOL0     C16292  11.567   3.674   5.898 -0.1721 -0.8740 -0.1488
  862MOL0     C16293  11.617   3.753   6.000  0.4096  0.2431 -0.3733
  862MOL0     O16294  11.753   3.761   6.029 -0.7809  0.8932 -0.2326
  862MOL0     C16295  11.845   3.673   5.958 -0.0249 -0.3387 -0.2253
  862MOL0     C16296  11.894   3.722   5.824 -0.0109  0.2078 -0.3230
  862MOL0     C16297  11.969   3.851   5.849  0.1970 -0.6977  0.0745
  862MOL0     C16298  12.045   3.903   5.727 -0.7777 -0.1480  0.2025
  862MOL0     C16299  12.175   3.839   5.720  0.5732 -0.2545 -0.1873
  862MOL0     C16300  12.275   3.774   5.715  0.7201 -0.1418 -0.1855
  862MOL0     C16301  11.529   3.821   6.078 -1.0914 -0.8069  0.2501
  862MOL0     C16302  11.393   3.826   6.060  0.1151 -0.3921  0.9864
  862MOL0     H16303  11.067   3.409   5.889  0.7560  1.2180 -0.1940
  862MOL0     H16304  10.816   3.349   5.972 -1.4056  0.6358  1.7658
  862MOL0     H16305  10.564   3.538   5.754  3.5760  0.5279  1.6661
  862MOL0     H16306  10.570   3.367   5.819  0.0950 -0.2493 -0.9820
  862MOL0     H16307  10.341   3.491   5.769  0.1655  1.3914 -0.2529
  862MOL0     H16308  10.351   3.408   5.930  2.0660  0.4749  0.4262
  862MOL0     H16309  10.404   3.611   6.038 -0.7217  0.7061  0.4029
  862MOL0     H16310  10.416   3.707   5.889 -1.7757  0.4638 -0.0553
  862MOL0     H16311  10.163   3.621   5.844  1.0047 -1.7984 -0.3301
  862MOL0     H16312  10.177   3.574   6.012 -1.1710  0.3122  0.0161
  862MOL0     H16313  10.050   3.764   5.993 -0.5281  4.1729  1.6312
  862MOL0     H16314  10.192   3.828   6.066  1.5475 -0.9653  0.0155
  862MOL0     H16315  10.299   3.880   5.844 -0.3202 -0.0423  0.7201
  862MOL0     H16316  10.164   3.823   5.757 -1.6061  0.9782 -0.4049
  862MOL0     H16317  10.140   4.042   5.965 -3.1597 -1.6579  0.0409
  862MOL0     H16318  10.193   4.080   5.803  0.2638  0.3411  1.3864
  862MOL0     H16319   9.933   3.915   5.870  1.3278 -0.1662  1.9914
  862MOL0     H16320   9.981   3.992   5.716 -0.8860  0.5985 -0.1014
  862MOL0     H16321   9.936   4.106   6.100 -0.0150  1.1477  0.1882
  862MOL0     H16322   9.882   4.354   6.176  1.6000 -0.7049 -4.0345
  862MOL0     H16323   9.739   4.431   6.127  0.6727 -0.7184 -0.4005
  862MOL0     H16324   9.643   4.303   6.291 -2.9434  1.7435 -3.6123
  862MOL0     H16325   9.754   4.164   6.279 -0.1434 -1.8993 -1.2287
  862MOL0     H16326   9.632   4.074   6.083  1.8356  0.0750  0.6683
  862MOL0     H16327   9.546   4.220   6.060  0.5745  1.4629  0.6040
  862MOL0     H16328   9.505   4.083   6.331  2.4104  0.2127 -1.6089
  862MOL0     H16329   9.424   4.017   6.186 -1.2628  1.4317 -3.0612
  862MOL0     H16330   9.257   4.411   6.365  1.4173 -0.2369 -0.2146
  862MOL0     H16331   9.110   4.468   6.642 -0.5768  0.4828  0.3447
  862MOL0     H16332   9.111   4.525   6.476  0.4234  0.8646  0.0694
  862MOL0     H16333   8.971   4.431   6.537  0.2593 -3.2972 -0.6516
  862MOL0     H16334   8.970   4.360   7.001  1.5391 -0.9215 -2.1312
  862MOL0     H16335   8.759   4.433   7.111 -3.4443  1.4609 -0.6851
  862MOL0     H16336   8.339   4.520   7.027  1.1774  0.3079 -0.7786
  862MOL0     H16337   8.406   4.517   6.871  2.7004  1.6943  0.8395
  862MOL0     H16338   8.394   4.249   6.933  1.3472  1.4679  0.4094
  862MOL0     H16339   8.299   4.308   7.064  0.5164  0.2228  0.2323
  862MOL0     H16340   8.130   4.408   6.897 -0.8790  0.5382 -2.9242
  862MOL0     H16341   8.142   4.232   6.905  0.6174 -0.9978 -0.1730
  862MOL0     H16342   8.287   4.396   6.692  2.0133  0.1388  0.5740
  862MOL0     H16343   8.257   4.214   6.701  1.2719  0.6950 -3.3056
  862MOL0     H16344   8.072   4.444   6.674  2.0424  0.6005 -0.3320
  862MOL0     H16345   8.017   4.270   6.702  1.0914 -1.6117 -0.0531
  862MOL0     H16346   8.176   4.360   6.457 -1.2935 -1.0434 -1.3221
  862MOL0     H16347   8.137   4.192   6.497  0.0403 -1.1679  0.5030
  862MOL0     H16348   7.933   4.402   6.452 -0.7796  0.4062  3.5263
  862MOL0     H16349   7.896   4.240   6.500 -0.2037  0.3167 -0.1842
  862MOL0     H16350   8.055   4.164   6.301  0.6425 -0.1154  1.3360
  862MOL0     H16351   8.028   4.327   6.245  2.2007  4.0027  6.1747
  862MOL0     H16352   8.551   4.383   6.754 -0.4589 -3.5953  0.6049
  862MOL0     H16353   8.735   4.269   6.647 -1.6712 -3.6331  2.1390
  862MOL0     H16354   9.103   3.964   6.517 -0.4601 -1.0300 -1.6115
  862MOL0     H16355   9.278   3.983   6.336  1.0133 -0.4898  2.1979
  862MOL0     H16356  10.684   3.709   5.818 -1.4491 -0.6854  1.9797
  862MOL0     H16357  10.936   3.786   5.778 -0.4340  1.4437  1.9400
  862MOL0     H16358  11.382   3.595   5.816  1.5152 -0.8099  0.1014
  862MOL0     H16359  11.630   3.628   5.823 -1.4014 -0.1739 -1.6664
  862MOL0     H16360  11.937   3.661   6.017  1.6103  3.2461 -1.7333
  862MOL0     H16361  11.801   3.574   5.947 -0.9801  0.2538 -2.0214
  862MOL0     H16362  11.812   3.742   5.755 -1.2034  0.5233  1.1480
  862MOL0     H16363  11.952   3.642   5.775 -1.1280 -1.7271  1.3462
  862MOL0     H16364  12.031   3.826   5.935 -0.3202 -2.8083 -0.0871
  862MOL0     H16365  11.902   3.935   5.868  1.1637  0.2294 -0.4795
  862MOL0     H16366  12.073   4.008   5.742  0.5410 -0.0046 -2.6450
  862MOL0     H16367  11.975   3.890   5.644 -0.0149 -0.5889 -0.3857
  862MOL0     H16368  12.367   3.720   5.715  0.5578 -0.4466 -1.1638
  862MOL0     H16369  11.569   3.881   6.159  1.7716 -1.9925 -0.1497
  862MOL0     H16370  11.331   3.887   6.126 -1.2242  0.1781 -0.7158
  863MOL0     O16371  10.439   9.242   8.317 -0.9192  0.2602 -0.3061
  863MOL0     C16372  10.430   9.171   8.422 -0.2561 -0.1109  0.2758
  863MOL0     O16373  10.316   9.129   8.483 -0.1098  0.3214  0.4723
  863MOL0     C16374  10.200   9.163   8.430 -0.0711 -0.1015  0.8374
  863MOL0     C16375  10.154   9.102   8.313 -0.7518 -0.9454  0.0201
  863MOL0     C16376  10.036   9.137   8.250  0.1164 -0.6913  0.1319
  863MOL0     C16377   9.965   9.248   8.300 -0.4361  0.7890  0.2591
  863MOL0     O16378   9.846   9.297   8.243  0.5502  0.5219 -0.4116
  863MOL0     C16379   9.766   9.205   8.152 -0.3437 -1.1045 -0.1800
  863MOL0     C16380   9.621   9.261   8.145 -0.5882 -0.2415 -0.1856
  863MOL0     C16381   9.526   9.164   8.067  0.2618  1.3665  0.6893
  863MOL0     C16382   9.563   9.142   7.927 -0.5025 -0.8785  0.2086
  863MOL0     C16383   9.468   9.049   7.851 -0.7163  0.2736 -0.4105
  863MOL0     C16384   9.368   9.131   7.770  0.0882  0.0565 -0.8840
  863MOL0     C16385   9.249   9.046   7.727  0.6559  0.6520  0.1102
  863MOL0     C16386   9.119   9.117   7.692 -0.9379  0.3773 -0.2071
  863MOL0     N16387   9.009   9.044   7.634  0.3391  0.1537 -0.8051
  863MOL0     C16388   8.978   8.907   7.651 -0.0538  0.2385 -0.1949
  863MOL0     C16389   8.844   8.906   7.606 -0.7605  0.2363  0.0336
  863MOL0     C16390   8.763   8.778   7.595 -0.3778  0.4760 -0.1072
  863MOL0     C16391   8.644   8.781   7.501  0.7549 -0.1131  0.2727
  863MOL0     C16392   8.524   8.868   7.544 -0.0660  0.6064 -0.1779
  863MOL0     C16393   8.420   8.854   7.435  0.4373 -0.0299 -0.4208
  863MOL0     O16394   8.341   8.732   7.442 -0.9944 -0.2022  0.0098
  863MOL0     C16395   8.242   8.715   7.539 -0.3342 -0.2132 -0.1516
  863MOL0     C16396   8.185   8.583   7.535 -0.3714 -0.1974  0.3470
  863MOL0     C16397   8.087   8.535   7.617 -0.8817  0.5677 -0.5132
  863MOL0     C16398   8.053   8.390   7.618 -0.2001  0.8404 -0.2729
  863MOL0     C16399   8.023   8.634   7.700 -0.7222 -0.8894  0.2522
  863MOL0     C16400   7.903   8.601   7.779  0.4018 -0.0777  0.5295
  863MOL0     O16401   7.877   8.697   7.876 -0.1999  0.6501  0.3136
  863MOL0     C16402   7.792   8.675   7.977 -0.0610 -0.7509 -0.9073
  863MOL0     C16403   7.835   8.635   8.105 -0.1120 -0.3100  0.3989
  863MOL0     C16404   7.733   8.605   8.201 -0.0892 -0.2659  0.6564
  863MOL0     C16405   7.592   8.595   8.179 -0.1444 -1.1469  0.7587
  863MOL0     O16406   7.503   8.550   8.271 -0.2859 -0.4537 -0.2628
  863MOL0     C16407   7.366   8.605   8.252 -0.9470  0.9976 -0.1793
  863MOL0     C16408   7.291   8.566   8.380  0.6142 -0.5124 -0.0034
  863MOL0     C16409   7.256   8.416   8.377 -0.1583 -0.3939  0.9275
  863MOL0     C16410   7.195   8.361   8.505 -0.5628  0.1426 -0.6514
  863MOL0     C16411   7.104   8.234   8.481 -0.2501  0.5211  0.1012
  863MOL0     C16412   7.036   8.178   8.607  0.0559 -0.5768 -0.3426
  863MOL0     C16413   6.938   8.067   8.576 -0.7965 -0.0380 -0.0889
  863MOL0     C16414   6.908   7.996   8.709  0.3802  0.1538  0.7146
  863MOL0    Cl16415   6.804   7.848   8.676  0.2762 -0.2117 -0.0011
  863MOL0     C16416   7.557   8.651   8.055 -0.0997 -0.3340  0.7750
  863MOL0     C16417   7.660   8.687   7.961  0.0979  0.3176  0.6219
  863MOL0     O16418   7.836   8.501   7.750  0.8966 -0.3936 -0.0260
  863MOL0     C16419   8.080   8.764   7.713  0.2046  0.1927  0.6711
  863MOL0     C16420   8.180   8.803   7.630 -0.6749  0.0587  0.7914
  863MOL0     N16421   8.810   9.029   7.555  0.5430 -0.5709  0.3655
  863MOL0     N16422   8.903   9.110   7.574 -0.1300 -0.2500  0.4740
  863MOL0     C16423  10.021   9.317   8.407 -0.1472  0.5024 -0.3541
  863MOL0     C16424  10.132   9.267   8.474  0.7079 -0.3114 -0.7178
  863MOL0     C16425  10.552   9.163   8.501 -0.0567  0.2522 -0.1996
  863MOL0     C16426  10.670   9.219   8.460 -0.3292  0.2499 -0.6745
  863MOL0     C16427  10.789   9.197   8.530 -0.7899  0.4346  0.6342
  863MOL0     C16428  10.795   9.122   8.645 -0.6297 -0.3919 -0.1374
  863MOL0     O16429  10.918   9.091   8.711 -0.5628 -0.2664 -0.2423
  863MOL0     C16430  10.930   8.969   8.785 -0.5899 -0.1162 -0.3730
  863MOL0     C16431  11.078   8.928   8.799 -0.6076  0.4203 -0.3773
  863MOL0     C16432  11.180   9.020   8.848 -0.5819 -1.5172 -0.5258
  863MOL0     C16433  11.167   9.074   8.991  0.2455  0.0263  0.0824
  863MOL0     C16434  11.081   9.190   8.992  0.5265 -0.1731  0.7277
  863MOL0     C16435  10.986   9.275   8.992 -0.2667  0.6871 -0.5634
  863MOL0     C16436  10.678   9.064   8.687  0.9437 -0.4366  0.4501
  863MOL0     C16437  10.560   9.084   8.621 -0.5210  0.6794 -0.2444
  863MOL0     H16438  10.214   9.024   8.268  0.5298  0.0804 -0.1215
  863MOL0     H16439  10.008   9.090   8.156  1.3667 -0.4507 -0.3775
  863MOL0     H16440   9.826   9.204   8.061  0.3632  0.0089  0.2471
  863MOL0     H16441   9.772   9.101   8.186 -1.3941 -1.5303 -1.2238
  863MOL0     H16442   9.591   9.270   8.250  0.6898  1.2957  0.0866
  863MOL0     H16443   9.612   9.360   8.100  0.6526 -1.0975 -2.5066
  863MOL0     H16444   9.516   9.066   8.115 -1.3002  0.8006 -0.7173
  863MOL0     H16445   9.433   9.220   8.080 -0.0261  0.9111  0.5968
  863MOL0     H16446   9.575   9.241   7.881  0.9287 -1.3984 -0.6083
  863MOL0     H16447   9.661   9.093   7.922 -0.4612 -0.7752  0.0143
  863MOL0     H16448   9.516   8.979   7.782  0.7383 -1.2128  2.0003
  863MOL0     H16449   9.417   8.984   7.922  0.8764  1.1752  1.6564
  863MOL0     H16450   9.332   9.212   7.835  1.7427 -3.1084  4.7102
  863MOL0     H16451   9.414   9.173   7.680 -0.0445  1.0573 -0.5050
  863MOL0     H16452   9.285   8.991   7.639  1.3534 -0.3454  0.9992
  863MOL0     H16453   9.231   8.968   7.801  0.1890  0.6832  0.0335
  863MOL0     H16454   9.144   9.210   7.640 -2.0282  0.3551 -0.7907
  863MOL0     H16455   9.083   9.144   7.792  0.9929  1.0943  0.3471
  863MOL0     H16456   9.042   8.829   7.691  1.0025  1.8609  1.4589
  863MOL0     H16457   8.823   8.702   7.544 -4.0404 -1.9320 -1.2141
  863MOL0     H16458   8.737   8.743   7.696  1.6537 -0.8053  0.0395
  863MOL0     H16459   8.617   8.675   7.498  1.5194 -0.3631  1.4848
  863MOL0     H16460   8.682   8.818   7.406  0.2131  0.2415  0.1896
  863MOL0     H16461   8.569   8.968   7.548  0.6269  0.2482  1.9102
  863MOL0     H16462   8.477   8.839   7.638  2.3185 -0.8996  0.6367
  863MOL0     H16463   8.471   8.862   7.338  1.6833 -0.5636  0.1682
  863MOL0     H16464   8.344   8.932   7.439  0.7752  0.3040 -0.4742
  863MOL0     H16465   8.230   8.517   7.461 -0.0808  0.3343  0.0428
  863MOL0     H16466   8.013   8.365   7.717  0.8788  3.0019  0.7739
  863MOL0     H16467   7.980   8.367   7.539 -0.1042  0.8154 -0.3531
  863MOL0     H16468   8.146   8.336   7.602  0.1835  0.9868  1.3453
  863MOL0     H16469   7.938   8.626   8.137 -0.7954  0.5988  3.1836
  863MOL0     H16470   7.773   8.576   8.298 -1.2752 -3.6103  0.2660
  863MOL0     H16471   7.378   8.713   8.238  1.1997  0.4053 -4.5360
  863MOL0     H16472   7.316   8.568   8.162 -0.0759 -2.6715  0.6791
  863MOL0     H16473   7.347   8.594   8.470  0.5894  0.9099 -0.4169
  863MOL0     H16474   7.196   8.620   8.378  1.1647  0.5367  1.1081
  863MOL0     H16475   7.349   8.362   8.358 -0.3109 -0.4131  0.2170
  863MOL0     H16476   7.192   8.403   8.290 -0.4037 -1.8509  1.3039
  863MOL0     H16477   7.275   8.324   8.570 -1.0009  0.1210 -0.1134
  863MOL0     H16478   7.136   8.433   8.562 -0.6678  1.7758 -2.7231
  863MOL0     H16479   7.159   8.153   8.431 -2.3208  0.3550 -2.0752
  863MOL0     H16480   7.025   8.266   8.413 -1.0649  1.0912  1.2849
  863MOL0     H16481   7.119   8.134   8.664  0.3071 -1.4845 -1.3750
  863MOL0     H16482   6.979   8.255   8.659  1.8194  0.8504 -0.4343
  863MOL0     H16483   6.991   7.991   8.518  2.9047  0.1686  2.6866
  863MOL0     H16484   6.843   8.097   8.530 -1.8661 -2.0526  0.6914
  863MOL0     H16485   6.851   8.068   8.769 -1.0778 -1.0052  0.7838
  863MOL0     H16486   7.000   7.964   8.759  0.8705  0.3954 -0.0206
  863MOL0     H16487   7.458   8.671   8.014 -0.2026 -3.2550 -0.7043
  863MOL0     H16488   7.624   8.731   7.869  0.6344  1.4315  0.9323
  863MOL0     H16489   8.036   8.828   7.788  0.4391  0.2844  0.7310
  863MOL0     H16490   8.224   8.900   7.650 -0.1493  0.2204 -0.9420
  863MOL0     H16491   9.981   9.401   8.462  2.8926  2.0173 -0.2454
  863MOL0     H16492  10.176   9.314   8.561 -2.2489 -0.3549  0.9305
  863MOL0     H16493  10.682   9.265   8.362  2.0236  1.6660  0.1993
  863MOL0     H16494  10.880   9.240   8.490 -0.6685 -0.5395 -0.1528
  863MOL0     H16495  10.887   8.987   8.883 -0.6939  2.7283 -0.8635
  863MOL0     H16496  10.882   8.893   8.723 -0.2615 -1.4382  0.9291
  863MOL0     H16497  11.104   8.883   8.703 -2.3291  1.4311 -1.3772
  863MOL0     H16498  11.075   8.847   8.872  1.1194  1.4775  0.9370
  863MOL0     H16499  11.196   9.106   8.783  1.3541 -2.8383 -1.9206
  863MOL0     H16500  11.277   8.970   8.842 -0.2401 -0.7166 -1.9748
  863MOL0     H16501  11.266   9.098   9.030  1.0796 -4.1561  1.0468
  863MOL0     H16502  11.144   8.988   9.055  1.0519  0.5106  1.0613
  863MOL0     H16503  10.898   9.334   8.981 -1.6747 -1.1526  0.2141
  863MOL0     H16504  10.679   8.998   8.773 -0.4131 -2.4917 -1.0029
  863MOL0     H16505  10.467   9.053   8.667 -0.5522  1.7700  0.4683
  864MOL0     O16506   4.672   1.958   5.321  0.1481  0.3555  0.0358
  864MOL0     C16507   4.695   2.003   5.210  0.1424  0.4516 -0.0591
  864MOL0     O16508   4.602   2.046   5.123  0.7627  0.2291  0.1293
  864MOL0     C16509   4.464   2.021   5.141 -0.7898  0.7703 -0.5353
  864MOL0     C16510   4.391   1.953   5.038  0.4421 -0.4680  0.1376
  864MOL0     C16511   4.258   1.916   5.056  0.8479  0.1795 -0.1177
  864MOL0     C16512   4.191   1.950   5.173  0.0095  0.9956 -0.1012
  864MOL0     O16513   4.066   1.916   5.204  0.4649 -1.1360  0.1033
  864MOL0     C16514   3.982   1.857   5.096  0.1191  0.3036  0.1013
  864MOL0     C16515   3.837   1.847   5.123  0.2272 -0.5857  0.7568
  864MOL0     C16516   3.754   1.815   4.999  0.1995 -0.0903 -0.5216
  864MOL0     C16517   3.608   1.853   5.013 -0.1541 -0.1733 -0.0878
  864MOL0     C16518   3.521   1.759   5.093 -0.5524  1.0500 -0.3631
  864MOL0     C16519   3.378   1.783   5.082 -0.5904  0.0539 -0.2317
  864MOL0     C16520   3.299   1.697   5.190  1.0015 -0.1579  0.3311
  864MOL0     C16521   3.316   1.540   5.180 -0.2535  0.2564 -0.0171
  864MOL0     N16522   3.261   1.496   5.044  0.5449 -0.5916  0.3165
  864MOL0     C16523   3.126   1.475   5.011 -0.0910 -0.2016  0.8666
  864MOL0     C16524   3.129   1.438   4.878 -0.0147  0.1455 -0.1299
  864MOL0     C16525   3.011   1.397   4.794  0.7433  0.1698  0.3703
  864MOL0     C16526   2.968   1.513   4.698  0.0810 -0.3069 -1.2408
  864MOL0     C16527   2.823   1.482   4.641 -0.4847 -0.4754  0.3078
  864MOL0     C16528   2.784   1.578   4.544  0.2690  0.9016  0.9149
  864MOL0     O16529   2.670   1.534   4.463  0.3277 -0.4748  0.5132
  864MOL0     C16530   2.540   1.551   4.508 -0.0379  0.4106 -0.3848
  864MOL0     C16531   2.496   1.642   4.607 -0.1272 -0.1158  0.1607
  864MOL0     C16532   2.365   1.638   4.659 -0.1465  0.3742  0.2425
  864MOL0     C16533   2.322   1.734   4.766 -0.0777 -0.3584 -1.0997
  864MOL0     C16534   2.269   1.548   4.602 -0.3497  0.0614 -0.0976
  864MOL0     C16535   2.124   1.542   4.636 -0.3727 -0.3300  0.6165
  864MOL0     O16536   2.055   1.441   4.575  0.4076  0.0198  0.0823
  864MOL0     C16537   1.919   1.442   4.555  0.7174 -0.1828 -0.2223
  864MOL0     C16538   1.831   1.452   4.660 -0.1517 -0.2687 -0.4416
  864MOL0     C16539   1.693   1.452   4.629  0.2820  0.5650 -0.3475
  864MOL0     C16540   1.642   1.437   4.503 -0.2585 -0.1191  1.5025
  864MOL0     O16541   1.503   1.433   4.486  0.5736  0.2975 -0.3741
  864MOL0     C16542   1.447   1.431   4.355  0.3060 -0.0843  0.9550
  864MOL0     C16543   1.297   1.448   4.367 -0.1941  0.6033 -0.6559
  864MOL0     C16544   1.250   1.563   4.463 -0.6011 -0.1497 -0.0886
  864MOL0     C16545   1.095   1.583   4.460 -0.3659 -0.1252  0.6083
  864MOL0     C16546   1.045   1.685   4.551 -0.4167  0.4588  0.6045
  864MOL0     C16547   0.892   1.687   4.539  0.3069 -0.7392 -0.3816
  864MOL0     C16548   0.832   1.797   4.616  0.1146 -0.3966  0.4158
  864MOL0     C16549   0.858   1.942   4.550  0.3604  0.0743 -0.0765
  864MOL0    Cl16550   0.830   1.950   4.381  0.0571 -0.5378 -0.1279
  864MOL0     C16551   1.732   1.442   4.395 -0.1017 -0.2155  0.6051
  864MOL0     C16552   1.867   1.439   4.431  0.5937  0.2441  0.5082
  864MOL0     O16553   2.068   1.631   4.703 -0.1259 -0.2980 -0.4397
  864MOL0     C16554   2.317   1.467   4.504 -0.6184  0.0484 -1.0607
  864MOL0     C16555   2.444   1.465   4.457 -1.0145 -0.7839  0.4288
  864MOL0     N16556   3.259   1.439   4.833 -0.2255 -0.2979  0.1573
  864MOL0     N16557   3.333   1.482   4.930 -0.1352  0.2136  0.6926
  864MOL0     C16558   4.263   2.029   5.272 -0.3699  0.4190 -0.1702
  864MOL0     C16559   4.393   2.063   5.252 -0.8673  0.3196 -0.0276
  864MOL0     C16560   4.837   2.006   5.161  0.0086 -0.1303  0.4399
  864MOL0     C16561   4.871   2.067   5.040  0.5583 -0.3943  0.2757
  864MOL0     C16562   5.000   2.062   4.997 -0.6284  0.5816 -0.2918
  864MOL0     C16563   5.102   1.987   5.057  0.6225  0.8394  0.5240
  864MOL0     O16564   5.227   1.973   4.999  0.5900  0.3157  0.0121
  864MOL0     C16565   5.335   1.906   5.079  0.4268 -0.7477  0.5578
  864MOL0     C16566   5.468   1.962   5.022 -0.2798 -0.0732 -0.5214
  864MOL0     C16567   5.584   1.869   5.063  0.9772 -0.2694 -0.3326
  864MOL0     C16568   5.712   1.938   5.039 -0.7004  0.1426 -0.7485
  864MOL0     C16569   5.820   1.861   5.094 -0.0974  0.0167 -0.9706
  864MOL0     C16570   5.906   1.793   5.146  0.0095  0.9852  0.7903
  864MOL0     C16571   5.070   1.921   5.172  0.1360 -0.2036  0.6255
  864MOL0     C16572   4.933   1.925   5.223  0.2080 -0.7244 -0.9604
  864MOL0     H16573   4.447   1.924   4.949  0.2471 -0.5301  0.0349
  864MOL0     H16574   4.216   1.845   4.986  1.2105 -1.4496  1.2529
  864MOL0     H16575   3.998   1.909   5.001 -2.2218  3.4641  1.2548
  864MOL0     H16576   4.028   1.759   5.086  1.4453  0.7109  1.7080
  864MOL0     H16577   3.825   1.761   5.189  2.1684 -0.3789  1.4477
  864MOL0     H16578   3.801   1.934   5.178 -1.1666 -0.7503  0.1450
  864MOL0     H16579   3.783   1.883   4.919  3.1668  1.5430  1.7304
  864MOL0     H16580   3.771   1.709   4.979  0.3324 -0.7817  2.6638
  864MOL0     H16581   3.595   1.953   5.055  0.7791  1.0823 -2.5845
  864MOL0     H16582   3.567   1.857   4.912  0.0709  2.1240 -0.1410
  864MOL0     H16583   3.546   1.659   5.055  1.4854  2.0476 -1.8189
  864MOL0     H16584   3.549   1.770   5.198 -1.5763  2.9625 -0.2549
  864MOL0     H16585   3.359   1.888   5.105  1.4271  0.4226 -0.0279
  864MOL0     H16586   3.348   1.754   4.980  3.9729 -1.6093 -1.3504
  864MOL0     H16587   3.328   1.733   5.290 -1.1536 -2.6878  2.0275
  864MOL0     H16588   3.192   1.719   5.178  0.8147 -0.5380  1.1664
  864MOL0     H16589   3.259   1.494   5.262 -2.1473 -0.9893 -1.9020
  864MOL0     H16590   3.420   1.511   5.195  0.1236 -1.0348 -4.0156
  864MOL0     H16591   3.038   1.496   5.071 -0.4386  0.1239  0.2511
  864MOL0     H16592   3.015   1.294   4.758 -1.2849  0.4194 -0.7162
  864MOL0     H16593   2.932   1.391   4.869  1.8487 -2.2987  1.4243
  864MOL0     H16594   3.036   1.520   4.612  3.1297 -0.3100  0.9967
  864MOL0     H16595   2.962   1.605   4.757 -1.1128 -0.5015 -1.0279
  864MOL0     H16596   2.757   1.476   4.728 -1.9701 -0.4012 -0.7749
  864MOL0     H16597   2.823   1.387   4.588 -1.5487 -0.0215 -0.5556
  864MOL0     H16598   2.870   1.589   4.477 -2.4502  3.0845 -2.5627
  864MOL0     H16599   2.751   1.674   4.585  1.9256  1.0634  1.9716
  864MOL0     H16600   2.560   1.721   4.643  1.6300 -1.5200  0.2708
  864MOL0     H16601   2.252   1.810   4.731  0.7919  1.3435  0.6196
  864MOL0     H16602   2.269   1.686   4.849  1.1136  0.2523  0.0630
  864MOL0     H16603   2.409   1.784   4.812  1.3851 -2.2926 -1.6533
  864MOL0     H16604   1.865   1.480   4.759 -1.8550  1.5690 -0.3138
  864MOL0     H16605   1.623   1.442   4.711  0.0393 -2.3592 -0.7946
  864MOL0     H16606   1.488   1.507   4.288  1.3908 -1.0897  0.4248
  864MOL0     H16607   1.459   1.336   4.301  2.4928  2.2316 -3.1489
  864MOL0     H16608   1.256   1.470   4.268  1.6261 -0.7074 -1.7689
  864MOL0     H16609   1.258   1.353   4.404  1.1924  1.1919  2.6680
  864MOL0     H16610   1.295   1.658   4.432 -0.8428 -0.3113 -0.9659
  864MOL0     H16611   1.283   1.548   4.566  0.7291  2.1037 -0.1151
  864MOL0     H16612   1.078   1.611   4.356 -0.4619 -1.1443  0.3460
  864MOL0     H16613   1.042   1.490   4.479  2.8429 -2.9705 -2.7615
  864MOL0     H16614   1.095   1.778   4.522  1.4943 -0.3607  1.0969
  864MOL0     H16615   1.075   1.658   4.653  2.4493  0.8016 -0.0608
  864MOL0     H16616   0.860   1.697   4.435 -1.3816  0.3178  0.1934
  864MOL0     H16617   0.863   1.589   4.578  1.5218 -0.9678 -0.0104
  864MOL0     H16618   0.882   1.806   4.713  2.2088 -1.3299 -0.5290
  864MOL0     H16619   0.726   1.778   4.638  0.1919 -0.3454  0.8471
  864MOL0     H16620   0.962   1.970   4.565  0.9394 -1.2927 -1.2793
  864MOL0     H16621   0.792   2.016   4.598  0.4131 -0.1674  0.3696
  864MOL0     H16622   1.709   1.441   4.289  2.5526  0.5130 -0.0311
  864MOL0     H16623   1.947   1.432   4.358 -0.3625  2.0108 -0.7610
  864MOL0     H16624   2.246   1.396   4.463  0.6655 -2.4540  0.7990
  864MOL0     H16625   2.485   1.396   4.385  0.0701 -0.2056  0.4791
  864MOL0     H16626   4.223   2.069   5.364  0.5433 -0.2480  0.5300
  864MOL0     H16627   4.435   2.116   5.337 -2.1059  0.5886  0.4296
  864MOL0     H16628   4.796   2.120   4.981  0.8463 -0.1801  0.0991
  864MOL0     H16629   5.025   2.104   4.900 -1.2701 -1.5507 -1.4580
  864MOL0     H16630   5.331   1.927   5.186 -0.6786 -1.9232  0.7770
  864MOL0     H16631   5.326   1.798   5.059 -0.4640 -0.2814 -1.9613
  864MOL0     H16632   5.486   2.059   5.068 -0.6780  0.1397 -0.8063
  864MOL0     H16633   5.456   1.972   4.913 -1.1734  1.8450 -0.2801
  864MOL0     H16634   5.579   1.783   4.995 -0.8480 -2.9270  2.8937
  864MOL0     H16635   5.578   1.835   5.166  3.5075  0.9554  0.2917
  864MOL0     H16636   5.700   2.040   5.078 -1.0659 -0.3246  0.4087
  864MOL0     H16637   5.734   1.941   4.932 -0.3269  3.5189 -0.7080
  864MOL0     H16638   5.979   1.731   5.196 -2.0532 -0.2155  2.5047
  864MOL0     H16639   5.137   1.858   5.230 -1.4562 -0.6988  2.0368
  864MOL0     H16640   4.923   1.869   5.316  2.4547  2.8070  1.6759
  865MOL0     O16641   1.154   4.125   5.178 -0.1633 -0.3091  0.2203
  865MOL0     C16642   1.192   4.224   5.239 -0.1802  0.4233 -0.0342
  865MOL0     O16643   1.122   4.285   5.337  0.0267 -0.2168 -0.1756
  865MOL0     C16644   0.988   4.268   5.370  0.2113 -0.1342 -0.0306
  865MOL0     C16645   0.917   4.382   5.414  0.5420  0.1027 -0.3143
  865MOL0     C16646   0.779   4.373   5.439 -0.3187 -1.0622  0.0479
  865MOL0     C16647   0.700   4.255   5.424  0.0756 -0.1267  0.6659
  865MOL0     O16648   0.560   4.249   5.438 -0.0654 -0.2728  0.2460
  865MOL0     C16649   0.497   4.375   5.475  0.9835 -0.2515 -0.1560
  865MOL0     C16650   0.348   4.357   5.503 -0.7537  0.1071  0.3573
  865MOL0     C16651   0.275   4.490   5.512  1.5056  0.1393  0.0135
  865MOL0     C16652   0.129   4.456   5.559 -0.5804  0.2226  0.4480
  865MOL0     C16653   0.041   4.583   5.559 -0.5054 -0.0540  0.3154
  865MOL0     C16654  -0.097   4.531   5.596  0.7438  1.0188  0.0776
  865MOL0     C16655  -0.189   4.639   5.650  0.5303 -0.3121  0.1014
  865MOL0     C16656  -0.229   4.748   5.565  0.2393 -0.3864  0.5340
  865MOL0     N16657  -0.323   4.704   5.457 -0.1866 -0.3934  0.7036
  865MOL0     C16658  -0.457   4.695   5.475 -0.0529 -0.0856 -0.2738
  865MOL0     C16659  -0.494   4.616   5.369  0.4162  0.8048  0.5135
  865MOL0     C16660  -0.632   4.568   5.332  0.3252  0.1266 -0.5220
  865MOL0     C16661  -0.721   4.693   5.345  0.9857  0.2341 -0.6096
  865MOL0     C16662  -0.836   4.676   5.248 -0.3352  0.0091  0.7307
  865MOL0     C16663  -0.893   4.802   5.197  0.6507  0.2646 -0.1806
  865MOL0     O16664  -0.975   4.865   5.294 -0.1113  0.1149 -0.0539
  865MOL0     C16665  -1.102   4.899   5.272  0.8110 -0.0594 -0.3094
  865MOL0     C16666  -1.192   4.862   5.366  0.2602 -0.1898  0.6258
  865MOL0     C16667  -1.328   4.898   5.342  0.4526  0.4201  0.7072
  865MOL0     C16668  -1.430   4.846   5.452 -0.2698 -0.4410 -0.3968
  865MOL0     C16669  -1.371   4.971   5.230 -0.2467  0.0571  0.5029
  865MOL0     C16670  -1.518   4.988   5.196  0.6370  0.9939  0.6182
  865MOL0     O16671  -1.537   4.975   5.065  1.0313  0.3079  0.0145
  865MOL0     C16672  -1.666   4.983   5.013 -0.2928  0.5013 -0.4556
  865MOL0     C16673  -1.772   4.912   5.075  0.7993 -0.8270  0.4591
  865MOL0     C16674  -1.902   4.929   5.021 -0.0522 -0.6735  0.6230
  865MOL0     C16675  -1.926   5.022   4.917  1.0123 -0.0609 -0.4427
  865MOL0     O16676  -2.043   5.077   4.862 -1.0165 -0.4744 -0.6682
  865MOL0     C16677  -2.162   5.011   4.897  0.2942  0.9156 -0.6075
  865MOL0     C16678  -2.272   5.047   4.797  0.3275 -0.6557 -0.3933
  865MOL0     C16679  -2.373   5.127   4.873 -0.0628 -1.0661  1.0151
  865MOL0     C16680  -2.489   5.147   4.781  0.2428 -0.2634  0.4606
  865MOL0     C16681  -2.610   5.210   4.849  0.0885 -0.2808 -0.5452
  865MOL0     C16682  -2.748   5.177   4.786 -0.6782  0.3945  0.0220
  865MOL0     C16683  -2.858   5.222   4.877  0.8352 -0.5224  0.4690
  865MOL0     C16684  -2.994   5.173   4.816 -0.2872  0.1779 -0.2581
  865MOL0    Cl16685  -3.001   5.246   4.647  0.1487  0.3068 -0.0166
  865MOL0     C16686  -1.819   5.084   4.854 -0.5128  0.4265 -0.2739
  865MOL0     C16687  -1.692   5.065   4.907  1.1338 -0.2276  1.0400
  865MOL0     O16688  -1.598   5.034   5.282 -0.3569  0.0708 -0.1456
  865MOL0     C16689  -1.272   5.011   5.139 -0.3121 -0.2901  0.1640
  865MOL0     C16690  -1.142   4.964   5.163  0.4715 -0.0419 -0.5159
  865MOL0     N16691  -0.378   4.588   5.288 -0.2554  0.5713 -0.0378
  865MOL0     N16692  -0.279   4.654   5.337  0.2931 -0.1961  0.7303
  865MOL0     C16693   0.775   4.145   5.378 -0.9725 -0.6201  0.0213
  865MOL0     C16694   0.912   4.154   5.346 -0.1876 -1.8684 -0.3611
  865MOL0     C16695   1.314   4.293   5.201  0.5136  0.3788 -1.0109
  865MOL0     C16696   1.386   4.252   5.094  0.4950  0.1181  0.5880
  865MOL0     C16697   1.486   4.328   5.040 -0.1313 -0.3359 -0.1879
  865MOL0     C16698   1.528   4.445   5.109  0.0977 -0.5002 -0.2111
  865MOL0     O16699   1.642   4.510   5.051  0.2498 -0.2190  0.2079
  865MOL0     C16700   1.703   4.627   5.115  0.4439  0.2496  0.7406
  865MOL0     C16701   1.792   4.705   5.019 -0.3406  0.5430  0.7128
  865MOL0     C16702   1.939   4.656   5.022 -0.4016  0.5926  0.1714
  865MOL0     C16703   2.031   4.714   4.914 -0.7469 -0.0403  0.1345
  865MOL0     C16704   2.049   4.855   4.932  0.6930  0.0704  0.8046
  865MOL0     C16705   2.059   4.976   4.940  0.0960 -0.2479 -0.1157
  865MOL0     C16706   1.463   4.484   5.230  0.0854 -0.4460 -0.1503
  865MOL0     C16707   1.353   4.406   5.275 -0.0297 -0.1584  0.0791
  865MOL0     H16708   0.965   4.479   5.418 -1.0684  0.8716  1.9852
  865MOL0     H16709   0.741   4.471   5.465  0.6375 -0.0190 -2.2058
  865MOL0     H16710   0.534   4.423   5.565 -1.0154  3.2040 -0.9621
  865MOL0     H16711   0.502   4.427   5.379 -0.5806 -0.3713 -0.3397
  865MOL0     H16712   0.303   4.295   5.424 -0.8913  1.1218 -0.3879
  865MOL0     H16713   0.346   4.303   5.598 -2.8810  0.4965  0.5870
  865MOL0     H16714   0.322   4.559   5.583  0.5119  1.8420 -0.9187
  865MOL0     H16715   0.264   4.536   5.413 -0.4674  2.0185  1.0060
  865MOL0     H16716   0.087   4.385   5.487  0.8873  0.7179 -0.9339
  865MOL0     H16717   0.124   4.406   5.656 -2.8722  0.7201  0.6513
  865MOL0     H16718   0.074   4.653   5.636 -3.2214  0.0018  1.5761
  865MOL0     H16719   0.041   4.634   5.463 -1.3793  1.6727  1.1898
  865MOL0     H16720  -0.148   4.483   5.512 -3.2117 -0.8096  3.1764
  865MOL0     H16721  -0.077   4.453   5.670 -1.6997  1.0835  0.9026
  865MOL0     H16722  -0.287   4.596   5.673  1.3761 -2.5140 -0.1570
  865MOL0     H16723  -0.146   4.675   5.744  0.3126 -0.9966  0.4728
  865MOL0     H16724  -0.144   4.807   5.527 -1.6829  2.0436 -0.2757
  865MOL0     H16725  -0.291   4.820   5.618  1.8928  1.7725 -0.2597
  865MOL0     H16726  -0.523   4.729   5.554  0.0739 -2.3189  0.8791
  865MOL0     H16727  -0.635   4.527   5.231  0.3460 -1.3180  0.0414
  865MOL0     H16728  -0.668   4.498   5.408 -1.1930  2.5354  1.1163
  865MOL0     H16729  -0.670   4.786   5.319 -1.6937  1.6241 -1.2306
  865MOL0     H16730  -0.748   4.708   5.449  1.6945  2.1407 -0.6462
  865MOL0     H16731  -0.918   4.617   5.291 -0.6004 -0.7023 -0.7178
  865MOL0     H16732  -0.807   4.627   5.155 -0.0919  0.8694  0.3465
  865MOL0     H16733  -0.955   4.766   5.114  2.3016 -2.6029 -0.3094
  865MOL0     H16734  -0.813   4.867   5.161  1.5711  0.1215  1.4930
  865MOL0     H16735  -1.154   4.814   5.455 -0.5929 -0.2783  0.9523
  865MOL0     H16736  -1.497   4.768   5.415  0.5566 -1.2902 -0.1718
  865MOL0     H16737  -1.364   4.812   5.532 -0.6405 -2.0809 -0.7373
  865MOL0     H16738  -1.473   4.940   5.484  0.8098  0.2810 -1.0002
  865MOL0     H16739  -1.761   4.858   5.168  1.1555 -2.5311 -0.5204
  865MOL0     H16740  -1.994   4.892   5.065 -1.4070  1.4680 -0.2648
  865MOL0     H16741  -2.147   4.903   4.894 -1.4008  0.6672 -1.7730
  865MOL0     H16742  -2.201   5.031   4.997 -0.8216  0.6807 -0.9788
  865MOL0     H16743  -2.227   5.100   4.713  0.3643  0.7848  0.4952
  865MOL0     H16744  -2.322   4.959   4.756 -1.9541  0.1492  0.5206
  865MOL0     H16745  -2.325   5.218   4.907 -0.2569 -1.0640  1.2866
  865MOL0     H16746  -2.414   5.073   4.959  1.3631 -2.5025  0.8545
  865MOL0     H16747  -2.456   5.213   4.699 -1.7382  2.8223  1.9748
  865MOL0     H16748  -2.516   5.052   4.733 -1.1253  0.6263 -0.6170
  865MOL0     H16749  -2.609   5.319   4.845  0.7302 -0.1916  1.2563
  865MOL0     H16750  -2.603   5.196   4.957  0.7355 -0.1760 -0.5687
  865MOL0     H16751  -2.748   5.219   4.685  0.5434  0.6474  0.1032
  865MOL0     H16752  -2.747   5.068   4.782 -1.8629  0.3857 -0.1811
  865MOL0     H16753  -2.851   5.331   4.890  1.2019 -0.2268 -1.7411
  865MOL0     H16754  -2.859   5.181   4.978 -2.4316  2.8351  2.0248
  865MOL0     H16755  -3.080   5.204   4.876 -0.0969 -1.5607  0.9991
  865MOL0     H16756  -3.011   5.065   4.805  2.2970 -0.3861  0.6106
  865MOL0     H16757  -1.836   5.151   4.770 -1.8329  0.2488 -0.1669
  865MOL0     H16758  -1.605   5.120   4.872 -1.1865  1.9204 -1.8515
  865MOL0     H16759  -1.287   5.066   5.047  2.9366 -0.5736 -0.6517
  865MOL0     H16760  -1.070   5.002   5.091 -1.3707  3.8440 -0.5472
  865MOL0     H16761   0.720   4.055   5.351 -1.7841  0.0013 -0.4247
  865MOL0     H16762   0.961   4.075   5.290  1.5100  0.3356 -2.1572
  865MOL0     H16763   1.356   4.163   5.041 -0.6177  0.1472  1.1420
  865MOL0     H16764   1.533   4.295   4.948 -0.0495  0.7119 -0.5423
  865MOL0     H16765   1.623   4.697   5.141 -1.3274  0.6124 -4.5042
  865MOL0     H16766   1.761   4.591   5.200  1.7262  0.4330 -0.0239
  865MOL0     H16767   1.773   4.806   5.056 -1.3005 -0.0695  1.9633
  865MOL0     H16768   1.767   4.692   4.914 -0.4278 -0.5431  0.8520
  865MOL0     H16769   1.924   4.550   4.996  0.5726  0.2919  0.7687
  865MOL0     H16770   1.980   4.644   5.123  1.6587 -2.1342 -0.8497
  865MOL0     H16771   1.994   4.695   4.813 -1.6593  0.0742  0.4425
  865MOL0     H16772   2.129   4.665   4.921 -0.9751 -0.8615 -1.8091
  865MOL0     H16773   2.057   5.083   4.950  0.8140 -0.3325  1.0443
  865MOL0     H16774   1.499   4.567   5.291  1.0489 -0.3436 -0.8345
  865MOL0     H16775   1.286   4.436   5.355 -0.5857  0.1856 -0.5052
  866MOL0     O16776   0.343   2.861   0.423 -0.5081 -0.0684 -0.2818
  866MOL0     C16777   0.301   2.898   0.315  0.2269  0.7260  0.6914
  866MOL0     O16778   0.176   2.955   0.295  0.0933  0.1633  1.1300
  866MOL0     C16779   0.099   2.977   0.402 -0.0559 -0.0564 -0.4761
  866MOL0     C16780   0.050   3.104   0.420 -0.0395 -0.4658 -0.5073
  866MOL0     C16781  -0.043   3.138   0.519 -0.5171  1.2553 -1.1847
  866MOL0     C16782  -0.086   3.042   0.615 -0.5219 -0.0493  0.0618
  866MOL0     O16783  -0.199   3.080   0.686 -0.3835 -0.2807 -0.0135
  866MOL0     C16784  -0.289   2.971   0.727 -0.5814 -0.3183 -0.1604
  866MOL0     C16785  -0.431   3.023   0.742  0.2018 -0.2171  0.5947
  866MOL0     C16786  -0.496   3.090   0.613  0.8263 -0.1574 -0.2392
  866MOL0     C16787  -0.511   2.991   0.497  0.3833 -0.0323  0.2904
  866MOL0     C16788  -0.528   3.058   0.362  0.4120 -0.7713 -0.4940
  866MOL0     C16789  -0.397   3.060   0.284 -0.2549  0.3581  0.1106
  866MOL0     C16790  -0.416   3.136   0.152 -0.0129  0.2347  0.2265
  866MOL0     C16791  -0.287   3.131   0.071 -0.2596 -0.5128  0.2064
  866MOL0     N16792  -0.264   2.995   0.020  0.1229 -0.2590 -0.8496
  866MOL0     C16793  -0.164   2.918   0.077 -0.2053  0.9445 -0.6718
  866MOL0     C16794  -0.169   2.798   0.002 -0.3101 -0.5747 -0.4339
  866MOL0     C16795  -0.107   2.663   0.037  0.3114  0.2317  0.3111
  866MOL0     C16796   0.034   2.662  -0.014  0.4940  0.5458 -0.6741
  866MOL0     C16797   0.041   2.644  -0.164 -0.0673  0.3257  0.7186
  866MOL0     C16798   0.188   2.673  -0.212  0.5731 -0.2822  0.3777
  866MOL0     O16799   0.193   2.678  -0.353  0.2958  0.2168  0.3353
  866MOL0     C16800   0.296   2.734  -0.414 -0.3500 -0.1164  0.2990
  866MOL0     C16801   0.299   2.728  -0.550 -0.6845  0.4188  0.3713
  866MOL0     C16802   0.408   2.774  -0.631  0.6225 -0.1085  0.5911
  866MOL0     C16803   0.387   2.744  -0.778  0.4303 -0.0995  0.3273
  866MOL0     C16804   0.530   2.820  -0.576  0.1567 -0.0346 -0.4360
  866MOL0     C16805   0.663   2.854  -0.643 -0.6693 -1.4670 -0.1683
  866MOL0     O16806   0.772   2.866  -0.573  0.2187  0.4481  0.2501
  866MOL0     C16807   0.890   2.915  -0.623 -0.4655  0.2318  0.9800
  866MOL0     C16808   0.999   2.833  -0.606  0.2873  0.2026 -0.8005
  866MOL0     C16809   1.127   2.888  -0.630 -0.4226  0.3957  0.6698
  866MOL0     C16810   1.142   3.022  -0.674 -0.2715  0.1602  0.2260
  866MOL0     O16811   1.267   3.095  -0.685 -0.0664  0.1712  0.1229
  866MOL0     C16812   1.379   3.013  -0.648 -0.0199 -0.6217  1.1631
  866MOL0     C16813   1.402   2.998  -0.500 -0.3996  0.2341 -0.4254
  866MOL0     C16814   1.426   3.130  -0.435  0.4834  0.0569  0.3419
  866MOL0     C16815   1.549   3.215  -0.482  0.0607 -0.0466  0.4456
  866MOL0     C16816   1.561   3.341  -0.398  0.4784 -0.3263 -0.7832
  866MOL0     C16817   1.679   3.435  -0.423 -1.1164  0.5392  0.0275
  866MOL0     C16818   1.688   3.473  -0.571  0.0236 -0.2404 -0.1837
  866MOL0     C16819   1.799   3.577  -0.602 -0.8540  0.3168  0.2443
  866MOL0    Cl16820   1.756   3.738  -0.541 -0.0676 -0.0019  0.0606
  866MOL0     C16821   1.027   3.104  -0.691 -0.1096  0.2756  0.7962
  866MOL0     C16822   0.904   3.049  -0.666  0.6724 -0.6177 -0.8132
  866MOL0     O16823   0.663   2.880  -0.763  0.4653  0.2892  0.2735
  866MOL0     C16824   0.524   2.825  -0.435 -0.2508 -0.0223  0.5815
  866MOL0     C16825   0.419   2.778  -0.358  0.0996 -1.1285 -1.4218
  866MOL0     N16826  -0.254   2.826  -0.108  0.2390  0.6061  0.7518
  866MOL0     N16827  -0.312   2.939  -0.096 -0.4673  0.4118 -0.0027
  866MOL0     C16828  -0.043   2.912   0.598  0.4113 -0.1170 -0.3380
  866MOL0     C16829   0.047   2.882   0.494 -0.0950 -0.0578  0.1546
  866MOL0     C16830   0.397   2.881   0.202  0.6084 -0.0434  0.2542
  866MOL0     C16831   0.359   2.936   0.079  0.3683 -0.8022  0.7024
  866MOL0     C16832   0.453   2.944  -0.033 -0.8812 -0.0919 -0.5039
  866MOL0     C16833   0.578   2.884  -0.016 -0.1633 -0.0740 -0.6445
  866MOL0     O16834   0.665   2.889  -0.121 -0.5387  0.1337 -0.2533
  866MOL0     C16835   0.809   2.885  -0.082 -0.0641 -0.2012  0.1769
  866MOL0     C16836   0.898   2.945  -0.194 -0.3614  0.4654 -0.8627
  866MOL0     C16837   1.039   2.897  -0.159 -1.0259 -0.4760  0.6882
  866MOL0     C16838   1.155   2.996  -0.204 -0.2710  0.2350 -0.3103
  866MOL0     C16839   1.169   3.105  -0.105  0.1115 -0.2779 -0.7596
  866MOL0     C16840   1.196   3.192  -0.022 -0.5931 -0.6020  0.8369
  866MOL0     C16841   0.614   2.821   0.106 -0.3703 -0.9393  0.0190
  866MOL0     C16842   0.524   2.817   0.210 -0.0136 -1.0036 -1.1154
  866MOL0     H16843   0.066   3.174   0.338 -1.9342  0.6386  0.0257
  866MOL0     H16844  -0.085   3.238   0.520 -2.4997  0.4617 -0.7022
  866MOL0     H16845  -0.281   2.882   0.663  3.9406 -1.9529  2.2849
  866MOL0     H16846  -0.257   2.938   0.826 -1.6642 -1.0767 -0.0337
  866MOL0     H16847  -0.499   2.943   0.771  1.9266 -1.5792  1.0321
  866MOL0     H16848  -0.436   3.101   0.819 -0.9723 -0.7215  1.0552
  866MOL0     H16849  -0.590   3.140   0.635  2.4282  1.3999  4.0825
  866MOL0     H16850  -0.436   3.175   0.580 -1.2426  0.9230 -1.4203
  866MOL0     H16851  -0.416   2.938   0.491 -0.6952 -2.1585  1.0717
  866MOL0     H16852  -0.597   2.927   0.518  1.7221 -1.8504  0.4645
  866MOL0     H16853  -0.600   3.007   0.298 -1.0992  0.2870  0.3240
  866MOL0     H16854  -0.550   3.162   0.390  1.2610 -0.9342  0.8608
  866MOL0     H16855  -0.312   3.101   0.339  3.0695 -1.0453 -3.4933
  866MOL0     H16856  -0.372   2.955   0.271 -1.7623 -0.0642  0.3686
  866MOL0     H16857  -0.503   3.087   0.106  0.6955 -0.7949 -0.0560
  866MOL0     H16858  -0.445   3.240   0.166  1.6218  0.4515  2.5708
  866MOL0     H16859  -0.198   3.172   0.121  0.6081 -1.1017 -0.8048
  866MOL0     H16860  -0.278   3.185  -0.023  2.5926 -2.0586 -0.5394
  866MOL0     H16861  -0.110   2.942   0.168 -0.2779 -0.4353 -0.2466
  866MOL0     H16862  -0.112   2.645   0.145  3.0946  0.1044  0.4884
  866MOL0     H16863  -0.167   2.594  -0.022 -2.4700  2.1699  0.6689
  866MOL0     H16864   0.079   2.571   0.026  0.2410 -1.2979 -4.1855
  866MOL0     H16865   0.092   2.748   0.021  0.4737  1.5534 -2.9364
  866MOL0     H16866  -0.015   2.725  -0.210 -0.9957 -0.1136  1.0592
  866MOL0     H16867   0.000   2.547  -0.193 -1.0954  0.9660 -0.0306
  866MOL0     H16868   0.245   2.583  -0.183 -1.2223 -1.8664 -0.7438
  866MOL0     H16869   0.216   2.770  -0.171  1.3677 -0.4388  0.2253
  866MOL0     H16870   0.214   2.667  -0.580 -0.9538  1.2352 -0.5675
  866MOL0     H16871   0.424   2.830  -0.834 -1.5345 -1.1755 -2.8638
  866MOL0     H16872   0.432   2.648  -0.806 -2.1597 -0.7595 -1.9990
  866MOL0     H16873   0.283   2.737  -0.809  0.7725  1.0811 -1.2152
  866MOL0     H16874   0.996   2.729  -0.575  4.8721  0.2739  0.5831
  866MOL0     H16875   1.212   2.828  -0.599 -0.8185  0.2854  1.6000
  866MOL0     H16876   1.380   2.918  -0.703 -0.8021  0.4994 -0.8725
  866MOL0     H16877   1.473   3.060  -0.677 -1.3030  1.6510  0.4813
  866MOL0     H16878   1.313   2.968  -0.444  0.8211 -0.2179  1.3266
  866MOL0     H16879   1.486   2.930  -0.489 -0.7233 -0.1679 -0.3976
  866MOL0     H16880   1.437   3.109  -0.328 -1.4844  0.2678  0.6209
  866MOL0     H16881   1.337   3.193  -0.436  0.7226  0.3945 -0.6544
  866MOL0     H16882   1.640   3.156  -0.473 -0.0362 -0.5313 -1.2594
  866MOL0     H16883   1.549   3.243  -0.588 -0.8257 -0.0211  0.4386
  866MOL0     H16884   1.561   3.303  -0.295  0.1882 -1.2747 -1.1178
  866MOL0     H16885   1.472   3.400  -0.422  0.0390 -1.7112 -2.8118
  866MOL0     H16886   1.659   3.526  -0.367  0.9462  0.3419  1.2114
  866MOL0     H16887   1.768   3.387  -0.380 -0.7728  1.7838  0.7376
  866MOL0     H16888   1.594   3.501  -0.619 -0.3937 -3.2554 -1.3586
  866MOL0     H16889   1.718   3.381  -0.623  0.9552 -0.4002  0.5942
  866MOL0     H16890   1.809   3.602  -0.708 -1.1317  3.0094  0.7943
  866MOL0     H16891   1.897   3.545  -0.563 -0.9635 -1.3940 -0.7967
  866MOL0     H16892   1.045   3.206  -0.723 -0.0867 -0.2243 -0.8622
  866MOL0     H16893   0.818   3.116  -0.667 -0.1877 -1.7026 -1.3382
  866MOL0     H16894   0.609   2.870  -0.385 -0.3857  2.5512 -1.2703
  866MOL0     H16895   0.427   2.775  -0.250 -2.0424 -0.3449 -1.2005
  866MOL0     H16896  -0.062   2.833   0.670 -0.3057 -0.0790 -0.4797
  866MOL0     H16897   0.086   2.781   0.487  1.6652  0.6157 -0.5138
  866MOL0     H16898   0.267   2.989   0.056 -0.5847 -2.7254 -0.1254
  866MOL0     H16899   0.427   2.992  -0.127 -0.7930 -2.7450 -1.9900
  866MOL0     H16900   0.826   2.956  -0.001 -0.6936 -2.0310  2.0147
  866MOL0     H16901   0.839   2.784  -0.052  1.1357  0.3207  0.8045
  866MOL0     H16902   0.887   3.054  -0.195  1.6784  0.7012 -2.4630
  866MOL0     H16903   0.873   2.905  -0.293  0.1976 -0.4895 -0.6248
  866MOL0     H16904   1.052   2.808  -0.222  1.2684  0.9854 -1.0578
  866MOL0     H16905   1.051   2.877  -0.052 -0.1135 -1.8566  0.3657
  866MOL0     H16906   1.133   3.042  -0.300  0.4009 -1.9995 -1.6113
  866MOL0     H16907   1.244   2.932  -0.199 -0.6611 -0.3397 -0.6051
  866MOL0     H16908   1.217   3.258   0.059 -0.5889  1.0709 -0.4646
  866MOL0     H16909   0.710   2.772   0.117 -0.7087 -2.8527 -3.8685
  866MOL0     H16910   0.560   2.786   0.308 -0.2621 -0.9334 -1.0003
  867MOL0     O16911   9.763   0.503   8.338  0.4322 -0.1439  0.1869
  867MOL0     C16912   9.755   0.513   8.215 -0.9559  0.4222  0.3749
  867MOL0     O16913   9.644   0.521   8.129 -1.0966 -0.2161 -0.1927
  867MOL0     C16914   9.519   0.536   8.166  0.0119 -0.3393 -1.2924
  867MOL0     C16915   9.455   0.469   8.270 -0.4159 -0.4314  0.2411
  867MOL0     C16916   9.319   0.495   8.302  0.1426 -0.8010  0.2447
  867MOL0     C16917   9.244   0.589   8.226 -0.5700 -0.4605  0.1407
  867MOL0     O16918   9.117   0.632   8.245 -0.4396  0.4136  0.0468
  867MOL0     C16919   9.047   0.553   8.341 -0.9764  0.0802  0.5905
  867MOL0     C16920   8.903   0.600   8.327 -0.7176  0.5598 -0.5511
  867MOL0     C16921   8.811   0.531   8.433 -0.5407 -1.1012  0.0783
  867MOL0     C16922   8.664   0.580   8.441 -0.8744 -0.8374  0.6584
  867MOL0     C16923   8.602   0.530   8.567  0.1847  0.3877  0.6315
  867MOL0     C16924   8.445   0.555   8.566  0.1285 -0.3035 -0.0129
  867MOL0     C16925   8.374   0.485   8.682  0.1026 -1.1376  0.4012
  867MOL0     C16926   8.223   0.507   8.680  0.1698 -0.1918  0.1378
  867MOL0     N16927   8.185   0.647   8.704 -0.4303 -0.2417 -0.8962
  867MOL0     C16928   8.252   0.726   8.805 -0.4449 -0.1429 -0.2699
  867MOL0     C16929   8.212   0.857   8.778  0.1742 -0.7030 -1.3350
  867MOL0     C16930   8.258   0.984   8.842 -0.4261  0.3104  0.5550
  867MOL0     C16931   8.205   1.022   8.979 -0.0224  0.1837 -0.0722
  867MOL0     C16932   8.174   1.178   8.997 -0.2858 -0.2480  0.0254
  867MOL0     C16933   8.305   1.253   8.992 -0.8390 -0.5047  0.2292
  867MOL0     O16934   8.373   1.246   9.120  0.1516  0.4045  0.1415
  867MOL0     C16935   8.490   1.180   9.136  0.3752  0.6747  0.2670
  867MOL0     C16936   8.531   1.137   9.260  0.7545  0.5773  0.9877
  867MOL0     C16937   8.658   1.072   9.276 -0.3730 -0.4935  0.1517
  867MOL0     C16938   8.704   1.029   9.415  0.2762  0.7568  0.1251
  867MOL0     C16939   8.747   1.057   9.172  0.1932 -0.2590  0.5262
  867MOL0     C16940   8.884   1.013   9.185 -0.0506 -0.3396  0.1883
  867MOL0     O16941   8.962   1.120   9.169 -0.0036  0.7626  0.0370
  867MOL0     C16942   9.101   1.098   9.165 -0.6275  0.4010  0.3092
  867MOL0     C16943   9.181   1.137   9.273 -0.4989 -0.7212 -0.6738
  867MOL0     C16944   9.318   1.126   9.263  0.4032  0.0055  0.1902
  867MOL0     C16945   9.378   1.067   9.147 -0.5184  0.1094  0.0358
  867MOL0     O16946   9.510   1.058   9.155  0.5768 -1.0708  0.3287
  867MOL0     C16947   9.590   1.027   9.038  0.3157  0.1907 -1.0542
  867MOL0     C16948   9.725   0.976   9.066 -0.1109 -0.0413  0.7496
  867MOL0     C16949   9.810   1.081   9.135 -0.2400 -0.3751  0.4207
  867MOL0     C16950   9.959   1.041   9.121  0.2614 -0.8836 -0.3220
  867MOL0     C16951  10.050   1.160   9.157  0.0635 -0.2683 -0.9596
  867MOL0     C16952  10.201   1.126   9.163  0.5168 -0.7322  0.7281
  867MOL0     C16953  10.296   1.244   9.202  0.0336 -0.0416 -0.0997
  867MOL0     C16954  10.270   1.310   9.337  0.0468 -0.0032  0.3086
  867MOL0    Cl16955  10.406   1.422   9.385 -0.1947  0.2034  0.1741
  867MOL0     C16956   9.294   1.029   9.039 -1.0333 -0.3606  0.5320
  867MOL0     C16957   9.164   1.047   9.047  0.2573  0.1895 -0.6158
  867MOL0     O16958   8.916   0.904   9.211 -0.6010  0.1952  0.6243
  867MOL0     C16959   8.703   1.110   9.047  0.3091 -0.0313 -0.1971
  867MOL0     C16960   8.583   1.177   9.034 -0.7027  0.0255 -0.0201
  867MOL0     N16961   8.129   0.853   8.672  0.1492  0.2895  0.0781
  867MOL0     N16962   8.114   0.730   8.625 -0.1128  0.0962 -0.3000
  867MOL0     C16963   9.315   0.648   8.115  0.3221  0.9417 -0.3449
  867MOL0     C16964   9.443   0.621   8.088  0.0215 -0.4151 -0.2122
  867MOL0     C16965   9.881   0.493   8.140 -0.0223 -0.3705 -0.7281
  867MOL0     C16966   9.889   0.429   8.016 -0.6370 -0.0413  0.1903
  867MOL0     C16967  10.008   0.400   7.949  0.3975  0.1223  0.0095
  867MOL0     C16968  10.132   0.424   8.013  0.4116 -0.3843 -0.4728
  867MOL0     O16969  10.251   0.382   7.960 -0.4580 -0.7254 -0.2056
  867MOL0     C16970  10.267   0.322   7.838 -1.2390  0.6806 -0.0936
  867MOL0     C16971  10.417   0.332   7.816 -0.5535  0.0635  0.1607
  867MOL0     C16972  10.502   0.258   7.924  0.2640  0.3322  0.6473
  867MOL0     C16973  10.636   0.230   7.871  1.0218 -0.3323  0.8041
  867MOL0     C16974  10.705   0.353   7.842 -0.0775 -1.1497 -0.0517
  867MOL0     C16975  10.761   0.456   7.822  1.5665 -0.1814 -0.0157
  867MOL0     C16976  10.124   0.483   8.140  0.0469 -0.7770 -0.1219
  867MOL0     C16977  10.006   0.520   8.202  0.1016  0.8265 -0.9030
  867MOL0     H16978   9.500   0.399   8.340 -2.8079 -0.8146  1.5201
  867MOL0     H16979   9.271   0.439   8.382 -2.1103  1.4743  0.6198
  867MOL0     H16980   9.056   0.445   8.323  0.2327  0.0554  1.2053
  867MOL0     H16981   9.075   0.588   8.441 -1.6964  4.3129 -0.5219
  867MOL0     H16982   8.896   0.707   8.349  1.0195  0.7230 -0.6486
  867MOL0     H16983   8.867   0.592   8.224 -2.5802  1.3958 -0.0101
  867MOL0     H16984   8.802   0.424   8.413 -1.7292 -1.2268  1.1355
  867MOL0     H16985   8.860   0.547   8.529  1.4330  1.5714 -1.2221
  867MOL0     H16986   8.668   0.689   8.432 -1.1877 -0.9524 -1.3605
  867MOL0     H16987   8.606   0.550   8.353 -0.3217 -0.8026  0.2700
  867MOL0     H16988   8.622   0.423   8.567  1.7850  0.6577  0.8891
  867MOL0     H16989   8.651   0.565   8.659 -0.2240 -0.9467  1.3811
  867MOL0     H16990   8.416   0.660   8.567 -1.3313 -0.6501  2.4871
  867MOL0     H16991   8.396   0.520   8.474 -2.4144  1.2421  0.6478
  867MOL0     H16992   8.392   0.377   8.686  1.9022 -0.8392  1.1968
  867MOL0     H16993   8.418   0.542   8.763  1.5505 -1.7795  0.0985
  867MOL0     H16994   8.180   0.447   8.761 -0.8768  1.6029  0.9565
  867MOL0     H16995   8.165   0.486   8.590  0.3355  3.4548 -0.9585
  867MOL0     H16996   8.326   0.700   8.879 -0.5689  1.4071  0.4363
  867MOL0     H16997   8.367   0.981   8.847 -0.4787  0.3868  2.0968
  867MOL0     H16998   8.221   1.062   8.776 -0.7056  0.0095  0.3512
  867MOL0     H16999   8.288   0.988   9.041 -1.9354 -0.7482  2.1449
  867MOL0     H17000   8.110   0.968   8.989 -1.0815  1.7726 -1.0603
  867MOL0     H17001   8.113   1.191   9.087 -1.8114  1.0278 -1.1443
  867MOL0     H17002   8.123   1.221   8.910 -0.2693  0.8847  0.5665
  867MOL0     H17003   8.289   1.359   8.968  4.0902  0.6013  0.8047
  867MOL0     H17004   8.368   1.218   8.910  1.6296  0.2437  1.7156
  867MOL0     H17005   8.452   1.141   9.335 -0.3507 -0.9211 -0.0172
  867MOL0     H17006   8.793   1.088   9.436  1.1274 -0.1269 -0.9260
  867MOL0     H17007   8.629   1.048   9.493  0.5310  2.3078  0.0280
  867MOL0     H17008   8.731   0.924   9.422  1.9227  1.1373 -0.2530
  867MOL0     H17009   9.143   1.159   9.373 -1.9770  2.2419 -1.7564
  867MOL0     H17010   9.379   1.141   9.352  0.5406 -1.4290  0.3719
  867MOL0     H17011   9.544   0.945   8.983 -1.0417  0.9373 -1.0840
  867MOL0     H17012   9.590   1.116   8.974  2.6441 -0.4192 -2.0203
  867MOL0     H17013   9.719   0.882   9.122 -1.5789  0.1403  0.9367
  867MOL0     H17014   9.772   0.940   8.974 -1.2920  0.9184 -0.2837
  867MOL0     H17015   9.789   1.073   9.242  1.7007 -0.2778  0.8592
  867MOL0     H17016   9.793   1.181   9.093  0.8889 -0.0219  0.7830
  867MOL0     H17017   9.973   0.955   9.187  0.5354 -0.4873  0.1478
  867MOL0     H17018   9.987   1.020   9.018 -0.3231 -1.7794 -0.3123
  867MOL0     H17019  10.019   1.196   9.256  3.6528  0.7350 -0.0575
  867MOL0     H17020  10.029   1.247   9.095 -1.5675  1.7676  2.1967
  867MOL0     H17021  10.224   1.042   9.230  1.5879  1.3715  3.2051
  867MOL0     H17022  10.213   1.090   9.061  2.7657 -0.3273  0.7998
  867MOL0     H17023  10.303   1.328   9.132  0.4273 -0.2830 -0.3518
  867MOL0     H17024  10.400   1.209   9.204 -0.0410 -0.3112  2.5223
  867MOL0     H17025  10.253   1.241   9.420  0.0047 -0.4634 -0.0792
  867MOL0     H17026  10.175   1.365   9.330  0.2212  0.1392 -1.3674
  867MOL0     H17027   9.334   0.979   8.952  1.4776  1.8032  0.3425
  867MOL0     H17028   9.099   1.016   8.966 -0.3257  0.1103 -0.1325
  867MOL0     H17029   8.770   1.101   8.962 -0.2640 -1.9422 -0.4938
  867MOL0     H17030   8.559   1.229   8.942 -1.5750  2.0370  1.2712
  867MOL0     H17031   9.262   0.715   8.047 -0.3324  0.3927 -0.3943
  867MOL0     H17032   9.498   0.668   8.007 -0.2625 -2.0266 -1.4011
  867MOL0     H17033   9.795   0.412   7.965 -1.4284  0.2327  1.4930
  867MOL0     H17034   9.999   0.347   7.855  0.6329 -0.0867  0.1030
  867MOL0     H17035  10.231   0.218   7.832 -2.5380  1.0131  1.3611
  867MOL0     H17036  10.214   0.381   7.762  1.2181  1.2673 -1.4620
  867MOL0     H17037  10.448   0.437   7.811  0.6982  0.0006  3.9519
  867MOL0     H17038  10.437   0.286   7.719 -1.6811 -1.2513  0.5244
  867MOL0     H17039  10.458   0.159   7.941 -0.6543  0.5813 -0.1542
  867MOL0     H17040  10.496   0.317   8.015  0.3536  0.5573  0.5078
  867MOL0     H17041  10.633   0.168   7.781 -1.2851  2.1473 -0.9811
  867MOL0     H17042  10.690   0.177   7.949  0.7514 -1.1712  0.4268
  867MOL0     H17043  10.817   0.547   7.825  1.8309 -0.3503  0.2417
  867MOL0     H17044  10.222   0.501   8.183 -0.5399 -0.1158  0.9485
  867MOL0     H17045  10.006   0.577   8.294  0.9631 -0.2881 -0.1808
  868MOL0     O17046   8.274   8.509   5.576  0.4581  0.1479 -0.1926
  868MOL0     C17047   8.278   8.616   5.637 -0.6479  0.3789 -0.4468
  868MOL0     O17048   8.169   8.678   5.696  0.0694 -0.6600  0.2155
  868MOL0     C17049   8.052   8.608   5.698  0.3020 -0.1722 -0.3901
  868MOL0     C17050   8.013   8.503   5.793 -0.5426 -0.1095  0.0397
  868MOL0     C17051   7.891   8.441   5.786  0.4049 -0.2445 -0.1523
  868MOL0     C17052   7.796   8.482   5.690  0.2353  0.3719  0.2639
  868MOL0     O17053   7.675   8.414   5.690 -0.5873 -0.4231 -0.1534
  868MOL0     C17054   7.601   8.409   5.566 -0.3435 -0.2854  0.0508
  868MOL0     C17055   7.542   8.276   5.564 -0.6997 -0.3359 -0.2445
  868MOL0     C17056   7.436   8.251   5.671 -0.1501 -0.7152  0.1454
  868MOL0     C17057   7.352   8.132   5.623  0.5580  0.2388  1.0013
  868MOL0     C17058   7.248   8.095   5.721 -0.4202  0.4102 -0.5416
  868MOL0     C17059   7.297   8.024   5.847 -0.0164  0.8361  0.1295
  868MOL0     C17060   7.191   8.014   5.961 -0.4780  0.1968 -0.7584
  868MOL0     C17061   7.072   7.915   5.935 -0.0399  0.6081 -0.2706
  868MOL0     N17062   7.018   7.872   6.064 -0.4188 -1.3256 -0.1026
  868MOL0     C17063   7.025   7.937   6.182  0.6460  0.6163 -0.3922
  868MOL0     C17064   6.931   7.873   6.260  0.3949  0.3295 -0.1707
  868MOL0     C17065   6.907   7.924   6.401 -0.3888  0.1443 -0.9429
  868MOL0     C17066   6.805   8.043   6.396  0.6418 -0.5138 -0.1104
  868MOL0     C17067   6.732   8.070   6.530  0.5670 -0.4712  0.3301
  868MOL0     C17068   6.630   8.187   6.508 -0.5063 -0.3604  1.2159
  868MOL0     O17069   6.572   8.228   6.629 -0.3156 -0.6148  0.3681
  868MOL0     C17070   6.472   8.322   6.627 -1.2845 -0.6968  0.0958
  868MOL0     C17071   6.424   8.398   6.522 -1.0271 -0.0689 -0.4522
  868MOL0     C17072   6.319   8.488   6.537 -0.4703 -0.5899 -0.4764
  868MOL0     C17073   6.295   8.582   6.421  0.3420  0.0550  0.2264
  868MOL0     C17074   6.250   8.493   6.669 -0.2696 -0.6189  0.2567
  868MOL0     C17075   6.140   8.595   6.698 -0.1237 -0.5909 -0.2834
  868MOL0     O17076   6.107   8.600   6.831 -0.2797  0.2392 -0.5665
  868MOL0     C17077   6.044   8.708   6.881  1.0812 -0.3293  0.7300
  868MOL0     C17078   5.906   8.718   6.875  0.1522 -0.1787  0.5357
  868MOL0     C17079   5.838   8.822   6.931 -0.3204 -0.0913  0.2536
  868MOL0     C17080   5.908   8.922   7.000 -0.4922  0.3341 -0.7521
  868MOL0     O17081   5.842   9.013   7.081 -0.6535  0.2469 -0.5163
  868MOL0     C17082   5.736   8.966   7.171 -0.6694  0.2877  0.7077
  868MOL0     C17083   5.657   9.082   7.227  0.0038 -0.3232  0.6309
  868MOL0     C17084   5.523   9.047   7.307 -0.2925 -1.0363  0.2472
  868MOL0     C17085   5.411   9.018   7.220 -0.6193  0.2398 -0.6062
  868MOL0     C17086   5.358   9.142   7.143  0.2430 -0.1675  0.5083
  868MOL0     C17087   5.236   9.099   7.059 -0.1691 -0.3977 -0.4522
  868MOL0     C17088   5.170   9.224   6.989 -0.3262 -0.1372 -0.0735
  868MOL0     C17089   5.089   9.192   6.876 -0.0756  0.4341  0.1280
  868MOL0    Cl17090   4.965   9.070   6.935 -0.2755  0.1165 -0.1147
  868MOL0     C17091   6.046   8.930   7.000 -0.2753  0.0734  0.5081
  868MOL0     C17092   6.111   8.821   6.930  1.2138  0.3311  0.6533
  868MOL0     O17093   6.085   8.657   6.611  0.7901 -1.0618  0.0880
  868MOL0     C17094   6.304   8.417   6.773 -0.1886  0.4936  0.7237
  868MOL0     C17095   6.415   8.330   6.745 -0.1121 -0.1547 -0.3568
  868MOL0     N17096   6.873   7.774   6.190  0.9984 -0.0198 -0.2493
  868MOL0     N17097   6.925   7.773   6.074  0.5055  0.1223  0.7173
  868MOL0     C17098   7.826   8.593   5.601 -0.3783 -0.6899 -0.5832
  868MOL0     C17099   7.949   8.658   5.610  0.2670  0.4674  0.6527
  868MOL0     C17100   8.410   8.685   5.638 -0.3304 -0.6520 -0.5797
  868MOL0     C17101   8.528   8.619   5.594  0.0260  0.4250 -0.9593
  868MOL0     C17102   8.657   8.682   5.585  0.6912 -0.5194 -0.4510
  868MOL0     C17103   8.661   8.818   5.613  0.0343 -0.6947 -0.3571
  868MOL0     O17104   8.769   8.902   5.592  0.2306  0.3220  0.3480
  868MOL0     C17105   8.891   8.854   5.538  0.6893 -0.6126 -0.3106
  868MOL0     C17106   8.976   8.979   5.504  0.5535  0.2455  0.4354
  868MOL0     C17107   8.980   9.081   5.618 -0.7765  0.3297  0.5236
  868MOL0     C17108   9.088   9.188   5.593 -0.2458 -0.8689 -0.7423
  868MOL0     C17109   9.220   9.161   5.639 -0.4045  0.1737 -0.1053
  868MOL0     C17110   9.339   9.152   5.666  0.7900 -0.1443 -0.0144
  868MOL0     C17111   8.548   8.883   5.662  0.5036 -0.6266 -0.8885
  868MOL0     C17112   8.420   8.825   5.676 -1.0054  0.3934 -0.1627
  868MOL0     H17113   8.095   8.472   5.857  1.3668  0.8026 -1.8339
  868MOL0     H17114   7.869   8.359   5.854 -2.5440  1.3410  1.0011
  868MOL0     H17115   7.513   8.473   5.573 -1.1869 -1.5671  2.9289
  868MOL0     H17116   7.654   8.424   5.472 -0.8023 -0.6373 -0.2660
  868MOL0     H17117   7.499   8.259   5.465 -0.9948 -0.9378 -0.0157
  868MOL0     H17118   7.613   8.193   5.562  0.8657  0.9861 -1.6818
  868MOL0     H17119   7.496   8.232   5.761  0.3529 -0.3410 -0.1066
  868MOL0     H17120   7.378   8.343   5.687  1.0368 -0.0342  0.6979
  868MOL0     H17121   7.292   8.156   5.535  1.4717 -1.6568 -0.2268
  868MOL0     H17122   7.417   8.045   5.608 -0.3592 -0.4157  0.7537
  868MOL0     H17123   7.190   8.186   5.736  0.5333  0.9268  0.1816
  868MOL0     H17124   7.173   8.028   5.678 -1.3116 -0.0489  1.6124
  868MOL0     H17125   7.344   7.928   5.821  2.3432  1.1208  2.8613
  868MOL0     H17126   7.385   8.078   5.884  0.9308  0.1841 -1.0814
  868MOL0     H17127   7.247   7.992   6.052  1.6594  1.0777 -1.7972
  868MOL0     H17128   7.151   8.115   5.970 -0.4102  0.2417 -0.9706
  868MOL0     H17129   7.114   7.837   5.871  2.0984 -0.3124  2.0208
  868MOL0     H17130   6.994   7.966   5.878  0.5855  1.6597 -0.2207
  868MOL0     H17131   7.098   8.013   6.208 -0.8171  2.2187 -0.7647
  868MOL0     H17132   6.894   7.836   6.465  0.1473 -0.8206 -2.1121
  868MOL0     H17133   7.004   7.960   6.437 -1.1921  1.9492 -0.4617
  868MOL0     H17134   6.723   8.020   6.327 -1.8964  0.7496  2.2972
  868MOL0     H17135   6.862   8.132   6.369 -1.5813  1.3002  0.8134
  868MOL0     H17136   6.799   8.091   6.614  0.3110 -1.3004  0.7465
  868MOL0     H17137   6.660   7.990   6.552 -2.8085  2.5202  1.1768
  868MOL0     H17138   6.547   8.155   6.445  0.0632 -3.2917  1.8277
  868MOL0     H17139   6.686   8.266   6.457  2.7062 -3.8622 -1.2986
  868MOL0     H17140   6.467   8.387   6.423  1.3054 -1.7828  0.6583
  868MOL0     H17141   6.362   8.559   6.337 -0.6239 -1.2680 -0.2124
  868MOL0     H17142   6.190   8.574   6.390  0.7937 -2.6950 -0.8971
  868MOL0     H17143   6.302   8.688   6.446  0.6017 -0.0225  0.4882
  868MOL0     H17144   5.858   8.633   6.827  3.5029 -2.9981  1.7545
  868MOL0     H17145   5.730   8.822   6.919 -0.3396 -1.3624  0.2443
  868MOL0     H17146   5.658   8.908   7.121 -1.0785  0.0583  1.5862
  868MOL0     H17147   5.769   8.904   7.254 -0.7836  0.2848  0.7516
  868MOL0     H17148   5.722   9.132   7.299 -0.1590  2.3157 -0.9295
  868MOL0     H17149   5.639   9.156   7.149  0.4238 -0.0140  0.8224
  868MOL0     H17150   5.503   9.136   7.367 -0.4318 -1.4051  0.7552
  868MOL0     H17151   5.541   8.963   7.375  1.9603 -1.4406 -0.7434
  868MOL0     H17152   5.430   8.931   7.156  1.3268 -1.0408  1.5703
  868MOL0     H17153   5.330   8.999   7.292  0.1421  1.0127  0.4812
  868MOL0     H17154   5.436   9.166   7.069  0.9104 -0.7554  1.0131
  868MOL0     H17155   5.338   9.221   7.215  1.1603  1.7935 -1.2723
  868MOL0     H17156   5.281   9.039   6.980  0.4888  1.3106 -1.4340
  868MOL0     H17157   5.156   9.055   7.120 -2.5556  3.5842 -0.3642
  868MOL0     H17158   5.254   9.289   6.963 -0.7411  1.1094  1.5302
  868MOL0     H17159   5.109   9.273   7.066 -0.7687 -0.6934 -0.0605
  868MOL0     H17160   5.146   9.149   6.793 -0.3722 -1.2628  0.7796
  868MOL0     H17161   5.037   9.284   6.846  1.4329  0.8262 -1.4506
  868MOL0     H17162   6.102   9.014   7.041 -0.8115  0.5820  0.2186
  868MOL0     H17163   6.218   8.832   6.910  1.4623  1.8895  2.4911
  868MOL0     H17164   6.264   8.401   6.873 -0.3205  5.0454  1.6183
  868MOL0     H17165   6.458   8.261   6.816  0.3892 -1.7162 -2.0949
  868MOL0     H17166   7.753   8.630   5.530 -0.2820 -1.2465 -0.9824
  868MOL0     H17167   7.976   8.743   5.547  1.7727 -1.4276 -1.4187
  868MOL0     H17168   8.530   8.523   5.544  4.4450  0.2962 -0.9263
  868MOL0     H17169   8.738   8.623   5.543  0.7463 -0.2079 -0.7893
  868MOL0     H17170   8.937   8.784   5.609 -0.4844 -1.7259 -0.6290
  868MOL0     H17171   8.872   8.799   5.446 -0.4579 -2.3298  0.8921
  868MOL0     H17172   8.929   9.029   5.418 -1.7352 -1.5558  0.5477
  868MOL0     H17173   9.080   8.954   5.481  0.5228 -0.2684  0.8319
  868MOL0     H17174   9.006   9.033   5.713  0.1109  0.9036  0.5818
  868MOL0     H17175   8.888   9.138   5.631 -1.1686  0.1213 -1.1511
  868MOL0     H17176   9.058   9.277   5.649  1.7490  0.6607 -1.9846
  868MOL0     H17177   9.089   9.214   5.487  1.5603 -2.9375 -1.3221
  868MOL0     H17178   9.446   9.151   5.673  0.8670 -0.7217 -1.0390
  868MOL0     H17179   8.565   8.990   5.664 -1.7801 -0.2123 -1.0926
  868MOL0     H17180   8.339   8.890   5.705 -0.4039  1.3253 -0.5415
  869MOL0     O17181   1.249   1.756   8.069 -0.3236 -0.5898  0.0994
  869MOL0     C17182   1.292   1.870   8.097  0.4554  0.9860 -1.2168
  869MOL0     O17183   1.216   1.970   8.153  0.1968  0.1404 -0.1206
  869MOL0     C17184   1.079   1.950   8.154 -0.1504 -0.1452 -0.0086
  869MOL0     C17185   1.023   1.887   8.265  0.1490  0.8140  0.7854
  869MOL0     C17186   0.889   1.873   8.267  0.1317  0.3290 -0.0054
  869MOL0     C17187   0.811   1.928   8.164 -0.5143  0.3379  0.8565
  869MOL0     O17188   0.672   1.932   8.162 -0.3212 -0.3545  0.1077
  869MOL0     C17189   0.604   1.822   8.219 -0.2606 -0.2747  0.1715
  869MOL0     C17190   0.461   1.812   8.161 -1.0133  0.0231 -0.7731
  869MOL0     C17191   0.463   1.811   8.006 -0.9083  0.2937  0.1419
  869MOL0     C17192   0.342   1.896   7.949 -0.7075 -0.4732 -0.9034
  869MOL0     C17193   0.202   1.853   8.002  0.2406  0.4555 -0.0703
  869MOL0     C17194   0.184   1.702   7.999  0.4119  0.0080 -0.0987
  869MOL0     C17195   0.046   1.653   8.046 -0.7718 -0.3236  0.5981
  869MOL0     C17196  -0.066   1.733   7.978  0.7109 -0.0373 -0.0535
  869MOL0     N17197  -0.198   1.680   8.009 -0.2761 -0.0074 -0.8768
  869MOL0     C17198  -0.279   1.747   8.093  0.5089  0.1844  0.6240
  869MOL0     C17199  -0.394   1.673   8.083  0.4428 -0.8347 -0.4569
  869MOL0     C17200  -0.534   1.715   8.129  1.0950  0.7063 -0.0993
  869MOL0     C17201  -0.641   1.620   8.077 -0.7061 -0.1747  0.7363
  869MOL0     C17202  -0.781   1.655   8.130 -0.2069  0.1938  0.1362
  869MOL0     C17203  -0.898   1.601   8.029 -0.2360 -0.6651 -0.0146
  869MOL0     O17204  -1.003   1.694   8.020 -0.4458  0.3375 -0.0746
  869MOL0     C17205  -1.086   1.681   8.124 -0.6905 -0.1818  0.3230
  869MOL0     C17206  -1.098   1.792   8.212 -0.1024 -0.1630  0.1485
  869MOL0     C17207  -1.186   1.786   8.318  0.5765 -1.2600 -0.7346
  869MOL0     C17208  -1.201   1.910   8.408 -0.6391  0.2237  0.7610
  869MOL0     C17209  -1.277   1.683   8.329 -0.2300 -0.2720 -0.7582
  869MOL0     C17210  -1.381   1.663   8.433  0.8930 -0.2888 -0.1190
  869MOL0     O17211  -1.440   1.773   8.474  0.0802 -0.9604 -0.3445
  869MOL0     C17212  -1.570   1.774   8.528 -1.1237 -0.1799  0.3171
  869MOL0     C17213  -1.661   1.861   8.464 -0.5267  0.3250  0.9867
  869MOL0     C17214  -1.795   1.872   8.494  0.6928  0.9735 -0.0914
  869MOL0     C17215  -1.848   1.784   8.592 -0.1785  0.6626 -0.2326
  869MOL0     O17216  -1.987   1.799   8.612  0.7142 -0.1836 -0.3123
  869MOL0     C17217  -2.045   1.738   8.733  0.3815  0.7876 -0.3038
  869MOL0     C17218  -2.187   1.795   8.752  0.2056 -0.0794  0.4317
  869MOL0     C17219  -2.279   1.716   8.665  0.7127 -0.5328 -0.8916
  869MOL0     C17220  -2.399   1.797   8.632  0.4318 -0.6735  0.0795
  869MOL0     C17221  -2.513   1.722   8.565 -0.3442  0.6676  0.8346
  869MOL0     C17222  -2.657   1.772   8.574  0.7106  0.2410  0.1330
  869MOL0     C17223  -2.743   1.700   8.467  0.2754  1.2295  0.5680
  869MOL0     C17224  -2.888   1.742   8.486 -0.0631 -0.2038 -0.3644
  869MOL0    Cl17225  -2.984   1.654   8.361 -0.5234 -0.6903 -0.1704
  869MOL0     C17226  -1.765   1.696   8.648 -0.5000  0.8084  0.9107
  869MOL0     C17227  -1.626   1.684   8.620 -0.1957 -0.0944  0.7789
  869MOL0     O17228  -1.413   1.550   8.464 -0.0985 -0.5039  0.1285
  869MOL0     C17229  -1.269   1.580   8.240  0.4057 -0.9622  0.2360
  869MOL0     C17230  -1.170   1.573   8.147  0.0754 -0.1710  0.2523
  869MOL0     N17231  -0.380   1.572   7.995  0.3549  0.2775 -0.1211
  869MOL0     N17232  -0.259   1.574   7.947  0.5744 -0.1650  0.0263
  869MOL0     C17233   0.870   1.985   8.054  0.3704 -0.2776 -0.2946
  869MOL0     C17234   1.003   1.982   8.044  0.5207  0.4263 -0.3970
  869MOL0     C17235   1.443   1.895   8.088  0.1144  0.5395 -0.1766
  869MOL0     C17236   1.496   2.015   8.142  0.0993 -0.4414  0.0387
  869MOL0     C17237   1.634   2.028   8.146 -0.4196  0.0457  0.9981
  869MOL0     C17238   1.718   1.946   8.081 -0.2437 -0.0799  1.0625
  869MOL0     O17239   1.849   1.987   8.069 -0.3493 -0.0135 -0.4797
  869MOL0     C17240   1.935   1.902   7.993  0.0158 -0.8552  1.0459
  869MOL0     C17241   1.973   1.778   8.067  0.0930 -0.5744 -0.6808
  869MOL0     C17242   2.048   1.810   8.195 -0.2978 -0.3981 -0.6950
  869MOL0     C17243   2.137   1.690   8.248  0.5573  0.5233  0.9427
  869MOL0     C17244   2.260   1.678   8.162  0.1918 -0.5250 -0.5929
  869MOL0     C17245   2.372   1.661   8.110 -0.0770  0.6807  0.1366
  869MOL0     C17246   1.664   1.832   8.017 -0.8584  0.0171  0.2197
  869MOL0     C17247   1.528   1.799   8.032  0.5902  0.3993  0.6560
  869MOL0     H17248   1.088   1.853   8.345 -0.9231  0.6448  1.6129
  869MOL0     H17249   0.836   1.806   8.335  0.6561  1.0715  1.1672
  869MOL0     H17250   0.669   1.739   8.191  0.9931  0.4528  0.8412
  869MOL0     H17251   0.609   1.824   8.328  3.0733 -0.3999  0.1255
  869MOL0     H17252   0.408   1.730   8.210 -3.4800  1.2725 -1.1497
  869MOL0     H17253   0.418   1.911   8.181 -0.9069  0.0308 -0.5806
  869MOL0     H17254   0.550   1.859   7.960 -0.4923  0.8796  1.4903
  869MOL0     H17255   0.458   1.709   7.967 -3.5725 -0.2268  1.5591
  869MOL0     H17256   0.366   2.000   7.973 -0.0859 -1.0909  1.3702
  869MOL0     H17257   0.349   1.898   7.840 -1.8799  1.0888 -0.9831
  869MOL0     H17258   0.184   1.881   8.106 -0.6893  1.9104 -0.6025
  869MOL0     H17259   0.125   1.900   7.941 -1.6573 -1.7748  0.4868
  869MOL0     H17260   0.191   1.656   7.900 -2.4036 -2.5063  0.7051
  869MOL0     H17261   0.258   1.648   8.059  0.9105  0.4498 -0.3133
  869MOL0     H17262   0.029   1.546   8.029  0.4675 -0.5185  0.4103
  869MOL0     H17263   0.042   1.674   8.153  2.1772 -2.0412  1.1607
  869MOL0     H17264  -0.052   1.737   7.869 -0.8006  4.1978 -0.2610
  869MOL0     H17265  -0.073   1.835   8.016 -1.4723 -1.1169  2.7269
  869MOL0     H17266  -0.260   1.831   8.158 -0.3152  2.0447 -1.4219
  869MOL0     H17267  -0.541   1.708   8.238  1.4987 -0.4488 -0.1328
  869MOL0     H17268  -0.557   1.818   8.100  0.6461  0.7026  0.2281
  869MOL0     H17269  -0.612   1.516   8.094 -0.1652  0.1360  1.8253
  869MOL0     H17270  -0.641   1.640   7.969  0.8042  0.6907  0.8624
  869MOL0     H17271  -0.783   1.765   8.138 -1.6547  0.3670 -1.7715
  869MOL0     H17272  -0.788   1.616   8.231  0.5546 -2.0026 -0.6067
  869MOL0     H17273  -0.936   1.505   8.063  0.8617  0.0123  3.5259
  869MOL0     H17274  -0.857   1.582   7.930  0.1377  0.3999 -0.0865
  869MOL0     H17275  -1.036   1.878   8.188 -1.2079  0.6106  0.0099
  869MOL0     H17276  -1.237   1.874   8.505 -3.3662 -1.3752 -0.7161
  869MOL0     H17277  -1.102   1.953   8.426 -0.6685  0.0671  1.3455
  869MOL0     H17278  -1.270   1.985   8.368  0.2555  1.4002  1.3664
  869MOL0     H17279  -1.621   1.927   8.387 -1.3553 -0.5584 -0.2479
  869MOL0     H17280  -1.855   1.954   8.455  0.0515  0.1492 -0.8937
  869MOL0     H17281  -2.053   1.629   8.726 -1.9767  0.9831 -1.6917
  869MOL0     H17282  -1.996   1.766   8.826 -1.0600 -1.0161  1.0697
  869MOL0     H17283  -2.230   1.786   8.852  0.5305 -1.2953  0.4872
  869MOL0     H17284  -2.179   1.902   8.733  2.2013 -0.2182  0.2858
  869MOL0     H17285  -2.302   1.631   8.731  3.0768  2.4952  4.4872
  869MOL0     H17286  -2.235   1.682   8.571  0.0664  0.5359 -1.5907
  869MOL0     H17287  -2.436   1.842   8.725 -3.4984  0.9931 -2.0498
  869MOL0     H17288  -2.363   1.867   8.556  4.6006 -1.2751  1.2468
  869MOL0     H17289  -2.509   1.620   8.605  4.7701  0.9597  1.8321
  869MOL0     H17290  -2.489   1.707   8.460 -2.8223 -4.0061  0.6846
  869MOL0     H17291  -2.691   1.748   8.675 -0.0002 -3.5468 -0.8694
  869MOL0     H17292  -2.655   1.880   8.554  0.3406 -0.1860 -2.4584
  869MOL0     H17293  -2.729   1.593   8.478  1.7504  1.2395 -0.7512
  869MOL0     H17294  -2.705   1.717   8.366 -0.0104 -4.4581 -0.8162
  869MOL0     H17295  -2.885   1.849   8.464 -2.5036 -0.3499 -1.8495
  869MOL0     H17296  -2.931   1.724   8.585 -0.9786 -0.7185 -0.8368
  869MOL0     H17297  -1.808   1.643   8.731 -0.8107  0.8082  0.7518
  869MOL0     H17298  -1.549   1.630   8.674  2.3789  1.4129 -1.1513
  869MOL0     H17299  -1.331   1.493   8.254  0.8370 -1.0094  2.2984
  869MOL0     H17300  -1.172   1.479   8.092 -3.0940 -0.6755  1.0255
  869MOL0     H17301   0.816   2.032   7.972  0.9287 -2.5692 -2.0927
  869MOL0     H17302   1.059   2.042   7.973  0.2513  3.0081  1.4398
  869MOL0     H17303   1.422   2.081   8.184 -1.2120 -0.8439 -1.5373
  869MOL0     H17304   1.671   2.123   8.183  1.1477  0.2492 -0.9044
  869MOL0     H17305   1.887   1.880   7.897 -1.2543  0.4637  1.3479
  869MOL0     H17306   2.024   1.956   7.960 -0.2662 -1.8638 -1.6196
  869MOL0     H17307   2.016   1.707   7.996 -0.2834 -0.2249 -1.2629
  869MOL0     H17308   1.880   1.730   8.099 -0.1461 -0.3527 -1.0360
  869MOL0     H17309   1.967   1.833   8.265 -0.8317 -2.6015 -0.5090
  869MOL0     H17310   2.102   1.905   8.195 -0.9531 -0.0059  0.5396
  869MOL0     H17311   2.080   1.596   8.247  1.5939 -0.1155  0.2337
  869MOL0     H17312   2.153   1.712   8.354 -2.2734  2.5097  1.0731
  869MOL0     H17313   2.471   1.660   8.068  0.9215 -1.9001  2.2465
  869MOL0     H17314   1.716   1.769   7.946 -1.9154 -1.1305  0.4159
  869MOL0     H17315   1.479   1.723   7.970  1.2971  0.0869  0.4761
  870MOL0     O17316   5.509   6.210   2.563 -1.0712  0.2179 -0.1751
  870MOL0     C17317   5.498   6.109   2.637 -1.2691 -0.8882 -0.5520
  870MOL0     O17318   5.390   6.035   2.647 -0.7742 -0.3792  1.2048
  870MOL0     C17319   5.271   6.075   2.602 -0.4176 -0.7936  0.2632
  870MOL0     C17320   5.217   6.202   2.599  0.2629 -0.5635 -0.4165
  870MOL0     C17321   5.086   6.229   2.552 -0.2392  0.4466 -0.0713
  870MOL0     C17322   5.004   6.129   2.509 -0.4121 -0.5910  0.6020
  870MOL0     O17323   4.875   6.148   2.461 -0.4497 -0.5669  0.5016
  870MOL0     C17324   4.812   6.276   2.503 -0.7394 -0.0238  0.1268
  870MOL0     C17325   4.669   6.292   2.454 -0.3856 -0.2030 -0.9248
  870MOL0     C17326   4.655   6.319   2.304  0.3532 -0.8285  0.1914
  870MOL0     C17327   4.507   6.316   2.264 -0.5886 -0.0559 -0.4922
  870MOL0     C17328   4.424   6.431   2.324  0.1144 -0.1685  0.3297
  870MOL0     C17329   4.277   6.433   2.281  0.6569 -0.0720 -0.3341
  870MOL0     C17330   4.267   6.467   2.133 -0.7042  0.1883  0.1153
  870MOL0     C17331   4.126   6.494   2.084  0.1065  0.0531 -0.5201
  870MOL0     N17332   4.083   6.629   2.128  0.1431 -0.4840 -0.2233
  870MOL0     C17333   3.956   6.678   2.111 -0.0618 -0.0101 -0.4631
  870MOL0     C17334   3.963   6.808   2.130 -0.4997  0.1253 -0.6334
  870MOL0     C17335   3.849   6.909   2.128  0.3550 -0.1540  0.4736
  870MOL0     C17336   3.776   6.901   1.999  0.1451 -0.2617  0.2801
  870MOL0     C17337   3.677   7.018   1.961  0.1766  0.4424 -0.7255
  870MOL0     C17338   3.694   7.152   2.032 -0.8837  0.5220 -0.1504
  870MOL0     O17339   3.619   7.257   1.968 -0.9973 -0.1246  0.0409
  870MOL0     C17340   3.487   7.283   1.993 -0.2600 -0.8501 -0.3984
  870MOL0     C17341   3.440   7.380   1.903  0.9686  0.4855  0.2400
  870MOL0     C17342   3.309   7.421   1.910 -0.3785 -0.0868  0.2314
  870MOL0     C17343   3.268   7.550   1.833  1.1108  0.3852 -0.2720
  870MOL0     C17344   3.224   7.361   2.010  0.4783 -0.0347  0.2330
  870MOL0     C17345   3.087   7.409   2.031  0.1435  0.1560  0.4055
  870MOL0     O17346   3.000   7.319   2.083 -0.2225  0.1288  0.2682
  870MOL0     C17347   2.878   7.355   2.137  0.1196  0.3652 -0.1562
  870MOL0     C17348   2.876   7.464   2.226  0.9450  0.1147  0.1375
  870MOL0     C17349   2.760   7.495   2.295  0.5722  0.6364  0.3427
  870MOL0     C17350   2.641   7.417   2.269  0.3615 -0.4890  0.1623
  870MOL0     O17351   2.524   7.433   2.339  0.4882 -0.1035  0.5143
  870MOL0     C17352   2.523   7.516   2.445  0.5185 -0.0135 -0.6626
  870MOL0     C17353   2.395   7.505   2.519  0.3393 -0.2867 -1.3603
  870MOL0     C17354   2.264   7.554   2.451 -0.7989  0.3336 -1.0326
  870MOL0     C17355   2.146   7.527   2.539  0.1889  0.3150 -0.6136
  870MOL0     C17356   2.024   7.582   2.469 -0.4294 -0.2822 -0.1050
  870MOL0     C17357   1.892   7.549   2.538  0.0386 -0.9561 -0.3622
  870MOL0     C17358   1.860   7.405   2.517  0.5679  0.2640 -0.5463
  870MOL0     C17359   1.707   7.366   2.532 -0.1641 -0.3549 -0.2526
  870MOL0    Cl17360   1.638   7.416   2.694 -0.1719  0.3445  0.0804
  870MOL0     C17361   2.638   7.316   2.173  0.4601 -0.0755  0.0464
  870MOL0     C17362   2.756   7.290   2.104 -0.3595  0.1493 -0.6681
  870MOL0     O17363   3.057   7.523   2.000  0.0981  0.2165 -0.0428
  870MOL0     C17364   3.271   7.264   2.095  0.1816  0.3510 -0.3957
  870MOL0     C17365   3.406   7.218   2.089  0.7271 -0.4457 -0.4613
  870MOL0     N17366   4.093   6.837   2.176  0.5555 -0.0220  0.5990
  870MOL0     N17367   4.162   6.727   2.186 -0.0438  0.3568  0.9792
  870MOL0     C17368   5.058   6.001   2.510  0.6265 -0.7055  0.0155
  870MOL0     C17369   5.180   5.972   2.560 -1.0148 -0.0555  0.1938
  870MOL0     C17370   5.621   6.080   2.725  0.2319  0.1325 -0.1031
  870MOL0     C17371   5.748   6.127   2.696 -0.4737 -0.2194 -0.2848
  870MOL0     C17372   5.865   6.086   2.753 -0.5901  0.2857 -0.3308
  870MOL0     C17373   5.855   5.994   2.866  0.0322 -0.0619 -0.1572
  870MOL0     O17374   5.959   5.961   2.947  0.3079 -0.2553  0.3706
  870MOL0     C17375   6.095   5.961   2.902 -0.2541  0.2404 -0.2673
  870MOL0     C17376   6.187   5.981   3.013 -0.1463 -0.1142 -0.5635
  870MOL0     C17377   6.336   5.984   2.968  0.1160 -0.0713 -0.5020
  870MOL0     C17378   6.441   5.945   3.064  0.4331  0.2159  0.2284
  870MOL0     C17379   6.569   6.012   3.034 -0.8346  0.2305  0.5563
  870MOL0     C17380   6.677   6.062   3.004 -0.5789  0.5026 -0.5682
  870MOL0     C17381   5.726   5.950   2.900 -0.4649  0.6998 -0.4513
  870MOL0     C17382   5.607   5.990   2.831  0.3226  0.7738 -0.4863
  870MOL0     H17383   5.270   6.279   2.654  0.7075 -1.1709  0.0085
  870MOL0     H17384   5.047   6.329   2.565  0.7635  0.9119 -0.5998
  870MOL0     H17385   4.825   6.278   2.612  2.2092 -0.5882 -0.1512
  870MOL0     H17386   4.868   6.360   2.463  1.7123 -2.0800 -1.0465
  870MOL0     H17387   4.613   6.204   2.485 -1.5483  0.5122 -0.9132
  870MOL0     H17388   4.627   6.383   2.500 -0.1054  1.2797 -3.3908
  870MOL0     H17389   4.710   6.406   2.266 -1.2853 -0.5363 -1.6894
  870MOL0     H17390   4.699   6.230   2.259 -1.4402 -1.3943 -0.5296
  870MOL0     H17391   4.492   6.313   2.156 -4.1395  1.4440 -0.1807
  870MOL0     H17392   4.458   6.224   2.295 -0.6578 -0.6743 -2.3536
  870MOL0     H17393   4.423   6.425   2.433  0.3081  0.1252  0.3477
  870MOL0     H17394   4.475   6.521   2.289 -2.7891  2.5587  2.5971
  870MOL0     H17395   4.225   6.340   2.307 -1.0376  1.2090  1.0236
  870MOL0     H17396   4.234   6.511   2.344  0.1742  0.5555 -1.4233
  870MOL0     H17397   4.335   6.543   2.094  0.1558 -0.8589 -0.4809
  870MOL0     H17398   4.313   6.382   2.081 -1.9495 -0.6566  0.3667
  870MOL0     H17399   4.053   6.425   2.127  2.0644 -3.4195 -2.3670
  870MOL0     H17400   4.117   6.477   1.977 -0.1790  0.2309 -0.5253
  870MOL0     H17401   3.870   6.620   2.078  1.4264 -2.7634  0.2185
  870MOL0     H17402   3.784   6.881   2.212  1.1125 -3.4354  0.0989
  870MOL0     H17403   3.894   7.008   2.140 -1.0787  0.3476  2.2488
  870MOL0     H17404   3.728   6.803   1.988  0.1464 -0.4732  1.8884
  870MOL0     H17405   3.847   6.901   1.916 -0.4317  0.4997 -0.2374
  870MOL0     H17406   3.582   6.975   1.993 -0.7240  2.1625 -0.9722
  870MOL0     H17407   3.666   7.043   1.855  1.7635  3.5462 -0.2609
  870MOL0     H17408   3.799   7.182   2.032 -0.3797 -1.1730 -0.9627
  870MOL0     H17409   3.663   7.140   2.136  0.3973 -1.3066  0.0537
  870MOL0     H17410   3.502   7.427   1.827 -1.0604  1.3934 -0.9283
  870MOL0     H17411   3.179   7.521   1.776 -0.4640  1.3102  1.6114
  870MOL0     H17412   3.257   7.619   1.917 -0.3487 -1.3429  1.0486
  870MOL0     H17413   3.338   7.598   1.764  0.3314  2.7132  0.4741
  870MOL0     H17414   2.961   7.529   2.250  1.4034 -1.1327  2.1646
  870MOL0     H17415   2.770   7.570   2.372  0.7494  0.6332  0.3234
  870MOL0     H17416   2.606   7.482   2.508 -0.7553 -0.2708  0.9308
  870MOL0     H17417   2.540   7.620   2.415  1.9529  0.9970  3.0921
  870MOL0     H17418   2.382   7.397   2.532  0.3503 -0.2863 -1.3444
  870MOL0     H17419   2.414   7.548   2.618  0.6422  0.2243 -1.6366
  870MOL0     H17420   2.255   7.479   2.371 -1.7657 -2.2936  1.3692
  870MOL0     H17421   2.265   7.653   2.406 -0.1244  1.9042  2.1675
  870MOL0     H17422   2.132   7.419   2.545  0.1712  0.3966  2.6069
  870MOL0     H17423   2.159   7.580   2.634  1.2114 -1.5925  0.3869
  870MOL0     H17424   2.019   7.560   2.362  2.7610 -2.0949  0.0142
  870MOL0     H17425   2.043   7.690   2.478 -0.0772 -0.1179 -2.3442
  870MOL0     H17426   1.898   7.575   2.644  1.3690  1.5034 -0.9691
  870MOL0     H17427   1.811   7.604   2.488 -0.5277 -0.4380  1.0706
  870MOL0     H17428   1.920   7.358   2.595  0.7396  0.6853 -0.4195
  870MOL0     H17429   1.886   7.364   2.419  0.1350  0.4648 -0.7464
  870MOL0     H17430   1.697   7.257   2.533  0.2683 -0.4089  1.4223
  870MOL0     H17431   1.659   7.422   2.451  0.5649  1.7042  0.6739
  870MOL0     H17432   2.548   7.264   2.145  1.2097 -0.3648 -1.9441
  870MOL0     H17433   2.763   7.201   2.042  2.8173 -1.2965  1.4531
  870MOL0     H17434   3.205   7.211   2.164  2.7478  1.4370  3.2199
  870MOL0     H17435   3.448   7.147   2.160  1.0150 -1.0903 -1.2547
  870MOL0     H17436   4.988   5.922   2.484 -0.4576  0.1308  0.2782
  870MOL0     H17437   5.224   5.874   2.547 -0.8755 -0.0912  0.8856
  870MOL0     H17438   5.757   6.194   2.612 -0.1062  0.9767  0.6780
  870MOL0     H17439   5.961   6.126   2.721  0.5072  0.3358  2.6326
  870MOL0     H17440   6.112   5.870   2.844 -0.8155  1.3744 -2.3106
  870MOL0     H17441   6.112   6.047   2.837 -1.2855  0.9388  0.3747
  870MOL0     H17442   6.177   5.895   3.081 -2.2596  0.3822 -0.1662
  870MOL0     H17443   6.163   6.073   3.067 -1.6734 -0.5598 -0.4174
  870MOL0     H17444   6.357   6.088   2.943  1.3592 -0.1972 -0.0701
  870MOL0     H17445   6.345   5.921   2.879  3.2361 -2.3900  1.2763
  870MOL0     H17446   6.467   5.840   3.049  2.5004  0.7609 -0.3331
  870MOL0     H17447   6.405   5.960   3.166 -0.0824 -1.1221  0.2606
  870MOL0     H17448   6.765   6.115   2.973 -0.7411 -0.4319 -2.7736
  870MOL0     H17449   5.722   5.890   2.990 -1.8495  3.3361  1.3934
  870MOL0     H17450   5.507   5.961   2.860  0.5966  0.5366  0.2583
  871MOL0     O17451   0.420   4.840   2.785  0.9215 -0.0246 -0.0954
  871MOL0     C17452   0.464   4.932   2.724  0.3986  0.1024  0.3706
  871MOL0     O17453   0.413   5.067   2.723  0.2167  0.1408  0.9530
  871MOL0     C17454   0.315   5.105   2.807  0.3532  0.2980 -0.8741
  871MOL0     C17455   0.251   5.035   2.911  0.2394  0.2665  0.2956
  871MOL0     C17456   0.159   5.089   2.987 -0.4414  0.7049 -0.1686
  871MOL0     C17457   0.099   5.208   2.968  0.1073  0.7944 -1.0745
  871MOL0     O17458  -0.002   5.251   3.058 -0.1224  0.1736  0.5356
  871MOL0     C17459  -0.086   5.354   3.006  0.0357 -0.1630 -0.0294
  871MOL0     C17460  -0.211   5.361   3.091  1.0170  0.3052 -0.2254
  871MOL0     C17461  -0.293   5.481   3.045  0.2185 -0.1296 -0.1971
  871MOL0     C17462  -0.433   5.483   3.128 -0.7974  0.6681  0.3611
  871MOL0     C17463  -0.514   5.601   3.083 -0.0911 -0.2789  0.5139
  871MOL0     C17464  -0.653   5.603   3.154  0.0141  0.4756 -0.5737
  871MOL0     C17465  -0.740   5.714   3.095 -0.7700  0.0041 -1.1277
  871MOL0     C17466  -0.736   5.842   3.182 -0.9651  0.7872  0.1557
  871MOL0     N17467  -0.813   5.954   3.124 -0.3375  0.0104 -0.3092
  871MOL0     C17468  -0.835   5.982   2.996  0.0304  0.1390  0.2413
  871MOL0     C17469  -0.914   6.096   2.997 -0.7814 -0.5208  0.0558
  871MOL0     C17470  -0.973   6.155   2.880 -0.0895 -0.6267 -0.4184
  871MOL0     C17471  -1.123   6.192   2.895  1.5940 -0.1044 -0.3773
  871MOL0     C17472  -1.180   6.246   2.760  0.7458 -0.1038 -0.1192
  871MOL0     C17473  -1.334   6.294   2.770  0.5132 -0.3895  0.1993
  871MOL0     O17474  -1.372   6.422   2.708  0.0455  0.0340 -0.2242
  871MOL0     C17475  -1.510   6.448   2.716 -0.3299 -0.0677 -0.9923
  871MOL0     C17476  -1.545   6.552   2.623  0.0236  0.2490  1.0989
  871MOL0     C17477  -1.672   6.601   2.621  0.0271  0.5271 -0.9371
  871MOL0     C17478  -1.709   6.702   2.512 -0.0525 -1.1096  0.3628
  871MOL0     C17479  -1.770   6.555   2.712  0.4333  0.0990 -0.3740
  871MOL0     C17480  -1.907   6.606   2.724  1.4051 -0.4156 -0.2689
  871MOL0     O17481  -2.010   6.521   2.739  0.4191 -0.4705  0.0392
  871MOL0     C17482  -2.138   6.561   2.702  0.6528 -0.4969 -0.4010
  871MOL0     C17483  -2.248   6.511   2.770 -0.4167 -0.5879 -0.4283
  871MOL0     C17484  -2.375   6.562   2.734 -0.3406 -0.3322 -0.0926
  871MOL0     C17485  -2.394   6.662   2.641 -0.1513 -0.7345 -0.3472
  871MOL0     O17486  -2.524   6.699   2.622  0.9828  0.6937 -0.3570
  871MOL0     C17487  -2.555   6.840   2.594  0.4947  0.2743  0.2990
  871MOL0     C17488  -2.684   6.883   2.663  0.5041  0.2769 -0.1380
  871MOL0     C17489  -2.813   6.845   2.584 -0.2014  0.4052  0.1666
  871MOL0     C17490  -2.928   6.924   2.639 -0.2172 -0.6806 -0.5016
  871MOL0     C17491  -3.056   6.931   2.554 -0.1166 -0.3628 -0.0357
  871MOL0     C17492  -3.114   6.788   2.523  0.0037  0.2851  0.5249
  871MOL0     C17493  -3.256   6.799   2.460  0.1640  0.8227  0.4803
  871MOL0     C17494  -3.305   6.671   2.402  0.5138 -0.1466  0.4403
  871MOL0    Cl17495  -3.489   6.670   2.379  0.1912 -0.1572 -0.2168
  871MOL0     C17496  -2.282   6.715   2.569  0.9020  0.7559 -0.4519
  871MOL0     C17497  -2.156   6.659   2.598  0.3943  0.3532  0.4120
  871MOL0     O17498  -1.916   6.728   2.730  0.0641 -0.0327  0.0616
  871MOL0     C17499  -1.741   6.451   2.809 -0.5869 -0.5743  0.0318
  871MOL0     C17500  -1.608   6.405   2.810 -0.0101 -0.0509 -0.3287
  871MOL0     N17501  -0.945   6.138   3.129 -0.5693 -0.5214  0.0158
  871MOL0     N17502  -0.877   6.052   3.198 -0.0166  0.2204 -0.0424
  871MOL0     C17503   0.152   5.285   2.860  0.2875  0.0415  0.0995
  871MOL0     C17504   0.261   5.228   2.789 -0.1377  0.1358  1.0458
  871MOL0     C17505   0.594   4.902   2.668 -0.3593 -0.2587 -0.0141
  871MOL0     C17506   0.658   5.008   2.597 -0.3734 -0.4715 -0.0504
  871MOL0     C17507   0.774   4.989   2.523  0.1019 -0.9828  0.9342
  871MOL0     C17508   0.838   4.864   2.514  0.2528 -0.7343  0.8215
  871MOL0     O17509   0.944   4.835   2.430 -0.2497 -0.5490 -0.0084
  871MOL0     C17510   1.045   4.933   2.442 -0.3830 -0.3707 -0.1967
  871MOL0     C17511   1.190   4.883   2.422  0.3552  0.3278 -0.1457
  871MOL0     C17512   1.302   4.990   2.388  0.1514 -0.8461 -0.1105
  871MOL0     C17513   1.426   4.933   2.304  0.4204 -0.2596 -0.1596
  871MOL0     C17514   1.511   5.038   2.256 -0.0665 -0.0609  0.3533
  871MOL0     C17515   1.570   5.137   2.221 -0.6495  0.3764  0.0054
  871MOL0     C17516   0.778   4.761   2.583  0.6223  0.3634  0.4722
  871MOL0     C17517   0.656   4.780   2.661  0.4856  0.7457 -0.8183
  871MOL0     H17518   0.263   4.928   2.928  0.1047  0.2079  0.0185
  871MOL0     H17519   0.142   5.041   3.083  1.0243 -1.6392 -0.9975
  871MOL0     H17520  -0.026   5.444   3.023  0.8970 -1.0013  1.6510
  871MOL0     H17521  -0.106   5.349   2.898  0.6718 -2.0811 -0.0964
  871MOL0     H17522  -0.274   5.272   3.076  0.3169  0.9852 -1.4885
  871MOL0     H17523  -0.186   5.365   3.197  2.2508  0.3448 -0.5107
  871MOL0     H17524  -0.238   5.575   3.043  0.5975 -0.3538 -0.5534
  871MOL0     H17525  -0.311   5.471   2.938  0.3183  0.3627 -0.2625
  871MOL0     H17526  -0.484   5.389   3.105  2.0267 -0.5232 -1.7607
  871MOL0     H17527  -0.418   5.492   3.236 -1.3735 -1.6705  0.6885
  871MOL0     H17528  -0.465   5.697   3.102  0.7996 -0.5816 -0.1767
  871MOL0     H17529  -0.518   5.583   2.975  1.8337  0.0214  0.3622
  871MOL0     H17530  -0.709   5.511   3.136  0.4925  0.0047  0.2855
  871MOL0     H17531  -0.646   5.634   3.259 -1.0934  3.6065 -1.2967
  871MOL0     H17532  -0.706   5.734   2.993 -0.1266  1.0342 -0.7336
  871MOL0     H17533  -0.845   5.682   3.096 -1.4834  2.1529  0.0207
  871MOL0     H17534  -0.635   5.883   3.191 -0.0613 -1.3275  0.2605
  871MOL0     H17535  -0.782   5.816   3.278 -3.2509  0.8036 -0.8673
  871MOL0     H17536  -0.802   5.919   2.914 -3.5360  0.1985 -1.4347
  871MOL0     H17537  -0.918   6.247   2.858 -1.5669  0.7798  1.4343
  871MOL0     H17538  -0.959   6.090   2.794  0.8681 -1.0736  0.0585
  871MOL0     H17539  -1.129   6.271   2.971  2.4247  0.7256 -1.1497
  871MOL0     H17540  -1.185   6.109   2.931 -0.1867  1.9567  1.5775
  871MOL0     H17541  -1.166   6.185   2.671 -1.2401  0.4083 -0.8547
  871MOL0     H17542  -1.125   6.340   2.747  1.8845 -0.5202  1.4271
  871MOL0     H17543  -1.356   6.310   2.877 -1.6899 -0.0122 -0.2515
  871MOL0     H17544  -1.394   6.211   2.730 -1.5828  1.6734 -1.1878
  871MOL0     H17545  -1.473   6.591   2.551  1.0374 -1.9903  0.8089
  871MOL0     H17546  -1.645   6.791   2.522 -0.7486 -0.6613  0.9787
  871MOL0     H17547  -1.699   6.656   2.414 -0.2346 -1.8689  0.6958
  871MOL0     H17548  -1.809   6.747   2.509 -0.2715 -1.6592 -0.8939
  871MOL0     H17549  -2.229   6.430   2.839 -0.8004  1.0399  1.6939
  871MOL0     H17550  -2.459   6.521   2.788  0.3712  1.6127  2.7156
  871MOL0     H17551  -2.482   6.905   2.644 -0.5546  1.5783  0.1856
  871MOL0     H17552  -2.549   6.858   2.487 -1.7515  0.4785  0.1622
  871MOL0     H17553  -2.688   6.850   2.767  0.8657  0.2546 -0.1322
  871MOL0     H17554  -2.682   6.992   2.674 -1.3160  0.1808  1.7977
  871MOL0     H17555  -2.821   6.736   2.587  2.6483 -0.0138 -2.3071
  871MOL0     H17556  -2.798   6.869   2.478  2.9813 -0.3783  0.3389
  871MOL0     H17557  -2.954   6.889   2.739 -0.9272 -2.6171 -1.3069
  871MOL0     H17558  -2.897   7.029   2.645  0.6685 -0.8740 -1.2978
  871MOL0     H17559  -3.035   6.976   2.457 -2.3594  0.9389  0.0251
  871MOL0     H17560  -3.134   6.989   2.604 -3.1268 -2.3236 -2.1012
  871MOL0     H17561  -3.047   6.733   2.456  0.3505  1.2778  0.0494
  871MOL0     H17562  -3.119   6.731   2.616  0.8944 -0.5851  0.0545
  871MOL0     H17563  -3.261   6.878   2.384  1.6247  0.9486  0.4997
  871MOL0     H17564  -3.325   6.809   2.545 -0.2527  0.3561  0.2032
  871MOL0     H17565  -3.290   6.584   2.467 -6.1942 -0.2897  2.6555
  871MOL0     H17566  -3.264   6.645   2.304  0.0299 -0.5093  0.3224
  871MOL0     H17567  -2.298   6.791   2.493 -1.0200  0.5572 -0.3105
  871MOL0     H17568  -2.068   6.708   2.557  1.0242  0.4920  1.8550
  871MOL0     H17569  -1.821   6.431   2.880 -0.0467  1.3425  1.2557
  871MOL0     H17570  -1.588   6.350   2.901  0.0616 -0.9115 -0.8509
  871MOL0     H17571   0.110   5.382   2.835  1.0107  0.4412  0.4102
  871MOL0     H17572   0.306   5.286   2.709  0.2991  1.0376  1.9270
  871MOL0     H17573   0.623   5.111   2.604  0.6482 -0.2004  1.4993
  871MOL0     H17574   0.815   5.078   2.475 -0.3220 -0.9342  0.6665
  871MOL0     H17575   1.027   5.004   2.361  0.8152 -1.4225 -1.4344
  871MOL0     H17576   1.044   4.987   2.537  0.3677 -1.3796  0.4079
  871MOL0     H17577   1.188   4.812   2.339  0.0796 -0.1875  0.2960
  871MOL0     H17578   1.218   4.831   2.514 -1.6261 -0.5666  0.0098
  871MOL0     H17579   1.346   5.027   2.481  0.6492 -2.5285  0.3683
  871MOL0     H17580   1.248   5.070   2.336 -1.2376 -1.1580  0.8204
  871MOL0     H17581   1.381   4.874   2.224 -2.6610 -0.2800  1.4462
  871MOL0     H17582   1.475   4.869   2.378 -2.5587 -1.4077  0.9484
  871MOL0     H17583   1.622   5.221   2.179 -1.9823 -0.2983 -3.3398
  871MOL0     H17584   0.817   4.660   2.576 -0.3155 -0.0071  0.5026
  871MOL0     H17585   0.618   4.693   2.713  0.4248  0.2692 -1.6523
  872MOL0     O17586   5.921  10.147   3.382 -0.1797  0.4320 -0.0903
  872MOL0     C17587   5.931  10.151   3.500  0.1275 -0.1632 -0.2517
  872MOL0     O17588   5.843  10.209   3.580  0.8504 -0.2505  0.0017
  872MOL0     C17589   5.725  10.264   3.543  0.2947 -0.1042  0.3418
  872MOL0     C17590   5.690  10.371   3.626 -0.6736 -0.1295 -0.7315
  872MOL0     C17591   5.573  10.443   3.608  0.6366 -0.4106 -0.3048
  872MOL0     C17592   5.478  10.400   3.512 -0.7238  0.2497 -0.0166
  872MOL0     O17593   5.348  10.452   3.510  0.0765  0.2098 -0.5323
  872MOL0     C17594   5.301  10.558   3.597 -0.4937  0.2140 -0.8574
  872MOL0     C17595   5.151  10.571   3.579  0.1004 -0.3543  1.0837
  872MOL0     C17596   5.101  10.573   3.437  0.1353 -0.1929  0.9170
  872MOL0     C17597   4.962  10.633   3.436 -1.1639 -0.3700  0.4726
  872MOL0     C17598   4.859  10.541   3.492 -0.1015 -0.1899  0.2528
  872MOL0     C17599   4.731  10.610   3.454 -0.2523 -0.1900 -0.0874
  872MOL0     C17600   4.608  10.525   3.484 -0.8573  0.1024  0.0820
  872MOL0     C17601   4.474  10.577   3.423 -0.0864 -0.4135 -0.2040
  872MOL0     N17602   4.368  10.484   3.414  0.2624  0.7243 -0.6968
  872MOL0     C17603   4.293  10.439   3.517 -0.5453 -0.0295  0.1066
  872MOL0     C17604   4.207  10.353   3.460  0.0093 -0.0306 -0.2721
  872MOL0     C17605   4.117  10.261   3.533  0.5294  0.2729  0.1997
  872MOL0     C17606   3.999  10.346   3.588 -0.2421 -0.1554 -0.3049
  872MOL0     C17607   3.882  10.356   3.483  0.3049 -0.4021 -0.9963
  872MOL0     C17608   3.791  10.226   3.487 -0.3647 -0.2300 -0.0020
  872MOL0     O17609   3.732  10.212   3.615 -0.9007  0.2312 -0.0774
  872MOL0     C17610   3.601  10.192   3.628 -0.0269 -0.9099 -0.0030
  872MOL0     C17611   3.538  10.076   3.573  0.1563 -0.0016  0.2515
  872MOL0     C17612   3.402  10.061   3.589 -0.6173 -0.4442  0.2798
  872MOL0     C17613   3.359   9.931   3.537 -0.0810  0.1129 -0.6026
  872MOL0     C17614   3.324  10.159   3.660 -1.2213 -0.3816  0.9317
  872MOL0     C17615   3.179  10.141   3.674 -0.9467 -0.4906 -0.1995
  872MOL0     O17616   3.127  10.176   3.793 -0.1357 -0.3977 -0.9194
  872MOL0     C17617   2.989  10.170   3.819 -0.4415  0.5524  0.1340
  872MOL0     C17618   2.916  10.051   3.800  0.6442 -0.2115  0.1385
  872MOL0     C17619   2.778  10.055   3.833 -0.2183 -0.0199 -0.6930
  872MOL0     C17620   2.726  10.167   3.901  0.3308  0.0962  0.3414
  872MOL0     O17621   2.594  10.151   3.943  0.0765  0.2355  0.1108
  872MOL0     C17622   2.538  10.257   4.019 -0.2384  0.3669  0.0575
  872MOL0     C17623   2.407  10.216   4.075  0.3347  0.2194  0.6026
  872MOL0     C17624   2.312  10.163   3.958 -0.4722 -0.1349 -0.1317
  872MOL0     C17625   2.179  10.130   4.023  0.3237  0.4608 -0.4372
  872MOL0     C17626   2.085  10.254   4.045 -0.4714  0.5384  0.3496
  872MOL0     C17627   1.945  10.225   4.085 -0.4338 -0.3272 -0.5205
  872MOL0     C17628   1.928  10.172   4.224 -0.2883  0.8430  0.2048
  872MOL0     C17629   1.779  10.121   4.239  0.2084 -0.2441 -0.2118
  872MOL0    Cl17630   1.675  10.264   4.202 -0.1526 -0.0382  0.2299
  872MOL0     C17631   2.808  10.267   3.938  0.2131 -0.0105  0.0864
  872MOL0     C17632   2.936  10.275   3.890 -0.0711  0.0261  0.8477
  872MOL0     O17633   3.121  10.100   3.578  0.8163  0.0541  0.1656
  872MOL0     C17634   3.385  10.276   3.706  0.2172  0.1582 -0.2023
  872MOL0     C17635   3.521  10.294   3.681  0.0645  0.2488  0.5429
  872MOL0     N17636   4.232  10.352   3.321  0.4870  0.2144  0.3381
  872MOL0     N17637   4.333  10.426   3.303 -0.0291 -0.5561  0.6417
  872MOL0     C17638   5.511  10.290   3.430  0.8409 -0.3581 -0.0720
  872MOL0     C17639   5.638  10.229   3.439 -0.0548 -0.4635  0.7948
  872MOL0     C17640   6.066  10.119   3.556  0.1530  0.1910 -0.2125
  872MOL0     C17641   6.173  10.071   3.479  0.5133  0.7021  0.6197
  872MOL0     C17642   6.299  10.046   3.523 -0.8016  0.4930 -0.4351
  872MOL0     C17643   6.321  10.055   3.657  0.3815 -0.1262  0.0739
  872MOL0     O17644   6.442  10.035   3.716 -0.5572  0.2769 -0.3086
  872MOL0     C17645   6.537   9.951   3.648 -0.5517 -0.1137 -0.4900
  872MOL0     C17646   6.636   9.899   3.756  0.8489 -0.5886  0.0318
  872MOL0     C17647   6.698  10.015   3.846 -0.7268 -0.0423 -0.3353
  872MOL0     C17648   6.853  10.014   3.839  0.2557 -0.1456  0.0412
  872MOL0     C17649   6.894  10.105   3.733  0.0904  0.7546 -0.8892
  872MOL0     C17650   6.914  10.166   3.627  0.2746 -0.0260 -0.2161
  872MOL0     C17651   6.213  10.097   3.745 -1.1644  0.1478 -0.2800
  872MOL0     C17652   6.091  10.136   3.697  1.5572  0.4178  1.0311
  872MOL0     H17653   5.756  10.400   3.707 -0.7428  1.1383 -1.1128
  872MOL0     H17654   5.549  10.527   3.671 -1.8501  0.6064 -2.4182
  872MOL0     H17655   5.338  10.559   3.700 -1.1281  0.1519 -0.6241
  872MOL0     H17656   5.345  10.655   3.569  1.3658 -0.8010 -1.6668
  872MOL0     H17657   5.098  10.488   3.627  2.2097 -3.6035 -1.7281
  872MOL0     H17658   5.115  10.657   3.636 -0.3066 -1.2963  2.2899
  872MOL0     H17659   5.163  10.639   3.376 -1.5529  0.8390  0.2525
  872MOL0     H17660   5.097  10.470   3.400 -4.2272  0.1508 -0.1016
  872MOL0     H17661   4.967  10.736   3.473 -1.2845 -0.2493  0.1574
  872MOL0     H17662   4.941  10.662   3.333 -0.0285  1.6579  0.7470
  872MOL0     H17663   4.866  10.441   3.449  0.1444  0.8431 -2.2559
  872MOL0     H17664   4.867  10.554   3.601  1.1340  2.6022 -0.0746
  872MOL0     H17665   4.712  10.697   3.518 -1.7132  0.1436 -0.9215
  872MOL0     H17666   4.718  10.629   3.347  0.3909 -1.2701 -0.3745
  872MOL0     H17667   4.625  10.424   3.445  0.3210  0.0627  0.6396
  872MOL0     H17668   4.591  10.496   3.588 -0.4005 -2.1426 -0.4027
  872MOL0     H17669   4.482  10.608   3.319 -2.4671  2.0820  0.2500
  872MOL0     H17670   4.443  10.663   3.482 -0.4613 -1.3561  1.0268
  872MOL0     H17671   4.299  10.475   3.619 -0.5830 -0.2641  0.1922
  872MOL0     H17672   4.085  10.182   3.465  0.9917  0.1566  0.1170
  872MOL0     H17673   4.170  10.213   3.616 -2.2662  1.3125  2.7666
  872MOL0     H17674   4.020  10.453   3.600  1.3481 -0.3826 -0.7812
  872MOL0     H17675   3.963  10.304   3.682 -0.9985  0.3902 -0.3376
  872MOL0     H17676   3.919  10.377   3.382 -1.3954 -1.2996 -1.8604
  872MOL0     H17677   3.819  10.442   3.505  1.0884 -0.1948  0.4742
  872MOL0     H17678   3.862  10.143   3.484  0.1288  0.1714  0.4055
  872MOL0     H17679   3.719  10.227   3.405  1.4563 -0.0196 -1.6591
  872MOL0     H17680   3.606  10.011   3.519  2.3761  0.7829  1.9390
  872MOL0     H17681   3.445   9.863   3.541 -0.7209 -0.7229 -0.9364
  872MOL0     H17682   3.282   9.891   3.603  0.3150  3.3773  2.1055
  872MOL0     H17683   3.323   9.927   3.434  0.7911 -0.6354 -0.8942
  872MOL0     H17684   2.969   9.970   3.749 -0.7610 -0.7603 -0.5275
  872MOL0     H17685   2.712   9.972   3.808  1.9868 -2.5150  1.1217
  872MOL0     H17686   2.598  10.289   4.104  1.9541  2.7665 -2.1875
  872MOL0     H17687   2.520  10.340   3.949  0.4849  1.4408  1.1055
  872MOL0     H17688   2.423  10.142   4.154  1.7676  0.6831  0.7809
  872MOL0     H17689   2.363  10.305   4.122  1.5934  2.0280 -1.4515
  872MOL0     H17690   2.345  10.073   3.906  0.9012 -0.8414  1.8622
  872MOL0     H17691   2.293  10.239   3.881  1.2895 -1.0272 -1.5314
  872MOL0     H17692   2.135  10.058   3.954  0.3403 -0.0577  0.0831
  872MOL0     H17693   2.196  10.083   4.120  0.4521  2.7640  0.7388
  872MOL0     H17694   2.079  10.298   3.945  0.5361  2.0972  0.9316
  872MOL0     H17695   2.125  10.329   4.114 -0.7209 -0.4668  1.6116
  872MOL0     H17696   1.897  10.322   4.068  1.4720  0.3512 -2.4195
  872MOL0     H17697   1.903  10.146   4.022  3.0741 -2.3965 -0.5164
  872MOL0     H17698   1.960  10.244   4.300  3.8361  1.9036 -2.2067
  872MOL0     H17699   1.982  10.079   4.243 -1.7043 -0.0337  0.0589
  872MOL0     H17700   1.758  10.100   4.344 -0.2200  0.4137 -0.1585
  872MOL0     H17701   1.750  10.043   4.168 -1.8455 -0.6724  1.0149
  872MOL0     H17702   2.775  10.343   4.008 -0.3817  0.4105 -0.6429
  872MOL0     H17703   3.008  10.348   3.926 -1.0941  1.4841  0.0370
  872MOL0     H17704   3.327  10.348   3.763 -0.7645  0.7631 -1.8726
  872MOL0     H17705   3.569  10.389   3.705 -1.0371  1.2347 -0.9796
  872MOL0     H17706   5.446  10.250   3.352  0.8613 -3.6754  1.4334
  872MOL0     H17707   5.660  10.144   3.375 -3.4517 -1.2344  0.4622
  872MOL0     H17708   6.166  10.048   3.373 -1.4776 -2.9611  1.3487
  872MOL0     H17709   6.377  10.022   3.452  0.7569  0.1876  1.2756
  872MOL0     H17710   6.484   9.869   3.597 -0.2986 -1.6444  1.6011
  872MOL0     H17711   6.591  10.015   3.578  4.0003 -0.6997  2.0817
  872MOL0     H17712   6.713   9.840   3.706  1.3933 -0.7881  1.0746
  872MOL0     H17713   6.588   9.824   3.819 -0.2626  0.2602  0.2414
  872MOL0     H17714   6.665  10.000   3.950 -1.5084 -0.5401 -0.6434
  872MOL0     H17715   6.661  10.110   3.808 -1.5469  0.0872  0.7477
  872MOL0     H17716   6.901   9.920   3.812  5.2566  1.9071  0.4889
  872MOL0     H17717   6.887  10.053   3.936  0.0140 -1.0678  0.4982
  872MOL0     H17718   6.919  10.218   3.534  1.6703  2.6223  1.2385
  872MOL0     H17719   6.241  10.104   3.850  1.9762  4.1606 -1.1013
  872MOL0     H17720   6.007  10.157   3.762 -0.8210 -3.0988 -0.6111
  873MOL0     O17721   8.794   9.704   4.256 -0.3991  0.3158  0.6075
  873MOL0     C17722   8.751   9.815   4.225  0.1973  0.0715  0.3885
  873MOL0     O17723   8.771   9.928   4.297 -0.4944 -0.0229  0.4770
  873MOL0     C17724   8.854   9.945   4.405  0.5330  0.3309 -0.1344
  873MOL0     C17725   8.801  10.042   4.490  0.9285  0.4518 -0.8716
  873MOL0     C17726   8.862  10.063   4.619  0.1665  0.3965  0.2014
  873MOL0     C17727   8.996  10.012   4.644  0.5020 -0.0808  0.4885
  873MOL0     O17728   9.064  10.026   4.765  0.6410  0.6618 -0.3653
  873MOL0     C17729   9.001  10.056   4.889 -0.3257 -0.3685  0.1690
  873MOL0     C17730   8.888   9.955   4.922  0.6989 -0.7173 -0.2901
  873MOL0     C17731   8.946   9.815   4.961  0.3038  0.0785  1.5101
  873MOL0     C17732   8.855   9.697   4.914 -0.5928 -0.2577  0.0416
  873MOL0     C17733   8.915   9.562   4.930  0.4885  0.2271  0.8813
  873MOL0     C17734   8.927   9.515   5.072 -0.3367 -0.3839 -0.1293
  873MOL0     C17735   8.901   9.370   5.098  0.3230 -0.0274 -0.0287
  873MOL0     C17736   8.952   9.300   5.235  0.6667 -0.5329 -0.0602
  873MOL0     N17737   9.098   9.304   5.241 -0.5159  0.2219 -0.1950
  873MOL0     C17738   9.173   9.419   5.278 -1.1682  0.0759 -0.1110
  873MOL0     C17739   9.299   9.365   5.275  0.0289 -0.3162 -0.0122
  873MOL0     C17740   9.433   9.430   5.329  0.2459 -0.0252 -0.3870
  873MOL0     C17741   9.479   9.373   5.467  0.3022  0.1628 -0.5545
  873MOL0     C17742   9.618   9.411   5.506  0.7982 -0.2205 -0.0822
  873MOL0     C17743   9.644   9.351   5.646 -0.5100 -0.0456 -0.5725
  873MOL0     O17744   9.725   9.445   5.722 -0.5748  0.2075  0.2218
  873MOL0     C17745   9.860   9.437   5.691  0.2021  0.2939  0.1858
  873MOL0     C17746   9.939   9.543   5.739 -0.4412  0.7719 -0.7715
  873MOL0     C17747  10.077   9.546   5.711 -0.0274 -0.1970  0.0428
  873MOL0     C17748  10.157   9.668   5.748  0.0150 -1.2691  0.3749
  873MOL0     C17749  10.137   9.441   5.646 -0.1292 -0.6684  0.6225
  873MOL0     C17750  10.282   9.432   5.622  0.5471 -0.2442  0.1220
  873MOL0     O17751  10.325   9.341   5.534 -0.1024 -1.1815  0.3731
  873MOL0     C17752  10.462   9.313   5.531  0.4455 -0.1548 -0.3390
  873MOL0     C17753  10.538   9.254   5.634  0.3448  0.3135 -0.0434
  873MOL0     C17754  10.675   9.217   5.622 -0.2989 -0.8201 -0.0913
  873MOL0     C17755  10.740   9.232   5.500 -0.1883  0.4705 -0.0001
  873MOL0     O17756  10.867   9.176   5.466 -0.1308 -0.0024  0.1112
  873MOL0     C17757  10.949   9.129   5.574 -0.5420 -0.5315 -0.2493
  873MOL0     C17758  11.090   9.085   5.519  0.4259 -0.0428  0.2356
  873MOL0     C17759  11.165   9.205   5.461 -0.1786  0.0049 -0.5386
  873MOL0     C17760  11.315   9.191   5.483 -0.0097 -0.2875 -0.3982
  873MOL0     C17761  11.397   9.275   5.369  1.4341 -0.1127  0.0114
  873MOL0     C17762  11.540   9.255   5.372  0.4615 -0.4183  0.6811
  873MOL0     C17763  11.600   9.325   5.239  0.3279  0.7751  0.0299
  873MOL0     C17764  11.701   9.240   5.171 -0.0981  0.1091  0.4301
  873MOL0    Cl17765  11.633   9.079   5.136 -0.1391  0.2177  0.2205
  873MOL0     C17766  10.668   9.289   5.400  0.1645  0.1354 -0.1961
  873MOL0     C17767  10.535   9.332   5.416  0.0315 -0.7412  0.4137
  873MOL0     O17768  10.353   9.495   5.696 -0.0606 -0.3426  0.4493
  873MOL0     C17769  10.056   9.335   5.604 -0.1604  0.0276  0.0349
  873MOL0     C17770   9.920   9.333   5.613 -0.2714 -0.7316 -0.7342
  873MOL0     N17771   9.299   9.235   5.234 -0.6216  0.8828 -0.3535
  873MOL0     N17772   9.181   9.203   5.206 -0.2271  0.5012 -0.0525
  873MOL0     C17773   9.048   9.932   4.539 -0.2462  0.8779  0.2879
  873MOL0     C17774   8.981   9.900   4.421  0.0713 -0.4949 -0.1061
  873MOL0     C17775   8.656   9.820   4.099  1.0260 -0.0750 -0.8979
  873MOL0     C17776   8.584   9.944   4.069 -0.4814  0.1253 -0.5720
  873MOL0     C17777   8.477   9.946   3.981  0.0968 -0.3050  0.1455
  873MOL0     C17778   8.432   9.834   3.915  0.2117 -0.2425 -1.0338
  873MOL0     O17779   8.318   9.854   3.838  0.3934 -0.0446  0.5372
  873MOL0     C17780   8.297   9.758   3.726  0.5626 -0.6956 -0.0089
  873MOL0     C17781   8.193   9.659   3.760  0.5086 -0.1865  0.6804
  873MOL0     C17782   8.049   9.724   3.750 -1.1089 -0.5654  0.6403
  873MOL0     C17783   7.936   9.622   3.774  0.0798  0.1634 -0.0816
  873MOL0     C17784   7.812   9.684   3.808 -0.3260 -0.3612  0.3626
  873MOL0     C17785   7.718   9.756   3.835 -1.3287  1.1894 -0.5480
  873MOL0     C17786   8.500   9.716   3.936  0.6213  0.8911  0.1525
  873MOL0     C17787   8.608   9.707   4.031  0.0162 -0.0611  0.8456
  873MOL0     H17788   8.699  10.079   4.483  0.9038  0.8897  1.1689
  873MOL0     H17789   8.804  10.121   4.690  0.5149  0.2276  0.6233
  873MOL0     H17790   9.078  10.056   4.967 -0.4246  0.7026  0.2808
  873MOL0     H17791   8.952  10.154   4.889 -3.9488 -1.9463  2.7569
  873MOL0     H17792   8.834  10.000   5.006  2.6161  0.9696  0.1177
  873MOL0     H17793   8.821   9.944   4.837 -2.5176  1.7354  1.7117
  873MOL0     H17794   9.044   9.804   4.914  0.0938 -3.2072  1.5851
  873MOL0     H17795   8.970   9.811   5.068 -0.2978 -0.3953  1.6359
  873MOL0     H17796   8.755   9.701   4.957 -0.2450 -0.2992  0.8712
  873MOL0     H17797   8.838   9.707   4.806  0.2475  2.2971  0.0767
  873MOL0     H17798   8.846   9.491   4.885 -0.8483  2.3226 -0.5801
  873MOL0     H17799   9.015   9.553   4.887 -0.3265 -0.0410 -1.0260
  873MOL0     H17800   9.032   9.533   5.097  0.9730 -1.5314 -4.0428
  873MOL0     H17801   8.856   9.570   5.134 -0.7668 -2.1871  1.0632
  873MOL0     H17802   8.798   9.344   5.075  0.0692 -0.4666  1.4720
  873MOL0     H17803   8.972   9.329   5.025  1.5026  1.0892  0.4520
  873MOL0     H17804   8.918   9.196   5.242  0.0498 -0.4936 -2.0371
  873MOL0     H17805   8.916   9.349   5.326 -0.7661  1.5697 -1.6653
  873MOL0     H17806   9.148   9.518   5.313 -0.0519  0.2559  0.2210
  873MOL0     H17807   9.506   9.389   5.260  1.3577 -1.2928  1.4647
  873MOL0     H17808   9.431   9.539   5.326 -0.7914  0.0281  0.8567
  873MOL0     H17809   9.475   9.265   5.455  0.3957  0.2102 -1.0024
  873MOL0     H17810   9.404   9.402   5.542  0.0155  0.0716 -0.8027
  873MOL0     H17811   9.636   9.519   5.515  2.7634 -0.3402 -1.8596
  873MOL0     H17812   9.700   9.376   5.442  2.1000 -0.4986  1.6925
  873MOL0     H17813   9.681   9.249   5.633 -1.1281 -0.0072 -3.5227
  873MOL0     H17814   9.560   9.352   5.716  0.7895  0.4570  1.0408
  873MOL0     H17815   9.893   9.621   5.800 -2.6903 -1.2210  0.2394
  873MOL0     H17816  10.230   9.642   5.825  0.8272 -2.6107 -0.8021
  873MOL0     H17817  10.215   9.706   5.664 -0.0611  0.9467  1.2548
  873MOL0     H17818  10.094   9.752   5.781 -0.8390 -0.8443 -2.0930
  873MOL0     H17819  10.485   9.233   5.726  0.5266  0.6056  0.1265
  873MOL0     H17820  10.729   9.184   5.710 -1.3408  3.3352  2.3752
  873MOL0     H17821  10.951   9.206   5.651  1.5565  0.8074 -1.5374
  873MOL0     H17822  10.907   9.042   5.625 -3.2173 -0.2095 -1.7445
  873MOL0     H17823  11.145   9.038   5.601 -0.2785  0.6786  1.1417
  873MOL0     H17824  11.079   9.007   5.443 -2.2254 -0.3531  0.8287
  873MOL0     H17825  11.138   9.305   5.495  1.4612 -0.6279  3.1130
  873MOL0     H17826  11.149   9.209   5.353  1.7057  2.0960 -0.8087
  873MOL0     H17827  11.342   9.227   5.582  1.3806  3.7686 -2.0440
  873MOL0     H17828  11.333   9.086   5.459 -0.7285 -0.4705 -0.1669
  873MOL0     H17829  11.374   9.380   5.389  1.8409 -0.3562  1.9195
  873MOL0     H17830  11.355   9.243   5.273  2.2674 -1.5422  0.1099
  873MOL0     H17831  11.585   9.311   5.454  4.5811 -0.7831 -1.1108
  873MOL0     H17832  11.567   9.149   5.381  3.2401  0.2924  1.8431
  873MOL0     H17833  11.641   9.425   5.258  1.7360  0.4304 -1.0757
  873MOL0     H17834  11.516   9.352   5.174 -0.4737 -0.4369  0.5329
  873MOL0     H17835  11.780   9.229   5.246 -1.2072  0.0237  1.6221
  873MOL0     H17836  11.741   9.292   5.083  0.2629 -0.9252 -0.0283
  873MOL0     H17837  10.724   9.276   5.308 -0.6572 -1.0007 -0.5491
  873MOL0     H17838  10.482   9.374   5.331 -0.9741 -1.1888  0.8045
  873MOL0     H17839  10.097   9.241   5.569 -1.4203  0.0444 -1.6341
  873MOL0     H17840   9.879   9.245   5.565 -0.6831 -0.4151 -0.9669
  873MOL0     H17841   9.154   9.907   4.550  0.1699  1.1221 -2.4916
  873MOL0     H17842   9.046   9.851   4.349  1.6007  1.8707 -0.4811
  873MOL0     H17843   8.618  10.022   4.136 -0.6197 -2.6025  2.9800
  873MOL0     H17844   8.422  10.038   3.966  1.2007  0.3453 -0.0142
  873MOL0     H17845   8.253   9.814   3.643 -1.6080  1.2053  2.2380
  873MOL0     H17846   8.385   9.701   3.697 -0.0139 -2.2623  1.1799
  873MOL0     H17847   8.212   9.609   3.855 -0.5116 -0.1701  0.9098
  873MOL0     H17848   8.195   9.576   3.688  0.8781  1.6257 -1.5105
  873MOL0     H17849   8.050   9.764   3.648 -0.3644 -1.5965  0.2130
  873MOL0     H17850   8.040   9.796   3.831 -0.9279 -0.2126  0.3487
  873MOL0     H17851   7.961   9.582   3.873 -0.2562  3.0837  1.2912
  873MOL0     H17852   7.929   9.539   3.704  0.5131 -1.0517  1.2721
  873MOL0     H17853   7.635   9.820   3.858 -0.5680  1.4316  1.7645
  873MOL0     H17854   8.469   9.622   3.891  0.6662  1.6024 -1.4052
  873MOL0     H17855   8.657   9.611   4.041  0.4318  0.3069  2.6748
  874MOL0     O17856   6.649   1.646   3.252 -0.1375 -0.1836 -0.0931
  874MOL0     C17857   6.732   1.648   3.158 -0.8647 -0.0990 -0.2921
  874MOL0     O17858   6.718   1.716   3.040  0.4535 -0.5775 -0.5328
  874MOL0     C17859   6.611   1.802   3.034  0.2499 -0.5110 -0.1068
  874MOL0     C17860   6.632   1.936   3.056 -0.5679 -0.4687 -0.6999
  874MOL0     C17861   6.537   2.036   3.048  0.3172  0.5452  0.3527
  874MOL0     C17862   6.405   2.001   3.037  0.4141  0.2104  0.1440
  874MOL0     O17863   6.303   2.090   3.036 -0.1900 -0.9237  0.4367
  874MOL0     C17864   6.266   2.134   2.906 -0.0984 -0.8081  0.3162
  874MOL0     C17865   6.151   2.239   2.913  0.2040  0.7083  0.5386
  874MOL0     C17866   6.019   2.176   2.868 -0.2258 -0.3065  0.4270
  874MOL0     C17867   5.918   2.283   2.886 -0.3397 -1.0186 -0.5296
  874MOL0     C17868   5.779   2.255   2.843 -0.1897  0.3974  0.6448
  874MOL0     C17869   5.692   2.376   2.857 -0.5102  1.0701 -0.3414
  874MOL0     C17870   5.551   2.345   2.822  0.9650  0.5956 -0.2662
  874MOL0     C17871   5.455   2.464   2.850  0.4815  0.2388  0.3318
  874MOL0     N17872   5.311   2.431   2.836  0.7562 -0.3393 -0.4816
  874MOL0     C17873   5.246   2.477   2.718 -0.2208  0.1540  0.0547
  874MOL0     C17874   5.137   2.396   2.724  0.5995  0.0332 -0.5089
  874MOL0     C17875   5.036   2.395   2.616 -1.0701 -0.6613  0.0227
  874MOL0     C17876   4.895   2.410   2.669 -0.1981 -0.1406  0.3608
  874MOL0     C17877   4.793   2.347   2.570 -0.0769 -0.7072 -0.1556
  874MOL0     C17878   4.790   2.194   2.570  0.1617  0.7448 -0.3682
  874MOL0     O17879   4.670   2.164   2.503 -0.0849  0.3097 -0.0594
  874MOL0     C17880   4.559   2.131   2.586  0.0330 -0.0982  0.4387
  874MOL0     C17881   4.542   2.180   2.717 -0.2043  0.1223 -0.6909
  874MOL0     C17882   4.431   2.155   2.799 -0.0582  0.6137  0.3160
  874MOL0     C17883   4.413   2.233   2.928 -0.1465 -0.5642  0.5530
  874MOL0     C17884   4.323   2.071   2.742  1.0005  0.7478 -0.1343
  874MOL0     C17885   4.198   2.035   2.820 -0.2405 -0.0818 -0.1481
  874MOL0     O17886   4.078   2.023   2.750  1.0205 -0.1385 -0.5069
  874MOL0     C17887   3.962   1.982   2.811  0.1709  0.1659  0.1681
  874MOL0     C17888   3.952   1.919   2.932  0.5197 -0.4027 -0.4061
  874MOL0     C17889   3.829   1.876   2.981 -0.2052 -0.1639 -0.1795
  874MOL0     C17890   3.715   1.884   2.905 -0.8158  0.0280  0.1338
  874MOL0     O17891   3.597   1.834   2.961 -0.3902 -0.7047  0.7993
  874MOL0     C17892   3.487   1.828   2.875 -0.6857 -0.3529 -0.3731
  874MOL0     C17893   3.381   1.780   2.966 -0.2297  0.1690  0.4261
  874MOL0     C17894   3.244   1.774   2.895 -0.3028  0.5555 -1.1150
  874MOL0     C17895   3.144   1.733   3.000  0.4282  0.0436  0.0930
  874MOL0     C17896   2.997   1.760   2.937 -0.2437 -1.0776  0.3280
  874MOL0     C17897   2.893   1.681   3.017 -0.2804 -0.2593 -0.2197
  874MOL0     C17898   2.755   1.730   2.978 -0.1293  0.1767 -0.8357
  874MOL0     C17899   2.639   1.635   2.997  0.4099 -0.2594  1.3669
  874MOL0    Cl17900   2.613   1.578   3.165  0.4530 -0.3403  0.1500
  874MOL0     C17901   3.726   1.940   2.779  0.1403 -0.5238  0.3412
  874MOL0     C17902   3.849   1.990   2.731  0.2112 -1.1096  0.3717
  874MOL0     O17903   4.215   2.014   2.935  0.1533 -0.2087 -0.2198
  874MOL0     C17904   4.342   2.017   2.609 -0.3856  0.0632 -0.9894
  874MOL0     C17905   4.455   2.051   2.535  0.1204  0.7452  0.6387
  874MOL0     N17906   5.142   2.309   2.834  0.1313  0.2406 -0.7101
  874MOL0     N17907   5.236   2.347   2.915  0.0091  0.4580 -1.0325
  874MOL0     C17908   6.379   1.863   3.024  0.5805  0.0069  0.1792
  874MOL0     C17909   6.480   1.766   3.031 -0.3376  0.2245 -0.1419
  874MOL0     C17910   6.850   1.565   3.189  0.7348  0.2594  0.2808
  874MOL0     C17911   6.941   1.534   3.081  0.9126 -0.2864  1.0248
  874MOL0     C17912   7.039   1.441   3.099 -0.2236  0.0117 -0.5826
  874MOL0     C17913   7.059   1.385   3.230  0.2955 -0.8751  0.6202
  874MOL0     O17914   7.156   1.299   3.275  0.2358  0.2508 -0.3652
  874MOL0     C17915   7.237   1.232   3.177 -0.0027 -0.0092  0.4889
  874MOL0     C17916   7.304   1.111   3.246  1.0680  0.0097 -0.0325
  874MOL0     C17917   7.391   1.136   3.368  0.2094 -0.1893  0.0347
  874MOL0     C17918   7.503   1.040   3.379  0.3542 -0.3850 -0.3635
  874MOL0     C17919   7.599   1.075   3.485 -0.4964  0.4017 -0.0655
  874MOL0     C17920   7.680   1.104   3.563 -0.5613 -0.2823 -0.2836
  874MOL0     C17921   6.975   1.420   3.336  0.0483  0.2856  0.0441
  874MOL0     C17922   6.869   1.506   3.312 -0.3348  0.7943 -0.7463
  874MOL0     H17923   6.731   1.976   3.074 -0.7757  1.1355 -2.6973
  874MOL0     H17924   6.570   2.137   3.069  1.1782  0.3808 -0.1865
  874MOL0     H17925   6.351   2.191   2.866 -1.3266 -0.0753 -1.3386
  874MOL0     H17926   6.248   2.054   2.834 -0.5713 -0.0325 -0.4502
  874MOL0     H17927   6.153   2.285   3.012  2.1897  0.9811  0.4121
  874MOL0     H17928   6.175   2.321   2.845  0.9688 -0.8092 -1.0973
  874MOL0     H17929   6.020   2.149   2.762  1.1148  0.2554  0.2669
  874MOL0     H17930   6.000   2.089   2.931  3.2760 -1.3913  0.1954
  874MOL0     H17931   5.913   2.316   2.990 -0.6122 -0.0754 -0.8363
  874MOL0     H17932   5.948   2.377   2.839 -1.0195  0.7965  2.3588
  874MOL0     H17933   5.773   2.221   2.740 -0.6916  2.1119  0.0662
  874MOL0     H17934   5.744   2.174   2.907  0.6658 -2.1230 -1.8925
  874MOL0     H17935   5.706   2.418   2.957  2.5487  0.8402 -0.5720
  874MOL0     H17936   5.733   2.451   2.788  2.2926  0.4604  0.5079
  874MOL0     H17937   5.553   2.303   2.721  2.5815  0.6238 -0.2649
  874MOL0     H17938   5.514   2.267   2.890  1.8992  1.1420  0.8926
  874MOL0     H17939   5.485   2.544   2.781 -0.0741  0.4841  0.3716
  874MOL0     H17940   5.475   2.486   2.955 -1.4113 -1.3759  1.0928
  874MOL0     H17941   5.276   2.550   2.644  1.6555  2.0656  2.5395
  874MOL0     H17942   5.046   2.478   2.545 -1.0826  0.6563  1.4940
  874MOL0     H17943   5.043   2.299   2.564 -1.0128 -1.2191  1.0319
  874MOL0     H17944   4.865   2.516   2.672 -0.7450 -0.3054  2.4647
  874MOL0     H17945   4.883   2.370   2.770 -1.8691  0.0149  0.2443
  874MOL0     H17946   4.805   2.387   2.469 -3.4687  3.2303  0.7120
  874MOL0     H17947   4.691   2.381   2.591  0.4647  1.2858 -0.4987
  874MOL0     H17948   4.794   2.134   2.662 -1.2049 -0.9971 -1.3606
  874MOL0     H17949   4.877   2.150   2.519  0.9223 -1.7378  2.7244
  874MOL0     H17950   4.617   2.246   2.759 -0.5506 -0.4289  0.8716
  874MOL0     H17951   4.389   2.170   3.014 -0.2002 -1.0876  0.1638
  874MOL0     H17952   4.507   2.285   2.946  0.8442 -1.5662 -1.4234
  874MOL0     H17953   4.333   2.305   2.910  0.6734 -0.3795 -3.1829
  874MOL0     H17954   4.035   1.895   2.998  0.4004 -1.9689 -0.7908
  874MOL0     H17955   3.831   1.819   3.073  0.5426  0.2901  0.0923
  874MOL0     H17956   3.468   1.923   2.824  2.4406  1.0914  0.9261
  874MOL0     H17957   3.506   1.755   2.796 -1.7471  0.1158 -1.0944
  874MOL0     H17958   3.414   1.681   3.000  2.3955  0.3373 -1.3632
  874MOL0     H17959   3.379   1.849   3.050  1.4050  0.4953  0.2276
  874MOL0     H17960   3.233   1.709   2.808 -0.3980 -0.9009 -0.0534
  874MOL0     H17961   3.220   1.875   2.859 -2.3315  1.1317  1.4779
  874MOL0     H17962   3.160   1.627   3.022  0.2261  0.0085  0.0789
  874MOL0     H17963   3.159   1.768   3.102  3.3590 -0.9902  0.1128
  874MOL0     H17964   2.996   1.742   2.829  0.0726  1.3890 -0.1396
  874MOL0     H17965   2.980   1.867   2.949  0.0059 -1.1986  2.0700
  874MOL0     H17966   2.902   1.578   2.983 -0.0102 -0.3025 -0.0231
  874MOL0     H17967   2.902   1.690   3.125 -0.6956  0.8112 -0.2638
  874MOL0     H17968   2.763   1.765   2.875 -0.9550  0.7222 -0.7184
  874MOL0     H17969   2.730   1.819   3.037 -1.8890 -1.5443  1.1576
  874MOL0     H17970   2.659   1.546   2.936  2.3088  0.1895  1.2735
  874MOL0     H17971   2.541   1.677   2.970  0.1339 -0.7378  1.6054
  874MOL0     H17972   3.643   1.943   2.709  0.3290 -0.7697  0.0993
  874MOL0     H17973   3.858   2.033   2.632 -1.0386  1.3791  1.2341
  874MOL0     H17974   4.260   1.955   2.574 -1.4568  0.8057  0.1170
  874MOL0     H17975   4.466   2.011   2.435  1.7944 -1.8029  1.7466
  874MOL0     H17976   6.274   1.837   3.017  0.5128  0.2052  0.4465
  874MOL0     H17977   6.461   1.660   3.025 -1.8247  0.4277  0.4611
  874MOL0     H17978   6.930   1.578   2.982  1.0337  0.6639  1.4156
  874MOL0     H17979   7.101   1.437   3.010 -1.4780  2.5693 -1.6664
  874MOL0     H17980   7.172   1.193   3.098  0.2294  0.5563  0.0130
  874MOL0     H17981   7.321   1.291   3.138  0.8856 -1.7737 -0.4373
  874MOL0     H17982   7.359   1.059   3.167  0.8883  0.5725 -0.5340
  874MOL0     H17983   7.222   1.045   3.274  0.5574  0.6070 -0.1109
  874MOL0     H17984   7.332   1.141   3.461 -2.5812  0.9394 -1.6597
  874MOL0     H17985   7.429   1.238   3.354  0.0325 -0.2532 -0.9976
  874MOL0     H17986   7.555   1.032   3.283 -1.8166  2.3805 -1.8925
  874MOL0     H17987   7.463   0.942   3.407  2.8731 -1.8435 -1.5622
  874MOL0     H17988   7.751   1.138   3.635 -0.7913 -0.2477 -0.0713
  874MOL0     H17989   7.001   1.372   3.429  4.1847 -0.3452 -1.2306
  874MOL0     H17990   6.810   1.522   3.402 -0.3393  0.7053 -0.7331
  875MOL0     O17991  10.538   7.322   3.063 -0.0551 -0.1669  0.2657
  875MOL0     C17992  10.574   7.392   2.968  0.3915  0.1880  0.2409
  875MOL0     O17993  10.498   7.501   2.918  0.2323 -0.0987 -0.1546
  875MOL0     C17994  10.388   7.554   2.983  0.4650 -0.1311  0.3042
  875MOL0     C17995  10.354   7.522   3.117 -0.4939 -0.4536 -0.1371
  875MOL0     C17996  10.236   7.579   3.177 -1.0278 -0.5144  0.9051
  875MOL0     C17997  10.163   7.679   3.107  1.5510 -0.2379 -0.1679
  875MOL0     O17998  10.064   7.739   3.181 -0.0019  0.3461  0.1819
  875MOL0     C17999   9.937   7.766   3.105 -0.5269  0.1119  0.9774
  875MOL0     C18000   9.827   7.831   3.186 -0.3493 -0.4516  0.1917
  875MOL0     C18001   9.705   7.864   3.115  0.4809 -0.4950 -0.4094
  875MOL0     C18002   9.622   7.978   3.178 -0.8822 -0.5026  0.4617
  875MOL0     C18003   9.487   8.009   3.108 -1.2164  0.0032 -0.1612
  875MOL0     C18004   9.394   7.889   3.115 -0.3757 -0.5457 -0.1594
  875MOL0     C18005   9.250   7.937   3.091 -0.2731  0.2716  0.1421
  875MOL0     C18006   9.199   8.026   3.203 -1.2181 -0.2469  0.2897
  875MOL0     N18007   9.056   8.068   3.177 -0.0310 -0.1927  0.6640
  875MOL0     C18008   8.999   8.191   3.186 -0.6945 -0.0759 -0.3701
  875MOL0     C18009   8.874   8.175   3.135 -0.3370 -0.4266 -0.9354
  875MOL0     C18010   8.783   8.287   3.135 -0.0460 -0.3468 -0.1675
  875MOL0     C18011   8.638   8.247   3.109  0.6451 -0.4167 -0.6061
  875MOL0     C18012   8.573   8.164   3.223  0.5874 -1.5773  0.4511
  875MOL0     C18013   8.430   8.130   3.189 -0.0273 -0.1932 -0.5408
  875MOL0     O18014   8.347   8.247   3.163  0.1276 -0.6684  0.4736
  875MOL0     C18015   8.215   8.246   3.197  0.8439 -0.0743 -0.5888
  875MOL0     C18016   8.143   8.126   3.203 -0.5750 -0.8732 -0.6164
  875MOL0     C18017   8.002   8.127   3.223  0.4685  0.8220 -0.0365
  875MOL0     C18018   7.932   7.993   3.212 -0.2542  0.3089  0.6965
  875MOL0     C18019   7.937   8.247   3.250 -0.2237 -0.3437  0.4462
  875MOL0     C18020   7.787   8.257   3.277 -0.4460  0.3910  1.3253
  875MOL0     O18021   7.704   8.169   3.214 -0.1919 -0.1673 -0.1568
  875MOL0     C18022   7.575   8.161   3.262 -0.3793 -0.4509 -0.8642
  875MOL0     C18023   7.539   8.080   3.369  0.1893  0.3564 -0.3058
  875MOL0     C18024   7.399   8.052   3.398 -0.2518  1.1379 -0.5583
  875MOL0     C18025   7.299   8.107   3.321 -0.5734  0.7008  0.6793
  875MOL0     O18026   7.167   8.073   3.350  0.1255  0.3840 -0.0699
  875MOL0     C18027   7.070   8.179   3.359 -0.2330  0.0403  0.0483
  875MOL0     C18028   7.010   8.211   3.213  0.4240  0.3853  0.2801
  875MOL0     C18029   6.861   8.249   3.233 -0.0572  0.7143  0.1266
  875MOL0     C18030   6.835   8.385   3.310 -0.1638  0.5774  0.0516
  875MOL0     C18031   6.701   8.436   3.271  1.0038 -0.3121  0.6828
  875MOL0     C18032   6.667   8.553   3.359  0.8440  0.0917 -0.4665
  875MOL0     C18033   6.543   8.629   3.302  0.3661 -0.3606 -0.8479
  875MOL0     C18034   6.491   8.740   3.398  0.0911  0.0999  0.5761
  875MOL0    Cl18035   6.338   8.815   3.327 -0.0638 -0.1074 -0.0151
  875MOL0     C18036   7.338   8.198   3.222  0.3808 -0.5357 -0.5201
  875MOL0     C18037   7.469   8.216   3.188 -0.3968  0.1829 -0.3745
  875MOL0     O18038   7.752   8.338   3.359  0.2711 -0.0050  0.1895
  875MOL0     C18039   8.017   8.358   3.275  0.0874  0.4914 -0.0390
  875MOL0     C18040   8.154   8.367   3.237 -0.5646  0.4959 -0.2903
  875MOL0     N18041   8.849   8.042   3.112  0.0012  0.1235 -0.1932
  875MOL0     N18042   8.956   7.974   3.144 -0.0370  0.0505 -0.2928
  875MOL0     C18043  10.200   7.708   2.979 -0.6529  0.2824  0.6186
  875MOL0     C18044  10.314   7.652   2.916  0.1655 -0.3013 -0.0854
  875MOL0     C18045  10.705   7.372   2.909  0.4791  0.5334 -0.0117
  875MOL0     C18046  10.806   7.298   2.971  0.2367 -0.1443  0.2208
  875MOL0     C18047  10.925   7.263   2.905  0.0121 -0.5341 -0.4912
  875MOL0     C18048  10.950   7.311   2.779 -0.1841 -0.0617 -0.2237
  875MOL0     O18049  11.078   7.293   2.725  0.5257 -0.9588 -0.7209
  875MOL0     C18050  11.098   7.348   2.591 -0.5790 -0.0985 -0.0088
  875MOL0     C18051  11.235   7.310   2.539 -0.8497 -0.6850  0.4069
  875MOL0     C18052  11.342   7.390   2.617 -0.3927 -0.8449 -0.6201
  875MOL0     C18053  11.479   7.377   2.550 -0.0316  0.0532 -0.3318
  875MOL0     C18054  11.590   7.449   2.624  0.1577  0.4058  0.6194
  875MOL0     C18055  11.658   7.524   2.693 -1.4905  0.0227  0.5383
  875MOL0     C18056  10.853   7.387   2.715  0.1933 -0.3672  0.8943
  875MOL0     C18057  10.731   7.414   2.781  0.0555 -0.4699 -0.1478
  875MOL0     H18058  10.422   7.465   3.180  2.7618 -0.5037 -3.3587
  875MOL0     H18059  10.218   7.549   3.280 -1.6890 -2.9762  0.1430
  875MOL0     H18060   9.966   7.827   3.018 -0.6131  1.5895  1.9543
  875MOL0     H18061   9.886   7.677   3.066  1.0660  0.3464 -1.9458
  875MOL0     H18062   9.817   7.754   3.263  3.6053 -0.4768  0.8930
  875MOL0     H18063   9.853   7.925   3.237 -4.0930  2.6000 -2.8650
  875MOL0     H18064   9.732   7.888   3.012 -0.0686 -0.8473 -0.6402
  875MOL0     H18065   9.648   7.771   3.114  0.5944 -0.5682 -0.1977
  875MOL0     H18066   9.609   7.946   3.282 -1.8248  0.3185  0.6038
  875MOL0     H18067   9.678   8.072   3.181 -0.8238 -0.5460  0.8681
  875MOL0     H18068   9.452   8.106   3.143 -1.9243 -0.0906 -0.5919
  875MOL0     H18069   9.494   8.032   3.001 -2.3059 -1.0591 -0.4771
  875MOL0     H18070   9.422   7.814   3.040  1.2227  0.7919 -0.9954
  875MOL0     H18071   9.396   7.855   3.218  0.4489 -1.4749 -0.4649
  875MOL0     H18072   9.235   7.997   3.000  1.0351  0.0232 -0.2541
  875MOL0     H18073   9.184   7.855   3.064  0.7500 -0.8137  0.8557
  875MOL0     H18074   9.259   8.118   3.210 -1.1394 -0.4047  3.0104
  875MOL0     H18075   9.211   7.982   3.303  0.4044 -1.0026 -0.2034
  875MOL0     H18076   9.033   8.277   3.243 -0.0960  0.0486 -0.9119
  875MOL0     H18077   8.784   8.339   3.231 -3.8889 -1.3912  0.6313
  875MOL0     H18078   8.795   8.353   3.049 -0.4004  0.0132  0.0552
  875MOL0     H18079   8.633   8.178   3.024 -2.8871 -1.6038  0.3819
  875MOL0     H18080   8.581   8.339   3.092 -1.4665 -1.6190 -0.2687
  875MOL0     H18081   8.592   8.215   3.318  3.1170 -2.1925  0.3395
  875MOL0     H18082   8.625   8.068   3.233 -1.8033 -2.8101  2.3374
  875MOL0     H18083   8.381   8.078   3.272 -0.5818  2.3477  0.8404
  875MOL0     H18084   8.433   8.063   3.103 -2.6872  1.2024 -1.8614
  875MOL0     H18085   8.192   8.029   3.192 -0.2580 -0.7589 -0.2647
  875MOL0     H18086   7.891   7.984   3.111  0.4325 -2.8360  0.6066
  875MOL0     H18087   8.004   7.914   3.233  1.5864  2.0172  1.1454
  875MOL0     H18088   7.850   7.982   3.284 -0.3154 -4.9065  0.1901
  875MOL0     H18089   7.614   8.036   3.434 -1.7953 -0.8096  1.3370
  875MOL0     H18090   7.366   7.982   3.474  0.8844  0.6945 -0.4689
  875MOL0     H18091   6.992   8.148   3.429 -0.9670 -0.3406 -0.9280
  875MOL0     H18092   7.121   8.265   3.404 -0.1677 -0.0574  0.1628
  875MOL0     H18093   7.062   8.289   3.158  0.7285  0.0651  0.1119
  875MOL0     H18094   7.021   8.121   3.152 -1.9755  0.0666  0.2012
  875MOL0     H18095   6.820   8.167   3.292 -0.5182 -0.5575 -1.8564
  875MOL0     H18096   6.809   8.243   3.137  1.1246 -0.4672 -0.4791
  875MOL0     H18097   6.845   8.377   3.418 -2.4974  2.4754  0.4924
  875MOL0     H18098   6.909   8.459   3.277 -1.0117  1.0705 -0.8053
  875MOL0     H18099   6.624   8.361   3.289 -1.8444  1.5923 -2.3222
  875MOL0     H18100   6.692   8.462   3.165 -1.0525 -1.8731  0.4281
  875MOL0     H18101   6.639   8.508   3.455  0.9930  0.9310 -0.0134
  875MOL0     H18102   6.744   8.628   3.379 -0.6377  1.6994 -0.5143
  875MOL0     H18103   6.459   8.560   3.310  0.9941 -0.9644  1.4876
  875MOL0     H18104   6.554   8.668   3.201  3.2769  2.3271  0.3248
  875MOL0     H18105   6.575   8.810   3.399  1.0318 -0.9941  1.9617
  875MOL0     H18106   6.475   8.707   3.501  0.4342 -0.0493  0.5836
  875MOL0     H18107   7.253   8.231   3.163 -1.9111 -1.8086  1.8542
  875MOL0     H18108   7.490   8.278   3.101 -1.7582  0.9545 -0.1890
  875MOL0     H18109   7.967   8.442   3.324 -0.6199 -0.0847  0.2369
  875MOL0     H18110   8.215   8.456   3.248 -0.1282  0.4860 -2.1944
  875MOL0     H18111  10.148   7.787   2.925  1.1240  0.7959 -0.4156
  875MOL0     H18112  10.342   7.692   2.819 -1.9931  1.4572 -0.0711
  875MOL0     H18113  10.784   7.245   3.063 -2.9150 -1.4446 -1.1443
  875MOL0     H18114  10.998   7.199   2.953 -0.3690 -1.2661 -0.8847
  875MOL0     H18115  11.026   7.294   2.530 -3.3606  1.7965  1.4069
  875MOL0     H18116  11.085   7.457   2.585 -1.9589 -0.3136 -2.1903
  875MOL0     H18117  11.237   7.332   2.432  0.0033 -0.3678  0.4805
  875MOL0     H18118  11.250   7.204   2.558 -0.5662 -0.7237 -0.0361
  875MOL0     H18119  11.354   7.360   2.721 -0.6036 -0.7622 -0.5709
  875MOL0     H18120  11.314   7.495   2.605 -2.3543 -1.2396  0.1108
  875MOL0     H18121  11.468   7.426   2.453 -1.6802  4.5645  1.8253
  875MOL0     H18122  11.500   7.270   2.547 -1.2378 -0.1987 -3.1889
  875MOL0     H18123  11.735   7.565   2.754 -2.7655  0.7364  1.7193
  875MOL0     H18124  10.858   7.424   2.613 -0.7104 -1.2106  0.5323
  875MOL0     H18125  10.653   7.458   2.720 -1.7712 -1.3248  1.4869
  876MOL0     O18126   6.526   7.625   7.549 -0.2992  0.3126  0.6387
  876MOL0     C18127   6.428   7.690   7.514  0.8564  1.1572 -0.4103
  876MOL0     O18128   6.323   7.728   7.596 -0.1324  0.0158 -0.4702
  876MOL0     C18129   6.296   7.673   7.720 -1.0302 -0.6302  0.2068
  876MOL0     C18130   6.186   7.732   7.780  0.8954 -0.4304 -1.1264
  876MOL0     C18131   6.127   7.686   7.898  0.1741  0.5264 -0.3311
  876MOL0     C18132   6.191   7.578   7.962 -0.5884  0.4703 -1.1431
  876MOL0     O18133   6.145   7.523   8.080  0.5603  0.1586 -0.1734
  876MOL0     C18134   6.003   7.507   8.100  0.7139  0.4242 -0.5519
  876MOL0     C18135   5.965   7.445   8.232  0.1798  0.0054 -0.2824
  876MOL0     C18136   5.942   7.558   8.340  0.3236  0.2635  0.1948
  876MOL0     C18137   5.976   7.499   8.475  0.2200 -0.4183 -0.2457
  876MOL0     C18138   5.934   7.598   8.586 -0.9565 -0.3233 -0.0583
  876MOL0     C18139   5.780   7.606   8.617 -0.9242  0.4486  0.0700
  876MOL0     C18140   5.752   7.629   8.769  0.5840 -0.0361  0.0528
  876MOL0     C18141   5.826   7.750   8.837 -0.4394  0.1402  0.2813
  876MOL0     N18142   5.794   7.780   8.974 -0.3950  0.4135  0.2971
  876MOL0     C18143   5.820   7.700   9.078 -0.3686  0.0736 -0.5929
  876MOL0     C18144   5.783   7.772   9.188 -0.0017  0.2102  0.4663
  876MOL0     C18145   5.798   7.709   9.319  0.1033  0.4680  0.0641
  876MOL0     C18146   5.833   7.799   9.442  0.0929 -0.9120  0.3901
  876MOL0     C18147   5.948   7.897   9.422 -0.0920 -0.3189 -0.2872
  876MOL0     C18148   5.987   7.959   9.558 -0.5380 -0.0077  0.0404
  876MOL0     O18149   6.038   7.850   9.636 -0.5176  0.3366 -0.9375
  876MOL0     C18150   6.070   7.875   9.771  0.3160 -1.0121 -0.3661
  876MOL0     C18151   5.970   7.871   9.871  0.1349 -0.4358  0.2196
  876MOL0     C18152   6.008   7.879  10.010 -1.1557 -0.1206 -0.5595
  876MOL0     C18153   5.900   7.882  10.119 -0.6097  1.3731 -0.3073
  876MOL0     C18154   6.146   7.894  10.042 -0.0098 -0.5483  0.5058
  876MOL0     C18155   6.193   7.886  10.180  0.7016  0.7472 -0.0652
  876MOL0     O18156   6.271   7.984  10.229 -0.3852  0.4645 -0.0984
  876MOL0     C18157   6.334   7.939  10.339 -1.0934 -0.5368 -0.6008
  876MOL0     C18158   6.279   7.949  10.469  0.4848  0.1328 -0.6377
  876MOL0     C18159   6.350   7.902  10.588  0.2981 -0.2772 -0.2366
  876MOL0     C18160   6.478   7.850  10.572 -0.1269 -0.3371 -0.1138
  876MOL0     O18161   6.549   7.816  10.686 -0.1591  0.2472  0.0398
  876MOL0     C18162   6.689   7.802  10.679 -0.7062 -0.6936 -0.8691
  876MOL0     C18163   6.723   7.774  10.835 -0.2192  0.9843 -0.3951
  876MOL0     C18164   6.863   7.726  10.869 -0.3173  0.2618 -0.4408
  876MOL0     C18165   6.909   7.733  11.014  0.2289  0.4848  1.0420
  876MOL0     C18166   6.833   7.640  11.102  0.5274 -0.8060 -0.0346
  876MOL0     C18167   6.879   7.498  11.087  0.3176  0.2888 -0.6723
  876MOL0     C18168   6.805   7.386  11.179  0.1059 -0.3696 -0.1688
  876MOL0     C18169   6.877   7.258  11.189 -1.0011  0.4880 -0.6788
  876MOL0    Cl18170   6.872   7.189  11.024  0.0638  0.3290 -0.1221
  876MOL0     C18171   6.530   7.850  10.439  0.2590  0.7848  0.1527
  876MOL0     C18172   6.467   7.898  10.328 -0.2017  0.2522 -0.0721
  876MOL0     O18173   6.144   7.795  10.247 -0.4757  0.2778 -0.1705
  876MOL0     C18174   6.237   7.908   9.941 -0.9376 -0.7476 -0.3056
  876MOL0     C18175   6.205   7.893   9.802 -0.4931  0.5382 -0.1708
  876MOL0     N18176   5.716   7.885   9.146  0.1809  0.0606  0.1730
  876MOL0     N18177   5.723   7.880   9.015 -0.5540 -0.1973  0.1960
  876MOL0     C18178   6.312   7.526   7.915 -0.2322  0.2592  0.0262
  876MOL0     C18179   6.363   7.572   7.790  0.3721  0.2227  0.1543
  876MOL0     C18180   6.407   7.718   7.367  0.1394 -0.1679  0.0048
  876MOL0     C18181   6.477   7.636   7.277  0.8324 -0.3011 -0.5040
  876MOL0     C18182   6.446   7.635   7.145  0.8020 -0.6714  0.3116
  876MOL0     C18183   6.347   7.722   7.092  0.3259 -0.6061 -0.6111
  876MOL0     O18184   6.321   7.706   6.965  0.3682 -0.4090  0.3124
  876MOL0     C18185   6.268   7.824   6.896 -0.4093 -0.6841 -0.0221
  876MOL0     C18186   6.274   7.805   6.745  0.1760  0.4307  0.0078
  876MOL0     C18187   6.256   7.938   6.677 -0.1114  0.2591  0.5558
  876MOL0     C18188   6.234   7.928   6.524 -0.4126  0.6163  0.3154
  876MOL0     C18189   6.349   7.873   6.466  0.1736  0.2286 -0.2312
  876MOL0     C18190   6.448   7.819   6.420  0.3075 -0.1859  0.9607
  876MOL0     C18191   6.301   7.820   7.173  0.5750  0.2017 -0.0310
  876MOL0     C18192   6.318   7.814   7.313 -0.4340 -0.4954 -1.1394
  876MOL0     H18193   6.126   7.810   7.735 -1.8582 -1.9157 -0.3427
  876MOL0     H18194   6.037   7.726   7.943  0.9230  1.6248  0.2284
  876MOL0     H18195   5.965   7.609   8.096  1.1405  0.5444 -2.1034
  876MOL0     H18196   5.949   7.464   8.015  2.5555  0.8584 -2.0106
  876MOL0     H18197   5.868   7.398   8.215 -1.9982  3.7724  0.5944
  876MOL0     H18198   6.038   7.368   8.261 -0.6178 -1.1032 -1.1427
  876MOL0     H18199   6.017   7.635   8.320  1.6880 -0.9202  0.6685
  876MOL0     H18200   5.843   7.605   8.337  1.3570  2.5577  0.2806
  876MOL0     H18201   5.925   7.403   8.486  0.3641 -0.4402  0.2674
  876MOL0     H18202   6.081   7.469   8.485  0.2875  0.1516  0.8559
  876MOL0     H18203   5.989   7.579   8.678  1.4089 -0.3504 -1.4232
  876MOL0     H18204   5.968   7.696   8.551 -0.2476 -1.2359 -2.0827
  876MOL0     H18205   5.721   7.677   8.559  0.8385  1.7047 -0.2765
  876MOL0     H18206   5.741   7.508   8.588  2.4379 -1.0109 -0.0866
  876MOL0     H18207   5.646   7.650   8.783 -0.1759 -1.6702 -2.4533
  876MOL0     H18208   5.782   7.540   8.825  2.6238 -1.4507 -3.0127
  876MOL0     H18209   5.804   7.833   8.768 -1.1339 -0.9330 -0.8287
  876MOL0     H18210   5.933   7.729   8.832  0.2733  3.2780 -0.0319
  876MOL0     H18211   5.871   7.605   9.066 -1.8949 -0.5447 -2.8409
  876MOL0     H18212   5.700   7.666   9.342 -1.2192  3.8849  1.5598
  876MOL0     H18213   5.874   7.630   9.317  0.1436  0.5140 -0.1928
  876MOL0     H18214   5.875   7.729   9.514  1.8907 -1.4057 -1.0604
  876MOL0     H18215   5.739   7.841   9.480 -0.7975 -2.0699 -0.4981
  876MOL0     H18216   5.900   7.973   9.360 -1.1133 -0.1510  0.6701
  876MOL0     H18217   6.030   7.845   9.373 -0.1871 -0.4349 -0.3244
  876MOL0     H18218   5.890   7.996   9.593 -1.8630 -2.4374 -0.8100
  876MOL0     H18219   6.055   8.043   9.542 -0.2687 -0.8161 -4.4275
  876MOL0     H18220   5.870   7.845   9.840  0.2661 -0.3667 -0.2717
  876MOL0     H18221   5.888   7.779  10.154  1.4364  1.3924  0.5731
  876MOL0     H18222   5.930   7.939  10.208 -3.1926 -1.9534  3.0046
  876MOL0     H18223   5.806   7.922  10.079 -1.1859 -0.1268 -0.5075
  876MOL0     H18224   6.171   7.956  10.475  0.5732  0.6359  0.7668
  876MOL0     H18225   6.314   7.920  10.689  2.2948 -0.4494  0.5599
  876MOL0     H18226   6.712   7.714  10.618 -0.1011 -1.3959  0.3373
  876MOL0     H18227   6.740   7.892  10.643 -0.5208 -0.6299 -0.4491
  876MOL0     H18228   6.709   7.870  10.886  1.5464  0.9271  0.2535
  876MOL0     H18229   6.650   7.703  10.874 -1.2646  1.9155 -0.6082
  876MOL0     H18230   6.929   7.784  10.804 -0.0054  1.4138  0.8595
  876MOL0     H18231   6.861   7.619  10.845 -3.7145 -0.2199  1.4542
  876MOL0     H18232   7.017   7.722  11.021  0.5000  0.2557 -2.2381
  876MOL0     H18233   6.885   7.836  11.044  2.0658  1.0010  0.8757
  876MOL0     H18234   6.726   7.654  11.091  0.6583  1.7761  1.2721
  876MOL0     H18235   6.841   7.676  11.205  2.4925 -0.0390 -0.3987
  876MOL0     H18236   6.865   7.461  10.985  0.0471 -2.6547  0.3277
  876MOL0     H18237   6.987   7.494  11.103  0.0738 -0.1532  1.0440
  876MOL0     H18238   6.707   7.376  11.132  0.8217 -0.2422 -1.7350
  876MOL0     H18239   6.801   7.428  11.280  3.4533  0.3808 -0.2397
  876MOL0     H18240   6.825   7.193  11.259 -0.2476  1.4976  0.8714
  876MOL0     H18241   6.985   7.266  11.205 -0.5899 -0.7830 -2.3821
  876MOL0     H18242   6.626   7.809  10.408 -1.1986 -1.7564 -1.2497
  876MOL0     H18243   6.522   7.914  10.236  1.8047  0.4706  1.1041
  876MOL0     H18244   6.341   7.912   9.973 -1.7950  0.6842  2.6706
  876MOL0     H18245   6.283   7.915   9.730 -0.0433 -0.3690  0.0252
  876MOL0     H18246   6.362   7.441   7.960  0.5639  0.2137 -0.9190
  876MOL0     H18247   6.451   7.526   7.744 -1.2785 -0.4932 -2.5151
  876MOL0     H18248   6.552   7.565   7.313  0.5025  0.8390  2.7927
  876MOL0     H18249   6.501   7.560   7.089  1.3136  0.7916 -1.2358
  876MOL0     H18250   6.166   7.848   6.928 -0.5210  0.3741 -1.1236
  876MOL0     H18251   6.328   7.911   6.926 -0.9435  0.2795 -1.6193
  876MOL0     H18252   6.207   7.729   6.704  1.5862 -1.2439  0.7076
  876MOL0     H18253   6.377   7.774   6.731  0.8809  1.9659  1.4097
  876MOL0     H18254   6.346   7.999   6.686  0.5113 -0.5983  0.2129
  876MOL0     H18255   6.172   7.995   6.719 -0.7175  0.2166 -0.5308
  876MOL0     H18256   6.220   8.032   6.494  2.0739  0.2760 -2.4937
  876MOL0     H18257   6.147   7.866   6.501  0.1324  0.1793 -0.6158
  876MOL0     H18258   6.531   7.758   6.392  0.4265  0.2855  0.2727
  876MOL0     H18259   6.226   7.887   7.132 -1.0428 -1.9136 -0.6906
  876MOL0     H18260   6.256   7.880   7.372 -0.6484 -0.6842 -1.1552
  877MOL0     O18261   1.324   0.111   2.853 -0.5871  0.5740  0.0905
  877MOL0     C18262   1.399   0.170   2.931  0.1988 -0.0439 -0.1256
  877MOL0     O18263   1.389   0.298   2.976  0.6216  0.2485 -0.3701
  877MOL0     C18264   1.268   0.355   2.957 -0.0163 -0.0253  0.6796
  877MOL0     C18265   1.154   0.317   3.022  0.1681  0.7204 -0.2667
  877MOL0     C18266   1.033   0.391   3.022 -0.6634  0.5736  0.2492
  877MOL0     C18267   1.030   0.506   2.941 -0.4170  0.2243  0.1461
  877MOL0     O18268   0.926   0.591   2.942 -0.3655  0.5086  0.7084
  877MOL0     C18269   0.799   0.545   2.981  0.3467 -1.0647 -0.1360
  877MOL0     C18270   0.689   0.655   2.936  0.0374 -0.4471  0.9007
  877MOL0     C18271   0.688   0.786   3.015 -0.7661  0.3147  0.0570
  877MOL0     C18272   0.617   0.905   2.934 -0.4592  0.0560 -0.5714
  877MOL0     C18273   0.585   1.026   3.027 -0.5021 -0.0144  1.1067
  877MOL0     C18274   0.724   1.087   3.051  0.3154 -0.6042 -0.7561
  877MOL0     C18275   0.703   1.214   3.145 -0.4256  0.0264 -0.2589
  877MOL0     C18276   0.819   1.257   3.236  0.0284  0.7429  0.2464
  877MOL0     N18277   0.937   1.324   3.174  0.2352 -0.5960 -0.0866
  877MOL0     C18278   1.008   1.288   3.061 -0.2633  0.3600  0.5068
  877MOL0     C18279   1.076   1.395   3.025  0.8825 -0.5575 -0.3518
  877MOL0     C18280   1.165   1.402   2.910  0.5803 -0.0780  0.1106
  877MOL0     C18281   1.112   1.495   2.802  0.4606 -0.5395  0.1039
  877MOL0     C18282   1.119   1.647   2.816  0.0621  0.4392 -0.2821
  877MOL0     C18283   1.251   1.694   2.880 -0.3850 -0.0502 -0.6935
  877MOL0     O18284   1.357   1.655   2.792  0.4001 -0.0788 -0.0389
  877MOL0     C18285   1.483   1.665   2.836 -0.3307  0.6644  0.0332
  877MOL0     C18286   1.570   1.584   2.761  0.8293 -0.2671 -0.3514
  877MOL0     C18287   1.712   1.582   2.777 -0.7046 -0.0758 -0.2218
  877MOL0     C18288   1.784   1.477   2.698  0.1626 -0.2779  0.1527
  877MOL0     C18289   1.768   1.668   2.883  0.0532 -0.0505 -0.7796
  877MOL0     C18290   1.910   1.693   2.911 -0.1666 -0.0511 -0.3777
  877MOL0     O18291   1.923   1.786   3.003  0.2675 -0.8350 -0.2632
  877MOL0     C18292   2.037   1.789   3.069  0.3264 -0.0958 -0.5432
  877MOL0     C18293   2.105   1.669   3.115  1.2696  0.1279  0.5111
  877MOL0     C18294   2.220   1.678   3.189 -1.2607 -0.5227 -0.2353
  877MOL0     C18295   2.273   1.802   3.222 -0.7305 -0.1066  0.1336
  877MOL0     O18296   2.379   1.808   3.308  0.5170  0.1055 -0.2874
  877MOL0     C18297   2.483   1.909   3.269  1.0044 -0.5930  0.3356
  877MOL0     C18298   2.604   1.875   3.348  0.2151  0.2612  0.0221
  877MOL0     C18299   2.712   1.971   3.304 -0.5106 -0.4457  0.0463
  877MOL0     C18300   2.850   1.927   3.366 -0.5712 -0.4465 -0.6785
  877MOL0     C18301   2.959   2.032   3.312 -0.4787  0.9149  0.2113
  877MOL0     C18302   3.098   1.999   3.379  0.4906  0.5157  0.4072
  877MOL0     C18303   3.205   2.104   3.325 -0.7442  0.0398  0.4485
  877MOL0     C18304   3.324   2.132   3.421 -0.8986  0.2747  0.7745
  877MOL0    Cl18305   3.461   2.022   3.391 -0.6547  0.0167 -0.0134
  877MOL0     C18306   2.203   1.915   3.175 -0.4981  0.6099  0.8484
  877MOL0     C18307   2.086   1.906   3.108 -0.0084 -0.5582  0.4926
  877MOL0     O18308   2.000   1.642   2.848 -0.0941 -0.4127 -0.1162
  877MOL0     C18309   1.673   1.735   2.973  0.5759  0.4542 -0.1654
  877MOL0     C18310   1.533   1.728   2.946 -0.2410 -1.2930  0.0410
  877MOL0     N18311   1.038   1.498   3.107 -0.1305  0.2742 -0.2485
  877MOL0     N18312   0.954   1.452   3.197 -0.0408 -0.5874 -0.2603
  877MOL0     C18313   1.145   0.546   2.867  0.2099  0.7835 -0.6406
  877MOL0     C18314   1.261   0.467   2.881  0.4414 -0.2045 -0.2388
  877MOL0     C18315   1.530   0.110   2.980 -0.2838 -0.2542  0.2993
  877MOL0     C18316   1.564  -0.024   2.949 -0.6397  0.3813 -0.3599
  877MOL0     C18317   1.689  -0.067   2.977 -0.7993  0.2849  0.0563
  877MOL0     C18318   1.789   0.014   3.051 -0.0256  0.0545 -0.1664
  877MOL0     O18319   1.916  -0.026   3.082 -0.0972  0.0960  0.1279
  877MOL0     C18320   1.956  -0.166   3.080  1.5491  0.1096  0.2671
  877MOL0     C18321   2.108  -0.169   3.099 -0.3886 -0.5070 -0.3339
  877MOL0     C18322   2.145  -0.107   3.228 -0.0242 -0.1707 -1.0558
  877MOL0     C18323   2.293  -0.121   3.263  0.0322 -0.3341 -0.1652
  877MOL0     C18324   2.315  -0.255   3.314 -0.2331  0.9295  0.3217
  877MOL0     C18325   2.335  -0.371   3.352  0.1190  1.0921  0.3579
  877MOL0     C18326   1.753   0.147   3.075 -0.4446 -0.1853 -0.1296
  877MOL0     C18327   1.629   0.204   3.034  0.1155  0.2972  0.8477
  877MOL0     H18328   1.156   0.228   3.084 -0.2047  1.1007  0.2952
  877MOL0     H18329   0.957   0.346   3.086  0.5463  0.6093  1.7721
  877MOL0     H18330   0.773   0.443   2.951 -0.5286 -1.6505  2.3423
  877MOL0     H18331   0.796   0.536   3.090  2.7825 -3.6243 -0.1573
  877MOL0     H18332   0.720   0.684   2.836  3.2937  1.3532  2.2516
  877MOL0     H18333   0.591   0.607   2.938  0.1869 -0.8415  3.5972
  877MOL0     H18334   0.639   0.772   3.111 -0.3862 -1.2124  0.0471
  877MOL0     H18335   0.794   0.805   3.036 -0.0710 -1.6309 -1.4182
  877MOL0     H18336   0.661   0.941   2.841 -4.2908  1.3595 -2.0340
  877MOL0     H18337   0.517   0.868   2.910 -1.0381 -0.0546  1.6978
  877MOL0     H18338   0.521   1.097   2.974  0.6756 -0.8909 -1.6808
  877MOL0     H18339   0.542   0.994   3.122 -0.8471 -0.3391  0.8465
  877MOL0     H18340   0.790   1.019   3.105 -0.0707  0.4400  1.1542
  877MOL0     H18341   0.772   1.120   2.959 -1.0194  3.4760 -0.2191
  877MOL0     H18342   0.689   1.303   3.084 -1.7916  0.7057  0.9859
  877MOL0     H18343   0.613   1.201   3.206  1.1041 -0.4573  2.0202
  877MOL0     H18344   0.865   1.164   3.273  0.0166 -0.1372 -1.8042
  877MOL0     H18345   0.782   1.308   3.326 -1.8657  0.9218 -0.5870
  877MOL0     H18346   1.024   1.194   3.009 -1.2488 -0.3133  1.3686
  877MOL0     H18347   1.266   1.435   2.936  1.1051 -1.5140  0.0071
  877MOL0     H18348   1.180   1.298   2.879 -0.4517  0.0561 -0.9169
  877MOL0     H18349   1.011   1.475   2.764  0.1280  1.4003 -0.1676
  877MOL0     H18350   1.163   1.464   2.711  0.3376 -0.0978 -0.1198
  877MOL0     H18351   1.037   1.682   2.880  1.1859  2.0976  0.3031
  877MOL0     H18352   1.104   1.693   2.717  1.3363  0.9482 -0.2466
  877MOL0     H18353   1.259   1.656   2.982 -2.1101  1.2995 -0.0062
  877MOL0     H18354   1.245   1.803   2.886 -1.7050 -0.1749  0.7349
  877MOL0     H18355   1.510   1.534   2.685 -1.4241  2.8783 -0.8392
  877MOL0     H18356   1.854   1.531   2.633 -0.4103  0.0853 -0.1745
  877MOL0     H18357   1.848   1.415   2.761  1.2064  0.9824  0.3571
  877MOL0     H18358   1.719   1.414   2.637  0.0787 -0.3349  0.3008
  877MOL0     H18359   2.052   1.578   3.089 -1.3021  1.8569 -0.6479
  877MOL0     H18360   2.283   1.594   3.217 -2.1501 -0.0257  3.8239
  877MOL0     H18361   2.509   1.885   3.166 -0.2032 -1.3692  0.1806
  877MOL0     H18362   2.443   2.011   3.272  1.4172 -0.4251  0.1235
  877MOL0     H18363   2.590   1.890   3.455  0.6615  0.1409  0.0969
  877MOL0     H18364   2.633   1.773   3.324  1.8913  1.1501 -2.0309
  877MOL0     H18365   2.682   2.072   3.334 -3.6291 -0.6519 -1.9403
  877MOL0     H18366   2.719   1.979   3.195 -0.5594  4.5356  0.1969
  877MOL0     H18367   2.847   1.923   3.475  2.4695 -0.5293 -0.5125
  877MOL0     H18368   2.871   1.829   3.323 -0.3544  0.2766 -2.2873
  877MOL0     H18369   2.924   2.134   3.334 -1.8535  0.6293 -0.5236
  877MOL0     H18370   2.972   2.030   3.203 -1.8032  2.2976 -0.0087
  877MOL0     H18371   3.095   1.995   3.488  2.1102 -1.6723  0.4394
  877MOL0     H18372   3.131   1.901   3.343  0.4861  0.0583  1.5973
  877MOL0     H18373   3.148   2.196   3.308 -1.8081 -0.3573  1.7040
  877MOL0     H18374   3.235   2.067   3.226 -0.5856  0.0945  0.4755
  877MOL0     H18375   3.291   2.120   3.525 -0.2721 -1.8094  0.7752
  877MOL0     H18376   3.364   2.233   3.402 -0.9608  0.2605  0.5622
  877MOL0     H18377   2.236   2.017   3.190  0.4940  0.4149  0.0712
  877MOL0     H18378   2.024   1.991   3.081  1.7208  1.3145  2.1919
  877MOL0     H18379   1.705   1.778   3.066  1.7236  1.5897 -1.0566
  877MOL0     H18380   1.461   1.781   3.008  0.7524 -1.3323  1.2779
  877MOL0     H18381   1.138   0.644   2.819  1.6241  1.7387  0.9774
  877MOL0     H18382   1.351   0.498   2.828  1.7445 -4.8967 -1.2556
  877MOL0     H18383   1.494  -0.091   2.900  0.9845 -1.6586 -0.0337
  877MOL0     H18384   1.707  -0.169   2.944 -2.1226  0.0800 -0.0919
  877MOL0     H18385   1.890  -0.220   3.148 -0.2952  1.1963 -0.5798
  877MOL0     H18386   1.939  -0.210   2.981  0.0991 -0.6838  0.8410
  877MOL0     H18387   2.157  -0.103   3.026 -1.0234 -0.3755 -0.6495
  877MOL0     H18388   2.152  -0.269   3.091 -0.2108 -0.5008  0.4991
  877MOL0     H18389   2.084  -0.137   3.313  2.6167 -4.5843 -0.3706
  877MOL0     H18390   2.129   0.001   3.223 -0.4185 -0.1623  0.1266
  877MOL0     H18391   2.322  -0.063   3.351 -0.4946 -1.9935  1.1578
  877MOL0     H18392   2.339  -0.100   3.166  1.0333 -0.7904  0.2073
  877MOL0     H18393   2.332  -0.472   3.388  0.5484  1.1107  0.4529
  877MOL0     H18394   1.816   0.209   3.138 -1.0415 -0.6767  0.9900
  877MOL0     H18395   1.607   0.307   3.062  0.4526  0.2846  1.1737
  878MOL0     O18396   1.220   0.958   1.500  0.4300 -0.0866  0.1285
  878MOL0     C18397   1.304   1.027   1.556  0.2786  0.3358 -0.0722
  878MOL0     O18398   1.273   1.125   1.639 -0.6628 -0.0629  0.4746
  878MOL0     C18399   1.142   1.177   1.636 -0.1151 -0.1156 -0.1500
  878MOL0     C18400   1.070   1.201   1.748 -0.4908  0.8348  0.9138
  878MOL0     C18401   0.953   1.266   1.733  0.5716 -0.1309 -0.1842
  878MOL0     C18402   0.897   1.310   1.607 -0.5248 -1.0253 -0.1591
  878MOL0     O18403   0.778   1.380   1.614  0.4468  0.6992 -0.0811
  878MOL0     C18404   0.662   1.298   1.652  0.6386  0.5692 -0.0158
  878MOL0     C18405   0.524   1.340   1.586 -0.6554 -0.4073  0.7137
  878MOL0     C18406   0.486   1.479   1.632  1.3814  0.1148 -0.3383
  878MOL0     C18407   0.368   1.517   1.543  0.2428  0.9460 -0.0007
  878MOL0     C18408   0.297   1.641   1.586  0.3097 -0.5604  0.0842
  878MOL0     C18409   0.205   1.632   1.712  0.3060  0.9583 -0.6200
  878MOL0     C18410   0.121   1.760   1.731 -0.1399 -0.3101 -0.0756
  878MOL0     C18411   0.050   1.762   1.875  0.1993  0.2817  0.8107
  878MOL0     N18412  -0.043   1.648   1.899 -0.5055  0.1032 -0.2394
  878MOL0     C18413  -0.135   1.602   1.809 -0.5663 -0.1615  0.2042
  878MOL0     C18414  -0.201   1.499   1.871 -0.2302 -0.0502  0.3183
  878MOL0     C18415  -0.313   1.433   1.812  1.0892  0.5390  0.9412
  878MOL0     C18416  -0.436   1.477   1.879  0.7838 -0.5572  0.4346
  878MOL0     C18417  -0.546   1.389   1.822  0.3753  0.2157  0.0149
  878MOL0     C18418  -0.683   1.437   1.866  0.5441  0.2277 -0.3736
  878MOL0     O18419  -0.722   1.543   1.784  0.1590  0.5455 -0.8019
  878MOL0     C18420  -0.844   1.600   1.801 -0.5665 -0.0141  0.8175
  878MOL0     C18421  -0.896   1.661   1.688 -0.4033  1.0361  0.1703
  878MOL0     C18422  -1.009   1.745   1.693 -0.0824 -0.2416  0.5857
  878MOL0     C18423  -1.048   1.811   1.558 -0.0348 -0.0728 -1.2770
  878MOL0     C18424  -1.068   1.774   1.819 -0.4202  0.0163  1.2561
  878MOL0     C18425  -1.177   1.869   1.843 -0.2622 -0.0206  0.1142
  878MOL0     O18426  -1.233   1.859   1.968  0.4748  0.5632 -0.4115
  878MOL0     C18427  -1.352   1.918   1.995 -0.0721 -0.2397  0.3028
  878MOL0     C18428  -1.398   1.902   2.127 -0.3099 -0.2493 -0.1029
  878MOL0     C18429  -1.509   1.974   2.176  0.3636  0.1688  0.2255
  878MOL0     C18430  -1.584   2.051   2.095 -0.4834 -0.7510 -0.4159
  878MOL0     O18431  -1.689   2.124   2.153  0.3976 -0.2759  0.2902
  878MOL0     C18432  -1.810   2.145   2.068  0.1887 -1.0373 -0.1500
  878MOL0     C18433  -1.915   2.207   2.149  0.3246  0.1263 -0.4831
  878MOL0     C18434  -1.998   2.099   2.234  0.3528  0.5913  1.3070
  878MOL0     C18435  -2.069   2.137   2.359 -0.0607 -0.0355  0.2778
  878MOL0     C18436  -2.186   2.238   2.341 -0.0824 -0.2706 -0.4898
  878MOL0     C18437  -2.300   2.165   2.258  0.0148 -0.0777 -0.4984
  878MOL0     C18438  -2.396   2.273   2.198  0.4580 -0.0609  0.2418
  878MOL0     C18439  -2.496   2.325   2.294  0.1673  0.2712  0.1786
  878MOL0    Cl18440  -2.589   2.448   2.218 -0.1917  0.1303  0.0533
  878MOL0     C18441  -1.550   2.055   1.961  0.6699  0.6238 -0.1080
  878MOL0     C18442  -1.435   2.000   1.915 -0.8940 -0.3673  0.3060
  878MOL0     O18443  -1.173   1.972   1.785 -0.4480  0.0097  0.2447
  878MOL0     C18444  -1.023   1.690   1.929  0.2493  0.4202 -0.0188
  878MOL0     C18445  -0.911   1.611   1.926  0.2714 -0.9240 -0.5457
  878MOL0     N18446  -0.141   1.489   2.002 -0.1752  0.2260  0.3250
  878MOL0     N18447  -0.048   1.575   2.014  0.6651  0.2103 -0.5130
  878MOL0     C18448   0.967   1.283   1.491 -0.1481  0.6401 -0.1794
  878MOL0     C18449   1.101   1.229   1.513 -0.6870 -0.1071 -0.5288
  878MOL0     C18450   1.447   0.999   1.532 -0.1635 -0.2983 -0.5066
  878MOL0     C18451   1.487   0.889   1.449 -0.6736  1.2110  0.0954
  878MOL0     C18452   1.621   0.850   1.453  0.3753  0.2147  0.0868
  878MOL0     C18453   1.724   0.923   1.527  0.7968  0.2562  0.3451
  878MOL0     O18454   1.854   0.878   1.532 -0.1970  0.1910  0.3839
  878MOL0     C18455   1.910   0.779   1.443 -0.2776  1.1166  0.3322
  878MOL0     C18456   2.061   0.747   1.463 -0.1122 -0.0190 -0.1822
  878MOL0     C18457   2.116   0.636   1.376 -1.0112  0.0248  0.3318
  878MOL0     C18458   2.253   0.591   1.422 -0.0044 -0.7379 -0.1558
  878MOL0     C18459   2.355   0.697   1.396 -0.2107  0.1832 -0.7735
  878MOL0     C18460   2.448   0.763   1.354  0.3551  0.2341 -0.6802
  878MOL0     C18461   1.676   1.029   1.609  0.2905  0.4188  0.5191
  878MOL0     C18462   1.545   1.071   1.606  0.2642  0.0127  0.5903
  878MOL0     H18463   1.115   1.175   1.843  1.6681  0.9771 -0.0223
  878MOL0     H18464   0.898   1.292   1.823  1.0865 -0.9748  0.3820
  878MOL0     H18465   0.678   1.193   1.627 -1.3454  0.5209 -1.3310
  878MOL0     H18466   0.655   1.302   1.761  2.6648 -1.0581  0.2268
  878MOL0     H18467   0.525   1.327   1.478 -2.1575  2.2039  0.3077
  878MOL0     H18468   0.442   1.277   1.623  0.4459 -0.7549  2.7174
  878MOL0     H18469   0.457   1.468   1.737 -0.7257 -0.3126 -0.9169
  878MOL0     H18470   0.567   1.552   1.623  4.6073 -2.7926  2.1111
  878MOL0     H18471   0.408   1.528   1.441 -1.0990  1.4728 -0.4823
  878MOL0     H18472   0.287   1.444   1.540 -1.1740  2.4597  0.4132
  878MOL0     H18473   0.381   1.707   1.606 -0.3858  0.4716 -0.3215
  878MOL0     H18474   0.241   1.683   1.501  3.9901  0.7495 -1.8983
  878MOL0     H18475   0.132   1.552   1.695  1.2674 -0.0634 -0.1242
  878MOL0     H18476   0.265   1.605   1.799  0.2866  1.3418 -0.4881
  878MOL0     H18477   0.202   1.834   1.726 -0.3221  0.0258  1.3671
  878MOL0     H18478   0.048   1.776   1.651 -1.2095 -0.1555  0.9065
  878MOL0     H18479   0.002   1.859   1.894  2.0821  1.0720  1.8025
  878MOL0     H18480   0.126   1.760   1.953  1.2625 -2.3332 -0.1823
  878MOL0     H18481  -0.166   1.643   1.714 -1.3331 -0.0626  0.4957
  878MOL0     H18482  -0.333   1.475   1.713 -1.8732  0.0085  1.2330
  878MOL0     H18483  -0.294   1.326   1.823  0.8656  0.5516  1.4356
  878MOL0     H18484  -0.458   1.581   1.850  2.6653 -0.2657 -0.0391
  878MOL0     H18485  -0.440   1.467   1.987 -2.7910 -3.0195  0.2655
  878MOL0     H18486  -0.517   1.292   1.861  1.7040  1.1596  1.4806
  878MOL0     H18487  -0.544   1.383   1.713 -1.2971  2.4012 -0.2184
  878MOL0     H18488  -0.690   1.472   1.969 -4.0089  0.5436 -0.5848
  878MOL0     H18489  -0.759   1.360   1.849  2.7901 -3.0758  3.0536
  878MOL0     H18490  -0.834   1.650   1.600 -1.0784 -0.8231 -0.1180
  878MOL0     H18491  -1.001   1.760   1.474 -0.6451 -1.6330 -0.7030
  878MOL0     H18492  -1.157   1.807   1.552  0.0159 -2.6710 -1.6303
  878MOL0     H18493  -1.019   1.917   1.560  0.5890 -0.2417  0.7438
  878MOL0     H18494  -1.333   1.842   2.190 -0.0867  0.5211  0.4245
  878MOL0     H18495  -1.533   1.971   2.282  0.7151  0.7620  0.3267
  878MOL0     H18496  -1.791   2.221   1.991 -1.0894 -1.0572 -0.5075
  878MOL0     H18497  -1.833   2.052   2.016  0.4196 -0.7193 -0.8326
  878MOL0     H18498  -1.872   2.278   2.220  0.8283 -1.0315  0.4137
  878MOL0     H18499  -1.983   2.264   2.085 -0.1687 -0.3433 -0.3900
  878MOL0     H18500  -1.930   2.019   2.265 -1.5682 -1.4630  0.5072
  878MOL0     H18501  -2.075   2.054   2.170 -0.0445  0.2106  2.0336
  878MOL0     H18502  -2.108   2.051   2.414 -0.1751 -0.0427  0.1859
  878MOL0     H18503  -1.989   2.182   2.418  0.0642  2.5689 -1.7097
  878MOL0     H18504  -2.142   2.327   2.296 -2.3873  2.6959  2.6168
  878MOL0     H18505  -2.219   2.270   2.440  1.4428  0.7070 -0.2665
  878MOL0     H18506  -2.273   2.107   2.169 -3.5228 -3.9120  0.6225
  878MOL0     H18507  -2.356   2.103   2.329 -0.5968  0.0218 -0.8916
  878MOL0     H18508  -2.446   2.218   2.118  0.7097  0.6916 -0.4473
  878MOL0     H18509  -2.333   2.353   2.157  0.5101  0.2055  0.8351
  878MOL0     H18510  -2.460   2.373   2.386 -1.2446 -1.0217  1.4581
  878MOL0     H18511  -2.559   2.242   2.325  0.5257 -0.8361 -1.9188
  878MOL0     H18512  -1.613   2.123   1.904  0.2390 -0.0907 -0.4921
  878MOL0     H18513  -1.414   2.022   1.811 -1.2372  2.3545  0.7386
  878MOL0     H18514  -1.069   1.695   2.027  1.1923  0.7468  0.4212
  878MOL0     H18515  -0.869   1.564   2.014 -2.9140  0.2653  1.8412
  878MOL0     H18516   0.916   1.314   1.401  0.5223 -0.2865 -0.8982
  878MOL0     H18517   1.169   1.222   1.429 -1.2890 -0.6910 -0.9773
  878MOL0     H18518   1.415   0.829   1.393  0.6210 -1.8147  1.4891
  878MOL0     H18519   1.654   0.763   1.398  2.4747  2.1274 -1.9399
  878MOL0     H18520   1.860   0.684   1.461  1.9208 -0.5435 -1.7433
  878MOL0     H18521   1.891   0.815   1.341 -0.3735  3.7855  1.1952
  878MOL0     H18522   2.065   0.710   1.566  2.7849 -0.0278 -0.2268
  878MOL0     H18523   2.117   0.839   1.444  1.9247 -1.1414  0.1216
  878MOL0     H18524   2.123   0.669   1.273 -0.5612 -0.0265  0.3432
  878MOL0     H18525   2.053   0.546   1.375 -1.2090  0.1526 -1.3078
  878MOL0     H18526   2.294   0.495   1.388  2.9957 -0.2773  1.8080
  878MOL0     H18527   2.236   0.581   1.530  0.7948  0.7688  0.1216
  878MOL0     H18528   2.541   0.812   1.334 -0.2593 -0.1441 -5.9613
  878MOL0     H18529   1.748   1.095   1.655 -1.2230  2.5868 -0.0248
  878MOL0     H18530   1.516   1.159   1.662 -1.6103  0.1710 -0.5457
  879MOL0     O18531  10.213  10.521   8.828 -0.2890 -0.4331 -0.7488
  879MOL0     C18532  10.239  10.546   8.707  0.8708 -0.3249 -0.6317
  879MOL0     O18533  10.135  10.566   8.613 -0.2981  0.1118  0.2211
  879MOL0     C18534  10.004  10.545   8.643  0.5939 -0.2417 -0.7234
  879MOL0     C18535   9.910  10.637   8.589  0.1438 -0.4762 -0.1797
  879MOL0     C18536   9.770  10.618   8.613  0.3774  0.0207  0.2548
  879MOL0     C18537   9.725  10.504   8.670 -0.3042 -0.0630  0.5969
  879MOL0     O18538   9.594  10.482   8.703  0.1666  0.0977 -0.2182
  879MOL0     C18539   9.487  10.573   8.652 -0.2789  0.1648 -0.3034
  879MOL0     C18540   9.368  10.483   8.633  0.3601  0.6548  0.3551
  879MOL0     C18541   9.230  10.556   8.617  0.1870 -0.7598 -0.4631
  879MOL0     C18542   9.123  10.461   8.636 -0.2038  0.0790  0.1631
  879MOL0     C18543   9.002  10.528   8.696 -0.2586  0.4269  0.3455
  879MOL0     C18544   8.868  10.472   8.642 -0.8410  0.2065  0.1492
  879MOL0     C18545   8.842  10.317   8.672 -0.9751 -0.0672 -0.3792
  879MOL0     C18546   8.845  10.277   8.817  0.1230  1.0181 -0.3869
  879MOL0     N18547   8.765  10.153   8.833  0.0204 -0.2327  0.5368
  879MOL0     C18548   8.805  10.033   8.777  0.5475 -0.6040 -0.7771
  879MOL0     C18549   8.711   9.940   8.805 -0.2474  0.3302  0.4681
  879MOL0     C18550   8.735   9.791   8.801  0.0893  0.4583 -0.0872
  879MOL0     C18551   8.610   9.710   8.767  0.2854 -1.2862 -0.5551
  879MOL0     C18552   8.527   9.687   8.896  0.3277 -0.2438 -0.3868
  879MOL0     C18553   8.589   9.593   8.996  0.6542  0.0905 -0.1469
  879MOL0     O18554   8.498   9.590   9.108 -0.0602  0.3521 -0.7373
  879MOL0     C18555   8.378   9.523   9.107 -0.0515  0.1010 -1.4126
  879MOL0     C18556   8.357   9.393   9.083  0.3689 -0.2483  0.5696
  879MOL0     C18557   8.234   9.332   9.084 -0.1985 -0.3219  0.5543
  879MOL0     C18558   8.239   9.177   9.068  0.5194 -1.4050 -0.1467
  879MOL0     C18559   8.126   9.416   9.120 -0.3412 -0.1831 -0.2992
  879MOL0     C18560   7.987   9.355   9.148 -0.1488 -0.2373 -0.2264
  879MOL0     O18561   7.904   9.433   9.214 -0.1253 -0.4485  0.1561
  879MOL0     C18562   7.775   9.382   9.226  1.3268  0.2164  0.4938
  879MOL0     C18563   7.732   9.334   9.352  0.2829 -0.1941  0.5339
  879MOL0     C18564   7.606   9.267   9.371 -0.2255  0.2911  0.3456
  879MOL0     C18565   7.529   9.255   9.250 -0.9652 -0.1071  0.3707
  879MOL0     O18566   7.404   9.209   9.270  0.5203 -0.5891  0.0823
  879MOL0     C18567   7.334   9.149   9.158  0.8263 -0.1552 -0.5797
  879MOL0     C18568   7.241   9.038   9.216  0.3127 -0.5364  0.4707
  879MOL0     C18569   7.099   9.098   9.246  0.3646 -0.1341  0.4797
  879MOL0     C18570   7.031   8.992   9.330  0.9544 -0.2529  0.3706
  879MOL0     C18571   6.876   9.021   9.356 -0.0375 -0.2147  0.0062
  879MOL0     C18572   6.809   8.897   9.412  0.6118 -0.5698  0.3015
  879MOL0     C18573   6.670   8.916   9.461  0.2825 -0.4932  0.4116
  879MOL0     C18574   6.582   8.794   9.419  0.2119 -0.7540 -0.0822
  879MOL0    Cl18575   6.448   8.794   9.529  0.1325  0.1768  0.2625
  879MOL0     C18576   7.568   9.313   9.126  0.4702 -0.0517  0.0464
  879MOL0     C18577   7.693   9.369   9.111 -0.0837  0.0311  0.5832
  879MOL0     O18578   7.958   9.248   9.105 -0.0557  0.5916  0.8830
  879MOL0     C18579   8.139   9.549   9.140  0.5240  0.5978 -0.2232
  879MOL0     C18580   8.263   9.602   9.130 -0.6289 -0.1139 -0.4697
  879MOL0     N18581   8.604  10.011   8.852 -0.6648  0.0148  0.7624
  879MOL0     N18582   8.637  10.135   8.865  0.3371 -0.5392  0.3595
  879MOL0     C18583   9.815  10.410   8.711 -0.1230  0.5374  1.7977
  879MOL0     C18584   9.952  10.435   8.708 -1.0601  0.0907  0.4111
  879MOL0     C18585  10.372  10.525   8.648  0.2881  0.0937  0.0322
  879MOL0     C18586  10.390  10.527   8.509  0.0065 -0.4272 -0.3822
  879MOL0     C18587  10.520  10.519   8.454 -0.1042  0.3624 -0.5100
  879MOL0     C18588  10.632  10.504   8.532 -0.0653 -0.6810  0.7879
  879MOL0     O18589  10.757  10.497   8.466 -0.5041 -0.4061  0.3856
  879MOL0     C18590  10.880  10.487   8.547 -0.3386 -0.8017 -0.3727
  879MOL0     C18591  10.998  10.529   8.465  0.3871 -0.0764  0.0439
  879MOL0     C18592  11.004  10.682   8.423  0.7104 -0.2179  0.4179
  879MOL0     C18593  10.971  10.712   8.282  0.7190  0.2891 -0.1200
  879MOL0     C18594  11.062  10.662   8.178  0.1586 -0.5842 -1.1767
  879MOL0     C18595  11.145  10.633   8.092 -0.0535  0.6693 -0.6638
  879MOL0     C18596  10.611  10.491   8.672 -0.3432 -0.3694 -0.0319
  879MOL0     C18597  10.484  10.504   8.731  0.3019  0.0095  0.0764
  879MOL0     H18598   9.946  10.718   8.526  1.2400  0.6467  1.7660
  879MOL0     H18599   9.697  10.687   8.572  1.5394 -0.1054 -2.1719
  879MOL0     H18600   9.470  10.660   8.716 -1.6003  2.3648 -3.3929
  879MOL0     H18601   9.518  10.611   8.555  0.5140 -0.6008 -0.3673
  879MOL0     H18602   9.379  10.421   8.543  0.4609  1.2306 -0.0359
  879MOL0     H18603   9.363  10.407   8.712 -1.8758  0.1799 -0.1689
  879MOL0     H18604   9.228  10.630   8.698 -0.1006 -1.9213  0.6064
  879MOL0     H18605   9.218  10.608   8.521  1.2926  1.4099  0.4906
  879MOL0     H18606   9.102  10.409   8.543 -0.4483  0.8633 -0.2251
  879MOL0     H18607   9.150  10.380   8.704  1.0646  0.2636 -0.0869
  879MOL0     H18608   9.006  10.530   8.805 -0.9870 -3.8782  0.6016
  879MOL0     H18609   9.012  10.633   8.667 -1.7946  0.6591  0.5642
  879MOL0     H18610   8.787  10.527   8.691  0.6482  2.5374  0.1187
  879MOL0     H18611   8.865  10.491   8.534 -1.8427 -1.2942 -0.1237
  879MOL0     H18612   8.741  10.290   8.641 -0.9506 -0.3339 -0.2259
  879MOL0     H18613   8.910  10.242   8.631 -1.7997 -0.4156 -1.1236
  879MOL0     H18614   8.795  10.350   8.882 -1.8286 -0.7953  0.2770
  879MOL0     H18615   8.942  10.278   8.867 -0.3545  0.5553  0.5624
  879MOL0     H18616   8.909  10.014   8.753  0.5461 -1.8984  0.1085
  879MOL0     H18617   8.812   9.762   8.729  1.6046  1.4840  1.0377
  879MOL0     H18618   8.771   9.769   8.902 -0.9403 -0.8402  0.0093
  879MOL0     H18619   8.646   9.612   8.737 -1.6802 -1.7635 -1.4505
  879MOL0     H18620   8.554   9.758   8.687 -0.0284 -1.5400 -0.4862
  879MOL0     H18621   8.427   9.649   8.877  0.6412 -1.4243  0.2357
  879MOL0     H18622   8.510   9.779   8.952 -1.5260 -1.3138  0.9070
  879MOL0     H18623   8.685   9.632   9.033 -0.0733  0.8569  1.0016
  879MOL0     H18624   8.583   9.496   8.946 -1.5486 -0.0015  0.2227
  879MOL0     H18625   8.444   9.333   9.057 -0.0343 -1.8439  2.6424
  879MOL0     H18626   8.323   9.145   9.006  0.6685 -0.8305 -0.2526
  879MOL0     H18627   8.233   9.134   9.168  0.3147 -0.9014  0.0618
  879MOL0     H18628   8.146   9.138   9.026 -0.0203  0.3220 -0.6354
  879MOL0     H18629   7.790   9.349   9.443  2.0434 -2.0150 -0.2008
  879MOL0     H18630   7.560   9.247   9.468 -0.1143  0.4460  0.4306
  879MOL0     H18631   7.275   9.215   9.095  1.4350 -1.8383 -3.0445
  879MOL0     H18632   7.400   9.107   9.082  0.4078  0.1799 -1.1332
  879MOL0     H18633   7.230   8.968   9.132  0.0046 -0.6387  0.5978
  879MOL0     H18634   7.285   8.980   9.298 -1.0387 -0.9893  0.8978
  879MOL0     H18635   7.048   9.119   9.152  0.9936  0.3686  0.2396
  879MOL0     H18636   7.092   9.194   9.298  1.2093 -0.8883  2.0461
  879MOL0     H18637   7.043   8.902   9.269  0.7663  1.1533 -1.8130
  879MOL0     H18638   7.071   8.989   9.432  0.4261 -0.4062  0.5777
  879MOL0     H18639   6.818   9.054   9.270  0.4865  0.9726  0.0900
  879MOL0     H18640   6.869   9.093   9.438 -0.6181  0.8845 -0.9871
  879MOL0     H18641   6.804   8.815   9.340  1.2676 -0.3631  0.0184
  879MOL0     H18642   6.871   8.866   9.496 -0.1808 -1.6624  0.5115
  879MOL0     H18643   6.628   9.006   9.415  1.3444 -1.4214 -2.5761
  879MOL0     H18644   6.677   8.941   9.567 -1.4935 -0.7715  0.6257
  879MOL0     H18645   6.640   8.703   9.435  1.5319  0.5819  4.5240
  879MOL0     H18646   6.550   8.807   9.316 -1.0881  0.7985  0.4656
  879MOL0     H18647   7.503   9.315   9.039  1.1267  3.0909 -0.4878
  879MOL0     H18648   7.732   9.420   9.024 -1.3404 -0.4936 -0.3210
  879MOL0     H18649   8.053   9.612   9.158  1.9202  2.4531  0.2952
  879MOL0     H18650   8.281   9.708   9.145 -1.0052 -0.1090 -0.0223
  879MOL0     H18651   9.781  10.319   8.758 -1.0306 -0.2145 -0.2051
  879MOL0     H18652  10.031  10.371   8.746  1.3593  2.6884  0.0847
  879MOL0     H18653  10.311  10.544   8.436 -1.0406 -1.9521  0.3526
  879MOL0     H18654  10.543  10.526   8.348  1.3358 -1.8423 -0.3877
  879MOL0     H18655  10.875  10.549   8.636  0.9024 -1.9766  0.5603
  879MOL0     H18656  10.891  10.380   8.568 -1.1326 -0.4802  1.9109
  879MOL0     H18657  11.005  10.466   8.375 -0.8520  0.4002 -0.4127
  879MOL0     H18658  11.074  10.511   8.541 -0.8708 -1.1469  1.0889
  879MOL0     H18659  11.105  10.721   8.440 -0.0824  1.4042  1.7681
  879MOL0     H18660  10.936  10.736   8.490  1.6163 -0.7716  1.8196
  879MOL0     H18661  10.955  10.820   8.278 -2.3098  0.1079  2.6811
  879MOL0     H18662  10.870  10.672   8.273  1.0318 -0.6713  0.4161
  879MOL0     H18663  11.217  10.606   8.017  0.0585 -0.0178 -0.3237
  879MOL0     H18664  10.703  10.478   8.728 -0.3060  2.6144  0.7383
  879MOL0     H18665  10.483  10.499   8.840  0.1015  1.3088  0.1456
  880MOL0     O18666   8.216   0.581   0.396 -0.0561  0.0514  0.0854
  880MOL0     C18667   8.225   0.534   0.282  0.3148  0.2216 -0.1557
  880MOL0     O18668   8.149   0.578   0.171  1.1310  0.0652 -0.4006
  880MOL0     C18669   8.044   0.668   0.199  0.4217 -0.8021 -0.3070
  880MOL0     C18670   8.072   0.808   0.159  0.1904  0.2123  1.3365
  880MOL0     C18671   7.966   0.901   0.176  0.2345 -0.4320  0.8705
  880MOL0     C18672   7.849   0.870   0.232  0.1449 -0.0615  0.0461
  880MOL0     O18673   7.750   0.972   0.240 -0.4268 -0.0050 -0.3312
  880MOL0     C18674   7.610   0.948   0.243 -0.5185 -0.1442  0.7613
  880MOL0     C18675   7.576   0.889   0.105  0.0054 -0.8754  0.5467
  880MOL0     C18676   7.422   0.874   0.083 -0.6988  1.0436  0.1877
  880MOL0     C18677   7.403   0.787  -0.039 -0.3347  0.1524 -0.7000
  880MOL0     C18678   7.268   0.717  -0.026  0.0457  0.8963 -0.2074
  880MOL0     C18679   7.153   0.807  -0.066  0.1861  0.1481 -0.1868
  880MOL0     C18680   7.027   0.728  -0.073  0.9566 -0.2387  0.5398
  880MOL0     C18681   6.902   0.821  -0.072 -0.2679  1.0358 -0.6119
  880MOL0     N18682   6.782   0.742  -0.089 -0.2169  0.2623  0.2703
  880MOL0     C18683   6.753   0.613  -0.050 -0.2265  0.1365 -0.8828
  880MOL0     C18684   6.615   0.611  -0.066  0.4248  1.0003  0.0886
  880MOL0     C18685   6.538   0.493  -0.015  0.5829 -0.3264 -0.0075
  880MOL0     C18686   6.471   0.553   0.117  0.5381  0.8104 -0.8084
  880MOL0     C18687   6.371   0.448   0.176  0.0083 -0.3495 -0.2679
  880MOL0     C18688   6.286   0.517   0.282  0.7475 -0.4178  0.0153
  880MOL0     O18689   6.261   0.403   0.367 -0.0653 -0.3776  0.0140
  880MOL0     C18690   6.155   0.396   0.448 -0.1748  0.0021 -0.4588
  880MOL0     C18691   6.105   0.270   0.486  0.5563  0.4878 -0.2726
  880MOL0     C18692   5.996   0.257   0.577 -0.5775 -0.1020 -0.3496
  880MOL0     C18693   5.945   0.117   0.606 -0.3511 -0.3627  0.2124
  880MOL0     C18694   5.942   0.376   0.633 -0.5322  0.0853 -0.4711
  880MOL0     C18695   5.826   0.366   0.721  0.1115 -0.0149 -0.1688
  880MOL0     O18696   5.750   0.480   0.717  0.6815  0.1281 -0.0047
  880MOL0     C18697   5.665   0.534   0.807 -0.3394  0.7336  0.1575
  880MOL0     C18698   5.590   0.639   0.762 -0.1336 -0.0436  0.7702
  880MOL0     C18699   5.513   0.725   0.844  0.7288 -0.4839  0.2276
  880MOL0     C18700   5.515   0.696   0.982  1.0941 -0.5031 -0.4865
  880MOL0     O18701   5.446   0.758   1.088  0.6032  0.0087  0.9362
  880MOL0     C18702   5.390   0.887   1.063 -0.5755 -0.1588  0.0673
  880MOL0     C18703   5.306   0.932   1.188 -0.4586  0.2662  0.8476
  880MOL0     C18704   5.240   1.071   1.170 -0.0146 -0.1762 -0.1183
  880MOL0     C18705   5.160   1.104   1.298 -0.0189 -0.1118 -0.1436
  880MOL0     C18706   5.012   1.092   1.264  1.1625  0.1555 -0.8728
  880MOL0     C18707   4.918   1.141   1.376 -1.0008 -0.2880  0.2085
  880MOL0     C18708   4.770   1.100   1.363 -0.2039 -0.1685 -0.2293
  880MOL0     C18709   4.670   1.170   1.451 -0.0176 -1.1378 -1.0597
  880MOL0    Cl18710   4.506   1.099   1.416  0.1653  0.1434 -0.4355
  880MOL0     C18711   5.579   0.577   1.026  0.3513  0.4305  0.2524
  880MOL0     C18712   5.655   0.495   0.938  1.1347 -0.0518 -0.2650
  880MOL0     O18713   5.807   0.270   0.797  0.4833  0.0925  0.4963
  880MOL0     C18714   6.003   0.500   0.602  0.9502  0.0291 -0.7870
  880MOL0     C18715   6.100   0.504   0.507  0.0450 -0.1521  0.4673
  880MOL0     N18716   6.568   0.719  -0.130  0.1122  0.2423  0.5749
  880MOL0     N18717   6.669   0.801  -0.135 -0.0739 -0.6813  0.2946
  880MOL0     C18718   7.821   0.737   0.274  0.1443  0.1161  0.8087
  880MOL0     C18719   7.917   0.637   0.255 -0.3752  0.3396 -0.8118
  880MOL0     C18720   8.325   0.419   0.271  0.7611 -0.2498 -0.4341
  880MOL0     C18721   8.379   0.353   0.385 -0.2312  1.2880 -0.1004
  880MOL0     C18722   8.471   0.245   0.366 -0.6030  0.2600 -0.2663
  880MOL0     C18723   8.490   0.189   0.237 -0.3222  0.6704 -1.0511
  880MOL0     O18724   8.559   0.071   0.212 -0.3535 -0.0449 -0.3865
  880MOL0     C18725   8.609   0.005   0.324 -0.3572 -0.5226 -0.5188
  880MOL0     C18726   8.662  -0.135   0.285  0.4229 -0.5089  0.9566
  880MOL0     C18727   8.754  -0.156   0.162  0.6852  0.2127  0.2560
  880MOL0     C18728   8.887  -0.075   0.167 -0.6616 -0.2426 -0.4269
  880MOL0     C18729   8.980  -0.155   0.255  0.7337 -0.2107 -0.8206
  880MOL0     C18730   9.049  -0.216   0.334 -0.3330  0.2736  0.1171
  880MOL0     C18731   8.435   0.260   0.128 -0.4664  0.4313  0.3118
  880MOL0     C18732   8.360   0.371   0.146  0.3510 -0.5485  0.6713
  880MOL0     H18733   8.170   0.832   0.118  1.0839 -3.0758  1.2257
  880MOL0     H18734   7.980   1.006   0.152  0.4006 -0.5523  0.4221
  880MOL0     H18735   7.583   0.875   0.320 -0.9526 -2.4717 -1.4744
  880MOL0     H18736   7.555   1.042   0.243  0.0458  0.4627 -4.5708
  880MOL0     H18737   7.615   0.946   0.020  1.4151 -0.9099  1.1349
  880MOL0     H18738   7.616   0.787   0.100 -0.4349 -1.1645  2.2531
  880MOL0     H18739   7.387   0.822   0.172 -0.1384 -2.1234 -1.2858
  880MOL0     H18740   7.362   0.964   0.068 -2.1044  0.0311 -0.5211
  880MOL0     H18741   7.395   0.847  -0.130 -0.3338 -0.1913 -0.9306
  880MOL0     H18742   7.483   0.712  -0.043  0.0174 -0.4718  6.4088
  880MOL0     H18743   7.267   0.631  -0.094  1.2864 -0.0214  0.8798
  880MOL0     H18744   7.255   0.670   0.072  2.3430 -0.2570 -0.3665
  880MOL0     H18745   7.147   0.888   0.008  1.8624 -1.4209  1.7823
  880MOL0     H18746   7.163   0.858  -0.162  1.7854  2.4902  1.1061
  880MOL0     H18747   7.032   0.654  -0.154  0.0439 -0.0791  0.3272
  880MOL0     H18748   7.014   0.666   0.017 -1.1551 -0.7136 -0.0352
  880MOL0     H18749   6.901   0.892  -0.155  0.1796  1.2777 -0.4140
  880MOL0     H18750   6.906   0.872   0.025 -0.4397  2.0690 -1.1343
  880MOL0     H18751   6.826   0.549  -0.002  0.1558  1.9954  1.1699
  880MOL0     H18752   6.467   0.462  -0.093  0.8842 -1.2924  0.0831
  880MOL0     H18753   6.596   0.408   0.023 -2.3040 -2.7830 -0.6405
  880MOL0     H18754   6.417   0.644   0.089  1.1989  2.3107  2.3360
  880MOL0     H18755   6.545   0.576   0.194 -0.1881 -2.0030  0.8509
  880MOL0     H18756   6.430   0.364   0.213  1.9515 -0.2544 -2.9121
  880MOL0     H18757   6.303   0.410   0.100 -0.4385 -1.7752  0.7986
  880MOL0     H18758   6.195   0.558   0.238  1.7435 -0.4896 -2.2467
  880MOL0     H18759   6.340   0.596   0.334 -0.9364  1.9995 -1.7147
  880MOL0     H18760   6.148   0.179   0.445 -0.8260 -1.4778  2.3050
  880MOL0     H18761   5.978   0.080   0.703  0.2370 -3.0006 -0.8802
  880MOL0     H18762   5.836   0.109   0.601 -0.3093 -1.3721  0.6248
  880MOL0     H18763   5.978   0.045   0.530  0.7183 -0.4704  0.7678
  880MOL0     H18764   5.602   0.681   0.663 -0.5134  2.7669  1.8053
  880MOL0     H18765   5.461   0.810   0.799  0.4854 -0.6848  0.1295
  880MOL0     H18766   5.472   0.952   1.034 -1.1128  0.4932  0.0005
  880MOL0     H18767   5.326   0.870   0.976 -0.7485 -0.7037  0.2965
  880MOL0     H18768   5.244   0.846   1.218  3.0523 -1.6452  3.3346
  880MOL0     H18769   5.370   0.927   1.276 -2.5416 -0.5329  2.3912
  880MOL0     H18770   5.173   1.066   1.083  1.1006 -1.8155 -0.9279
  880MOL0     H18771   5.319   1.140   1.137 -0.6208 -0.2530 -1.8780
  880MOL0     H18772   5.180   1.055   1.394 -1.3926  4.4697  2.7843
  880MOL0     H18773   5.173   1.211   1.319  0.4455  0.4224 -2.8525
  880MOL0     H18774   4.999   0.986   1.240  2.1183 -0.7717  2.2624
  880MOL0     H18775   4.985   1.151   1.176  0.6298  3.8965  1.5677
  880MOL0     H18776   4.953   1.095   1.469 -0.5872  0.0502  0.2206
  880MOL0     H18777   4.926   1.250   1.377  1.3482 -0.3747 -1.0042
  880MOL0     H18778   4.753   0.995   1.385 -2.1282  0.1659  0.0245
  880MOL0     H18779   4.748   1.117   1.258 -0.5658  1.2682  0.0518
  880MOL0     H18780   4.670   1.276   1.424  3.1405 -0.5274  0.8304
  880MOL0     H18781   4.704   1.162   1.555  3.3321 -1.5195 -2.0619
  880MOL0     H18782   5.575   0.553   1.132 -1.1381 -0.9865 -0.0892
  880MOL0     H18783   5.706   0.408   0.978 -0.7571 -0.9445  0.2999
  880MOL0     H18784   5.947   0.589   0.627 -0.5590 -1.1349  0.1190
  880MOL0     H18785   6.146   0.602   0.496 -3.0085  1.2951 -0.5351
  880MOL0     H18786   7.732   0.693   0.319  0.3587 -1.0100  0.1914
  880MOL0     H18787   7.910   0.532   0.284 -1.1765  0.7318  0.4542
  880MOL0     H18788   8.346   0.389   0.482 -0.9633  2.7744 -0.8618
  880MOL0     H18789   8.522   0.206   0.453 -0.4207 -0.4128 -0.6716
  880MOL0     H18790   8.693   0.067   0.357  0.0309  0.2312 -2.7564
  880MOL0     H18791   8.533   0.001   0.402 -0.5636  1.5627 -0.5426
  880MOL0     H18792   8.569  -0.191   0.266 -1.3567  3.2928 -3.1785
  880MOL0     H18793   8.711  -0.182   0.370  1.2108 -0.6205  0.4496
  880MOL0     H18794   8.703  -0.123   0.071  2.8325 -1.3095 -1.5902
  880MOL0     H18795   8.779  -0.261   0.147 -1.9667 -0.1967 -2.1866
  880MOL0     H18796   8.870   0.023   0.213  1.9758  0.1365 -0.1476
  880MOL0     H18797   8.933  -0.073   0.068 -1.1821 -1.5806 -0.7211
  880MOL0     H18798   9.108  -0.274   0.403  0.9956  1.9301  0.4401
  880MOL0     H18799   8.444   0.213   0.031  1.4847 -1.6550  1.4023
  880MOL0     H18800   8.321   0.419   0.056  2.4402 -0.1408 -0.0696
  881MOL0     O18801   6.196   8.449  10.042 -0.1058 -0.1748 -0.1471
  881MOL0     C18802   6.255   8.345  10.032  0.3383  0.8517 -0.1037
  881MOL0     O18803   6.186   8.225  10.015 -0.8551  0.0177 -0.0768
  881MOL0     C18804   6.048   8.234  10.012 -0.2972  0.0681 -0.4942
  881MOL0     C18805   5.982   8.245  10.132  0.6691 -0.8271 -1.0060
  881MOL0     C18806   5.842   8.235  10.126  0.2093  0.1839  0.1886
  881MOL0     C18807   5.773   8.226  10.002 -0.4755  0.5095 -0.3771
  881MOL0     O18808   5.639   8.238   9.998  0.0438  0.2706 -0.0856
  881MOL0     C18809   5.569   8.113  10.040 -0.0885 -0.2511  0.2736
  881MOL0     C18810   5.540   8.027   9.920  0.3028 -0.3067  0.2775
  881MOL0     C18811   5.481   8.100   9.790  0.0853  1.2274  0.1146
  881MOL0     C18812   5.488   8.014   9.665 -1.2615 -0.9318  0.0637
  881MOL0     C18813   5.412   8.081   9.549  0.3751  0.5079 -0.5694
  881MOL0     C18814   5.407   7.981   9.424 -0.0790 -0.1573 -0.0410
  881MOL0     C18815   5.308   8.033   9.315 -0.1925 -0.1356 -0.2031
  881MOL0     C18816   5.267   7.919   9.215  0.6367 -0.2668 -0.2126
  881MOL0     N18817   5.136   7.961   9.147 -0.1563 -0.1054 -0.2471
  881MOL0     C18818   5.115   8.050   9.045  0.5293 -0.4467 -0.2943
  881MOL0     C18819   4.985   8.031   9.009 -0.2535  0.8401  0.6526
  881MOL0     C18820   4.911   8.094   8.894 -0.7604  0.5389 -0.5609
  881MOL0     C18821   4.919   8.019   8.762 -0.3688 -0.8111  0.2766
  881MOL0     C18822   4.861   7.877   8.765 -0.1523 -0.2864 -0.1851
  881MOL0     C18823   4.849   7.826   8.615  0.1335 -0.1456  0.8051
  881MOL0     O18824   4.786   7.917   8.517  0.7383  0.1610  0.0343
  881MOL0     C18825   4.650   7.944   8.543 -0.4751  0.0491  0.5601
  881MOL0     C18826   4.567   7.872   8.622  0.4140 -0.0677  0.2022
  881MOL0     C18827   4.429   7.896   8.639  0.9426  0.1987 -0.2555
  881MOL0     C18828   4.351   7.811   8.733 -0.4798 -0.3944  0.0424
  881MOL0     C18829   4.372   8.009   8.564  0.0795 -0.3662 -0.1304
  881MOL0     C18830   4.226   8.043   8.561  0.0982 -0.4804 -0.0770
  881MOL0     O18831   4.182   8.126   8.464 -0.1908 -0.5251  0.1846
  881MOL0     C18832   4.046   8.148   8.454  0.3613 -1.0892  0.0862
  881MOL0     C18833   3.953   8.052   8.438 -0.6888 -0.5469  0.4537
  881MOL0     C18834   3.815   8.083   8.427 -0.6557  0.4992 -0.4254
  881MOL0     C18835   3.765   8.217   8.439 -0.2282  0.4479  0.1890
  881MOL0     O18836   3.627   8.235   8.427 -0.4927 -0.6629  0.3511
  881MOL0     C18837   3.581   8.368   8.387 -0.5400 -0.2142 -0.6457
  881MOL0     C18838   3.438   8.364   8.437  0.2154 -0.5730 -0.6855
  881MOL0     C18839   3.342   8.477   8.377  0.4969  0.0113  0.2949
  881MOL0     C18840   3.198   8.455   8.399 -0.2946  0.0618  0.5070
  881MOL0     C18841   3.113   8.566   8.335 -0.4848 -0.3505  0.5831
  881MOL0     C18842   2.968   8.518   8.323  0.2206 -0.6511 -0.3939
  881MOL0     C18843   2.881   8.523   8.448  0.8797 -0.1636 -0.3219
  881MOL0     C18844   2.730   8.537   8.428 -0.1286 -0.0959 -1.0653
  881MOL0    Cl18845   2.667   8.619   8.579  0.5144  0.0365 -0.4572
  881MOL0     C18846   3.860   8.317   8.461 -0.1578 -0.3858 -0.3278
  881MOL0     C18847   3.994   8.281   8.464 -0.1366 -0.8753  0.9287
  881MOL0     O18848   4.157   7.988   8.651 -0.0873 -0.3370  0.0506
  881MOL0     C18849   4.457   8.080   8.479 -0.2455 -0.0743  0.3011
  881MOL0     C18850   4.590   8.046   8.471  0.3329 -0.0974 -0.0174
  881MOL0     N18851   4.934   7.939   9.097 -0.2475 -0.3050  0.3701
  881MOL0     N18852   5.022   7.895   9.175  0.1104  0.5637 -0.4895
  881MOL0     C18853   5.848   8.216   9.880  0.3901 -1.1713  0.2179
  881MOL0     C18854   5.984   8.219   9.889  0.0538  0.8439  1.3654
  881MOL0     C18855   6.406   8.348  10.037  0.1410  0.0064 -0.2370
  881MOL0     C18856   6.460   8.444  10.129  0.2223  0.9441 -0.0630
  881MOL0     C18857   6.597   8.435  10.150  0.6240 -0.7883  0.0668
  881MOL0     C18858   6.679   8.339  10.088 -0.3179 -0.0147 -0.1307
  881MOL0     O18859   6.817   8.335  10.111 -0.2587  0.4949  0.2240
  881MOL0     C18860   6.885   8.456  10.141 -0.6999  0.8743 -1.2415
  881MOL0     C18861   7.035   8.440  10.124 -0.1970  0.2941 -0.1846
  881MOL0     C18862   7.103   8.344  10.226  0.5948 -0.3942  1.2777
  881MOL0     C18863   7.255   8.334  10.213  0.3058  0.4989 -0.8014
  881MOL0     C18864   7.308   8.308  10.079 -0.6127 -0.6667 -0.4386
  881MOL0     C18865   7.354   8.276   9.973 -1.0145  0.9312 -1.2352
  881MOL0     C18866   6.624   8.254   9.994  0.0102  0.1389 -0.8057
  881MOL0     C18867   6.488   8.258   9.969  0.1158  0.7168  0.4059
  881MOL0     H18868   6.029   8.247  10.230 -1.1100  0.8161 -0.0987
  881MOL0     H18869   5.788   8.253  10.218  1.2007 -0.9119  1.0194
  881MOL0     H18870   5.629   8.064  10.117  0.1828  1.7244  1.3804
  881MOL0     H18871   5.466   8.135  10.067 -0.1888  2.0133 -1.6605
  881MOL0     H18872   5.624   7.965   9.888 -0.4376 -1.5104  0.6187
  881MOL0     H18873   5.467   7.953   9.954  0.8288  0.0167  2.2500
  881MOL0     H18874   5.377   8.119   9.816  0.3546  3.1775 -0.1381
  881MOL0     H18875   5.526   8.200   9.785 -2.0393  2.3359  1.9276
  881MOL0     H18876   5.592   8.002   9.635 -1.1229  0.1176  0.1004
  881MOL0     H18877   5.444   7.916   9.686 -0.1431 -1.4264  0.2061
  881MOL0     H18878   5.315   8.111   9.590  1.0754  1.6811  0.3059
  881MOL0     H18879   5.453   8.178   9.518  3.1985 -0.5846 -0.4977
  881MOL0     H18880   5.511   7.980   9.389  0.1337 -0.4049  0.6008
  881MOL0     H18881   5.378   7.878   9.449  0.6647 -0.0299  1.4555
  881MOL0     H18882   5.225   8.086   9.363  1.2078  1.4859  0.5543
  881MOL0     H18883   5.349   8.111   9.249 -2.1284  1.2758  0.1712
  881MOL0     H18884   5.245   7.833   9.278 -0.1640  2.0956  3.0204
  881MOL0     H18885   5.343   7.899   9.139 -0.4434  1.3681 -1.8256
  881MOL0     H18886   5.187   8.120   9.006  0.7164  0.3552  1.4026
  881MOL0     H18887   4.808   8.108   8.930 -0.4122  1.4268  0.1321
  881MOL0     H18888   4.945   8.197   8.878 -1.1752  0.6446 -0.7790
  881MOL0     H18889   5.023   8.014   8.728 -0.5484  0.7696 -0.6122
  881MOL0     H18890   4.862   8.081   8.691  0.0694  1.8847  2.1188
  881MOL0     H18891   4.767   7.878   8.821 -0.4327  0.4165 -0.6539
  881MOL0     H18892   4.926   7.805   8.816 -0.9344  0.3149  1.7775
  881MOL0     H18893   4.797   7.730   8.621 -0.5032  0.2559  2.4749
  881MOL0     H18894   4.943   7.794   8.570 -1.5000 -2.6862 -1.0132
  881MOL0     H18895   4.596   7.779   8.670 -0.0671 -0.7402 -0.7859
  881MOL0     H18896   4.263   7.763   8.689  1.1503 -3.8719  0.1788
  881MOL0     H18897   4.415   7.737   8.783  0.7695  0.5257 -0.1548
  881MOL0     H18898   4.320   7.878   8.813 -1.7772  0.4330 -1.1194
  881MOL0     H18899   3.986   7.948   8.435 -2.1121 -1.1126  2.2256
  881MOL0     H18900   3.740   8.006   8.410 -0.9584  0.7142 -0.0656
  881MOL0     H18901   3.635   8.455   8.423 -1.2324  0.0448 -0.2052
  881MOL0     H18902   3.572   8.380   8.278  1.7615  2.3784 -0.6331
  881MOL0     H18903   3.391   8.267   8.420  1.6807 -1.7096  1.3417
  881MOL0     H18904   3.441   8.387   8.544  1.1080  0.9613 -1.0114
  881MOL0     H18905   3.357   8.474   8.269  1.7048  1.0193  0.4101
  881MOL0     H18906   3.375   8.571   8.422  1.0219  0.2589 -0.5885
  881MOL0     H18907   3.180   8.362   8.345 -0.4428 -0.3178  1.1942
  881MOL0     H18908   3.177   8.454   8.507  1.4600 -0.2086  0.8700
  881MOL0     H18909   3.156   8.587   8.237  0.3639 -0.1071  0.9951
  881MOL0     H18910   3.112   8.656   8.398  1.0855  2.0898 -2.5672
  881MOL0     H18911   2.920   8.584   8.251  0.8866 -1.7814 -1.9305
  881MOL0     H18912   2.979   8.414   8.292  0.2675 -0.3730 -1.3567
  881MOL0     H18913   2.917   8.604   8.511 -0.6013  0.8767 -0.7615
  881MOL0     H18914   2.881   8.426   8.499  0.3925  0.5281  1.0554
  881MOL0     H18915   2.687   8.437   8.423  1.1555 -0.9512  2.3698
  881MOL0     H18916   2.717   8.604   8.342  2.0487  1.6531 -0.1368
  881MOL0     H18917   3.843   8.423   8.478  0.9732 -0.3871  0.9983
  881MOL0     H18918   4.063   8.361   8.487 -1.7750 -0.1046  3.5971
  881MOL0     H18919   4.411   8.157   8.418  0.4262 -0.7359 -1.0768
  881MOL0     H18920   4.659   8.113   8.420 -0.1318  0.2364 -0.2177
  881MOL0     H18921   5.795   8.201   9.787 -1.1784 -0.6759  0.9991
  881MOL0     H18922   6.052   8.205   9.805  2.0173 -0.6465  3.1068
  881MOL0     H18923   6.398   8.516  10.181 -1.1244 -1.8057  2.3842
  881MOL0     H18924   6.648   8.510  10.211 -1.5065 -0.2064  1.2148
  881MOL0     H18925   6.848   8.543  10.086 -2.7332 -0.2872 -1.8263
  881MOL0     H18926   6.871   8.488  10.245 -0.9489 -0.3949 -0.8666
  881MOL0     H18927   7.087   8.536  10.130  1.5607 -0.5391 -1.1507
  881MOL0     H18928   7.051   8.399  10.024 -1.6097  0.2859 -0.4185
  881MOL0     H18929   7.064   8.244  10.206  1.9893 -0.5076 -1.4882
  881MOL0     H18930   7.073   8.380  10.324  0.8490 -1.4812  1.7738
  881MOL0     H18931   7.283   8.249  10.277  1.7504 -0.3365 -2.4267
  881MOL0     H18932   7.309   8.422  10.249 -0.1197  0.5435 -0.2680
  881MOL0     H18933   7.385   8.254   9.873 -0.5717 -0.2230 -0.8678
  881MOL0     H18934   6.680   8.181   9.936 -3.0195 -1.4885 -1.9070
  881MOL0     H18935   6.451   8.190   9.892 -0.8833  0.9500  0.6731
  882MOL0     O18936  11.237   6.680   5.678  0.5443 -0.5025  0.7414
  882MOL0     C18937  11.282   6.586   5.739 -0.6402 -0.4688  0.0099
  882MOL0     O18938  11.220   6.527   5.845 -0.6156  0.2404 -0.2267
  882MOL0     C18939  11.091   6.545   5.881 -0.9100  0.8336 -0.8122
  882MOL0     C18940  10.991   6.573   5.791  0.2411  0.5028  0.1337
  882MOL0     C18941  10.864   6.614   5.837  0.6109  0.6756 -0.0000
  882MOL0     C18942  10.832   6.605   5.970 -0.0777  0.2971 -0.3075
  882MOL0     O18943  10.700   6.633   5.986 -0.1733  0.2820 -0.1942
  882MOL0     C18944  10.656   6.615   6.119 -0.2035 -0.2450 -0.3609
  882MOL0     C18945  10.508   6.660   6.133  0.5493 -0.0889 -0.4182
  882MOL0     C18946  10.483   6.792   6.200  0.3458 -0.2445 -0.2185
  882MOL0     C18947  10.335   6.815   6.194 -0.6419  0.2995 -0.2198
  882MOL0     C18948  10.266   6.766   6.321 -0.2941  0.5780 -1.2171
  882MOL0     C18949  10.124   6.824   6.327 -0.0932  0.2378 -0.2294
  882MOL0     C18950  10.053   6.820   6.458  0.3502 -0.6756 -0.3874
  882MOL0     C18951   9.916   6.886   6.462  0.7063  0.7850  0.2913
  882MOL0     N18952   9.829   6.809   6.373 -0.0163 -0.0983  0.3673
  882MOL0     C18953   9.762   6.865   6.271  0.3166 -0.3324  0.0372
  882MOL0     C18954   9.670   6.757   6.250 -0.4559  0.1847  0.2293
  882MOL0     C18955   9.567   6.746   6.139 -0.3101  0.0781  0.2927
  882MOL0     C18956   9.423   6.739   6.197  0.0570  0.5546 -0.4947
  882MOL0     C18957   9.317   6.713   6.089 -0.4239 -0.1572  0.0100
  882MOL0     C18958   9.173   6.699   6.142 -0.4573  1.1955 -0.2172
  882MOL0     O18959   9.164   6.601   6.244  0.5335  0.3809 -0.0475
  882MOL0     C18960   9.042   6.535   6.251  1.1439 -0.4478  0.1167
  882MOL0     C18961   8.917   6.590   6.211  0.2321 -0.1238  0.0571
  882MOL0     C18962   8.797   6.521   6.237 -0.3176 -0.3935 -0.0889
  882MOL0     C18963   8.669   6.605   6.224  0.0855  0.3184  0.6789
  882MOL0     C18964   8.804   6.384   6.288 -0.5550  0.5327  0.8960
  882MOL0     C18965   8.687   6.298   6.299 -0.1951 -0.0644  0.5503
  882MOL0     O18966   8.702   6.198   6.390 -0.0259 -0.1726 -0.2812
  882MOL0     C18967   8.602   6.105   6.407 -0.0959 -0.3960  0.4636
  882MOL0     C18968   8.532   6.041   6.301 -0.0441 -0.3956 -0.3667
  882MOL0     C18969   8.429   5.945   6.325 -0.3173  0.6758 -0.3424
  882MOL0     C18970   8.391   5.914   6.456  0.4211 -0.5699 -0.4664
  882MOL0     O18971   8.285   5.833   6.488 -0.4028 -0.2205  0.0045
  882MOL0     C18972   8.176   5.849   6.397 -0.6983  0.2619  0.5556
  882MOL0     C18973   8.068   5.754   6.446  0.1320  1.0452  0.2715
  882MOL0     C18974   7.946   5.735   6.359 -0.0939 -0.0450 -0.3456
  882MOL0     C18975   7.850   5.845   6.374 -0.1650  0.9090 -0.1574
  882MOL0     C18976   7.717   5.837   6.308 -0.0564 -0.4437  0.7018
  882MOL0     C18977   7.616   5.931   6.369 -0.3866 -0.2559  0.3143
  882MOL0     C18978   7.663   6.078   6.344 -0.6324 -0.6876 -0.4683
  882MOL0     C18979   7.544   6.182   6.374 -0.1625  0.2454  0.9224
  882MOL0    Cl18980   7.424   6.152   6.245 -0.1334  0.0568  0.4948
  882MOL0     C18981   8.462   5.981   6.562  0.8047 -0.8071  0.2197
  882MOL0     C18982   8.561   6.078   6.537  0.8778 -1.0967  0.6609
  882MOL0     O18983   8.590   6.312   6.226  0.3815 -1.6505  0.5324
  882MOL0     C18984   8.934   6.335   6.321  0.1804  0.8897 -0.1366
  882MOL0     C18985   9.045   6.403   6.304 -0.1335 -0.4168  0.1175
  882MOL0     N18986   9.689   6.657   6.333 -0.4557  0.5676 -0.2924
  882MOL0     N18987   9.775   6.694   6.418 -0.0586 -0.7111  0.0942
  882MOL0     C18988  10.934   6.569   6.061  0.7868 -0.0779 -0.0220
  882MOL0     C18989  11.060   6.545   6.017 -0.8338  0.1545 -0.1155
  882MOL0     C18990  11.419   6.535   5.704 -0.0207 -0.5052  0.0103
  882MOL0     C18991  11.501   6.608   5.608  1.3815  0.6443  0.4842
  882MOL0     C18992  11.621   6.542   5.584 -0.1748 -0.5664 -0.0989
  882MOL0     C18993  11.667   6.431   5.653 -0.5899 -0.3963 -0.3563
  882MOL0     O18994  11.800   6.410   5.614  0.3294 -0.0440 -0.5221
  882MOL0     C18995  11.872   6.291   5.653 -0.3849  0.5799  0.7438
  882MOL0     C18996  11.982   6.269   5.542  0.5401 -0.5135  0.1940
  882MOL0     C18997  12.121   6.319   5.593 -0.1938 -0.0719  0.3106
  882MOL0     C18998  12.234   6.285   5.495 -0.0102  0.0759  0.2523
  882MOL0     C18999  12.364   6.334   5.527  0.4106  0.0302 -0.7039
  882MOL0     C19000  12.483   6.344   5.566  0.6270  0.2575  0.5363
  882MOL0     C19001  11.592   6.376   5.756 -0.8634 -0.0908  0.0082
  882MOL0     C19002  11.463   6.422   5.778  0.2638 -0.8643  0.4650
  882MOL0     H19003  11.008   6.565   5.684  0.8803  3.6144 -0.1199
  882MOL0     H19004  10.784   6.626   5.765  0.2821  0.0894  0.2530
  882MOL0     H19005  10.660   6.508   6.143  1.0564  0.0503  0.8724
  882MOL0     H19006  10.726   6.668   6.184  1.0152 -1.2164 -0.8506
  882MOL0     H19007  10.461   6.650   6.035  0.9666 -0.5604 -0.5792
  882MOL0     H19008  10.459   6.583   6.194 -0.9152  0.4738 -0.8506
  882MOL0     H19009  10.521   6.800   6.302 -0.7622  0.4446  0.1490
  882MOL0     H19010  10.532   6.865   6.134  2.0820 -0.3899  0.8529
  882MOL0     H19011  10.328   6.924   6.187 -2.3330  0.3373  1.3424
  882MOL0     H19012  10.285   6.774   6.106  0.4875  0.8090 -1.1329
  882MOL0     H19013  10.266   6.657   6.328  0.6074  0.6787  2.1721
  882MOL0     H19014  10.322   6.799   6.409  1.8602 -1.1999 -1.8077
  882MOL0     H19015  10.130   6.929   6.299  2.2777  0.1052 -0.4917
  882MOL0     H19016  10.064   6.771   6.253  1.2956  0.4330 -1.5567
  882MOL0     H19017  10.036   6.716   6.488  1.1435 -1.4646 -2.5475
  882MOL0     H19018  10.117   6.878   6.526  1.7349 -0.8474 -1.5126
  882MOL0     H19019   9.924   6.992   6.436 -0.3638  0.8368  0.1521
  882MOL0     H19020   9.861   6.882   6.557  1.8333 -0.4679  0.9362
  882MOL0     H19021   9.783   6.948   6.205 -2.8899 -2.0234 -3.5349
  882MOL0     H19022   9.575   6.839   6.082 -1.2507 -0.0430 -0.0613
  882MOL0     H19023   9.590   6.667   6.067 -1.2507 -2.2850  2.4149
  882MOL0     H19024   9.402   6.844   6.219  0.8748  0.5587  0.3447
  882MOL0     H19025   9.426   6.670   6.282  2.6153  0.7668 -0.3076
  882MOL0     H19026   9.341   6.619   6.039  1.3985  0.9634 -1.3546
  882MOL0     H19027   9.309   6.793   6.014 -0.0471 -0.2420 -0.1259
  882MOL0     H19028   9.119   6.664   6.053 -0.6113 -0.0741  0.3625
  882MOL0     H19029   9.147   6.795   6.188  2.1898  1.0426  1.9078
  882MOL0     H19030   8.901   6.692   6.177 -4.8726  0.1969  2.4703
  882MOL0     H19031   8.594   6.571   6.296 -0.2406  0.2134  0.2963
  882MOL0     H19032   8.688   6.708   6.256 -0.7257  0.1234  1.8560
  882MOL0     H19033   8.637   6.603   6.119  1.7269  0.8402  0.1377
  882MOL0     H19034   8.564   6.067   6.201 -0.9328  2.1737 -0.0462
  882MOL0     H19035   8.382   5.902   6.237  0.9987 -1.9026  0.1289
  882MOL0     H19036   8.141   5.953   6.392  0.9977  0.9213  1.4158
  882MOL0     H19037   8.209   5.813   6.299  0.5859 -1.1288  1.4515
  882MOL0     H19038   8.100   5.649   6.449 -0.5753  0.7039 -2.1292
  882MOL0     H19039   8.035   5.780   6.547  1.5700  1.3821  0.6881
  882MOL0     H19040   7.905   5.638   6.387 -2.3611  1.2158  1.0861
  882MOL0     H19041   7.979   5.719   6.256 -1.9963  0.7090 -1.1202
  882MOL0     H19042   7.837   5.850   6.482  0.5914 -2.8081  0.2379
  882MOL0     H19043   7.887   5.938   6.329  0.4441  0.1982 -1.1643
  882MOL0     H19044   7.684   5.733   6.310 -1.4080 -0.2668 -3.2688
  882MOL0     H19045   7.722   5.853   6.200 -3.4855  1.5547  0.6987
  882MOL0     H19046   7.515   5.917   6.329 -0.6978  0.9724  0.6342
  882MOL0     H19047   7.613   5.911   6.477 -1.8538  0.7878  0.5027
  882MOL0     H19048   7.709   6.093   6.246  2.6075 -3.5145  0.4180
  882MOL0     H19049   7.751   6.099   6.406  0.2901  0.3327 -2.0613
  882MOL0     H19050   7.572   6.287   6.370 -0.8870  0.4095 -2.4372
  882MOL0     H19051   7.500   6.161   6.472 -3.4508 -0.4461 -0.5630
  882MOL0     H19052   8.434   5.960   6.664  0.2500  2.5761  0.8791
  882MOL0     H19053   8.608   6.124   6.624 -2.5062  1.0131  1.5661
  882MOL0     H19054   8.942   6.236   6.365  1.6898  0.7097 -0.7860
  882MOL0     H19055   9.139   6.363   6.339 -0.1949 -1.4717 -0.9014
  882MOL0     H19056  10.905   6.551   6.164 -1.5874 -1.9323 -0.9315
  882MOL0     H19057  11.146   6.529   6.081  0.0165  4.0961 -0.0382
  882MOL0     H19058  11.492   6.703   5.557 -3.3387  0.1486 -0.0650
  882MOL0     H19059  11.687   6.589   5.512 -1.4415  2.5080  0.6198
  882MOL0     H19060  11.925   6.300   5.749  1.8323 -1.9856 -0.1090
  882MOL0     H19061  11.820   6.197   5.673  0.2947  0.0156 -0.0643
  882MOL0     H19062  11.941   6.332   5.463 -2.9058  0.6660  2.6866
  882MOL0     H19063  11.989   6.165   5.511  0.2000  0.6249 -4.4533
  882MOL0     H19064  12.155   6.266   5.683 -0.6182 -2.1632 -0.6918
  882MOL0     H19065  12.114   6.425   5.616  2.3494 -0.1881  2.0307
  882MOL0     H19066  12.213   6.330   5.397  2.1304 -3.0209 -1.8098
  882MOL0     H19067  12.239   6.176   5.492  0.5934  0.0738  1.0593
  882MOL0     H19068  12.586   6.344   5.596  0.7383 -1.7137  0.2848
  882MOL0     H19069  11.629   6.286   5.805 -1.5129 -0.8944 -0.9289
  882MOL0     H19070  11.397   6.373   5.850 -0.6520  0.9031  0.9034
  883MOL0     O19071   7.684   0.284   2.224 -0.0178  0.1959 -0.7214
  883MOL0     C19072   7.779   0.214   2.256 -0.2006 -0.6375 -1.0083
  883MOL0     O19073   7.783   0.081   2.273 -0.4259  0.0141  0.0572
  883MOL0     C19074   7.670   0.014   2.316 -0.4979 -0.1525  0.1949
  883MOL0     C19075   7.549   0.065   2.372  0.6727  0.5824  0.1493
  883MOL0     C19076   7.445  -0.030   2.399 -0.9468 -1.0108 -0.3693
  883MOL0     C19077   7.450  -0.164   2.359 -0.2840 -0.0654  0.2347
  883MOL0     O19078   7.338  -0.239   2.390 -0.5236 -0.0693  0.5507
  883MOL0     C19079   7.365  -0.377   2.444 -0.6662 -0.5655 -0.2668
  883MOL0     C19080   7.241  -0.438   2.509  0.4394 -0.5042 -0.1776
  883MOL0     C19081   7.202  -0.366   2.635 -0.2530  0.3352  0.4083
  883MOL0     C19082   7.056  -0.375   2.668 -0.0908  0.4888  0.0331
  883MOL0     C19083   7.014  -0.519   2.707  0.5301  0.5877 -0.2808
  883MOL0     C19084   6.858  -0.530   2.710  0.2739 -0.9396  0.2538
  883MOL0     C19085   6.782  -0.655   2.767 -0.6180 -0.0170 -0.1775
  883MOL0     C19086   6.630  -0.638   2.780 -0.3326  0.3015  0.7346
  883MOL0     N19087   6.556  -0.674   2.654 -0.4863  0.7420 -0.3825
  883MOL0     C19088   6.540  -0.584   2.550 -0.8665  0.6169 -0.4647
  883MOL0     C19089   6.471  -0.637   2.452 -0.1842  0.9106 -0.2852
  883MOL0     C19090   6.424  -0.580   2.320 -0.0830 -0.0610  0.1676
  883MOL0     C19091   6.273  -0.596   2.304 -0.1552  0.3867  1.0938
  883MOL0     C19092   6.235  -0.508   2.181  0.2515  0.7910 -0.7249
  883MOL0     C19093   6.081  -0.488   2.179  0.2257 -0.2260 -0.1751
  883MOL0     O19094   6.052  -0.398   2.072  0.3399  0.2666 -0.1159
  883MOL0     C19095   5.921  -0.366   2.052 -0.6114 -0.1163  0.1384
  883MOL0     C19096   5.892  -0.255   1.975 -0.2529 -0.1599  0.9682
  883MOL0     C19097   5.765  -0.208   1.947 -0.6979  0.3936 -0.5527
  883MOL0     C19098   5.753  -0.069   1.886 -0.5593  0.1372  0.1884
  883MOL0     C19099   5.657  -0.276   2.001 -0.4026  0.0873  0.0997
  883MOL0     C19100   5.524  -0.246   1.951  0.4512 -0.4287  0.2095
  883MOL0     O19101   5.444  -0.354   1.911 -0.0896  0.1343 -0.4038
  883MOL0     C19102   5.310  -0.333   1.904  0.1049 -0.0511  0.1634
  883MOL0     C19103   5.256  -0.246   1.811  0.0596 -0.4738 -0.7466
  883MOL0     C19104   5.123  -0.215   1.811  0.3529  0.2701  0.4250
  883MOL0     C19105   5.037  -0.288   1.896  0.0440 -0.3168  0.0764
  883MOL0     O19106   4.903  -0.269   1.903 -0.0956 -0.0592  0.4145
  883MOL0     C19107   4.838  -0.238   1.775  0.1473 -0.1126 -0.3182
  883MOL0     C19108   4.707  -0.315   1.755  0.0184  0.3250  0.9108
  883MOL0     C19109   4.611  -0.330   1.875  0.5582 -0.7792  0.2051
  883MOL0     C19110   4.503  -0.442   1.878 -0.4950 -0.6233  0.0255
  883MOL0     C19111   4.534  -0.563   1.971 -0.7588 -0.7654  1.0694
  883MOL0     C19112   4.680  -0.613   1.952  0.1460 -0.3088  0.0323
  883MOL0     C19113   4.694  -0.759   2.013 -0.9926  0.2893  0.3386
  883MOL0     C19114   4.632  -0.868   1.919 -0.2557 -0.3561 -0.3798
  883MOL0    Cl19115   4.653  -1.010   2.007 -0.1073  0.4626 -0.2513
  883MOL0     C19116   5.087  -0.377   1.992  0.8298 -0.4146  0.6506
  883MOL0     C19117   5.222  -0.400   1.991 -0.8582  0.4454  0.4855
  883MOL0     O19118   5.483  -0.132   1.963 -0.4454 -0.5588 -0.2886
  883MOL0     C19119   5.681  -0.385   2.086  0.1301  0.3866  0.0106
  883MOL0     C19120   5.809  -0.433   2.105 -0.2304  0.7853 -0.3740
  883MOL0     N19121   6.438  -0.770   2.497 -0.2353 -0.3603 -0.0555
  883MOL0     N19122   6.494  -0.792   2.615  0.0206 -0.4158 -0.1370
  883MOL0     C19123   7.567  -0.208   2.303 -0.0893  0.6038  0.2978
  883MOL0     C19124   7.676  -0.118   2.290  0.3640 -0.2034 -0.1971
  883MOL0     C19125   7.906   0.281   2.244 -0.2697 -0.1704  0.3445
  883MOL0     C19126   7.917   0.417   2.198  0.4948  0.3011 -0.2519
  883MOL0     C19127   8.037   0.480   2.180 -1.1744 -0.1880 -0.0246
  883MOL0     C19128   8.160   0.412   2.205  0.1995 -0.5394  0.3055
  883MOL0     O19129   8.285   0.473   2.205 -1.1115  0.0356  0.0451
  883MOL0     C19130   8.304   0.609   2.182  0.2423 -0.6656 -0.2295
  883MOL0     C19131   8.286   0.708   2.300  0.1578 -0.3319 -0.4983
  883MOL0     C19132   8.389   0.691   2.417 -0.5336  0.4769  0.1681
  883MOL0     C19133   8.522   0.773   2.405 -0.5303 -0.3560  0.8806
  883MOL0     C19134   8.599   0.746   2.526 -0.3662  0.5825 -0.2687
  883MOL0     C19135   8.666   0.717   2.622 -0.2455  0.4534 -0.3571
  883MOL0     C19136   8.154   0.278   2.238  0.7343  0.3891  0.3062
  883MOL0     C19137   8.032   0.212   2.258 -0.4580  0.1917 -0.0276
  883MOL0     H19138   7.536   0.169   2.400 -0.8092  0.9055 -1.5844
  883MOL0     H19139   7.350  -0.020   2.451 -0.5324  1.4953  0.0632
  883MOL0     H19140   7.398  -0.446   2.366 -2.4248 -1.3909 -0.3063
  883MOL0     H19141   7.452  -0.378   2.512 -0.4375  1.9886 -0.4110
  883MOL0     H19142   7.159  -0.434   2.437 -1.3551  4.6444  1.6900
  883MOL0     H19143   7.262  -0.543   2.533  1.2686 -0.0681  1.1228
  883MOL0     H19144   7.268  -0.401   2.715 -0.0328  1.8989  0.9392
  883MOL0     H19145   7.222  -0.260   2.623  0.4449  0.2151  0.5069
  883MOL0     H19146   7.028  -0.303   2.745  1.1660  0.6793  0.3260
  883MOL0     H19147   6.998  -0.353   2.577 -0.5821 -0.3806  0.1260
  883MOL0     H19148   7.052  -0.595   2.638  0.7894  0.3710  0.0975
  883MOL0     H19149   7.052  -0.559   2.801  0.1408  0.0253 -0.3576
  883MOL0     H19150   6.824  -0.444   2.768  2.1837 -0.2141  0.3356
  883MOL0     H19151   6.817  -0.500   2.613  2.6634  0.8377 -0.2864
  883MOL0     H19152   6.806  -0.746   2.713  0.3164 -0.5104  1.0110
  883MOL0     H19153   6.825  -0.668   2.867  3.1299  3.1280 -1.1132
  883MOL0     H19154   6.611  -0.532   2.803  2.0931  1.0281 -0.3699
  883MOL0     H19155   6.579  -0.695   2.859 -2.5021  1.5275  0.3076
  883MOL0     H19156   6.591  -0.488   2.548  1.0634 -0.3761 -0.6044
  883MOL0     H19157   6.450  -0.473   2.323 -2.0933  0.4397  2.6076
  883MOL0     H19158   6.470  -0.627   2.233  1.3389 -0.6202  1.1710
  883MOL0     H19159   6.216  -0.553   2.387  1.7316 -0.9827  3.1942
  883MOL0     H19160   6.244  -0.701   2.293  2.6914 -0.3249 -0.4959
  883MOL0     H19161   6.279  -0.554   2.092 -0.3468 -2.2128  0.4104
  883MOL0     H19162   6.275  -0.406   2.186  0.0211  0.8351  0.4359
  883MOL0     H19163   6.043  -0.437   2.268 -1.0291  0.4333 -1.0596
  883MOL0     H19164   6.036  -0.588   2.178  0.1048 -0.2056  1.0773
  883MOL0     H19165   5.975  -0.203   1.929 -0.5054 -1.5729 -1.2511
  883MOL0     H19166   5.723   0.009   1.957  0.4415  1.3494 -0.6607
  883MOL0     H19167   5.850  -0.040   1.845 -1.4431  0.9405 -1.4216
  883MOL0     H19168   5.686  -0.068   1.800  0.5635  2.5266 -0.7516
  883MOL0     H19169   5.319  -0.191   1.741  1.3665 -2.0642 -0.8877
  883MOL0     H19170   5.081  -0.149   1.735  1.5936  1.8153  1.0281
  883MOL0     H19171   4.821  -0.130   1.769  0.8403  0.0549  0.4720
  883MOL0     H19172   4.896  -0.271   1.689 -1.5555 -1.7214 -0.9145
  883MOL0     H19173   4.648  -0.271   1.674 -1.1587 -0.3055  1.4032
  883MOL0     H19174   4.737  -0.416   1.724 -1.0519  0.7350 -1.7017
  883MOL0     H19175   4.562  -0.234   1.893 -1.5013 -1.3812 -1.6578
  883MOL0     H19176   4.674  -0.344   1.963 -1.0592 -1.5036  1.3101
  883MOL0     H19177   4.410  -0.395   1.911 -0.0617  0.4155 -0.1942
  883MOL0     H19178   4.492  -0.479   1.775 -2.0409  0.4021 -0.2054
  883MOL0     H19179   4.457  -0.637   1.950 -0.2898 -1.6731  2.4591
  883MOL0     H19180   4.524  -0.528   2.074 -2.0436  2.7332 -0.0832
  883MOL0     H19181   4.706  -0.604   1.846 -2.0096  3.3253 -0.3432
  883MOL0     H19182   4.751  -0.547   2.003 -1.6557  1.8123 -0.0743
  883MOL0     H19183   4.648  -0.769   2.112  0.3842 -2.1763  0.7999
  883MOL0     H19184   4.797  -0.795   2.025 -1.2680 -0.8947 -0.6524
  883MOL0     H19185   4.680  -0.887   1.823 -0.3263 -0.2340 -0.4396
  883MOL0     H19186   4.526  -0.848   1.904 -0.1207 -0.5122 -1.7076
  883MOL0     H19187   5.018  -0.426   2.060 -1.0803 -3.3000 -2.9707
  883MOL0     H19188   5.269  -0.469   2.060 -0.6999  0.6988  0.6327
  883MOL0     H19189   5.604  -0.439   2.140 -0.9004  0.9613 -0.8470
  883MOL0     H19190   5.818  -0.522   2.167  0.4649 -0.7025 -2.5197
  883MOL0     H19191   7.581  -0.308   2.264  1.1438  1.5508 -1.9264
  883MOL0     H19192   7.766  -0.146   2.235  0.7684 -2.7713  1.6223
  883MOL0     H19193   7.825   0.464   2.166 -0.3346 -0.6460  0.6429
  883MOL0     H19194   8.041   0.587   2.158 -1.5263  0.3290  2.1909
  883MOL0     H19195   8.402   0.619   2.135 -0.1971 -0.1885 -1.0649
  883MOL0     H19196   8.242   0.645   2.100 -1.4340 -3.0164 -0.0931
  883MOL0     H19197   8.180   0.712   2.328  0.6499  4.0891  1.5244
  883MOL0     H19198   8.304   0.810   2.264  2.6522 -0.3797  0.4461
  883MOL0     H19199   8.408   0.584   2.408  2.5298  0.9695 -0.3156
  883MOL0     H19200   8.335   0.715   2.509  0.5053  0.1854  0.8736
  883MOL0     H19201   8.490   0.878   2.403 -1.3030 -0.5914  0.0684
  883MOL0     H19202   8.579   0.756   2.314 -0.4472  2.5477  0.2915
  883MOL0     H19203   8.728   0.688   2.705 -2.1116  2.7155  2.0039
  883MOL0     H19204   8.250   0.232   2.261  0.0006 -1.4062 -0.0486
  883MOL0     H19205   8.046   0.112   2.297 -0.2635  0.1397 -0.2265
  884MOL0     O19206   1.344   7.774   7.933  0.2854  0.1200  0.3286
  884MOL0     C19207   1.301   7.864   7.862  0.1137 -0.4864 -0.2633
  884MOL0     O19208   1.167   7.895   7.850  0.1082 -0.1057  0.5323
  884MOL0     C19209   1.071   7.818   7.911 -0.3170 -0.0207 -0.4695
  884MOL0     C19210   1.038   7.850   8.041 -0.2425  0.1247  0.1438
  884MOL0     C19211   0.938   7.776   8.107 -0.4350 -0.3928  0.3218
  884MOL0     C19212   0.873   7.672   8.043  0.4206  0.4333  0.7172
  884MOL0     O19213   0.778   7.602   8.114 -0.3130  0.0864 -0.3396
  884MOL0     C19214   0.713   7.651   8.230  0.5297 -0.2839  0.3124
  884MOL0     C19215   0.613   7.551   8.291 -0.1486  0.5561 -0.8653
  884MOL0     C19216   0.490   7.522   8.208  0.0199  0.1074 -0.2794
  884MOL0     C19217   0.396   7.433   8.270  0.6118  0.3198 -0.3222
  884MOL0     C19218   0.278   7.401   8.188 -0.0616  1.0152 -0.4213
  884MOL0     C19219   0.183   7.311   8.281  0.1123  0.3743  0.3895
  884MOL0     C19220   0.067   7.270   8.193  0.4184 -0.9145  0.3022
  884MOL0     C19221  -0.032   7.177   8.258 -0.1995 -0.1957 -0.1172
  884MOL0     N19222  -0.150   7.129   8.185  0.1253 -0.2326  0.0227
  884MOL0     C19223  -0.145   7.039   8.082  0.3905 -0.2893  0.3508
  884MOL0     C19224  -0.277   7.021   8.051 -0.7462 -0.4433 -0.6205
  884MOL0     C19225  -0.332   6.950   7.928  0.2663  0.2707 -0.0712
  884MOL0     C19226  -0.427   6.839   7.958 -0.6580 -0.5243 -0.3467
  884MOL0     C19227  -0.501   6.784   7.836  0.7340  0.3196 -0.0398
  884MOL0     C19228  -0.598   6.682   7.893 -0.3207  0.0313  0.4962
  884MOL0     O19229  -0.693   6.736   7.987 -0.9477  0.3635  0.1283
  884MOL0     C19230  -0.806   6.678   8.020  0.7170 -0.7433  0.2031
  884MOL0     C19231  -0.875   6.744   8.119  0.4772  0.2904 -0.5542
  884MOL0     C19232  -0.999   6.705   8.173  0.6890 -0.6591  0.2037
  884MOL0     C19233  -1.054   6.792   8.274  0.2737 -1.2157 -0.6850
  884MOL0     C19234  -1.050   6.581   8.128 -0.5049 -0.6916  0.1087
  884MOL0     C19235  -1.165   6.513   8.189 -0.2954 -0.8290 -1.3250
  884MOL0     O19236  -1.201   6.394   8.145  0.0583 -0.0294  0.5880
  884MOL0     C19237  -1.322   6.339   8.173 -0.2452 -0.7813 -0.1707
  884MOL0     C19238  -1.448   6.400   8.171  0.3952  0.1320 -0.1366
  884MOL0     C19239  -1.565   6.329   8.207 -0.0372  0.3530 -0.0058
  884MOL0     C19240  -1.558   6.199   8.251  0.2795 -0.1746 -0.8683
  884MOL0     O19241  -1.677   6.156   8.301  0.2379  0.3982 -0.7757
  884MOL0     C19242  -1.678   6.032   8.380 -0.5315 -0.2884 -0.2232
  884MOL0     C19243  -1.796   6.026   8.475 -0.3842 -0.8367  0.9901
  884MOL0     C19244  -1.806   6.154   8.561 -0.8987  0.1154  0.4711
  884MOL0     C19245  -1.915   6.241   8.514 -0.2342 -0.4677  0.7023
  884MOL0     C19246  -1.938   6.354   8.619  0.5907 -0.5902  0.0302
  884MOL0     C19247  -2.043   6.454   8.555  0.1251  0.5232 -0.9381
  884MOL0     C19248  -2.080   6.564   8.650  0.0883  0.1859 -0.1647
  884MOL0     C19249  -2.202   6.648   8.604 -0.7389  0.4971 -0.1217
  884MOL0    Cl19250  -2.366   6.579   8.641  0.5650 -0.0122  0.4573
  884MOL0     C19251  -1.436   6.132   8.250  0.0255 -0.0896 -0.5443
  884MOL0     C19252  -1.322   6.202   8.199  0.6643  0.4178  0.2627
  884MOL0     O19253  -1.234   6.583   8.269  0.4966 -0.3026 -0.0703
  884MOL0     C19254  -0.980   6.517   8.024  0.0093  0.2809  0.4329
  884MOL0     C19255  -0.861   6.564   7.968 -0.4905  0.0680  0.1537
  884MOL0     N19256  -0.355   7.097   8.136  0.5075  0.0105  0.0261
  884MOL0     N19257  -0.277   7.158   8.214 -1.1716 -0.2933  0.0937
  884MOL0     C19258   0.928   7.634   7.915  0.3895 -0.0188 -0.4019
  884MOL0     C19259   1.027   7.701   7.851 -0.6305 -0.1136  0.1945
  884MOL0     C19260   1.399   7.953   7.794  0.2021  0.0041 -0.6270
  884MOL0     C19261   1.522   7.968   7.855 -0.3987  0.3472  0.6376
  884MOL0     C19262   1.616   8.062   7.801  0.5713 -0.3698  0.3072
  884MOL0     C19263   1.583   8.131   7.685 -0.2866  0.0407 -0.1608
  884MOL0     O19264   1.685   8.217   7.639 -0.2791 -0.1512  0.1758
  884MOL0     C19265   1.659   8.319   7.544 -0.2726 -0.6638  0.1982
  884MOL0     C19266   1.765   8.315   7.425 -0.0575 -0.6990  0.0102
  884MOL0     C19267   1.912   8.328   7.468  0.5330 -0.2507 -0.5537
  884MOL0     C19268   1.947   8.461   7.527  0.1291 -0.5503 -0.2680
  884MOL0     C19269   2.085   8.458   7.578 -0.0534 -0.2605  0.2118
  884MOL0     C19270   2.197   8.449   7.622  0.0868  0.0680  0.0550
  884MOL0     C19271   1.459   8.119   7.628  0.2574  1.4415 -0.0005
  884MOL0     C19272   1.368   8.026   7.674  0.4346 -0.7405  0.1750
  884MOL0     H19273   1.087   7.931   8.095 -1.5643  0.3444  1.0691
  884MOL0     H19274   0.924   7.797   8.212  1.4417 -0.9845  0.7344
  884MOL0     H19275   0.785   7.679   8.307 -1.6091  1.9706  1.6716
  884MOL0     H19276   0.652   7.741   8.215  0.0102 -0.7363 -0.3572
  884MOL0     H19277   0.673   7.461   8.307  2.6846  2.6755  1.3412
  884MOL0     H19278   0.576   7.598   8.383  2.4970  0.8955  0.1158
  884MOL0     H19279   0.436   7.617   8.201 -2.5555 -1.2155  0.5836
  884MOL0     H19280   0.514   7.486   8.107 -2.4171 -0.7599 -0.6207
  884MOL0     H19281   0.455   7.343   8.294  0.9861  1.3146  2.9291
  884MOL0     H19282   0.369   7.466   8.370  0.6167  0.7770 -0.4716
  884MOL0     H19283   0.223   7.491   8.158 -0.1194  0.4065 -2.2582
  884MOL0     H19284   0.303   7.342   8.099 -2.9181  1.1466 -1.4116
  884MOL0     H19285   0.245   7.227   8.315  0.5370 -0.3966 -2.0936
  884MOL0     H19286   0.139   7.364   8.366 -1.0832 -0.3356  0.2401
  884MOL0     H19287   0.012   7.363   8.174 -0.6046 -1.6965 -0.7122
  884MOL0     H19288   0.101   7.212   8.107  2.1768 -1.7740  1.5165
  884MOL0     H19289  -0.069   7.235   8.343  0.5139 -0.0270  0.0912
  884MOL0     H19290   0.023   7.093   8.301  0.5216  1.0453  1.4833
  884MOL0     H19291  -0.064   6.998   8.024 -0.3799 -1.4734  0.0747
  884MOL0     H19292  -0.380   7.022   7.861  0.5561 -2.0499 -2.9686
  884MOL0     H19293  -0.258   6.901   7.864 -0.6062 -0.8976 -0.2323
  884MOL0     H19294  -0.486   6.884   8.038  0.0499 -0.0106 -0.1067
  884MOL0     H19295  -0.373   6.749   7.988  1.3057  0.1841 -1.6144
  884MOL0     H19296  -0.427   6.742   7.768  0.3430 -2.1527  0.9691
  884MOL0     H19297  -0.552   6.867   7.786  1.2454 -1.0086 -2.9887
  884MOL0     H19298  -0.544   6.601   7.943  1.7039  0.3162 -1.1181
  884MOL0     H19299  -0.650   6.642   7.805  0.2065 -2.9438  1.4401
  884MOL0     H19300  -0.829   6.830   8.167  2.6090 -0.3188 -1.3908
  884MOL0     H19301  -0.993   6.882   8.282 -0.8185 -0.2602 -2.4861
  884MOL0     H19302  -1.155   6.833   8.261  0.9214  0.0677 -1.8848
  884MOL0     H19303  -1.051   6.734   8.367 -0.1564  0.3690  0.3682
  884MOL0     H19304  -1.471   6.503   8.145 -0.6975  0.5244  2.1135
  884MOL0     H19305  -1.661   6.376   8.224  0.1903  0.4386  1.1297
  884MOL0     H19306  -1.687   5.945   8.314  0.0746 -0.5982  0.0918
  884MOL0     H19307  -1.592   6.026   8.448 -2.2774  3.2741  2.6535
  884MOL0     H19308  -1.883   6.003   8.413 -0.0435 -0.2882  0.2951
  884MOL0     H19309  -1.787   5.943   8.545 -0.0197 -1.7995 -0.1837
  884MOL0     H19310  -1.714   6.214   8.556 -1.4091  0.8171 -0.8226
  884MOL0     H19311  -1.831   6.132   8.666 -1.9742  0.4890  0.3000
  884MOL0     H19312  -1.882   6.278   8.416  2.4105 -1.1198  1.2662
  884MOL0     H19313  -2.008   6.187   8.494 -0.4684 -0.1470  0.9139
  884MOL0     H19314  -1.844   6.402   8.646 -0.5606  1.2035  1.0679
  884MOL0     H19315  -1.974   6.310   8.712  2.3097 -3.5222 -0.5538
  884MOL0     H19316  -1.994   6.491   8.465 -0.1128  0.0459 -1.2729
  884MOL0     H19317  -2.133   6.397   8.527 -1.1507  2.3273 -0.6951
  884MOL0     H19318  -1.989   6.623   8.664 -0.1501  0.5112 -0.0012
  884MOL0     H19319  -2.103   6.518   8.746 -0.4460 -0.1285 -0.4389
  884MOL0     H19320  -2.194   6.672   8.497 -2.5297  4.2156  0.4433
  884MOL0     H19321  -2.203   6.742   8.659  2.5236  0.6756 -0.1851
  884MOL0     H19322  -1.425   6.029   8.283 -0.3300 -0.8894 -2.7809
  884MOL0     H19323  -1.226   6.152   8.195  1.7364  2.2257  1.7527
  884MOL0     H19324  -1.006   6.419   7.983  3.2710  0.6723 -3.0661
  884MOL0     H19325  -0.804   6.511   7.892 -1.2867  0.5810 -0.8455
  884MOL0     H19326   0.888   7.547   7.864  1.0258 -0.7743  0.3505
  884MOL0     H19327   1.060   7.674   7.751  0.1170 -1.0297  0.6724
  884MOL0     H19328   1.544   7.913   7.945 -0.3462  0.8204  0.9215
  884MOL0     H19329   1.710   8.067   7.856 -0.0581 -2.3470  1.6549
  884MOL0     H19330   1.558   8.313   7.502 -1.1105 -0.7413  2.0991
  884MOL0     H19331   1.674   8.408   7.607  4.0094 -1.4265  0.5673
  884MOL0     H19332   1.748   8.397   7.354  3.2226  0.2756  0.1607
  884MOL0     H19333   1.748   8.222   7.371 -0.5427 -1.7766  1.9492
  884MOL0     H19334   1.978   8.302   7.384  0.5194 -2.8129  0.1361
  884MOL0     H19335   1.928   8.247   7.539  0.9664  1.2801  1.1582
  884MOL0     H19336   1.885   8.485   7.614  0.4040  3.7965 -1.0495
  884MOL0     H19337   1.925   8.532   7.447 -0.0979 -0.3895 -0.0642
  884MOL0     H19338   2.301   8.460   7.642  0.9617 -0.4243 -3.5583
  884MOL0     H19339   1.433   8.161   7.531 -1.2016  0.2817 -0.1439
  884MOL0     H19340   1.270   8.015   7.628 -0.7145 -0.2034  2.3470
  885MOL0     O19341   3.213   0.459   9.526  0.3528 -0.1519  0.0895
  885MOL0     C19342   3.265   0.549   9.596  0.6510  0.8522 -0.4075
  885MOL0     O19343   3.206   0.621   9.699 -0.2920  0.1853  0.1762
  885MOL0     C19344   3.076   0.642   9.707  0.1890 -0.1956  0.3310
  885MOL0     C19345   3.043   0.767   9.766 -0.3962  0.3844  0.3093
  885MOL0     C19346   2.911   0.806   9.772  0.4473  1.0223 -0.3270
  885MOL0     C19347   2.810   0.728   9.714 -0.0160 -0.3253  0.0288
  885MOL0     O19348   2.672   0.757   9.726 -0.0268  0.0206 -0.1305
  885MOL0     C19349   2.622   0.886   9.774  1.1904  0.3494  1.1559
  885MOL0     C19350   2.474   0.876   9.801 -0.6806 -0.2925  0.4416
  885MOL0     C19351   2.370   0.845   9.691  0.3951  0.1342  0.3587
  885MOL0     C19352   2.345   0.958   9.587 -0.3102 -0.5676 -0.3293
  885MOL0     C19353   2.241   0.934   9.479  0.4456 -0.3017 -0.3549
  885MOL0     C19354   2.255   1.024   9.359 -0.3641  0.3317 -0.1152
  885MOL0     C19355   2.121   1.015   9.291 -0.1309 -0.1011 -0.4933
  885MOL0     C19356   2.116   1.137   9.192 -0.0730 -0.1105 -0.7205
  885MOL0     N19357   1.977   1.166   9.157  1.1760  1.4878  0.2006
  885MOL0     C19358   1.915   1.143   9.032 -0.4615 -0.5365  0.3431
  885MOL0     C19359   1.792   1.196   9.055 -0.7875  0.7498 -0.8208
  885MOL0     C19360   1.678   1.180   8.968 -0.2314  0.2208  0.7333
  885MOL0     C19361   1.657   1.306   8.884 -0.0069 -0.3749 -0.3528
  885MOL0     C19362   1.543   1.309   8.781  0.9817  0.2402 -0.4111
  885MOL0     C19363   1.409   1.267   8.836 -0.5451 -0.5686 -0.4745
  885MOL0     O19364   1.369   1.362   8.942 -0.2265 -0.1806 -0.6461
  885MOL0     C19365   1.233   1.367   8.969  0.1809  0.5823 -1.0673
  885MOL0     C19366   1.153   1.260   8.972  0.1334  0.4491  0.0133
  885MOL0     C19367   1.017   1.270   9.025  0.1021 -0.2185  0.7106
  885MOL0     C19368   0.939   1.143   9.026 -0.2214  0.0833  0.7673
  885MOL0     C19369   0.972   1.403   9.069  0.3616  1.0095 -0.0950
  885MOL0     C19370   0.835   1.426   9.122  0.1608  0.3604 -0.9480
  885MOL0     O19371   0.780   1.556   9.112 -0.2073 -0.0074 -0.5579
  885MOL0     C19372   0.652   1.575   9.140 -0.4526 -0.2219 -0.4960
  885MOL0     C19373   0.577   1.620   9.031  0.1482 -0.3922  0.3322
  885MOL0     C19374   0.444   1.658   9.065 -0.1783  0.7555  0.3397
  885MOL0     C19375   0.392   1.646   9.194 -0.0338  0.3426 -0.2958
  885MOL0     O19376   0.271   1.691   9.243  0.3243 -0.4329  0.3778
  885MOL0     C19377   0.198   1.778   9.156 -0.4907 -0.3197 -0.1578
  885MOL0     C19378   0.063   1.803   9.221 -0.4273 -0.3311  0.3143
  885MOL0     C19379  -0.012   1.672   9.215  1.1155  0.1385 -0.2223
  885MOL0     C19380  -0.151   1.689   9.271 -0.6116  0.4080 -0.3725
  885MOL0     C19381  -0.235   1.557   9.256 -1.1088  0.2750  0.3899
  885MOL0     C19382  -0.388   1.560   9.211 -0.1926 -0.2191 -0.0748
  885MOL0     C19383  -0.480   1.617   9.324  0.4612 -0.7804 -0.2731
  885MOL0     C19384  -0.493   1.527   9.448  0.4743  1.5295 -0.6827
  885MOL0    Cl19385  -0.547   1.599   9.604  0.1848  0.1472 -0.0586
  885MOL0     C19386   0.471   1.588   9.300 -0.7368  0.1666  0.1823
  885MOL0     C19387   0.603   1.552   9.274  0.2563 -0.8097  0.1782
  885MOL0     O19388   0.770   1.329   9.157 -0.7044  0.4244  0.3476
  885MOL0     C19389   1.056   1.515   9.057  0.6771  0.1547 -0.8816
  885MOL0     C19390   1.180   1.489   9.009 -0.6800  0.0046  0.6467
  885MOL0     N19391   1.787   1.253   9.180  0.0330  0.0182 -0.3183
  885MOL0     N19392   1.893   1.238   9.238 -0.7322 -0.5357 -0.1732
  885MOL0     C19393   2.847   0.607   9.668  0.0537 -0.4540  0.3726
  885MOL0     C19394   2.971   0.557   9.667  0.4334  0.5214 -0.7913
  885MOL0     C19395   3.409   0.563   9.576 -0.5910 -0.5718 -0.0583
  885MOL0     C19396   3.489   0.460   9.522 -0.7368  0.6759 -0.1794
  885MOL0     C19397   3.623   0.488   9.502 -0.8816  0.1590 -0.3404
  885MOL0     C19398   3.684   0.604   9.544  0.8044 -0.1377 -1.1535
  885MOL0     O19399   3.821   0.617   9.527  0.3491 -0.2037  0.6922
  885MOL0     C19400   3.864   0.755   9.529 -0.3856  1.2323 -1.2789
  885MOL0     C19401   3.987   0.775   9.453  0.6743  0.0787  0.0589
  885MOL0     C19402   4.108   0.691   9.501 -0.3342 -1.1984 -0.4401
  885MOL0     C19403   4.247   0.741   9.441  0.1179 -0.6091  0.2753
  885MOL0     C19404   4.317   0.630   9.373 -0.0536 -0.3282  0.2369
  885MOL0     C19405   4.369   0.535   9.317 -0.1652 -0.1677  0.2558
  885MOL0     C19406   3.604   0.702   9.612 -0.1024  0.7358  0.1226
  885MOL0     C19407   3.466   0.682   9.620  0.7171 -0.3410 -0.6868
  885MOL0     H19408   3.126   0.826   9.806  0.9490 -0.0843 -1.6524
  885MOL0     H19409   2.884   0.898   9.824 -4.1252 -0.8549  1.0976
  885MOL0     H19410   2.673   0.891   9.870  1.7484 -0.1952  0.8901
  885MOL0     H19411   2.646   0.965   9.701  0.1313 -2.3989 -2.4671
  885MOL0     H19412   2.454   0.798   9.876 -1.5145  0.6282  1.1987
  885MOL0     H19413   2.446   0.970   9.848 -1.9417 -0.7080  0.5483
  885MOL0     H19414   2.396   0.750   9.643  0.0095 -0.6384  1.6278
  885MOL0     H19415   2.270   0.817   9.723 -0.4187 -0.0189 -2.1459
  885MOL0     H19416   2.322   1.045   9.648  1.0268 -0.1770 -0.3593
  885MOL0     H19417   2.442   0.975   9.541 -0.6496  1.1161 -0.4586
  885MOL0     H19418   2.258   0.833   9.439  0.3914 -1.7626  2.9720
  885MOL0     H19419   2.143   0.936   9.528  0.5508  2.1244 -0.1648
  885MOL0     H19420   2.290   1.126   9.380  2.2909 -0.0459 -2.0191
  885MOL0     H19421   2.334   0.986   9.293  0.5905  2.5295 -0.3371
  885MOL0     H19422   2.107   0.918   9.243  1.8732 -0.8484  0.3496
  885MOL0     H19423   2.047   1.027   9.371  2.4689  1.7413  1.8119
  885MOL0     H19424   2.181   1.115   9.106  1.2088 -3.3678  0.8989
  885MOL0     H19425   2.161   1.228   9.235  1.6648  0.1451 -2.8913
  885MOL0     H19426   1.948   1.089   8.944 -1.7101  0.4560 -0.7872
  885MOL0     H19427   1.691   1.094   8.902 -1.5515 -1.3464  2.4005
  885MOL0     H19428   1.584   1.171   9.023 -2.8431  1.9322 -3.0571
  885MOL0     H19429   1.750   1.329   8.831  1.5701 -0.8943  1.9869
  885MOL0     H19430   1.640   1.380   8.962  1.4108 -0.7302  0.3372
  885MOL0     H19431   1.569   1.254   8.690  1.9744 -0.4314  0.2544
  885MOL0     H19432   1.527   1.409   8.741  1.2937 -0.0584 -1.2987
  885MOL0     H19433   1.411   1.165   8.874  3.1315  0.0894  1.5072
  885MOL0     H19434   1.326   1.267   8.765 -0.0142 -1.5258 -1.1049
  885MOL0     H19435   1.190   1.160   8.951  1.1373  1.0185 -1.0335
  885MOL0     H19436   0.968   1.085   9.114  1.0696 -0.3503  0.0816
  885MOL0     H19437   0.831   1.158   9.013 -0.2432 -1.4888 -1.5541
  885MOL0     H19438   0.970   1.078   8.944  2.1224 -1.8742  3.0059
  885MOL0     H19439   0.609   1.629   8.928 -1.9448  1.1468 -0.2701
  885MOL0     H19440   0.382   1.695   8.984  4.1578  2.0042 -2.8573
  885MOL0     H19441   0.246   1.875   9.143 -1.3106  0.1439  0.2061
  885MOL0     H19442   0.181   1.722   9.064 -2.3218 -1.2668  0.7016
  885MOL0     H19443   0.082   1.831   9.325  2.0069  0.4860 -0.2919
  885MOL0     H19444   0.010   1.891   9.183 -0.3766  1.0516  3.1780
  885MOL0     H19445   0.052   1.614   9.281  0.3021 -0.1666  0.3132
  885MOL0     H19446  -0.010   1.633   9.113 -1.8438  2.6334 -1.4232
  885MOL0     H19447  -0.150   1.721   9.376  2.4284 -0.8556  0.0965
  885MOL0     H19448  -0.215   1.762   9.221 -0.8215  0.4211 -0.0893
  885MOL0     H19449  -0.239   1.508   9.354 -2.4892  0.2559  0.3431
  885MOL0     H19450  -0.179   1.498   9.183 -0.0407 -1.4697  2.5152
  885MOL0     H19451  -0.398   1.626   9.124  1.6633 -0.8753 -0.8278
  885MOL0     H19452  -0.415   1.460   9.178  1.1046 -0.6101  0.0212
  885MOL0     H19453  -0.579   1.618   9.277  0.0278 -0.6382  0.6288
  885MOL0     H19454  -0.439   1.712   9.360 -4.1277  0.9336  1.1107
  885MOL0     H19455  -0.396   1.483   9.475  0.6282  1.1852 -1.7627
  885MOL0     H19456  -0.570   1.451   9.434 -0.4428  1.8362  2.0812
  885MOL0     H19457   0.430   1.573   9.400  1.7645  1.2900  1.4917
  885MOL0     H19458   0.658   1.513   9.359 -0.2758  2.2749  2.0734
  885MOL0     H19459   1.036   1.618   9.085 -0.9155 -0.7327  1.5752
  885MOL0     H19460   1.248   1.573   9.000 -0.4380 -0.1580  0.9487
  885MOL0     H19461   2.777   0.532   9.633  0.9236 -0.8606 -0.5498
  885MOL0     H19462   2.999   0.453   9.650 -3.4583 -0.9922  1.0495
  885MOL0     H19463   3.450   0.363   9.492 -1.8969  0.6823  1.2267
  885MOL0     H19464   3.680   0.413   9.448 -1.9690  1.6254 -3.8418
  885MOL0     H19465   3.784   0.812   9.482 -1.7881  1.6650  1.4577
  885MOL0     H19466   3.870   0.785   9.634  3.2171 -2.0605 -0.2935
  885MOL0     H19467   4.003   0.883   9.455  0.6696  0.0842 -0.1090
  885MOL0     H19468   3.964   0.754   9.348  0.2434  2.6691 -0.4290
  885MOL0     H19469   4.098   0.586   9.473  0.7063 -1.4868  0.2346
  885MOL0     H19470   4.111   0.683   9.610 -3.1014  1.3576 -0.0103
  885MOL0     H19471   4.312   0.787   9.516  2.5721  2.7033 -3.4638
  885MOL0     H19472   4.239   0.823   9.369 -3.4693 -0.1812  0.9469
  885MOL0     H19473   4.399   0.458   9.249  2.0143  0.9198 -0.1174
  885MOL0     H19474   3.645   0.795   9.648 -1.0454  1.2540 -0.0927
  885MOL0     H19475   3.403   0.752   9.673  1.5403  1.0305 -1.4597
  886MOL0     O19476   6.790   5.208   6.711 -0.5526  0.0445  0.0076
  886MOL0     C19477   6.738   5.319   6.720 -0.1998 -0.0481 -0.0245
  886MOL0     O19478   6.628   5.351   6.655  0.5567 -0.0209  0.5466
  886MOL0     C19479   6.515   5.379   6.730 -0.6548 -0.3561  0.4204
  886MOL0     C19480   6.512   5.374   6.872 -0.0179  0.1012  0.6655
  886MOL0     C19481   6.400   5.414   6.940 -0.8404  0.0119 -0.3926
  886MOL0     C19482   6.287   5.453   6.879  0.2291  0.5049 -0.1565
  886MOL0     O19483   6.173   5.488   6.940  0.7904 -0.4521 -0.5648
  886MOL0     C19484   6.167   5.514   7.093  0.2625  0.9793  0.1894
  886MOL0     C19485   6.036   5.601   7.111  0.0994 -0.2968 -0.7057
  886MOL0     C19486   6.039   5.732   7.043  0.4827  0.3678 -0.0160
  886MOL0     C19487   6.159   5.822   7.083 -0.1433  0.7898  0.6508
  886MOL0     C19488   6.121   5.967   7.051 -0.3493 -0.4460 -0.6449
  886MOL0     C19489   6.132   5.990   6.902  0.2575 -0.8754 -0.5332
  886MOL0     C19490   6.139   6.137   6.854  0.8251 -0.4748 -0.2369
  886MOL0     C19491   6.006   6.215   6.900  0.6667  0.0629  0.3121
  886MOL0     N19492   5.891   6.160   6.819  0.3561  0.0545  0.7036
  886MOL0     C19493   5.780   6.101   6.871 -0.3550  0.0972 -0.0529
  886MOL0     C19494   5.699   6.069   6.762  0.0221 -0.3301 -0.0402
  886MOL0     C19495   5.578   5.984   6.767  1.3757 -0.4620 -0.1425
  886MOL0     C19496   5.466   6.030   6.864 -0.1600  0.0077 -0.2358
  886MOL0     C19497   5.445   6.180   6.884 -0.9720 -0.6994  0.4514
  886MOL0     C19498   5.404   6.250   6.757  0.0521  0.2348 -0.1147
  886MOL0     O19499   5.291   6.185   6.694 -0.0578  0.3480 -0.5065
  886MOL0     C19500   5.255   6.251   6.577  0.1742 -0.0695  0.2133
  886MOL0     C19501   5.243   6.178   6.454  0.1013  0.7780 -0.5304
  886MOL0     C19502   5.212   6.239   6.331 -0.0355 -0.3666 -0.6133
  886MOL0     C19503   5.219   6.149   6.208 -0.3224  0.2201 -0.7366
  886MOL0     C19504   5.186   6.384   6.340 -1.3450  0.5620 -0.2597
  886MOL0     C19505   5.153   6.463   6.220 -0.2790 -0.0609  0.3595
  886MOL0     O19506   5.137   6.397   6.100  0.0940  0.3470 -0.1500
  886MOL0     C19507   5.141   6.470   5.987 -1.0448 -0.2577 -0.4771
  886MOL0     C19508   5.051   6.571   5.966  0.2873  0.6087  0.3486
  886MOL0     C19509   5.058   6.647   5.847  0.0237 -0.4221  0.7539
  886MOL0     C19510   5.168   6.630   5.755 -0.4270 -1.1162  0.3015
  886MOL0     O19511   5.164   6.720   5.648  0.5858 -0.3498  0.0529
  886MOL0     C19512   5.280   6.757   5.573  0.3796 -0.3138 -0.2243
  886MOL0     C19513   5.259   6.851   5.448  0.0647 -0.1786 -0.6783
  886MOL0     C19514   5.168   6.979   5.482 -0.0918  0.6473  0.6150
  886MOL0     C19515   5.142   7.061   5.346  0.7923  0.3158  0.1403
  886MOL0     C19516   5.042   7.173   5.353 -0.7652 -0.1705 -0.9270
  886MOL0     C19517   4.899   7.119   5.349  0.9174  0.0505  0.0513
  886MOL0     C19518   4.799   7.235   5.344 -0.3537 -0.2682  0.4338
  886MOL0     C19519   4.756   7.284   5.478 -0.3014  0.0949 -0.7836
  886MOL0    Cl19520   4.603   7.195   5.532  0.6148  0.1247  0.6299
  886MOL0     C19521   5.250   6.518   5.775 -1.0267  0.0005 -0.4533
  886MOL0     C19522   5.236   6.439   5.889 -0.1468 -0.4067 -1.0979
  886MOL0     O19523   5.165   6.586   6.231  0.5576  1.2088 -0.3515
  886MOL0     C19524   5.170   6.446   6.465 -0.3295  0.8491 -0.5721
  886MOL0     C19525   5.206   6.379   6.580  0.1906 -0.1976  0.0469
  886MOL0     N19526   5.767   6.109   6.646  0.0611  0.2032 -0.8231
  886MOL0     N19527   5.877   6.163   6.682 -0.2249  0.0526  0.2980
  886MOL0     C19528   6.279   5.450   6.740 -0.5568  0.2091 -0.2554
  886MOL0     C19529   6.400   5.418   6.666  0.7040  0.7303 -1.2417
  886MOL0     C19530   6.815   5.431   6.788 -0.4926  0.3977 -0.5243
  886MOL0     C19531   6.920   5.404   6.876 -0.5727 -0.3852 -0.5659
  886MOL0     C19532   6.993   5.505   6.946 -0.0312  1.0252  0.5295
  886MOL0     C19533   6.960   5.642   6.925  0.0436 -0.5380  0.2067
  886MOL0     O19534   7.026   5.738   6.994 -0.0353 -0.4010 -0.6394
  886MOL0     C19535   7.062   5.701   7.127  0.1627  0.1903  0.1902
  886MOL0     C19536   7.075   5.839   7.204 -0.1547 -0.5799  0.5901
  886MOL0     C19537   7.061   5.851   7.361 -0.1360  1.3104  1.2240
  886MOL0     C19538   7.070   5.997   7.412 -0.2291 -0.1037  0.4178
  886MOL0     C19539   6.949   6.069   7.374  0.5318 -1.2120  0.4176
  886MOL0     C19540   6.849   6.137   7.359 -0.7869 -0.3182 -0.4954
  886MOL0     C19541   6.858   5.671   6.834 -0.1248 -0.0197  0.5627
  886MOL0     C19542   6.790   5.564   6.766  0.1496 -0.7350 -0.4434
  886MOL0     H19543   6.597   5.342   6.932  2.1953 -0.3084 -2.4289
  886MOL0     H19544   6.417   5.419   7.047  1.5922  0.3830 -0.7429
  886MOL0     H19545   6.168   5.417   7.142  1.7060 -0.2570 -2.0823
  886MOL0     H19546   6.252   5.570   7.132  2.4994  0.4531 -3.4395
  886MOL0     H19547   5.954   5.541   7.069  0.4645 -1.7661  0.5671
  886MOL0     H19548   6.014   5.595   7.218  2.4876 -2.4566 -0.2180
  886MOL0     H19549   6.038   5.720   6.935  1.4928 -1.5125  0.1360
  886MOL0     H19550   5.946   5.776   7.079 -0.7990 -2.1545 -0.0551
  886MOL0     H19551   6.185   5.813   7.189  0.2058 -2.3291  0.3754
  886MOL0     H19552   6.254   5.794   7.037  0.4898 -1.5487  3.1687
  886MOL0     H19553   6.019   5.992   7.080 -0.3859 -2.2249  0.9240
  886MOL0     H19554   6.186   6.041   7.097 -0.2033 -1.5905  1.0684
  886MOL0     H19555   6.214   5.932   6.859 -0.8218 -1.9016 -1.2694
  886MOL0     H19556   6.054   5.937   6.847 -1.4050 -0.0109  0.9027
  886MOL0     H19557   6.236   6.181   6.879  1.3503 -1.5399 -0.3710
  886MOL0     H19558   6.142   6.131   6.745 -0.1175 -2.1188 -0.2047
  886MOL0     H19559   6.017   6.319   6.870 -1.1772 -0.0425 -0.9079
  886MOL0     H19560   5.985   6.207   7.007 -0.2283  1.0429  0.2295
  886MOL0     H19561   5.765   6.079   6.976  1.4839 -3.2206 -0.3352
  886MOL0     H19562   5.530   5.996   6.669  0.3079  1.4071  0.5662
  886MOL0     H19563   5.597   5.877   6.780  0.0279 -0.6246  0.6706
  886MOL0     H19564   5.483   5.981   6.960 -2.1296  0.0959  0.2051
  886MOL0     H19565   5.366   5.994   6.839 -0.3643 -1.0139  1.8566
  886MOL0     H19566   5.542   6.211   6.922 -0.8603 -1.1734  0.5682
  886MOL0     H19567   5.373   6.203   6.963 -1.4679  2.4219 -0.7943
  886MOL0     H19568   5.479   6.252   6.677  1.2097 -0.8102  0.9132
  886MOL0     H19569   5.375   6.351   6.786  1.0832  0.6467 -0.4944
  886MOL0     H19570   5.256   6.072   6.473 -4.2066  0.7244  4.2149
  886MOL0     H19571   5.121   6.123   6.167 -0.0670  0.0229 -1.2292
  886MOL0     H19572   5.287   6.196   6.136  2.4988  0.1702  1.7317
  886MOL0     H19573   5.273   6.056   6.227 -2.2288 -0.5700  1.2289
  886MOL0     H19574   4.972   6.596   6.037 -1.0089  0.1184 -0.8844
  886MOL0     H19575   4.997   6.737   5.844  2.4940  1.4755  2.9558
  886MOL0     H19576   5.363   6.797   5.633  0.7458  1.9513 -2.1177
  886MOL0     H19577   5.317   6.662   5.535 -0.4560 -1.6160  2.0215
  886MOL0     H19578   5.357   6.874   5.405  1.3210 -1.5330  1.2931
  886MOL0     H19579   5.214   6.794   5.366  1.0970 -0.5039 -1.0254
  886MOL0     H19580   5.212   7.041   5.561  0.8543 -1.5783  1.9356
  886MOL0     H19581   5.075   6.935   5.520 -2.2641  0.6508 -4.0281
  886MOL0     H19582   5.241   7.099   5.320  0.3937  2.0063  0.9486
  886MOL0     H19583   5.105   7.000   5.264  2.5174  1.4407 -1.5643
  886MOL0     H19584   5.061   7.239   5.269 -1.1140  0.7847 -0.2756
  886MOL0     H19585   5.052   7.219   5.452  0.1837  0.8675 -1.4820
  886MOL0     H19586   4.877   7.062   5.258  0.9737  2.4314 -1.5399
  886MOL0     H19587   4.890   7.065   5.444 -2.0048 -1.1094 -0.7687
  886MOL0     H19588   4.716   7.191   5.288  0.7801 -1.7048 -0.1734
  886MOL0     H19589   4.840   7.320   5.287  1.1653 -0.3820  1.2945
  886MOL0     H19590   4.717   7.386   5.469  0.5177  0.3632 -1.4148
  886MOL0     H19591   4.833   7.271   5.554  0.0325  0.7835 -1.0023
  886MOL0     H19592   5.328   6.493   5.704  0.7338  2.2405  0.5756
  886MOL0     H19593   5.307   6.358   5.904  0.2117 -0.3439 -2.3592
  886MOL0     H19594   5.129   6.544   6.483 -0.0668  0.6478  1.3843
  886MOL0     H19595   5.189   6.415   6.681  1.3117 -1.1162  0.5917
  886MOL0     H19596   6.180   5.450   6.695 -0.0903  0.0053 -1.3269
  886MOL0     H19597   6.402   5.413   6.557  0.5502 -0.3877 -1.1957
  886MOL0     H19598   6.961   5.305   6.887  0.7886  0.1314 -0.7073
  886MOL0     H19599   7.077   5.477   7.008  1.7830  3.6445 -0.5367
  886MOL0     H19600   6.987   5.632   7.167  1.3010  0.2462  2.6044
  886MOL0     H19601   7.161   5.654   7.135  0.0174 -0.0671  0.4821
  886MOL0     H19602   6.999   5.901   7.157 -0.6304  0.0535  2.1271
  886MOL0     H19603   7.173   5.875   7.171  0.1844 -2.2424 -0.3135
  886MOL0     H19604   7.144   5.804   7.414 -1.7484 -0.1521  2.5745
  886MOL0     H19605   6.964   5.809   7.390 -1.4209  1.8099 -1.8846
  886MOL0     H19606   7.152   6.052   7.366 -0.9498  1.2882  0.7333
  886MOL0     H19607   7.077   6.004   7.521 -0.0530  0.9354  0.3517
  886MOL0     H19608   6.771   6.211   7.349  1.5169  2.3158 -0.1200
  886MOL0     H19609   6.843   5.777   6.816  2.2900  0.2317 -0.4225
  886MOL0     H19610   6.717   5.597   6.692  0.7466  0.6489 -0.4597
  887MOL0     O19611   6.366   9.564   7.121  0.3205  0.6780  0.8543
  887MOL0     C19612   6.450   9.542   7.210  0.9645  0.1760 -0.0242
  887MOL0     O19613   6.418   9.522   7.347 -0.5626 -0.0639 -0.3711
  887MOL0     C19614   6.291   9.538   7.401  0.1499 -0.7462  0.3023
  887MOL0     C19615   6.188   9.619   7.341  0.0160 -0.8743  0.7482
  887MOL0     C19616   6.061   9.614   7.395 -0.2410  0.3351  0.0020
  887MOL0     C19617   6.032   9.542   7.508 -0.0212  0.3140  0.0375
  887MOL0     O19618   5.899   9.534   7.544 -0.7274 -0.2542 -0.0133
  887MOL0     C19619   5.889   9.538   7.686 -0.0648 -0.1435  0.0048
  887MOL0     C19620   5.745   9.504   7.730  0.4245  0.2687 -0.7347
  887MOL0     C19621   5.640   9.585   7.651  0.1655  0.6265 -0.3004
  887MOL0     C19622   5.553   9.682   7.743  0.1339  0.5518 -0.6312
  887MOL0     C19623   5.478   9.784   7.653 -0.0805  0.3578 -0.2337
  887MOL0     C19624   5.338   9.723   7.614 -0.2531  0.8329 -0.3966
  887MOL0     C19625   5.301   9.782   7.483  0.2103 -0.1418  0.0594
  887MOL0     C19626   5.269   9.934   7.483  0.8915 -0.2064  0.3372
  887MOL0     N19627   5.149   9.979   7.558  0.1120 -0.7690  0.2372
  887MOL0     C19628   5.015   9.928   7.567 -0.6884 -0.0813 -0.7889
  887MOL0     C19629   4.950  10.018   7.644  0.7309  0.0122 -1.2213
  887MOL0     C19630   4.799  10.015   7.678 -0.1294 -0.3446  0.0900
  887MOL0     C19631   4.727  10.102   7.573 -0.0855  0.2924 -0.9736
  887MOL0     C19632   4.582  10.067   7.551 -0.5131  0.1206 -0.8115
  887MOL0     C19633   4.503  10.159   7.460 -0.1919 -0.5588  0.5704
  887MOL0     O19634   4.533  10.153   7.322 -0.2951 -0.2587 -0.8544
  887MOL0     C19635   4.437  10.207   7.240 -0.1600 -1.2552  0.0121
  887MOL0     C19636   4.417  10.340   7.243  0.0415  0.0529  0.1392
  887MOL0     C19637   4.312  10.409   7.175 -0.2879  0.2870 -0.7306
  887MOL0     C19638   4.339  10.559   7.171  0.0612  0.5507  0.2875
  887MOL0     C19639   4.220  10.325   7.096  0.0260 -0.2113 -0.3121
  887MOL0     C19640   4.116  10.390   7.015 -0.1783 -0.5861  0.0182
  887MOL0     O19641   4.071  10.520   7.058 -0.3971 -0.0677  0.4989
  887MOL0     C19642   3.981  10.594   6.985 -0.2290  0.2074  0.4680
  887MOL0     C19643   4.008  10.733   6.993 -0.4013  0.7235  0.5236
  887MOL0     C19644   3.917  10.820   6.925  0.4000  0.2366  0.4033
  887MOL0     C19645   3.811  10.767   6.850  0.4540  0.2558  0.4030
  887MOL0     O19646   3.714  10.837   6.783  0.2732  0.6042  0.2700
  887MOL0     C19647   3.726  10.980   6.765  0.2961  0.6921  0.5747
  887MOL0     C19648   3.605  11.045   6.669 -0.0759  0.1073  0.1718
  887MOL0     C19649   3.590  10.968   6.543  0.9368 -0.0720  0.0809
  887MOL0     C19650   3.472  11.026   6.473 -0.8822  1.0332  0.6548
  887MOL0     C19651   3.463  10.977   6.329 -0.5263  0.2109  0.1730
  887MOL0     C19652   3.326  10.999   6.271 -0.1212  0.4302  0.8682
  887MOL0     C19653   3.331  11.036   6.116  0.2599 -0.3985 -0.8769
  887MOL0     C19654   3.212  10.981   6.053 -0.3962 -0.7315 -0.5836
  887MOL0    Cl19655   3.067  11.034   6.138 -0.0661  0.3731 -0.3741
  887MOL0     C19656   3.805  10.638   6.828 -0.0331  0.5678 -0.1882
  887MOL0     C19657   3.889  10.548   6.893 -2.2445  0.3840  0.0860
  887MOL0     O19658   4.083  10.328   6.918 -0.2603 -0.7130 -0.8662
  887MOL0     C19659   4.249  10.185   7.089  0.3782  0.1540  0.5138
  887MOL0     C19660   4.358  10.126   7.156 -0.2280 -0.2402  0.1042
  887MOL0     N19661   5.034  10.116   7.674  0.2613  0.0481 -0.4405
  887MOL0     N19662   5.151  10.095   7.628  0.3593  0.7234 -0.3648
  887MOL0     C19663   6.136   9.466   7.558  0.4715  0.2844 -0.5169
  887MOL0     C19664   6.258   9.458   7.510 -0.5795  0.4129 -0.6507
  887MOL0     C19665   6.584   9.538   7.173 -0.0180  0.7603 -0.6242
  887MOL0     C19666   6.663   9.415   7.182  0.1563 -0.5819 -0.3785
  887MOL0     C19667   6.795   9.411   7.144  0.7404 -0.3031  0.1801
  887MOL0     C19668   6.853   9.524   7.086 -0.3763  0.8233 -0.0605
  887MOL0     O19669   6.986   9.514   7.041 -0.2360  0.6000 -0.0335
  887MOL0     C19670   7.072   9.397   7.049  0.7821 -0.3175 -1.0056
  887MOL0     C19671   7.210   9.438   7.013 -0.0867  0.1682  0.8635
  887MOL0     C19672   7.296   9.304   7.006  0.1142  0.8356  0.1539
  887MOL0     C19673   7.439   9.340   6.972  0.2591  0.4821 -0.1539
  887MOL0     C19674   7.524   9.220   6.987  0.2090 -0.8186 -0.0878
  887MOL0     C19675   7.594   9.119   6.986 -0.3872 -0.7193  0.7579
  887MOL0     C19676   6.789   9.649   7.071 -0.8905 -0.5172 -0.5474
  887MOL0     C19677   6.659   9.653   7.120  0.3294 -0.3866  0.3324
  887MOL0     H19678   6.211   9.688   7.261  0.4084 -0.0068  1.5815
  887MOL0     H19679   5.975   9.662   7.350  0.1218  2.1639  1.1289
  887MOL0     H19680   5.957   9.473   7.741  1.7633  0.5755 -1.3367
  887MOL0     H19681   5.921   9.640   7.710  0.5380 -0.6327  1.4007
  887MOL0     H19682   5.724   9.397   7.725 -1.9202  0.7345 -2.1529
  887MOL0     H19683   5.741   9.540   7.833  0.0184  1.8875 -1.2924
  887MOL0     H19684   5.683   9.637   7.566 -1.1250  3.4995  0.6632
  887MOL0     H19685   5.565   9.516   7.612 -0.3076 -1.5357  3.8531
  887MOL0     H19686   5.485   9.618   7.800  0.8446 -0.6171 -1.0446
  887MOL0     H19687   5.618   9.729   7.817  1.2593 -1.2695 -0.3904
  887MOL0     H19688   5.468   9.874   7.713 -1.9960  0.2680 -0.3765
  887MOL0     H19689   5.543   9.809   7.568 -1.5299 -0.8855 -1.7761
  887MOL0     H19690   5.338   9.614   7.614 -2.5556  0.7561  1.1650
  887MOL0     H19691   5.267   9.739   7.696 -1.4860 -1.4610 -0.9394
  887MOL0     H19692   5.375   9.766   7.404  2.4227  3.0149  1.2338
  887MOL0     H19693   5.212   9.727   7.453 -1.0982  0.8001  2.0021
  887MOL0     H19694   5.249   9.973   7.383  2.2407  4.2295  1.5765
  887MOL0     H19695   5.353   9.998   7.513  0.4414  0.2767  0.5763
  887MOL0     H19696   4.981   9.836   7.521  0.0792 -1.9289  2.0990
  887MOL0     H19697   4.754   9.916   7.666  3.2319 -2.0122  0.0605
  887MOL0     H19698   4.780  10.051   7.780 -2.7393  1.0402 -0.7895
  887MOL0     H19699   4.778  10.106   7.476  2.7080  0.4713  0.3996
  887MOL0     H19700   4.734  10.204   7.612  1.3681  0.0132 -0.4427
  887MOL0     H19701   4.539  10.078   7.651  1.1831  2.9682 -0.2972
  887MOL0     H19702   4.577   9.963   7.517  1.8870 -0.3415  0.0995
  887MOL0     H19703   4.520  10.263   7.489 -0.3709 -0.2123 -0.5211
  887MOL0     H19704   4.399  10.126   7.459 -0.7484  0.9861 -1.5347
  887MOL0     H19705   4.489  10.400   7.297 -0.7799  0.7704  0.4507
  887MOL0     H19706   4.368  10.587   7.069  3.1173 -2.0440  0.3164
  887MOL0     H19707   4.251  10.616   7.205 -0.3399 -0.4835  1.0299
  887MOL0     H19708   4.421  10.580   7.240 -1.3232  0.5644  2.0227
  887MOL0     H19709   4.086  10.766   7.061  0.5162  0.5140 -0.4040
  887MOL0     H19710   3.932  10.923   6.955  1.0980  0.1568  0.3358
  887MOL0     H19711   3.722  11.021   6.867 -1.4296  0.0430  0.8045
  887MOL0     H19712   3.828  10.997   6.729 -0.0300 -0.5597 -1.0329
  887MOL0     H19713   3.509  11.049   6.722 -1.6993  2.7364 -2.6590
  887MOL0     H19714   3.641  11.144   6.640 -0.3162  0.2890  0.4852
  887MOL0     H19715   3.580  10.861   6.562 -1.1329 -0.3390 -2.0277
  887MOL0     H19716   3.676  10.987   6.479  0.3294 -0.3686 -0.8394
  887MOL0     H19717   3.388  10.984   6.530  0.3505 -1.1308  0.9987
  887MOL0     H19718   3.458  11.134   6.475  0.0747  1.1999 -0.6698
  887MOL0     H19719   3.486  10.870   6.323  0.1130  0.4168 -2.0397
  887MOL0     H19720   3.536  11.035   6.273 -1.7011  0.0378 -1.6305
  887MOL0     H19721   3.274  10.904   6.280  0.2737  0.2015  0.7518
  887MOL0     H19722   3.260  11.064   6.329  0.0758  0.6814  0.8160
  887MOL0     H19723   3.421  10.993   6.071  0.6724  0.9369 -1.3619
  887MOL0     H19724   3.336  11.145   6.118 -0.3723 -0.3661 -0.5410
  887MOL0     H19725   3.226  10.874   6.068  5.0049 -0.0297  1.4557
  887MOL0     H19726   3.204  10.996   5.945  1.4336 -1.6998 -0.8911
  887MOL0     H19727   3.737  10.609   6.748 -1.7107 -0.1172  1.4380
  887MOL0     H19728   3.885  10.444   6.865 -2.8613  0.5473 -0.4658
  887MOL0     H19729   4.193  10.115   7.026  0.6163 -0.0246  0.4983
  887MOL0     H19730   4.388  10.022   7.148  3.9238  0.5823  2.2629
  887MOL0     H19731   6.113   9.402   7.643 -1.0939  2.0602  0.4738
  887MOL0     H19732   6.338   9.393   7.545 -0.5374  0.5734 -0.4424
  887MOL0     H19733   6.613   9.326   7.220  0.8881 -1.9942 -2.4958
  887MOL0     H19734   6.854   9.320   7.152  1.7241  0.2395 -0.7266
  887MOL0     H19735   7.062   9.349   7.147 -0.2228  1.5046 -0.1788
  887MOL0     H19736   7.033   9.319   6.983 -2.7054  0.5403 -0.1368
  887MOL0     H19737   7.247   9.511   7.085  0.3695  1.0888 -0.2772
  887MOL0     H19738   7.214   9.481   6.912  1.0101  0.5044  1.0287
  887MOL0     H19739   7.261   9.229   6.934 -0.4514 -0.6747  1.9539
  887MOL0     H19740   7.285   9.260   7.105  2.2030 -0.1503 -0.0014
  887MOL0     H19741   7.477   9.420   7.037  2.1868  1.3624 -2.1876
  887MOL0     H19742   7.433   9.380   6.870 -6.7438  0.8786 -0.0532
  887MOL0     H19743   7.644   9.025   6.990  0.5167 -0.2220  3.0542
  887MOL0     H19744   6.844   9.730   7.026  0.7177  0.4846  2.8932
  887MOL0     H19745   6.611   9.748   7.099  0.2647 -0.2734  0.9758
  888MOL0     O19746   7.140   6.967   4.548  0.1757 -0.2519 -0.0218
  888MOL0     C19747   7.184   6.981   4.433  0.0224 -0.2850  0.5939
  888MOL0     O19748   7.115   6.948   4.316 -0.6274 -0.3771  0.0964
  888MOL0     C19749   6.975   6.937   4.335  1.0636  0.8355 -0.3502
  888MOL0     C19750   6.908   6.848   4.251  0.4122  0.1040  0.2047
  888MOL0     C19751   6.768   6.828   4.247  0.1702  1.3203 -0.4374
  888MOL0     C19752   6.678   6.908   4.319 -0.9850 -0.2052 -0.1737
  888MOL0     O19753   6.545   6.889   4.306 -0.0586 -0.2595 -0.4083
  888MOL0     C19754   6.459   6.998   4.331 -0.4766  1.0406 -0.8954
  888MOL0     C19755   6.312   6.969   4.325 -0.7082 -0.3982  0.6105
  888MOL0     C19756   6.261   6.953   4.184  0.0989  0.4713 -0.4133
  888MOL0     C19757   6.260   6.805   4.144  0.3656  0.9044 -0.2990
  888MOL0     C19758   6.245   6.794   3.997 -0.3662  0.1546  0.4648
  888MOL0     C19759   6.121   6.857   3.934 -0.1079  0.5974 -0.2304
  888MOL0     C19760   5.996   6.784   3.984 -0.1519  0.1555  0.3599
  888MOL0     C19761   5.868   6.860   3.974  0.5769  0.4037 -0.6147
  888MOL0     N19762   5.852   6.938   4.103  0.0232  1.1441  1.1118
  888MOL0     C19763   5.784   6.911   4.216  0.2739  0.4192 -0.1529
  888MOL0     C19764   5.766   7.032   4.279  0.3056  0.3285 -0.0365
  888MOL0     C19765   5.711   7.043   4.424  0.3464  0.2475  1.2320
  888MOL0     C19766   5.566   7.000   4.417  0.4555  0.0715  0.1358
  888MOL0     C19767   5.479   7.027   4.541 -0.8204  0.2733  0.0891
  888MOL0     C19768   5.338   6.987   4.515 -0.0124 -0.7044 -0.3542
  888MOL0     O19769   5.262   6.997   4.629 -0.1118  0.1617  0.1320
  888MOL0     C19770   5.124   7.018   4.619 -0.9134 -0.2048  0.2293
  888MOL0     C19771   5.061   7.021   4.745  0.4933 -0.2353 -0.9670
  888MOL0     C19772   4.923   7.040   4.749  0.5580 -0.7015  0.7941
  888MOL0     C19773   4.852   7.030   4.881 -0.2975  0.2640  0.3264
  888MOL0     C19774   4.846   7.074   4.633 -0.6221  0.2078 -0.0587
  888MOL0     C19775   4.702   7.100   4.622  0.6303  0.7915 -0.9275
  888MOL0     O19776   4.631   7.146   4.732  0.3503 -0.3440 -0.3158
  888MOL0     C19777   4.487   7.148   4.731 -0.4661  0.3910  0.0240
  888MOL0     C19778   4.407   7.046   4.682 -0.7778 -0.9645  0.7462
  888MOL0     C19779   4.268   7.046   4.695  0.0221 -0.4469  1.4742
  888MOL0     C19780   4.210   7.156   4.757 -0.6799 -0.1314 -0.4198
  888MOL0     O19781   4.076   7.144   4.757  0.2267  0.7598 -0.0973
  888MOL0     C19782   4.004   7.245   4.830 -0.5765  0.5139  0.1218
  888MOL0     C19783   3.856   7.215   4.854 -0.3458  0.5789  0.3456
  888MOL0     C19784   3.784   7.342   4.892  0.1459  0.3620 -0.5786
  888MOL0     C19785   3.645   7.309   4.942 -0.2498 -0.5388  0.3164
  888MOL0     C19786   3.586   7.437   5.004 -0.5482 -0.4999  0.5964
  888MOL0     C19787   3.465   7.409   5.100  0.7685 -0.2920 -0.8379
  888MOL0     C19788   3.398   7.532   5.143  0.4539 -0.1302 -0.2837
  888MOL0     C19789   3.244   7.510   5.172  0.5380  0.8837 -0.0674
  888MOL0    Cl19790   3.153   7.492   5.008 -0.0697 -0.4102 -0.3422
  888MOL0     C19791   4.289   7.257   4.802  0.8469  0.0166 -0.0119
  888MOL0     C19792   4.429   7.253   4.794  0.4626 -1.2049  0.5746
  888MOL0     O19793   4.647   7.084   4.514 -0.7575  0.4402 -0.0702
  888MOL0     C19794   4.910   7.064   4.507 -1.1965  0.1497 -0.2902
  888MOL0     C19795   5.047   7.039   4.504 -0.1332 -0.6827 -0.0630
  888MOL0     N19796   5.837   7.133   4.208 -0.8848  0.1425  0.5252
  888MOL0     N19797   5.879   7.071   4.104  0.2332 -0.4275  0.2261
  888MOL0     C19798   6.744   7.006   4.390  0.8582 -0.5270 -0.6497
  888MOL0     C19799   6.887   7.019   4.401 -0.3220 -0.4975  0.3220
  888MOL0     C19800   7.320   7.038   4.427 -1.4410  0.5597 -0.4997
  888MOL0     C19801   7.388   7.021   4.307 -0.4070 -0.4877 -0.6109
  888MOL0     C19802   7.523   7.060   4.293  1.5441  0.1695  0.1279
  888MOL0     C19803   7.585   7.133   4.399 -0.5881  0.3326  0.6434
  888MOL0     O19804   7.709   7.192   4.385  0.1002 -0.1168  0.0233
  888MOL0     C19805   7.798   7.148   4.286 -1.5908  0.2419  0.5419
  888MOL0     C19806   7.938   7.217   4.306  0.1379  0.5084 -0.6060
  888MOL0     C19807   7.921   7.367   4.306 -0.0382 -0.5684 -0.4425
  888MOL0     C19808   8.043   7.436   4.370  0.4809 -0.4136  0.1755
  888MOL0     C19809   8.167   7.420   4.300 -0.7451  0.2885  0.8695
  888MOL0     C19810   8.272   7.414   4.239 -0.5526  0.5066 -0.3434
  888MOL0     C19811   7.516   7.158   4.517  0.5383 -0.7669 -0.7272
  888MOL0     C19812   7.387   7.114   4.527 -0.3815  0.6268  0.3977
  888MOL0     H19813   6.975   6.804   4.178 -1.2632  1.1972 -2.1124
  888MOL0     H19814   6.717   6.750   4.191  0.5949  0.7901 -0.0940
  888MOL0     H19815   6.472   7.030   4.435 -2.4857  1.3350 -0.6976
  888MOL0     H19816   6.475   7.083   4.265  0.4574 -0.1307 -2.2369
  888MOL0     H19817   6.291   6.877   4.382 -1.0037 -0.3767  0.5401
  888MOL0     H19818   6.259   7.052   4.371  1.7548  0.9973  1.1051
  888MOL0     H19819   6.156   6.983   4.176  0.2940  1.3805  0.2047
  888MOL0     H19820   6.316   7.014   4.112 -2.3023 -0.5519 -3.2963
  888MOL0     H19821   6.348   6.752   4.182  2.3380  2.4012 -2.5390
  888MOL0     H19822   6.181   6.752   4.199  0.1690  0.5390 -0.9087
  888MOL0     H19823   6.337   6.834   3.953  1.1537  0.0058  3.2847
  888MOL0     H19824   6.230   6.691   3.963 -0.9861 -0.1100  1.4874
  888MOL0     H19825   6.117   6.966   3.943 -1.8944  0.6299 -1.0105
  888MOL0     H19826   6.137   6.848   3.826  0.3890  0.6046 -0.1576
  888MOL0     H19827   5.991   6.691   3.926 -0.3581  1.2234 -1.4082
  888MOL0     H19828   5.999   6.749   4.088 -0.6639 -0.0850  0.2949
  888MOL0     H19829   5.777   6.798   3.970  0.3079  0.7600 -0.1517
  888MOL0     H19830   5.874   6.927   3.888 -1.1272  1.3599 -0.0299
  888MOL0     H19831   5.739   6.822   4.258 -2.6073  1.4934 -0.7153
  888MOL0     H19832   5.759   6.975   4.495  1.6855  0.7704  0.8532
  888MOL0     H19833   5.726   7.150   4.444  0.2919  0.5415 -0.1879
  888MOL0     H19834   5.555   6.895   4.391  0.4566  0.0547  0.2029
  888MOL0     H19835   5.519   7.055   4.335  0.5020 -0.6866 -0.4046
  888MOL0     H19836   5.477   7.134   4.567 -4.0955 -0.1750  2.2687
  888MOL0     H19837   5.515   6.971   4.627 -3.0138 -2.6331 -0.7236
  888MOL0     H19838   5.323   6.882   4.489 -2.9107 -1.1962  2.6512
  888MOL0     H19839   5.294   7.052   4.439 -3.4560 -1.2598  0.9796
  888MOL0     H19840   5.109   7.000   4.840  0.3524  1.5294 -0.4674
  888MOL0     H19841   4.804   7.118   4.925 -2.6068 -0.8523  0.1753
  888MOL0     H19842   4.774   6.954   4.876  0.1411 -0.0918 -2.0027
  888MOL0     H19843   4.926   6.988   4.951 -0.5936 -1.1599 -0.1822
  888MOL0     H19844   4.457   6.968   4.626 -0.4761  1.4604 -2.6937
  888MOL0     H19845   4.201   6.968   4.661  0.7044 -0.2042 -0.5489
  888MOL0     H19846   4.057   7.263   4.924  3.9790  2.3503 -2.4998
  888MOL0     H19847   4.005   7.342   4.779 -1.1607  1.7883  2.3639
  888MOL0     H19848   3.823   7.167   4.761 -0.6792 -2.1635  1.7695
  888MOL0     H19849   3.850   7.138   4.931  2.6050  0.7797  0.8716
  888MOL0     H19850   3.778   7.418   4.813  2.0773 -0.5571 -1.6890
  888MOL0     H19851   3.844   7.383   4.974  2.7613  0.6324 -2.4810
  888MOL0     H19852   3.586   7.262   4.863  1.9370 -1.1859 -0.9883
  888MOL0     H19853   3.658   7.232   5.018  0.2493  0.6133  1.4475
  888MOL0     H19854   3.553   7.501   4.922  0.2839 -3.6456 -2.4005
  888MOL0     H19855   3.658   7.497   5.061 -0.1582 -0.8480  0.4731
  888MOL0     H19856   3.392   7.350   5.042  0.9636 -4.5279  2.7090
  888MOL0     H19857   3.514   7.362   5.185  1.6650  0.9978 -0.6164
  888MOL0     H19858   3.393   7.617   5.075 -0.9403 -0.9966 -1.3210
  888MOL0     H19859   3.438   7.577   5.234 -0.5706  1.5025 -0.5872
  888MOL0     H19860   3.204   7.589   5.237 -0.0398 -0.2884  1.0380
  888MOL0     H19861   3.226   7.419   5.230  3.4573 -1.8540 -3.0734
  888MOL0     H19862   4.241   7.346   4.841  1.0435  0.5161 -0.8851
  888MOL0     H19863   4.491   7.328   4.843 -1.5978  0.8761  0.1947
  888MOL0     H19864   4.865   7.093   4.412  1.3693  0.6734 -1.4238
  888MOL0     H19865   5.102   7.020   4.413 -0.3631 -0.6443 -0.2083
  888MOL0     H19866   6.694   7.075   4.458  0.9463 -0.2141 -0.8989
  888MOL0     H19867   6.929   7.095   4.467 -1.4507  0.3332  0.1008
  888MOL0     H19868   7.334   6.981   4.222  2.3346  0.4504 -2.9332
  888MOL0     H19869   7.573   7.042   4.198 -1.7809  0.0928 -1.7601
  888MOL0     H19870   7.827   7.042   4.286  1.2073  0.9231  0.8255
  888MOL0     H19871   7.751   7.167   4.189 -2.5749 -0.0541  0.9524
  888MOL0     H19872   8.009   7.175   4.234  0.8965  1.4695 -0.4375
  888MOL0     H19873   7.964   7.193   4.409 -0.6697  0.7314 -0.3434
  888MOL0     H19874   7.831   7.396   4.362  1.1539 -2.8696  3.0040
  888MOL0     H19875   7.913   7.404   4.204  0.7354  0.9955  0.0278
  888MOL0     H19876   8.050   7.404   4.474  0.9901 -3.5938 -0.6991
  888MOL0     H19877   8.022   7.543   4.362 -1.3484 -0.8549 -4.6689
  888MOL0     H19878   8.365   7.421   4.186 -1.2142 -1.2065 -1.8165
  888MOL0     H19879   7.557   7.223   4.595  0.6453  1.3711 -2.4660
  888MOL0     H19880   7.327   7.134   4.615 -0.6661  0.5267  0.2284
  889MOL0     O19881   3.454   7.546   9.625  0.1549  0.1009 -0.0990
  889MOL0     C19882   3.483   7.651   9.688 -0.7740  0.0526  0.0860
  889MOL0     O19883   3.422   7.772   9.681 -0.1382  0.5722  0.3267
  889MOL0     C19884   3.318   7.785   9.600 -0.4891  0.3370 -0.0098
  889MOL0     C19885   3.191   7.803   9.666 -0.8540  0.4918 -0.8114
  889MOL0     C19886   3.080   7.819   9.596  0.1314  0.2810 -0.4581
  889MOL0     C19887   3.083   7.808   9.456  0.1943  0.3058  0.1696
  889MOL0     O19888   2.971   7.808   9.377  0.0272  0.0844  0.3249
  889MOL0     C19889   2.845   7.768   9.440 -0.2600 -0.2750 -0.2913
  889MOL0     C19890   2.733   7.717   9.343 -0.4560 -0.2269 -0.2050
  889MOL0     C19891   2.725   7.560   9.334 -0.1246 -0.1094 -0.0328
  889MOL0     C19892   2.633   7.498   9.438  0.4900 -0.8599  0.1768
  889MOL0     C19893   2.487   7.558   9.415  0.0001 -0.3921 -0.5148
  889MOL0     C19894   2.380   7.450   9.450 -1.0804 -0.7706  0.1636
  889MOL0     C19895   2.243   7.514   9.421 -0.2682 -0.1320 -0.4606
  889MOL0     C19896   2.135   7.395   9.430 -0.2241  0.2641 -0.2443
  889MOL0     N19897   1.995   7.426   9.418  0.4704 -0.2576  0.0272
  889MOL0     C19898   1.933   7.509   9.501 -0.8742  1.1426  0.1139
  889MOL0     C19899   1.810   7.525   9.456  0.1619  0.8938 -0.9609
  889MOL0     C19900   1.705   7.598   9.540  0.3877 -0.1367  0.6649
  889MOL0     C19901   1.571   7.566   9.493  0.2873 -0.4680  0.2185
  889MOL0     C19902   1.471   7.658   9.564  0.6643  0.6112  0.1281
  889MOL0     C19903   1.324   7.626   9.551 -0.0900  0.5104  0.6155
  889MOL0     O19904   1.290   7.611   9.413 -0.9245  0.5236  0.0279
  889MOL0     C19905   1.165   7.654   9.395  0.6097 -0.0670 -0.4082
  889MOL0     C19906   1.059   7.574   9.453  0.2150  1.0865  0.7391
  889MOL0     C19907   0.923   7.608   9.431 -0.6375  0.4413  0.0698
  889MOL0     C19908   0.821   7.499   9.479 -1.1362 -0.0492  0.4842
  889MOL0     C19909   0.892   7.739   9.383 -0.2565  0.8444  0.0089
  889MOL0     C19910   0.747   7.787   9.360  0.7062  0.2053  0.0045
  889MOL0     O19911   0.726   7.874   9.262 -0.0050 -0.2571  0.6367
  889MOL0     C19912   0.615   7.957   9.272  0.9431  0.0292  0.5147
  889MOL0     C19913   0.483   7.917   9.289  0.2943 -0.3711  0.0648
  889MOL0     C19914   0.386   8.008   9.316 -0.5561 -0.8860  0.0362
  889MOL0     C19915   0.416   8.145   9.326  0.0294 -0.5744  0.3764
  889MOL0     O19916   0.325   8.247   9.347 -0.1079  0.4236 -0.0716
  889MOL0     C19917   0.201   8.215   9.421  0.3240  0.5987 -0.0097
  889MOL0     C19918   0.124   8.348   9.437  0.3367 -0.4564  0.4143
  889MOL0     C19919   0.163   8.420   9.564  0.1710  0.3852 -0.1764
  889MOL0     C19920   0.083   8.550   9.572  0.2390  0.2463 -0.2996
  889MOL0     C19921   0.114   8.622   9.701  0.5569  0.5212 -0.1471
  889MOL0     C19922   0.036   8.570   9.827  0.2608  0.4774  0.0433
  889MOL0     C19923   0.140   8.549   9.945 -0.0652 -0.1130  0.2875
  889MOL0     C19924   0.188   8.689   9.984 -0.1032  0.2091 -0.1780
  889MOL0    Cl19925   0.333   8.680  10.092 -0.1165  0.2670  0.2122
  889MOL0     C19926   0.545   8.189   9.302 -0.1007 -0.2123 -0.0329
  889MOL0     C19927   0.643   8.094   9.270  0.6371  0.4554 -0.2919
  889MOL0     O19928   0.658   7.747   9.432 -0.3894 -0.9774 -0.0615
  889MOL0     C19929   0.999   7.822   9.338  0.4052  0.7700  0.3406
  889MOL0     C19930   1.131   7.771   9.332 -0.0844 -0.2223  0.8164
  889MOL0     N19931   1.802   7.462   9.337 -0.2534  0.2441  0.6414
  889MOL0     N19932   1.916   7.407   9.311  0.0484  0.0523 -0.5112
  889MOL0     C19933   3.207   7.790   9.393 -0.5885 -0.0825  0.5159
  889MOL0     C19934   3.329   7.780   9.467  0.4083  0.1309  0.2133
  889MOL0     C19935   3.612   7.640   9.766  0.5300 -0.0976 -0.4824
  889MOL0     C19936   3.676   7.527   9.804 -0.2583 -0.2102  0.6224
  889MOL0     C19937   3.803   7.527   9.868 -1.0739 -0.0306 -0.3404
  889MOL0     C19938   3.867   7.646   9.901  0.0321  0.2732 -1.3537
  889MOL0     O19939   3.986   7.650   9.972 -0.1303 -0.3485 -0.2482
  889MOL0     C19940   4.015   7.774  10.046 -0.2232 -0.3681  0.1459
  889MOL0     C19941   4.136   7.770  10.148 -0.3874  0.1543  0.2587
  889MOL0     C19942   4.101   7.669  10.262 -0.0247  0.1571  0.3735
  889MOL0     C19943   4.226   7.648  10.340 -0.1983 -0.1493  0.7045
  889MOL0     C19944   4.191   7.604  10.472  0.2649  0.7479  0.5418
  889MOL0     C19945   4.158   7.572  10.580  0.1057  0.0337  0.5746
  889MOL0     C19946   3.790   7.769   9.868 -0.8816 -0.2805  0.3876
  889MOL0     C19947   3.669   7.760   9.803 -0.0308  1.0030  0.1619
  889MOL0     H19948   3.199   7.804   9.774  0.4100 -0.5415 -0.8699
  889MOL0     H19949   2.987   7.841   9.648  0.1307  1.6740 -1.0187
  889MOL0     H19950   2.868   7.692   9.515 -0.0423 -1.0783 -1.1566
  889MOL0     H19951   2.796   7.849   9.495 -0.4461 -1.3953  1.2684
  889MOL0     H19952   2.634   7.754   9.371 -0.4601 -0.4211  0.0327
  889MOL0     H19953   2.759   7.762   9.247  0.1607  0.4824  0.2843
  889MOL0     H19954   2.690   7.543   9.232 -2.0052 -1.0849  0.7343
  889MOL0     H19955   2.825   7.518   9.347  0.2585  0.4266 -1.1442
  889MOL0     H19956   2.639   7.390   9.428  2.4385 -0.6882 -1.1138
  889MOL0     H19957   2.674   7.531   9.534  1.4401  0.5125 -0.6593
  889MOL0     H19958   2.466   7.647   9.475 -3.2465 -1.6772  0.4311
  889MOL0     H19959   2.489   7.582   9.308  0.3185  0.1370 -0.3947
  889MOL0     H19960   2.397   7.361   9.388  1.6837  0.9791 -1.8587
  889MOL0     H19961   2.389   7.424   9.556  1.9417  1.1708  0.4972
  889MOL0     H19962   2.225   7.590   9.498  0.5643 -0.0547 -0.3403
  889MOL0     H19963   2.246   7.569   9.327 -0.5914  2.0410  0.7229
  889MOL0     H19964   2.153   7.345   9.525 -0.8782 -2.0348 -1.2581
  889MOL0     H19965   2.144   7.322   9.349 -1.7485  0.7605 -0.9130
  889MOL0     H19966   1.969   7.544   9.597  2.0885  1.3872 -0.9825
  889MOL0     H19967   1.711   7.560   9.642  2.0181 -0.5479  0.4505
  889MOL0     H19968   1.733   7.703   9.527 -1.7605  0.3081 -1.0675
  889MOL0     H19969   1.554   7.459   9.510 -1.6546 -0.1419  0.5345
  889MOL0     H19970   1.554   7.585   9.386 -0.2501 -1.8750  0.0265
  889MOL0     H19971   1.474   7.760   9.524 -0.1674  0.5382 -0.1333
  889MOL0     H19972   1.490   7.662   9.671  0.4212 -0.9393  0.2503
  889MOL0     H19973   1.251   7.691   9.598  0.3507 -0.7301  3.1847
  889MOL0     H19974   1.299   7.532   9.600 -3.2971  1.5096  1.0880
  889MOL0     H19975   1.084   7.486   9.511  2.1154  0.6479 -0.6342
  889MOL0     H19976   0.884   7.412   9.500 -1.0362 -0.1192 -0.1030
  889MOL0     H19977   0.776   7.534   9.572 -1.3691 -0.7039  0.6206
  889MOL0     H19978   0.738   7.489   9.408 -0.9548 -0.4396  0.3236
  889MOL0     H19979   0.458   7.812   9.298 -1.2538  0.0924  1.8039
  889MOL0     H19980   0.282   7.978   9.327 -1.9411  2.4542 -2.2903
  889MOL0     H19981   0.140   8.138   9.372  0.5028  0.6468 -0.3108
  889MOL0     H19982   0.234   8.178   9.518  1.5079  3.2468  0.7015
  889MOL0     H19983   0.140   8.415   9.352 -1.3308  1.2018  1.3325
  889MOL0     H19984   0.017   8.326   9.431  0.6829 -1.9119 -3.5757
  889MOL0     H19985   0.270   8.443   9.566  0.8757 -2.5586  0.1527
  889MOL0     H19986   0.139   8.352   9.646  2.0241  0.9407  0.8806
  889MOL0     H19987   0.109   8.613   9.487  1.3822 -0.2617 -0.3499
  889MOL0     H19988  -0.025   8.532   9.569  0.1488  0.2473  1.4548
  889MOL0     H19989   0.103   8.730   9.689  1.8634  0.5575 -1.1324
  889MOL0     H19990   0.222   8.613   9.715  0.4977 -2.9080 -1.0001
  889MOL0     H19991  -0.050   8.628   9.862 -1.1025 -1.4444  0.0587
  889MOL0     H19992  -0.012   8.476   9.797  0.9821 -0.4225  1.5616
  889MOL0     H19993   0.224   8.487   9.913 -0.7675  0.1587 -2.2761
  889MOL0     H19994   0.098   8.501  10.034 -1.2913  1.4402  0.6028
  889MOL0     H19995   0.107   8.747  10.030 -0.6425 -1.9259  1.7525
  889MOL0     H19996   0.228   8.737   9.894  3.4383 -1.2587  0.4576
  889MOL0     H19997   0.571   8.294   9.314 -0.9188  0.0236 -0.2915
  889MOL0     H19998   0.742   8.121   9.234  1.0944 -2.2929 -1.3223
  889MOL0     H19999   0.975   7.908   9.277 -0.0408  1.1263  1.0055
  889MOL0     H20000   1.213   7.831   9.294  0.0388 -1.3591 -0.7757
  889MOL0     H20001   3.204   7.794   9.285  0.0521  0.6849  0.5229
  889MOL0     H20002   3.420   7.760   9.411 -0.0455  0.7756 -0.7855
  889MOL0     H20003   3.622   7.435   9.785  0.1301 -0.6645  1.6364
  889MOL0     H20004   3.854   7.432   9.873  0.3632  0.7710  0.7239
  889MOL0     H20005   4.041   7.851   9.973  0.2002 -2.4599 -2.0715
  889MOL0     H20006   3.925   7.796  10.104 -0.8073  0.3588 -0.9914
  889MOL0     H20007   4.165   7.863  10.196  0.0767  1.0770 -1.7020
  889MOL0     H20008   4.228   7.740  10.097 -0.8227  1.5155 -1.4150
  889MOL0     H20009   4.067   7.576  10.215  1.1387  0.8305 -1.9302
  889MOL0     H20010   4.019   7.709  10.323 -0.2434  1.6701 -0.8553
  889MOL0     H20011   4.283   7.742  10.337 -0.2146 -0.1611 -0.1003
  889MOL0     H20012   4.283   7.565  10.299  0.5610  1.2827 -1.2918
  889MOL0     H20013   4.125   7.529  10.673 -2.5310  1.6004  0.4353
  889MOL0     H20014   3.829   7.866   9.896 -1.9861 -0.2256  1.8032
  889MOL0     H20015   3.629   7.849   9.755 -0.6850  1.3514  1.3185
  890MOL0     O20016   4.327   0.277   8.375  0.4614  0.3214 -0.6048
  890MOL0     C20017   4.294   0.301   8.493 -0.3076 -0.0359 -0.2205
  890MOL0     O20018   4.164   0.325   8.534 -0.4138 -0.0873 -0.1422
  890MOL0     C20019   4.066   0.348   8.441 -0.7339 -0.3490 -0.2616
  890MOL0     C20020   3.937   0.284   8.458 -0.3300  0.4990  0.0900
  890MOL0     C20021   3.826   0.317   8.380 -0.4871  0.5545 -0.1186
  890MOL0     C20022   3.835   0.417   8.286  0.4885 -0.7629  0.3884
  890MOL0     O20023   3.729   0.465   8.213  0.1999  0.1272 -0.5141
  890MOL0     C20024   3.594   0.418   8.243 -0.1113 -0.1909 -0.2488
  890MOL0     C20025   3.491   0.499   8.168 -0.4671 -0.1892 -0.0439
  890MOL0     C20026   3.498   0.644   8.222  1.4700  0.6605 -0.0631
  890MOL0     C20027   3.401   0.752   8.157 -1.0410  0.6086 -0.4417
  890MOL0     C20028   3.255   0.731   8.203 -0.5190 -0.1937  0.5717
  890MOL0     C20029   3.161   0.828   8.126 -0.4440  0.3675  0.2846
  890MOL0     C20030   3.022   0.820   8.184  0.1889 -0.8371  0.4099
  890MOL0     C20031   2.932   0.931   8.140  0.6346 -0.4023  0.1523
  890MOL0     N20032   2.812   0.938   8.222  0.6668 -0.1623 -0.2993
  890MOL0     C20033   2.775   0.993   8.346  0.4948 -0.7329 -0.1152
  890MOL0     C20034   2.651   0.954   8.370 -0.1292  0.1298  0.0644
  890MOL0     C20035   2.546   1.006   8.469  0.4896 -0.3276 -0.0369
  890MOL0     C20036   2.547   0.920   8.595  0.0460  0.4863  0.3729
  890MOL0     C20037   2.493   0.782   8.577 -0.2478  1.0399 -0.4484
  890MOL0     C20038   2.353   0.768   8.521  0.5533  0.2142  0.3467
  890MOL0     O20039   2.260   0.858   8.586 -0.7541 -0.5541 -0.2322
  890MOL0     C20040   2.131   0.845   8.567  0.4401  0.4589  0.5967
  890MOL0     C20041   2.062   0.752   8.485 -0.5031 -0.1733 -0.2611
  890MOL0     C20042   1.922   0.749   8.458 -0.1414 -0.9534 -0.9722
  890MOL0     C20043   1.864   0.649   8.358 -0.4314 -0.2234  0.4126
  890MOL0     C20044   1.844   0.843   8.535 -0.3000  0.2684 -0.1583
  890MOL0     C20045   1.696   0.845   8.538  0.1070 -0.8444  0.0311
  890MOL0     O20046   1.638   0.953   8.604 -0.5189  0.5134 -0.3362
  890MOL0     C20047   1.506   0.967   8.608 -0.1739  0.4751  0.7976
  890MOL0     C20048   1.434   1.020   8.502 -0.9897 -0.3046  0.0851
  890MOL0     C20049   1.300   1.049   8.520 -0.2468 -0.7238 -1.3641
  890MOL0     C20050   1.233   1.014   8.634  0.0976 -0.8562 -0.1860
  890MOL0     O20051   1.097   1.031   8.644  0.3685 -0.2489  0.3134
  890MOL0     C20052   1.008   1.029   8.535 -0.2196  1.0733 -0.5323
  890MOL0     C20053   0.868   1.001   8.570 -0.0198 -0.0301  0.5395
  890MOL0     C20054   0.800   1.130   8.623 -1.0876  0.2470  1.0940
  890MOL0     C20055   0.655   1.098   8.667 -0.1896 -0.3955 -0.8389
  890MOL0     C20056   0.592   1.214   8.745 -0.3599  0.2258  0.7986
  890MOL0     C20057   0.464   1.169   8.814 -0.8034 -0.6595 -0.9476
  890MOL0     C20058   0.401   1.292   8.878 -0.4172  0.6645 -0.8855
  890MOL0     C20059   0.262   1.272   8.943  0.2926 -0.6194  0.7775
  890MOL0    Cl20060   0.142   1.255   8.810 -0.4947 -0.0987 -0.1646
  890MOL0     C20061   1.299   0.966   8.743 -0.0109 -1.0329 -0.1701
  890MOL0     C20062   1.442   0.945   8.728 -0.6160  0.2472  0.5498
  890MOL0     O20063   1.625   0.761   8.480  0.0776 -0.4039 -0.2289
  890MOL0     C20064   1.915   0.947   8.607  0.8607  0.6546  1.2124
  890MOL0     C20065   2.057   0.945   8.618  0.6369 -0.7489  0.5144
  890MOL0     N20066   2.615   0.871   8.266  0.1198 -0.0448 -0.5527
  890MOL0     N20067   2.703   0.872   8.176  0.3222 -0.4361 -0.4681
  890MOL0     C20068   3.960   0.472   8.263  0.5711  0.0109  1.0047
  890MOL0     C20069   4.078   0.441   8.341 -0.2485 -0.2666  0.2543
  890MOL0     C20070   4.403   0.280   8.588  0.5836 -0.1898  0.2600
  890MOL0     C20071   4.490   0.174   8.572 -0.4529  0.4067 -1.0700
  890MOL0     C20072   4.594   0.152   8.662 -0.3283 -0.2323 -0.4435
  890MOL0     C20073   4.620   0.255   8.757  0.3983 -0.4113 -0.1200
  890MOL0     O20074   4.731   0.247   8.837 -0.8958 -0.2290  0.3266
  890MOL0     C20075   4.850   0.247   8.755  0.4565 -0.0595  0.4476
  890MOL0     C20076   4.955   0.304   8.855  0.1717  0.0769  0.0266
  890MOL0     C20077   5.095   0.288   8.812 -0.1576  0.3043  0.1954
  890MOL0     C20078   5.184   0.336   8.926 -0.0714 -0.3526 -0.4543
  890MOL0     C20079   5.332   0.322   8.895 -0.3522  0.2200 -0.6701
  890MOL0     C20080   5.446   0.318   8.869  0.2233  0.2623  0.0034
  890MOL0     C20081   4.533   0.361   8.769 -0.9730  0.7366 -0.0468
  890MOL0     C20082   4.420   0.371   8.695 -0.0327  0.8468  0.5813
  890MOL0     H20083   3.924   0.205   8.531  0.4051 -0.8686 -1.2132
  890MOL0     H20084   3.736   0.263   8.406  1.5525 -2.3420  1.5483
  890MOL0     H20085   3.593   0.311   8.221  4.1176 -0.7771  1.3486
  890MOL0     H20086   3.584   0.429   8.352 -1.2060  0.3598 -0.3979
  890MOL0     H20087   3.502   0.493   8.059  0.9077 -1.8567  0.1499
  890MOL0     H20088   3.389   0.465   8.190  0.2805 -1.7819  1.1411
  890MOL0     H20089   3.478   0.636   8.329  1.6949 -1.5371 -0.1577
  890MOL0     H20090   3.601   0.678   8.211  1.3211  2.9194  3.6374
  890MOL0     H20091   3.435   0.853   8.180 -2.8723  0.9390  0.9948
  890MOL0     H20092   3.407   0.751   8.048  3.2779 -0.6845 -0.3933
  890MOL0     H20093   3.214   0.633   8.178 -1.5930  0.4704 -0.3517
  890MOL0     H20094   3.255   0.753   8.310  0.3300 -1.8793  0.9482
  890MOL0     H20095   3.199   0.930   8.113 -0.9383  0.5882  0.5205
  890MOL0     H20096   3.144   0.785   8.027 -3.3474 -3.9951  2.3399
  890MOL0     H20097   2.980   0.720   8.167 -3.2937  0.2709  1.5677
  890MOL0     H20098   3.042   0.824   8.292  0.0745 -3.7446  0.6137
  890MOL0     H20099   2.903   0.894   8.041 -2.2062 -0.5265  0.9414
  890MOL0     H20100   2.979   1.029   8.140 -1.5547  0.7145  0.9625
  890MOL0     H20101   2.829   1.069   8.402 -2.1539  0.6706  0.7309
  890MOL0     H20102   2.575   1.111   8.475 -3.0656  0.9919 -2.7081
  890MOL0     H20103   2.448   1.013   8.423  0.3809 -0.5531  0.1583
  890MOL0     H20104   2.486   0.975   8.667 -0.1378 -0.2465  0.7816
  890MOL0     H20105   2.642   0.918   8.649  0.1352  0.8087  0.2329
  890MOL0     H20106   2.490   0.734   8.675  0.7507 -0.2585 -1.0230
  890MOL0     H20107   2.563   0.724   8.516  0.4319 -1.4873  2.5190
  890MOL0     H20108   2.324   0.663   8.529  1.4509 -0.2442 -1.7577
  890MOL0     H20109   2.354   0.791   8.414 -3.0271 -0.1548  0.0883
  890MOL0     H20110   2.126   0.675   8.444  2.1374  1.8068 -0.0850
  890MOL0     H20111   1.766   0.611   8.387 -1.4955  1.3930 -0.8689
  890MOL0     H20112   1.843   0.703   8.265  0.2437 -2.6388 -1.2609
  890MOL0     H20113   1.927   0.568   8.319  0.5052 -1.0515  3.3996
  890MOL0     H20114   1.492   1.052   8.416 -0.8220 -1.8369 -0.4017
  890MOL0     H20115   1.243   1.090   8.437 -0.6719  0.0596 -0.6948
  890MOL0     H20116   1.004   1.128   8.490  1.8269  2.9453  2.9853
  890MOL0     H20117   1.048   0.957   8.462  1.1465 -1.3538  2.3925
  890MOL0     H20118   0.813   0.961   8.484 -0.2133  0.2810  0.5179
  890MOL0     H20119   0.864   0.926   8.649  0.6496  0.6525  1.2402
  890MOL0     H20120   0.801   1.218   8.559  1.9606  1.4538  2.6311
  890MOL0     H20121   0.854   1.160   8.713  1.5164 -0.1766 -0.2437
  890MOL0     H20122   0.592   1.070   8.581 -1.1295 -0.3846 -0.1647
  890MOL0     H20123   0.655   1.019   8.743 -0.7174  1.1953  0.8871
  890MOL0     H20124   0.568   1.298   8.679  0.3015  1.5802  2.2219
  890MOL0     H20125   0.660   1.251   8.823 -0.9790  0.9140  1.0174
  890MOL0     H20126   0.404   1.114   8.741  0.2810 -0.4503 -2.0330
  890MOL0     H20127   0.490   1.100   8.895  0.3768 -1.9312 -2.3407
  890MOL0     H20128   0.391   1.372   8.804  0.9383  0.6236 -1.1461
  890MOL0     H20129   0.468   1.320   8.959  0.1914 -0.7247 -0.8670
  890MOL0     H20130   0.237   1.361   9.000  0.3182  0.3051 -0.6004
  890MOL0     H20131   0.271   1.179   9.000 -0.5054 -1.2250 -0.0471
  890MOL0     H20132   1.246   0.935   8.833  0.1781 -0.3307  0.1878
  890MOL0     H20133   1.503   0.897   8.803 -1.9003  0.8034  2.0178
  890MOL0     H20134   1.858   1.031   8.646 -0.1134 -0.3831  2.1067
  890MOL0     H20135   2.106   1.032   8.660  1.1789 -1.5042  1.4858
  890MOL0     H20136   3.969   0.543   8.181 -0.4072  0.9720  1.6958
  890MOL0     H20137   4.171   0.493   8.321  0.6434 -2.2455 -1.0045
  890MOL0     H20138   4.458   0.089   8.513  0.2296 -1.9312  1.7193
  890MOL0     H20139   4.643   0.055   8.657 -0.5699 -0.2923 -2.0984
  890MOL0     H20140   4.881   0.149   8.718  0.2913  0.1101 -0.1544
  890MOL0     H20141   4.836   0.314   8.670 -1.0553 -0.5346  0.2862
  890MOL0     H20142   4.949   0.252   8.951  0.5093 -0.1763 -0.0877
  890MOL0     H20143   4.931   0.410   8.868 -1.2941 -0.3728  1.2945
  890MOL0     H20144   5.110   0.351   8.723 -1.3733  1.9225  1.0824
  890MOL0     H20145   5.100   0.181   8.788 -4.9080 -0.2949  0.8421
  890MOL0     H20146   5.162   0.296   9.026 -0.8300  0.8877 -0.1081
  890MOL0     H20147   5.175   0.445   8.931  2.9693  0.0198 -1.1841
  890MOL0     H20148   5.551   0.301   8.859 -0.0181 -0.1127 -2.5598
  890MOL0     H20149   4.555   0.430   8.850  4.5827 -2.0913  1.3780
  890MOL0     H20150   4.363   0.463   8.696 -3.1485 -0.9264  2.7404
  891MOL0     O20151   4.184   2.998   6.427 -0.2777  0.6800  0.1121
  891MOL0     C20152   4.199   3.113   6.390 -0.2601 -0.3936  0.4234
  891MOL0     O20153   4.291   3.162   6.300  0.1345 -0.5755  0.7483
  891MOL0     C20154   4.381   3.086   6.235 -0.5658 -0.4567  1.3040
  891MOL0     C20155   4.514   3.150   6.196  0.2269 -0.2798  0.1330
  891MOL0     C20156   4.609   3.072   6.127 -0.4764  0.8178  0.4075
  891MOL0     C20157   4.596   2.936   6.103  0.2173  0.0359  0.2454
  891MOL0     O20158   4.678   2.861   6.024 -0.6085 -0.4672  0.4890
  891MOL0     C20159   4.812   2.874   6.031 -0.5941  0.4968 -0.5294
  891MOL0     C20160   4.881   2.777   5.935  0.1012  0.5749  0.1343
  891MOL0     C20161   5.028   2.814   5.920  0.0562  0.0713 -0.4559
  891MOL0     C20162   5.097   2.739   5.803  0.3570  0.0070 -0.0764
  891MOL0     C20163   5.233   2.783   5.777  0.5430 -0.4741  0.2536
  891MOL0     C20164   5.292   2.725   5.651  0.3371  0.4867 -0.2345
  891MOL0     C20165   5.441   2.744   5.658  0.5033  0.6417 -0.1511
  891MOL0     C20166   5.525   2.634   5.718 -0.5624  0.1927 -0.7146
  891MOL0     N20167   5.502   2.587   5.858  0.0273 -0.4803  0.0577
  891MOL0     C20168   5.408   2.483   5.890 -0.4645 -0.0428  0.7379
  891MOL0     C20169   5.456   2.444   6.011  0.2555 -0.1320  0.5675
  891MOL0     C20170   5.388   2.349   6.106  0.5156 -0.0737 -0.2467
  891MOL0     C20171   5.284   2.425   6.193  0.1233  0.8541 -0.0080
  891MOL0     C20172   5.203   2.329   6.277  0.2284  0.7956  0.2054
  891MOL0     C20173   5.085   2.397   6.349  0.9897 -1.2763  0.9517
  891MOL0     O20174   5.000   2.459   6.251  0.5285  0.3763 -0.2103
  891MOL0     C20175   4.868   2.414   6.240 -0.0285  0.0609 -0.1055
  891MOL0     C20176   4.824   2.278   6.261  0.0252  0.4926 -1.4192
  891MOL0     C20177   4.683   2.242   6.252 -0.9678  0.5660  0.5624
  891MOL0     C20178   4.661   2.094   6.271 -0.0666  0.2396  0.3566
  891MOL0     C20179   4.593   2.337   6.200 -0.1443  0.1827  0.3753
  891MOL0     C20180   4.447   2.316   6.190 -0.1319  0.6487  0.0803
  891MOL0     O20181   4.390   2.210   6.259  0.2418  0.0813 -0.0171
  891MOL0     C20182   4.256   2.187   6.251  0.2897 -0.1242 -0.4663
  891MOL0     C20183   4.155   2.292   6.258  0.2377 -0.3773 -0.2333
  891MOL0     C20184   4.022   2.251   6.267 -0.7466  0.0017  0.4492
  891MOL0     C20185   3.983   2.121   6.241  0.1111  0.4798  0.9940
  891MOL0     O20186   3.840   2.100   6.235 -0.1067 -0.2327  0.0498
  891MOL0     C20187   3.786   1.968   6.240 -0.4051 -0.2041 -0.9843
  891MOL0     C20188   3.636   1.990   6.275 -0.7763 -0.8764  0.4353
  891MOL0     C20189   3.553   1.908   6.180  0.0966 -0.4977 -0.2068
  891MOL0     C20190   3.403   1.906   6.217  0.1259  0.9157 -0.5990
  891MOL0     C20191   3.383   1.807   6.325  1.0053 -0.3322 -0.7367
  891MOL0     C20192   3.233   1.803   6.364  0.0919  0.1324  0.4037
  891MOL0     C20193   3.195   1.693   6.465 -0.1543 -0.8974 -0.0320
  891MOL0     C20194   3.098   1.740   6.580  0.4241  0.2421  0.6772
  891MOL0    Cl20195   2.945   1.785   6.505  0.6232  0.5661  0.1492
  891MOL0     C20196   4.083   2.016   6.234  0.5131  0.6401 -0.4967
  891MOL0     C20197   4.217   2.052   6.238  0.1783 -0.4325 -1.0692
  891MOL0     O20198   4.385   2.393   6.116  0.2507  0.0452  0.6583
  891MOL0     C20199   4.642   2.462   6.169 -0.8869  0.4827 -0.5031
  891MOL0     C20200   4.769   2.506   6.198  0.4079  0.7484 -0.0612
  891MOL0     N20201   5.565   2.518   6.046 -0.2767  0.0281  0.0514
  891MOL0     N20202   5.601   2.601   5.953  0.2323  0.3349  0.2036
  891MOL0     C20203   4.471   2.878   6.142 -0.3814  0.2128 -0.1171
  891MOL0     C20204   4.368   2.949   6.207  0.4680 -0.2714  0.0913
  891MOL0     C20205   4.108   3.201   6.457 -0.7720  0.4065 -0.1053
  891MOL0     C20206   4.136   3.337   6.481 -0.6881  0.5864  0.8373
  891MOL0     C20207   4.044   3.417   6.547 -0.0661  0.3227 -0.0509
  891MOL0     C20208   3.927   3.359   6.598 -0.0886 -0.0738 -0.9310
  891MOL0     O20209   3.834   3.435   6.661 -0.6584 -0.4197  0.0298
  891MOL0     C20210   3.855   3.494   6.791  0.3526 -0.3430  0.4301
  891MOL0     C20211   3.755   3.455   6.898  0.2031  0.3491  0.1663
  891MOL0     C20212   3.609   3.500   6.868  0.4188  0.5028 -1.3957
  891MOL0     C20213   3.516   3.453   6.984 -0.9204 -0.3157 -0.5864
  891MOL0     C20214   3.543   3.521   7.111  0.1443 -0.2129 -0.9534
  891MOL0     C20215   3.552   3.588   7.215  0.6042  0.5517 -0.5343
  891MOL0     C20216   3.896   3.229   6.573  0.7126  0.6380  0.0902
  891MOL0     C20217   3.988   3.152   6.507 -0.2655  0.7357 -0.1432
  891MOL0     H20218   4.541   3.253   6.218 -1.6681  1.7867 -5.4149
  891MOL0     H20219   4.699   3.112   6.081  0.8574 -1.4521  0.8719
  891MOL0     H20220   4.846   2.975   6.008  2.3574 -0.0278  1.0564
  891MOL0     H20221   4.842   2.857   6.134  1.9768 -0.4531 -1.3504
  891MOL0     H20222   4.873   2.672   5.965 -0.5693 -0.0115 -1.9271
  891MOL0     H20223   4.825   2.790   5.842 -0.7395 -0.8856  0.4013
  891MOL0     H20224   5.033   2.923   5.907  2.9517  0.0226 -0.4184
  891MOL0     H20225   5.081   2.797   6.014  1.7395 -0.0157 -1.3874
  891MOL0     H20226   5.094   2.634   5.833  0.4028  0.7198  2.7815
  891MOL0     H20227   5.031   2.744   5.716 -2.7639 -3.1424  1.8267
  891MOL0     H20228   5.228   2.893   5.774 -0.9102 -0.4930  0.8253
  891MOL0     H20229   5.286   2.748   5.866  0.2826  0.5101  0.8107
  891MOL0     H20230   5.268   2.618   5.653 -0.8591  0.7493  0.1235
  891MOL0     H20231   5.254   2.771   5.559 -1.3862 -1.2556 -0.4628
  891MOL0     H20232   5.474   2.759   5.555  0.1198 -4.6689 -1.3309
  891MOL0     H20233   5.465   2.836   5.713  0.3298  1.0439 -0.7423
  891MOL0     H20234   5.629   2.667   5.718 -0.1984 -0.9185 -0.9406
  891MOL0     H20235   5.516   2.549   5.650 -2.1063  0.8768 -1.4335
  891MOL0     H20236   5.327   2.440   5.833 -1.4289  1.0429  1.2583
  891MOL0     H20237   5.337   2.271   6.049  0.3616 -1.4177  1.6477
  891MOL0     H20238   5.468   2.309   6.168 -1.1004 -2.3976  0.4831
  891MOL0     H20239   5.215   2.488   6.137 -0.9378  2.5106  2.9585
  891MOL0     H20240   5.341   2.488   6.263  0.8097 -1.8734  2.0676
  891MOL0     H20241   5.264   2.282   6.355  0.2297 -0.2151 -0.3783
  891MOL0     H20242   5.165   2.245   6.217 -0.5655  1.0419  0.3555
  891MOL0     H20243   5.121   2.474   6.418 -4.3403  0.6109  2.1376
  891MOL0     H20244   5.029   2.324   6.409 -0.7699  0.2773  1.3136
  891MOL0     H20245   4.899   2.205   6.290 -0.6545 -0.2935 -1.6162
  891MOL0     H20246   4.590   2.073   6.351  0.0155  0.5535  0.5115
  891MOL0     H20247   4.625   2.061   6.173  0.2559 -0.1623  0.3688
  891MOL0     H20248   4.758   2.051   6.300 -0.3797  1.0300  2.8070
  891MOL0     H20249   4.190   2.394   6.270  0.6051 -0.1469 -2.6868
  891MOL0     H20250   3.959   2.336   6.293 -0.2450 -0.0505  1.8851
  891MOL0     H20251   3.804   1.920   6.144 -2.9097 -0.8105 -1.2106
  891MOL0     H20252   3.835   1.906   6.316  0.1951 -2.0888 -2.8135
  891MOL0     H20253   3.628   1.941   6.372  1.5534 -0.7262  0.7597
  891MOL0     H20254   3.607   2.095   6.267  0.8059 -0.1860  2.7213
  891MOL0     H20255   3.594   1.806   6.176  1.4374  0.0234 -0.3158
  891MOL0     H20256   3.563   1.954   6.081 -1.3357  0.1989 -0.0525
  891MOL0     H20257   3.374   2.008   6.241  1.9217  1.2290  0.3911
  891MOL0     H20258   3.341   1.865   6.136  0.6707 -0.2714 -0.4358
  891MOL0     H20259   3.446   1.839   6.409 -0.9338 -0.5036  0.8749
  891MOL0     H20260   3.411   1.705   6.299  0.1631 -0.5721 -0.7119
  891MOL0     H20261   3.200   1.899   6.406  1.2036  0.0677  1.4768
  891MOL0     H20262   3.168   1.789   6.276 -1.3833  1.7957  1.1647
  891MOL0     H20263   3.284   1.652   6.514 -0.8643 -1.6042  0.7036
  891MOL0     H20264   3.143   1.608   6.418 -2.6303  0.3623  0.2547
  891MOL0     H20265   3.143   1.826   6.629 -3.3129  3.1655 -0.5699
  891MOL0     H20266   3.079   1.652   6.642 -2.5691  0.3314  0.0493
  891MOL0     H20267   4.060   1.910   6.233  1.9156  0.2903  0.6864
  891MOL0     H20268   4.294   1.976   6.237  0.4336 -0.2016 -2.6902
  891MOL0     H20269   4.576   2.534   6.122 -0.1932  1.1724 -0.4404
  891MOL0     H20270   4.800   2.608   6.177  0.2790  1.0378  1.0435
  891MOL0     H20271   4.457   2.771   6.130  0.3233  0.0807  0.1782
  891MOL0     H20272   4.294   2.882   6.248  0.9198 -0.0339  1.3513
  891MOL0     H20273   4.230   3.382   6.451  0.6651 -1.7469  1.2487
  891MOL0     H20274   4.071   3.521   6.564 -2.2113  1.1696 -1.4526
  891MOL0     H20275   3.956   3.462   6.819 -0.0655 -4.0702 -1.6815
  891MOL0     H20276   3.865   3.602   6.777 -3.9265  0.0669 -0.7982
  891MOL0     H20277   3.780   3.509   6.991 -1.1707 -1.5853  1.7422
  891MOL0     H20278   3.761   3.348   6.916 -2.2414  0.3683  1.4686
  891MOL0     H20279   3.571   3.453   6.777  1.4297 -0.4239 -1.3595
  891MOL0     H20280   3.596   3.607   6.852  1.4216  0.9365  0.3873
  891MOL0     H20281   3.511   3.344   6.996  0.6700 -0.5465 -1.7484
  891MOL0     H20282   3.420   3.488   6.945 -1.6512 -1.3379  0.2162
  891MOL0     H20283   3.548   3.633   7.312  1.3704  0.7892 -0.6065
  891MOL0     H20284   3.802   3.199   6.618  0.7439  2.3049  1.3520
  891MOL0     H20285   3.966   3.045   6.504  0.2845  0.6076  0.3126
  892MOL0     O20286   4.491  10.679   5.169  0.0336 -0.0105 -0.7147
  892MOL0     C20287   4.589  10.737   5.122  0.2489 -0.3526 -0.6268
  892MOL0     O20288   4.593  10.868   5.077 -0.3644 -0.2434  0.0045
  892MOL0     C20289   4.467  10.923   5.068 -0.8396  0.0068 -0.6810
  892MOL0     C20290   4.420  11.007   5.167  0.5066  0.3438  0.0359
  892MOL0     C20291   4.284  11.063   5.155 -0.5333 -0.4467 -0.1363
  892MOL0     C20292   4.212  11.043   5.037  0.2125  0.0621  0.1401
  892MOL0     O20293   4.094  11.114   5.033 -0.1604 -0.3701  0.1695
  892MOL0     C20294   4.014  11.116   4.906 -0.4463 -0.2733 -0.1022
  892MOL0     C20295   3.868  11.146   4.954  0.7991  0.5224 -0.5009
  892MOL0     C20296   3.854  11.274   5.020 -0.4560  0.5173  0.4864
  892MOL0     C20297   3.706  11.304   5.056 -0.4003  0.1261  0.3146
  892MOL0     C20298   3.694  11.442   5.120 -0.5958 -0.2839  0.3543
  892MOL0     C20299   3.553  11.487   5.178  0.2761  0.2679  0.8356
  892MOL0     C20300   3.456  11.504   5.061  1.1379  0.1272 -0.1422
  892MOL0     C20301   3.309  11.546   5.109  0.1471  0.1954 -0.2318
  892MOL0     N20302   3.247  11.431   5.179 -0.2225  0.3164 -0.6863
  892MOL0     C20303   3.146  11.348   5.126 -0.9213  0.3995 -0.9610
  892MOL0     C20304   3.104  11.284   5.237 -0.0837 -0.2379 -1.0446
  892MOL0     C20305   2.995  11.185   5.245  0.7775  0.1425 -0.2376
  892MOL0     C20306   2.854  11.244   5.246 -0.4785 -0.3386 -1.2710
  892MOL0     C20307   2.752  11.143   5.315  0.4786 -0.3400 -0.2577
  892MOL0     C20308   2.602  11.204   5.295 -0.7219  0.3150 -0.1568
  892MOL0     O20309   2.591  11.331   5.360 -0.0922 -0.2837  0.5310
  892MOL0     C20310   2.473  11.397   5.376  0.9976  0.2252 -0.1802
  892MOL0     C20311   2.473  11.532   5.427  1.5311 -0.4055 -0.2135
  892MOL0     C20312   2.350  11.598   5.452 -0.3244 -0.1784 -1.0692
  892MOL0     C20313   2.354  11.731   5.513 -0.3107 -0.1762  0.0798
  892MOL0     C20314   2.227  11.535   5.422 -0.2189  0.4074  0.2546
  892MOL0     C20315   2.095  11.598   5.432 -0.2710 -0.4191 -0.6353
  892MOL0     O20316   2.089  11.726   5.379 -0.0851  0.0612 -0.0226
  892MOL0     C20317   1.983  11.794   5.329  0.5320 -0.1741  0.6906
  892MOL0     C20318   1.861  11.740   5.295 -0.2979  0.4223 -0.5466
  892MOL0     C20319   1.762  11.808   5.231 -0.7008  0.7918  0.2400
  892MOL0     C20320   1.787  11.942   5.202 -0.0859  0.5975 -0.2831
  892MOL0     O20321   1.695  12.018   5.139 -0.2102 -0.0916 -0.2431
  892MOL0     C20322   1.573  11.961   5.081  0.5258  0.9437 -0.0396
  892MOL0     C20323   1.478  12.069   5.039 -0.3331 -0.4616  0.4577
  892MOL0     C20324   1.327  12.030   5.030 -0.5388  0.1978  0.0607
  892MOL0     C20325   1.244  12.144   4.968 -0.8784 -0.0881 -0.5293
  892MOL0     C20326   1.099  12.084   4.942 -0.7352 -0.0808 -0.7432
  892MOL0     C20327   1.028  12.174   4.843  0.1790  0.7919 -0.1435
  892MOL0     C20328   0.884  12.136   4.822  0.7282  1.0895  0.1689
  892MOL0     C20329   0.822  12.247   4.750  0.5191 -0.3403  0.4405
  892MOL0    Cl20330   0.641  12.219   4.757  0.3656  0.3117  0.1557
  892MOL0     C20331   1.906  12.003   5.237 -0.1034  0.2607 -0.5240
  892MOL0     C20332   2.003  11.926   5.298  0.2633 -0.8497 -0.3382
  892MOL0     O20333   2.005  11.537   5.486  0.6416 -0.1213 -0.3197
  892MOL0     C20334   2.238  11.403   5.368  0.4350  0.3245 -0.0121
  892MOL0     C20335   2.354  11.333   5.345  0.2658 -0.2976 -0.6495
  892MOL0     N20336   3.170  11.328   5.347 -0.0310 -0.2527 -0.6529
  892MOL0     N20337   3.263  11.416   5.310  0.3170  0.4830 -0.2743
  892MOL0     C20338   4.262  10.949   4.947  0.1386  0.2853 -0.0949
  892MOL0     C20339   4.388  10.894   4.957  0.4929  0.1334  0.9303
  892MOL0     C20340   4.715  10.649   5.092  0.3209  0.6603  0.5596
  892MOL0     C20341   4.724  10.510   5.125  0.3663 -0.3507  0.3990
  892MOL0     C20342   4.836  10.427   5.085 -0.2356  0.6300  0.2595
  892MOL0     C20343   4.938  10.483   5.003  1.0302  0.2714  0.2806
  892MOL0     O20344   5.038  10.399   4.981  0.6395 -0.1504  0.6637
  892MOL0     C20345   5.151  10.423   4.904  0.6832 -0.2024  0.2423
  892MOL0     C20346   5.267  10.333   4.945  0.5647  0.0668  0.0367
  892MOL0     C20347   5.370  10.332   4.835 -0.6151 -0.0814 -0.2076
  892MOL0     C20348   5.502  10.257   4.867 -0.0849  0.9958 -0.2706
  892MOL0     C20349   5.478  10.113   4.892 -0.3355 -0.8682 -0.4214
  892MOL0     C20350   5.475   9.998   4.907  0.4637 -1.0128  0.8862
  892MOL0     C20351   4.938  10.622   4.982 -0.0820 -0.0978  0.1827
  892MOL0     C20352   4.832  10.701   5.032 -0.9770  0.2847  0.9026
  892MOL0     H20353   4.480  11.018   5.256  0.4811 -0.7563  0.2100
  892MOL0     H20354   4.251  11.134   5.231  2.7372  1.9009 -0.7042
  892MOL0     H20355   4.044  11.190   4.831  2.8468 -1.0055  0.3349
  892MOL0     H20356   4.013  11.017   4.861 -3.6205 -0.9614  1.2492
  892MOL0     H20357   3.801  11.137   4.867  0.3250 -2.0808  0.0520
  892MOL0     H20358   3.836  11.074   5.030  2.5328  1.8409  1.5931
  892MOL0     H20359   3.925  11.286   5.102  0.9435 -2.0570 -0.2323
  892MOL0     H20360   3.895  11.348   4.951  2.5871  0.2624  1.8788
  892MOL0     H20361   3.642  11.303   4.967 -2.5466  1.5358  1.7270
  892MOL0     H20362   3.664  11.230   5.124 -1.2739 -0.6722 -1.0553
  892MOL0     H20363   3.771  11.445   5.198 -0.6354 -1.6279  0.4803
  892MOL0     H20364   3.715  11.517   5.043  0.5204  0.1785  1.0831
  892MOL0     H20365   3.512  11.407   5.241 -2.1091  0.7646  0.0028
  892MOL0     H20366   3.570  11.577   5.237  1.1083  0.9631 -0.4127
  892MOL0     H20367   3.498  11.588   5.004  2.3711  1.2673  2.2632
  892MOL0     H20368   3.451  11.414   5.000  1.9314 -0.5477  0.7568
  892MOL0     H20369   3.247  11.575   5.023  2.2093 -1.4374 -2.4036
  892MOL0     H20370   3.323  11.627   5.180  2.9408 -0.9695  0.6821
  892MOL0     H20371   3.105  11.336   5.026 -0.4529  0.9055 -1.2163
  892MOL0     H20372   2.999  11.123   5.155 -1.2270 -2.0303  1.0483
  892MOL0     H20373   3.005  11.118   5.330 -0.8250 -1.5440 -1.2983
  892MOL0     H20374   2.819  11.267   5.146 -2.5037  0.3871 -0.4376
  892MOL0     H20375   2.856  11.348   5.279  0.4551 -0.0211 -2.2651
  892MOL0     H20376   2.768  11.128   5.422  2.8457  0.1990 -0.4947
  892MOL0     H20377   2.756  11.046   5.264  1.0450  0.9332 -2.7814
  892MOL0     H20378   2.527  11.136   5.337 -1.6551  2.2882  1.5724
  892MOL0     H20379   2.569  11.205   5.191  1.5977 -1.1654 -0.9746
  892MOL0     H20380   2.566  11.583   5.449  0.3872  2.9347 -2.4364
  892MOL0     H20381   2.334  11.799   5.430 -1.0438 -2.4398 -1.7019
  892MOL0     H20382   2.284  11.730   5.598  0.2028 -0.8738  0.5077
  892MOL0     H20383   2.451  11.758   5.555 -0.3814 -0.7726  0.6573
  892MOL0     H20384   1.844  11.636   5.321  0.0393 -0.2108 -2.6425
  892MOL0     H20385   1.665  11.760   5.225 -0.1111 -0.3946 -0.0380
  892MOL0     H20386   1.593  11.901   4.992 -0.3598  1.0366 -0.3147
  892MOL0     H20387   1.528  11.901   5.162 -0.4517 -1.7410 -2.3880
  892MOL0     H20388   1.481  12.164   5.093 -2.1354  0.5355 -1.0649
  892MOL0     H20389   1.510  12.107   4.942  0.3493  2.0283  1.5786
  892MOL0     H20390   1.297  12.005   5.132 -0.1680 -0.1562  0.0816
  892MOL0     H20391   1.312  11.941   4.967  1.4235 -0.2008  0.1058
  892MOL0     H20392   1.249  12.227   5.039  0.2618 -1.9955  1.7585
  892MOL0     H20393   1.276  12.172   4.868 -0.9118  0.3118 -0.4293
  892MOL0     H20394   1.054  12.091   5.042  2.4325  0.9735  0.7583
  892MOL0     H20395   1.105  11.978   4.916 -0.1608 -1.6143  4.4020
  892MOL0     H20396   1.023  12.275   4.886 -2.6534  0.4839  0.4689
  892MOL0     H20397   1.075  12.189   4.746 -1.2273 -2.1169 -1.4012
  892MOL0     H20398   0.836  12.141   4.920 -0.7802  2.2198 -0.5983
  892MOL0     H20399   0.869  12.045   4.762  1.0310 -0.1441  1.8799
  892MOL0     H20400   0.847  12.256   4.644  1.3652 -0.7784  0.6009
  892MOL0     H20401   0.841  12.343   4.799  0.0479 -1.5593  3.2324
  892MOL0     H20402   1.920  12.109   5.218  0.8396  0.0152 -1.2395
  892MOL0     H20403   2.099  11.968   5.328 -0.3768 -0.3376  1.0749
  892MOL0     H20404   2.148  11.343   5.355 -1.7374  2.3865  3.8529
  892MOL0     H20405   2.351  11.230   5.311 -0.7646  0.0275 -1.6177
  892MOL0     H20406   4.190  10.908   4.877 -1.9264  2.6287  0.5269
  892MOL0     H20407   4.413  10.816   4.886 -0.0745 -2.0324  2.9715
  892MOL0     H20408   4.642  10.469   5.182  0.8786 -0.4269  1.0965
  892MOL0     H20409   4.824  10.320   5.103  1.1212  0.3703 -0.2673
  892MOL0     H20410   5.116  10.418   4.801  0.7488 -2.3268  0.2753
  892MOL0     H20411   5.189  10.524   4.920 -2.6146  1.4753 -1.5966
  892MOL0     H20412   5.231  10.232   4.966 -0.4563  0.5757  0.8673
  892MOL0     H20413   5.297  10.377   5.040  1.5567 -1.7960  0.6148
  892MOL0     H20414   5.406  10.431   4.805  3.3445 -1.5917 -1.1515
  892MOL0     H20415   5.335  10.279   4.747 -0.9723  3.1035 -2.1353
  892MOL0     H20416   5.553  10.301   4.953  0.8438  1.3199 -0.9720
  892MOL0     H20417   5.564  10.274   4.778 -3.7610 -1.0474 -3.5306
  892MOL0     H20418   5.461   9.893   4.920 -2.6132 -0.7370  0.4783
  892MOL0     H20419   5.011  10.681   4.927  0.3887  0.7005  1.6250
  892MOL0     H20420   4.852  10.804   5.008  0.9632 -0.2029  0.2454
  893MOL0     O20421   7.586   5.339   9.319  0.2948 -0.8844 -0.1981
  893MOL0     C20422   7.588   5.431   9.396 -0.0594  0.7018 -0.5367
  893MOL0     O20423   7.475   5.492   9.445 -0.4407  0.1028  0.2384
  893MOL0     C20424   7.351   5.432   9.432 -0.1444 -0.6215 -0.1097
  893MOL0     C20425   7.274   5.427   9.550 -0.6166  0.6898  1.0077
  893MOL0     C20426   7.149   5.354   9.544 -0.3262  0.1950 -0.1150
  893MOL0     C20427   7.096   5.305   9.421  0.8855  0.0610  0.0637
  893MOL0     O20428   6.973   5.245   9.417  0.1625 -0.3180 -0.2281
  893MOL0     C20429   6.970   5.109   9.442  0.0279 -0.3618 -0.0036
  893MOL0     C20430   6.841   5.046   9.406 -0.4548 -0.0852 -0.8142
  893MOL0     C20431   6.784   5.062   9.270  0.3657  1.2536  0.0731
  893MOL0     C20432   6.657   4.978   9.262  0.2926  0.3573 -0.2851
  893MOL0     C20433   6.609   4.971   9.122 -0.3813  0.3653 -0.0097
  893MOL0     C20434   6.505   4.858   9.110  0.2728 -0.6098  0.0697
  893MOL0     C20435   6.476   4.826   8.966 -0.4026  0.7042  0.0635
  893MOL0     C20436   6.370   4.715   8.957 -0.2705 -1.1854 -0.3689
  893MOL0     N20437   6.239   4.760   9.011 -0.8780  0.1271 -0.1436
  893MOL0     C20438   6.143   4.851   8.954  0.2621 -0.5676 -0.7262
  893MOL0     C20439   6.037   4.838   9.033 -0.4616  0.3242 -0.3621
  893MOL0     C20440   5.905   4.903   9.001 -0.2517  0.7335 -0.7515
  893MOL0     C20441   5.889   5.044   9.068  0.1808 -0.4879  0.0185
  893MOL0     C20442   5.974   5.158   9.007 -0.5448  0.1499 -0.0361
  893MOL0     C20443   5.956   5.181   8.851  0.0092  0.6655  0.0738
  893MOL0     O20444   6.046   5.107   8.766 -0.6170  0.2206  0.2347
  893MOL0     C20445   6.173   5.147   8.745 -0.5080  0.9979 -0.4322
  893MOL0     C20446   6.242   5.065   8.660 -0.3478  0.3332 -0.3897
  893MOL0     C20447   6.384   5.065   8.649  0.7147 -0.6605 -0.1770
  893MOL0     C20448   6.451   4.968   8.556 -0.2850  0.4771 -0.0083
  893MOL0     C20449   6.456   5.167   8.728 -0.6029 -0.5255  0.3367
  893MOL0     C20450   6.597   5.193   8.724 -0.1093  0.1057  0.7213
  893MOL0     O20451   6.659   5.212   8.847 -0.0077  0.2717 -0.3372
  893MOL0     C20452   6.793   5.256   8.843 -0.2931 -0.0705  0.4833
  893MOL0     C20453   6.906   5.172   8.841 -0.0682 -0.0172 -0.0726
  893MOL0     C20454   7.030   5.237   8.829 -0.1547  0.9660  0.0795
  893MOL0     C20455   7.041   5.372   8.815  0.2330 -0.4377  0.7110
  893MOL0     O20456   7.171   5.422   8.821 -0.2880  0.0256  0.7617
  893MOL0     C20457   7.204   5.535   8.742 -0.5132  0.2177  0.5807
  893MOL0     C20458   7.346   5.498   8.691  0.1931 -0.6714  0.1466
  893MOL0     C20459   7.341   5.362   8.611 -0.3481 -0.5235  0.0546
  893MOL0     C20460   7.476   5.342   8.536  0.6205 -0.0579  0.2868
  893MOL0     C20461   7.461   5.200   8.477 -0.4269  0.5753 -0.3469
  893MOL0     C20462   7.591   5.132   8.422  0.4326  0.1688  0.2655
  893MOL0     C20463   7.623   5.205   8.293  0.0703 -0.6343  0.8374
  893MOL0     C20464   7.755   5.178   8.233  0.0238  0.0782 -0.2244
  893MOL0    Cl20465   7.778   5.251   8.076 -0.3620 -0.4006 -0.2990
  893MOL0     C20466   6.932   5.452   8.811 -0.1327  0.5413 -0.2895
  893MOL0     C20467   6.812   5.391   8.824 -0.1459 -0.6001  0.1093
  893MOL0     O20468   6.659   5.180   8.617  0.3460  0.0574 -0.5993
  893MOL0     C20469   6.375   5.256   8.798 -0.0065  0.7351  0.5128
  893MOL0     C20470   6.235   5.244   8.815  0.1671 -0.6124 -0.5112
  893MOL0     N20471   6.068   4.745   9.136  0.1090 -0.6939  0.2490
  893MOL0     N20472   6.187   4.707   9.118 -0.6778  0.4456 -0.7259
  893MOL0     C20473   7.172   5.316   9.308  0.4586  0.3504  0.2102
  893MOL0     C20474   7.296   5.376   9.320 -0.7998  0.3590  0.6797
  893MOL0     C20475   7.720   5.472   9.440 -0.7434 -0.3787  0.9358
  893MOL0     C20476   7.838   5.406   9.395 -0.7717  0.2990  0.0809
  893MOL0     C20477   7.963   5.443   9.451  0.3485 -0.6928  0.6414
  893MOL0     C20478   7.977   5.565   9.526  0.7681  0.6876 -0.2916
  893MOL0     O20479   8.095   5.619   9.570  0.2385 -0.6920 -1.0201
  893MOL0     C20480   8.222   5.554   9.537  0.2460  0.6242 -0.8863
  893MOL0     C20481   8.342   5.627   9.594  0.2788 -0.0251  0.1446
  893MOL0     C20482   8.340   5.616   9.746 -0.5178 -0.3950  0.5664
  893MOL0     C20483   8.485   5.644   9.784  0.3824 -0.2452  0.1394
  893MOL0     C20484   8.537   5.779   9.749 -0.2424  0.0346 -0.1288
  893MOL0     C20485   8.579   5.897   9.734  0.2319  0.0218  0.2884
  893MOL0     C20486   7.860   5.629   9.555  0.1252  0.0469 -0.0749
  893MOL0     C20487   7.735   5.580   9.522  0.2827 -0.1586 -0.0730
  893MOL0     H20488   7.308   5.472   9.643 -0.4841 -0.2257  1.4076
  893MOL0     H20489   7.100   5.346   9.640 -3.2736  0.4750 -1.4878
  893MOL0     H20490   7.047   5.061   9.381  0.7730 -0.0569  0.6719
  893MOL0     H20491   6.990   5.097   9.549  1.4733  0.4631 -0.1529
  893MOL0     H20492   6.848   4.938   9.420  1.4960  0.1943  0.7905
  893MOL0     H20493   6.758   5.068   9.473 -1.2774 -1.9679 -1.1578
  893MOL0     H20494   6.758   5.165   9.244 -0.6989  0.9071 -0.3224
  893MOL0     H20495   6.860   5.023   9.201 -2.6465 -4.3145 -0.6439
  893MOL0     H20496   6.670   4.879   9.305 -1.6718 -0.0603 -0.5802
  893MOL0     H20497   6.580   5.025   9.324  0.5784 -0.3221  0.6180
  893MOL0     H20498   6.564   5.066   9.092 -1.5892  0.0712  0.8018
  893MOL0     H20499   6.692   4.951   9.054 -2.3291 -1.1264 -2.1329
  893MOL0     H20500   6.537   4.769   9.165 -2.2358 -0.6328  1.6355
  893MOL0     H20501   6.413   4.896   9.155 -0.8267  1.0162 -3.1754
  893MOL0     H20502   6.443   4.918   8.917 -0.4707  1.9555  2.3435
  893MOL0     H20503   6.566   4.793   8.913 -0.9610 -2.1538  0.7306
  893MOL0     H20504   6.412   4.628   9.007  2.9660  1.6938  2.4360
  893MOL0     H20505   6.359   4.687   8.851 -1.4970 -3.2037  0.2433
  893MOL0     H20506   6.144   4.917   8.868  1.1340  1.0962  0.5025
  893MOL0     H20507   5.896   4.915   8.892  2.2805 -0.2218 -1.1313
  893MOL0     H20508   5.832   4.832   9.041  1.3586  0.1452  1.3023
  893MOL0     H20509   5.920   5.034   9.173 -1.2533 -2.0063  0.3416
  893MOL0     H20510   5.783   5.071   9.079  0.3951 -0.6384  4.7860
  893MOL0     H20511   6.076   5.124   9.022  0.3736  2.4354 -0.6416
  893MOL0     H20512   5.948   5.251   9.058 -0.7161 -0.1981  0.5204
  893MOL0     H20513   5.965   5.288   8.831 -0.3372  1.1862  2.4618
  893MOL0     H20514   5.855   5.164   8.814  0.6592  1.9699 -2.5499
  893MOL0     H20515   6.189   4.991   8.601 -1.0954  0.5658 -0.0186
  893MOL0     H20516   6.472   5.032   8.470  0.8821  3.5139  2.3657
  893MOL0     H20517   6.545   4.923   8.590 -1.1238 -0.2530  1.4151
  893MOL0     H20518   6.372   4.895   8.535 -1.1805  1.5405 -0.4100
  893MOL0     H20519   6.885   5.067   8.860 -0.9001 -0.5584 -3.3829
  893MOL0     H20520   7.112   5.165   8.830  1.1903  2.4277 -0.3711
  893MOL0     H20521   7.144   5.563   8.655  1.9091  0.0703 -1.2222
  893MOL0     H20522   7.217   5.616   8.815  1.6082 -0.8902  1.5346
  893MOL0     H20523   7.378   5.571   8.615  0.1564 -1.8289 -1.0290
  893MOL0     H20524   7.407   5.479   8.780  0.0608  0.8923  0.5871
  893MOL0     H20525   7.254   5.360   8.545  0.3433  1.2819 -0.9953
  893MOL0     H20526   7.320   5.280   8.680 -0.5972 -0.1974  0.3736
  893MOL0     H20527   7.484   5.410   8.451  2.4619 -0.7338 -0.1235
  893MOL0     H20528   7.561   5.346   8.605  0.0232  2.5945  0.9984
  893MOL0     H20529   7.380   5.195   8.404  0.2405  2.4476 -1.2788
  893MOL0     H20530   7.435   5.132   8.559  2.1348  1.0406  0.9671
  893MOL0     H20531   7.671   5.135   8.497  0.8293 -0.6201 -0.1180
  893MOL0     H20532   7.567   5.027   8.404  1.0424  0.0897 -0.1336
  893MOL0     H20533   7.625   5.312   8.315 -2.0797 -0.7901  2.0979
  893MOL0     H20534   7.553   5.198   8.209 -0.0137 -0.1099  0.8623
  893MOL0     H20535   7.766   5.070   8.217  1.2869  0.4577 -2.3148
  893MOL0     H20536   7.838   5.203   8.299 -0.8077 -2.9592  2.1862
  893MOL0     H20537   6.940   5.560   8.809 -1.5420  0.6716 -2.1543
  893MOL0     H20538   6.731   5.462   8.833  2.4012  2.1599  3.6857
  893MOL0     H20539   6.420   5.324   8.869  0.1948 -0.3048  1.4002
  893MOL0     H20540   6.185   5.312   8.884 -0.0246 -1.3582  0.0932
  893MOL0     H20541   7.125   5.279   9.217 -1.1846  0.3763  1.0079
  893MOL0     H20542   7.353   5.380   9.227 -1.3590 -1.9922  0.1546
  893MOL0     H20543   7.841   5.317   9.332  0.7001  2.3329 -2.9489
  893MOL0     H20544   8.047   5.390   9.408 -1.0217 -1.9457 -0.6387
  893MOL0     H20545   8.221   5.451   9.573 -1.4546  0.2740 -1.8045
  893MOL0     H20546   8.231   5.545   9.428  0.0012 -1.2688 -0.7775
  893MOL0     H20547   8.333   5.733   9.567 -2.6065 -0.1614  0.2715
  893MOL0     H20548   8.436   5.584   9.560  2.0860  2.1379  2.0501
  893MOL0     H20549   8.309   5.517   9.781  3.4461 -2.2479 -0.5867
  893MOL0     H20550   8.273   5.693   9.785  2.3511  3.7212 -1.8326
  893MOL0     H20551   8.551   5.567   9.745 -1.1325 -1.7431  0.4275
  893MOL0     H20552   8.505   5.638   9.892 -0.9437 -0.7600  0.3779
  893MOL0     H20553   8.608   5.999   9.715 -0.6833  0.1924 -0.2570
  893MOL0     H20554   7.870   5.713   9.623 -1.5114 -0.6233  1.0637
  893MOL0     H20555   7.644   5.634   9.545  0.3471 -0.5436  1.1897
  894MOL0     O20556   1.315   1.175   0.594  0.1493  0.3206  0.3495
  894MOL0     C20557   1.273   1.274   0.647  0.2586 -0.7995  0.6314
  894MOL0     O20558   1.144   1.304   0.652  0.2752  0.5806  0.0603
  894MOL0     C20559   1.044   1.217   0.630 -0.2302  0.2523  0.0045
  894MOL0     C20560   0.918   1.276   0.615  0.4417  1.0858 -0.4901
  894MOL0     C20561   0.800   1.210   0.587  0.0390 -0.2054 -0.0934
  894MOL0     C20562   0.802   1.069   0.584 -0.1907  0.0134 -0.3537
  894MOL0     O20563   0.687   0.998   0.572  0.8146 -0.4775 -0.0624
  894MOL0     C20564   0.586   1.025   0.665  0.2929  0.5255 -0.1335
  894MOL0     C20565   0.449   1.004   0.600 -0.1498  0.3873  0.0874
  894MOL0     C20566   0.339   1.056   0.690 -0.1748 -0.5071  0.1338
  894MOL0     C20567   0.358   1.040   0.846 -0.7175 -0.2690  0.5036
  894MOL0     C20568   0.228   1.071   0.920 -0.0610  0.1938 -0.0184
  894MOL0     C20569   0.162   1.211   0.885  0.3568 -0.4620  0.8671
  894MOL0     C20570   0.052   1.241   0.989  0.3159  0.2479  0.8042
  894MOL0     C20571  -0.058   1.350   0.937  1.0307  0.3854 -0.8917
  894MOL0     N20572  -0.184   1.347   1.013 -0.5622 -0.0840  0.4030
  894MOL0     C20573  -0.233   1.248   1.096 -0.0142 -0.1355 -0.5162
  894MOL0     C20574  -0.342   1.306   1.153  1.1915 -0.3406  0.6198
  894MOL0     C20575  -0.429   1.221   1.247  0.4920 -0.7065  0.4271
  894MOL0     C20576  -0.421   1.286   1.391 -0.5902 -0.6007  0.0964
  894MOL0     C20577  -0.464   1.437   1.394 -0.2456  0.3739 -1.0504
  894MOL0     C20578  -0.608   1.458   1.364  0.7358 -0.4766 -0.3336
  894MOL0     O20579  -0.696   1.377   1.441  0.3814  0.4581  0.4632
  894MOL0     C20580  -0.831   1.397   1.428  0.5726 -0.0954 -0.7990
  894MOL0     C20581  -0.897   1.455   1.320 -0.2217 -0.4481  0.1103
  894MOL0     C20582  -1.040   1.473   1.326 -0.6474 -0.5257  0.7231
  894MOL0     C20583  -1.105   1.541   1.206  0.0786 -0.6838 -0.7919
  894MOL0     C20584  -1.114   1.417   1.429  0.5851 -0.7558 -0.9252
  894MOL0     C20585  -1.257   1.430   1.447 -0.0906 -0.0832 -0.5813
  894MOL0     O20586  -1.324   1.313   1.437 -0.9068  0.6334 -1.1700
  894MOL0     C20587  -1.460   1.325   1.433 -0.4066 -0.2627 -0.3738
  894MOL0     C20588  -1.523   1.412   1.341 -0.3145 -0.3077 -0.0658
  894MOL0     C20589  -1.662   1.434   1.341 -0.7901  0.3740 -0.1795
  894MOL0     C20590  -1.739   1.367   1.436  0.4519 -0.3014 -0.1878
  894MOL0     O20591  -1.876   1.376   1.445  0.6269 -0.2974 -0.6443
  894MOL0     C20592  -1.954   1.395   1.321 -0.4056 -0.1742 -0.8576
  894MOL0     C20593  -2.099   1.365   1.363 -0.9030 -0.5206 -0.4638
  894MOL0     C20594  -2.184   1.315   1.245  1.5203 -0.1573 -0.0563
  894MOL0     C20595  -2.324   1.268   1.303 -0.1741  0.0690 -0.0250
  894MOL0     C20596  -2.420   1.284   1.190  0.4855 -0.1101 -0.0499
  894MOL0     C20597  -2.571   1.250   1.226 -0.2142 -0.0551 -0.4520
  894MOL0     C20598  -2.612   1.102   1.220  0.7136  0.4159 -0.4674
  894MOL0     C20599  -2.769   1.079   1.220 -0.4961  0.0012 -0.9186
  894MOL0    Cl20600  -2.801   0.910   1.224 -0.3336 -0.1014 -0.5595
  894MOL0     C20601  -1.675   1.281   1.537 -0.2973 -0.3880 -0.1308
  894MOL0     C20602  -1.540   1.265   1.533  0.5119 -0.2601 -0.3834
  894MOL0     O20603  -1.305   1.544   1.462 -0.1923 -0.4103  0.0108
  894MOL0     C20604  -1.047   1.354   1.533 -0.3351 -0.6248  0.1308
  894MOL0     C20605  -0.911   1.344   1.532  0.0631 -0.0660 -0.7705
  894MOL0     N20606  -0.369   1.430   1.092 -0.2009 -0.4129 -0.9211
  894MOL0     N20607  -0.276   1.454   1.011 -0.4342 -0.4900  0.8595
  894MOL0     C20608   0.927   0.999   0.595 -0.5838 -0.9288 -0.8354
  894MOL0     C20609   1.048   1.073   0.626  0.6504  1.2446 -0.2253
  894MOL0     C20610   1.354   1.378   0.699  0.0061  0.2724  0.0081
  894MOL0     C20611   1.497   1.356   0.708  0.2201  0.6100 -0.3567
  894MOL0     C20612   1.585   1.453   0.769 -0.7618  0.6985 -0.5145
  894MOL0     C20613   1.529   1.570   0.825  0.3623  0.4439 -0.2733
  894MOL0     O20614   1.595   1.673   0.889 -0.3114  0.2123 -0.5647
  894MOL0     C20615   1.740   1.642   0.916  0.0553 -0.5224  0.4412
  894MOL0     C20616   1.803   1.772   0.970 -0.2487  0.0936 -0.6336
  894MOL0     C20617   1.955   1.757   0.969 -0.4506 -0.1506 -0.3144
  894MOL0     C20618   2.038   1.881   0.999 -0.1137 -0.0180  0.5223
  894MOL0     C20619   2.020   1.980   0.894 -0.6670 -0.9187 -0.2973
  894MOL0     C20620   2.023   2.068   0.807  0.3631 -0.2530 -0.4706
  894MOL0     C20621   1.392   1.589   0.800  0.2978 -0.0810  1.0705
  894MOL0     C20622   1.306   1.491   0.749  0.6249  0.2751 -0.4679
  894MOL0     H20623   0.913   1.384   0.621 -0.5403  1.2059 -2.6512
  894MOL0     H20624   0.711   1.268   0.565  0.5413 -0.0212 -1.8211
  894MOL0     H20625   0.588   0.948   0.743 -2.0018  1.5465  1.0337
  894MOL0     H20626   0.595   1.119   0.720  0.5131  0.5686 -0.2423
  894MOL0     H20627   0.445   1.049   0.500 -0.1132  1.9422  0.7522
  894MOL0     H20628   0.428   0.898   0.580 -0.6916  0.8528 -2.0747
  894MOL0     H20629   0.324   1.158   0.655 -0.3691 -0.5801  0.0031
  894MOL0     H20630   0.248   0.997   0.675 -0.0862 -1.3091  2.2833
  894MOL0     H20631   0.389   0.937   0.867 -0.8415 -0.3388  0.3419
  894MOL0     H20632   0.436   1.110   0.878 -1.5656 -0.6204  3.7635
  894MOL0     H20633   0.152   0.993   0.908 -0.4733  0.0480  2.9741
  894MOL0     H20634   0.243   1.083   1.027  0.2355  1.5239 -0.2002
  894MOL0     H20635   0.233   1.294   0.880  0.2384 -0.2004  2.8575
  894MOL0     H20636   0.117   1.210   0.785  1.6974  2.3251  0.1548
  894MOL0     H20637  -0.006   1.149   0.997  2.1411 -0.7965  4.6268
  894MOL0     H20638   0.094   1.268   1.087  0.7793 -0.1678  0.7250
  894MOL0     H20639  -0.089   1.330   0.834 -1.9264  0.5192 -0.1184
  894MOL0     H20640  -0.018   1.452   0.944 -2.7956  1.9693  0.8406
  894MOL0     H20641  -0.203   1.144   1.103  2.9751  0.5854 -1.3428
  894MOL0     H20642  -0.528   1.221   1.202  1.1831  0.6476 -1.1845
  894MOL0     H20643  -0.396   1.117   1.253  0.9302 -0.6732 -1.0853
  894MOL0     H20644  -0.315   1.290   1.418 -0.9218  1.0758  1.3962
  894MOL0     H20645  -0.474   1.215   1.456 -0.0181 -0.9578  0.1772
  894MOL0     H20646  -0.405   1.498   1.324 -0.7093  0.8542 -1.0375
  894MOL0     H20647  -0.438   1.476   1.493  0.1659 -0.6162 -0.7590
  894MOL0     H20648  -0.636   1.450   1.259  0.0890  0.4505 -0.2452
  894MOL0     H20649  -0.628   1.558   1.405  1.9555 -1.2786  2.4615
  894MOL0     H20650  -0.840   1.478   1.231  0.4425  0.6000  0.7871
  894MOL0     H20651  -1.179   1.467   1.175  1.7798 -3.6075  1.6775
  894MOL0     H20652  -1.141   1.642   1.229  0.1780 -1.1454  1.6656
  894MOL0     H20653  -1.035   1.542   1.122 -0.2696 -1.4766 -1.1017
  894MOL0     H20654  -1.464   1.471   1.272  0.3300 -1.0582 -0.1719
  894MOL0     H20655  -1.697   1.501   1.263  0.6858  3.0395  1.2902
  894MOL0     H20656  -1.950   1.501   1.296 -0.0459  0.8102  2.7304
  894MOL0     H20657  -1.912   1.333   1.241  2.1542 -1.5271  1.3545
  894MOL0     H20658  -2.116   1.291   1.442 -1.0351 -0.7810 -0.7324
  894MOL0     H20659  -2.133   1.463   1.398  0.8231  0.4879 -1.5134
  894MOL0     H20660  -2.139   1.236   1.185  1.0893 -2.2527  2.2140
  894MOL0     H20661  -2.212   1.398   1.180 -0.6590  0.4545  1.5433
  894MOL0     H20662  -2.323   1.161   1.329 -0.3512 -0.3870 -1.7922
  894MOL0     H20663  -2.341   1.336   1.387  1.3521 -1.1054  1.2897
  894MOL0     H20664  -2.388   1.219   1.108 -0.3150 -2.1560  1.1800
  894MOL0     H20665  -2.421   1.385   1.147 -0.4569 -0.7025 -1.4899
  894MOL0     H20666  -2.587   1.282   1.330 -0.8098 -0.4203 -0.4282
  894MOL0     H20667  -2.636   1.300   1.154  1.9380  1.7212 -1.2650
  894MOL0     H20668  -2.572   1.048   1.307 -1.9920 -0.6602  0.2447
  894MOL0     H20669  -2.565   1.058   1.132  2.1692 -0.2959  0.6199
  894MOL0     H20670  -2.814   1.122   1.131  1.9940 -0.2127 -2.3845
  894MOL0     H20671  -2.805   1.125   1.313  2.1722 -0.8719  0.6865
  894MOL0     H20672  -1.746   1.236   1.606 -2.3925  1.3624 -1.0341
  894MOL0     H20673  -1.500   1.206   1.615  2.1791  0.9640 -0.2502
  894MOL0     H20674  -1.095   1.318   1.623 -2.0887  1.5073  0.1237
  894MOL0     H20675  -0.863   1.294   1.616 -0.8356  1.9475  1.0596
  894MOL0     H20676   0.920   0.895   0.565 -0.9592 -0.9883 -0.5453
  894MOL0     H20677   1.140   1.017   0.640  0.2722  0.4907 -0.6713
  894MOL0     H20678   1.534   1.271   0.652 -0.2251  0.5343 -0.5480
  894MOL0     H20679   1.692   1.440   0.770 -0.8667 -0.8079 -2.6831
  894MOL0     H20680   1.743   1.558   0.986 -1.7332  0.0144  1.2259
  894MOL0     H20681   1.794   1.629   0.822 -2.1163 -3.1103 -0.5900
  894MOL0     H20682   1.787   1.791   1.077  1.4581  2.2223 -0.6791
  894MOL0     H20683   1.770   1.860   0.914 -0.4541  1.2592  1.2296
  894MOL0     H20684   1.988   1.713   0.874  1.2709 -0.8722  0.5802
  894MOL0     H20685   1.981   1.688   1.050 -2.2254 -0.7920 -0.2423
  894MOL0     H20686   2.143   1.854   1.008  0.0296  0.7299  1.2049
  894MOL0     H20687   2.017   1.923   1.098  1.0023  2.3936 -0.1931
  894MOL0     H20688   2.027   2.149   0.737 -1.3196  0.6465  0.4319
  894MOL0     H20689   1.359   1.690   0.823  0.3249 -0.0948  1.1736
  894MOL0     H20690   1.200   1.513   0.753  0.3335 -1.1827  0.8045
  895MOL0     O20691   9.274   3.388  11.211 -0.1373 -0.5782  0.3914
  895MOL0     C20692   9.342   3.449  11.293  0.3315  0.1054  0.0675
  895MOL0     O20693   9.303   3.466  11.423 -0.3190  0.3654  0.1464
  895MOL0     C20694   9.181   3.420  11.452 -0.6161  0.4902  0.7010
  895MOL0     C20695   9.061   3.492  11.417  0.2312  0.4400  0.8464
  895MOL0     C20696   8.931   3.446  11.447 -0.2411  0.1533 -0.0551
  895MOL0     C20697   8.909   3.321  11.504 -0.3186  0.1601  1.0187
  895MOL0     O20698   8.791   3.263  11.538  0.2708  0.4679  0.3970
  895MOL0     C20699   8.672   3.352  11.541 -0.3996  0.5317  0.1989
  895MOL0     C20700   8.577   3.324  11.427  0.2029  0.2227  0.6241
  895MOL0     C20701   8.433   3.370  11.450  0.1140  0.1042  0.5080
  895MOL0     C20702   8.328   3.302  11.360  0.4596 -0.3846 -0.1773
  895MOL0     C20703   8.186   3.338  11.405  0.2489 -0.0543 -0.0906
  895MOL0     C20704   8.126   3.454  11.319  0.0426  0.1159  1.0560
  895MOL0     C20705   7.991   3.513  11.368 -0.0673  0.1386 -0.1008
  895MOL0     C20706   7.892   3.412  11.322  0.2309  0.0069 -0.2357
  895MOL0     N20707   7.749   3.440  11.357 -0.3224 -0.3807 -0.3671
  895MOL0     C20708   7.697   3.452  11.487 -0.6659  1.1476  1.1308
  895MOL0     C20709   7.566   3.437  11.473 -0.7449  0.2086 -0.0096
  895MOL0     C20710   7.469   3.429  11.585 -0.1392  0.0404  0.2234
  895MOL0     C20711   7.324   3.414  11.522  0.5319  0.0758 -0.3443
  895MOL0     C20712   7.220   3.387  11.634  0.5894 -0.7254  0.2475
  895MOL0     C20713   7.070   3.418  11.598  0.6861 -0.4871  0.5215
  895MOL0     O20714   7.055   3.551  11.557 -0.0741  0.4510  0.3075
  895MOL0     C20715   6.941   3.588  11.508  0.1024  0.0722  0.6839
  895MOL0     C20716   6.935   3.713  11.445  0.0261 -0.4439 -0.3365
  895MOL0     C20717   6.820   3.761  11.385  0.6565  0.4049 -0.7832
  895MOL0     C20718   6.834   3.893  11.315  0.0555 -0.5586  0.2455
  895MOL0     C20719   6.696   3.682  11.401 -0.5587 -0.9030  0.5091
  895MOL0     C20720   6.558   3.726  11.346 -0.3117  0.4632 -0.4648
  895MOL0     O20721   6.492   3.627  11.278  1.1661  0.6745 -0.1860
  895MOL0     C20722   6.377   3.639  11.206 -0.3383  0.1626  0.6208
  895MOL0     C20723   6.305   3.759  11.179  1.3321  0.6588  0.5620
  895MOL0     C20724   6.194   3.759  11.088 -0.7709  0.4061 -0.3056
  895MOL0     C20725   6.141   3.640  11.041 -0.6307 -0.2342  0.4924
  895MOL0     O20726   6.033   3.653  10.961  0.5851  0.0862  0.5385
  895MOL0     C20727   5.957   3.528  10.934 -0.1361  0.3479 -0.2278
  895MOL0     C20728   5.816   3.561  10.888 -0.0844 -0.3820 -0.3266
  895MOL0     C20729   5.736   3.432  10.839  0.0057 -0.4569  0.4658
  895MOL0     C20730   5.584   3.462  10.829 -0.2945 -0.3166 -0.1868
  895MOL0     C20731   5.506   3.339  10.783  0.1505 -0.2705 -0.0864
  895MOL0     C20732   5.384   3.308  10.869  0.0017 -0.0206 -0.2356
  895MOL0     C20733   5.313   3.172  10.818 -0.0497 -0.4503 -0.7703
  895MOL0     C20734   5.218   3.191  10.690  0.2561 -0.9429  0.8244
  895MOL0    Cl20735   5.109   3.338  10.709  0.3885  0.0649  0.0076
  895MOL0     C20736   6.214   3.524  11.069  0.6977  1.2469  0.5876
  895MOL0     C20737   6.333   3.516  11.148  0.5437  0.7930 -0.3691
  895MOL0     O20738   6.526   3.844  11.351 -0.3136 -0.3363 -0.5287
  895MOL0     C20739   6.699   3.563  11.467 -0.3583  0.1476 -0.5655
  895MOL0     C20740   6.819   3.517  11.518  0.1918  0.1105  0.1706
  895MOL0     N20741   7.536   3.426  11.340  0.0641  0.2223  0.7573
  895MOL0     N20742   7.644   3.416  11.267 -0.4840 -0.4480 -0.2723
  895MOL0     C20743   9.027   3.250  11.533  0.6246  0.2471 -0.1695
  895MOL0     C20744   9.161   3.293  11.504  0.6494  1.0192 -0.5105
  895MOL0     C20745   9.483   3.485  11.263 -0.1901 -0.2627  0.5450
  895MOL0     C20746   9.588   3.477  11.358  0.0059 -1.3573 -0.2427
  895MOL0     C20747   9.719   3.480  11.309  0.4863  0.3400 -0.2899
  895MOL0     C20748   9.753   3.488  11.174  0.1076 -0.1649 -0.1804
  895MOL0     O20749   9.886   3.501  11.134  0.4318  0.1047  0.5425
  895MOL0     C20750   9.999   3.487  11.213  0.2740 -0.5463 -0.2622
  895MOL0     C20751  10.127   3.536  11.139 -0.1359  0.0928  0.0755
  895MOL0     C20752  10.158   3.465  11.005  0.7083 -0.1479  0.4945
  895MOL0     C20753  10.266   3.548  10.933  0.3874  0.0486  0.4756
  895MOL0     C20754  10.328   3.491  10.815 -0.3323  0.4034  0.3502
  895MOL0     C20755  10.385   3.445  10.717 -0.3422  0.4960 -0.2834
  895MOL0     C20756   9.654   3.497  11.088  0.6257 -1.0101  0.0274
  895MOL0     C20757   9.521   3.507  11.124  0.1386  0.3885 -0.6798
  895MOL0     H20758   9.075   3.588  11.370  1.5032 -0.3313 -0.4376
  895MOL0     H20759   8.851   3.519  11.437 -2.5166 -2.4356 -2.1415
  895MOL0     H20760   8.624   3.322  11.635  0.3888 -1.4985  0.0064
  895MOL0     H20761   8.695   3.458  11.551  1.0912  0.3406 -0.9258
  895MOL0     H20762   8.602   3.373  11.333 -0.1550 -2.3338 -0.8974
  895MOL0     H20763   8.575   3.216  11.407  0.1271  0.3077  0.1581
  895MOL0     H20764   8.409   3.350  11.555  0.6225 -2.8687  0.1446
  895MOL0     H20765   8.425   3.478  11.441  1.0072  0.3548  2.1678
  895MOL0     H20766   8.342   3.327  11.255 -0.0306  1.1752  0.1073
  895MOL0     H20767   8.335   3.194  11.376  4.2886 -0.5521 -1.8872
  895MOL0     H20768   8.130   3.249  11.376  3.3229 -1.3187 -2.8002
  895MOL0     H20769   8.181   3.366  11.510 -0.1827  1.9109 -0.5781
  895MOL0     H20770   8.193   3.539  11.336 -1.9708  2.0730 -0.2380
  895MOL0     H20771   8.120   3.421  11.215  3.3017  2.6657 -0.1551
  895MOL0     H20772   7.984   3.517  11.477  0.3666  2.3013 -0.1157
  895MOL0     H20773   7.954   3.604  11.320 -0.7746  0.0109  0.1908
  895MOL0     H20774   7.913   3.315  11.368 -0.1570  0.8225  1.7538
  895MOL0     H20775   7.917   3.392  11.217 -0.5654 -0.0615 -0.4174
  895MOL0     H20776   7.752   3.460  11.581 -1.5022  1.4864  1.6076
  895MOL0     H20777   7.496   3.347  11.652  0.2458 -0.7008 -0.8191
  895MOL0     H20778   7.465   3.523  11.641 -1.3573  0.8780 -1.1771
  895MOL0     H20779   7.316   3.322  11.463  0.0312 -1.2769  1.6998
  895MOL0     H20780   7.294   3.495  11.455  0.9580 -1.3551 -2.3490
  895MOL0     H20781   7.239   3.451  11.721  1.1152 -0.1406 -0.2817
  895MOL0     H20782   7.216   3.286  11.676 -0.4622 -0.3354  1.1277
  895MOL0     H20783   7.012   3.394  11.688 -0.2504  0.6924  0.2674
  895MOL0     H20784   7.044   3.347  11.520 -1.1577 -1.3064  1.8100
  895MOL0     H20785   7.030   3.765  11.434  0.5527 -0.6007  2.5697
  895MOL0     H20786   6.734   3.935  11.323  0.7916  1.7127 -1.3493
  895MOL0     H20787   6.908   3.959  11.361  0.5476  2.0889 -3.8402
  895MOL0     H20788   6.859   3.874  11.210  0.3488 -0.2711  0.2599
  895MOL0     H20789   6.348   3.855  11.205  2.3833  1.2097 -2.8410
  895MOL0     H20790   6.152   3.855  11.060  0.1806  1.5576  2.0104
  895MOL0     H20791   6.012   3.470  10.859  0.7950  0.6472  0.1995
  895MOL0     H20792   5.955   3.465  11.023 -0.1332 -0.1410 -0.5703
  895MOL0     H20793   5.766   3.609  10.973  0.8224 -0.9564  0.5562
  895MOL0     H20794   5.810   3.625  10.799 -1.8157 -0.2042 -0.1113
  895MOL0     H20795   5.744   3.346  10.906  0.2051  0.7141  2.0062
  895MOL0     H20796   5.779   3.409  10.742 -1.0657  2.3619 -0.8061
  895MOL0     H20797   5.561   3.489  10.933  1.4617 -1.1220  0.4695
  895MOL0     H20798   5.569   3.549  10.764 -1.1771 -0.4974 -0.2286
  895MOL0     H20799   5.575   3.254  10.782  0.4695 -0.0216  0.4866
  895MOL0     H20800   5.481   3.346  10.677  0.4054 -4.1754 -0.5735
  895MOL0     H20801   5.416   3.292  10.972  1.4649  2.5247 -0.2273
  895MOL0     H20802   5.307   3.385  10.863 -0.4081 -0.2402  1.6054
  895MOL0     H20803   5.249   3.142  10.901  0.7272  1.3318  0.5508
  895MOL0     H20804   5.377   3.085  10.804  0.6994 -0.4778  2.1300
  895MOL0     H20805   5.148   3.107  10.689 -1.8568  0.7282  0.9296
  895MOL0     H20806   5.279   3.198  10.599 -0.7383 -1.8114  0.0765
  895MOL0     H20807   6.185   3.434  11.016 -1.0221  2.0350  0.1093
  895MOL0     H20808   6.380   3.421  11.168  2.2118  0.9967 -2.8554
  895MOL0     H20809   6.609   3.508  11.491  0.3108 -0.4814  0.5976
  895MOL0     H20810   6.815   3.424  11.574  0.8638 -1.5041 -2.2761
  895MOL0     H20811   9.003   3.153  11.576 -3.2712  0.5337 -1.2490
  895MOL0     H20812   9.248   3.231  11.526  0.6505  1.4828  0.9238
  895MOL0     H20813   9.563   3.474  11.463  0.1093  2.2109  0.0094
  895MOL0     H20814   9.802   3.472  11.379  1.3105  3.2003 -0.8146
  895MOL0     H20815   9.984   3.544  11.305 -0.0234 -2.3913  0.8825
  895MOL0     H20816  10.015   3.381  11.232  1.4413 -0.7636 -2.2009
  895MOL0     H20817  10.215   3.522  11.202 -1.2110 -4.6394  0.9491
  895MOL0     H20818  10.117   3.644  11.125 -1.9348  0.0725  0.9807
  895MOL0     H20819  10.078   3.460  10.930  1.3601  2.9688 -0.5646
  895MOL0     H20820  10.177   3.360  11.029  0.0794 -0.0784  1.3670
  895MOL0     H20821  10.350   3.571  11.000 -0.4382  0.8689  1.2502
  895MOL0     H20822  10.223   3.646  10.911 -0.3149  0.0027  1.5761
  895MOL0     H20823  10.430   3.409  10.627  0.3975 -0.6132  0.5010
  895MOL0     H20824   9.675   3.490  10.981  2.8338  2.4106  0.0868
  895MOL0     H20825   9.451   3.512  11.041  4.2058  0.3067 -4.5435
  896MOL0     O20826   6.407   8.190   3.759 -0.3640 -0.1590  0.4609
  896MOL0     C20827   6.438   8.144   3.653  0.2795 -0.6192  1.4738
  896MOL0     O20828   6.362   8.144   3.542 -0.3513  0.0045  0.1741
  896MOL0     C20829   6.236   8.213   3.545 -0.4522 -0.3136 -0.9421
  896MOL0     C20830   6.206   8.298   3.442 -0.4630 -0.2656  0.4213
  896MOL0     C20831   6.091   8.376   3.450 -0.4593  0.4222 -0.1660
  896MOL0     C20832   5.994   8.360   3.558  0.3665  1.1461  1.4644
  896MOL0     O20833   5.896   8.447   3.567  0.1034 -1.1379 -0.1608
  896MOL0     C20834   5.764   8.399   3.592 -0.8765  0.0673  0.5216
  896MOL0     C20835   5.683   8.482   3.492 -0.9468  0.4004  0.4132
  896MOL0     C20836   5.534   8.477   3.517  0.6887  0.5329 -0.5363
  896MOL0     C20837   5.459   8.446   3.389  0.4688  0.3899  0.1107
  896MOL0     C20838   5.305   8.436   3.401  0.1820 -0.0116 -0.2133
  896MOL0     C20839   5.240   8.565   3.461  0.2706  0.0489  1.0807
  896MOL0     C20840   5.098   8.553   3.481  0.0537 -0.3039 -0.2451
  896MOL0     C20841   5.039   8.682   3.547  0.1721  0.8310  0.2354
  896MOL0     N20842   4.907   8.647   3.591 -0.1314  0.3036 -0.3441
  896MOL0     C20843   4.794   8.645   3.510 -0.4964 -0.1084  0.0484
  896MOL0     C20844   4.690   8.611   3.596 -0.3073 -0.3162 -0.6190
  896MOL0     C20845   4.541   8.602   3.562 -0.1946 -0.5993 -0.3672
  896MOL0     C20846   4.468   8.496   3.632  0.1915 -0.0354 -1.5241
  896MOL0     C20847   4.317   8.505   3.600  1.4134 -0.0446 -0.4688
  896MOL0     C20848   4.257   8.624   3.679 -0.5246 -0.1475  0.2063
  896MOL0     O20849   4.121   8.629   3.631  0.4363  0.0354 -0.4426
  896MOL0     C20850   4.016   8.599   3.718 -0.2039 -0.4157  0.0956
  896MOL0     C20851   4.020   8.557   3.852  0.5492 -0.4827 -0.3125
  896MOL0     C20852   3.900   8.519   3.922  0.2319 -0.3030  0.0897
  896MOL0     C20853   3.911   8.484   4.075 -0.2535 -0.7270  1.2266
  896MOL0     C20854   3.779   8.517   3.848  0.6874 -0.2020  0.0060
  896MOL0     C20855   3.657   8.461   3.903  0.2953  0.4988  0.4408
  896MOL0     O20856   3.540   8.492   3.840  0.1691  0.0226  0.5599
  896MOL0     C20857   3.421   8.411   3.852  0.7032  0.2518  0.8891
  896MOL0     C20858   3.355   8.397   3.727 -0.3750 -0.5811 -0.3083
  896MOL0     C20859   3.238   8.323   3.721 -0.4656  0.3097 -0.2057
  896MOL0     C20860   3.186   8.270   3.840 -0.2888  0.1343  0.2620
  896MOL0     O20861   3.066   8.201   3.842 -0.3777 -0.2980 -0.4487
  896MOL0     C20862   2.947   8.267   3.786  1.2324  0.2847 -0.1721
  896MOL0     C20863   2.816   8.182   3.801 -0.0975  0.2528  0.4032
  896MOL0     C20864   2.694   8.259   3.765  0.7545  0.4007  1.3058
  896MOL0     C20865   2.563   8.183   3.806  0.4978  0.3183  0.7478
  896MOL0     C20866   2.444   8.265   3.751 -0.2998  0.0054  0.4462
  896MOL0     C20867   2.315   8.191   3.779 -0.3231  0.4961 -0.2307
  896MOL0     C20868   2.189   8.256   3.734  0.2949 -0.4117  0.5194
  896MOL0     C20869   2.083   8.170   3.665  0.0089 -0.4002 -0.2782
  896MOL0    Cl20870   2.162   8.092   3.524 -0.0441  0.3629 -0.5676
  896MOL0     C20871   3.266   8.257   3.951  0.4394 -0.3805  0.3330
  896MOL0     C20872   3.383   8.324   3.956 -0.0892 -1.1587  0.2166
  896MOL0     O20873   3.664   8.373   3.998 -1.3219 -0.9863  0.0954
  896MOL0     C20874   3.779   8.583   3.726 -0.9488 -0.1231  0.1076
  896MOL0     C20875   3.896   8.619   3.664 -0.6019  0.5391 -0.3853
  896MOL0     N20876   4.752   8.576   3.719 -0.1642 -0.8313  0.5565
  896MOL0     N20877   4.871   8.616   3.714 -0.2627 -0.6558 -0.2311
  896MOL0     C20878   6.026   8.275   3.655  0.1553  0.2028 -0.0316
  896MOL0     C20879   6.139   8.197   3.648  0.0915 -0.3639  0.3000
  896MOL0     C20880   6.565   8.075   3.626 -0.3699  0.6542  0.3007
  896MOL0     C20881   6.589   8.001   3.513 -0.0016  0.7575  0.2462
  896MOL0     C20882   6.717   7.947   3.484 -0.0743  1.2459  0.5398
  896MOL0     C20883   6.824   7.955   3.575  0.2360  0.3046 -0.3669
  896MOL0     O20884   6.945   7.891   3.556  0.2576  0.1121 -0.3418
  896MOL0     C20885   6.965   7.812   3.431  0.1548  0.6843  0.2517
  896MOL0     C20886   7.072   7.706   3.449 -0.7061 -0.0101 -0.0691
  896MOL0     C20887   7.036   7.610   3.565 -0.1245  0.5203  0.1882
  896MOL0     C20888   7.104   7.484   3.546 -0.9085 -0.0328  0.0583
  896MOL0     C20889   7.249   7.494   3.553 -0.5077 -0.9550  0.1682
  896MOL0     C20890   7.372   7.496   3.578  0.4031  0.6150 -0.0754
  896MOL0     C20891   6.798   8.029   3.687  0.2249 -0.1093 -0.9479
  896MOL0     C20892   6.675   8.091   3.714 -0.6357  0.2566  0.0846
  896MOL0     H20893   6.264   8.302   3.349 -3.3316  0.7506 -1.4674
  896MOL0     H20894   6.077   8.443   3.366 -1.2394  2.5289  1.5377
  896MOL0     H20895   5.754   8.293   3.570 -1.4653  0.6526 -2.4560
  896MOL0     H20896   5.729   8.428   3.692  1.0358  0.4357  1.1181
  896MOL0     H20897   5.712   8.587   3.499  0.6841  0.5942 -5.0614
  896MOL0     H20898   5.703   8.456   3.388 -3.3315 -0.9101  0.2037
  896MOL0     H20899   5.518   8.407   3.599  0.3687  2.8287  1.4861
  896MOL0     H20900   5.496   8.573   3.554 -3.0131 -1.4595  1.3705
  896MOL0     H20901   5.492   8.513   3.309  0.9395  0.0004 -0.0271
  896MOL0     H20902   5.493   8.349   3.351  1.1279  0.4906  0.4325
  896MOL0     H20903   5.268   8.420   3.300  0.3486 -1.7418 -0.0371
  896MOL0     H20904   5.276   8.347   3.457  1.6465 -2.3360 -2.9019
  896MOL0     H20905   5.283   8.573   3.562  0.5022  2.0851  0.8747
  896MOL0     H20906   5.265   8.645   3.391 -0.0004 -2.4428 -2.0948
  896MOL0     H20907   5.043   8.551   3.386 -0.7142  4.3842 -0.1254
  896MOL0     H20908   5.070   8.461   3.534 -2.2993  0.3066 -0.2961
  896MOL0     H20909   5.048   8.769   3.482 -0.9954  0.1095 -0.9159
  896MOL0     H20910   5.096   8.705   3.638 -0.2012  3.9408 -0.1964
  896MOL0     H20911   4.787   8.679   3.408  4.2216 -2.4676 -1.3301
  896MOL0     H20912   4.512   8.704   3.587 -0.0209  0.1316 -2.8806
  896MOL0     H20913   4.534   8.592   3.454  0.4375  0.5918 -0.5299
  896MOL0     H20914   4.476   8.509   3.740  0.6199  1.6547 -1.7186
  896MOL0     H20915   4.518   8.403   3.603 -0.1712 -1.9836  3.2661
  896MOL0     H20916   4.271   8.413   3.638  0.6554  0.7887  0.7159
  896MOL0     H20917   4.303   8.523   3.493  1.4695 -2.6276 -0.9628
  896MOL0     H20918   4.311   8.715   3.650 -0.1023 -1.2011 -2.6200
  896MOL0     H20919   4.274   8.604   3.785  1.4258  0.6653  0.0910
  896MOL0     H20920   4.109   8.556   3.914  0.0779 -0.9575  0.3638
  896MOL0     H20921   3.898   8.376   4.090 -1.0191 -1.0953 -1.6288
  896MOL0     H20922   4.008   8.514   4.117  0.7821 -1.7814 -0.3083
  896MOL0     H20923   3.833   8.533   4.134  0.4632  0.7142  1.0135
  896MOL0     H20924   3.389   8.452   3.639  0.7016 -0.4129  0.2007
  896MOL0     H20925   3.191   8.328   3.624 -3.4028  0.5098  1.1154
  896MOL0     H20926   2.928   8.363   3.835 -0.4239  0.5044 -1.1887
  896MOL0     H20927   2.963   8.283   3.679  1.6810 -4.2915 -0.9775
  896MOL0     H20928   2.830   8.098   3.733 -1.7485 -0.9257  1.4609
  896MOL0     H20929   2.808   8.145   3.904 -0.7663 -0.3933  0.1201
  896MOL0     H20930   2.697   8.269   3.656  1.2068  4.0635  1.5310
  896MOL0     H20931   2.688   8.359   3.808 -0.3772  0.5073  0.9272
  896MOL0     H20932   2.559   8.087   3.755  0.8717  2.1791 -3.1447
  896MOL0     H20933   2.556   8.186   3.915  0.6945  1.0615  0.7437
  896MOL0     H20934   2.455   8.270   3.643  0.9450 -0.2596  0.5432
  896MOL0     H20935   2.441   8.367   3.791 -0.3224  0.2913 -0.2646
  896MOL0     H20936   2.317   8.087   3.747  0.3618  0.4846 -0.1571
  896MOL0     H20937   2.298   8.172   3.885 -0.4416  0.8531 -0.1833
  896MOL0     H20938   2.216   8.344   3.675 -1.0217 -1.9390 -2.5884
  896MOL0     H20939   2.149   8.298   3.827  4.8266  2.5204  1.4217
  896MOL0     H20940   2.001   8.239   3.642 -2.1113 -2.0395  1.8940
  896MOL0     H20941   2.046   8.096   3.736  0.5794 -1.2201 -0.8146
  896MOL0     H20942   3.235   8.210   4.043 -1.7256  1.1761  0.4659
  896MOL0     H20943   3.435   8.318   4.051 -1.2200  2.5018  1.2387
  896MOL0     H20944   3.686   8.613   3.678  0.5299  1.0636 -2.1629
  896MOL0     H20945   3.897   8.674   3.571  2.0700  0.7904 -0.2841
  896MOL0     H20946   5.967   8.270   3.746  1.3636  2.9368  1.0203
  896MOL0     H20947   6.165   8.127   3.727  0.5095 -1.4535 -0.7920
  896MOL0     H20948   6.505   7.970   3.452 -2.0181  2.8425  1.7871
  896MOL0     H20949   6.716   7.885   3.395 -2.9659 -1.0587  2.0059
  896MOL0     H20950   6.880   7.748   3.404  0.8402 -0.0188 -0.3277
  896MOL0     H20951   6.994   7.877   3.348 -1.6250 -0.9441 -1.7799
  896MOL0     H20952   7.170   7.746   3.474  0.2851 -2.6364  0.6020
  896MOL0     H20953   7.088   7.653   3.355 -0.1412  2.2842 -1.3398
  896MOL0     H20954   6.928   7.594   3.555 -0.0296  0.3958 -0.7584
  896MOL0     H20955   7.059   7.659   3.660  0.6402 -0.2566  0.4262
  896MOL0     H20956   7.075   7.441   3.449  1.5807 -0.7626 -0.4420
  896MOL0     H20957   7.066   7.428   3.632 -2.7992  2.2031  0.7768
  896MOL0     H20958   7.477   7.488   3.593 -0.0251 -1.3224  2.7078
  896MOL0     H20959   6.876   8.045   3.761 -2.9753  0.2287  2.6728
  896MOL0     H20960   6.664   8.133   3.814  1.4288 -0.3125  0.5938
  897MOL0     O20961   0.181   8.809   3.109 -0.2104 -0.3696  0.8718
  897MOL0     C20962   0.208   8.731   3.020  0.1271  0.9023  0.1820
  897MOL0     O20963   0.122   8.667   2.938 -0.3561 -0.0061 -0.0135
  897MOL0     C20964  -0.016   8.667   2.951 -0.6966 -1.0113  0.0600
  897MOL0     C20965  -0.081   8.554   2.913  0.0325 -0.1334  0.2900
  897MOL0     C20966  -0.228   8.549   2.905 -0.8013 -0.0168  0.3806
  897MOL0     C20967  -0.303   8.649   2.963 -0.4614  0.4496  0.9340
  897MOL0     O20968  -0.436   8.651   2.975 -0.0284 -0.1818  0.2425
  897MOL0     C20969  -0.513   8.536   2.945  0.0043  1.0517 -0.2930
  897MOL0     C20970  -0.508   8.431   3.069  0.3683 -0.1746  0.0002
  897MOL0     C20971  -0.579   8.491   3.196 -0.1696 -0.0952  0.0312
  897MOL0     C20972  -0.626   8.373   3.273 -0.4536 -0.2408  0.2318
  897MOL0     C20973  -0.688   8.411   3.408 -0.4378  0.2064  0.4237
  897MOL0     C20974  -0.758   8.291   3.481  0.0119 -0.7817 -0.1453
  897MOL0     C20975  -0.665   8.175   3.507 -1.0267  0.0556 -0.2691
  897MOL0     C20976  -0.715   8.083   3.621  1.5509  0.5816 -0.3881
  897MOL0     N20977  -0.865   8.059   3.635  0.2607  0.2541 -0.5204
  897MOL0     C20978  -0.942   7.947   3.594  0.3276 -0.3900  0.4503
  897MOL0     C20979  -1.068   7.992   3.594  0.2903  0.3105 -0.2726
  897MOL0     C20980  -1.184   7.922   3.535  0.2224  0.3270  0.1989
  897MOL0     C20981  -1.260   7.850   3.643 -0.5308  0.8914 -0.3111
  897MOL0     C20982  -1.351   7.939   3.724 -0.2256  0.6741 -0.1232
  897MOL0     C20983  -1.463   7.995   3.637  0.4159 -1.2237 -0.2896
  897MOL0     O20984  -1.578   8.017   3.726 -0.0694 -0.3796 -0.3619
  897MOL0     C20985  -1.681   8.092   3.679 -0.1343  0.6460  0.1587
  897MOL0     C20986  -1.684   8.143   3.554 -0.0256  0.1611  0.4819
  897MOL0     C20987  -1.802   8.206   3.513 -0.5189  1.2870 -0.5557
  897MOL0     C20988  -1.790   8.271   3.373  0.1246 -0.0499 -0.4571
  897MOL0     C20989  -1.918   8.213   3.596  1.0038 -0.4765  1.5704
  897MOL0     C20990  -2.053   8.257   3.550  0.1251  0.2934  0.0659
  897MOL0     O20991  -2.139   8.296   3.645 -0.2808 -0.3393  0.0170
  897MOL0     C20992  -2.256   8.350   3.614  0.6344  0.1659 -0.2093
  897MOL0     C20993  -2.271   8.484   3.575 -0.3253 -0.3992 -0.1954
  897MOL0     C20994  -2.392   8.530   3.541  0.4452 -0.8168  0.7415
  897MOL0     C20995  -2.508   8.456   3.551  0.2619 -0.2050  0.5385
  897MOL0     O20996  -2.625   8.492   3.496 -0.1171  0.0500 -0.4896
  897MOL0     C20997  -2.745   8.419   3.524 -0.0616 -1.1688  0.3071
  897MOL0     C20998  -2.862   8.480   3.447  0.1828 -0.0079 -0.0324
  897MOL0     C20999  -2.869   8.634   3.469 -0.1193 -0.4500  0.7044
  897MOL0     C21000  -2.984   8.715   3.402 -0.0866 -0.0125  0.0404
  897MOL0     C21001  -3.117   8.681   3.459 -0.0321  0.6702 -0.5036
  897MOL0     C21002  -3.242   8.739   3.398 -0.0785  0.6575  0.4613
  897MOL0     C21003  -3.373   8.683   3.464 -0.0020 -0.6506  0.1583
  897MOL0     C21004  -3.489   8.696   3.359  0.0955  0.0250  0.9011
  897MOL0    Cl21005  -3.626   8.796   3.418 -0.3095 -0.5758  0.1038
  897MOL0     C21006  -2.498   8.320   3.593 -1.0833  0.6358  0.5621
  897MOL0     C21007  -2.372   8.268   3.608  0.6529 -0.7950 -0.0975
  897MOL0     O21008  -2.078   8.243   3.432 -0.0393  0.7683  0.1124
  897MOL0     C21009  -1.913   8.162   3.722 -0.5100 -0.1447  0.0356
  897MOL0     C21010  -1.792   8.105   3.764  0.5569  0.0019  0.0392
  897MOL0     N21011  -1.068   8.120   3.640  0.9166  0.5555 -0.5472
  897MOL0     N21012  -0.951   8.158   3.672  0.2749  0.6960 -0.3530
  897MOL0     C21013  -0.236   8.757   3.027  0.3940  0.6485 -0.7271
  897MOL0     C21014  -0.096   8.770   3.012 -0.3570  0.1400 -0.5072
  897MOL0     C21015   0.352   8.718   2.990  1.0986  0.0512 -0.6532
  897MOL0     C21016   0.395   8.643   2.887  0.5771  0.4063  0.2397
  897MOL0     C21017   0.531   8.629   2.861  0.3341  0.3622 -0.8760
  897MOL0     C21018   0.627   8.694   2.938  0.3495  0.7273 -1.2178
  897MOL0     O21019   0.756   8.685   2.900 -0.0226  0.2719  0.0709
  897MOL0     C21020   0.855   8.769   2.962  0.2136 -0.3376 -0.0276
  897MOL0     C21021   0.976   8.759   2.867  1.3576  1.2196  0.3644
  897MOL0     C21022   0.959   8.859   2.748 -0.5620 -0.1806  0.0789
  897MOL0     C21023   1.075   8.849   2.644 -0.3210  0.4828 -0.3588
  897MOL0     C21024   1.205   8.904   2.691  0.1198 -0.6905  0.9423
  897MOL0     C21025   1.309   8.956   2.716 -0.3684 -0.1452 -0.3700
  897MOL0     C21026   0.580   8.770   3.048  0.0117 -0.5091 -0.5239
  897MOL0     C21027   0.446   8.774   3.082 -0.4035  0.7708 -0.1392
  897MOL0     H21028  -0.024   8.470   2.874  1.2651  0.0793  1.5657
  897MOL0     H21029  -0.268   8.456   2.864 -0.8165 -0.4120  1.2761
  897MOL0     H21030  -0.619   8.564   2.942 -0.2629  0.1125  0.0516
  897MOL0     H21031  -0.501   8.499   2.843  0.5444 -1.9968  0.7613
  897MOL0     H21032  -0.556   8.337   3.041 -1.5685  0.5513  0.7525
  897MOL0     H21033  -0.403   8.415   3.095 -0.2454 -0.0337  2.8451
  897MOL0     H21034  -0.508   8.546   3.258  0.0623 -1.5283  1.0848
  897MOL0     H21035  -0.663   8.552   3.164 -0.8140 -0.1818  1.5091
  897MOL0     H21036  -0.696   8.316   3.212 -1.0749  1.7272 -0.9934
  897MOL0     H21037  -0.538   8.311   3.291 -0.3371 -0.3339 -0.6386
  897MOL0     H21038  -0.613   8.453   3.475  1.5137 -1.5977 -0.5007
  897MOL0     H21039  -0.752   8.498   3.389 -1.2296  0.7078  4.5008
  897MOL0     H21040  -0.784   8.344   3.572  0.9963 -2.4080  1.1341
  897MOL0     H21041  -0.849   8.252   3.435 -0.6811 -0.7604  1.1653
  897MOL0     H21042  -0.668   8.122   3.412 -1.7470  0.8383 -0.7010
  897MOL0     H21043  -0.560   8.201   3.527 -0.6320 -0.1173 -1.9383
  897MOL0     H21044  -0.677   8.128   3.713  0.4092  1.9978 -0.5807
  897MOL0     H21045  -0.670   7.985   3.604  0.0385 -0.4516  1.2367
  897MOL0     H21046  -0.902   7.856   3.550  1.3229  0.8201 -1.2526
  897MOL0     H21047  -1.247   7.994   3.482  0.5772  0.4123 -0.1068
  897MOL0     H21048  -1.150   7.847   3.463  1.2092  2.8322 -2.1271
  897MOL0     H21049  -1.178   7.813   3.704  2.2097  2.8747 -2.5406
  897MOL0     H21050  -1.317   7.767   3.599  0.9471 -0.0322 -0.5374
  897MOL0     H21051  -1.295   8.017   3.776  0.4490 -0.5544  1.0632
  897MOL0     H21052  -1.395   7.885   3.809 -2.3965  2.6520  0.1202
  897MOL0     H21053  -1.492   7.915   3.568 -1.8895  0.3830 -1.3133
  897MOL0     H21054  -1.427   8.089   3.594  3.8107  0.6555  5.4653
  897MOL0     H21055  -1.595   8.144   3.491  0.0797 -1.3915  0.5588
  897MOL0     H21056  -1.880   8.263   3.312 -0.6963  0.1491  0.7125
  897MOL0     H21057  -1.773   8.378   3.388 -3.3939  0.4955  0.3671
  897MOL0     H21058  -1.714   8.228   3.306  0.0360 -3.0771  1.2144
  897MOL0     H21059  -2.182   8.545   3.591 -0.3459  0.0922 -1.7595
  897MOL0     H21060  -2.401   8.634   3.510  1.3064 -0.9390  0.0512
  897MOL0     H21061  -2.734   8.313   3.498  0.0599 -1.5594  1.8405
  897MOL0     H21062  -2.756   8.428   3.632  3.4383  2.0233  0.5932
  897MOL0     H21063  -2.847   8.458   3.341  0.4358  0.8521 -0.1797
  897MOL0     H21064  -2.951   8.434   3.491 -0.5834  2.3837  1.1078
  897MOL0     H21065  -2.775   8.681   3.438 -0.4621 -1.5019 -2.2418
  897MOL0     H21066  -2.883   8.641   3.577 -0.7158  0.4684  0.5803
  897MOL0     H21067  -2.958   8.821   3.409 -0.8176  0.3634 -2.1717
  897MOL0     H21068  -2.990   8.694   3.295  2.1537 -1.9923  0.2046
  897MOL0     H21069  -3.126   8.722   3.560 -0.6317  5.4417 -2.2363
  897MOL0     H21070  -3.134   8.573   3.455 -2.0876  0.9421 -0.2431
  897MOL0     H21071  -3.250   8.848   3.401 -0.4227  0.6837 -0.7676
  897MOL0     H21072  -3.235   8.709   3.293 -0.4133 -0.9046  0.8616
  897MOL0     H21073  -3.393   8.741   3.554  0.6895 -0.2683  0.0673
  897MOL0     H21074  -3.369   8.582   3.506 -2.1685 -1.2566 -0.9617
  897MOL0     H21075  -3.531   8.602   3.323 -1.2107  0.9024  0.0298
  897MOL0     H21076  -3.443   8.752   3.276 -1.1330  2.5814  1.8232
  897MOL0     H21077  -2.577   8.247   3.609 -2.9728  2.4561  0.0650
  897MOL0     H21078  -2.362   8.163   3.633 -0.3954 -0.6462  1.0000
  897MOL0     H21079  -1.999   8.175   3.787 -0.7705  0.8039 -0.4932
  897MOL0     H21080  -1.773   8.082   3.868  1.3764  0.4311 -0.0099
  897MOL0     H21081  -0.292   8.832   3.083  0.2339 -0.5948  0.8354
  897MOL0     H21082  -0.037   8.849   3.057 -0.5144 -1.5806  3.1618
  897MOL0     H21083   0.323   8.598   2.819  0.1084  1.4639  0.0134
  897MOL0     H21084   0.554   8.572   2.771 -3.1624  1.8297 -2.9035
  897MOL0     H21085   0.807   8.867   2.976  0.4379 -0.3892  1.1908
  897MOL0     H21086   0.888   8.726   3.056 -2.5367 -2.9579 -0.1157
  897MOL0     H21087   1.002   8.660   2.828  4.2120  1.6805  0.8784
  897MOL0     H21088   1.064   8.795   2.921  1.5208  0.1706  0.8133
  897MOL0     H21089   0.951   8.964   2.776 -2.2512  0.0090 -0.9131
  897MOL0     H21090   0.866   8.827   2.699 -0.8588  0.0566  0.4839
  897MOL0     H21091   1.037   8.906   2.558 -1.2634  1.6264  0.7675
  897MOL0     H21092   1.087   8.741   2.631  0.7655  0.4800  0.5502
  897MOL0     H21093   1.397   9.013   2.739  0.9350 -0.9787 -2.9590
  897MOL0     H21094   0.636   8.838   3.111 -3.3575  3.5326 -1.3839
  897MOL0     H21095   0.416   8.856   3.147 -0.6691  0.4636  0.1308
  898MOL0     O21096   0.615   8.542   6.622  0.3340  0.3343  0.2653
  898MOL0     C21097   0.607   8.418   6.594 -0.7192 -0.0995 -0.5048
  898MOL0     O21098   0.527   8.321   6.653  0.0529 -0.2136 -0.3321
  898MOL0     C21099   0.454   8.356   6.764  0.1450  0.0607  0.2502
  898MOL0     C21100   0.518   8.351   6.889  0.3359  0.1095  0.0646
  898MOL0     C21101   0.446   8.387   7.002  0.7018 -0.0415  0.3542
  898MOL0     C21102   0.306   8.417   6.997  0.1076 -0.7315 -0.1984
  898MOL0     O21103   0.242   8.436   7.121  0.6300  0.0438 -0.0578
  898MOL0     C21104   0.120   8.517   7.109 -0.0812  0.2885  0.2912
  898MOL0     C21105   0.090   8.547   7.262 -0.0077  0.5375  0.0401
  898MOL0     C21106  -0.062   8.561   7.280 -0.0710  0.9564 -0.2667
  898MOL0     C21107  -0.102   8.606   7.414 -0.8022  1.4093  0.1769
  898MOL0     C21108  -0.244   8.656   7.420  0.3311  0.0963  0.8259
  898MOL0     C21109  -0.340   8.547   7.380 -0.3127 -0.0698 -0.7357
  898MOL0     C21110  -0.485   8.571   7.412 -0.5285  0.5589 -0.1902
  898MOL0     C21111  -0.572   8.458   7.369 -0.4811  0.2291 -0.4742
  898MOL0     N21112  -0.714   8.480   7.399 -0.2860  0.2782  0.4577
  898MOL0     C21113  -0.787   8.461   7.519  0.0063  0.4685  0.1160
  898MOL0     C21114  -0.913   8.518   7.502 -0.4434  0.2093 -0.3893
  898MOL0     C21115  -1.045   8.503   7.568  0.3469 -0.4153 -0.8620
  898MOL0     C21116  -1.169   8.535   7.482 -0.4944 -0.1983  0.3082
  898MOL0     C21117  -1.304   8.517   7.557 -1.1194 -0.2195 -0.5348
  898MOL0     C21118  -1.430   8.521   7.469 -0.8785  0.0497  0.0594
  898MOL0     O21119  -1.541   8.525   7.561 -0.4357 -0.3196 -0.1889
  898MOL0     C21120  -1.672   8.543   7.519 -0.2230 -0.1204 -0.2513
  898MOL0     C21121  -1.757   8.544   7.625  0.3680 -0.0559  0.1873
  898MOL0     C21122  -1.889   8.571   7.606  0.2383  0.0370 -0.4828
  898MOL0     C21123  -1.962   8.614   7.735  0.0558 -0.2220  0.5584
  898MOL0     C21124  -1.946   8.580   7.483 -0.3690 -1.5004  0.8688
  898MOL0     C21125  -2.091   8.583   7.451  0.8386  0.1785 -0.6101
  898MOL0     O21126  -2.127   8.543   7.318  0.6103 -0.0325 -0.1563
  898MOL0     C21127  -2.260   8.558   7.286  0.5371  0.1476  0.0529
  898MOL0     C21128  -2.304   8.667   7.216 -0.0181  0.8900 -0.2309
  898MOL0     C21129  -2.447   8.674   7.188  0.4009  0.0775  0.0082
  898MOL0     C21130  -2.534   8.578   7.240  0.9917 -0.3027 -0.7255
  898MOL0     O21131  -2.670   8.602   7.231  0.2106 -0.1942 -0.4651
  898MOL0     C21132  -2.758   8.493   7.262  0.1672  0.1195 -0.4154
  898MOL0     C21133  -2.894   8.516   7.185 -0.3236  0.0909 -0.5235
  898MOL0     C21134  -2.997   8.399   7.176 -0.5961 -0.5981 -0.1492
  898MOL0     C21135  -3.135   8.442   7.143  0.3485  0.3077 -0.3590
  898MOL0     C21136  -3.217   8.316   7.141  0.5490 -0.6444 -0.2937
  898MOL0     C21137  -3.355   8.338   7.075  0.0084  0.5288 -0.5820
  898MOL0     C21138  -3.423   8.206   7.048  0.2514 -0.0451 -1.2365
  898MOL0     C21139  -3.373   8.139   6.919 -0.6278  0.1043  0.1801
  898MOL0    Cl21140  -3.440   8.236   6.795  0.1075 -0.6555  0.3006
  898MOL0     C21141  -2.480   8.462   7.297  0.4192 -0.3057 -0.9472
  898MOL0     C21142  -2.344   8.458   7.332 -0.8111 -0.6271  0.1450
  898MOL0     O21143  -2.168   8.626   7.535  0.2516  1.1160 -0.1646
  898MOL0     C21144  -1.858   8.573   7.375 -0.3403 -0.0406  1.2591
  898MOL0     C21145  -1.715   8.555   7.391  0.4377 -0.2257 -0.0890
  898MOL0     N21146  -0.896   8.586   7.381 -0.6709 -0.1143  0.5324
  898MOL0     N21147  -0.781   8.566   7.327  0.6564 -0.7368  0.0422
  898MOL0     C21148   0.246   8.417   6.871  0.4710  0.2118 -0.6572
  898MOL0     C21149   0.318   8.382   6.755  0.9869 -0.2674  0.7960
  898MOL0     C21150   0.699   8.370   6.491 -0.0516  0.7897 -0.0741
  898MOL0     C21151   0.810   8.447   6.454  0.2436  0.4509 -0.7487
  898MOL0     C21152   0.898   8.398   6.353  0.0482 -0.4655 -0.0456
  898MOL0     C21153   0.876   8.276   6.289 -0.3305  0.3726  0.4832
  898MOL0     O21154   0.969   8.246   6.195  0.1670  0.1049 -0.5464
  898MOL0     C21155   0.962   8.117   6.126  0.0786  0.4584  0.0185
  898MOL0     C21156   1.101   8.072   6.082 -0.2737 -0.5585 -0.5944
  898MOL0     C21157   1.177   8.171   5.991  0.3004 -0.2387 -0.3388
  898MOL0     C21158   1.283   8.092   5.906 -0.1693 -0.5148 -0.4307
  898MOL0     C21159   1.344   8.190   5.820 -0.5197 -0.3957  0.4194
  898MOL0     C21160   1.381   8.280   5.739 -0.0308 -0.1879  0.2107
  898MOL0     C21161   0.766   8.204   6.326  0.5152 -0.4640 -0.2537
  898MOL0     C21162   0.672   8.245   6.423 -0.2157  0.5151 -0.2774
  898MOL0     H21163   0.623   8.325   6.894 -0.0271 -1.2253  1.8994
  898MOL0     H21164   0.498   8.377   7.097 -1.2394 -0.5993  1.4208
  898MOL0     H21165   0.128   8.605   7.045 -0.9090  2.0342  2.4809
  898MOL0     H21166   0.041   8.452   7.069 -0.5946  2.0876 -1.7918
  898MOL0     H21167   0.130   8.473   7.332 -1.3812 -0.2245  0.0536
  898MOL0     H21168   0.136   8.642   7.292 -0.6271  1.7722 -2.6254
  898MOL0     H21169  -0.099   8.632   7.204 -0.6571 -1.1775 -2.0739
  898MOL0     H21170  -0.095   8.462   7.248 -0.0251  0.1578  2.0132
  898MOL0     H21171  -0.085   8.524   7.484 -0.7885  0.0897 -1.2894
  898MOL0     H21172  -0.040   8.690   7.446  0.4710  0.0426  1.4348
  898MOL0     H21173  -0.263   8.679   7.525  1.7225  0.6598  0.9756
  898MOL0     H21174  -0.251   8.743   7.354 -0.9394 -1.7092 -1.5644
  898MOL0     H21175  -0.333   8.526   7.273  0.3113 -2.6024 -0.2633
  898MOL0     H21176  -0.321   8.460   7.443 -1.3697 -1.6302 -2.4799
  898MOL0     H21177  -0.514   8.593   7.515 -2.6797 -1.5845 -0.2366
  898MOL0     H21178  -0.520   8.651   7.346  3.5029  1.1363 -1.8909
  898MOL0     H21179  -0.545   8.362   7.414  1.8640  0.7971 -0.5328
  898MOL0     H21180  -0.566   8.447   7.261  1.0262  1.1532 -0.5101
  898MOL0     H21181  -0.746   8.402   7.600 -1.1103  0.7368  0.8917
  898MOL0     H21182  -1.061   8.406   7.615  1.9920 -1.2291 -1.9016
  898MOL0     H21183  -1.039   8.576   7.650 -2.2198 -0.4544 -0.5794
  898MOL0     H21184  -1.169   8.467   7.396 -1.1379  1.7600 -1.2968
  898MOL0     H21185  -1.168   8.633   7.433 -1.8879 -0.5955 -0.5561
  898MOL0     H21186  -1.304   8.605   7.623 -1.3276  2.3217 -3.7014
  898MOL0     H21187  -1.298   8.430   7.623  0.0230  0.9756  1.0277
  898MOL0     H21188  -1.445   8.440   7.397  0.6760  0.8318 -1.2084
  898MOL0     H21189  -1.427   8.614   7.412 -0.4519 -0.5599 -0.9315
  898MOL0     H21190  -1.712   8.535   7.723 -2.2500 -2.2128  1.3353
  898MOL0     H21191  -1.884   8.630   7.810  2.3967 -0.1442 -1.7288
  898MOL0     H21192  -2.023   8.703   7.720  0.8171  0.1114 -0.7052
  898MOL0     H21193  -2.028   8.530   7.755 -1.1663  0.1702 -1.5753
  898MOL0     H21194  -2.244   8.747   7.175 -1.5070  1.1077 -2.1216
  898MOL0     H21195  -2.491   8.755   7.131 -0.6223  0.0742  0.7565
  898MOL0     H21196  -2.722   8.399   7.220  1.4684 -0.2436  1.3770
  898MOL0     H21197  -2.758   8.486   7.371  2.7285  1.4531 -0.2554
  898MOL0     H21198  -2.937   8.607   7.227  1.3521  1.2304 -1.1351
  898MOL0     H21199  -2.867   8.527   7.079 -2.7603 -1.0386 -1.3247
  898MOL0     H21200  -2.995   8.345   7.271  2.2409  1.3116  1.0330
  898MOL0     H21201  -2.958   8.333   7.099 -2.4414 -1.7023 -0.1795
  898MOL0     H21202  -3.181   8.521   7.202 -1.5091 -0.2689 -0.9816
  898MOL0     H21203  -3.129   8.479   7.040 -0.2950 -0.4533 -0.6769
  898MOL0     H21204  -3.228   8.270   7.240  1.9778  3.5224  2.0239
  898MOL0     H21205  -3.158   8.248   7.078  1.6301 -0.3226  0.3353
  898MOL0     H21206  -3.417   8.394   7.146 -3.2306  0.1130 -2.8532
  898MOL0     H21207  -3.341   8.402   6.987  2.3761 -0.0578 -0.6823
  898MOL0     H21208  -3.529   8.225   7.027 -0.2076  1.9902  2.2059
  898MOL0     H21209  -3.424   8.147   7.140  0.2327  1.8381  0.0423
  898MOL0     H21210  -3.416   8.039   6.916 -0.6754  0.1411 -1.5145
  898MOL0     H21211  -3.265   8.119   6.914 -0.5255  0.1651  1.7540
  898MOL0     H21212  -2.544   8.381   7.330 -0.7781  1.3343  0.9678
  898MOL0     H21213  -2.307   8.376   7.392 -1.3329  1.2129  3.2110
  898MOL0     H21214  -1.904   8.586   7.277  1.1498 -3.5916 -0.0871
  898MOL0     H21215  -1.649   8.563   7.306 -0.2240  0.8920 -0.5194
  898MOL0     H21216   0.140   8.440   6.867  0.2483 -0.4092  0.8839
  898MOL0     H21217   0.274   8.389   6.656  2.9978  2.0213 -0.0524
  898MOL0     H21218   0.830   8.546   6.494  1.6855 -0.1329  0.0365
  898MOL0     H21219   0.985   8.460   6.337  2.6740 -3.2405  2.3082
  898MOL0     H21220   0.929   8.041   6.197 -0.4273 -0.5034 -1.2099
  898MOL0     H21221   0.896   8.117   6.039  1.0917  1.5379 -0.7808
  898MOL0     H21222   1.082   7.981   6.025 -0.5011 -0.5703 -0.4989
  898MOL0     H21223   1.158   8.036   6.168 -0.8511  0.8638  0.4295
  898MOL0     H21224   1.224   8.251   6.050 -0.3966 -1.3027  1.7700
  898MOL0     H21225   1.108   8.221   5.922 -1.3011  0.2362  1.5221
  898MOL0     H21226   1.231   8.017   5.846  0.0263 -1.8010  0.9287
  898MOL0     H21227   1.360   8.036   5.961 -0.8921  2.6852  4.4265
  898MOL0     H21228   1.425   8.344   5.665  0.5782 -1.0104 -0.1606
  898MOL0     H21229   0.724   8.124   6.266 -0.7084  0.2939 -0.4338
  898MOL0     H21230   0.578   8.195   6.445 -0.0891  0.2137 -0.4111
  899MOL0     O21231   1.314   4.048   3.312  0.5257  0.0398 -0.0488
  899MOL0     C21232   1.358   3.948   3.369 -0.3183 -0.1281 -0.9420
  899MOL0     O21233   1.285   3.856   3.448  0.1008 -0.4946  0.2321
  899MOL0     C21234   1.148   3.849   3.433  0.9821  0.6364 -0.5659
  899MOL0     C21235   1.097   3.814   3.313 -0.2201  0.1983 -0.4759
  899MOL0     C21236   0.961   3.823   3.288 -0.2541 -0.0162  1.3888
  899MOL0     C21237   0.867   3.862   3.386  0.2312 -0.4283  0.1749
  899MOL0     O21238   0.739   3.872   3.350  0.6796  0.3365  0.2139
  899MOL0     C21239   0.645   3.842   3.455  0.2715  0.0672  0.0083
  899MOL0     C21240   0.511   3.807   3.395  0.4064  0.2337 -0.2447
  899MOL0     C21241   0.422   3.713   3.490 -0.4380 -0.1799  0.3336
  899MOL0     C21242   0.274   3.707   3.431  1.1730  0.7586  0.2580
  899MOL0     C21243   0.210   3.571   3.468  0.9540  0.2536  0.0786
  899MOL0     C21244   0.059   3.560   3.434  0.6141  0.4370 -0.0495
  899MOL0     C21245  -0.007   3.447   3.516  0.2313 -0.4455 -0.7437
  899MOL0     C21246  -0.146   3.414   3.473 -0.7224  0.1409  0.4039
  899MOL0     N21247  -0.244   3.529   3.475 -0.3281 -0.1239 -0.0970
  899MOL0     C21248  -0.278   3.602   3.574 -0.8759 -0.5859 -0.0623
  899MOL0     C21249  -0.342   3.714   3.527 -0.0190 -0.3396  0.9829
  899MOL0     C21250  -0.389   3.843   3.592 -0.2040 -0.2168  0.5172
  899MOL0     C21251  -0.552   3.852   3.611  0.4256  0.2203  0.2907
  899MOL0     C21252  -0.595   3.761   3.711  0.1408  0.2085  0.4359
  899MOL0     C21253  -0.741   3.769   3.744  0.0278 -0.9903  1.2251
  899MOL0     O21254  -0.819   3.781   3.617 -0.2241 -0.4280  0.3340
  899MOL0     C21255  -0.946   3.824   3.630  0.3940  0.1663 -0.0953
  899MOL0     C21256  -1.015   3.850   3.513  0.6695  0.2269 -0.8056
  899MOL0     C21257  -1.154   3.890   3.516  0.3111 -0.3557  0.2547
  899MOL0     C21258  -1.218   3.924   3.383  0.0493 -0.5733 -0.2680
  899MOL0     C21259  -1.218   3.910   3.639  0.6588  0.0150 -0.6033
  899MOL0     C21260  -1.361   3.936   3.647  0.0252 -0.2506 -0.0501
  899MOL0     O21261  -1.388   4.009   3.750 -0.1313 -0.4703  0.8021
  899MOL0     C21262  -1.506   4.083   3.757  0.4499  0.7561  0.4210
  899MOL0     C21263  -1.559   4.161   3.648 -0.2095 -0.0038  0.0013
  899MOL0     C21264  -1.668   4.240   3.660 -0.4216 -0.3346  0.2103
  899MOL0     C21265  -1.748   4.244   3.778 -0.7572 -0.0883  0.4397
  899MOL0     O21266  -1.854   4.323   3.791 -0.5157 -0.1100 -0.6155
  899MOL0     C21267  -1.932   4.319   3.911  0.2884 -0.0079  0.5541
  899MOL0     C21268  -2.017   4.193   3.930  0.6023 -0.0736 -0.0609
  899MOL0     C21269  -2.120   4.178   3.829 -0.8518  0.5526 -0.6815
  899MOL0     C21270  -2.201   4.054   3.867 -1.4221 -0.5230 -1.1280
  899MOL0     C21271  -2.354   4.040   3.829 -0.3383  0.0544  0.0446
  899MOL0     C21272  -2.438   3.935   3.907 -0.0231  0.4880  0.4743
  899MOL0     C21273  -2.393   3.787   3.881  0.4416 -0.9612 -0.3683
  899MOL0     C21274  -2.471   3.698   3.975  0.6886 -0.3632  0.2130
  899MOL0    Cl21275  -2.640   3.686   3.907 -0.1241 -0.3750 -0.6517
  899MOL0     C21276  -1.695   4.164   3.879  0.3526 -0.1597 -0.1157
  899MOL0     C21277  -1.579   4.086   3.870 -0.3063 -0.3660  0.7846
  899MOL0     O21278  -1.447   3.888   3.568 -0.1595  0.1716  0.1144
  899MOL0     C21279  -1.146   3.886   3.760 -0.0425  0.5717 -0.2325
  899MOL0     C21280  -1.011   3.844   3.756  0.8270  0.7044 -1.1813
  899MOL0     N21281  -0.350   3.701   3.392  0.5263 -1.0524 -0.5646
  899MOL0     N21282  -0.304   3.586   3.361 -0.2336 -0.1943 -0.3322
  899MOL0     C21283   0.916   3.888   3.520 -0.1293  0.3238 -0.0508
  899MOL0     C21284   1.059   3.885   3.544  0.0212  0.8645  0.3849
  899MOL0     C21285   1.511   3.935   3.367  0.7207 -0.4405 -0.1005
  899MOL0     C21286   1.590   4.006   3.268 -0.1519  0.0431 -0.4370
  899MOL0     C21287   1.729   3.995   3.275  0.6361  0.4442  0.4176
  899MOL0     C21288   1.795   3.914   3.367  0.2767 -0.0237  0.0929
  899MOL0     O21289   1.931   3.892   3.381 -1.2240  0.1821 -0.1386
  899MOL0     C21290   2.023   3.988   3.322 -0.6122 -0.6448 -0.5582
  899MOL0     C21291   2.161   3.981   3.394 -0.9401 -0.5503 -0.4427
  899MOL0     C21292   2.163   4.040   3.540 -0.7221 -0.3686 -0.7023
  899MOL0     C21293   2.284   3.989   3.630 -0.3652 -0.4649  0.4774
  899MOL0     C21294   2.295   3.849   3.649  0.9081 -0.1061  0.3490
  899MOL0     C21295   2.293   3.731   3.665 -0.1593  0.2074 -0.2900
  899MOL0     C21296   1.716   3.847   3.453 -0.2698  0.5118 -0.5014
  899MOL0     C21297   1.575   3.862   3.465  0.6926 -0.2432  0.1645
  899MOL0     H21298   1.164   3.779   3.235  3.1764 -0.6062  2.5230
  899MOL0     H21299   0.921   3.814   3.187 -3.9435  0.6011  2.6586
  899MOL0     H21300   0.677   3.752   3.508  3.2177 -0.5660 -2.5772
  899MOL0     H21301   0.642   3.932   3.517  1.3412 -0.4572  0.8511
  899MOL0     H21302   0.461   3.903   3.375  0.9827  1.0708  2.0257
  899MOL0     H21303   0.529   3.751   3.303  1.0789  0.8197 -0.4799
  899MOL0     H21304   0.464   3.612   3.490  0.8328  0.2933 -1.1781
  899MOL0     H21305   0.422   3.748   3.593 -2.6666 -0.7677  0.5616
  899MOL0     H21306   0.223   3.792   3.477  0.1244 -0.4359  1.3686
  899MOL0     H21307   0.265   3.720   3.322 -1.5646 -1.1066  0.1758
  899MOL0     H21308   0.268   3.492   3.419 -1.1523 -1.1254 -0.3407
  899MOL0     H21309   0.222   3.558   3.576  2.7852  1.6055  0.0788
  899MOL0     H21310   0.001   3.653   3.434  0.7211  0.5051  0.1694
  899MOL0     H21311   0.052   3.548   3.325 -0.4573  1.9761 -0.1910
  899MOL0     H21312   0.054   3.357   3.506  0.8070 -0.1006 -0.3814
  899MOL0     H21313  -0.004   3.473   3.623 -0.6316  0.6281 -0.9556
  899MOL0     H21314  -0.174   3.323   3.526  1.3768 -0.5504  0.3857
  899MOL0     H21315  -0.133   3.370   3.373  0.7352 -0.2754  0.7628
  899MOL0     H21316  -0.255   3.590   3.680 -0.8075  0.4489  0.0523
  899MOL0     H21317  -0.347   3.842   3.693 -2.2716 -0.7990  1.4282
  899MOL0     H21318  -0.354   3.928   3.533 -0.4464 -1.0659 -0.8786
  899MOL0     H21319  -0.596   3.826   3.514  2.6675  1.2514 -1.0922
  899MOL0     H21320  -0.595   3.951   3.631 -2.8668 -1.0088 -0.1304
  899MOL0     H21321  -0.534   3.772   3.801  0.6649  0.2083  0.0858
  899MOL0     H21322  -0.566   3.664   3.668 -0.5902 -0.7545  2.0368
  899MOL0     H21323  -0.752   3.860   3.803 -0.5951  0.9578 -1.7053
  899MOL0     H21324  -0.758   3.683   3.811 -1.1943  0.0771  2.3326
  899MOL0     H21325  -0.973   3.840   3.413  0.7884  1.1060 -0.8520
  899MOL0     H21326  -1.300   3.995   3.391 -0.7773 -1.4769 -0.4586
  899MOL0     H21327  -1.146   3.958   3.308 -0.5321  0.9421 -0.1625
  899MOL0     H21328  -1.274   3.838   3.344 -3.0346  1.5172 -0.7518
  899MOL0     H21329  -1.509   4.167   3.552 -0.7909  0.5737 -0.2630
  899MOL0     H21330  -1.707   4.294   3.574  0.8253 -1.9007 -1.3913
  899MOL0     H21331  -1.871   4.338   3.999  0.4927 -2.1680  0.9297
  899MOL0     H21332  -1.990   4.410   3.893 -0.5536 -0.1907  2.1656
  899MOL0     H21333  -1.948   4.108   3.925  2.1837  1.0719  1.3624
  899MOL0     H21334  -2.055   4.202   4.032  3.2430  1.7739  0.8656
  899MOL0     H21335  -2.074   4.157   3.731 -1.3672  1.5342 -1.1469
  899MOL0     H21336  -2.179   4.269   3.817 -1.9607 -0.0856 -0.2086
  899MOL0     H21337  -2.144   3.966   3.835 -1.0716 -0.7007 -0.0634
  899MOL0     H21338  -2.196   4.039   3.975 -1.8882 -3.3762 -1.4349
  899MOL0     H21339  -2.353   4.036   3.719 -4.0188 -0.6212 -0.0887
  899MOL0     H21340  -2.406   4.131   3.859 -0.8092 -1.0226  2.7392
  899MOL0     H21341  -2.439   3.957   4.015 -3.9409  1.3264  0.4139
  899MOL0     H21342  -2.541   3.943   3.872  0.8930  3.0085 -1.9945
  899MOL0     H21343  -2.286   3.776   3.897  0.4523 -1.5746 -0.8421
  899MOL0     H21344  -2.427   3.765   3.780 -0.4250 -3.6649  0.4212
  899MOL0     H21345  -2.472   3.732   4.079  0.0180  0.7761 -0.1573
  899MOL0     H21346  -2.427   3.599   3.990 -1.1124 -1.4304 -1.1610
  899MOL0     H21347  -1.735   4.169   3.980  1.1452 -1.1540  0.2590
  899MOL0     H21348  -1.558   4.019   3.953 -0.4727  0.6875  1.6975
  899MOL0     H21349  -1.207   3.889   3.850 -1.9656  2.0802 -1.4888
  899MOL0     H21350  -0.966   3.834   3.854 -1.1553 -1.0498 -0.3819
  899MOL0     H21351   0.845   3.931   3.590 -0.1359 -0.1971  0.2679
  899MOL0     H21352   1.092   3.908   3.645 -2.8267  0.6265  1.4513
  899MOL0     H21353   1.554   4.066   3.185  1.8894  0.4714 -1.0861
  899MOL0     H21354   1.789   4.055   3.208 -1.2822  1.0135 -0.8744
  899MOL0     H21355   2.032   3.950   3.220 -1.0418  0.8662 -1.1725
  899MOL0     H21356   1.989   4.091   3.312 -2.1000 -1.0927 -0.3308
  899MOL0     H21357   2.231   4.029   3.326 -1.1600 -0.9450 -0.9585
  899MOL0     H21358   2.190   3.875   3.392 -4.3956 -1.6411 -2.0711
  899MOL0     H21359   2.075   4.012   3.598  0.5454 -0.3886  1.3330
  899MOL0     H21360   2.169   4.150   3.541 -0.0287 -0.3950  0.0577
  899MOL0     H21361   2.271   4.034   3.729 -1.8312  0.6122 -0.1513
  899MOL0     H21362   2.374   4.034   3.586 -2.0083  3.0813  0.3436
  899MOL0     H21363   2.284   3.625   3.677 -3.7004  0.4792  0.7334
  899MOL0     H21364   1.767   3.777   3.518  0.2032 -0.8615 -2.2915
  899MOL0     H21365   1.520   3.803   3.538  1.4252 -2.9816 -1.3249
  900MOL0     O21366   5.922   9.480  10.358  0.5858 -0.4227  0.7560
  900MOL0     C21367   5.960   9.590  10.397  0.2048 -0.2057 -0.3183
  900MOL0     O21368   5.882   9.702  10.410 -0.0293  0.0194 -0.3523
  900MOL0     C21369   5.755   9.706  10.358  0.3709 -0.3091  0.0073
  900MOL0     C21370   5.673   9.796  10.427  0.5635 -0.0300 -0.0990
  900MOL0     C21371   5.544   9.825  10.390  0.7814 -0.1374 -0.3250
  900MOL0     C21372   5.486   9.743  10.288  0.3374  0.3148 -0.1607
  900MOL0     O21373   5.349   9.750  10.263 -0.0515 -0.0866  0.7761
  900MOL0     C21374   5.276   9.625  10.288  0.6000  0.5442  0.4919
  900MOL0     C21375   5.132   9.641  10.341  0.2522  0.7900 -0.2731
  900MOL0     C21376   5.048   9.741  10.260  0.3717 -0.2358  0.1740
  900MOL0     C21377   4.906   9.718  10.319 -1.1909  0.0391  0.0792
  900MOL0     C21378   4.802   9.819  10.268  0.3946 -0.3443 -0.2015
  900MOL0     C21379   4.659   9.766  10.297  0.0266 -0.5507 -0.1286
  900MOL0     C21380   4.621   9.768  10.446 -0.0439  0.3467 -0.8380
  900MOL0     C21381   4.489   9.698  10.475  1.0892 -0.2842  0.4255
  900MOL0     N21382   4.364   9.770  10.427 -0.2618  0.0955  0.1291
  900MOL0     C21383   4.320   9.891  10.463  0.1517 -0.8127 -0.1220
  900MOL0     C21384   4.204   9.905  10.393  0.5121  0.6458 -0.4434
  900MOL0     C21385   4.107  10.016  10.400  0.0453  0.2444  0.6068
  900MOL0     C21386   4.091  10.073  10.258 -0.0685 -0.1526  0.1801
  900MOL0     C21387   3.945  10.140  10.231  0.4851 -0.0041 -0.6820
  900MOL0     C21388   3.834  10.035  10.227  0.5922  0.2058 -0.3379
  900MOL0     O21389   3.724  10.072  10.141  0.2136 -0.1307 -0.5440
  900MOL0     C21390   3.624  10.156  10.172  0.3482  0.1719 -0.0830
  900MOL0     C21391   3.530  10.186  10.077 -0.6593 -0.0862  0.1984
  900MOL0     C21392   3.413  10.259  10.099 -2.0690  0.3413 -0.1170
  900MOL0     C21393   3.318  10.271   9.980  0.5793 -0.0347  0.6855
  900MOL0     C21394   3.391  10.329  10.222  0.3189 -0.5869  0.2963
  900MOL0     C21395   3.257  10.398  10.264 -0.0384  0.3009 -0.1104
  900MOL0     O21396   3.147  10.392  10.180  0.5661  0.5772 -0.6370
  900MOL0     C21397   3.050  10.481  10.222  0.8510 -0.1180  0.1773
  900MOL0     C21398   3.027  10.594  10.139 -0.5239  0.2977  0.0401
  900MOL0     C21399   2.909  10.670  10.162  0.3175 -0.5766  0.3569
  900MOL0     C21400   2.823  10.648  10.267  0.0881  0.2052  0.6409
  900MOL0     O21401   2.709  10.725  10.265  0.2643  0.1413  0.0797
  900MOL0     C21402   2.594  10.660  10.310 -0.0826  0.2277 -0.0386
  900MOL0     C21403   2.459  10.690  10.245 -0.5898  0.2774 -0.0049
  900MOL0     C21404   2.437  10.618  10.112 -0.0709  0.3211  0.4316
  900MOL0     C21405   2.280  10.626  10.088  0.4005 -0.1633  0.0326
  900MOL0     C21406   2.241  10.559   9.953 -0.6200  0.1591  0.1486
  900MOL0     C21407   2.273  10.627   9.820 -0.5978 -0.7629 -0.7286
  900MOL0     C21408   2.237  10.543   9.699 -0.3183  0.7606  0.6462
  900MOL0     C21409   2.301  10.605   9.576  0.3246  0.3298  0.2428
  900MOL0    Cl21410   2.284  10.503   9.430  0.8605 -0.4515  0.4576
  900MOL0     C21411   2.850  10.541  10.352  0.4516  0.5598 -0.4381
  900MOL0     C21412   2.961  10.452  10.336 -0.0525 -0.5171  0.3808
  900MOL0     O21413   3.259  10.460  10.370  0.4730  0.0151  0.6469
  900MOL0     C21414   3.494  10.310  10.317  0.9459 -0.2960 -0.4212
  900MOL0     C21415   3.605  10.221  10.297  0.2032 -0.3204 -0.2149
  900MOL0     N21416   4.181   9.789  10.321 -0.3925 -0.0562 -0.0355
  900MOL0     N21417   4.273   9.708  10.349  1.0180  0.3593  0.1361
  900MOL0     C21418   5.561   9.650  10.212  0.1709 -0.1866  0.1083
  900MOL0     C21419   5.700   9.639  10.246  0.3984  0.3596  0.6704
  900MOL0     C21420   6.104   9.614  10.411  0.3169 -0.1687 -0.0871
  900MOL0     C21421   6.159   9.723  10.475 -0.9090 -0.5457 -0.0980
  900MOL0     C21422   6.299   9.733  10.491 -0.0143  0.6451  0.0622
  900MOL0     C21423   6.386   9.639  10.437 -0.1914 -0.3750 -0.1610
  900MOL0     O21424   6.522   9.655  10.452  0.3097 -0.4047 -0.2370
  900MOL0     C21425   6.584   9.669  10.323 -0.2937 -0.5150 -0.2260
  900MOL0     C21426   6.732   9.638  10.351  0.2137  0.0356  0.5548
  900MOL0     C21427   6.815   9.645  10.221 -0.1875  0.0567 -0.1212
  900MOL0     C21428   6.884   9.776  10.203  0.0139 -0.2011 -0.0139
  900MOL0     C21429   6.798   9.895  10.230 -0.6528 -0.1020 -0.1518
  900MOL0     C21430   6.718   9.984  10.260  0.0035  0.3727  0.5185
  900MOL0     C21431   6.329   9.535  10.377  0.0069 -0.2202  0.7601
  900MOL0     C21432   6.189   9.524  10.352 -0.2464  0.0970  0.4135
  900MOL0     H21433   5.712   9.859  10.507  0.7678  0.4852 -0.5993
  900MOL0     H21434   5.474   9.894  10.436  1.7324 -0.4759  1.7352
  900MOL0     H21435   5.260   9.569  10.195 -2.9673 -2.0945  2.4466
  900MOL0     H21436   5.320   9.554  10.359 -3.3366 -3.2045 -0.3757
  900MOL0     H21437   5.083   9.543  10.334 -1.8963  1.5103  2.7504
  900MOL0     H21438   5.141   9.664  10.448 -0.2677 -0.5944  0.0986
  900MOL0     H21439   5.078   9.845  10.276  2.9854 -0.8036 -0.5852
  900MOL0     H21440   5.059   9.718  10.153  2.4774  0.6043  0.1527
  900MOL0     H21441   4.878   9.616  10.291 -0.7713 -0.0519 -0.0192
  900MOL0     H21442   4.909   9.727  10.428  0.2100 -1.6610  0.2358
  900MOL0     H21443   4.822   9.919  10.309 -0.7240 -0.8467  1.6998
  900MOL0     H21444   4.819   9.833  10.161 -1.6179  0.2769 -0.4725
  900MOL0     H21445   4.585   9.827  10.244  1.5647  0.9512 -0.6164
  900MOL0     H21446   4.645   9.665  10.257 -1.9695 -0.4451  0.1884
  900MOL0     H21447   4.697   9.719  10.508 -0.3800 -0.6305 -1.1856
  900MOL0     H21448   4.613   9.872  10.479  0.6438  0.0905  0.1835
  900MOL0     H21449   4.485   9.699  10.584 -0.4030  1.9851  0.4307
  900MOL0     H21450   4.500   9.596  10.437  0.4486 -0.0890 -0.3188
  900MOL0     H21451   4.358   9.971  10.524  1.0402 -0.4903 -1.0664
  900MOL0     H21452   4.009   9.980  10.434  1.2777 -2.8891  1.1690
  900MOL0     H21453   4.152  10.086  10.470  0.5183  3.0470 -2.2708
  900MOL0     H21454   4.106  10.002  10.176 -0.0257  0.0622  0.0009
  900MOL0     H21455   4.177  10.137  10.236 -0.1518  0.4347  1.4964
  900MOL0     H21456   3.955  10.184  10.132  0.5631  0.6535 -0.3838
  900MOL0     H21457   3.916  10.220  10.300 -0.2927 -0.7482 -0.1169
  900MOL0     H21458   3.798  10.011  10.328  0.2264 -1.0457 -0.7476
  900MOL0     H21459   3.884   9.945  10.188 -1.3057 -0.9334 -0.2713
  900MOL0     H21460   3.551  10.145   9.979  0.9505  0.9058  0.0909
  900MOL0     H21461   3.385  10.261   9.894 -0.7076 -0.8361 -0.2624
  900MOL0     H21462   3.242  10.192   9.976  0.5726  0.0330 -1.1919
  900MOL0     H21463   3.279  10.372   9.969 -1.1149 -0.6591  0.5747
  900MOL0     H21464   3.088  10.621  10.053 -2.3537  0.4035 -1.3006
  900MOL0     H21465   2.882  10.754  10.098  0.1802 -0.7524  0.1851
  900MOL0     H21466   2.612  10.552  10.311  3.0194  0.6423  0.0218
  900MOL0     H21467   2.576  10.685  10.415 -0.7957 -1.6695  0.3295
  900MOL0     H21468   2.385  10.668  10.322 -0.3681  0.7882  0.3552
  900MOL0     H21469   2.455  10.797  10.224 -0.9962  1.2234  4.1611
  900MOL0     H21470   2.469  10.513  10.113  1.2951  0.7168 -0.1109
  900MOL0     H21471   2.482  10.666  10.025 -0.1025 -2.8644 -1.5161
  900MOL0     H21472   2.223  10.577  10.167  5.0093 -3.2928  1.8575
  900MOL0     H21473   2.246  10.728  10.068 -0.0167 -0.6030 -1.6343
  900MOL0     H21474   2.133  10.548   9.940 -0.3437  0.9829 -5.1757
  900MOL0     H21475   2.277  10.456   9.959 -0.9222  0.1242  2.0588
  900MOL0     H21476   2.221  10.723   9.818  0.5653 -0.1091 -0.6288
  900MOL0     H21477   2.381  10.646   9.816 -1.0438  2.1351 -0.5359
  900MOL0     H21478   2.128  10.552   9.690 -0.4503  0.7843  1.9369
  900MOL0     H21479   2.275  10.442   9.710 -2.1927  0.0647  1.1381
  900MOL0     H21480   2.407  10.628   9.586  0.2576  0.6822  0.1640
  900MOL0     H21481   2.251  10.702   9.563 -0.4325 -0.1949 -1.0072
  900MOL0     H21482   2.785  10.527  10.438  1.3698  2.8931  0.7445
  900MOL0     H21483   2.992  10.376  10.407 -1.4094  0.6322  2.3015
  900MOL0     H21484   3.485  10.354  10.415 -0.3921 -0.8429 -0.2691
  900MOL0     H21485   3.683  10.208  10.371  0.7386  0.4957 -0.6193
  900MOL0     H21486   5.502   9.590  10.144 -1.1086  2.3565 -1.2039
  900MOL0     H21487   5.768   9.576  10.191  1.5337 -0.1659  2.5817
  900MOL0     H21488   6.100   9.807  10.511  2.0071  1.5710  0.1110
  900MOL0     H21489   6.345   9.824  10.527  1.2506  0.7838 -1.7545
  900MOL0     H21490   6.548   9.600  10.246 -1.8950  0.1397 -0.0955
  900MOL0     H21491   6.570   9.772  10.289  1.0795  0.6816  2.5010
  900MOL0     H21492   6.738   9.535  10.388  0.1639  0.0187  0.5134
  900MOL0     H21493   6.789   9.699  10.422 -1.1133  2.8611 -0.6695
  900MOL0     H21494   6.761   9.618  10.129  1.0528  1.8747 -1.4529
  900MOL0     H21495   6.892   9.569  10.236 -0.9969 -0.3241  2.6443
  900MOL0     H21496   6.920   9.786  10.101  1.7969  0.7733  0.6587
  900MOL0     H21497   6.976   9.780  10.262  1.4452  1.2796 -2.2085
  900MOL0     H21498   6.653  10.068  10.275  1.9297  2.3457 -1.3458
  900MOL0     H21499   6.402   9.463  10.341 -0.9385 -0.3728 -0.9576
  900MOL0     H21500   6.159   9.436  10.296  1.8233  0.4742 -1.4111
  901MOL0     O21501   5.305   8.546   1.335 -0.0384  0.6788 -0.3686
  901MOL0     C21502   5.388   8.630   1.359 -0.5224 -0.4641  0.3046
  901MOL0     O21503   5.399   8.691   1.483 -0.3074 -0.2829  0.0634
  901MOL0     C21504   5.301   8.673   1.576  0.4103 -0.0512  0.0213
  901MOL0     C21505   5.322   8.593   1.688  0.1236 -0.5936 -0.0749
  901MOL0     C21506   5.215   8.574   1.781  0.0859  0.7172  0.1875
  901MOL0     C21507   5.086   8.645   1.762 -0.5146  0.0788 -0.5240
  901MOL0     O21508   4.993   8.634   1.858  0.5403 -0.6464 -0.7038
  901MOL0     C21509   4.854   8.663   1.821  0.3931  0.2612 -0.2666
  901MOL0     C21510   4.775   8.636   1.952 -0.0823 -0.0148 -0.1840
  901MOL0     C21511   4.621   8.632   1.929  0.3515 -0.0952 -0.2250
  901MOL0     C21512   4.548   8.758   1.964  0.2356 -0.1355 -0.0734
  901MOL0     C21513   4.387   8.764   1.952 -0.3370  0.1498  0.1530
  901MOL0     C21514   4.361   8.796   1.803 -0.8797  0.7462  0.1148
  901MOL0     C21515   4.210   8.802   1.759  0.1594 -0.6857  1.1928
  901MOL0     C21516   4.137   8.932   1.809  0.5694 -0.3663  0.1431
  901MOL0     N21517   3.994   8.938   1.762 -0.5640  0.3388  0.4843
  901MOL0     C21518   3.944   8.947   1.633  0.1378  0.0036 -0.7281
  901MOL0     C21519   3.804   8.942   1.654 -0.5608  0.3808  0.4845
  901MOL0     C21520   3.703   8.946   1.539 -0.0691  0.4455 -0.6792
  901MOL0     C21521   3.559   8.962   1.592  0.2341  0.6902 -0.2591
  901MOL0     C21522   3.477   8.962   1.462  0.2437 -0.5323  0.3110
  901MOL0     C21523   3.328   8.986   1.468  0.5444  0.0638  0.2826
  901MOL0     O21524   3.304   9.109   1.536 -0.3791  0.0249  0.4684
  901MOL0     C21525   3.173   9.151   1.555  0.0649  0.0736  0.7236
  901MOL0     C21526   3.154   9.264   1.630 -0.2160 -0.1711 -0.0286
  901MOL0     C21527   3.030   9.328   1.638  0.9168 -0.5677 -1.1623
  901MOL0     C21528   3.027   9.469   1.699  0.3838 -0.3023 -0.0054
  901MOL0     C21529   2.918   9.266   1.576 -0.3382  0.5195 -0.7378
  901MOL0     C21530   2.780   9.322   1.580  0.3837 -0.1052 -0.2444
  901MOL0     O21531   2.695   9.293   1.478  0.0082 -0.7913  0.2753
  901MOL0     C21532   2.556   9.309   1.487  0.9243 -1.0453  0.4020
  901MOL0     C21533   2.477   9.268   1.590  0.6159  0.6808  0.1039
  901MOL0     C21534   2.336   9.283   1.587 -0.4440 -0.1097 -0.0242
  901MOL0     C21535   2.274   9.335   1.474 -0.0020 -0.3027 -0.4932
  901MOL0     O21536   2.141   9.353   1.483 -0.0470  0.6376  0.1245
  901MOL0     C21537   2.064   9.444   1.406  0.3274  0.3573  1.0159
  901MOL0     C21538   2.025   9.392   1.256  0.7267  0.3415  0.2295
  901MOL0     C21539   1.885   9.319   1.258  0.3917  0.4530  0.1407
  901MOL0     C21540   1.872   9.204   1.357  0.1805 -1.0864  0.0455
  901MOL0     C21541   1.729   9.146   1.353  0.5782  0.1788 -0.4717
  901MOL0     C21542   1.646   9.168   1.481  0.1131 -0.5867 -0.4873
  901MOL0     C21543   1.524   9.071   1.480 -0.0710  0.1866  0.1852
  901MOL0     C21544   1.419   9.121   1.579 -0.0153  0.1235 -0.5973
  901MOL0    Cl21545   1.316   8.981   1.642 -0.3070 -0.2854 -0.2983
  901MOL0     C21546   2.350   9.367   1.361 -0.4203  1.0912 -0.5971
  901MOL0     C21547   2.496   9.347   1.372  1.0285 -0.4938 -0.0532
  901MOL0     O21548   2.749   9.378   1.686  0.6788 -0.3529 -0.2336
  901MOL0     C21549   2.935   9.139   1.510 -0.7217 -0.3385  0.5861
  901MOL0     C21550   3.065   9.083   1.497 -0.8817 -1.0644  0.4734
  901MOL0     N21551   3.775   8.937   1.788  0.4514  0.7238  0.2878
  901MOL0     N21552   3.891   8.933   1.851 -0.3059  0.6606  0.2915
  901MOL0     C21553   5.081   8.733   1.650 -0.4266  0.1561  0.5099
  901MOL0     C21554   5.185   8.742   1.557 -0.5665  0.3449  0.1517
  901MOL0     C21555   5.476   8.678   1.253  0.6876 -0.2272  0.5414
  901MOL0     C21556   5.576   8.765   1.278 -0.6260  0.3149  0.0760
  901MOL0     C21557   5.655   8.817   1.175  0.7906 -0.5161 -0.2681
  901MOL0     C21558   5.632   8.782   1.044 -0.1802  0.2231 -0.2721
  901MOL0     O21559   5.707   8.829   0.936  0.1187  0.2622  0.5302
  901MOL0     C21560   5.800   8.937   0.963 -0.1323 -0.0776  0.9493
  901MOL0     C21561   5.902   8.936   0.843  0.2164 -0.2628 -0.4962
  901MOL0     C21562   5.984   8.802   0.836  0.0337 -0.6368 -0.7139
  901MOL0     C21563   6.052   8.793   0.702 -0.8237 -0.4605  0.5246
  901MOL0     C21564   6.138   8.676   0.688  0.1891 -0.5988  0.8347
  901MOL0     C21565   6.212   8.581   0.669 -0.1417  0.8702  0.3145
  901MOL0     C21566   5.542   8.684   1.019 -0.1953 -0.4468 -0.1465
  901MOL0     C21567   5.458   8.631   1.116 -0.4172  0.3759  0.0526
  901MOL0     H21568   5.407   8.526   1.686 -0.0492 -1.0019 -4.5838
  901MOL0     H21569   5.243   8.503   1.857  0.2496  1.8984  1.2578
  901MOL0     H21570   4.857   8.769   1.798  2.1856  1.4827  4.4169
  901MOL0     H21571   4.816   8.589   1.749 -0.0977 -0.8159  1.0492
  901MOL0     H21572   4.809   8.537   1.983  1.3008  0.8305  1.1106
  901MOL0     H21573   4.804   8.705   2.032 -0.2251 -0.9424  0.6801
  901MOL0     H21574   4.597   8.616   1.824 -2.0201  1.1057  0.0456
  901MOL0     H21575   4.580   8.552   1.992  1.9965  0.5235  1.7345
  901MOL0     H21576   4.583   8.778   2.065  2.0452 -2.0528 -0.2449
  901MOL0     H21577   4.586   8.838   1.901 -1.3074  2.1691  1.7483
  901MOL0     H21578   4.337   8.671   1.983 -2.6368  1.6494  1.1948
  901MOL0     H21579   4.343   8.838   2.018 -2.8986 -1.7345  0.7043
  901MOL0     H21580   4.411   8.892   1.786 -1.7831  1.3012  0.4878
  901MOL0     H21581   4.417   8.727   1.740  1.3319 -0.2100  2.9029
  901MOL0     H21582   4.225   8.806   1.650 -1.9834 -0.6142  0.8611
  901MOL0     H21583   4.148   8.720   1.795 -0.7577 -0.6966 -0.3271
  901MOL0     H21584   4.205   9.008   1.770 -2.0807  2.1752  0.1211
  901MOL0     H21585   4.140   8.932   1.918 -1.8908  0.4409  0.2640
  901MOL0     H21586   3.997   8.944   1.538  0.3695 -1.6400 -0.5789
  901MOL0     H21587   3.726   9.023   1.465  0.7350 -1.5000 -2.5601
  901MOL0     H21588   3.705   8.850   1.487 -2.0277 -1.5340  2.5318
  901MOL0     H21589   3.541   9.047   1.658  1.1203  0.4394  0.3144
  901MOL0     H21590   3.534   8.868   1.642  0.2909  1.1221  0.5905
  901MOL0     H21591   3.471   8.859   1.424  0.5533 -0.6808  0.6580
  901MOL0     H21592   3.516   9.024   1.381 -1.5682 -2.3474 -2.1091
  901MOL0     H21593   3.280   8.902   1.519  1.8378 -0.7275  0.2428
  901MOL0     H21594   3.289   8.994   1.366  0.7696 -0.6662  0.1326
  901MOL0     H21595   3.237   9.310   1.684 -2.2911  0.2069  3.0825
  901MOL0     H21596   3.005   9.488   1.804 -0.8437  2.9557 -0.7440
  901MOL0     H21597   3.121   9.521   1.678 -1.1588  4.1376  2.8751
  901MOL0     H21598   2.954   9.521   1.637  2.6516  1.8902 -1.0244
  901MOL0     H21599   2.519   9.243   1.687 -0.7044  0.9993  0.7708
  901MOL0     H21600   2.284   9.245   1.675  2.0670 -1.9484  0.7843
  901MOL0     H21601   1.971   9.443   1.464 -0.1218  0.5575  0.3031
  901MOL0     H21602   2.103   9.546   1.400  2.0132 -0.3153 -0.2191
  901MOL0     H21603   2.011   9.471   1.181 -0.3265  1.7870  1.8786
  901MOL0     H21604   2.104   9.331   1.211  1.4639 -0.5953  2.6359
  901MOL0     H21605   1.860   9.272   1.163 -2.9861 -0.7451  1.4720
  901MOL0     H21606   1.806   9.392   1.277  0.1758  0.1273  0.5339
  901MOL0     H21607   1.957   9.138   1.336  0.6077 -0.6390  0.3173
  901MOL0     H21608   1.888   9.237   1.460 -0.7365  1.7001 -0.6223
  901MOL0     H21609   1.734   9.039   1.327 -1.8657  0.0903 -0.8457
  901MOL0     H21610   1.664   9.199   1.283 -0.0483  0.1884  0.1036
  901MOL0     H21611   1.705   9.150   1.571  1.8380  2.5648 -0.8710
  901MOL0     H21612   1.606   9.269   1.492 -0.5098 -0.8155 -0.5736
  901MOL0     H21613   1.565   8.973   1.508 -0.6638 -0.3372 -0.7402
  901MOL0     H21614   1.482   9.061   1.380  0.5886 -3.3253  0.1217
  901MOL0     H21615   1.358   9.208   1.556 -0.0580  0.5418  0.9914
  901MOL0     H21616   1.476   9.148   1.668  0.0954  0.0966 -0.6583
  901MOL0     H21617   2.297   9.403   1.274  1.0291  1.0132 -1.5415
  901MOL0     H21618   2.551   9.358   1.280 -1.6232 -1.1499 -1.8289
  901MOL0     H21619   2.852   9.087   1.464  0.5097 -0.4746 -1.6725
  901MOL0     H21620   3.088   8.997   1.435  3.9248  2.1251 -2.9053
  901MOL0     H21621   4.993   8.793   1.628 -0.6656 -0.3936 -0.0869
  901MOL0     H21622   5.182   8.809   1.472  0.2414 -1.1581 -1.1360
  901MOL0     H21623   5.599   8.800   1.379  0.4302 -1.2820  0.4351
  901MOL0     H21624   5.718   8.898   1.211 -0.8537  2.0604 -2.6685
  901MOL0     H21625   5.746   9.032   0.957 -1.1573 -0.6060  1.5722
  901MOL0     H21626   5.855   8.934   1.057 -0.6320  2.4075  1.3913
  901MOL0     H21627   5.976   9.016   0.846 -1.1663  1.1239 -1.9277
  901MOL0     H21628   5.846   8.946   0.750  1.2494 -0.8129 -1.2069
  901MOL0     H21629   5.918   8.720   0.863  1.5006 -1.7666 -0.4103
  901MOL0     H21630   6.060   8.814   0.915  0.1372  3.0365 -1.1840
  901MOL0     H21631   6.105   8.886   0.681 -1.2121 -0.4128 -0.3001
  901MOL0     H21632   5.975   8.789   0.624 -1.0948 -1.2621  0.8206
  901MOL0     H21633   6.275   8.494   0.661  0.0495  0.8298  1.8630
  901MOL0     H21634   5.524   8.645   0.919  2.3919 -0.1794 -0.7885
  901MOL0     H21635   5.394   8.544   1.102  1.7034 -1.3768  0.7130
  902MOL0     O21636   1.925   8.305  10.462 -0.3724  0.2469  0.2715
  902MOL0     C21637   2.019   8.384  10.432  0.7293  1.6380  0.0943
  902MOL0     O21638   2.002   8.515  10.382 -0.2428  0.6117 -0.4542
  902MOL0     C21639   1.870   8.551  10.384  0.1730 -0.3666  0.4269
  902MOL0     C21640   1.851   8.683  10.426  0.2570  0.2621 -0.1392
  902MOL0     C21641   1.731   8.749  10.414 -0.3083  1.0304 -0.2594
  902MOL0     C21642   1.623   8.683  10.357 -0.1408 -0.1673 -0.7085
  902MOL0     O21643   1.498   8.735  10.342 -0.6713  0.1046  0.4012
  902MOL0     C21644   1.465   8.838  10.446 -0.0634  0.7644  0.3635
  902MOL0     C21645   1.328   8.903  10.439  0.5434  0.0021  0.6152
  902MOL0     C21646   1.221   8.792  10.437 -0.0318  0.1384 -0.8416
  902MOL0     C21647   1.081   8.854  10.408  0.0570  0.1009 -0.3869
  902MOL0     C21648   0.965   8.743  10.387  0.7014  0.0549  0.1235
  902MOL0     C21649   0.828   8.810  10.350 -0.0027 -0.1891  0.4697
  902MOL0     C21650   0.711   8.709  10.354 -0.1197  0.2119  0.0478
  902MOL0     C21651   0.668   8.647  10.490  0.1449 -0.0518 -0.0313
  902MOL0     N21652   0.532   8.591  10.488 -0.1590  0.4909  0.5484
  902MOL0     C21653   0.418   8.664  10.449  0.9105  0.1306  1.1747
  902MOL0     C21654   0.315   8.575  10.443  0.1213  0.0622  0.2169
  902MOL0     C21655   0.168   8.610  10.414  0.1091 -0.3090  0.8287
  902MOL0     C21656   0.074   8.496  10.369 -0.2548 -0.3307  0.3898
  902MOL0     C21657  -0.066   8.555  10.365  0.5542  0.9574 -0.2738
  902MOL0     C21658  -0.172   8.461  10.326  0.5847 -0.2154 -0.5866
  902MOL0     O21659  -0.166   8.420  10.187 -0.3312 -0.3914 -0.8043
  902MOL0     C21660  -0.286   8.406  10.123  1.1736  0.2428 -0.2649
  902MOL0     C21661  -0.413   8.385  10.184 -0.1864 -0.0963  0.5779
  902MOL0     C21662  -0.534   8.357  10.118  0.8685 -0.0419  0.3593
  902MOL0     C21663  -0.671   8.343  10.198 -0.0280  0.5609  0.0537
  902MOL0     C21664  -0.525   8.355   9.968  0.8384 -0.2755  0.5764
  902MOL0     C21665  -0.637   8.328   9.873 -0.4947  0.2836 -0.0866
  902MOL0     O21666  -0.602   8.300   9.743 -0.0655 -0.4457 -0.3383
  902MOL0     C21667  -0.696   8.278   9.644 -0.3532 -0.1535 -0.2102
  902MOL0     C21668  -0.786   8.380   9.600  0.4856  0.3503  1.4390
  902MOL0     C21669  -0.891   8.338   9.510 -0.1444 -0.0535 -0.1038
  902MOL0     C21670  -0.895   8.214   9.442 -0.7311  0.3561 -1.0147
  902MOL0     O21671  -0.977   8.187   9.337 -0.3891  0.3313  0.6544
  902MOL0     C21672  -1.065   8.073   9.333 -0.2455  0.3314 -0.3543
  902MOL0     C21673  -1.188   8.100   9.421 -0.4739  0.1323  0.4425
  902MOL0     C21674  -1.311   8.005   9.421 -0.1023 -0.6914 -0.6060
  902MOL0     C21675  -1.439   8.056   9.495 -0.6459 -0.4229  0.7941
  902MOL0     C21676  -1.419   8.048   9.648  0.0895  0.2477 -0.4430
  902MOL0     C21677  -1.544   8.078   9.730 -0.0989  0.1247  0.0473
  902MOL0     C21678  -1.520   8.051   9.885  0.4645  0.5980  0.2150
  902MOL0     C21679  -1.468   8.173   9.959 -0.0552 -1.1413 -0.0971
  902MOL0    Cl21680  -1.579   8.311   9.966 -0.2058 -0.0612  0.4131
  902MOL0     C21681  -0.798   8.125   9.479 -0.1486 -0.2013 -0.2076
  902MOL0     C21682  -0.707   8.157   9.579 -1.4792  0.0727  1.0041
  902MOL0     O21683  -0.752   8.333   9.911 -0.4267  0.1164 -0.1412
  902MOL0     C21684  -0.400   8.375   9.908 -0.2708  0.5460  0.2399
  902MOL0     C21685  -0.283   8.393   9.984 -0.0941 -0.1927  0.4015
  902MOL0     N21686   0.364   8.450  10.489  0.3666  0.0483  0.1881
  902MOL0     N21687   0.497   8.462  10.506  0.3689 -0.2200  0.1810
  902MOL0     C21688   1.642   8.550  10.321 -0.2429  0.4491 -0.6992
  902MOL0     C21689   1.764   8.479  10.329  1.0460  0.0720 -0.0427
  902MOL0     C21690   2.157   8.342  10.442  0.2085  0.2837  0.2280
  902MOL0     C21691   2.254   8.411  10.373  0.8430  0.2315  0.5169
  902MOL0     C21692   2.391   8.382  10.392  0.1601 -0.0645  0.1780
  902MOL0     C21693   2.433   8.274  10.470 -0.0048  0.2006  0.1900
  902MOL0     O21694   2.565   8.234  10.481 -0.0188 -0.3042 -0.4665
  902MOL0     C21695   2.670   8.269  10.385  0.1356  0.3615  0.0097
  902MOL0     C21696   2.778   8.162  10.370 -0.4849 -0.0900 -0.2465
  902MOL0     C21697   2.900   8.195  10.282  1.0242 -0.2945 -0.7242
  902MOL0     C21698   2.878   8.165  10.138 -0.2212  0.1345 -0.0982
  902MOL0     C21699   2.947   8.049  10.102 -0.0626  0.9777 -0.2455
  902MOL0     C21700   2.977   7.945  10.047 -0.0162 -0.0915 -0.6507
  902MOL0     C21701   2.338   8.205  10.538 -0.7492 -0.4774  0.5239
  902MOL0     C21702   2.201   8.227  10.525 -0.4113 -0.4364  0.1334
  902MOL0     H21703   1.932   8.738  10.473  0.3504  0.8788 -1.0000
  902MOL0     H21704   1.729   8.857  10.425 -1.3851  1.1745 -1.6544
  902MOL0     H21705   1.464   8.783  10.541 -0.3479  0.4002  0.1496
  902MOL0     H21706   1.536   8.921  10.446  0.0390  0.6777  0.0920
  902MOL0     H21707   1.309   8.984  10.510  0.3275  0.3689  0.1410
  902MOL0     H21708   1.324   8.936  10.335  0.2411 -2.3998 -0.1818
  902MOL0     H21709   1.238   8.710  10.367 -1.1391 -0.1603 -0.7788
  902MOL0     H21710   1.220   8.736  10.530 -0.5936  1.3277 -0.0957
  902MOL0     H21711   1.047   8.909  10.496 -0.0325 -0.9764  0.2637
  902MOL0     H21712   1.089   8.913  10.316 -2.7686  1.6179  0.2176
  902MOL0     H21713   0.988   8.677  10.302 -0.9506  0.2357 -0.5152
  902MOL0     H21714   0.953   8.687  10.481  2.9515 -0.9174 -0.1110
  902MOL0     H21715   0.789   8.879  10.425 -2.0771 -1.0667  0.2706
  902MOL0     H21716   0.846   8.858  10.253  4.6870  1.2387  1.8073
  902MOL0     H21717   0.623   8.763  10.318  0.5081  0.1215 -1.7137
  902MOL0     H21718   0.731   8.629  10.283  0.7062 -0.8506  1.4325
  902MOL0     H21719   0.673   8.721  10.571  0.1449 -0.3720  0.2663
  902MOL0     H21720   0.743   8.574  10.522  2.4484  2.3400  0.3764
  902MOL0     H21721   0.409   8.766  10.412  2.4288  0.2542  1.0761
  902MOL0     H21722   0.131   8.668  10.499 -1.6398  1.8753 -1.2794
  902MOL0     H21723   0.161   8.679  10.330  0.8456  1.3999  2.1034
  902MOL0     H21724   0.076   8.416  10.443 -4.4181 -1.8027 -0.7799
  902MOL0     H21725   0.102   8.449  10.274 -0.8373 -2.4447  1.2078
  902MOL0     H21726  -0.072   8.639  10.296  0.7960 -0.4747 -2.1315
  902MOL0     H21727  -0.091   8.588  10.466 -0.1420 -1.3062  0.3727
  902MOL0     H21728  -0.260   8.522  10.350  0.5480 -0.0394 -1.1519
  902MOL0     H21729  -0.165   8.377  10.395 -0.8484 -0.1276 -0.2864
  902MOL0     H21730  -0.424   8.398  10.291 -0.2915 -0.4702  0.6129
  902MOL0     H21731  -0.731   8.272  10.142  0.4391  1.1091 -1.1862
  902MOL0     H21732  -0.641   8.300  10.294 -3.1547 -2.0277  0.0206
  902MOL0     H21733  -0.723   8.439  10.208 -1.1527  0.2277 -2.0039
  902MOL0     H21734  -0.785   8.482   9.638 -0.3425  0.4397  1.2459
  902MOL0     H21735  -0.965   8.413   9.484  1.3961  0.9706 -1.7732
  902MOL0     H21736  -1.104   8.051   9.233  0.0624 -0.4558 -0.3124
  902MOL0     H21737  -1.011   7.981   9.358 -0.4592 -0.7179 -3.3383
  902MOL0     H21738  -1.153   8.104   9.525 -2.8314  4.4828  1.3163
  902MOL0     H21739  -1.216   8.202   9.393  3.3227  1.0951 -0.3453
  902MOL0     H21740  -1.284   7.907   9.462 -3.0440 -1.2957  0.1377
  902MOL0     H21741  -1.338   7.985   9.317  0.9763 -0.2228 -0.9915
  902MOL0     H21742  -1.465   8.156   9.458  0.5341 -0.9280 -1.5670
  902MOL0     H21743  -1.524   7.994   9.465  0.1832 -0.8386 -0.8021
  902MOL0     H21744  -1.337   8.114   9.679  0.5312 -0.5415  0.1003
  902MOL0     H21745  -1.399   7.941   9.662 -2.7984 -0.2797  0.4556
  902MOL0     H21746  -1.557   8.186   9.724  0.4821  0.3127  1.7501
  902MOL0     H21747  -1.629   8.022   9.691  0.6962  0.3528 -2.1901
  902MOL0     H21748  -1.444   7.974   9.899  0.6048  0.4438 -1.2216
  902MOL0     H21749  -1.618   8.014   9.917  0.7265 -1.3028 -0.9742
  902MOL0     H21750  -1.375   8.207   9.913  0.8199 -0.5952  1.9882
  902MOL0     H21751  -1.438   8.137  10.058 -2.2911 -0.9816  0.6953
  902MOL0     H21752  -0.798   8.025   9.437 -1.9686 -0.5923  0.6286
  902MOL0     H21753  -0.630   8.080   9.588  1.4222  2.6321  0.0447
  902MOL0     H21754  -0.382   8.377   9.801 -1.4593 -3.4544 -0.1925
  902MOL0     H21755  -0.185   8.401   9.937 -0.4382 -1.7561 -0.6863
  902MOL0     H21756   1.558   8.495  10.282 -0.7630  1.4889 -1.0795
  902MOL0     H21757   1.772   8.375  10.299  0.2498  0.0387 -0.1785
  902MOL0     H21758   2.226   8.507  10.331  1.7743  0.2822 -0.0252
  902MOL0     H21759   2.460   8.445  10.337  0.5050 -1.1279 -0.6420
  902MOL0     H21760   2.618   8.283  10.290 -0.2225  1.4070  0.3375
  902MOL0     H21761   2.708   8.369  10.410  0.5225 -0.1174  1.4602
  902MOL0     H21762   2.745   8.062  10.341 -0.2189  0.1346 -1.3719
  902MOL0     H21763   2.823   8.165  10.469 -0.8912 -0.4509 -0.0525
  902MOL0     H21764   2.991   8.144  10.316  0.5237 -1.9013 -1.7013
  902MOL0     H21765   2.919   8.302  10.295  6.1046 -1.0111 -0.3673
  902MOL0     H21766   2.923   8.253  10.089  2.0826 -0.0779  1.4381
  902MOL0     H21767   2.772   8.157  10.114 -0.1095 -0.6376 -0.3636
  902MOL0     H21768   2.989   7.855   9.990  1.4860 -0.8561  0.8230
  902MOL0     H21769   2.379   8.119  10.590  0.3236  1.1040  2.4603
  902MOL0     H21770   2.131   8.160  10.574 -0.3234 -0.4212  0.2812
  903MOL0     O21771   4.172   8.298  10.134 -0.4071 -0.3917 -0.5577
  903MOL0     C21772   4.188   8.320  10.015 -1.1635 -0.9852 -0.2442
  903MOL0     O21773   4.095   8.319   9.913 -0.3231  0.2509 -0.1511
  903MOL0     C21774   3.964   8.291   9.941  0.0434 -0.0225 -0.5246
  903MOL0     C21775   3.929   8.167  10.000  0.1714 -1.0386 -0.0306
  903MOL0     C21776   3.800   8.134  10.037  1.2723  0.2467 -0.6141
  903MOL0     C21777   3.695   8.230  10.012  0.0906 -0.2691  0.0341
  903MOL0     O21778   3.570   8.190  10.062  0.1746  0.3803 -0.1439
  903MOL0     C21779   3.454   8.263   9.997  0.7761  0.1002 -0.2620
  903MOL0     C21780   3.316   8.192  10.032  0.4766 -0.3782 -1.1211
  903MOL0     C21781   3.315   8.053   9.977  0.1962  0.5930  0.3477
  903MOL0     C21782   3.345   7.954  10.092  0.4946  0.0315  0.3343
  903MOL0     C21783   3.375   7.803  10.043  1.0707  0.1074 -1.1079
  903MOL0     C21784   3.439   7.705  10.145 -0.2239 -0.0335  0.8258
  903MOL0     C21785   3.587   7.746  10.175  0.6180  0.0752  0.3365
  903MOL0     C21786   3.645   7.685  10.297 -0.1809  0.3065  0.5877
  903MOL0     N21787   3.637   7.542  10.282 -0.8191 -0.1305 -0.2418
  903MOL0     C21788   3.681   7.455  10.184  0.0662  0.1180  0.2018
  903MOL0     C21789   3.637   7.339  10.227  0.4847 -0.3145  0.7162
  903MOL0     C21790   3.647   7.223  10.146 -0.0321  0.3030 -0.9194
  903MOL0     C21791   3.552   7.221  10.024 -0.6226  1.0793 -0.0131
  903MOL0     C21792   3.408   7.262  10.040  0.1678 -0.6632  0.0138
  903MOL0     C21793   3.335   7.170  10.136 -0.4456  0.1074 -0.6217
  903MOL0     O21794   3.193   7.171  10.144 -0.5383 -0.4280 -0.4017
  903MOL0     C21795   3.125   7.273  10.201  0.8962 -0.5687  1.1245
  903MOL0     C21796   3.182   7.377  10.276  0.2027  0.7440 -0.5864
  903MOL0     C21797   3.104   7.481  10.337  0.2069  0.1338 -0.1758
  903MOL0     C21798   3.170   7.574  10.436 -0.1426 -0.1953 -0.0977
  903MOL0     C21799   2.966   7.489  10.306  0.8065  0.1550  0.0840
  903MOL0     C21800   2.879   7.597  10.356 -0.2337  0.2034  0.1323
  903MOL0     O21801   2.783   7.616  10.265  0.1842 -0.5140 -0.2686
  903MOL0     C21802   2.689   7.718  10.273  0.2506  0.1431  0.1189
  903MOL0     C21803   2.613   7.747  10.382  0.7609  0.2837  0.1459
  903MOL0     C21804   2.514   7.850  10.385  0.1740 -0.5678 -0.1215
  903MOL0     C21805   2.491   7.920  10.264 -0.2412 -0.7551 -0.4784
  903MOL0     O21806   2.395   8.015  10.277 -0.4779  0.1030  0.1536
  903MOL0     C21807   2.366   8.111  10.165 -0.6183  0.3664  0.1374
  903MOL0     C21808   2.267   8.051  10.065 -0.9539 -0.3400 -0.3003
  903MOL0     C21809   2.216   8.157   9.966  0.0464 -0.7601 -0.6878
  903MOL0     C21810   2.094   8.238  10.013  1.2168  0.3626  0.4832
  903MOL0     C21811   2.029   8.329   9.907 -0.5416 -0.7519 -0.7778
  903MOL0     C21812   1.891   8.384   9.952 -0.0945 -0.2516 -0.0096
  903MOL0     C21813   1.767   8.331   9.878  0.5427  0.0567  0.4134
  903MOL0     C21814   1.644   8.417   9.889  0.4437  0.1397  1.2362
  903MOL0    Cl21815   1.651   8.554   9.765  0.0237  0.6239 -0.4363
  903MOL0     C21816   2.575   7.898  10.157  0.1902 -0.6171  0.7011
  903MOL0     C21817   2.679   7.798  10.164 -0.4481 -0.7594 -0.3330
  903MOL0     O21818   2.900   7.674  10.444 -0.9184  0.3695 -0.2887
  903MOL0     C21819   2.908   7.385  10.224  0.0879  0.2695 -0.1211
  903MOL0     C21820   2.985   7.279  10.180  0.2186 -0.6793 -0.6971
  903MOL0     N21821   3.562   7.351  10.346 -0.0826  0.1801 -0.3845
  903MOL0     N21822   3.569   7.473  10.381  0.0786 -0.2788 -0.4372
  903MOL0     C21823   3.734   8.363   9.964  0.0494  0.4896  0.1640
  903MOL0     C21824   3.867   8.387   9.928  0.1473  0.2594  0.3239
  903MOL0     C21825   4.334   8.345   9.979  0.2342  0.1830 -0.1632
  903MOL0     C21826   4.428   8.372  10.077 -1.1491 -0.0144  0.2125
  903MOL0     C21827   4.561   8.404  10.038  0.4656  0.1249 -0.2843
  903MOL0     C21828   4.606   8.396   9.906  0.8746 -0.3022  0.7225
  903MOL0     O21829   4.734   8.435   9.873 -0.1030  0.6514 -0.2531
  903MOL0     C21830   4.809   8.381   9.762  0.0833 -0.2076  0.4483
  903MOL0     C21831   4.838   8.229   9.767 -0.4540 -0.5802  0.2521
  903MOL0     C21832   4.916   8.211   9.895 -0.5615  0.1134 -0.2406
  903MOL0     C21833   4.950   8.068   9.932  0.1548 -0.4626 -0.8999
  903MOL0     C21834   5.020   7.999   9.822  0.7688 -0.3304 -0.1539
  903MOL0     C21835   5.079   7.936   9.733  1.1637  0.2055  0.3617
  903MOL0     C21836   4.509   8.367   9.812 -0.4079 -0.5857 -0.3436
  903MOL0     C21837   4.380   8.352   9.846 -0.1556  0.0852 -0.3196
  903MOL0     H21838   4.010   8.098  10.016  0.4795 -0.1843  2.6431
  903MOL0     H21839   3.770   8.043  10.089 -0.9455  1.5859  0.5919
  903MOL0     H21840   3.452   8.366  10.036 -0.7628 -0.6929  1.9581
  903MOL0     H21841   3.465   8.259   9.889  1.2563 -1.8303 -0.1827
  903MOL0     H21842   3.279   8.197  10.135  0.5943 -0.9834 -1.0498
  903MOL0     H21843   3.238   8.238   9.970 -0.6215 -0.9125 -0.1651
  903MOL0     H21844   3.218   8.026   9.935  0.1149  1.0794  0.2176
  903MOL0     H21845   3.393   8.035   9.902 -1.2611 -1.5515 -0.7688
  903MOL0     H21846   3.435   7.989  10.143  1.3243 -0.3130 -0.8663
  903MOL0     H21847   3.252   7.958  10.151 -0.5982  3.0406 -1.3583
  903MOL0     H21848   3.288   7.765   9.990  1.3091  0.6328 -1.8891
  903MOL0     H21849   3.455   7.815   9.969  1.2467  0.7991 -0.8146
  903MOL0     H21850   3.376   7.711  10.234 -3.1584  2.7737 -1.1733
  903MOL0     H21851   3.434   7.604  10.105 -2.8657  1.3886 -3.1290
  903MOL0     H21852   3.650   7.728  10.087  0.6103 -1.1461  0.5635
  903MOL0     H21853   3.590   7.854  10.193  0.3376 -0.3546  3.5115
  903MOL0     H21854   3.587   7.716  10.384 -1.6629 -0.9129  0.0847
  903MOL0     H21855   3.748   7.704  10.329  0.2370 -0.8350 -0.0085
  903MOL0     H21856   3.735   7.473  10.091  1.5388 -1.3502  0.7094
  903MOL0     H21857   3.750   7.207  10.113 -0.1122 -1.4731 -0.3898
  903MOL0     H21858   3.632   7.136  10.209  2.1563 -0.5549 -1.4936
  903MOL0     H21859   3.550   7.121   9.980 -0.2152  1.5711 -1.1839
  903MOL0     H21860   3.603   7.290   9.957  0.5527  0.8851  0.6464
  903MOL0     H21861   3.364   7.278   9.941 -1.7869  3.5929  1.3092
  903MOL0     H21862   3.409   7.362  10.084  0.0734 -1.2796  1.4692
  903MOL0     H21863   3.373   7.170  10.239 -0.8844  0.9722 -0.4486
  903MOL0     H21864   3.361   7.069  10.105  2.8286 -0.1639  2.3176
  903MOL0     H21865   3.290   7.379  10.277  0.3680 -1.2174 -3.5871
  903MOL0     H21866   3.128   7.567  10.537 -2.4900 -1.5935 -1.0616
  903MOL0     H21867   3.279   7.565  10.432 -0.0883  0.3229  0.1152
  903MOL0     H21868   3.145   7.676  10.404  1.3312 -0.6379 -3.0149
  903MOL0     H21869   2.629   7.683  10.468 -2.3853 -1.6799 -0.5375
  903MOL0     H21870   2.470   7.875  10.481  1.6477  0.1507  0.4023
  903MOL0     H21871   2.320   8.199  10.211 -1.5871 -0.7634  1.4197
  903MOL0     H21872   2.456   8.144  10.113 -2.5601  2.7213 -2.0232
  903MOL0     H21873   2.319   7.972  10.009 -0.4832  0.3827 -0.8926
  903MOL0     H21874   2.188   8.004  10.124 -0.6310 -0.0549  0.3604
  903MOL0     H21875   2.186   8.112   9.871 -1.1905 -0.7173 -0.3300
  903MOL0     H21876   2.296   8.228   9.942 -1.6369  0.9082 -1.6356
  903MOL0     H21877   2.018   8.170  10.053  0.9959 -0.1802 -0.8123
  903MOL0     H21878   2.129   8.306  10.091  1.6458  0.2091  0.4230
  903MOL0     H21879   2.022   8.279   9.810 -0.4445  1.1874 -1.8347
  903MOL0     H21880   2.091   8.417   9.889 -1.0678 -0.2845 -0.3503
  903MOL0     H21881   1.869   8.355  10.056 -2.2369 -1.8633 -0.8358
  903MOL0     H21882   1.890   8.492   9.941 -1.6891 -0.1625  0.8176
  903MOL0     H21883   1.748   8.228   9.908  2.3960 -0.6905 -0.8168
  903MOL0     H21884   1.792   8.331   9.771 -0.8182 -0.6198  0.0626
  903MOL0     H21885   1.629   8.462   9.988  0.3096  0.6176  0.9972
  903MOL0     H21886   1.557   8.354   9.869 -0.0671  1.5713 -1.3929
  903MOL0     H21887   2.563   7.955  10.065  0.4149  2.1138  2.2683
  903MOL0     H21888   2.731   7.771  10.073 -0.5869  1.0336 -0.9678
  903MOL0     H21889   2.802   7.370  10.211  0.0165  2.5075 -3.1504
  903MOL0     H21890   2.933   7.203  10.123 -1.0242  2.0897 -3.6323
  903MOL0     H21891   3.674   8.453   9.960  1.1599  1.2563  0.2530
  903MOL0     H21892   3.897   8.491   9.916 -0.7423  0.3233 -1.6939
  903MOL0     H21893   4.396   8.366  10.181  2.0617 -0.7612  1.2593
  903MOL0     H21894   4.622   8.435  10.122 -0.7149 -2.0444  1.4840
  903MOL0     H21895   4.754   8.391   9.668 -0.4699  0.6632  0.8525
  903MOL0     H21896   4.904   8.437   9.760  0.0366 -0.1408 -0.4405
  903MOL0     H21897   4.899   8.199   9.681  0.2705 -2.5231  1.3776
  903MOL0     H21898   4.746   8.170   9.756  0.6415 -2.1009 -1.1941
  903MOL0     H21899   4.867   8.249   9.985  0.7622 -0.1127  0.6069
  903MOL0     H21900   5.010   8.265   9.883 -1.6745  2.1193 -0.4108
  903MOL0     H21901   4.852   8.021   9.947 -0.6935  0.5445 -2.8889
  903MOL0     H21902   4.998   8.058  10.030 -0.7288 -1.4282 -0.5435
  903MOL0     H21903   5.129   7.875   9.661 -2.7849 -2.4424 -0.4432
  903MOL0     H21904   4.548   8.351   9.712 -1.1005  1.5988 -1.0170
  903MOL0     H21905   4.305   8.341   9.769 -0.0027  3.0869 -0.9851
  904MOL0     O21906  10.720   2.304   8.835  0.1790 -0.5072  0.0988
  904MOL0     C21907  10.739   2.414   8.880  0.0626  0.1205  0.5299
  904MOL0     O21908  10.650   2.489   8.950  0.1578  0.5367 -1.2572
  904MOL0     C21909  10.530   2.428   8.987  0.5239 -0.3084  0.2107
  904MOL0     C21910  10.413   2.498   8.954 -0.3264 -0.1865  0.2167
  904MOL0     C21911  10.291   2.448   8.993  0.6045  0.2747  0.4662
  904MOL0     C21912  10.286   2.328   9.071  0.3752 -0.1837 -0.3659
  904MOL0     O21913  10.169   2.275   9.120  0.4277  0.0966 -0.4413
  904MOL0     C21914  10.049   2.327   9.055 -0.0270 -0.5517  0.3831
  904MOL0     C21915   9.947   2.250   9.129 -0.4265  0.9218  0.0881
  904MOL0     C21916   9.805   2.305   9.108  0.7517  0.6267  0.5003
  904MOL0     C21917   9.708   2.241   9.208 -0.4954 -0.3137  0.1058
  904MOL0     C21918   9.569   2.300   9.196  0.0200 -0.0773 -0.1560
  904MOL0     C21919   9.475   2.249   9.312 -0.2276 -0.5014 -0.3226
  904MOL0     C21920   9.344   2.332   9.321  0.9626  0.1581  0.4767
  904MOL0     C21921   9.271   2.334   9.186 -0.4998  0.3306 -0.1509
  904MOL0     N21922   9.135   2.387   9.182 -0.9414  0.1019  0.1716
  904MOL0     C21923   9.034   2.354   9.263  0.0259  0.3829 -1.5061
  904MOL0     C21924   8.926   2.413   9.212 -0.0479  0.7054 -0.4192
  904MOL0     C21925   8.803   2.397   9.291  0.9511  0.3793  0.2007
  904MOL0     C21926   8.675   2.396   9.210  0.0182 -0.9848 -0.3646
  904MOL0     C21927   8.635   2.524   9.133 -0.0281  0.7709  0.3997
  904MOL0     C21928   8.521   2.507   9.033  1.0490  0.0266 -0.1723
  904MOL0     O21929   8.395   2.517   9.108 -0.4236  1.4447 -0.9862
  904MOL0     C21930   8.283   2.473   9.041  0.2486 -0.7320 -0.5605
  904MOL0     C21931   8.228   2.356   9.080  0.5633 -0.5026 -0.2480
  904MOL0     C21932   8.095   2.320   9.042 -0.3858 -0.1731 -0.1139
  904MOL0     C21933   8.048   2.190   9.108  0.2341 -0.5150  0.2964
  904MOL0     C21934   8.017   2.412   8.970 -0.1044  0.3496  0.2559
  904MOL0     C21935   7.874   2.394   8.948  0.3775 -0.4542  1.2030
  904MOL0     O21936   7.811   2.507   8.892 -0.7062  0.3419  0.5732
  904MOL0     C21937   7.685   2.507   8.844 -0.5571 -0.5701  0.7845
  904MOL0     C21938   7.617   2.631   8.852 -0.3776  0.2191  1.2225
  904MOL0     C21939   7.481   2.634   8.814 -0.3473 -0.5264 -0.1482
  904MOL0     C21940   7.410   2.525   8.759 -0.4812  0.2159 -0.5502
  904MOL0     O21941   7.271   2.518   8.745 -0.3126 -0.8318 -0.0584
  904MOL0     C21942   7.191   2.620   8.805  0.3767  0.5077 -0.9289
  904MOL0     C21943   7.044   2.587   8.765  0.1991  0.7002  0.0248
  904MOL0     C21944   7.001   2.454   8.829  0.3061  1.0607  0.1388
  904MOL0     C21945   6.851   2.425   8.807  0.4822  0.1314 -0.2866
  904MOL0     C21946   6.821   2.277   8.858 -0.8142  0.1139  0.3682
  904MOL0     C21947   6.681   2.233   8.827  0.5348  0.3207  0.0273
  904MOL0     C21948   6.658   2.230   8.675 -0.2376 -0.2116 -1.0968
  904MOL0     C21949   6.512   2.191   8.641 -0.0275  0.9512  0.3223
  904MOL0    Cl21950   6.391   2.328   8.687 -0.5646 -0.2204 -0.0287
  904MOL0     C21951   7.484   2.408   8.745 -0.4829  1.0625  0.2639
  904MOL0     C21952   7.622   2.400   8.783 -0.2269 -0.1763  0.2210
  904MOL0     O21953   7.817   2.293   8.988 -0.4782  0.0539  0.3614
  904MOL0     C21954   8.082   2.529   8.919 -0.0390  0.6700  0.1396
  904MOL0     C21955   8.213   2.560   8.954  0.5299 -0.0469 -0.3253
  904MOL0     N21956   8.957   2.477   9.089 -0.3672  0.5530 -0.6811
  904MOL0     N21957   9.085   2.461   9.082  0.2851  0.0189  0.3469
  904MOL0     C21958  10.404   2.262   9.108  0.5703 -0.3850  0.5510
  904MOL0     C21959  10.524   2.321   9.069  0.3389  0.1627  0.3434
  904MOL0     C21960  10.860   2.472   8.829 -0.2203  0.4912 -0.9904
  904MOL0     C21961  10.962   2.388   8.777 -0.4167  0.6440  0.3663
  904MOL0     C21962  11.070   2.446   8.711 -0.3018  0.2595  0.0604
  904MOL0     C21963  11.081   2.576   8.685 -0.4162  0.0597  0.3666
  904MOL0     O21964  11.190   2.622   8.618 -0.4291  0.4099  0.4770
  904MOL0     C21965  11.206   2.748   8.557  0.3444 -0.8689 -0.2740
  904MOL0     C21966  11.347   2.766   8.526 -0.1140 -0.5278  0.2332
  904MOL0     C21967  11.441   2.779   8.652 -0.3218 -0.6493 -0.5422
  904MOL0     C21968  11.589   2.765   8.608 -0.4729 -0.7560 -0.6652
  904MOL0     C21969  11.631   2.879   8.528 -0.7940 -0.4921  0.3526
  904MOL0     C21970  11.677   2.962   8.453  0.4450  0.0974 -0.6758
  904MOL0     C21971  10.981   2.652   8.742  0.1015 -0.0341 -1.1755
  904MOL0     C21972  10.872   2.608   8.811  0.5313  0.7210  0.8297
  904MOL0     H21973  10.418   2.591   8.898  0.8964 -0.4128 -0.0627
  904MOL0     H21974  10.203   2.503   8.962  0.2261 -0.9461 -0.7352
  904MOL0     H21975  10.026   2.434   9.059 -1.2468 -0.7061 -1.5189
  904MOL0     H21976  10.050   2.303   8.949 -1.4053  0.5557  0.0986
  904MOL0     H21977   9.951   2.142   9.111 -2.8794  0.4465  1.9646
  904MOL0     H21978   9.969   2.261   9.236  0.5478 -0.0995  0.0191
  904MOL0     H21979   9.810   2.414   9.117  0.6341  0.7356 -0.5837
  904MOL0     H21980   9.774   2.290   9.004  0.8836 -1.5624  0.7315
  904MOL0     H21981   9.700   2.137   9.174 -0.8729 -1.2108  2.7451
  904MOL0     H21982   9.755   2.244   9.306 -2.5311 -0.0061  1.1266
  904MOL0     H21983   9.577   2.409   9.191  2.0121 -0.2213 -1.0008
  904MOL0     H21984   9.526   2.267   9.101  0.8913 -0.9442 -0.2620
  904MOL0     H21985   9.462   2.141   9.302  0.9900 -0.7301  0.4048
  904MOL0     H21986   9.529   2.266   9.406 -1.1876  0.0232  0.1610
  904MOL0     H21987   9.279   2.280   9.392 -1.0815  0.0897 -1.3265
  904MOL0     H21988   9.363   2.432   9.360 -0.3893  0.5389  0.2030
  904MOL0     H21989   9.248   2.230   9.162  1.2080  0.2969 -1.8463
  904MOL0     H21990   9.339   2.376   9.111 -0.9199 -0.7681 -1.1815
  904MOL0     H21991   9.048   2.296   9.354  1.0830 -0.5698 -2.2448
  904MOL0     H21992   8.805   2.307   9.354 -3.9552  1.2502  2.0127
  904MOL0     H21993   8.798   2.475   9.368  6.0340  1.4328 -0.1319
  904MOL0     H21994   8.592   2.383   9.280 -1.9858  0.0930 -2.3875
  904MOL0     H21995   8.672   2.305   9.150  4.1093 -0.0093 -2.3959
  904MOL0     H21996   8.730   2.552   9.086  1.2281 -1.9102  1.1346
  904MOL0     H21997   8.609   2.608   9.198 -0.8170  0.9857 -0.1851
  904MOL0     H21998   8.523   2.405   8.992 -1.6442 -0.1293 -0.0808
  904MOL0     H21999   8.516   2.583   8.955 -1.4714  2.9431  2.5922
  904MOL0     H22000   8.292   2.284   9.131 -0.0837 -3.4757 -3.2635
  904MOL0     H22001   7.979   2.219   9.188 -1.8553 -0.9408 -1.2677
  904MOL0     H22002   7.994   2.131   9.034  0.2063 -1.8224  1.3285
  904MOL0     H22003   8.130   2.130   9.149  0.2688 -0.5635  0.1596
  904MOL0     H22004   7.666   2.721   8.888  0.8836 -0.0706  0.2971
  904MOL0     H22005   7.433   2.730   8.831  1.3630  1.0777 -3.3266
  904MOL0     H22006   7.202   2.628   8.913 -2.6944  0.0255 -0.5078
  904MOL0     H22007   7.226   2.715   8.764  3.3586  0.6333  1.5416
  904MOL0     H22008   6.976   2.669   8.791 -0.1664  1.9118 -4.1103
  904MOL0     H22009   7.024   2.567   8.659 -2.2747 -2.0365  0.8725
  904MOL0     H22010   7.023   2.452   8.936  1.6209 -0.5082 -0.1300
  904MOL0     H22011   7.070   2.382   8.785 -0.2122  2.0957 -2.5743
  904MOL0     H22012   6.800   2.491   8.877  4.4889  1.5799  1.6073
  904MOL0     H22013   6.828   2.450   8.703 -1.1490 -3.3525 -0.8892
  904MOL0     H22014   6.838   2.267   8.966  0.1821 -2.7825  0.0272
  904MOL0     H22015   6.888   2.207   8.807 -1.3587  1.4231 -2.2812
  904MOL0     H22016   6.659   2.134   8.869 -0.8915  0.1104 -1.1124
  904MOL0     H22017   6.610   2.304   8.869  0.1534  0.0549 -0.1586
  904MOL0     H22018   6.727   2.157   8.632  1.3228  0.0957  0.7522
  904MOL0     H22019   6.691   2.323   8.628 -2.9352  1.4142 -0.0732
  904MOL0     H22020   6.491   2.098   8.696  1.2834  0.2164 -0.3751
  904MOL0     H22021   6.505   2.152   8.539 -0.9057 -2.0358  1.4045
  904MOL0     H22022   7.442   2.322   8.693  1.7249  0.6466 -0.9680
  904MOL0     H22023   7.671   2.307   8.755 -1.7088 -0.3895 -1.8809
  904MOL0     H22024   8.027   2.610   8.873  3.1379  2.0440 -1.5368
  904MOL0     H22025   8.248   2.660   8.932 -3.0812  1.4509  0.0102
  904MOL0     H22026  10.394   2.172   9.168  3.0552 -1.7033 -0.8717
  904MOL0     H22027  10.616   2.296   9.120  1.1709  2.2512 -0.0487
  904MOL0     H22028  10.962   2.280   8.792  0.7230  0.6800  0.7489
  904MOL0     H22029  11.155   2.379   8.696  1.2691  2.3265 -0.8404
  904MOL0     H22030  11.134   2.757   8.476 -0.3685 -0.0406  0.4277
  904MOL0     H22031  11.188   2.831   8.626  2.2953  2.1420 -3.0956
  904MOL0     H22032  11.347   2.858   8.468  1.3076 -0.0344  0.9743
  904MOL0     H22033  11.388   2.681   8.470 -1.3923 -0.8901 -0.1929
  904MOL0     H22034  11.417   2.697   8.721  0.4091  0.9130  1.7064
  904MOL0     H22035  11.421   2.866   8.715  2.4079  0.7384 -1.4288
  904MOL0     H22036  11.595   2.669   8.555 -0.6498 -2.5531  2.3363
  904MOL0     H22037  11.654   2.748   8.694 -1.5236 -0.1919  0.2710
  904MOL0     H22038  11.711   3.028   8.376  0.8423  0.0280 -0.5587
  904MOL0     H22039  11.002   2.758   8.729  1.8204 -0.1560  0.2243
  904MOL0     H22040  10.795   2.676   8.845  0.0866  0.1537  0.9812
  905MOL0     O22041   6.921   9.507  10.903  0.3234  0.2214  0.0484
  905MOL0     C22042   6.953   9.617  10.945 -1.1806  0.3951  1.1402
  905MOL0     O22043   6.954   9.653  11.073  0.6301  0.1247 -0.4432
  905MOL0     C22044   6.900   9.564  11.169  0.1591 -0.4149  0.2738
  905MOL0     C22045   6.968   9.460  11.228 -0.3862 -0.2559  0.6259
  905MOL0     C22046   6.910   9.357  11.306  0.3655 -0.5143 -0.0568
  905MOL0     C22047   6.776   9.364  11.333 -0.2107 -0.1047  0.6168
  905MOL0     O22048   6.706   9.272  11.405 -0.2331 -0.1634  0.3032
  905MOL0     C22049   6.765   9.200  11.516 -0.3727  0.2011 -0.2879
  905MOL0     C22050   6.660   9.161  11.619  0.4672  0.3868  0.2915
  905MOL0     C22051   6.723   9.070  11.723 -0.1160 -1.0232 -0.2809
  905MOL0     C22052   6.625   9.038  11.832  0.1999  1.4706  0.6832
  905MOL0     C22053   6.654   8.911  11.915 -0.0161 -0.8279  0.0876
  905MOL0     C22054   6.541   8.880  12.014 -0.1252  0.8328  0.2561
  905MOL0     C22055   6.490   8.985  12.111 -0.5801  0.7264 -0.5055
  905MOL0     C22056   6.363   8.939  12.176 -0.2857 -0.1929  1.0185
  905MOL0     N22057   6.329   9.021  12.284  0.7383 -0.3811  0.1327
  905MOL0     C22058   6.354   8.994  12.416 -0.2371 -0.0965  1.1287
  905MOL0     C22059   6.277   9.070  12.495  0.6176 -0.2822 -0.1027
  905MOL0     C22060   6.273   9.062  12.643  0.2566 -0.2152 -0.2298
  905MOL0     C22061   6.160   8.986  12.698  0.0831  0.1821 -0.2145
  905MOL0     C22062   6.163   8.976  12.853 -0.1855 -0.1124 -0.1933
  905MOL0     C22063   6.029   8.911  12.899 -0.2589 -0.2936 -0.0175
  905MOL0     O22064   6.007   8.930  13.039  0.4053  0.5345  0.0925
  905MOL0     C22065   5.913   8.855  13.097 -0.2305 -0.1717  0.2618
  905MOL0     C22066   5.877   8.893  13.219  0.4359 -0.0494 -0.7648
  905MOL0     C22067   5.776   8.829  13.289  0.0824 -0.0232 -0.0898
  905MOL0     C22068   5.757   8.880  13.432 -0.1316  0.1382 -0.3150
  905MOL0     C22069   5.714   8.720  13.231  0.7448 -0.3206  0.1814
  905MOL0     C22070   5.608   8.630  13.297 -1.0901  0.3049 -0.6940
  905MOL0     O22071   5.574   8.521  13.232 -0.2823 -0.7245  0.1053
  905MOL0     C22072   5.480   8.430  13.264  0.5819 -0.6091 -0.5557
  905MOL0     C22073   5.491   8.305  13.199  0.0107 -0.3065  0.0565
  905MOL0     C22074   5.400   8.201  13.223 -0.2156  0.1439 -0.2260
  905MOL0     C22075   5.289   8.229  13.307  0.4107 -0.7400 -0.8633
  905MOL0     O22076   5.187   8.140  13.334 -0.2401 -0.1510 -0.1840
  905MOL0     C22077   5.055   8.177  13.387 -0.5536  0.2559 -0.1766
  905MOL0     C22078   4.990   8.261  13.280  0.0806 -1.1513  0.3835
  905MOL0     C22079   4.907   8.185  13.174  0.0757  0.9350 -0.3559
  905MOL0     C22080   4.867   8.274  13.059 -0.1608  0.4285 -0.1952
  905MOL0     C22081   4.803   8.205  12.943  0.6065 -0.1210  0.8487
  905MOL0     C22082   4.667   8.141  12.969 -0.7481 -0.4042  1.2093
  905MOL0     C22083   4.562   8.246  13.002  0.5051  0.0557  0.5190
  905MOL0     C22084   4.429   8.176  13.025  0.1280 -0.4935 -0.2328
  905MOL0    Cl22085   4.433   8.083  13.176  0.1977  0.2887 -0.2945
  905MOL0     C22086   5.274   8.351  13.375 -0.1259  0.9279  0.4789
  905MOL0     C22087   5.372   8.447  13.359 -0.8227 -0.6859  0.1532
  905MOL0     O22088   5.579   8.651  13.416 -0.3429 -0.3012 -0.0183
  905MOL0     C22089   5.758   8.680  13.103 -0.3219  0.4205  0.1023
  905MOL0     C22090   5.842   8.758  13.030 -0.6742 -0.4898 -0.0614
  905MOL0     N22091   6.192   9.142  12.416  0.3204 -0.3688 -0.3076
  905MOL0     N22092   6.222   9.109  12.290 -0.6113  0.5969 -0.1706
  905MOL0     C22093   6.697   9.465  11.276  0.5758 -0.3619  0.3190
  905MOL0     C22094   6.759   9.562  11.193 -0.9893 -0.6697  0.3719
  905MOL0     C22095   6.990   9.718  10.855 -0.3909 -0.2087  0.6908
  905MOL0     C22096   7.022   9.853  10.901 -0.2385  0.3137 -0.2276
  905MOL0     C22097   7.057   9.950  10.802 -0.3852  0.5671  0.1546
  905MOL0     C22098   7.055   9.920  10.665 -0.2905  0.1613  0.1541
  905MOL0     O22099   7.100  10.023  10.585 -0.0364  0.0074  0.3021
  905MOL0     C22100   7.056  10.022  10.444  0.8738  0.2695 -0.6379
  905MOL0     C22101   7.119  10.134  10.370 -0.3471 -0.4897  1.2828
  905MOL0     C22102   7.265  10.096  10.318  0.1208  0.3158  0.3142
  905MOL0     C22103   7.361  10.068  10.433 -0.4233 -0.2619  0.1378
  905MOL0     C22104   7.499  10.080  10.379 -0.8907  0.2601  0.7232
  905MOL0     C22105   7.606  10.080  10.331  0.1919 -0.1903  0.4398
  905MOL0     C22106   7.005   9.801  10.622 -0.0491  0.3358 -0.0931
  905MOL0     C22107   6.986   9.697  10.718 -0.2131 -0.5433 -0.5253
  905MOL0     H22108   7.075   9.459  11.212 -0.5766 -1.2484 -0.7439
  905MOL0     H22109   6.968   9.280  11.356 -2.6720 -2.1480  1.2025
  905MOL0     H22110   6.801   9.108  11.469  0.7417  1.7475 -2.6347
  905MOL0     H22111   6.852   9.250  11.559 -1.1276  1.3544 -0.0467
  905MOL0     H22112   6.624   9.255  11.664 -1.2287 -0.5432  0.9693
  905MOL0     H22113   6.572   9.110  11.579 -1.9033  3.5512  1.0356
  905MOL0     H22114   6.760   8.978  11.676  0.9497 -0.7861  0.0619
  905MOL0     H22115   6.812   9.124  11.758 -0.4734  0.5102 -1.6018
  905MOL0     H22116   6.616   9.132  11.888  0.0263  1.9703 -0.1744
  905MOL0     H22117   6.527   9.021  11.788 -0.3427 -0.3250  2.3965
  905MOL0     H22118   6.676   8.825  11.852 -2.0895 -1.2551 -0.1172
  905MOL0     H22119   6.744   8.938  11.971 -0.3623  1.1785 -0.2328
  905MOL0     H22120   6.455   8.855  11.952  0.4141 -0.6729  0.0626
  905MOL0     H22121   6.570   8.791  12.072 -1.9307  0.1779  0.2187
  905MOL0     H22122   6.563   8.993  12.192 -1.0815 -0.8103  0.1365
  905MOL0     H22123   6.466   9.082  12.065 -0.3622 -0.0127 -2.2498
  905MOL0     H22124   6.365   8.838  12.218  0.0177 -0.0781  1.2838
  905MOL0     H22125   6.278   8.932  12.107 -1.0625 -3.0655  2.1364
  905MOL0     H22126   6.422   8.915  12.446  0.8615 -0.0140 -0.9873
  905MOL0     H22127   6.364   9.012  12.677 -0.1745  0.2296  1.7366
  905MOL0     H22128   6.275   9.166  12.675  0.4787  0.4251 -2.2041
  905MOL0     H22129   6.176   8.882  12.669  2.2762  0.8603 -1.6611
  905MOL0     H22130   6.066   9.032  12.664  1.2958  2.5940 -0.5074
  905MOL0     H22131   6.180   9.077  12.891  2.2305 -0.4048 -0.3441
  905MOL0     H22132   6.244   8.910  12.888 -0.0955  0.1408  0.0833
  905MOL0     H22133   6.047   8.805  12.883  1.7049 -0.0358  0.2104
  905MOL0     H22134   5.951   8.961  12.840  1.6762  2.0488 -0.7748
  905MOL0     H22135   5.938   8.971  13.265  1.1952 -0.1308 -1.5951
  905MOL0     H22136   5.657   8.919  13.452  0.5719  0.6636  2.6310
  905MOL0     H22137   5.765   8.796  13.502 -0.0478  0.2972 -0.1306
  905MOL0     H22138   5.832   8.954  13.462 -0.5702  0.5612 -0.2529
  905MOL0     H22139   5.569   8.291  13.125  1.5115  0.7916  1.3557
  905MOL0     H22140   5.411   8.099  13.187 -0.1802 -0.1624  0.6361
  905MOL0     H22141   4.994   8.086  13.399 -0.1551 -0.3543 -2.4521
  905MOL0     H22142   5.067   8.229  13.483  1.5176  0.5094 -0.5432
  905MOL0     H22143   4.919   8.327  13.330  0.1595 -0.2293 -0.6947
  905MOL0     H22144   5.057   8.331  13.230  0.1565 -2.2755 -1.1626
  905MOL0     H22145   4.819   8.141  13.224  1.0404  0.2431  0.7865
  905MOL0     H22146   4.962   8.099  13.134 -2.0198 -1.3820  1.3732
  905MOL0     H22147   4.799   8.347  13.102 -1.4560 -2.0152  2.1935
  905MOL0     H22148   4.954   8.333  13.030  0.6235 -0.5274  0.1544
  905MOL0     H22149   4.875   8.136  12.898 -1.5128 -0.1967 -2.9000
  905MOL0     H22150   4.789   8.274  12.859 -1.1989 -2.6759 -1.1196
  905MOL0     H22151   4.631   8.076  12.888 -0.3659 -2.5780  2.7041
  905MOL0     H22152   4.684   8.077  13.056  3.2465 -2.2117 -0.6420
  905MOL0     H22153   4.557   8.316  12.919 -0.1990  0.0786  0.5756
  905MOL0     H22154   4.596   8.297  13.093 -1.0033 -0.9292  1.6927
  905MOL0     H22155   4.379   8.119  12.946 -2.5384  0.3922  0.7371
  905MOL0     H22156   4.369   8.267  13.033 -0.8523 -1.1718  0.2860
  905MOL0     H22157   5.203   8.371  13.455  0.1754  0.7844  0.7860
  905MOL0     H22158   5.361   8.540  13.414  2.0347  0.0852 -0.4456
  905MOL0     H22159   5.720   8.590  13.056  2.1976 -0.2367 -0.8699
  905MOL0     H22160   5.857   8.731  12.926 -2.2925 -0.1912 -0.3979
  905MOL0     H22161   6.590   9.461  11.296  0.5611 -4.2016  0.1724
  905MOL0     H22162   6.708   9.648  11.150  0.2488  0.3666  0.8923
  905MOL0     H22163   7.022   9.867  11.009 -0.8191 -1.6946  0.0696
  905MOL0     H22164   7.079  10.052  10.832  0.7563 -0.0324  1.4911
  905MOL0     H22165   7.085   9.929  10.395  2.6250  1.5872 -2.3111
  905MOL0     H22166   6.951  10.052  10.442  0.6135 -0.0713  2.4485
  905MOL0     H22167   7.131  10.221  10.435 -2.4365  1.3562 -0.6302
  905MOL0     H22168   7.057  10.160  10.284 -1.0803 -1.5039  1.4926
  905MOL0     H22169   7.304  10.187  10.270  0.1751  1.1428  1.8805
  905MOL0     H22170   7.257  10.005  10.258  0.1565  0.2024  0.4802
  905MOL0     H22171   7.350   9.974  10.487 -1.1131  0.0804  0.6127
  905MOL0     H22172   7.352  10.146  10.509 -1.5116  0.9873 -1.2136
  905MOL0     H22173   7.694  10.080  10.270  0.0353  0.7873  0.1957
  905MOL0     H22174   6.990   9.773  10.518 -1.3905  2.9859 -0.7052
  905MOL0     H22175   6.944   9.606  10.676 -0.6858  0.5648 -2.5699
  906MOL0     O22176   1.623  10.729   9.127  0.3619 -0.0497 -0.0574
  906MOL0     C22177   1.561  10.707   9.232 -0.8844  0.9143 -0.6296
  906MOL0     O22178   1.442  10.646   9.245  0.7973 -0.3961  0.0274
  906MOL0     C22179   1.373  10.598   9.130 -0.5108 -0.5489  0.4598
  906MOL0     C22180   1.244  10.649   9.115  0.3291  0.0533 -0.1404
  906MOL0     C22181   1.157  10.605   9.026 -0.3665 -1.2644  0.3103
  906MOL0     C22182   1.203  10.521   8.926  0.1368  0.3382 -0.0883
  906MOL0     O22183   1.113  10.487   8.824 -0.0215  0.2544  0.7285
  906MOL0     C22184   1.145  10.496   8.684 -0.2537  0.5871  0.4819
  906MOL0     C22185   1.067  10.387   8.608 -0.4321  1.2492 -0.4710
  906MOL0     C22186   1.072  10.405   8.456 -0.2884 -0.6377  1.7757
  906MOL0     C22187   1.026  10.537   8.392  0.2201 -0.7996 -0.6189
  906MOL0     C22188   0.878  10.564   8.424 -0.4086  0.0983 -0.1337
  906MOL0     C22189   0.809  10.666   8.344 -0.0843 -0.2170  0.1781
  906MOL0     C22190   0.646  10.661   8.348 -0.8712 -0.1379 -0.5692
  906MOL0     C22191   0.591  10.695   8.486  0.0704 -0.0648  0.0682
  906MOL0     N22192   0.595  10.586   8.585 -0.2625 -0.4051 -0.1447
  906MOL0     C22193   0.669  10.580   8.703 -0.0299 -0.0323 -0.1688
  906MOL0     C22194   0.636  10.461   8.768  0.0483  0.7536  0.5733
  906MOL0     C22195   0.685  10.413   8.901 -0.3028  0.8538  0.1024
  906MOL0     C22196   0.574  10.401   9.012 -0.5740 -0.1897 -0.1435
  906MOL0     C22197   0.584  10.526   9.110 -0.3962  0.0229 -0.0507
  906MOL0     C22198   0.437  10.540   9.173  0.8593  0.1160 -0.4801
  906MOL0     O22199   0.378  10.417   9.233 -0.5058  0.0135 -0.6415
  906MOL0     C22200   0.264  10.439   9.302  0.4547  0.1066 -0.3109
  906MOL0     C22201   0.220  10.561   9.352 -0.0980 -0.3108 -0.4965
  906MOL0     C22202   0.101  10.579   9.428  0.8522  0.1284 -0.5474
  906MOL0     C22203   0.054  10.721   9.455 -0.1718 -0.3096 -0.3633
  906MOL0     C22204   0.031  10.459   9.473  0.4033 -0.9699  0.1930
  906MOL0     C22205  -0.081  10.453   9.565  0.2198 -0.6596  0.1459
  906MOL0     O22206  -0.110  10.566   9.639 -0.5305  0.4620 -0.3626
  906MOL0     C22207  -0.230  10.595   9.695  0.6455 -0.4618  0.9548
  906MOL0     C22208  -0.254  10.596   9.838  0.3854  0.9973 -0.1719
  906MOL0     C22209  -0.379  10.633   9.893 -0.1769  0.3100  0.7105
  906MOL0     C22210  -0.484  10.667   9.804 -0.8706 -0.1189  0.1762
  906MOL0     O22211  -0.591  10.704   9.871 -0.6094 -0.2077 -0.3524
  906MOL0     C22212  -0.711  10.737   9.803  0.7922 -0.1922 -1.2807
  906MOL0     C22213  -0.799  10.813   9.902  0.9131 -0.1307  0.6133
  906MOL0     C22214  -0.922  10.886   9.843 -0.1847 -0.8917  0.2049
  906MOL0     C22215  -0.999  10.955   9.953  0.8518 -0.6147 -0.3957
  906MOL0     C22216  -1.139  11.011   9.894 -0.1483 -0.0695 -0.2593
  906MOL0     C22217  -1.120  11.135   9.820  1.6639  0.4307 -0.9407
  906MOL0     C22218  -1.249  11.192   9.756  0.9214  0.1752 -0.2915
  906MOL0     C22219  -1.217  11.307   9.664  0.4444  0.1755  0.0206
  906MOL0    Cl22220  -1.361  11.400   9.608  0.1662  0.0994 -0.0157
  906MOL0     C22221  -0.461  10.656   9.663 -0.2921 -0.7416  0.5803
  906MOL0     C22222  -0.343  10.619   9.603 -0.3766  0.2666  0.2387
  906MOL0     O22223  -0.135  10.342   9.575  0.1616 -0.6131 -0.7229
  906MOL0     C22224   0.083  10.335   9.435  0.2378 -0.1337  1.0855
  906MOL0     C22225   0.194  10.326   9.353  1.1791  0.5351  0.1102
  906MOL0     N22226   0.553  10.394   8.674  1.0515  0.6367 -0.1230
  906MOL0     N22227   0.529  10.467   8.573 -0.2641  0.3158 -0.0387
  906MOL0     C22228   1.336  10.469   8.932  0.0348  0.1598 -0.2231
  906MOL0     C22229   1.421  10.511   9.033 -0.0996 -0.3652  0.3309
  906MOL0     C22230   1.647  10.718   9.354 -0.7038 -0.5175 -0.3830
  906MOL0     C22231   1.625  10.641   9.470 -0.1999 -0.5696  0.0389
  906MOL0     C22232   1.712  10.655   9.582 -0.1324  0.7997  0.3972
  906MOL0     C22233   1.820  10.745   9.581 -0.5282 -0.0754 -0.6291
  906MOL0     O22234   1.908  10.767   9.690 -0.5662 -0.3912 -0.1335
  906MOL0     C22235   1.894  10.687   9.801 -0.3269  0.9415  0.3909
  906MOL0     C22236   1.779  10.732   9.888 -0.4677 -0.3756  0.3878
  906MOL0     C22237   1.802  10.678  10.029  0.4331 -0.5847 -0.4473
  906MOL0     C22238   1.686  10.704  10.132  0.4937 -0.3305 -0.3556
  906MOL0     C22239   1.554  10.647  10.092 -0.7557 -0.2536 -0.2699
  906MOL0     C22240   1.452  10.589  10.084  0.8522 -0.2777 -0.6396
  906MOL0     C22241   1.841  10.818   9.465  0.0594  0.1486 -0.8451
  906MOL0     C22242   1.758  10.802   9.354 -0.3788 -0.4451  0.0466
  906MOL0     H22243   1.222  10.696   9.210  0.1650  1.1251 -0.6981
  906MOL0     H22244   1.054  10.638   9.032 -0.4161 -0.8106 -2.0298
  906MOL0     H22245   1.105  10.594   8.654 -2.2596 -0.6766 -1.2811
  906MOL0     H22246   1.252  10.480   8.666 -0.5408 -0.3622 -0.4871
  906MOL0     H22247   1.117  10.290   8.616 -0.6731  1.0254 -1.4991
  906MOL0     H22248   0.959  10.389   8.625 -0.5033  0.7791 -0.8619
  906MOL0     H22249   1.177  10.401   8.427 -0.3263  2.3081  0.9453
  906MOL0     H22250   1.015  10.330   8.400  0.8400  0.5437 -1.1358
  906MOL0     H22251   1.084  10.626   8.417  2.0742 -2.1711  0.2527
  906MOL0     H22252   1.027  10.534   8.283 -1.6920 -0.3977 -0.6911
  906MOL0     H22253   0.823  10.473   8.404  0.5237 -0.3348 -0.8005
  906MOL0     H22254   0.871  10.583   8.532 -1.3047  0.1414 -0.1911
  906MOL0     H22255   0.850  10.759   8.384 -0.1538 -0.7663  1.5859
  906MOL0     H22256   0.849  10.648   8.243  3.3396 -0.6843  1.4860
  906MOL0     H22257   0.613  10.739   8.279 -0.0294 -0.5669 -1.4992
  906MOL0     H22258   0.612  10.565   8.306 -1.6100  0.1739 -0.6967
  906MOL0     H22259   0.488  10.732   8.480  0.2221  0.3836  0.2053
  906MOL0     H22260   0.653  10.780   8.518 -1.8606  2.3838 -2.2074
  906MOL0     H22261   0.735  10.658   8.741 -1.5452  2.2066 -1.8253
  906MOL0     H22262   0.723  10.313   8.877 -0.7510  0.9429 -1.0691
  906MOL0     H22263   0.771  10.471   8.936 -1.4554  1.4813  2.0386
  906MOL0     H22264   0.598  10.309   9.067  1.0462  0.5202  0.3958
  906MOL0     H22265   0.476  10.396   8.964 -1.9096  2.3064  2.0330
  906MOL0     H22266   0.613  10.621   9.064  2.4068 -0.6965  0.0427
  906MOL0     H22267   0.665  10.494   9.177 -2.9019 -5.4433  0.9393
  906MOL0     H22268   0.362  10.586   9.108 -0.2171  0.3435  0.8637
  906MOL0     H22269   0.462  10.616   9.249 -0.1320  0.2002 -0.2290
  906MOL0     H22270   0.276  10.652   9.331 -0.7136 -0.3507 -2.4611
  906MOL0     H22271   0.088  10.789   9.377 -0.3380 -0.0020 -0.1674
  906MOL0     H22272  -0.055  10.730   9.458 -0.2706 -1.4390  2.4391
  906MOL0     H22273   0.091  10.742   9.556  1.2364 -0.3508 -0.8537
  906MOL0     H22274  -0.179  10.558   9.908  1.5546  1.5978 -1.0631
  906MOL0     H22275  -0.395  10.636  10.000 -1.0438  0.4544  0.5868
  906MOL0     H22276  -0.700  10.807   9.720  0.5919  1.9934  0.4689
  906MOL0     H22277  -0.763  10.645   9.773  0.9563 -1.2719  1.4164
  906MOL0     H22278  -0.822  10.770  10.000 -0.7792  1.6962  1.0746
  906MOL0     H22279  -0.735  10.899   9.924 -0.7417  0.9450  1.3728
  906MOL0     H22280  -0.990  10.813   9.798  0.0431 -0.1854 -1.3607
  906MOL0     H22281  -0.902  10.956   9.762  0.6737 -3.1323 -1.6331
  906MOL0     H22282  -1.014  10.885  10.035 -2.8635 -0.0609 -0.4347
  906MOL0     H22283  -0.936  11.038   9.988  1.1464 -0.8217 -0.4319
  906MOL0     H22284  -1.211  11.026   9.976  1.8331  3.3204  1.0688
  906MOL0     H22285  -1.177  10.932   9.829 -2.5259  1.5948 -1.0550
  906MOL0     H22286  -1.072  11.207   9.887  1.2332  0.6239 -0.8411
  906MOL0     H22287  -1.048  11.116   9.740  3.7964  1.7025  0.5664
  906MOL0     H22288  -1.319  11.221   9.836  1.1455 -2.0906  0.8181
  906MOL0     H22289  -1.302  11.120   9.693  0.1834  0.8906 -0.5040
  906MOL0     H22290  -1.157  11.263   9.584 -0.8124 -1.7412  0.0565
  906MOL0     H22291  -1.151  11.380   9.712 -1.8687  1.9585  0.6703
  906MOL0     H22292  -0.539  10.693   9.598 -2.6532 -0.6056  3.2757
  906MOL0     H22293  -0.347  10.618   9.494 -2.5639  0.5326  0.2675
  906MOL0     H22294   0.038  10.238   9.454  1.8056 -1.7077 -2.4203
  906MOL0     H22295   0.240  10.233   9.319  0.4697  0.0671  0.4246
  906MOL0     H22296   1.362  10.395   8.858 -0.8767 -0.7904  0.3817
  906MOL0     H22297   1.517  10.462   9.044  0.2423  0.1905 -0.1288
  906MOL0     H22298   1.531  10.588   9.476 -2.0276  2.1673 -2.1214
  906MOL0     H22299   1.693  10.586   9.664 -4.5566  0.8331 -0.3614
  906MOL0     H22300   1.876  10.586   9.765 -2.6301  2.6968 -4.3186
  906MOL0     H22301   1.990  10.685   9.855 -0.5491  1.7125  0.8449
  906MOL0     H22302   1.686  10.695   9.843 -0.1070  0.0852 -0.7673
  906MOL0     H22303   1.776  10.841   9.903 -0.8255 -0.2508 -0.5350
  906MOL0     H22304   1.897  10.720  10.065 -0.2695 -0.3442  1.2179
  906MOL0     H22305   1.821  10.570  10.022  0.7089 -0.5324 -0.5333
  906MOL0     H22306   1.677  10.813  10.139  0.0607 -0.3194 -1.0434
  906MOL0     H22307   1.713  10.662  10.230  0.5185 -2.2995 -1.1578
  906MOL0     H22308   1.360  10.534  10.080  1.7931 -2.2750  2.3725
  906MOL0     H22309   1.932  10.876   9.473  0.6683 -0.8947  0.0674
  906MOL0     H22310   1.772  10.867   9.267 -2.4470  0.3768  0.2655
  907MOL0     O22311   1.412   9.809   3.890  0.0970  0.3962  0.5991
  907MOL0     C22312   1.415   9.809   4.014 -0.1190 -0.3205  0.3941
  907MOL0     O22313   1.295   9.826   4.092 -0.1377 -0.4066 -0.5594
  907MOL0     C22314   1.182   9.839   4.012 -0.1761  0.6417 -1.0398
  907MOL0     C22315   1.103   9.956   4.016 -0.0499 -0.3815  0.8644
  907MOL0     C22316   0.980   9.960   3.957  0.6608 -0.7671  0.0852
  907MOL0     C22317   0.915   9.852   3.902 -0.4656  0.1052 -0.2982
  907MOL0     O22318   0.786   9.845   3.852 -0.6747 -0.2012  0.3385
  907MOL0     C22319   0.688   9.945   3.893  0.2062  0.2407 -0.3668
  907MOL0     C22320   0.568   9.853   3.920 -0.2425  0.1490 -0.3480
  907MOL0     C22321   0.446   9.927   3.971  0.0319 -0.5183  0.0254
  907MOL0     C22322   0.322   9.838   3.947 -0.3313 -0.4342  0.6598
  907MOL0     C22323   0.193   9.896   4.013  1.0842  0.8500 -0.5264
  907MOL0     C22324   0.119   9.985   3.917  0.2877  0.2023  0.3600
  907MOL0     C22325  -0.008  10.063   3.978 -0.4784 -0.7579 -0.1896
  907MOL0     C22326  -0.092   9.965   4.062 -0.2323  0.0110 -0.8523
  907MOL0     N22327  -0.220  10.033   4.112  0.1277 -0.0646  0.7057
  907MOL0     C22328  -0.332   9.967   4.154 -0.6078  0.1696  0.6870
  907MOL0     C22329  -0.421  10.060   4.182  0.5524 -0.7033 -0.1509
  907MOL0     C22330  -0.558  10.057   4.237 -0.2526  0.5280 -0.2806
  907MOL0     C22331  -0.648  10.151   4.162  0.3085 -0.2427  0.1645
  907MOL0     C22332  -0.796  10.121   4.195 -0.2818  0.0856 -0.0935
  907MOL0     C22333  -0.896  10.193   4.104 -0.1185 -1.4561 -0.1937
  907MOL0     O22334  -1.015  10.211   4.190 -0.7347  0.5097 -0.7596
  907MOL0     C22335  -1.121  10.255   4.122  0.1792  0.1095 -0.0743
  907MOL0     C22336  -1.110  10.369   4.045  0.2754 -0.4943 -0.9679
  907MOL0     C22337  -1.215  10.427   3.968 -0.9740  0.5361  0.0994
  907MOL0     C22338  -1.181  10.547   3.883 -0.0029 -0.1076 -0.3908
  907MOL0     C22339  -1.344  10.372   3.980 -1.3031  0.3065  0.6873
  907MOL0     C22340  -1.451  10.418   3.903  0.2992  0.1565  0.8102
  907MOL0     O22341  -1.562  10.426   3.975  0.2268  0.8769  0.2738
  907MOL0     C22342  -1.692  10.431   3.929  0.5025  0.2498 -0.3024
  907MOL0     C22343  -1.740  10.455   3.796  0.4017 -0.7224  0.1984
  907MOL0     C22344  -1.876  10.482   3.770 -0.0517  0.7042 -0.6546
  907MOL0     C22345  -1.973  10.487   3.876 -0.6884 -0.3872  0.3580
  907MOL0     O22346  -2.107  10.519   3.858 -0.3061  0.4570  0.5879
  907MOL0     C22347  -2.177  10.578   3.965  0.5851  0.0846 -0.3607
  907MOL0     C22348  -2.316  10.639   3.927 -0.6113  0.6264 -0.0463
  907MOL0     C22349  -2.424  10.533   3.903 -0.7037 -0.6577  0.2025
  907MOL0     C22350  -2.474  10.478   4.042 -0.2285  0.6181 -0.2767
  907MOL0     C22351  -2.596  10.390   4.013  0.0538  0.5906 -0.9935
  907MOL0     C22352  -2.631  10.307   4.134 -0.2586  0.0780  0.0388
  907MOL0     C22353  -2.696  10.391   4.249 -0.5912  0.3481  0.6329
  907MOL0     C22354  -2.792  10.302   4.326  0.0002 -0.1063  0.3420
  907MOL0    Cl22355  -2.881  10.400   4.447 -0.2610 -0.0380 -0.3410
  907MOL0     C22356  -1.922  10.457   4.008  0.5284 -0.9704  0.2908
  907MOL0     C22357  -1.783  10.428   4.031  0.4024 -0.0963 -0.2273
  907MOL0     O22358  -1.447  10.438   3.782  0.8006  0.2424  0.6650
  907MOL0     C22359  -1.359  10.257   4.064  0.6339  0.3120  0.2079
  907MOL0     C22360  -1.250  10.201   4.136 -0.3727 -0.4787 -0.0356
  907MOL0     N22361  -0.356  10.185   4.174  0.5316  0.4745  0.3659
  907MOL0     N22362  -0.237  10.166   4.131 -0.1944  0.1714  0.5792
  907MOL0     C22363   0.991   9.734   3.905  0.3070  0.6143  0.3901
  907MOL0     C22364   1.125   9.733   3.948  0.3208 -0.6868  0.8631
  907MOL0     C22365   1.544   9.794   4.086 -0.5412  0.9335  0.7564
  907MOL0     C22366   1.664   9.766   4.018 -1.0451  0.6634  0.3123
  907MOL0     C22367   1.783   9.742   4.095  0.2768  0.2969 -0.0769
  907MOL0     C22368   1.789   9.754   4.232  0.6105 -0.8171  1.0139
  907MOL0     O22369   1.892   9.733   4.302 -0.0875  0.4376  0.2171
  907MOL0     C22370   2.027   9.727   4.254  0.3346 -0.3713  0.1713
  907MOL0     C22371   2.097   9.613   4.332 -0.3671 -0.0039 -0.1321
  907MOL0     C22372   2.008   9.515   4.411  0.1039 -0.5220  0.4301
  907MOL0     C22373   2.091   9.394   4.468 -0.7841  0.3149  1.2502
  907MOL0     C22374   2.206   9.438   4.551 -0.2589  0.2060 -0.0173
  907MOL0     C22375   2.299   9.488   4.616  0.7825 -0.1557 -0.4762
  907MOL0     C22376   1.666   9.796   4.293 -0.2312 -0.6316 -0.5097
  907MOL0     C22377   1.548   9.811   4.224 -0.1215 -0.3951 -0.1957
  907MOL0     H22378   1.147  10.043   4.064  0.3667 -0.4693  0.6450
  907MOL0     H22379   0.925  10.053   3.966 -1.4190 -1.9364  0.2463
  907MOL0     H22380   0.703  10.006   3.982 -3.0156  0.0921  0.4260
  907MOL0     H22381   0.671  10.014   3.810  1.5904  2.0438  0.7812
  907MOL0     H22382   0.544   9.797   3.829 -2.9961  0.6505 -0.0385
  907MOL0     H22383   0.610   9.782   3.991  0.7914  0.3535 -0.7345
  907MOL0     H22384   0.452   9.946   4.078  1.7895  0.0207 -0.1352
  907MOL0     H22385   0.437  10.023   3.919 -1.8504 -0.5655  0.1770
  907MOL0     H22386   0.320   9.816   3.840  2.9506  0.3221  0.3376
  907MOL0     H22387   0.343   9.743   3.999 -3.5835 -0.0521  2.9724
  907MOL0     H22388   0.124   9.813   4.033  2.2825 -0.1522 -0.4238
  907MOL0     H22389   0.215   9.936   4.113  0.3541 -2.1110  0.9332
  907MOL0     H22390   0.187  10.065   3.886 -0.2137 -0.3857 -2.5776
  907MOL0     H22391   0.088   9.925   3.831 -3.8711 -0.7352  2.2772
  907MOL0     H22392   0.021  10.145   4.043  0.7013  1.5486 -3.3592
  907MOL0     H22393  -0.074  10.107   3.903 -0.4742 -1.6252 -0.7213
  907MOL0     H22394  -0.034   9.917   4.141  1.0976  1.8595 -0.6448
  907MOL0     H22395  -0.121   9.880   3.999  0.0946 -0.9645  0.2882
  907MOL0     H22396  -0.340   9.860   4.171  1.0605  0.3347  3.1611
  907MOL0     H22397  -0.581   9.951   4.219  0.0116  0.3620  0.3141
  907MOL0     H22398  -0.554  10.086   4.342  3.1279  1.7477 -0.6316
  907MOL0     H22399  -0.635  10.141   4.053  0.1843 -1.4450  0.2530
  907MOL0     H22400  -0.618  10.255   4.179  2.2644 -0.7319 -0.0914
  907MOL0     H22401  -0.793  10.154   4.299  0.2099  0.9300 -0.3613
  907MOL0     H22402  -0.815  10.014   4.188  1.0366 -0.0528 -3.2294
  907MOL0     H22403  -0.913  10.133   4.014  0.3432  0.5319 -1.6748
  907MOL0     H22404  -0.849  10.290   4.083  0.2251 -1.7595 -0.8503
  907MOL0     H22405  -1.013  10.413   4.025  0.3178  0.1281  0.5126
  907MOL0     H22406  -1.163  10.502   3.785 -1.2591 -3.1804  0.6547
  907MOL0     H22407  -1.264  10.618   3.878  1.1982  1.2752 -1.4914
  907MOL0     H22408  -1.091  10.607   3.902 -2.4415  3.2092  1.8426
  907MOL0     H22409  -1.674  10.464   3.711 -2.8305  1.3518 -2.3140
  907MOL0     H22410  -1.905  10.521   3.673 -1.2608 -0.8911 -0.9782
  907MOL0     H22411  -2.187  10.513   4.053  2.1587 -0.2083 -0.3546
  907MOL0     H22412  -2.120  10.665   3.999  0.8328  0.4020 -1.5630
  907MOL0     H22413  -2.348  10.712   4.002  0.2957 -0.4250  1.4088
  907MOL0     H22414  -2.297  10.696   3.835  1.0758 -0.1266 -0.2117
  907MOL0     H22415  -2.388  10.457   3.834  1.8891  0.4234  0.2502
  907MOL0     H22416  -2.514  10.581   3.862 -0.0389 -1.4070 -2.2661
  907MOL0     H22417  -2.404  10.408   4.088 -0.8400 -1.8918 -2.8584
  907MOL0     H22418  -2.498  10.561   4.109 -0.9684  1.1947 -1.2215
  907MOL0     H22419  -2.569  10.311   3.942  3.8211 -2.0928  2.9010
  907MOL0     H22420  -2.675  10.452   3.970  0.2445  1.0265 -0.7166
  907MOL0     H22421  -2.699  10.227   4.103 -0.6734  0.4709 -0.0822
  907MOL0     H22422  -2.537  10.262   4.166 -0.1166  0.4925  0.2090
  907MOL0     H22423  -2.750  10.484   4.227 -0.1778  0.6216  0.7648
  907MOL0     H22424  -2.607  10.402   4.311  2.0175 -2.0518 -2.3624
  907MOL0     H22425  -2.733  10.220   4.367 -1.2225 -1.0584  0.2695
  907MOL0     H22426  -2.868  10.258   4.260 -0.7907 -0.4373  1.4379
  907MOL0     H22427  -1.994  10.456   4.090  0.7120  1.6282  0.5748
  907MOL0     H22428  -1.757  10.413   4.135 -0.1281  1.2412  0.1057
  907MOL0     H22429  -1.459  10.216   4.069  0.5397  0.6488  1.2742
  907MOL0     H22430  -1.263  10.125   4.213 -0.7874 -1.7853 -1.3498
  907MOL0     H22431   0.942   9.643   3.870  0.8359 -0.1578  1.5724
  907MOL0     H22432   1.181   9.641   3.957  1.1586 -0.2378  0.3440
  907MOL0     H22433   1.665   9.750   3.911  0.8530  1.0550  0.2351
  907MOL0     H22434   1.862   9.715   4.027 -0.8439  0.9725 -1.7237
  907MOL0     H22435   2.037   9.702   4.148 -0.9058 -0.7613  0.1352
  907MOL0     H22436   2.075   9.823   4.272 -0.9010  0.1831  0.5537
  907MOL0     H22437   2.167   9.669   4.395 -0.8590  0.4014  0.0649
  907MOL0     H22438   2.160   9.559   4.262 -2.0312  0.2067 -1.8770
  907MOL0     H22439   1.927   9.483   4.345  2.5392 -0.7837 -2.6885
  907MOL0     H22440   1.960   9.571   4.492 -1.0779  1.8854 -1.7575
  907MOL0     H22441   2.128   9.346   4.376 -0.4049  0.4226  1.3457
  907MOL0     H22442   2.027   9.324   4.524 -3.3910  2.5007  1.2061
  907MOL0     H22443   2.364   9.531   4.689  2.1477 -0.9319 -1.2073
  907MOL0     H22444   1.663   9.802   4.401  0.0423  2.1767 -0.5843
  907MOL0     H22445   1.458   9.830   4.281  0.0742 -0.7307  0.2321
  908MOL0     O22446   5.912   3.838   0.178 -0.1787 -0.1541 -0.9629
  908MOL0     C22447   5.912   3.916   0.083 -0.3080 -0.2764  0.3928
  908MOL0     O22448   5.822   3.918  -0.026 -0.1028  0.0400  1.1022
  908MOL0     C22449   5.727   3.816  -0.034  1.0752 -0.4004 -0.2571
  908MOL0     C22450   5.766   3.685  -0.070  0.2560 -0.3334 -0.5096
  908MOL0     C22451   5.674   3.582  -0.045 -0.1848 -0.5332  0.2183
  908MOL0     C22452   5.560   3.605   0.026 -0.3378  0.6166 -0.1452
  908MOL0     O22453   5.486   3.487   0.049 -0.1549 -0.4569  1.6535
  908MOL0     C22454   5.349   3.513   0.005 -0.6498 -0.6428 -0.2921
  908MOL0     C22455   5.281   3.381  -0.030  0.6168 -0.4489  0.8926
  908MOL0     C22456   5.138   3.419  -0.063 -0.0876  0.5197 -0.3301
  908MOL0     C22457   5.043   3.349   0.032  0.5741  0.1932 -0.9787
  908MOL0     C22458   4.894   3.376   0.010  1.0069  0.7200 -0.4552
  908MOL0     C22459   4.803   3.277   0.087  0.2937  0.0514 -0.6758
  908MOL0     C22460   4.661   3.322   0.077  0.7766  0.1810 -0.7459
  908MOL0     C22461   4.558   3.251   0.172  0.3657  0.0006  0.1606
  908MOL0     N22462   4.525   3.114   0.121  0.6706  0.1101 -0.1746
  908MOL0     C22463   4.555   3.005   0.193 -0.7706 -0.6518 -0.5122
  908MOL0     C22464   4.500   2.906   0.117 -0.2399  0.4541  0.2056
  908MOL0     C22465   4.515   2.757   0.145  0.7814 -0.5210 -0.3006
  908MOL0     C22466   4.404   2.708   0.245 -0.3624 -0.3586  0.2264
  908MOL0     C22467   4.404   2.551   0.247  0.5705  0.1708 -0.0666
  908MOL0     C22468   4.335   2.497   0.119 -1.0549 -0.7456  0.7952
  908MOL0     O22469   4.204   2.543   0.079 -0.7271  0.2454  0.0053
  908MOL0     C22470   4.101   2.482   0.148  0.3256  0.3906  0.6330
  908MOL0     C22471   4.067   2.342   0.137 -0.1680 -0.0059 -0.1267
  908MOL0     C22472   3.946   2.292   0.179  0.7405 -0.5238 -0.3492
  908MOL0     C22473   3.936   2.140   0.164  0.7364 -0.5810  0.4461
  908MOL0     C22474   3.850   2.377   0.236 -0.4091  0.5432  0.6020
  908MOL0     C22475   3.713   2.338   0.278 -0.5690  0.0082 -0.4758
  908MOL0     O22476   3.680   2.214   0.270  0.8012 -0.6631 -0.8117
  908MOL0     C22477   3.562   2.159   0.317  0.0501  0.4631 -0.6374
  908MOL0     C22478   3.491   2.202   0.434  0.2932 -0.1116 -0.0847
  908MOL0     C22479   3.367   2.144   0.464 -0.4250  0.3945 -0.3797
  908MOL0     C22480   3.303   2.048   0.377 -0.4490 -0.6644 -0.0635
  908MOL0     O22481   3.182   1.996   0.390  0.0305 -0.2950 -0.8159
  908MOL0     C22482   3.078   2.087   0.434  1.2140  0.7900 -0.0909
  908MOL0     C22483   3.011   2.028   0.557  0.1742  0.1070  0.1006
  908MOL0     C22484   2.932   1.898   0.537 -0.0542 -0.4236  0.2081
  908MOL0     C22485   2.822   1.887   0.645 -0.0602 -0.1845 -1.1729
  908MOL0     C22486   2.698   1.807   0.599  0.4837 -0.4643 -0.1924
  908MOL0     C22487   2.585   1.789   0.702 -0.2497 -0.8532 -0.0474
  908MOL0     C22488   2.475   1.700   0.648 -0.0812 -0.7052 -0.0105
  908MOL0     C22489   2.340   1.737   0.716 -0.0171 -0.0041 -0.3951
  908MOL0    Cl22490   2.192   1.677   0.639  0.1124 -0.3006  0.7461
  908MOL0     C22491   3.385   1.998   0.271  0.1500  0.0894 -0.4188
  908MOL0     C22492   3.512   2.052   0.242  0.4158  0.1908 -0.2206
  908MOL0     O22493   3.633   2.428   0.301 -0.2077  0.0876  0.1295
  908MOL0     C22494   3.884   2.516   0.249 -0.4990  0.4793 -0.0132
  908MOL0     C22495   4.009   2.570   0.204  0.2567 -0.2327 -0.7270
  908MOL0     N22496   4.450   2.957   0.001  0.6488 -0.1484  0.4073
  908MOL0     N22497   4.457   3.084   0.006  0.7404  0.1500  0.6785
  908MOL0     C22498   5.517   3.736   0.064 -0.6009 -0.0148 -0.5783
  908MOL0     C22499   5.603   3.841   0.029 -0.2009  0.5270 -0.0807
  908MOL0     C22500   6.004   4.029   0.099  0.1307 -0.1105  0.3297
  908MOL0     C22501   5.960   4.160   0.129  0.7979  0.1595  0.3060
  908MOL0     C22502   6.054   4.271   0.130 -0.6503 -0.9752 -0.4506
  908MOL0     C22503   6.191   4.246   0.109 -0.1621 -0.9406  0.1821
  908MOL0     O22504   6.283   4.356   0.107 -0.0076 -0.0975 -0.4593
  908MOL0     C22505   6.405   4.353   0.185 -0.0701  0.7311  0.1318
  908MOL0     C22506   6.454   4.491   0.196  0.2964 -0.4032  0.6539
  908MOL0     C22507   6.585   4.499   0.274  0.0855 -0.0917  0.4758
  908MOL0     C22508   6.671   4.620   0.244 -0.0245 -0.4969 -0.2743
  908MOL0     C22509   6.795   4.618   0.311 -0.9273 -0.0571 -0.8453
  908MOL0     C22510   6.905   4.608   0.359 -0.1196 -0.3984 -0.2845
  908MOL0     C22511   6.233   4.115   0.085 -0.6730 -0.3929 -0.0817
  908MOL0     C22512   6.143   3.998   0.085 -0.1173 -0.6631  0.2436
  908MOL0     H22513   5.862   3.671  -0.118  1.0229 -1.6841  1.2642
  908MOL0     H22514   5.708   3.485  -0.079  4.8501  1.3783 -1.0803
  908MOL0     H22515   5.289   3.562   0.082 -0.9276 -1.6226  0.1284
  908MOL0     H22516   5.344   3.573  -0.086  0.4610 -2.9763 -2.0019
  908MOL0     H22517   5.334   3.348  -0.120 -0.6665 -4.4000  1.4175
  908MOL0     H22518   5.287   3.304   0.046  0.3773 -1.3162  0.0499
  908MOL0     H22519   5.115   3.526  -0.059  0.4857  0.6333  0.0855
  908MOL0     H22520   5.104   3.378  -0.158 -1.0712 -0.5114  0.4468
  908MOL0     H22521   5.060   3.241   0.021 -0.6981 -0.2026  0.4376
  908MOL0     H22522   5.073   3.381   0.132  2.8896 -0.7405 -1.3275
  908MOL0     H22523   4.867   3.478   0.039 -1.0135  0.9536 -2.8236
  908MOL0     H22524   4.877   3.365  -0.097 -1.4491 -0.3942 -0.0147
  908MOL0     H22525   4.819   3.175   0.050  1.3054 -0.1625  0.2918
  908MOL0     H22526   4.822   3.281   0.195  2.3503 -1.0730 -0.9346
  908MOL0     H22527   4.657   3.426   0.109  0.2799 -0.1002  0.1449
  908MOL0     H22528   4.618   3.317  -0.023 -0.9003  2.9042 -0.2455
  908MOL0     H22529   4.468   3.311   0.184  1.0657  0.9171  1.0781
  908MOL0     H22530   4.607   3.249   0.270  1.2124 -0.9005 -0.2594
  908MOL0     H22531   4.610   3.005   0.287 -1.0909 -0.7740 -0.3213
  908MOL0     H22532   4.525   2.695   0.055  0.3264 -0.4787 -0.3804
  908MOL0     H22533   4.611   2.734   0.192  0.8693 -0.4897 -0.4622
  908MOL0     H22534   4.314   2.755   0.206  0.5752  0.2819 -1.2378
  908MOL0     H22535   4.418   2.749   0.346  2.1276  0.9427 -0.5524
  908MOL0     H22536   4.347   2.509   0.330 -0.4623  2.7293  0.6125
  908MOL0     H22537   4.508   2.518   0.238  0.9361  1.6537 -1.8891
  908MOL0     H22538   4.340   2.388   0.131 -0.3833 -0.9593 -1.0170
  908MOL0     H22539   4.385   2.522   0.025 -2.1314 -0.2711  0.3305
  908MOL0     H22540   4.145   2.275   0.102  0.0648 -1.1719  2.3957
  908MOL0     H22541   3.891   2.101   0.255  1.6091 -0.4596  0.9407
  908MOL0     H22542   3.882   2.121   0.070  2.9582  0.3204 -1.1129
  908MOL0     H22543   4.032   2.088   0.158  0.9331 -0.4903  2.3762
  908MOL0     H22544   3.532   2.280   0.497  0.3945  1.0383 -1.5276
  908MOL0     H22545   3.321   2.170   0.558  1.4215 -3.6958  1.9317
  908MOL0     H22546   3.115   2.190   0.436  0.3765  1.2401 -2.8280
  908MOL0     H22547   3.005   2.092   0.352 -0.5746  1.1915  1.4636
  908MOL0     H22548   3.087   2.009   0.633  0.3396  0.2484 -0.0280
  908MOL0     H22549   2.942   2.110   0.579 -2.5446 -1.7869 -0.8429
  908MOL0     H22550   2.987   1.804   0.541 -1.1913 -1.1379 -0.2754
  908MOL0     H22551   2.870   1.901   0.446 -2.5024 -1.2291  1.7482
  908MOL0     H22552   2.865   1.843   0.735  0.1949  2.5042  0.1350
  908MOL0     H22553   2.790   1.989   0.668  1.7817 -0.2538  2.4018
  908MOL0     H22554   2.728   1.704   0.580  2.1217  0.1942 -1.4211
  908MOL0     H22555   2.655   1.844   0.505  1.3781 -0.0341 -0.4375
  908MOL0     H22556   2.632   1.746   0.790 -0.6298 -0.4137  0.3743
  908MOL0     H22557   2.546   1.886   0.735  1.7259  0.5357 -1.4750
  908MOL0     H22558   2.497   1.600   0.687  2.0360  0.1559  1.1556
  908MOL0     H22559   2.473   1.702   0.539 -2.1198 -1.1205 -0.0303
  908MOL0     H22560   2.326   1.845   0.711  0.4073  0.1083  0.5793
  908MOL0     H22561   2.341   1.716   0.823 -0.5820  1.0092 -0.1764
  908MOL0     H22562   3.343   1.927   0.200  0.4106  1.4273 -1.9979
  908MOL0     H22563   3.565   2.006   0.159  0.1152  0.1626 -0.4001
  908MOL0     H22564   3.813   2.585   0.293  1.6480  1.3967  2.2396
  908MOL0     H22565   4.026   2.677   0.204  1.1159 -0.3591 -0.9751
  908MOL0     H22566   5.424   3.757   0.116  0.0197 -0.5297  0.7857
  908MOL0     H22567   5.584   3.948   0.032 -0.1690  0.6573 -2.4991
  908MOL0     H22568   5.853   4.178   0.131  0.9115  0.7709  1.6895
  908MOL0     H22569   6.021   4.370   0.161  1.7224 -0.2851  0.0424
  908MOL0     H22570   6.390   4.325   0.290 -2.6896  0.2924 -0.2734
  908MOL0     H22571   6.474   4.281   0.141  0.2442 -1.1279  3.3217
  908MOL0     H22572   6.378   4.554   0.243  0.5327  2.6246 -2.5888
  908MOL0     H22573   6.473   4.522   0.093  1.6515 -0.0744  0.9889
  908MOL0     H22574   6.646   4.409   0.259  0.2725  0.2229 -0.7237
  908MOL0     H22575   6.544   4.490   0.376  1.0755  4.3374  1.4810
  908MOL0     H22576   6.614   4.710   0.265 -1.0282 -0.6334 -2.2103
  908MOL0     H22577   6.700   4.624   0.139 -0.5087  0.1831 -0.3883
  908MOL0     H22578   7.001   4.618   0.405 -0.5251 -0.8585  0.7023
  908MOL0     H22579   6.337   4.107   0.055 -1.0557 -0.3617 -1.4533
  908MOL0     H22580   6.178   3.898   0.062  0.8105  0.0484 -1.7007
  909MOL0     O22581   5.715   7.648   6.425 -0.3467 -0.4369  0.7604
  909MOL0     C22582   5.745   7.546   6.487  0.6079 -0.6599 -0.3444
  909MOL0     O22583   5.657   7.475   6.562  0.6036  0.4452 -0.4336
  909MOL0     C22584   5.525   7.502   6.553  0.1623 -1.1265  0.8875
  909MOL0     C22585   5.465   7.501   6.680  0.2191  0.5898 -0.1757
  909MOL0     C22586   5.327   7.521   6.680  0.8603  0.1106 -0.1617
  909MOL0     C22587   5.244   7.539   6.564 -0.0527  0.3116 -0.1797
  909MOL0     O22588   5.105   7.551   6.561  0.1687 -0.6374 -0.2905
  909MOL0     C22589   5.038   7.514   6.684  0.9420 -0.2365  0.2955
  909MOL0     C22590   4.885   7.540   6.687  0.3454  0.5849 -0.1657
  909MOL0     C22591   4.813   7.463   6.806 -0.3348  0.2252 -0.0267
  909MOL0     C22592   4.669   7.480   6.814  0.4578  0.6730 -0.1173
  909MOL0     C22593   4.615   7.617   6.834 -0.5133  0.1584 -0.5284
  909MOL0     C22594   4.474   7.620   6.872 -0.1099 -0.0607  0.2833
  909MOL0     C22595   4.382   7.546   6.771 -0.4777 -0.0026 -0.2168
  909MOL0     C22596   4.228   7.566   6.809  0.2074  0.1871 -0.1267
  909MOL0     N22597   4.135   7.459   6.780  0.0240  0.3650 -0.7496
  909MOL0     C22598   4.114   7.342   6.857 -0.2596 -0.4135 -0.7016
  909MOL0     C22599   4.009   7.277   6.801  0.1812 -0.6725 -0.7811
  909MOL0     C22600   3.950   7.147   6.839  0.2092  0.2393 -0.0679
  909MOL0     C22601   3.823   7.176   6.917  0.6642 -0.2174  0.8561
  909MOL0     C22602   3.859   7.220   7.060 -0.5048 -0.3401  0.3037
  909MOL0     C22603   3.747   7.235   7.146 -0.5118  0.3452 -0.4593
  909MOL0     O22604   3.711   7.101   7.203  0.2424 -0.0832 -0.4780
  909MOL0     C22605   3.597   7.086   7.268  0.5568  0.4712  0.2646
  909MOL0     C22606   3.513   7.184   7.324 -0.1516  0.0792  0.2965
  909MOL0     C22607   3.398   7.143   7.393 -0.0889 -0.3689  0.0370
  909MOL0     C22608   3.314   7.261   7.433 -0.7349  0.0654 -0.2630
  909MOL0     C22609   3.365   7.011   7.410  0.1580  0.5216 -0.2159
  909MOL0     C22610   3.237   6.952   7.475 -0.2256 -0.1483  0.4042
  909MOL0     O22611   3.132   7.045   7.482 -0.3568  0.8440 -0.4989
  909MOL0     C22612   3.002   6.998   7.511  0.3437  0.8771 -0.5886
  909MOL0     C22613   2.946   7.007   7.645  0.1512  0.1329 -0.2496
  909MOL0     C22614   2.819   6.953   7.663 -0.0766  0.2172  0.1717
  909MOL0     C22615   2.749   6.877   7.568  0.0005 -0.3044  0.6505
  909MOL0     O22616   2.624   6.829   7.599 -0.0326 -0.4327 -0.1302
  909MOL0     C22617   2.517   6.837   7.492 -1.1788 -0.5463 -0.4357
  909MOL0     C22618   2.389   6.802   7.562 -0.3099  0.1719  0.6373
  909MOL0     C22619   2.287   6.745   7.457 -0.1025  0.1591 -0.9401
  909MOL0     C22620   2.142   6.734   7.492  0.2786  0.2826  0.4779
  909MOL0     C22621   2.054   6.661   7.392 -0.9322  0.2765 -0.2952
  909MOL0     C22622   1.910   6.677   7.412  0.3988 -0.4211  0.3573
  909MOL0     C22623   1.827   6.620   7.302 -0.6985 -0.4515 -0.4609
  909MOL0     C22624   1.675   6.631   7.329 -0.5794  0.7458  0.3445
  909MOL0    Cl22625   1.628   6.801   7.345  0.0619 -0.0993 -0.2608
  909MOL0     C22626   2.811   6.852   7.447  0.0167 -0.0718  0.5377
  909MOL0     C22627   2.926   6.920   7.415  1.0187 -0.0725 -0.2765
  909MOL0     O22628   3.234   6.840   7.515  0.6835  0.9708  0.0419
  909MOL0     C22629   3.461   6.910   7.371  0.1600  0.0672 -0.2078
  909MOL0     C22630   3.577   6.953   7.306 -0.2060  0.2008 -0.3897
  909MOL0     N22631   3.980   7.345   6.679 -0.3647 -0.0356 -0.6006
  909MOL0     N22632   4.050   7.458   6.673  0.2103  0.1619  0.3078
  909MOL0     C22633   5.313   7.555   6.446  0.0311  0.0682 -0.5732
  909MOL0     C22634   5.451   7.538   6.433  0.6278  0.1022 -0.7051
  909MOL0     C22635   5.897   7.514   6.495  0.6792  0.3261  1.3538
  909MOL0     C22636   5.990   7.577   6.414  0.0977  0.1325 -0.1775
  909MOL0     C22637   6.123   7.539   6.412 -0.5569 -0.0381 -0.7540
  909MOL0     C22638   6.175   7.432   6.488  0.2844  0.8086 -0.4139
  909MOL0     O22639   6.302   7.385   6.487 -0.1477 -0.3186 -0.2204
  909MOL0     C22640   6.414   7.447   6.422  0.3665 -0.5108 -0.3860
  909MOL0     C22641   6.498   7.526   6.523 -0.3382  0.0564 -0.7440
  909MOL0     C22642   6.553   7.434   6.639 -0.6379 -0.6433  0.1269
  909MOL0     C22643   6.630   7.511   6.753  0.0151  0.7359 -0.8096
  909MOL0     C22644   6.762   7.561   6.707  0.3248 -0.6053 -0.3806
  909MOL0     C22645   6.871   7.606   6.679 -0.3349  0.6068  0.1315
  909MOL0     C22646   6.081   7.363   6.572 -0.9983 -0.1235 -0.0798
  909MOL0     C22647   5.943   7.399   6.571  0.0002  0.2096  0.0413
  909MOL0     H22648   5.526   7.490   6.770 -0.6029 -1.9894  0.1203
  909MOL0     H22649   5.290   7.528   6.781  2.2736  2.9166  0.2500
  909MOL0     H22650   5.057   7.407   6.698 -2.3922 -0.7845  1.3662
  909MOL0     H22651   5.075   7.584   6.759  1.5171  3.9999 -3.4923
  909MOL0     H22652   4.860   7.646   6.692 -0.4290  0.3739  0.7513
  909MOL0     H22653   4.855   7.502   6.589  2.1462 -0.1654 -0.4742
  909MOL0     H22654   4.833   7.357   6.787 -1.5224 -0.1759  0.8290
  909MOL0     H22655   4.861   7.497   6.898 -0.0098  0.3118 -0.2281
  909MOL0     H22656   4.627   7.443   6.720 -1.5965 -2.6895  1.8904
  909MOL0     H22657   4.626   7.413   6.890 -0.0308  1.4355  0.2917
  909MOL0     H22658   4.666   7.668   6.916 -2.6891  1.6488 -0.0095
  909MOL0     H22659   4.641   7.681   6.749  1.9462 -1.8666 -1.4370
  909MOL0     H22660   4.459   7.567   6.967  1.7105 -0.7200  0.2453
  909MOL0     H22661   4.439   7.722   6.892 -0.0640 -0.0911  0.5244
  909MOL0     H22662   4.399   7.598   6.676  0.4933  1.6168  0.8010
  909MOL0     H22663   4.414   7.443   6.757 -0.8497 -0.0042 -1.1022
  909MOL0     H22664   4.197   7.664   6.772  1.7887  1.7863  2.4976
  909MOL0     H22665   4.222   7.588   6.916  1.4842  3.9228 -0.6764
  909MOL0     H22666   4.170   7.322   6.948 -0.7752 -0.1957 -0.3313
  909MOL0     H22667   3.923   7.099   6.745 -0.9912  1.5124 -0.4042
  909MOL0     H22668   4.014   7.085   6.902 -2.1112 -1.9257  0.2998
  909MOL0     H22669   3.756   7.089   6.919 -0.2979  0.4963  0.8288
  909MOL0     H22670   3.762   7.253   6.868  1.5347 -0.8970 -1.4227
  909MOL0     H22671   3.910   7.316   7.052 -2.3298  0.9941  2.9762
  909MOL0     H22672   3.933   7.159   7.112  2.2957  3.7735  1.6529
  909MOL0     H22673   3.655   7.270   7.098 -1.4352  1.8585  2.1929
  909MOL0     H22674   3.774   7.306   7.225 -0.5904  1.0888 -1.0820
  909MOL0     H22675   3.536   7.288   7.300  0.6952  0.1915  1.4587
  909MOL0     H22676   3.352   7.347   7.376 -1.4694  0.7394  0.2397
  909MOL0     H22677   3.213   7.247   7.394 -0.2156  1.3042 -2.1945
  909MOL0     H22678   3.324   7.289   7.538  0.5340  3.1972 -1.0895
  909MOL0     H22679   2.990   7.051   7.734 -2.3842  0.2601  1.0578
  909MOL0     H22680   2.770   6.965   7.759  1.7285 -0.2182  1.2007
  909MOL0     H22681   2.520   6.936   7.444  2.6860 -0.9913 -1.4003
  909MOL0     H22682   2.539   6.765   7.413  0.4535 -0.4463 -0.1102
  909MOL0     H22683   2.412   6.720   7.630 -1.8020 -0.3046  0.6001
  909MOL0     H22684   2.340   6.889   7.606 -0.8820  1.0167 -1.5234
  909MOL0     H22685   2.321   6.644   7.435 -1.7550 -0.6490  0.0329
  909MOL0     H22686   2.294   6.813   7.371 -0.3102  1.5217  0.0710
  909MOL0     H22687   2.137   6.684   7.589  0.7482  1.3618  1.0679
  909MOL0     H22688   2.102   6.835   7.505  0.2235 -0.0096  2.9869
  909MOL0     H22689   2.087   6.558   7.400  2.0446  1.1058 -0.8805
  909MOL0     H22690   2.077   6.693   7.290 -1.0846  1.1515 -0.0700
  909MOL0     H22691   1.887   6.628   7.507  0.5766 -2.4725 -0.6049
  909MOL0     H22692   1.888   6.782   7.436  0.7367 -0.3754  0.4750
  909MOL0     H22693   1.856   6.517   7.279  0.3634 -0.1434 -0.5595
  909MOL0     H22694   1.848   6.680   7.213  0.2988 -3.6542 -2.5612
  909MOL0     H22695   1.656   6.584   7.426 -0.9620  1.8199  0.7926
  909MOL0     H22696   1.616   6.570   7.259  2.0847 -0.8582 -0.7114
  909MOL0     H22697   2.769   6.790   7.368 -0.3685  2.5754 -1.5024
  909MOL0     H22698   2.967   6.895   7.318 -0.3753  0.7006 -1.1063
  909MOL0     H22699   3.450   6.803   7.384  1.7798  0.0925  1.9376
  909MOL0     H22700   3.652   6.875   7.299  0.8313  1.2703 -1.6845
  909MOL0     H22701   5.264   7.598   6.360 -0.0315  1.6997  0.2451
  909MOL0     H22702   5.504   7.547   6.338 -0.5867  1.1475 -1.3085
  909MOL0     H22703   5.957   7.653   6.343 -0.9424  0.3058  0.4676
  909MOL0     H22704   6.191   7.594   6.348 -1.8636  2.2752 -0.2575
  909MOL0     H22705   6.472   7.373   6.366  0.9039  1.2993 -2.3395
  909MOL0     H22706   6.389   7.523   6.348  2.3119 -0.9959 -1.6103
  909MOL0     H22707   6.431   7.604   6.561 -0.3489 -1.0573  1.7094
  909MOL0     H22708   6.585   7.572   6.477 -0.6954  1.0309 -0.4639
  909MOL0     H22709   6.622   7.362   6.596  0.7943  1.7754 -1.9027
  909MOL0     H22710   6.466   7.381   6.680 -0.9992 -0.9975 -1.0437
  909MOL0     H22711   6.647   7.441   6.835 -1.0475 -0.6222 -1.6981
  909MOL0     H22712   6.565   7.589   6.794  0.8087  0.3235  1.3804
  909MOL0     H22713   6.960   7.657   6.649 -0.6716  0.4179 -1.2464
  909MOL0     H22714   6.126   7.283   6.630  0.0539  1.8352  1.9561
  909MOL0     H22715   5.871   7.335   6.622 -0.1403 -0.7281 -1.2889
  910MOL0     O22716   1.402   2.174   2.635  1.1107 -0.1294  0.2248
  910MOL0     C22717   1.430   2.057   2.595  0.4670  0.0392 -0.2654
  910MOL0     O22718   1.349   1.956   2.578  0.0801  0.4340  0.2101
  910MOL0     C22719   1.216   1.972   2.583  0.1352  0.0055  0.4611
  910MOL0     C22720   1.146   1.918   2.469 -0.2131  0.4130  0.2514
  910MOL0     C22721   1.009   1.905   2.475  0.4447  0.1272 -0.1778
  910MOL0     C22722   0.930   1.972   2.571 -0.6478 -0.5116 -0.2036
  910MOL0     O22723   0.796   1.968   2.559  0.1811  0.3894 -0.8515
  910MOL0     C22724   0.722   1.982   2.682 -0.4876  0.1184  0.3536
  910MOL0     C22725   0.573   1.951   2.646 -0.5254  0.1378 -0.4650
  910MOL0     C22726   0.495   2.003   2.765  0.0188 -0.1305  0.0006
  910MOL0     C22727   0.346   2.018   2.723 -0.2987  0.3478 -1.0714
  910MOL0     C22728   0.261   1.999   2.852  0.5289 -0.4598  0.2339
  910MOL0     C22729   0.207   1.850   2.869 -0.1129  0.1520  1.2523
  910MOL0     C22730   0.112   1.801   2.750 -0.9269 -0.8432 -0.6270
  910MOL0     C22731   0.031   1.667   2.766 -0.3184 -0.1384  1.0847
  910MOL0     N22732  -0.050   1.669   2.880  0.2043 -0.2522 -0.0246
  910MOL0     C22733  -0.010   1.651   3.007  0.1233 -1.2439  0.1679
  910MOL0     C22734  -0.120   1.682   3.079 -0.0705 -0.2559 -0.0201
  910MOL0     C22735  -0.131   1.677   3.228 -0.8237 -0.0886  0.1750
  910MOL0     C22736  -0.195   1.547   3.253 -0.7359  0.1772  0.4600
  910MOL0     C22737  -0.255   1.570   3.395 -0.2757  0.0959  1.3951
  910MOL0     C22738  -0.305   1.445   3.456  0.2484 -0.0170 -0.0154
  910MOL0     O22739  -0.392   1.386   3.355 -0.0671 -0.7062  0.4370
  910MOL0     C22740  -0.525   1.419   3.348 -0.1850 -0.5919  0.5786
  910MOL0     C22741  -0.599   1.498   3.444  0.9506  0.7358 -0.3280
  910MOL0     C22742  -0.733   1.529   3.419  0.5081  0.3811  1.5979
  910MOL0     C22743  -0.805   1.623   3.517  0.1960 -0.7624 -0.3797
  910MOL0     C22744  -0.798   1.480   3.300 -0.6864 -0.4490  0.0547
  910MOL0     C22745  -0.944   1.493   3.272  0.2937 -0.1644 -0.3536
  910MOL0     O22746  -0.992   1.493   3.152  0.2228 -0.5884 -0.0301
  910MOL0     C22747  -1.125   1.494   3.124 -0.4026  0.3341  0.0469
  910MOL0     C22748  -1.172   1.560   3.018 -0.9600 -0.0153  0.5706
  910MOL0     C22749  -1.309   1.565   2.989 -0.7851 -0.7711 -0.4392
  910MOL0     C22750  -1.403   1.479   3.050 -0.2031 -0.3106  0.1080
  910MOL0     O22751  -1.535   1.473   3.022  0.6070 -0.4680  0.3034
  910MOL0     C22752  -1.581   1.543   2.907  0.1376 -0.7549 -0.3579
  910MOL0     C22753  -1.728   1.508   2.879 -1.6047 -0.2133  0.3726
  910MOL0     C22754  -1.810   1.605   2.961 -0.3852 -0.6821  0.9317
  910MOL0     C22755  -1.951   1.559   2.988 -0.3425  0.1582 -0.4750
  910MOL0     C22756  -2.030   1.554   2.858  0.3285  0.4870 -0.4321
  910MOL0     C22757  -2.173   1.520   2.873 -0.1657  0.3833 -0.0468
  910MOL0     C22758  -2.188   1.377   2.933 -0.1718 -0.4121  0.7250
  910MOL0     C22759  -2.333   1.324   2.925  0.0194 -0.6799  0.6434
  910MOL0    Cl22760  -2.430   1.453   3.003 -0.0303  0.3826 -0.0929
  910MOL0     C22761  -1.357   1.401   3.148 -0.2332 -0.4472 -0.5540
  910MOL0     C22762  -1.218   1.405   3.183  0.4345 -0.0403 -0.1873
  910MOL0     O22763  -1.012   1.491   3.372  0.5483  0.4171 -0.0753
  910MOL0     C22764  -0.723   1.402   3.213 -0.2908  0.3056 -0.2211
  910MOL0     C22765  -0.588   1.374   3.231  0.3488  0.4886 -1.0110
  910MOL0     N22766  -0.224   1.726   2.995 -0.4655 -0.0478  0.5340
  910MOL0     N22767  -0.183   1.707   2.867 -0.6641 -0.0181  0.0833
  910MOL0     C22768   1.002   2.034   2.679  0.1779 -0.3347  0.1337
  910MOL0     C22769   1.142   2.026   2.690 -0.0385 -0.1883 -0.0088
  910MOL0     C22770   1.570   2.027   2.591  0.5327  1.0362  0.4545
  910MOL0     C22771   1.620   1.893   2.598 -0.0265  0.0388 -0.1529
  910MOL0     C22772   1.760   1.880   2.624  0.3407  0.4059  0.7149
  910MOL0     C22773   1.844   1.989   2.633 -0.3764 -0.6894  0.1701
  910MOL0     O22774   1.979   1.963   2.640 -0.8455  0.4445 -0.1042
  910MOL0     C22775   2.070   2.065   2.658 -0.5157  0.1990 -0.4102
  910MOL0     C22776   2.211   2.019   2.654 -0.1183  0.4563 -0.0813
  910MOL0     C22777   2.242   1.947   2.791 -0.6086  0.4097  0.4557
  910MOL0     C22778   2.386   1.882   2.799  0.1782 -0.6699  1.1696
  910MOL0     C22779   2.485   1.987   2.811 -0.2960  0.9014  0.1197
  910MOL0     C22780   2.565   2.079   2.830 -0.5471  1.3332  0.2367
  910MOL0     C22781   1.797   2.118   2.616  0.3670 -0.4424  0.4427
  910MOL0     C22782   1.659   2.131   2.589 -0.0542  0.0825  0.2059
  910MOL0     H22783   1.199   1.873   2.385  2.3250  2.1421  0.7901
  910MOL0     H22784   0.963   1.839   2.402 -2.6256  0.5486  1.2156
  910MOL0     H22785   0.746   1.908   2.758  1.4151 -1.0066 -1.2712
  910MOL0     H22786   0.731   2.083   2.723  0.6788  0.2593 -0.2218
  910MOL0     H22787   0.544   2.003   2.554 -0.9687  2.4577  0.8864
  910MOL0     H22788   0.553   1.844   2.635 -0.4703  0.1403 -0.5897
  910MOL0     H22789   0.515   1.929   2.844 -0.7558  2.2334  2.5655
  910MOL0     H22790   0.533   2.098   2.804 -0.2290  0.0502 -0.2061
  910MOL0     H22791   0.340   2.117   2.677 -0.8624  0.8138 -0.0256
  910MOL0     H22792   0.321   1.939   2.652  3.4470 -1.1518 -0.9803
  910MOL0     H22793   0.314   2.020   2.945  0.3368 -1.6856  0.6402
  910MOL0     H22794   0.174   2.064   2.844  0.2863 -0.7294  0.6495
  910MOL0     H22795   0.297   1.788   2.865  0.2452  0.6713  1.1354
  910MOL0     H22796   0.157   1.846   2.966 -2.9737 -0.1657 -0.1374
  910MOL0     H22797   0.034   1.875   2.730 -2.3205 -1.2489  2.5987
  910MOL0     H22798   0.163   1.785   2.655 -0.0752  0.9359 -0.4959
  910MOL0     H22799   0.099   1.582   2.761 -0.8429 -0.5698  1.1507
  910MOL0     H22800  -0.036   1.661   2.680  1.4407 -0.7050 -0.3136
  910MOL0     H22801   0.090   1.621   3.038  1.1870 -0.0316 -1.8099
  910MOL0     H22802  -0.034   1.691   3.276  0.8883  0.0405 -3.0094
  910MOL0     H22803  -0.201   1.757   3.252 -1.9150 -1.3924  1.4911
  910MOL0     H22804  -0.120   1.469   3.265 -2.9820 -1.8765  2.0979
  910MOL0     H22805  -0.273   1.515   3.183  0.3805 -1.6470 -0.0025
  910MOL0     H22806  -0.331   1.649   3.392  1.0142  1.3745  0.8185
  910MOL0     H22807  -0.173   1.605   3.458  0.2457  2.6188 -0.5312
  910MOL0     H22808  -0.365   1.459   3.547  0.1374 -1.5871  0.1740
  910MOL0     H22809  -0.217   1.385   3.478  0.8916  1.7046  2.5324
  910MOL0     H22810  -0.550   1.545   3.529  0.3938  4.5660 -1.9023
  910MOL0     H22811  -0.742   1.703   3.556 -2.3251  1.3460 -0.3630
  910MOL0     H22812  -0.879   1.680   3.459  0.8283 -1.8915 -2.4054
  910MOL0     H22813  -0.856   1.564   3.593 -0.1480 -0.1076 -0.0951
  910MOL0     H22814  -1.099   1.618   2.961  0.2342 -1.4808  0.5364
  910MOL0     H22815  -1.344   1.639   2.918 -0.5897 -0.8817 -0.6507
  910MOL0     H22816  -1.562   1.649   2.925  3.2006 -0.9730 -1.6418
  910MOL0     H22817  -1.518   1.526   2.819  0.8594 -1.2796  0.2475
  910MOL0     H22818  -1.748   1.531   2.774 -0.0455  1.8866  0.4543
  910MOL0     H22819  -1.747   1.401   2.888 -0.0280 -0.6041 -0.6300
  910MOL0     H22820  -1.808   1.702   2.910 -1.3013 -0.9841  0.2976
  910MOL0     H22821  -1.765   1.633   3.057 -0.9135 -1.1568  1.3236
  910MOL0     H22822  -1.955   1.468   3.050  2.6122 -0.6450 -1.2879
  910MOL0     H22823  -2.007   1.633   3.045  1.5109  2.5796 -1.6375
  910MOL0     H22824  -1.988   1.475   2.794 -0.5155 -0.5741  0.2877
  910MOL0     H22825  -2.015   1.644   2.798  2.9744 -0.7098 -1.7287
  910MOL0     H22826  -2.222   1.590   2.943 -2.6256 -0.2114 -1.0598
  910MOL0     H22827  -2.233   1.529   2.782 -0.6148 -1.4148  0.0322
  910MOL0     H22828  -2.152   1.366   3.035 -2.3036 -0.7897  1.4818
  910MOL0     H22829  -2.117   1.310   2.884  1.0501  1.3978 -0.0834
  910MOL0     H22830  -2.357   1.228   2.971 -2.4547  0.5592  2.1798
  910MOL0     H22831  -2.361   1.319   2.819  1.3957 -0.0018  0.2177
  910MOL0     H22832  -1.415   1.340   3.217 -1.5094  1.8034  0.4591
  910MOL0     H22833  -1.178   1.342   3.262  1.1198 -1.3670 -1.5371
  910MOL0     H22834  -0.765   1.372   3.118 -2.8737  0.8281  0.6943
  910MOL0     H22835  -0.527   1.315   3.163  1.4184 -1.0766  1.2106
  910MOL0     H22836   0.946   2.095   2.750  0.7308 -1.2888  1.4322
  910MOL0     H22837   1.193   2.053   2.782  0.5008 -1.8761  0.2239
  910MOL0     H22838   1.557   1.805   2.589 -2.2818  1.5133  0.5393
  910MOL0     H22839   1.807   1.782   2.620  3.2126  1.7109 -0.6642
  910MOL0     H22840   2.058   2.143   2.582 -4.8887  2.7751  2.4378
  910MOL0     H22841   2.043   2.114   2.752 -2.8390 -0.7391 -0.5224
  910MOL0     H22842   2.272   2.109   2.658  0.7589 -0.1430  0.6236
  910MOL0     H22843   2.229   1.958   2.565 -0.5421 -1.5117  1.1196
  910MOL0     H22844   2.166   1.869   2.802 -0.8132  0.6502  0.7642
  910MOL0     H22845   2.240   2.018   2.874  2.6640 -0.2488  1.2489
  910MOL0     H22846   2.390   1.817   2.711 -1.3624 -0.8696  1.2205
  910MOL0     H22847   2.388   1.811   2.882  1.1050 -2.4206 -0.2706
  910MOL0     H22848   2.644   2.151   2.836 -0.8166  1.7318 -0.8118
  910MOL0     H22849   1.861   2.205   2.605 -3.2791  2.3710 -0.9777
  910MOL0     H22850   1.614   2.229   2.576  0.6751  0.3433 -0.4690
  911MOL0     O22851   0.856   4.372   1.213  0.8412 -0.8958 -0.3861
  911MOL0     C22852   0.920   4.423   1.119 -0.6563  1.9366  0.1982
  911MOL0     O22853   0.878   4.515   1.028 -0.4004  0.3801 -0.1216
  911MOL0     C22854   0.748   4.558   1.009 -0.4072  0.2268  0.6119
  911MOL0     C22855   0.642   4.561   1.099  0.1042  0.4650 -0.1646
  911MOL0     C22856   0.514   4.605   1.069 -0.5879  1.5960  0.5628
  911MOL0     C22857   0.488   4.654   0.941  1.0457  0.5468 -0.4683
  911MOL0     O22858   0.361   4.697   0.924  0.2459 -0.4053 -0.0479
  911MOL0     C22859   0.312   4.682   0.790  0.5885 -0.3983  0.2434
  911MOL0     C22860   0.164   4.686   0.788 -0.1003  0.3211  0.2413
  911MOL0     C22861   0.111   4.807   0.868 -0.6297 -0.7373 -0.0080
  911MOL0     C22862  -0.045   4.812   0.861  0.8004 -0.2031  0.5996
  911MOL0     C22863  -0.102   4.907   0.967  0.2060 -0.8419  0.0225
  911MOL0     C22864  -0.095   5.047   0.919 -0.0916 -0.2469 -0.3356
  911MOL0     C22865  -0.129   5.159   1.011 -0.1911  0.6230  0.0523
  911MOL0     C22866  -0.279   5.146   1.046  0.2540  0.3044 -0.0280
  911MOL0     N22867  -0.308   5.247   1.152  0.3569 -0.5110 -0.6183
  911MOL0     C22868  -0.388   5.223   1.257  0.1612 -0.5987  0.3554
  911MOL0     C22869  -0.392   5.339   1.333 -1.3086  0.0372  0.6811
  911MOL0     C22870  -0.461   5.361   1.467  0.3631 -0.9591  0.0032
  911MOL0     C22871  -0.605   5.401   1.427  0.5715  0.3532  0.0883
  911MOL0     C22872  -0.695   5.404   1.562  0.7557 -0.9406  0.2497
  911MOL0     C22873  -0.831   5.464   1.529  0.5800  0.6159  0.1659
  911MOL0     O22874  -0.925   5.376   1.458  0.3769 -0.5185  0.3128
  911MOL0     C22875  -1.065   5.404   1.453  1.0191  0.1077  0.9384
  911MOL0     C22876  -1.154   5.310   1.411 -0.0589 -0.4206 -0.0576
  911MOL0     C22877  -1.296   5.333   1.395  0.0898  0.4173  0.3508
  911MOL0     C22878  -1.373   5.213   1.360  0.0507  0.8680 -0.6908
  911MOL0     C22879  -1.343   5.455   1.432 -0.2494 -0.2486 -0.5922
  911MOL0     C22880  -1.486   5.503   1.430 -0.0111  0.3305 -0.6482
  911MOL0     O22881  -1.576   5.425   1.367  0.3446  0.8087  0.5830
  911MOL0     C22882  -1.710   5.441   1.381  0.7053  0.4624 -0.0688
  911MOL0     C22883  -1.793   5.341   1.425  0.6105 -0.2412 -0.2037
  911MOL0     C22884  -1.927   5.355   1.433 -1.3422 -0.1634 -0.7796
  911MOL0     C22885  -1.995   5.470   1.407 -0.2278 -0.0710  0.1573
  911MOL0     O22886  -2.128   5.496   1.428  0.2513 -0.6270 -0.4309
  911MOL0     C22887  -2.219   5.384   1.448  0.1906  0.0296 -0.2157
  911MOL0     C22888  -2.346   5.442   1.492  0.5144 -0.3998 -0.1234
  911MOL0     C22889  -2.423   5.517   1.382 -1.1726  0.4371  0.4149
  911MOL0     C22890  -2.556   5.560   1.441  0.2890  0.4365  0.7123
  911MOL0     C22891  -2.640   5.631   1.340  0.1905 -0.7169  0.4556
  911MOL0     C22892  -2.782   5.662   1.395  0.2814  0.8527  0.6615
  911MOL0     C22893  -2.862   5.780   1.333 -0.5352  0.5416 -0.5097
  911MOL0     C22894  -3.003   5.798   1.401  0.8533  0.4452  0.0300
  911MOL0    Cl22895  -3.115   5.907   1.294  0.4851 -0.6137  0.0963
  911MOL0     C22896  -1.918   5.571   1.342 -0.5442 -0.3979 -0.3962
  911MOL0     C22897  -1.778   5.559   1.339 -0.3428  0.9243 -0.3018
  911MOL0     O22898  -1.519   5.610   1.485  0.1891 -0.1825 -0.1653
  911MOL0     C22899  -1.249   5.552   1.480  0.2433 -0.4644  0.1689
  911MOL0     C22900  -1.114   5.532   1.477 -0.1409 -0.6024  0.0815
  911MOL0     N22901  -0.304   5.426   1.266 -0.0962 -0.0664 -0.9030
  911MOL0     N22902  -0.258   5.375   1.159 -0.4457  0.3323 -0.9785
  911MOL0     C22903   0.593   4.653   0.844 -0.1308  0.0116  0.6392
  911MOL0     C22904   0.716   4.602   0.878 -0.2346  1.0353  0.1619
  911MOL0     C22905   1.063   4.373   1.115 -1.0730 -1.3153 -0.5302
  911MOL0     C22906   1.124   4.311   1.224  0.6117  0.1643 -0.3090
  911MOL0     C22907   1.253   4.260   1.215  0.5353 -0.2965  0.4111
  911MOL0     C22908   1.321   4.278   1.091  0.1921  0.3101 -0.4187
  911MOL0     O22909   1.447   4.224   1.069 -0.1727  0.1204 -0.1929
  911MOL0     C22910   1.517   4.152   1.164  0.2270  0.2778 -0.4233
  911MOL0     C22911   1.666   4.139   1.122  0.0118  0.1459 -0.5803
  911MOL0     C22912   1.682   4.099   0.978 -0.0182 -0.1620 -1.2374
  911MOL0     C22913   1.822   4.049   0.941 -0.5545 -0.6004 -0.2825
  911MOL0     C22914   1.808   4.029   0.794 -0.7063  0.6544  0.4452
  911MOL0     C22915   1.791   4.021   0.677 -1.3536  0.3875  0.5610
  911MOL0     C22916   1.253   4.340   0.981  0.0003  0.1536 -1.3987
  911MOL0     C22917   1.132   4.394   0.990  0.5482  0.0618 -0.6434
  911MOL0     H22918   0.648   4.530   1.202 -2.3150 -2.2247 -0.6893
  911MOL0     H22919   0.442   4.612   1.150 -0.7965  0.3620  0.4992
  911MOL0     H22920   0.350   4.770   0.738 -0.8327  1.0911  1.5908
  911MOL0     H22921   0.340   4.584   0.750 -2.6075 -0.9679 -0.8563
  911MOL0     H22922   0.140   4.704   0.683  0.7683  0.4237  0.0570
  911MOL0     H22923   0.124   4.589   0.820 -2.4267  0.7002 -1.2470
  911MOL0     H22924   0.141   4.801   0.973  2.7928 -2.5217 -0.9464
  911MOL0     H22925   0.163   4.896   0.833 -3.3963  1.4619  1.0305
  911MOL0     H22926  -0.094   4.825   0.764 -1.2677  0.1269  1.6361
  911MOL0     H22927  -0.071   4.714   0.901 -0.2516 -0.3550 -0.4249
  911MOL0     H22928  -0.207   4.878   0.977  0.6382 -3.5529 -2.0179
  911MOL0     H22929  -0.062   4.883   1.066 -4.0262  1.5409  2.6086
  911MOL0     H22930   0.011   5.057   0.892 -0.1902 -1.4255 -1.2160
  911MOL0     H22931  -0.158   5.051   0.830 -0.6899 -1.0374  0.0433
  911MOL0     H22932  -0.069   5.146   1.101 -0.2142  1.6199  0.2180
  911MOL0     H22933  -0.106   5.260   0.975  1.1739  1.1579  2.2378
  911MOL0     H22934  -0.299   5.048   1.090 -0.8760  1.2368  1.6422
  911MOL0     H22935  -0.346   5.158   0.961  0.5292 -0.7174 -0.3994
  911MOL0     H22936  -0.448   5.136   1.282  0.4433 -0.7221  0.6077
  911MOL0     H22937  -0.465   5.271   1.530 -2.4797 -1.5645 -0.8955
  911MOL0     H22938  -0.419   5.444   1.525 -1.7124  0.6561 -0.6605
  911MOL0     H22939  -0.648   5.319   1.370  3.5578  0.1334 -2.0204
  911MOL0     H22940  -0.612   5.497   1.375 -0.3802 -0.7117 -1.8329
  911MOL0     H22941  -0.636   5.464   1.631  1.8203  0.4929 -1.8159
  911MOL0     H22942  -0.719   5.304   1.601 -0.5402 -1.7643 -2.4042
  911MOL0     H22943  -0.816   5.554   1.469  0.0143  0.5878 -0.0183
  911MOL0     H22944  -0.874   5.494   1.625  2.0604 -0.3192  1.1682
  911MOL0     H22945  -1.114   5.217   1.372  0.0220 -1.0192  1.4011
  911MOL0     H22946  -1.412   5.210   1.258 -1.0028  1.5911 -0.3267
  911MOL0     H22947  -1.315   5.121   1.365  0.0129  0.6149 -3.3101
  911MOL0     H22948  -1.458   5.211   1.429  1.0468  1.6789  0.5960
  911MOL0     H22949  -1.750   5.248   1.461 -0.1438 -0.3930  0.3346
  911MOL0     H22950  -1.978   5.265   1.466  1.0121 -1.0947  0.5305
  911MOL0     H22951  -2.219   5.332   1.352  0.4680 -0.1405 -0.1238
  911MOL0     H22952  -2.194   5.315   1.529 -1.7329  0.0569  0.4420
  911MOL0     H22953  -2.407   5.357   1.524  1.7033 -1.7459 -1.2636
  911MOL0     H22954  -2.341   5.512   1.575 -1.1452  0.0435 -0.3414
  911MOL0     H22955  -2.445   5.457   1.293 -0.9858  0.0835  0.6059
  911MOL0     H22956  -2.358   5.598   1.347 -3.2943  1.4698 -1.3685
  911MOL0     H22957  -2.614   5.471   1.468  0.0140  0.5707  0.5585
  911MOL0     H22958  -2.545   5.617   1.534 -1.0130  0.1508  1.0549
  911MOL0     H22959  -2.651   5.566   1.252  1.6857  1.0038 -1.0892
  911MOL0     H22960  -2.592   5.727   1.319  0.3530 -0.8257  0.3280
  911MOL0     H22961  -2.840   5.569   1.392  0.5778  0.6785  0.1545
  911MOL0     H22962  -2.766   5.681   1.501  1.9627  1.6050  0.3094
  911MOL0     H22963  -2.867   5.766   1.225 -1.9359 -3.6889 -0.0886
  911MOL0     H22964  -2.802   5.868   1.359  1.6213 -1.0647  0.3737
  911MOL0     H22965  -2.983   5.849   1.496  2.1475 -0.0403  0.0488
  911MOL0     H22966  -3.056   5.704   1.420 -1.0698  1.4311 -0.2577
  911MOL0     H22967  -1.953   5.669   1.312 -2.2242 -0.2052  1.9506
  911MOL0     H22968  -1.717   5.642   1.305  0.4482 -0.6678 -3.0023
  911MOL0     H22969  -1.279   5.648   1.523  2.5019 -1.0318  3.3911
  911MOL0     H22970  -1.047   5.614   1.501  3.4081 -1.8856 -4.1875
  911MOL0     H22971   0.586   4.680   0.739 -1.7746  0.8825  0.9431
  911MOL0     H22972   0.780   4.600   0.790 -1.4790 -1.5692 -0.8110
  911MOL0     H22973   1.066   4.293   1.315  0.1701  2.0672 -0.1831
  911MOL0     H22974   1.303   4.217   1.302  0.3396  1.8690  1.6908
  911MOL0     H22975   1.507   4.200   1.262 -0.2078 -2.6512  1.0913
  911MOL0     H22976   1.480   4.049   1.164  1.2030 -0.1683 -3.3631
  911MOL0     H22977   1.716   4.068   1.190  0.8310 -0.0303 -1.3539
  911MOL0     H22978   1.716   4.235   1.136  1.0512 -0.4476 -0.0773
  911MOL0     H22979   1.639   4.175   0.913 -0.2259  1.0698  0.2845
  911MOL0     H22980   1.623   4.010   0.956 -0.5580 -0.2508  0.4404
  911MOL0     H22981   1.842   3.954   0.991  0.1297  0.1503  0.9495
  911MOL0     H22982   1.897   4.126   0.963 -1.4681 -0.3902  2.4320
  911MOL0     H22983   1.799   4.026   0.570 -2.1348 -0.3903  0.4482
  911MOL0     H22984   1.307   4.353   0.888 -1.1292  0.0617 -2.0748
  911MOL0     H22985   1.084   4.428   0.899  0.5398  2.5197  0.1921
  912MOL0     O22986  11.168   4.888   4.441 -0.3071 -0.1962  0.1280
  912MOL0     C22987  11.179   4.847   4.325 -0.0245 -0.3816  0.0094
  912MOL0     O22988  11.086   4.853   4.228  0.1193  0.4060  0.4021
  912MOL0     C22989  10.960   4.902   4.250 -0.7261 -0.8975  0.7725
  912MOL0     C22990  10.896   4.899   4.371  0.1619 -0.5371  0.0363
  912MOL0     C22991  10.766   4.958   4.381 -0.4318 -0.0119 -0.0777
  912MOL0     C22992  10.709   5.037   4.281  0.4750  0.0850 -1.0211
  912MOL0     O22993  10.595   5.120   4.285  0.2746 -0.9583  0.1047
  912MOL0     C22994  10.516   5.109   4.400 -0.2143 -0.1636 -0.5876
  912MOL0     C22995  10.392   5.208   4.398 -0.3824 -0.1050 -0.5251
  912MOL0     C22996  10.293   5.171   4.290  0.5651  0.4214  0.6291
  912MOL0     C22997  10.168   5.266   4.312  0.3109  0.4176  0.1388
  912MOL0     C22998  10.046   5.219   4.229  0.0203 -0.2494 -0.4486
  912MOL0     C22999   9.954   5.345   4.194  0.0349 -0.1636  0.3365
  912MOL0     C23000   9.817   5.301   4.139 -0.5398 -0.1773 -0.5163
  912MOL0     C23001   9.739   5.424   4.091  0.1155  0.9238  0.1603
  912MOL0     N23002   9.624   5.378   4.019 -0.4251 -0.6350 -0.2859
  912MOL0     C23003   9.599   5.396   3.885 -0.1556  0.9976  0.2672
  912MOL0     C23004   9.468   5.383   3.862  0.2434  0.1225  0.4364
  912MOL0     C23005   9.386   5.392   3.732  0.6445  0.3228 -0.0805
  912MOL0     C23006   9.278   5.498   3.747 -0.3943 -0.1343 -0.5277
  912MOL0     C23007   9.187   5.539   3.632 -0.6608 -0.3643  0.2113
  912MOL0     C23008   9.109   5.431   3.558  0.2921 -0.3196 -0.0058
  912MOL0     O23009   8.996   5.380   3.636  0.3423  0.1206 -0.2341
  912MOL0     C23010   8.925   5.280   3.586  0.1264 -0.2047  0.4137
  912MOL0     C23011   8.942   5.228   3.460  0.0069  0.4454  0.6295
  912MOL0     C23012   8.851   5.126   3.406  0.5168 -0.5105  0.0912
  912MOL0     C23013   8.866   5.079   3.259  0.1192 -0.2832 -0.5283
  912MOL0     C23014   8.761   5.066   3.495  0.0473  0.5038  0.0791
  912MOL0     C23015   8.688   4.940   3.461 -0.2692  0.5317  1.5741
  912MOL0     O23016   8.629   4.927   3.333 -0.8081 -0.0662  0.0966
  912MOL0     C23017   8.609   4.791   3.307 -0.3946 -0.4101 -0.3095
  912MOL0     C23018   8.715   4.710   3.272  0.0989 -0.5133  0.5122
  912MOL0     C23019   8.709   4.575   3.243 -0.4108 -0.3820  0.3181
  912MOL0     C23020   8.585   4.514   3.258  0.1896  0.1409 -0.5096
  912MOL0     O23021   8.553   4.380   3.237 -0.3669 -0.0873  0.2103
  912MOL0     C23022   8.620   4.301   3.133  0.2748  0.6053 -0.1793
  912MOL0     C23023   8.635   4.156   3.193  0.4781 -0.7546  0.0912
  912MOL0     C23024   8.771   4.135   3.250  0.8512  0.3057 -0.6356
  912MOL0     C23025   8.770   4.013   3.342 -0.2725 -0.2311  0.1771
  912MOL0     C23026   8.916   3.979   3.371 -0.1865 -0.3550 -0.0932
  912MOL0     C23027   8.937   3.843   3.438  0.2440 -0.2413  0.1540
  912MOL0     C23028   9.089   3.832   3.481  0.0173  0.6495  0.1045
  912MOL0     C23029   9.133   3.687   3.486  0.1533 -0.4261  0.1351
  912MOL0    Cl23030   9.078   3.604   3.634 -0.1868 -0.0744  0.0044
  912MOL0     C23031   8.474   4.593   3.304  0.4390  1.2543  1.3633
  912MOL0     C23032   8.483   4.732   3.321  0.2998  0.6870 -0.6712
  912MOL0     O23033   8.666   4.863   3.551 -0.7143  0.5029  0.3474
  912MOL0     C23034   8.752   5.104   3.626  0.2685  0.1070 -0.1754
  912MOL0     C23035   8.829   5.213   3.662  0.6582  0.7398  0.1841
  912MOL0     N23036   9.412   5.342   3.990 -0.8300  0.2645  0.3826
  912MOL0     N23037   9.505   5.345   4.076  0.1785 -1.3614 -0.3093
  912MOL0     C23038  10.778   5.036   4.161 -0.9393  0.4755 -0.2870
  912MOL0     C23039  10.903   4.974   4.141  0.2090  0.1730  0.0553
  912MOL0     C23040  11.306   4.767   4.301  0.9295 -0.5477  1.0829
  912MOL0     C23041  11.354   4.764   4.162 -0.9970 -0.2224 -1.1545
  912MOL0     C23042  11.475   4.698   4.137  0.0663  0.2625  0.0424
  912MOL0     C23043  11.555   4.632   4.233  0.3149 -0.8619 -0.2349
  912MOL0     O23044  11.670   4.559   4.203  0.2351 -0.0359 -0.0503
  912MOL0     C23045  11.776   4.624   4.120  0.2609  0.8606  0.5314
  912MOL0     C23046  11.899   4.632   4.214  0.1939 -1.0282 -0.3809
  912MOL0     C23047  12.018   4.673   4.125  0.5703 -0.0638 -0.8347
  912MOL0     C23048  12.128   4.746   4.206  0.1464  0.1739  0.4063
  912MOL0     C23049  12.252   4.742   4.127 -0.0929  0.2890  0.1537
  912MOL0     C23050  12.361   4.732   4.080  0.2850 -0.3360 -0.7199
  912MOL0     C23051  11.504   4.639   4.370  0.0719  0.0453 -0.0856
  912MOL0     C23052  11.383   4.703   4.403 -0.0359  0.2570 -0.3521
  912MOL0     H23053  10.930   4.847   4.460  1.8590  0.0048 -0.2504
  912MOL0     H23054  10.730   4.959   4.483 -3.4093 -0.1929 -1.0277
  912MOL0     H23055  10.490   5.006   4.426  1.2313 -0.1591  1.0403
  912MOL0     H23056  10.573   5.147   4.485 -1.5317  0.1295  0.1992
  912MOL0     H23057  10.338   5.204   4.493 -3.7693 -1.7322 -2.3577
  912MOL0     H23058  10.433   5.309   4.387 -0.0144  0.2899  3.2190
  912MOL0     H23059  10.335   5.170   4.189  1.9516  0.9855  1.1752
  912MOL0     H23060  10.265   5.068   4.312  5.0845 -1.2665 -0.3468
  912MOL0     H23061  10.145   5.269   4.419 -0.5995 -1.7886  0.0712
  912MOL0     H23062  10.192   5.367   4.278 -1.0770  0.5242 -0.5790
  912MOL0     H23063  10.074   5.167   4.137 -2.0622  1.6188 -2.2643
  912MOL0     H23064   9.996   5.146   4.294  1.4923  2.9399  4.9263
  912MOL0     H23065   9.941   5.403   4.286  1.4777  1.4193 -0.4184
  912MOL0     H23066   9.998   5.416   4.124 -0.5602  1.3841  1.4598
  912MOL0     H23067   9.826   5.232   4.055 -1.0738 -0.3737 -0.4186
  912MOL0     H23068   9.750   5.262   4.216  0.9663  0.0858  0.9920
  912MOL0     H23069   9.791   5.487   4.018 -0.4712 -0.4285 -1.4696
  912MOL0     H23070   9.713   5.479   4.182 -0.6433 -1.1297  1.2419
  912MOL0     H23071   9.677   5.416   3.813  1.5146  0.8838  1.9579
  912MOL0     H23072   9.449   5.410   3.645  3.0019 -0.7913  1.2739
  912MOL0     H23073   9.329   5.300   3.716 -2.9729  2.4675 -0.5446
  912MOL0     H23074   9.335   5.588   3.772  1.7272 -1.8722  1.3077
  912MOL0     H23075   9.225   5.477   3.841 -1.0662 -0.9316 -1.0592
  912MOL0     H23076   9.244   5.586   3.551 -1.0337 -0.0319  0.1386
  912MOL0     H23077   9.129   5.626   3.664 -0.8605 -0.4114 -0.0246
  912MOL0     H23078   9.170   5.348   3.522 -0.3639 -0.5299 -0.6733
  912MOL0     H23079   9.070   5.469   3.463 -0.0689 -0.7391 -0.0287
  912MOL0     H23080   9.024   5.258   3.396  0.1175 -2.4790 -0.7822
  912MOL0     H23081   8.770   5.077   3.207 -1.2216  1.6539  1.6877
  912MOL0     H23082   8.928   5.149   3.203 -0.0858  0.3775  0.0498
  912MOL0     H23083   8.914   4.980   3.254  1.2391  0.1975  0.2504
  912MOL0     H23084   8.813   4.755   3.267  0.6965 -1.8933 -2.2787
  912MOL0     H23085   8.796   4.515   3.216  0.4308  1.4105 -1.2040
  912MOL0     H23086   8.566   4.283   3.040  3.3670 -1.3862 -1.7546
  912MOL0     H23087   8.721   4.333   3.111  2.0099 -3.2458  1.1828
  912MOL0     H23088   8.554   4.134   3.263 -1.3088 -1.5204 -2.0708
  912MOL0     H23089   8.624   4.085   3.110  2.0811 -0.5081 -0.3663
  912MOL0     H23090   8.780   4.212   3.328 -2.7824  1.3043 -1.0366
  912MOL0     H23091   8.846   4.140   3.171 -0.0870  0.5842 -1.5236
  912MOL0     H23092   8.716   4.024   3.436 -1.2930  0.2545 -0.4485
  912MOL0     H23093   8.744   3.923   3.286  2.3557 -0.8109 -0.2394
  912MOL0     H23094   8.953   4.053   3.443 -0.9091 -0.4535  0.3842
  912MOL0     H23095   8.961   3.976   3.272  0.2286  1.8120 -0.0235
  912MOL0     H23096   8.866   3.832   3.520 -1.4915 -0.4453 -1.3156
  912MOL0     H23097   8.913   3.763   3.368  1.8339 -1.7877  1.2755
  912MOL0     H23098   9.120   3.867   3.580 -1.7734 -0.6616  1.2007
  912MOL0     H23099   9.153   3.876   3.404  1.3768 -1.1076  0.1640
  912MOL0     H23100   9.242   3.686   3.487  0.1523 -0.5373  1.1615
  912MOL0     H23101   9.083   3.638   3.402 -0.1979  0.9796 -0.5025
  912MOL0     H23102   8.381   4.544   3.332  1.9989 -2.2826  0.8813
  912MOL0     H23103   8.400   4.792   3.357  1.2164  2.1018 -0.8408
  912MOL0     H23104   8.679   5.055   3.689 -0.0111 -4.1018 -3.3385
  912MOL0     H23105   8.812   5.250   3.763  4.9266  0.9846  1.0129
  912MOL0     H23106  10.729   5.085   4.078 -1.5874  0.3804  0.0358
  912MOL0     H23107  10.951   4.988   4.045  0.4994  0.8761  0.2975
  912MOL0     H23108  11.295   4.813   4.085  0.1356  0.7231 -1.4538
  912MOL0     H23109  11.496   4.685   4.031  1.4831  1.2220  0.1889
  912MOL0     H23110  11.802   4.558   4.036 -2.9356  0.7703 -0.5311
  912MOL0     H23111  11.751   4.720   4.074 -0.3463  0.1189 -0.7616
  912MOL0     H23112  11.929   4.545   4.273 -2.7856 -0.2205  2.6978
  912MOL0     H23113  11.885   4.716   4.284  1.4144  1.6400 -3.0923
  912MOL0     H23114  11.985   4.746   4.050  1.8493  3.7163  1.9468
  912MOL0     H23115  12.048   4.584   4.069  0.7640 -1.0842  0.8126
  912MOL0     H23116  12.139   4.696   4.302  1.3889  1.1790  0.8120
  912MOL0     H23117  12.103   4.852   4.223 -1.3186 -0.2206  0.8579
  912MOL0     H23118  12.467   4.723   4.065  0.5006 -1.5164  1.1239
  912MOL0     H23119  11.564   4.594   4.449  0.1020 -0.0861 -0.1839
  912MOL0     H23120  11.350   4.716   4.505 -0.2372 -0.8305 -0.2720
  913MOL0     O23121   9.148   8.516   9.874 -0.2172  0.4370  0.0665
  913MOL0     C23122   9.258   8.521   9.933 -0.3934  0.9193  0.1171
  913MOL0     O23123   9.277   8.480  10.064 -0.7050 -0.6381  0.2388
  913MOL0     C23124   9.191   8.404  10.134  1.2136 -0.1990  0.3167
  913MOL0     C23125   9.199   8.418  10.273 -0.0612  0.2948 -0.8861
  913MOL0     C23126   9.119   8.347  10.364 -0.2584 -0.7799  0.1399
  913MOL0     C23127   9.047   8.241  10.310  0.3558 -0.1362  0.3081
  913MOL0     O23128   8.970   8.154  10.389 -0.3795 -0.5414 -0.3569
  913MOL0     C23129   8.832   8.182  10.387  0.6102  0.2288 -0.0327
  913MOL0     C23130   8.752   8.073  10.301  1.1481  0.4273 -0.7558
  913MOL0     C23131   8.601   8.093  10.324  0.2784 -0.6157  0.0694
  913MOL0     C23132   8.511   8.007  10.244 -0.0328 -0.3166 -0.0730
  913MOL0     C23133   8.364   8.026  10.275 -0.0247  0.5120  0.4319
  913MOL0     C23134   8.260   8.015  10.160 -0.2008  0.0998 -0.5117
  913MOL0     C23135   8.284   8.128  10.052  0.4261  0.0857  1.0095
  913MOL0     C23136   8.162   8.133   9.961 -0.2048 -0.1780 -0.1733
  913MOL0     N23137   8.161   8.230   9.850  0.5948  0.0954 -0.1456
  913MOL0     C23138   8.213   8.358   9.872  0.5496  0.4686 -0.0098
  913MOL0     C23139   8.200   8.422   9.756 -0.3032 -0.4203 -0.2094
  913MOL0     C23140   8.238   8.567   9.734 -0.2376 -0.6191 -0.5280
  913MOL0     C23141   8.386   8.595   9.732  0.2859  0.7243  0.2411
  913MOL0     C23142   8.418   8.742   9.749  0.7216 -0.9152 -0.5997
  913MOL0     C23143   8.568   8.763   9.762  0.3963 -0.2311 -0.3949
  913MOL0     O23144   8.602   8.872   9.679 -0.1509 -0.8610 -0.0040
  913MOL0     C23145   8.725   8.932   9.704  0.0171  0.3891 -0.6136
  913MOL0     C23146   8.829   8.878   9.777 -0.2447  0.2840 -0.0131
  913MOL0     C23147   8.959   8.939   9.782 -0.1528  0.0190  0.9928
  913MOL0     C23148   9.072   8.869   9.864 -0.0229 -0.6000  0.1712
  913MOL0     C23149   8.980   9.066   9.726 -0.4023 -0.7350 -0.0654
  913MOL0     C23150   9.100   9.161   9.742  0.8585  1.0633  0.0472
  913MOL0     O23151   9.219   9.106   9.782  0.2762 -0.0386  0.3311
  913MOL0     C23152   9.342   9.167   9.787  0.2627 -0.5402  0.2662
  913MOL0     C23153   9.382   9.274   9.701 -0.8610  0.6277  0.3426
  913MOL0     C23154   9.500   9.354   9.729  0.6326 -0.0639  0.4182
  913MOL0     C23155   9.584   9.317   9.831  0.7039 -0.2234 -0.2383
  913MOL0     O23156   9.694   9.393   9.843 -0.0100 -0.1422 -0.3446
  913MOL0     C23157   9.783   9.377   9.961  0.3940  0.0365  0.4879
  913MOL0     C23158   9.896   9.488   9.964 -0.8863 -0.7749  0.4725
  913MOL0     C23159  10.005   9.460   9.865  0.2554  0.0960 -0.2518
  913MOL0     C23160  10.128   9.553   9.880 -0.0507 -0.0698  0.5529
  913MOL0     C23161  10.240   9.519   9.785 -0.2223  0.6352  0.2167
  913MOL0     C23162  10.327   9.398   9.832  0.3503  1.2009 -0.4147
  913MOL0     C23163  10.429   9.357   9.718 -0.4607 -0.1579 -0.3052
  913MOL0     C23164  10.493   9.220   9.729  0.6922  1.0565  0.1540
  913MOL0    Cl23165  10.593   9.220   9.879 -0.1141  0.4444 -0.4674
  913MOL0     C23166   9.552   9.202   9.910 -0.5167  0.3956  0.5817
  913MOL0     C23167   9.435   9.129   9.881  0.5543  0.3854 -0.8346
  913MOL0     O23168   9.086   9.284   9.709 -0.0067  0.5527  0.3154
  913MOL0     C23169   8.868   9.126   9.649 -0.6347  0.9886 -0.0624
  913MOL0     C23170   8.749   9.049   9.645  0.3141 -0.5899  0.1536
  913MOL0     N23171   8.144   8.337   9.662 -0.1865 -0.6170 -0.7615
  913MOL0     N23172   8.125   8.225   9.718  0.7224  0.3839  0.3307
  913MOL0     C23173   9.043   8.227  10.169  0.2181  0.3008  0.0656
  913MOL0     C23174   9.111   8.307  10.086 -0.3290 -1.4702  0.1095
  913MOL0     C23175   9.380   8.587   9.864  0.5306 -0.7532 -0.4704
  913MOL0     C23176   9.503   8.604   9.932 -0.7164  0.0072 -0.4636
  913MOL0     C23177   9.612   8.678   9.877  0.2295 -0.6344 -0.5851
  913MOL0     C23178   9.595   8.741   9.761 -0.0127 -0.6988  0.9283
  913MOL0     O23179   9.707   8.809   9.711  1.3164 -0.0984 -0.6542
  913MOL0     C23180   9.707   8.960   9.730  1.0490 -0.3624  0.1856
  913MOL0     C23181   9.848   9.010   9.693 -0.0551 -0.9181  1.2060
  913MOL0     C23182   9.962   8.972   9.785 -0.0286  0.2871 -0.5110
  913MOL0     C23183  10.104   9.022   9.751  0.5435 -0.6988  0.4890
  913MOL0     C23184  10.204   8.999   9.851  1.0640 -0.5695  0.1246
  913MOL0     C23185  10.280   8.986   9.946 -0.1385  0.4297 -0.0159
  913MOL0     C23186   9.478   8.733   9.691  0.4757  0.3382 -0.2380
  913MOL0     C23187   9.372   8.650   9.737  0.1292  1.1543 -0.2127
  913MOL0     H23188   9.280   8.485  10.301  0.8167 -0.7038 -1.0189
  913MOL0     H23189   9.119   8.364  10.471  0.2923 -1.2825  0.2227
  913MOL0     H23190   8.793   8.170  10.489  1.2415  1.5581  0.3879
  913MOL0     H23191   8.817   8.286  10.358  3.3010  0.5693 -0.4634
  913MOL0     H23192   8.785   8.073  10.197  1.7232  0.8895 -0.5724
  913MOL0     H23193   8.772   7.973  10.341 -1.1924 -1.0021 -2.8491
  913MOL0     H23194   8.574   8.082  10.429 -2.9062 -2.9847 -0.8293
  913MOL0     H23195   8.568   8.191  10.290 -1.1153 -1.7169 -1.9848
  913MOL0     H23196   8.528   8.022  10.137  1.4393 -0.3222  0.1408
  913MOL0     H23197   8.543   7.905  10.270  1.0616  0.0405  0.0491
  913MOL0     H23198   8.345   7.952  10.353 -1.0784  1.7045  1.3493
  913MOL0     H23199   8.359   8.123  10.325  2.8840  0.2968  1.3179
  913MOL0     H23200   8.278   7.923  10.102  2.1207  1.7960 -2.7431
  913MOL0     H23201   8.160   8.028  10.201 -0.7812 -3.3748 -0.4599
  913MOL0     H23202   8.308   8.222  10.102 -0.1891  0.2916  0.9333
  913MOL0     H23203   8.369   8.100   9.989  0.3903  1.9909  0.0453
  913MOL0     H23204   8.070   8.153  10.016 -1.3054 -1.7179 -1.3809
  913MOL0     H23205   8.141   8.035   9.916 -0.0181  0.4232 -1.6204
  913MOL0     H23206   8.239   8.412   9.963  1.0401 -1.3476  0.9649
  913MOL0     H23207   8.188   8.610   9.646  0.5827 -0.5124 -0.9430
  913MOL0     H23208   8.194   8.616   9.821  0.4785  1.1675 -1.1331
  913MOL0     H23209   8.434   8.566   9.638  3.4551 -1.8068  2.4137
  913MOL0     H23210   8.427   8.531   9.810 -1.4314 -0.5146  0.1992
  913MOL0     H23211   8.378   8.781   9.843 -1.4221  0.5711 -2.0272
  913MOL0     H23212   8.367   8.804   9.674  0.0338  2.5268  2.4374
  913MOL0     H23213   8.611   8.672   9.719  0.0607 -1.5814  1.9485
  913MOL0     H23214   8.592   8.778   9.868 -1.2556  1.4834 -0.2186
  913MOL0     H23215   8.806   8.779   9.814 -2.7059  0.0201 -2.0061
  913MOL0     H23216   9.039   8.773   9.905  1.4194 -0.9916  0.4688
  913MOL0     H23217   9.155   8.866   9.793 -0.9722  2.6903 -1.2944
  913MOL0     H23218   9.104   8.933   9.947 -0.3676  0.3493 -0.4101
  913MOL0     H23219   9.310   9.305   9.626 -0.3704  2.4465  0.5967
  913MOL0     H23220   9.520   9.451   9.684 -0.1652 -0.1405 -0.1352
  913MOL0     H23221   9.732   9.389  10.056  1.9787 -0.3142  1.4208
  913MOL0     H23222   9.826   9.276   9.957  1.9082  0.6822 -1.8586
  913MOL0     H23223   9.856   9.588   9.949 -0.7775 -0.6583  0.9422
  913MOL0     H23224   9.937   9.484  10.065  1.1348  0.4727 -0.2442
  913MOL0     H23225   9.960   9.493   9.771 -0.6920  0.2712  0.2589
  913MOL0     H23226  10.020   9.352   9.860  2.1307  0.1635  2.0778
  913MOL0     H23227  10.100   9.657   9.864  1.0166  0.2576  0.7854
  913MOL0     H23228  10.168   9.556   9.981  0.4302 -3.0115  0.5409
  913MOL0     H23229  10.305   9.601   9.754 -1.1582  1.1012 -0.5511
  913MOL0     H23230  10.190   9.489   9.693 -0.8508  1.6216  0.2191
  913MOL0     H23231  10.377   9.413   9.929 -1.4896  1.3393  0.5523
  913MOL0     H23232  10.271   9.305   9.833 -0.6308  1.7741  1.1143
  913MOL0     H23233  10.506   9.433   9.701  1.7118 -1.9055  1.1251
  913MOL0     H23234  10.367   9.348   9.629 -2.3540  1.6722  0.7275
  913MOL0     H23235  10.548   9.207   9.635 -1.1045  0.8432 -0.8966
  913MOL0     H23236  10.421   9.138   9.720  1.2104  0.6432 -0.3685
  913MOL0     H23237   9.617   9.165   9.989 -0.2905 -2.8663 -0.9653
  913MOL0     H23238   9.399   9.051   9.946  0.3816  0.4302 -0.8770
  913MOL0     H23239   8.870   9.221   9.597  0.6228  0.6706 -0.6070
  913MOL0     H23240   8.668   9.087   9.585  1.6389  1.0362 -0.6911
  913MOL0     H23241   8.979   8.158  10.115  0.5896 -1.0642  1.3240
  913MOL0     H23242   9.112   8.286   9.980 -2.2248 -2.6252  0.2714
  913MOL0     H23243   9.529   8.562  10.028  1.3651 -1.4097 -1.5795
  913MOL0     H23244   9.707   8.669   9.929  0.3536  2.5893 -0.0418
  913MOL0     H23245   9.630   9.006   9.667  1.6065 -2.4902 -2.1760
  913MOL0     H23246   9.674   8.988   9.831 -2.0138  0.9402 -1.0488
  913MOL0     H23247   9.836   9.119   9.689 -0.3025 -0.9851 -0.6777
  913MOL0     H23248   9.872   8.976   9.592 -2.6305 -0.0209  0.2077
  913MOL0     H23249   9.964   8.863   9.795  2.2121  0.2303 -1.0662
  913MOL0     H23250   9.941   9.011   9.885 -2.8199 -0.5538 -0.6853
  913MOL0     H23251  10.092   9.129   9.731 -1.2648 -1.2621 -1.9445
  913MOL0     H23252  10.133   8.975   9.656 -2.9851  0.4880 -1.3809
  913MOL0     H23253  10.354   8.960  10.019 -1.8817 -2.1424  0.9786
  913MOL0     H23254   9.461   8.768   9.590 -2.1925 -2.2284 -0.8135
  913MOL0     H23255   9.285   8.630   9.675 -1.2341  0.3413  1.8640
  914MOL0     O23256   5.020   8.485   6.935 -0.7386 -0.0157  0.4263
  914MOL0     C23257   5.036   8.606   6.917 -0.6455 -0.1801  0.2100
  914MOL0     O23258   4.943   8.707   6.933 -0.1675  0.2832  0.6888
  914MOL0     C23259   4.812   8.673   6.942 -0.4476  1.0882  1.0242
  914MOL0     C23260   4.726   8.771   6.895  0.3415  0.4362 -0.5238
  914MOL0     C23261   4.583   8.752   6.905 -0.3759  1.0635  0.2562
  914MOL0     C23262   4.528   8.631   6.938 -0.6153  0.0921 -0.1680
  914MOL0     O23263   4.392   8.614   6.926  0.0571 -0.1584  1.2511
  914MOL0     C23264   4.351   8.608   6.790 -0.7138 -0.1733  0.8815
  914MOL0     C23265   4.210   8.554   6.786 -0.7601  0.3668  0.1154
  914MOL0     C23266   4.092   8.629   6.848  0.3334  0.3058  0.6848
  914MOL0     C23267   4.100   8.777   6.820  0.6710 -0.2415  0.0299
  914MOL0     C23268   3.966   8.841   6.856 -0.2892  0.1422  0.3018
  914MOL0     C23269   3.963   8.993   6.822 -1.0234 -0.0208 -0.0709
  914MOL0     C23270   3.828   9.061   6.834  0.0950 -0.1025 -0.4255
  914MOL0     C23271   3.806   9.098   6.982  0.5663 -0.3800 -0.4129
  914MOL0     N23272   3.666   9.132   6.986  1.5273  0.1850 -0.3149
  914MOL0     C23273   3.615   9.246   6.920  0.0048 -0.3401  0.2342
  914MOL0     C23274   3.482   9.217   6.902 -0.1777  0.1200 -0.2665
  914MOL0     C23275   3.400   9.316   6.823  0.0553  0.2319  0.0435
  914MOL0     C23276   3.242   9.302   6.850 -0.5240  0.2067 -0.3684
  914MOL0     C23277   3.185   9.407   6.751  0.0369  0.5154  0.3396
  914MOL0     C23278   3.031   9.405   6.729  0.7286 -1.4201 -0.4818
  914MOL0     O23279   2.979   9.469   6.844  0.4813 -0.0474 -0.2856
  914MOL0     C23280   2.839   9.472   6.855 -0.4927  0.7446  1.2631
  914MOL0     C23281   2.791   9.484   6.987 -0.1306  0.2948  0.9253
  914MOL0     C23282   2.655   9.481   7.015  0.2770  0.4615  0.0260
  914MOL0     C23283   2.608   9.484   7.153  0.7660 -0.2878 -0.2368
  914MOL0     C23284   2.563   9.466   6.910  0.3855  0.6627 -0.2441
  914MOL0     C23285   2.419   9.440   6.930 -0.2684 -0.4751 -0.0158
  914MOL0     O23286   2.345   9.453   6.815  0.5825  0.0968 -0.1558
  914MOL0     C23287   2.217   9.403   6.799 -0.3313 -0.4741  0.1702
  914MOL0     C23288   2.140   9.349   6.901  0.4984  0.3267 -0.2444
  914MOL0     C23289   2.009   9.313   6.876  0.3371  1.3837  0.0337
  914MOL0     C23290   1.956   9.315   6.741 -0.7740  0.6458 -1.0715
  914MOL0     O23291   1.845   9.250   6.706 -0.8639 -0.2901  0.4040
  914MOL0     C23292   1.854   9.113   6.663 -0.3433  0.4478 -0.5613
  914MOL0     C23293   1.727   9.041   6.684  0.0403 -0.7246  0.7494
  914MOL0     C23294   1.628   9.069   6.579  0.6830 -0.4193 -0.2300
  914MOL0     C23295   1.498   8.983   6.611 -0.2165  0.1178  0.3117
  914MOL0     C23296   1.413   8.959   6.487 -0.5150  0.2187  0.2511
  914MOL0     C23297   1.273   9.016   6.500 -0.4341 -0.5749  0.0520
  914MOL0     C23298   1.173   8.989   6.391 -0.5717 -0.1408 -0.5780
  914MOL0     C23299   1.131   8.841   6.379 -0.3439  0.3006 -1.1767
  914MOL0    Cl23300   0.997   8.808   6.261 -0.3441  0.2776  0.1467
  914MOL0     C23301   2.030   9.372   6.641  0.4656 -0.5984 -0.3051
  914MOL0     C23302   2.160   9.422   6.672 -0.0265 -0.4048 -0.1079
  914MOL0     O23303   2.380   9.396   7.038  0.5315  0.0000 -0.4566
  914MOL0     C23304   2.610   9.451   6.777 -0.2979 -0.4299 -0.2262
  914MOL0     C23305   2.746   9.451   6.750  0.3775  0.1680  0.0387
  914MOL0     N23306   3.459   9.092   6.953 -0.0217  0.3963 -0.8564
  914MOL0     N23307   3.562   9.047   7.020  0.5430  0.1494 -0.4023
  914MOL0     C23308   4.612   8.536   6.996 -0.2739  1.2315  0.1674
  914MOL0     C23309   4.759   8.557   6.989 -0.2476 -0.4122 -0.3190
  914MOL0     C23310   5.175   8.652   6.867 -0.4313  0.1117 -0.5583
  914MOL0     C23311   5.187   8.791   6.836 -0.6594 -0.9268 -0.2640
  914MOL0     C23312   5.314   8.840   6.783 -0.6703 -0.4474  0.7066
  914MOL0     C23313   5.414   8.755   6.737 -0.4188  0.5349  0.3437
  914MOL0     O23314   5.517   8.813   6.671  1.0267 -0.2854 -1.0145
  914MOL0     C23315   5.618   8.742   6.595  0.7552 -0.3626 -0.1484
  914MOL0     C23316   5.720   8.848   6.549 -0.1444 -0.2489 -1.3124
  914MOL0     C23317   5.816   8.774   6.452  0.2514 -0.4392  0.4224
  914MOL0     C23318   5.926   8.867   6.380  0.7466  0.3000 -0.5255
  914MOL0     C23319   5.984   8.785   6.282 -0.2570  0.2287 -0.1540
  914MOL0     C23320   6.031   8.727   6.189  0.1574  0.2766  0.0770
  914MOL0     C23321   5.389   8.615   6.750  0.0439  0.0683  0.8828
  914MOL0     C23322   5.276   8.571   6.817 -0.1873  0.3470  0.5524
  914MOL0     H23323   4.764   8.869   6.870 -2.0635  2.0347  1.5706
  914MOL0     H23324   4.514   8.831   6.876  0.5673  1.8156  0.0210
  914MOL0     H23325   4.359   8.708   6.747  0.0688 -0.1365  1.0953
  914MOL0     H23326   4.409   8.538   6.729 -1.0882 -0.3565  0.7322
  914MOL0     H23327   4.191   8.533   6.680 -0.7508  0.1628  0.1534
  914MOL0     H23328   4.214   8.459   6.840 -0.0425 -0.4480 -1.3075
  914MOL0     H23329   3.997   8.591   6.810  1.6103 -3.2162  0.6536
  914MOL0     H23330   4.088   8.625   6.957 -1.2803 -0.5342  0.6117
  914MOL0     H23331   4.187   8.820   6.871 -0.5440  1.0616  1.0586
  914MOL0     H23332   4.114   8.800   6.713 -2.1403  0.9827 -0.1684
  914MOL0     H23333   3.892   8.798   6.787  1.6034 -3.1902  0.1511
  914MOL0     H23334   3.938   8.815   6.958 -1.4363 -0.0060 -0.0385
  914MOL0     H23335   4.039   9.032   6.891 -1.2708 -1.5288  1.1186
  914MOL0     H23336   3.998   9.016   6.721 -3.0883 -2.0183 -1.3456
  914MOL0     H23337   3.839   9.153   6.777 -0.5204  0.2742  0.0581
  914MOL0     H23338   3.747   8.998   6.795 -1.7164  2.9194 -1.8954
  914MOL0     H23339   3.869   9.178   7.022  1.4148 -1.3562  0.2685
  914MOL0     H23340   3.832   9.014   7.047 -0.7659 -2.3847 -2.3154
  914MOL0     H23341   3.669   9.332   6.880  2.0573 -2.2834 -1.4740
  914MOL0     H23342   3.434   9.416   6.849  1.2305  0.3364 -1.6972
  914MOL0     H23343   3.414   9.293   6.716 -0.1830  1.3157 -0.2294
  914MOL0     H23344   3.209   9.307   6.954 -0.5901  0.8892 -0.4141
  914MOL0     H23345   3.206   9.202   6.825  0.0643 -0.5254  1.5011
  914MOL0     H23346   3.239   9.400   6.656 -1.2538  1.8988 -0.5515
  914MOL0     H23347   3.208   9.508   6.786 -2.1164  0.9754  0.6098
  914MOL0     H23348   2.997   9.301   6.733  0.1833 -1.2121  0.5238
  914MOL0     H23349   3.004   9.457   6.636 -2.7935  0.3083  1.3075
  914MOL0     H23350   2.865   9.470   7.066 -0.4849 -2.4286  0.8653
  914MOL0     H23351   2.573   9.385   7.184  0.7084 -0.1060  0.2917
  914MOL0     H23352   2.692   9.508   7.219  1.2423  0.2009 -1.0009
  914MOL0     H23353   2.529   9.556   7.178 -0.1624 -2.0760  2.5047
  914MOL0     H23354   2.167   9.332   7.005 -2.2663  1.2118  0.7237
  914MOL0     H23355   1.972   9.258   6.962  2.6552 -0.6359 -0.1776
  914MOL0     H23356   1.870   9.094   6.557  0.3204 -2.0469 -0.0781
  914MOL0     H23357   1.927   9.054   6.719 -2.1508 -0.8679  0.5544
  914MOL0     H23358   1.733   8.932   6.680 -1.0314 -0.8204  1.2458
  914MOL0     H23359   1.682   9.066   6.781 -0.6050 -0.2490  0.3382
  914MOL0     H23360   1.670   9.037   6.484  0.3622 -2.8188  0.3620
  914MOL0     H23361   1.594   9.173   6.577  0.1215 -0.5442  1.3189
  914MOL0     H23362   1.523   8.885   6.653 -1.8685 -2.1402 -3.3915
  914MOL0     H23363   1.442   9.036   6.689  1.7145  0.6349  1.4163
  914MOL0     H23364   1.392   8.852   6.476 -2.1435  0.5546 -0.1322
  914MOL0     H23365   1.465   8.984   6.394  2.1839 -0.9852  1.3159
  914MOL0     H23366   1.224   8.992   6.595  1.0435 -2.9023  0.3104
  914MOL0     H23367   1.286   9.124   6.493 -0.0544 -0.7001 -1.5666
  914MOL0     H23368   1.210   9.028   6.295  0.9998 -0.1998 -0.0217
  914MOL0     H23369   1.082   9.044   6.417 -1.0903 -1.1167 -0.2895
  914MOL0     H23370   1.089   8.808   6.474 -1.6910  3.0609 -0.7287
  914MOL0     H23371   1.218   8.780   6.350  0.2084  0.1000  0.7946
  914MOL0     H23372   2.002   9.374   6.536  1.2101  2.4406 -0.5273
  914MOL0     H23373   2.220   9.479   6.602  1.4150 -0.5065  0.9823
  914MOL0     H23374   2.549   9.400   6.703  1.6248 -1.2816 -1.3014
  914MOL0     H23375   2.769   9.419   6.649 -0.4748 -1.1275  0.2338
  914MOL0     H23376   4.570   8.452   7.049  1.2350  1.4875  1.8947
  914MOL0     H23377   4.820   8.485   7.043  0.4659  0.9588  0.7742
  914MOL0     H23378   5.102   8.857   6.847  1.7521  2.6937 -1.7045
  914MOL0     H23379   5.336   8.944   6.760  1.8116 -1.1683 -0.5855
  914MOL0     H23380   5.671   8.669   6.656 -0.3905 -0.3312  0.9254
  914MOL0     H23381   5.570   8.695   6.509 -4.3126  0.6026  1.8084
  914MOL0     H23382   5.776   8.883   6.636  1.2740 -0.9385 -1.9108
  914MOL0     H23383   5.659   8.927   6.505  1.7142  2.3316  0.4418
  914MOL0     H23384   5.760   8.725   6.371  0.1578 -0.8455  0.7265
  914MOL0     H23385   5.855   8.687   6.505 -1.3582 -0.6871  1.2802
  914MOL0     H23386   5.997   8.900   6.457  2.2100 -4.2221  0.4009
  914MOL0     H23387   5.884   8.957   6.335  1.3803  0.9231  0.1046
  914MOL0     H23388   6.076   8.684   6.102  0.9086  0.4281  0.3827
  914MOL0     H23389   5.456   8.538   6.712  0.1881 -0.7990  2.7904
  914MOL0     H23390   5.253   8.466   6.832 -1.5984  0.9646  3.2879
  915MOL0     O23391   8.350   2.935   5.205 -0.5011 -0.0398 -0.3241
  915MOL0     C23392   8.291   2.939   5.311 -0.1143  0.0520 -0.5690
  915MOL0     O23393   8.163   3.001   5.330 -1.0517 -0.0771 -0.3817
  915MOL0     C23394   8.095   3.061   5.225 -0.2119  0.0565  0.6639
  915MOL0     C23395   7.955   3.075   5.238 -0.3438 -0.2170  0.1156
  915MOL0     C23396   7.884   3.148   5.143 -0.1843  0.5933  0.0251
  915MOL0     C23397   7.946   3.218   5.039  0.3685 -0.0167  0.0674
  915MOL0     O23398   7.862   3.294   4.955  0.6903 -0.4810 -1.1877
  915MOL0     C23399   7.832   3.426   5.007  0.2685 -0.5083 -0.4498
  915MOL0     C23400   7.703   3.435   5.078  0.4506 -0.3140  0.7655
  915MOL0     C23401   7.588   3.415   4.984  0.7513 -0.0685 -0.0335
  915MOL0     C23402   7.468   3.487   5.041 -0.2949 -0.0668 -0.8273
  915MOL0     C23403   7.346   3.436   4.973  0.3592 -0.6907 -0.6878
  915MOL0     C23404   7.230   3.511   5.025 -0.2501  0.3927 -0.3222
  915MOL0     C23405   7.103   3.490   4.938 -0.7870  0.9355 -0.2962
  915MOL0     C23406   6.977   3.552   5.003  0.3891  0.3995 -0.2858
  915MOL0     N23407   6.875   3.558   4.898  0.7461  0.2485  0.1456
  915MOL0     C23408   6.809   3.450   4.852 -0.9099  0.2837  0.0645
  915MOL0     C23409   6.729   3.491   4.757  0.6878 -0.2834 -0.5833
  915MOL0     C23410   6.644   3.415   4.655 -0.1239  0.2001 -0.0365
  915MOL0     C23411   6.509   3.360   4.724 -0.2040  0.0865  0.1452
  915MOL0     C23412   6.448   3.251   4.641  0.8015  0.0630  0.7167
  915MOL0     C23413   6.431   3.272   4.488  0.0472 -0.3938 -0.5220
  915MOL0     O23414   6.371   3.401   4.449 -0.5154  0.8000 -0.9079
  915MOL0     C23415   6.236   3.413   4.471  0.0108  0.7652 -0.1697
  915MOL0     C23416   6.176   3.537   4.473 -0.0004  0.4310  0.3078
  915MOL0     C23417   6.030   3.553   4.473 -0.3938 -0.6446  0.4055
  915MOL0     C23418   5.968   3.690   4.458  1.0484  0.0666  0.4319
  915MOL0     C23419   5.947   3.441   4.494 -0.0014  0.3321 -0.4836
  915MOL0     C23420   5.796   3.429   4.507 -0.8468  0.0044  0.6105
  915MOL0     O23421   5.736   3.310   4.510  0.0829 -0.4348 -0.0192
  915MOL0     C23422   5.608   3.301   4.561  0.3327  0.7635  0.2721
  915MOL0     C23423   5.587   3.253   4.687  0.3350  0.3979 -0.1474
  915MOL0     C23424   5.465   3.263   4.755 -0.0175 -0.4880 -0.4655
  915MOL0     C23425   5.347   3.295   4.693  0.0547 -0.0526  0.1988
  915MOL0     O23426   5.231   3.265   4.766  0.3744  0.5281 -0.1181
  915MOL0     C23427   5.100   3.278   4.693 -0.7120 -0.9371  0.3135
  915MOL0     C23428   4.992   3.208   4.773  0.1802 -0.1784 -0.0098
  915MOL0     C23429   4.866   3.183   4.688 -0.7673 -0.3715 -1.3031
  915MOL0     C23430   4.753   3.090   4.745  0.1916  0.0954  0.4795
  915MOL0     C23431   4.652   3.047   4.637  0.4514  0.4664 -0.0108
  915MOL0     C23432   4.544   2.952   4.690  0.1361  0.2245  0.1623
  915MOL0     C23433   4.494   2.987   4.835 -0.6052 -0.0928  0.6777
  915MOL0     C23434   4.362   2.913   4.871 -0.5535 -0.2927 -0.3356
  915MOL0    Cl23435   4.372   2.731   4.841 -0.0535  0.1196 -0.2337
  915MOL0     C23436   5.363   3.322   4.552  0.6760 -0.4525  0.2324
  915MOL0     C23437   5.489   3.327   4.487  0.6272 -0.7166 -0.4359
  915MOL0     O23438   5.738   3.527   4.527 -0.7541 -0.4111 -0.6038
  915MOL0     C23439   6.010   3.321   4.515  0.5359 -0.9649  0.7930
  915MOL0     C23440   6.150   3.305   4.497 -0.0563  0.0533 -0.5002
  915MOL0     N23441   6.736   3.635   4.748 -0.6496 -0.5755 -0.1045
  915MOL0     N23442   6.828   3.674   4.827 -0.9431  0.0219  0.7295
  915MOL0     C23443   8.083   3.200   5.022  0.0058 -0.1874 -0.0549
  915MOL0     C23444   8.157   3.125   5.117 -0.3466 -0.3782  0.4596
  915MOL0     C23445   8.352   2.863   5.424 -0.1503  0.5627 -0.8595
  915MOL0     C23446   8.485   2.813   5.417  0.8499  0.6471 -0.1170
  915MOL0     C23447   8.531   2.736   5.526 -0.2060 -0.7976  0.1747
  915MOL0     C23448   8.446   2.715   5.639  0.0606  0.6269  0.1728
  915MOL0     O23449   8.478   2.624   5.737 -0.3084 -0.2586  0.4767
  915MOL0     C23450   8.597   2.654   5.816 -0.3068  0.6555 -0.2678
  915MOL0     C23451   8.650   2.532   5.899 -0.0330  0.0204 -0.4625
  915MOL0     C23452   8.652   2.409   5.812 -1.0108  0.2443 -0.4198
  915MOL0     C23453   8.752   2.301   5.857 -0.1375  0.6103 -0.1879
  915MOL0     C23454   8.745   2.185   5.773 -0.0657 -0.1259 -0.6779
  915MOL0     C23455   8.748   2.104   5.689 -0.1908  0.7741 -0.0298
  915MOL0     C23456   8.322   2.762   5.642  0.1442  0.7269 -0.2945
  915MOL0     C23457   8.273   2.832   5.531  0.9970  0.0370  0.2060
  915MOL0     H23458   7.901   3.016   5.311 -0.5565 -0.0933  0.0605
  915MOL0     H23459   7.776   3.155   5.153  0.0278  1.3178  2.6398
  915MOL0     H23460   7.903   3.467   5.079 -1.3416  3.1358 -0.6770
  915MOL0     H23461   7.838   3.495   4.922  1.6066 -1.1522 -0.9095
  915MOL0     H23462   7.705   3.361   5.158  1.9401 -2.0275 -0.7695
  915MOL0     H23463   7.698   3.534   5.123  0.9157  0.9350 -1.7766
  915MOL0     H23464   7.602   3.454   4.883  0.2027  0.0125 -0.0840
  915MOL0     H23465   7.574   3.306   4.976 -1.0363  0.0597  0.8016
  915MOL0     H23466   7.479   3.465   5.147 -0.2623 -0.9343 -1.0023
  915MOL0     H23467   7.490   3.592   5.018  1.8544 -0.4876 -0.9230
  915MOL0     H23468   7.348   3.455   4.865  0.7192 -0.2382 -0.5993
  915MOL0     H23469   7.345   3.328   4.993 -0.0607 -0.5115  0.2863
  915MOL0     H23470   7.217   3.495   5.132  0.4975  0.9184 -0.1472
  915MOL0     H23471   7.252   3.617   5.011  1.5431 -0.0686 -1.3394
  915MOL0     H23472   7.131   3.539   4.844 -0.4966  0.3717 -0.5119
  915MOL0     H23473   7.092   3.382   4.925 -1.1370  0.6534  1.9827
  915MOL0     H23474   6.997   3.655   5.033 -1.2485  0.5780  0.2673
  915MOL0     H23475   6.956   3.496   5.095  0.3689  0.7818 -0.0566
  915MOL0     H23476   6.833   3.347   4.874 -1.9559 -0.3917 -1.7406
  915MOL0     H23477   6.620   3.473   4.566  0.7576  0.8163  0.1167
  915MOL0     H23478   6.691   3.324   4.615 -0.8614 -1.3547  2.4383
  915MOL0     H23479   6.439   3.442   4.736  0.2460  0.4935  0.0139
  915MOL0     H23480   6.523   3.316   4.823 -2.2134 -1.6989 -0.2858
  915MOL0     H23481   6.350   3.223   4.679 -0.8886  2.5826 -1.4143
  915MOL0     H23482   6.519   3.168   4.650  3.4903  2.0960 -0.3240
  915MOL0     H23483   6.379   3.191   4.435  0.3614  0.4897 -2.2700
  915MOL0     H23484   6.529   3.273   4.438  1.1933 -3.6188  1.3747
  915MOL0     H23485   6.243   3.619   4.449  2.6224 -1.8993 -0.8783
  915MOL0     H23486   5.897   3.693   4.375 -0.4001 -0.1338  1.6139
  915MOL0     H23487   5.917   3.703   4.554  2.4813 -2.2992  1.5958
  915MOL0     H23488   6.040   3.771   4.442 -0.2155  0.9252 -1.2523
  915MOL0     H23489   5.670   3.221   4.749 -0.2330  1.3815  1.1683
  915MOL0     H23490   5.456   3.227   4.857 -0.7477  0.7499 -0.0706
  915MOL0     H23491   5.074   3.381   4.668  0.9928 -0.6914 -0.5824
  915MOL0     H23492   5.105   3.234   4.593  0.7363  2.3594 -1.2132
  915MOL0     H23493   5.034   3.109   4.794 -1.0048 -0.4446  1.2925
  915MOL0     H23494   4.969   3.257   4.869  0.7834  1.7474 -0.7924
  915MOL0     H23495   4.899   3.141   4.593  0.2914  1.7009 -1.9237
  915MOL0     H23496   4.819   3.281   4.675 -0.0454  1.1238  4.4345
  915MOL0     H23497   4.804   3.004   4.789  1.1783  0.6341  0.4309
  915MOL0     H23498   4.706   3.144   4.828  0.9388 -0.6398  1.3966
  915MOL0     H23499   4.702   2.996   4.555 -0.3469 -2.1763  1.0372
  915MOL0     H23500   4.604   3.136   4.596  3.0154  1.8696 -0.1966
  915MOL0     H23501   4.465   2.953   4.614 -0.3149 -3.3054  0.4185
  915MOL0     H23502   4.578   2.848   4.691 -2.4204 -0.6779 -0.0740
  915MOL0     H23503   4.474   3.093   4.852  1.5475  0.1943  1.8337
  915MOL0     H23504   4.569   2.964   4.911  1.3148  2.2127 -0.3733
  915MOL0     H23505   4.281   2.950   4.807 -1.3470 -3.0822 -1.0541
  915MOL0     H23506   4.338   2.939   4.975 -0.3214  0.8783 -0.5637
  915MOL0     H23507   5.273   3.352   4.499 -0.1703  0.3601  2.0292
  915MOL0     H23508   5.496   3.367   4.386 -3.0795  0.3266 -0.3939
  915MOL0     H23509   5.946   3.235   4.535 -0.3972 -0.3007  0.7664
  915MOL0     H23510   6.177   3.202   4.518 -1.1612 -0.7371 -2.7040
  915MOL0     H23511   8.141   3.244   4.941  0.0106 -0.9750 -0.4857
  915MOL0     H23512   8.264   3.122   5.099 -0.3649 -1.1357  0.4174
  915MOL0     H23513   8.551   2.836   5.333  1.1423 -1.6932 -0.5923
  915MOL0     H23514   8.618   2.671   5.526 -0.2352 -1.0989 -4.1304
  915MOL0     H23515   8.678   2.673   5.745  0.1304  2.0336  0.5670
  915MOL0     H23516   8.586   2.750   5.866  0.9190  1.0049 -0.6214
  915MOL0     H23517   8.590   2.513   5.988  1.7348  1.5527  1.1524
  915MOL0     H23518   8.750   2.559   5.933  0.1410  0.2747 -1.1594
  915MOL0     H23519   8.657   2.439   5.707 -1.8988 -2.3323 -1.2768
  915MOL0     H23520   8.554   2.360   5.818 -0.7806 -0.1114  0.9362
  915MOL0     H23521   8.728   2.278   5.962  0.3061 -1.4395 -0.4902
  915MOL0     H23522   8.856   2.333   5.856 -0.4488  1.6533 -0.3405
  915MOL0     H23523   8.752   2.035   5.607  0.4520  3.0597 -2.0725
  915MOL0     H23524   8.262   2.730   5.727 -0.9060 -0.0468 -1.2895
  915MOL0     H23525   8.172   2.864   5.551  0.9334 -0.3316  0.5022
  916MOL0     O23526   5.207   9.237   4.886 -0.0723  0.5427 -0.1419
  916MOL0     C23527   5.125   9.242   4.795  0.0350  0.1796  0.7822
  916MOL0     O23528   5.021   9.344   4.782 -0.4865  0.4374 -0.0388
  916MOL0     C23529   5.011   9.450   4.864 -0.7269  0.1896 -0.2999
  916MOL0     C23530   4.957   9.570   4.822  0.4577  0.5050  0.2508
  916MOL0     C23531   4.953   9.681   4.905 -0.3451  0.2434 -0.2692
  916MOL0     C23532   5.009   9.671   5.025 -0.6210  0.5218 -0.6904
  916MOL0     O23533   5.023   9.794   5.088  0.1352 -0.2669 -0.2512
  916MOL0     C23534   5.130   9.809   5.185  0.5206 -0.2081  0.1443
  916MOL0     C23535   5.144   9.959   5.202 -0.3307 -0.4245  0.0123
  916MOL0     C23536   5.275  10.003   5.272  0.6307  0.5672 -0.4493
  916MOL0     C23537   5.261  10.139   5.332 -0.5717  0.1904  0.0014
  916MOL0     C23538   5.381  10.193   5.395 -0.6155  0.2899  0.1511
  916MOL0     C23539   5.412  10.115   5.517  0.0658  0.3809 -0.2483
  916MOL0     C23540   5.522  10.182   5.606 -0.6649 -0.7523 -0.4961
  916MOL0     C23541   5.649  10.106   5.571  0.1660 -0.4253  0.1162
  916MOL0     N23542   5.764  10.172   5.633 -0.2618 -0.7163  0.5402
  916MOL0     C23543   5.842  10.268   5.575 -0.5601 -1.0837 -0.6722
  916MOL0     C23544   5.941  10.291   5.671  0.0458  1.0765  1.1490
  916MOL0     C23545   6.052  10.388   5.652  0.1203  0.0132 -0.9615
  916MOL0     C23546   6.179  10.323   5.590  0.2952 -0.0446  0.3430
  916MOL0     C23547   6.239  10.212   5.670 -0.0688 -0.3327 -0.3904
  916MOL0     C23548   6.379  10.176   5.613 -0.1940 -0.4072 -0.6722
  916MOL0     O23549   6.389  10.131   5.480 -0.4574  0.1790  0.0329
  916MOL0     C23550   6.497  10.054   5.447  0.2722  0.7533  0.5585
  916MOL0     C23551   6.487   9.979   5.325  0.6650  0.0857 -1.6432
  916MOL0     C23552   6.590   9.911   5.262  1.0364  0.6099  0.4549
  916MOL0     C23553   6.570   9.843   5.126  0.1454  0.3727 -0.4194
  916MOL0     C23554   6.715   9.917   5.328  0.0257  0.3720  0.4151
  916MOL0     C23555   6.846   9.866   5.262  0.0179 -0.3015  0.3207
  916MOL0     O23556   6.957   9.947   5.271 -0.0604  0.2972  0.0665
  916MOL0     C23557   7.081   9.891   5.247 -0.2513  0.4393 -0.4342
  916MOL0     C23558   7.153   9.936   5.138  0.5342 -0.0958 -0.5900
  916MOL0     C23559   7.288   9.892   5.102  0.2794 -0.5250 -0.6130
  916MOL0     C23560   7.336   9.791   5.184  0.5070  0.3915 -0.0740
  916MOL0     O23561   7.450   9.728   5.152  0.6297  0.0974  1.4541
  916MOL0     C23562   7.539   9.748   5.044 -0.4042  0.0625 -0.1079
  916MOL0     C23563   7.629   9.624   5.042 -0.7241  0.3933  0.2871
  916MOL0     C23564   7.687   9.587   5.172  0.2463  0.1733  0.2916
  916MOL0     C23565   7.759   9.448   5.154  0.7566 -0.8237  0.9445
  916MOL0     C23566   7.828   9.400   5.282 -0.7029 -0.5323 -0.0023
  916MOL0     C23567   7.910   9.501   5.363  1.1380  0.5737 -0.5100
  916MOL0     C23568   8.030   9.566   5.297 -0.1975 -0.6768 -0.7071
  916MOL0     C23569   8.113   9.623   5.407 -0.8842 -0.4265 -1.2050
  916MOL0    Cl23570   8.181   9.497   5.504 -0.1633  0.3662  0.5238
  916MOL0     C23571   7.267   9.738   5.289  0.2180 -0.4853 -0.6912
  916MOL0     C23572   7.138   9.784   5.321  0.0448 -0.6883 -0.7246
  916MOL0     O23573   6.848   9.754   5.220  0.5933  0.0961  0.4628
  916MOL0     C23574   6.734   9.980   5.451 -0.0354  0.0038  0.6327
  916MOL0     C23575   6.623  10.057   5.510 -0.8886 -0.0739  0.2388
  916MOL0     N23576   5.923  10.210   5.775  0.4673  0.1938  0.3862
  916MOL0     N23577   5.816  10.144   5.757  0.5623 -0.6151 -0.6852
  916MOL0     C23578   5.038   9.545   5.088 -0.8180 -0.6254  0.5031
  916MOL0     C23579   5.045   9.441   4.999 -0.4447  0.8019 -0.3112
  916MOL0     C23580   5.120   9.125   4.696 -0.0863  0.2508 -0.8700
  916MOL0     C23581   4.997   9.088   4.642  0.2427  0.2929 -0.6202
  916MOL0     C23582   4.990   8.981   4.553 -1.3618 -0.6633 -0.3013
  916MOL0     C23583   5.109   8.909   4.522 -0.3371 -1.4335  0.5165
  916MOL0     O23584   5.097   8.804   4.441  0.0285 -0.0119 -0.1065
  916MOL0     C23585   5.161   8.821   4.310 -0.5177  0.3765  0.7088
  916MOL0     C23586   5.144   8.691   4.229 -1.0146 -0.4274 -1.0906
  916MOL0     C23587   5.008   8.672   4.172 -0.1957  0.3375  0.5125
  916MOL0     C23588   5.001   8.554   4.069 -0.3585 -0.3812  0.4666
  916MOL0     C23589   5.101   8.558   3.966  0.6030 -0.1951  0.2631
  916MOL0     C23590   5.180   8.562   3.877  0.3770  0.1020 -0.5498
  916MOL0     C23591   5.231   8.949   4.580  0.3553 -0.5173  0.8387
  916MOL0     C23592   5.238   9.051   4.671  0.5114  0.5480  0.0974
  916MOL0     H23593   4.940   9.578   4.715  1.7491 -1.4747 -0.1599
  916MOL0     H23594   4.922   9.774   4.859  2.4185  1.4950  0.2320
  916MOL0     H23595   5.097   9.755   5.274  0.1142 -4.1387 -2.1755
  916MOL0     H23596   5.225   9.771   5.148 -0.1953 -1.7520 -0.1659
  916MOL0     H23597   5.148  10.009   5.105  2.2673  1.1765  0.8409
  916MOL0     H23598   5.054   9.988   5.257 -0.6191 -0.2028 -0.5772
  916MOL0     H23599   5.281   9.935   5.358 -1.4133 -1.0971 -1.5322
  916MOL0     H23600   5.360   9.982   5.207 -0.0887 -4.2616 -0.1758
  916MOL0     H23601   5.239  10.192   5.238 -2.1929 -0.2051  0.1346
  916MOL0     H23602   5.179  10.146   5.404 -1.5920 -1.7527 -0.8880
  916MOL0     H23603   5.459  10.186   5.319 -0.0492  1.1121  0.6373
  916MOL0     H23604   5.356  10.295   5.426  1.1753  0.8388 -0.0784
  916MOL0     H23605   5.322  10.107   5.577 -0.1866 -1.6210 -0.8173
  916MOL0     H23606   5.429  10.009   5.498 -2.2564 -0.6344  2.6431
  916MOL0     H23607   5.520  10.287   5.576 -0.6602 -0.7774 -0.5854
  916MOL0     H23608   5.503  10.164   5.712  0.8029  0.9429  0.1063
  916MOL0     H23609   5.662  10.116   5.463  1.4180  1.2134  0.3800
  916MOL0     H23610   5.651  10.000   5.601  4.1993 -0.8700 -1.2070
  916MOL0     H23611   5.831  10.326   5.483  1.0168  0.2327 -0.0869
  916MOL0     H23612   6.009  10.461   5.582 -2.9030 -0.4873  0.2140
  916MOL0     H23613   6.083  10.445   5.740 -0.2818 -0.6646 -0.3650
  916MOL0     H23614   6.254  10.401   5.575  0.6924  0.0578  2.5198
  916MOL0     H23615   6.156  10.288   5.489  0.1018  1.7193 -0.2561
  916MOL0     H23616   6.187  10.117   5.660 -1.2559  0.4676 -2.4335
  916MOL0     H23617   6.254  10.252   5.771 -1.2398  0.0819 -0.3684
  916MOL0     H23618   6.421  10.112   5.691 -2.3816 -0.9340  0.1495
  916MOL0     H23619   6.450  10.259   5.617  2.1159 -2.3551  0.9911
  916MOL0     H23620   6.397   9.976   5.265 -0.4795  1.1978 -0.0504
  916MOL0     H23621   6.604   9.910   5.047 -0.4666 -0.4021 -1.3659
  916MOL0     H23622   6.620   9.745   5.123 -2.0809 -0.9438  1.4581
  916MOL0     H23623   6.464   9.816   5.122 -0.1281  1.2189  0.6507
  916MOL0     H23624   7.110  10.012   5.074 -0.3090  0.4883  0.6497
  916MOL0     H23625   7.336   9.931   5.013 -0.1043  1.1511 -0.1151
  916MOL0     H23626   7.493   9.761   4.945 -1.8924 -4.9429 -0.3188
  916MOL0     H23627   7.606   9.834   5.060  0.7845 -0.6570 -1.0110
  916MOL0     H23628   7.562   9.541   5.016 -0.7202  0.9165 -1.5918
  916MOL0     H23629   7.703   9.628   4.962  0.7863 -1.8753  1.4760
  916MOL0     H23630   7.611   9.579   5.250 -2.4014  1.4185 -1.9885
  916MOL0     H23631   7.757   9.669   5.193  0.6847 -0.2288  0.4109
  916MOL0     H23632   7.688   9.375   5.114  1.6800 -0.0735 -2.3104
  916MOL0     H23633   7.842   9.467   5.085  1.6834  1.1663  2.4887
  916MOL0     H23634   7.888   9.311   5.258  1.1258  0.1607  1.6768
  916MOL0     H23635   7.747   9.367   5.348  0.4158  0.2476  1.8201
  916MOL0     H23636   7.839   9.575   5.401 -0.0178 -1.7301  2.1909
  916MOL0     H23637   7.948   9.441   5.447  0.9750  0.6614 -0.3738
  916MOL0     H23638   7.993   9.643   5.228 -2.2482 -2.0445 -1.1980
  916MOL0     H23639   8.086   9.489   5.244  1.2097 -0.5462  0.5188
  916MOL0     H23640   8.051   9.681   5.477 -0.5036  0.6545 -1.7498
  916MOL0     H23641   8.191   9.680   5.356 -1.4352 -0.1631 -1.7642
  916MOL0     H23642   7.311   9.656   5.344 -0.8635 -1.0981 -0.7063
  916MOL0     H23643   7.072   9.728   5.387  0.3281 -2.3772 -1.7918
  916MOL0     H23644   6.833   9.981   5.497  0.9367  2.0698 -1.2894
  916MOL0     H23645   6.642  10.110   5.603  0.4825  0.4841 -0.3417
  916MOL0     H23646   5.078   9.532   5.188  1.8191  0.2141 -0.3585
  916MOL0     H23647   5.064   9.340   5.036 -1.3622 -0.3737 -2.7938
  916MOL0     H23648   4.905   9.146   4.649 -0.5891 -1.1340  0.7413
  916MOL0     H23649   4.892   8.960   4.511 -2.1338  3.2264 -0.8573
  916MOL0     H23650   5.099   8.897   4.263 -0.4039 -1.0530 -1.9132
  916MOL0     H23651   5.268   8.843   4.323 -0.0746 -2.3676  2.7951
  916MOL0     H23652   5.163   8.607   4.297 -1.6495 -1.2273 -1.8849
  916MOL0     H23653   5.225   8.698   4.155  0.5838 -2.3055  0.3819
  916MOL0     H23654   4.979   8.757   4.109  3.5829  0.2608 -1.5880
  916MOL0     H23655   4.930   8.653   4.247  0.6144 -0.3582  1.2041
  916MOL0     H23656   4.902   8.547   4.024 -0.9735  0.3602  1.6685
  916MOL0     H23657   5.016   8.462   4.126 -0.9174  0.6618  2.3573
  916MOL0     H23658   5.247   8.566   3.793  1.4945  0.5301  0.3344
  916MOL0     H23659   5.322   8.902   4.544 -0.8546 -2.7808  0.5516
  916MOL0     H23660   5.331   9.061   4.727 -0.7504  2.3198  2.0503
  917MOL0     O23661   4.490   7.603   0.874  0.5998 -0.2168  0.0762
  917MOL0     C23662   4.559   7.580   0.970 -0.3661 -0.4646 -0.0580
  917MOL0     O23663   4.511   7.541   1.092 -0.7424  0.0605  0.3559
  917MOL0     C23664   4.378   7.558   1.126  0.2483  0.0026  0.0644
  917MOL0     C23665   4.327   7.449   1.195  0.3215  0.9907 -0.4896
  917MOL0     C23666   4.193   7.444   1.222  0.4646  0.7161  0.6578
  917MOL0     C23667   4.098   7.545   1.190  0.1082  0.2073  0.1826
  917MOL0     O23668   3.959   7.534   1.187 -1.1146  0.0021  0.0935
  917MOL0     C23669   3.903   7.398   1.191  0.9620 -0.8225 -0.5595
  917MOL0     C23670   3.745   7.402   1.207 -0.0246  0.9595  0.0519
  917MOL0     C23671   3.674   7.458   1.080 -0.2244  0.8301  0.4182
  917MOL0     C23672   3.518   7.455   1.104 -1.4636  0.2455  0.1037
  917MOL0     C23673   3.443   7.503   0.982 -0.0651  0.4804  0.9097
  917MOL0     C23674   3.298   7.500   1.021 -0.0496 -0.0942  0.1709
  917MOL0     C23675   3.207   7.476   0.898  0.1928  0.3534 -0.2174
  917MOL0     C23676   3.064   7.447   0.939 -0.3733  0.4773  0.8891
  917MOL0     N23677   2.999   7.564   0.998  0.4606  0.7415 -0.3296
  917MOL0     C23678   3.019   7.601   1.126  0.7966 -0.4176  0.0029
  917MOL0     C23679   2.952   7.717   1.129 -1.0633 -0.0733 -0.3573
  917MOL0     C23680   2.965   7.817   1.246 -1.0422  0.4814 -0.4369
  917MOL0     C23681   2.931   7.748   1.382 -0.6746  1.1084  0.5322
  917MOL0     C23682   2.910   7.856   1.488  0.0997 -0.3390  0.1298
  917MOL0     C23683   2.892   7.807   1.630  0.3371  0.6780 -0.0065
  917MOL0     O23684   2.758   7.756   1.649  0.3980 -0.1694  0.1380
  917MOL0     C23685   2.687   7.795   1.756 -0.6203 -0.0007 -0.3532
  917MOL0     C23686   2.746   7.772   1.885  0.0623  0.7470  0.2365
  917MOL0     C23687   2.674   7.799   2.002  0.3286  0.1592  0.0654
  917MOL0     C23688   2.739   7.790   2.136  0.4562  0.7325  0.0735
  917MOL0     C23689   2.537   7.824   1.990  0.1060 -0.2101 -0.1263
  917MOL0     C23690   2.448   7.877   2.096  0.0456  0.0955  0.4816
  917MOL0     O23691   2.319   7.843   2.079 -0.0006  0.1625 -0.4519
  917MOL0     C23692   2.207   7.897   2.136  0.1676 -0.4310  0.1687
  917MOL0     C23693   2.180   8.034   2.153  0.4455  1.5677  0.7477
  917MOL0     C23694   2.059   8.076   2.208  0.2103  0.2906  0.8148
  917MOL0     C23695   1.955   7.983   2.242  1.1318 -0.4276 -0.8432
  917MOL0     O23696   1.839   8.031   2.298 -0.8551  0.5792  0.4498
  917MOL0     C23697   1.724   7.949   2.316  0.1595  0.4779 -0.0698
  917MOL0     C23698   1.723   7.863   2.447  0.3682 -0.4842  0.0259
  917MOL0     C23699   1.617   7.748   2.444  0.2687  0.1869 -0.3481
  917MOL0     C23700   1.468   7.796   2.443  1.0014 -0.3811  0.6964
  917MOL0     C23701   1.364   7.689   2.419  0.1324 -0.6076  0.2362
  917MOL0     C23702   1.342   7.597   2.541  0.1380 -0.0001 -0.0019
  917MOL0     C23703   1.237   7.488   2.517 -0.0885 -0.0909 -0.7300
  917MOL0     C23704   1.223   7.397   2.642  0.5845 -0.3711 -0.2116
  917MOL0    Cl23705   1.130   7.241   2.625 -0.6147 -0.7049  0.5876
  917MOL0     C23706   1.991   7.847   2.235 -0.2877  0.5877 -0.0060
  917MOL0     C23707   2.107   7.811   2.177  0.1593  1.0226 -0.4495
  917MOL0     O23708   2.496   7.945   2.188 -0.5997  0.0270 -0.6175
  917MOL0     C23709   2.480   7.832   1.861  0.1542  0.2255  0.1430
  917MOL0     C23710   2.554   7.819   1.752  0.6205  0.1578 -0.8409
  917MOL0     N23711   2.889   7.740   1.009 -0.0738  0.4053 -0.1933
  917MOL0     N23712   2.922   7.654   0.928  0.1141  0.4772  0.2753
  917MOL0     C23713   4.154   7.657   1.129 -0.4697 -0.0895  0.3090
  917MOL0     C23714   4.291   7.671   1.097 -0.3517  0.1134 -0.4654
  917MOL0     C23715   4.706   7.596   0.958  0.3381  0.6545  0.4825
  917MOL0     C23716   4.786   7.633   1.072  0.6819 -0.5890  0.2338
  917MOL0     C23717   4.914   7.663   1.053 -0.5231  0.6980 -0.1449
  917MOL0     C23718   4.982   7.647   0.935 -0.2774  0.3646  0.1101
  917MOL0     O23719   5.123   7.652   0.922 -0.0204  0.1538 -0.2280
  917MOL0     C23720   5.199   7.729   1.021 -0.2511 -0.4886  0.9150
  917MOL0     C23721   5.170   7.878   0.998  0.2734  0.3434 -0.1091
  917MOL0     C23722   5.158   7.918   0.848  0.7933  0.3771  1.0425
  917MOL0     C23723   5.264   7.853   0.752 -0.3870 -0.1920 -0.4665
  917MOL0     C23724   5.390   7.898   0.801 -0.0962 -0.5595  0.5827
  917MOL0     C23725   5.488   7.928   0.871 -0.9369  0.2536  0.5597
  917MOL0     C23726   4.908   7.611   0.825  0.2131 -0.1565 -0.5149
  917MOL0     C23727   4.770   7.591   0.839  0.7333 -0.7377 -0.1261
  917MOL0     H23728   4.401   7.371   1.211  3.2454  2.6174 -4.5850
  917MOL0     H23729   4.151   7.358   1.275 -1.4098  2.5932  2.4530
  917MOL0     H23730   3.933   7.347   1.100 -0.8531 -0.8398 -1.1876
  917MOL0     H23731   3.936   7.339   1.277  3.0276  2.1082  0.8616
  917MOL0     H23732   3.711   7.300   1.230 -2.2980  1.6380 -0.0838
  917MOL0     H23733   3.709   7.470   1.285 -0.8978  2.0786 -1.2932
  917MOL0     H23734   3.708   7.560   1.061  2.3119  0.3721  2.0643
  917MOL0     H23735   3.702   7.404   0.988  0.3115 -0.5226  1.3455
  917MOL0     H23736   3.484   7.358   1.141 -0.3298  0.9182  3.2571
  917MOL0     H23737   3.494   7.526   1.184  0.6685  0.8354  0.2750
  917MOL0     H23738   3.469   7.605   0.955 -0.9657  0.8379  1.3685
  917MOL0     H23739   3.470   7.428   0.907 -3.5998  1.0207 -1.0659
  917MOL0     H23740   3.282   7.425   1.099  1.7713 -3.1196 -2.1183
  917MOL0     H23741   3.286   7.603   1.054 -0.6838 -0.4165  0.9857
  917MOL0     H23742   3.218   7.551   0.819 -0.4781  0.4715 -0.2011
  917MOL0     H23743   3.245   7.392   0.839  2.9521  2.4687 -1.7206
  917MOL0     H23744   3.065   7.368   1.015  1.5676 -1.9972 -1.4909
  917MOL0     H23745   3.005   7.412   0.853 -0.0524  2.0070  0.0191
  917MOL0     H23746   3.082   7.568   1.208 -0.8423 -0.5657  1.2550
  917MOL0     H23747   3.066   7.859   1.245 -0.3910 -0.9735 -2.4141
  917MOL0     H23748   2.888   7.891   1.221 -1.4863  0.6599  1.3636
  917MOL0     H23749   3.014   7.678   1.393 -1.0781  0.6440  0.6389
  917MOL0     H23750   2.840   7.688   1.377 -0.4619  0.8727 -1.2645
  917MOL0     H23751   2.824   7.920   1.465 -1.8377 -3.0164 -0.5593
  917MOL0     H23752   3.000   7.918   1.491  0.1872 -0.2597 -2.3336
  917MOL0     H23753   2.907   7.897   1.692  2.4484  1.2513 -1.2437
  917MOL0     H23754   2.965   7.732   1.663 -0.3404  0.0311  0.0389
  917MOL0     H23755   2.851   7.748   1.894 -0.0670  0.8253  2.6047
  917MOL0     H23756   2.835   7.738   2.141  0.1651  0.2897  1.5690
  917MOL0     H23757   2.757   7.894   2.165  1.3835  0.2443  1.3685
  917MOL0     H23758   2.673   7.739   2.206  0.2238 -0.9727 -1.3214
  917MOL0     H23759   2.257   8.110   2.140 -1.8419  3.9602  0.4636
  917MOL0     H23760   2.048   8.181   2.236 -2.6600  0.2004  0.3815
  917MOL0     H23761   1.629   8.002   2.324 -0.0975 -0.2640  3.0716
  917MOL0     H23762   1.716   7.878   2.233 -1.8647  0.2776  0.2640
  917MOL0     H23763   1.827   7.828   2.458  0.8856  0.8977 -0.2130
  917MOL0     H23764   1.716   7.936   2.528 -0.9851  2.0490 -2.2180
  917MOL0     H23765   1.619   7.691   2.538 -1.3975 -1.7669 -1.4173
  917MOL0     H23766   1.642   7.682   2.361 -0.1917  1.5020 -1.5669
  917MOL0     H23767   1.441   7.852   2.534  3.1830  0.7598  0.7105
  917MOL0     H23768   1.453   7.872   2.366 -2.9072 -0.1754  1.4583
  917MOL0     H23769   1.387   7.626   2.332  0.9618  0.3842 -0.2852
  917MOL0     H23770   1.266   7.734   2.399  0.1911 -1.3831 -2.1540
  917MOL0     H23771   1.436   7.543   2.555  1.1003  1.5856 -0.1737
  917MOL0     H23772   1.326   7.650   2.635  1.9589 -4.0236  2.8862
  917MOL0     H23773   1.271   7.431   2.430  0.0560  0.3582 -0.9734
  917MOL0     H23774   1.140   7.533   2.494 -0.1519  0.0445 -0.1904
  917MOL0     H23775   1.179   7.461   2.719  2.0115  1.5081 -0.8744
  917MOL0     H23776   1.326   7.373   2.671  0.9549  0.6706 -0.6124
  917MOL0     H23777   1.930   7.761   2.261 -1.2247  0.7165 -1.5822
  917MOL0     H23778   2.119   7.707   2.147 -3.8004  0.1553  0.4527
  917MOL0     H23779   2.375   7.850   1.845  0.2703  0.9263  0.1210
  917MOL0     H23780   2.511   7.811   1.652  1.5660  1.5953 -1.3969
  917MOL0     H23781   4.084   7.732   1.095  1.1127  0.7698 -1.2215
  917MOL0     H23782   4.327   7.762   1.050  0.9728  0.5162  1.2159
  917MOL0     H23783   4.750   7.640   1.175 -0.6851  0.3574 -0.2696
  917MOL0     H23784   4.958   7.687   1.149 -1.6521 -0.3259  0.6465
  917MOL0     H23785   5.176   7.695   1.123 -0.9029  1.5074  1.4820
  917MOL0     H23786   5.302   7.693   1.013 -0.9957 -2.4301 -0.9662
  917MOL0     H23787   5.237   7.950   1.046 -0.7920  0.7838  0.7731
  917MOL0     H23788   5.071   7.905   1.039  0.2553  1.9606 -1.1149
  917MOL0     H23789   5.175   8.026   0.836  1.5151 -0.0472 -3.6546
  917MOL0     H23790   5.056   7.907   0.810 -0.7671  1.0123  4.5720
  917MOL0     H23791   5.248   7.868   0.645 -1.9004 -3.6872 -0.8444
  917MOL0     H23792   5.264   7.745   0.767  0.6061 -0.2489 -0.8141
  917MOL0     H23793   5.560   7.934   0.949 -0.6806  2.1487  0.2311
  917MOL0     H23794   4.963   7.598   0.732  0.7775 -0.2090 -0.1768
  917MOL0     H23795   4.710   7.565   0.752 -0.8046  2.6567 -0.2748
  918MOL0     O23796   1.292   9.746   7.108  0.8405 -0.3310  0.8791
  918MOL0     C23797   1.296   9.770   7.229  0.2773  0.6861  0.2512
  918MOL0     O23798   1.239   9.695   7.331  0.4642 -0.3158 -0.3737
  918MOL0     C23799   1.175   9.583   7.302 -0.4336  0.9347 -0.1446
  918MOL0     C23800   1.093   9.564   7.189 -1.3213 -0.0057 -0.1271
  918MOL0     C23801   1.028   9.441   7.160 -0.8425 -0.0476 -0.8287
  918MOL0     C23802   1.063   9.330   7.240  0.1976  0.5243  0.2350
  918MOL0     O23803   1.024   9.203   7.218 -0.0947  0.5188 -0.3628
  918MOL0     C23804   0.995   9.152   7.084  0.1773  0.0661 -0.5049
  918MOL0     C23805   0.997   9.002   7.077  0.6824  0.2301  0.0231
  918MOL0     C23806   1.138   8.962   7.131  0.8989  0.4278  0.6345
  918MOL0     C23807   1.203   8.855   7.047  0.4057  0.2874 -0.5061
  918MOL0     C23808   1.332   8.792   7.106  0.0669  0.0201 -0.3808
  918MOL0     C23809   1.434   8.889   7.161  0.2106 -0.2140  0.0977
  918MOL0     C23810   1.494   8.987   7.063 -0.4333  0.1598  0.2705
  918MOL0     C23811   1.648   9.018   7.076  0.1283  0.2426 -0.6044
  918MOL0     N23812   1.730   8.894   7.030  0.0292  0.1048  0.4722
  918MOL0     C23813   1.862   8.889   6.998 -0.6309  0.0566 -0.3057
  918MOL0     C23814   1.893   8.762   6.953 -0.1372 -0.2040  0.4622
  918MOL0     C23815   2.023   8.701   6.909  0.1370  0.0119  1.4193
  918MOL0     C23816   2.081   8.776   6.783 -0.2779  0.1189  0.7281
  918MOL0     C23817   2.038   8.730   6.644  0.2705  0.4731  0.1319
  918MOL0     C23818   2.037   8.584   6.620 -0.0462  0.8470 -0.2714
  918MOL0     O23819   1.917   8.530   6.672 -0.3493  0.0654 -0.1334
  918MOL0     C23820   1.894   8.396   6.662  0.2032  0.6423 -0.7845
  918MOL0     C23821   1.771   8.354   6.713 -0.5003  0.0767 -0.3492
  918MOL0     C23822   1.708   8.235   6.681  0.5911 -0.3247 -0.1091
  918MOL0     C23823   1.573   8.202   6.743 -0.4090  0.3680 -0.1954
  918MOL0     C23824   1.794   8.131   6.623  0.0561 -0.0457 -0.3103
  918MOL0     C23825   1.757   7.994   6.595  0.1726  0.2048 -0.1031
  918MOL0     O23826   1.624   7.964   6.618  0.0409  0.5362  0.2104
  918MOL0     C23827   1.566   7.839   6.615 -0.3190  0.3082  0.7346
  918MOL0     C23828   1.435   7.836   6.642  0.5138  0.1223 -0.0533
  918MOL0     C23829   1.357   7.718   6.633 -0.5057  0.1829  0.0583
  918MOL0     C23830   1.422   7.607   6.582 -0.7249  0.4821 -0.2718
  918MOL0     O23831   1.344   7.496   6.590  0.6354  0.7488  0.1358
  918MOL0     C23832   1.411   7.367   6.550 -0.0562 -0.3473  0.1306
  918MOL0     C23833   1.316   7.244   6.555  0.4651 -0.3048 -0.1768
  918MOL0     C23834   1.229   7.260   6.672  0.3220  0.0209 -0.8257
  918MOL0     C23835   1.118   7.159   6.681 -0.7314 -0.0346  0.3936
  918MOL0     C23836   1.062   7.150   6.819  0.0657  0.1496 -0.0023
  918MOL0     C23837   0.922   7.080   6.836  0.0354  0.1979  0.6917
  918MOL0     C23838   0.913   6.962   6.734 -0.0872 -0.5241 -0.4277
  918MOL0     C23839   0.816   6.856   6.777  0.0819  0.3128 -0.3964
  918MOL0    Cl23840   0.657   6.884   6.701 -0.2320  0.4628 -0.2570
  918MOL0     C23841   1.559   7.604   6.565 -0.0392  0.7148 -0.4539
  918MOL0     C23842   1.633   7.721   6.581 -0.0435 -0.0629  0.2381
  918MOL0     O23843   1.849   7.916   6.577  0.6444  0.7318  0.5326
  918MOL0     C23844   1.922   8.175   6.580  0.0855 -0.5393  0.2222
  918MOL0     C23845   1.967   8.304   6.587  0.7178 -0.2782 -1.3689
  918MOL0     N23846   1.770   8.698   6.965  0.7647 -0.1692 -0.1564
  918MOL0     N23847   1.681   8.772   7.010  0.5778  0.8239 -0.1887
  918MOL0     C23848   1.137   9.354   7.359 -0.1715  0.2084 -0.9303
  918MOL0     C23849   1.188   9.480   7.392  0.6810 -0.1388 -0.1180
  918MOL0     C23850   1.363   9.890   7.271  0.0218 -0.4213 -0.8560
  918MOL0     C23851   1.353   9.941   7.400  0.8715 -0.0288 -0.2362
  918MOL0     C23852   1.418  10.055   7.450  0.4756 -0.0619  0.6716
  918MOL0     C23853   1.497  10.132   7.364 -0.2464  1.2880  0.9734
  918MOL0     O23854   1.559  10.235   7.419 -0.3257 -0.3078  0.1681
  918MOL0     C23855   1.638  10.328   7.341  0.1414  1.0376 -0.2630
  918MOL0     C23856   1.752  10.384   7.426  0.1306 -0.1472  0.6052
  918MOL0     C23857   1.872  10.294   7.457  0.2121 -0.2584  0.5085
  918MOL0     C23858   1.838  10.197   7.566  1.0384  0.1612  0.9985
  918MOL0     C23859   1.950  10.118   7.615 -0.5090 -0.3695 -0.2012
  918MOL0     C23860   2.045  10.058   7.659  0.4581  0.0922  0.8646
  918MOL0     C23861   1.502  10.092   7.223 -0.4421 -0.1529 -0.3221
  918MOL0     C23862   1.437   9.976   7.181  0.7450  0.7036 -0.5555
  918MOL0     H23863   1.074   9.641   7.115  0.0864  1.1309  0.6563
  918MOL0     H23864   0.967   9.436   7.070  1.1783 -0.8329 -2.2470
  918MOL0     H23865   0.892   9.180   7.059 -0.8954 -1.6766  1.6401
  918MOL0     H23866   1.062   9.190   7.007  0.3273  0.9817  0.0702
  918MOL0     H23867   0.923   8.962   7.146  1.0092  1.2728  1.0065
  918MOL0     H23868   0.975   8.979   6.972  0.8347  0.5187 -0.0749
  918MOL0     H23869   1.202   9.050   7.127 -0.4649  1.4577  0.4497
  918MOL0     H23870   1.125   8.927   7.233 -1.1059  2.0433  0.9966
  918MOL0     H23871   1.138   8.771   7.021  2.1997 -1.2246 -0.3735
  918MOL0     H23872   1.229   8.898   6.949 -0.6350 -0.7552 -1.2741
  918MOL0     H23873   1.307   8.736   7.196  0.9625  0.3245  0.0655
  918MOL0     H23874   1.370   8.721   7.031  1.3769 -0.2852  0.5358
  918MOL0     H23875   1.394   8.947   7.245  0.2343 -1.0675  0.7130
  918MOL0     H23876   1.515   8.830   7.205  3.1355  4.3986  1.6129
  918MOL0     H23877   1.479   8.966   6.956 -0.0793 -0.0499  0.2580
  918MOL0     H23878   1.456   9.087   7.084 -1.1949  0.4597 -2.1696
  918MOL0     H23879   1.667   9.039   7.181 -1.3311 -1.7966  0.1346
  918MOL0     H23880   1.672   9.104   7.013  0.2916  0.7186  0.1070
  918MOL0     H23881   1.929   8.970   7.024  0.1958 -1.8409  4.6229
  918MOL0     H23882   2.091   8.716   6.993 -0.6252  0.2764  1.9950
  918MOL0     H23883   2.025   8.591   6.914 -0.7951  0.0150  1.9811
  918MOL0     H23884   2.189   8.761   6.777 -0.3761 -0.5300  0.5324
  918MOL0     H23885   2.061   8.884   6.793  0.0805  0.1429  1.2225
  918MOL0     H23886   2.105   8.780   6.573  0.2341  0.6014  0.1894
  918MOL0     H23887   1.943   8.779   6.626  0.0729 -0.2288 -0.8300
  918MOL0     H23888   2.120   8.531   6.667  0.2086  3.4067  2.4129
  918MOL0     H23889   2.034   8.551   6.516 -2.6779  0.5295 -0.1731
  918MOL0     H23890   1.707   8.428   6.760 -0.5804  1.3482 -2.3535
  918MOL0     H23891   1.583   8.104   6.790 -0.1585 -0.3543 -1.7263
  918MOL0     H23892   1.535   8.277   6.814 -0.3990  0.7099 -0.5504
  918MOL0     H23893   1.507   8.194   6.656  1.3334  0.7219 -1.5828
  918MOL0     H23894   1.379   7.924   6.673 -2.8773 -2.1199  0.8437
  918MOL0     H23895   1.252   7.712   6.657 -0.1444  0.1796  1.7362
  918MOL0     H23896   1.427   7.371   6.441 -0.3366 -2.4412 -0.0301
  918MOL0     H23897   1.505   7.353   6.606  0.6780  3.7864  0.1889
  918MOL0     H23898   1.255   7.238   6.465 -0.4989  3.2668  0.0924
  918MOL0     H23899   1.379   7.155   6.559  0.0885 -0.6752 -1.8069
  918MOL0     H23900   1.182   7.358   6.674 -1.0410 -0.6317  0.1834
  918MOL0     H23901   1.290   7.243   6.761 -0.0515 -0.6400 -0.6860
  918MOL0     H23902   1.032   7.176   6.614 -1.1941 -0.2600  0.9240
  918MOL0     H23903   1.175   7.073   6.647  1.2383  0.7538  1.5603
  918MOL0     H23904   1.051   7.246   6.872 -2.5177 -0.2502  0.3206
  918MOL0     H23905   1.134   7.088   6.874  0.3290  0.1615 -0.3342
  918MOL0     H23906   0.896   7.054   6.939  1.1786  1.5946  1.3688
  918MOL0     H23907   0.838   7.145   6.808  0.0666  1.2458  2.8420
  918MOL0     H23908   1.010   6.911   6.736  0.0039 -0.3692 -0.8065
  918MOL0     H23909   0.883   7.002   6.637 -1.3896  0.8050  0.4790
  918MOL0     H23910   0.813   6.849   6.886 -1.3090  1.6100 -0.3256
  918MOL0     H23911   0.852   6.759   6.741  0.7112 -1.2667  3.9177
  918MOL0     H23912   1.613   7.514   6.539 -1.3240 -0.7316  1.5161
  918MOL0     H23913   1.738   7.715   6.553  0.2748  1.7457  0.9233
  918MOL0     H23914   1.985   8.102   6.530  1.8630  1.3668 -0.4715
  918MOL0     H23915   2.055   8.322   6.526  0.6846  1.4130 -0.9754
  918MOL0     H23916   1.157   9.277   7.432 -0.4550  0.6941 -0.3383
  918MOL0     H23917   1.246   9.485   7.483  0.2826  0.1562  0.1232
  918MOL0     H23918   1.291   9.884   7.468 -0.1818  0.3069 -0.8970
  918MOL0     H23919   1.421  10.079   7.555  2.5014  0.0337  0.6221
  918MOL0     H23920   1.679  10.272   7.256 -0.0208  0.7976 -0.1863
  918MOL0     H23921   1.576  10.412   7.308 -0.7061  0.9069  0.9216
  918MOL0     H23922   1.721  10.442   7.513  2.8943 -1.7622  2.8033
  918MOL0     H23923   1.786  10.455   7.350  1.4289  1.5949  2.7129
  918MOL0     H23924   1.955  10.362   7.478 -2.2633  3.2447 -0.1074
  918MOL0     H23925   1.886  10.232   7.368 -1.5525  2.3427 -1.7786
  918MOL0     H23926   1.770  10.125   7.521  0.0905 -0.3278  3.0670
  918MOL0     H23927   1.789  10.245   7.652  0.3561  2.0378 -0.3830
  918MOL0     H23928   2.114   9.995   7.711 -1.1645 -0.2522  2.7239
  918MOL0     H23929   1.545  10.145   7.139  1.7444 -1.4560 -0.0915
  918MOL0     H23930   1.429   9.942   7.078  1.0328  2.5975 -1.2465
  919MOL0     O23931   4.936   6.926  11.165 -0.1106  0.0434 -0.3655
  919MOL0     C23932   4.912   6.812  11.137  0.4643 -1.0098 -0.7463
  919MOL0     O23933   4.995   6.704  11.166  0.8710 -0.3218 -0.0674
  919MOL0     C23934   5.112   6.718  11.227 -0.2679  0.0137  0.0282
  919MOL0     C23935   5.206   6.812  11.202 -0.1244  0.1042 -0.3380
  919MOL0     C23936   5.333   6.790  11.257  0.1151 -0.1088  0.0946
  919MOL0     C23937   5.362   6.689  11.348  0.3064  0.1786 -0.0132
  919MOL0     O23938   5.484   6.686  11.398 -0.4612  0.7393 -0.1881
  919MOL0     C23939   5.522   6.603  11.511 -0.2041  0.5678  0.3603
  919MOL0     C23940   5.555   6.468  11.458  0.5125  0.7856 -0.5422
  919MOL0     C23941   5.549   6.362  11.570  0.2325 -0.0878  0.0225
  919MOL0     C23942   5.402   6.312  11.589 -0.3250  0.3836  0.2049
  919MOL0     C23943   5.402   6.204  11.698  0.4128 -0.9289  0.4730
  919MOL0     C23944   5.426   6.261  11.840  0.2142 -0.0239 -0.7478
  919MOL0     C23945   5.378   6.171  11.962 -0.4251  0.7193  0.0358
  919MOL0     C23946   5.229   6.204  11.991  0.8397  0.1799 -0.0016
  919MOL0     N23947   5.190   6.118  12.112  0.3933  0.3670  1.0190
  919MOL0     C23948   5.147   5.990  12.103  0.7644  0.8389 -0.4166
  919MOL0     C23949   5.115   5.967  12.239 -0.4572  0.1499  0.5898
  919MOL0     C23950   5.044   5.846  12.297  0.4235 -1.0011  0.2098
  919MOL0     C23951   4.927   5.812  12.201  0.5328  0.1441 -0.0664
  919MOL0     C23952   4.817   5.914  12.202 -0.2080  0.0841 -0.3411
  919MOL0     C23953   4.770   5.985  12.331 -0.3856  0.0353  0.8293
  919MOL0     O23954   4.717   5.890  12.421  0.4671  0.3729 -0.8121
  919MOL0     C23955   4.582   5.913  12.469  0.0755 -0.6001 -0.0016
  919MOL0     C23956   4.543   6.038  12.516 -0.2741  0.3328 -0.1427
  919MOL0     C23957   4.421   6.068  12.574  0.0368 -0.3930 -0.6204
  919MOL0     C23958   4.408   6.216  12.636  0.2483  0.3947 -0.0867
  919MOL0     C23959   4.325   5.961  12.572 -0.2398  0.0659  0.5707
  919MOL0     C23960   4.185   5.967  12.626 -0.4950 -0.0081 -0.7376
  919MOL0     O23961   4.115   5.856  12.665 -0.6359 -0.4464 -0.5089
  919MOL0     C23962   3.984   5.863  12.697  0.0812 -0.1555 -0.5460
  919MOL0     C23963   3.893   5.953  12.654  0.2895  0.6681  0.1950
  919MOL0     C23964   3.764   5.949  12.711  0.1352  0.3080  0.2946
  919MOL0     C23965   3.720   5.858  12.811  0.5084  0.0890  0.0912
  919MOL0     O23966   3.590   5.874  12.860 -0.0272  0.5643  0.3226
  919MOL0     C23967   3.523   5.748  12.894  0.2632  0.1166  0.4163
  919MOL0     C23968   3.378   5.797  12.907  0.4032  1.0002  0.4164
  919MOL0     C23969   3.284   5.689  12.872 -0.0592  0.5406 -0.2321
  919MOL0     C23970   3.143   5.726  12.895  0.2931 -0.8656 -0.5404
  919MOL0     C23971   3.052   5.623  12.855  0.9307  0.8469  0.0210
  919MOL0     C23972   2.906   5.643  12.904 -0.2955 -0.6384 -0.5441
  919MOL0     C23973   2.825   5.525  12.866 -0.1264  0.8474  0.1838
  919MOL0     C23974   2.689   5.520  12.920 -0.0977  0.7005  0.5219
  919MOL0    Cl23975   2.610   5.367  12.886  0.0693  0.1624  0.5290
  919MOL0     C23976   3.817   5.768  12.853  0.5786 -0.6171 -0.5471
  919MOL0     C23977   3.948   5.772  12.797  0.1891  0.0515  0.1416
  919MOL0     O23978   4.146   6.081  12.631  0.0113 -0.0949  0.4865
  919MOL0     C23979   4.359   5.828  12.528  0.9782 -0.3999 -0.1471
  919MOL0     C23980   4.489   5.813  12.482 -0.2682 -0.3333 -0.2924
  919MOL0     N23981   5.158   6.072  12.314  0.5084  0.4128  0.6144
  919MOL0     N23982   5.204   6.164  12.236 -0.4568  0.2254 -0.4155
  919MOL0     C23983   5.267   6.594  11.369  0.3747 -0.0925  0.2891
  919MOL0     C23984   5.139   6.607  11.305  0.4541 -0.6696  0.5158
  919MOL0     C23985   4.773   6.779  11.099  0.4152  0.2253  0.1411
  919MOL0     C23986   4.723   6.651  11.113 -1.4788 -0.0733  0.0725
  919MOL0     C23987   4.592   6.625  11.086  0.1540 -0.1116 -0.4052
  919MOL0     C23988   4.500   6.727  11.062 -0.6062  0.3677  0.2978
  919MOL0     O23989   4.369   6.688  11.052  0.8856  0.2939  0.0136
  919MOL0     C23990   4.292   6.774  10.962 -0.9633 -0.5826  0.6517
  919MOL0     C23991   4.152   6.722  10.936 -0.3667  0.2282 -0.8635
  919MOL0     C23992   4.043   6.797  11.012  0.5391 -0.6871 -0.7297
  919MOL0     C23993   3.908   6.753  10.960 -0.0163 -0.9730 -0.1393
  919MOL0     C23994   3.885   6.610  10.950 -0.4173 -0.1409 -0.3585
  919MOL0     C23995   3.867   6.493  10.961 -0.1510 -0.1143 -0.5462
  919MOL0     C23996   4.547   6.865  11.053  0.8731  0.2363  0.0669
  919MOL0     C23997   4.683   6.885  11.067 -0.1277  0.1100  0.4174
  919MOL0     H23998   5.196   6.895  11.133 -1.4056  1.0425  0.9281
  919MOL0     H23999   5.412   6.862  11.239 -0.9366  1.2189  0.5400
  919MOL0     H24000   5.606   6.653  11.559  0.4023  0.9410 -1.0243
  919MOL0     H24001   5.443   6.588  11.585 -0.8404  1.4838 -0.1109
  919MOL0     H24002   5.485   6.450  11.376 -1.3217  1.3518  0.8304
  919MOL0     H24003   5.655   6.458  11.414  0.0079  0.1179 -1.5802
  919MOL0     H24004   5.603   6.273  11.537 -1.2848 -2.5019  3.4854
  919MOL0     H24005   5.598   6.403  11.660  0.6870  0.3725 -0.4284
  919MOL0     H24006   5.338   6.398  11.609 -1.0780  0.1483 -1.0343
  919MOL0     H24007   5.370   6.268  11.494 -1.0889  0.5217  0.3886
  919MOL0     H24008   5.306   6.153  11.700  0.5130 -1.0990  1.3122
  919MOL0     H24009   5.475   6.132  11.661 -1.0412 -0.0163 -5.1499
  919MOL0     H24010   5.535   6.266  11.855 -0.0999 -0.2523  1.9713
  919MOL0     H24011   5.394   6.365  11.844 -0.0080 -0.0907 -0.8007
  919MOL0     H24012   5.377   6.064  11.942  0.4195  0.8958 -1.0328
  919MOL0     H24013   5.447   6.192  12.044  0.6063  1.3341 -0.9498
  919MOL0     H24014   5.170   6.177  11.903 -0.2629  1.8075  0.1987
  919MOL0     H24015   5.225   6.313  11.999  3.7909  0.4499 -0.9312
  919MOL0     H24016   5.126   5.927  12.018 -0.8636  0.2247  0.3971
  919MOL0     H24017   5.118   5.766  12.288  1.7024  0.2670 -1.1251
  919MOL0     H24018   5.017   5.854  12.402 -0.5992 -0.6575 -0.0658
  919MOL0     H24019   4.896   5.717  12.246 -0.3372 -0.8269 -2.5552
  919MOL0     H24020   4.960   5.799  12.098  1.4616  1.1509  0.0870
  919MOL0     H24021   4.734   5.859  12.157  1.0773 -0.1883 -2.5564
  919MOL0     H24022   4.855   5.986  12.128 -1.8764  0.5244 -0.8154
  919MOL0     H24023   4.683   6.042  12.298 -0.8132 -1.5719 -0.9644
  919MOL0     H24024   4.858   6.040  12.367 -0.5329  0.4944  0.4894
  919MOL0     H24025   4.624   6.110  12.505 -1.3130  1.7779  1.2264
  919MOL0     H24026   4.370   6.199  12.738  0.5331 -0.0259 -0.0442
  919MOL0     H24027   4.501   6.273  12.630  1.4516 -1.5043 -0.5557
  919MOL0     H24028   4.321   6.258  12.585  0.5401 -0.2277 -1.1244
  919MOL0     H24029   3.901   6.019  12.569  1.1626 -1.8528 -1.7855
  919MOL0     H24030   3.698   6.027  12.676 -0.6405 -1.0001 -1.2675
  919MOL0     H24031   3.533   5.671  12.817  1.2478 -0.0638  0.6998
  919MOL0     H24032   3.568   5.699  12.981  2.7620  2.1964  0.4352
  919MOL0     H24033   3.364   5.844  13.004  2.8286  0.9925  0.8147
  919MOL0     H24034   3.360   5.866  12.823  1.7816  0.2664 -0.5232
  919MOL0     H24035   3.316   5.598  12.924  0.0549 -0.0109 -1.2451
  919MOL0     H24036   3.282   5.669  12.765  0.8686 -1.6271  0.0894
  919MOL0     H24037   3.123   5.751  12.999 -1.0322 -0.8105 -0.7940
  919MOL0     H24038   3.121   5.818  12.839  0.1570  0.4509  1.5601
  919MOL0     H24039   3.093   5.523  12.871  0.2861  0.3621 -1.2160
  919MOL0     H24040   3.036   5.618  12.747  0.4554 -0.3215  0.1251
  919MOL0     H24041   2.924   5.640  13.012  1.6774  1.9115 -0.7158
  919MOL0     H24042   2.854   5.734  12.873 -0.0726 -0.6746 -1.0375
  919MOL0     H24043   2.879   5.432  12.887  0.8324  1.5220  0.7578
  919MOL0     H24044   2.814   5.521  12.757 -0.6229 -2.3687  0.2345
  919MOL0     H24045   2.636   5.601  12.869 -1.5016  0.8946  2.1965
  919MOL0     H24046   2.686   5.541  13.027  2.9316  2.1411  0.4119
  919MOL0     H24047   3.796   5.687  12.922 -2.1162 -0.3568 -0.9886
  919MOL0     H24048   4.028   5.709  12.836 -0.9891 -1.1577  0.6574
  919MOL0     H24049   4.284   5.756  12.500  1.6179 -0.2032 -2.5947
  919MOL0     H24050   4.521   5.714  12.452 -2.5652 -1.3121  0.2359
  919MOL0     H24051   5.282   6.503  11.425  0.7323  1.9031  3.6882
  919MOL0     H24052   5.063   6.529  11.311 -0.6322  0.2279 -0.8466
  919MOL0     H24053   4.786   6.567  11.143  0.3453  0.6267 -1.5275
  919MOL0     H24054   4.555   6.523  11.084  1.1177 -0.5549  1.6816
  919MOL0     H24055   4.282   6.877  10.999 -0.5042 -0.4450  0.4000
  919MOL0     H24056   4.353   6.785  10.871  2.1890  1.3288  2.7570
  919MOL0     H24057   4.146   6.619  10.974 -0.9907  0.4396 -0.3603
  919MOL0     H24058   4.131   6.722  10.829 -2.6078 -0.7635 -0.4851
  919MOL0     H24059   4.048   6.904  10.989 -2.3072 -0.6571 -1.5678
  919MOL0     H24060   4.055   6.785  11.120  0.2659 -0.9156 -0.7230
  919MOL0     H24061   3.886   6.792  10.861 -2.0561 -0.1477  0.5829
  919MOL0     H24062   3.835   6.790  11.033 -0.8993 -1.4332 -0.7704
  919MOL0     H24063   3.852   6.388  10.977  1.9377 -0.5138 -0.9461
  919MOL0     H24064   4.484   6.949  11.026 -0.6355 -0.8073  0.2020
  919MOL0     H24065   4.726   6.984  11.059 -1.4800  0.9274  2.4400
  920MOL0     O24066  10.180  10.775   7.940 -0.1405  0.4366  0.0682
  920MOL0     C24067  10.243  10.746   8.044  0.0868 -0.3366  0.4782
  920MOL0     O24068  10.196  10.701   8.163 -0.4950  0.3412  0.2804
  920MOL0     C24069  10.064  10.688   8.180 -0.0163 -0.2122 -0.5613
  920MOL0     C24070   9.975  10.792   8.212  0.8896 -0.2405 -0.0182
  920MOL0     C24071   9.839  10.776   8.247 -0.1930 -0.1039  1.3557
  920MOL0     C24072   9.779  10.655   8.223 -0.4453 -0.0428 -0.0851
  920MOL0     O24073   9.647  10.650   8.237  0.0430  0.5235  0.6028
  920MOL0     C24074   9.565  10.532   8.234 -0.1510  0.2198 -0.3702
  920MOL0     C24075   9.418  10.555   8.248  0.1243  0.1199 -0.7610
  920MOL0     C24076   9.330  10.434   8.203  0.2523 -0.6192 -0.5893
  920MOL0     C24077   9.181  10.461   8.240 -0.8605 -0.1176 -0.2672
  920MOL0     C24078   9.109  10.339   8.203 -0.2003  0.5441  0.7568
  920MOL0     C24079   8.961  10.382   8.230  0.2566  0.2762 -0.1659
  920MOL0     C24080   8.865  10.304   8.143  0.8541 -0.0906 -0.1422
  920MOL0     C24081   8.740  10.383   8.125 -0.1354  0.1782 -0.0423
  920MOL0     N24082   8.633  10.309   8.058  1.6907  0.0349  0.0033
  920MOL0     C24083   8.543  10.235   8.134 -0.4409 -0.1290  0.3856
  920MOL0     C24084   8.439  10.209   8.056 -0.8291  0.6901 -0.4647
  920MOL0     C24085   8.304  10.142   8.082 -0.4827  0.9919  1.1334
  920MOL0     C24086   8.298   9.996   8.045 -0.3934 -0.1946 -0.3586
  920MOL0     C24087   8.176   9.930   8.092  0.1697 -0.3729  0.1592
  920MOL0     C24088   8.047   9.981   8.032  0.2181  0.5136 -0.0493
  920MOL0     O24089   7.934   9.894   8.055 -0.1863  0.2582  0.0181
  920MOL0     C24090   7.812   9.919   7.991  0.0005 -0.1687  0.3121
  920MOL0     C24091   7.731   9.811   7.964  0.3425  0.0834 -0.5434
  920MOL0     C24092   7.602   9.831   7.924  0.3885  0.4875  0.1517
  920MOL0     C24093   7.520   9.709   7.879 -0.5953  0.0131 -0.1263
  920MOL0     C24094   7.558   9.959   7.879  0.1638 -0.1835  0.0668
  920MOL0     C24095   7.422   9.993   7.822  1.2529  0.8307  0.8076
  920MOL0     O24096   7.392  10.121   7.788 -0.2030 -0.1715 -0.1431
  920MOL0     C24097   7.261  10.147   7.756 -0.2036  0.1394 -0.9423
  920MOL0     C24098   7.202  10.114   7.637 -0.1752  0.2976 -0.1309
  920MOL0     C24099   7.060  10.123   7.620  0.1326 -0.0752  0.3196
  920MOL0     C24100   6.989  10.201   7.705  0.0026 -0.3186 -0.0226
  920MOL0     O24101   6.858  10.224   7.682  0.9356  0.7176  0.7530
  920MOL0     C24102   6.789  10.330   7.743 -1.0626  0.1077  0.7418
  920MOL0     C24103   6.669  10.368   7.659 -0.3451  0.8724 -1.0470
  920MOL0     C24104   6.715  10.453   7.545  0.0713  1.3599 -1.0131
  920MOL0     C24105   6.590  10.504   7.473  0.0482 -0.1197  0.4572
  920MOL0     C24106   6.599  10.626   7.383 -1.0074 -0.1305  0.0235
  920MOL0     C24107   6.464  10.689   7.345 -0.2987  0.0081 -0.0272
  920MOL0     C24108   6.480  10.820   7.270  0.8498 -0.2833  0.0659
  920MOL0     C24109   6.345  10.882   7.231 -0.2067  0.3386  0.6675
  920MOL0    Cl24110   6.222  10.767   7.163 -0.3583  0.0090 -0.8817
  920MOL0     C24111   7.051  10.238   7.823 -0.3991 -0.7841 -0.5755
  920MOL0     C24112   7.187  10.215   7.854 -0.0294 -0.1748 -0.1350
  920MOL0     O24113   7.331   9.907   7.846 -0.6027 -0.4917  0.0700
  920MOL0     C24114   7.657  10.060   7.884  0.0841  0.3848  0.1704
  920MOL0     C24115   7.782  10.042   7.939  0.6435  0.0109 -0.5332
  920MOL0     N24116   8.469  10.266   7.937  0.6424 -0.2080 -0.0171
  920MOL0     N24117   8.582  10.324   7.938 -0.4067  0.6208 -0.8895
  920MOL0     C24118   9.863  10.543   8.195  0.6641 -0.3367 -0.6724
  920MOL0     C24119  10.004  10.563   8.185 -0.4060  0.0573  0.2798
  920MOL0     C24120  10.385  10.763   8.025  0.3599  0.5910 -0.3850
  920MOL0     C24121  10.449  10.767   7.903 -0.1502 -0.0737 -0.3024
  920MOL0     C24122  10.590  10.774   7.896  0.5288 -0.6970 -0.8922
  920MOL0     C24123  10.667  10.790   8.012 -0.2282  0.0166 -0.0812
  920MOL0     O24124  10.805  10.789   8.027 -0.6556  0.6218  0.2275
  920MOL0     C24125  10.888  10.814   7.917  0.0144 -0.0971  0.3224
  920MOL0     C24126  10.890  10.972   7.910  0.0414 -0.6801 -0.2308
  920MOL0     C24127  10.960  11.029   8.030  0.3698 -0.0703 -0.3394
  920MOL0     C24128  11.053  11.145   7.983 -0.0355  0.3715  0.3919
  920MOL0     C24129  10.984  11.267   7.957  0.6821 -0.5506 -0.2156
  920MOL0     C24130  10.938  11.380   7.930 -0.5820  0.4752 -0.8116
  920MOL0     C24131  10.604  10.787   8.138 -0.0935  1.0113  0.2403
  920MOL0     C24132  10.466  10.780   8.144 -0.5835  0.6566  0.0422
  920MOL0     H24133  10.012  10.894   8.216 -0.8802  0.5003 -1.0319
  920MOL0     H24134   9.778  10.865   8.256 -1.1800 -0.3234 -1.7448
  920MOL0     H24135   9.575  10.475   8.140  0.1655 -1.0370  0.4015
  920MOL0     H24136   9.585  10.473   8.323 -0.8975 -0.8102 -0.8543
  920MOL0     H24137   9.390  10.566   8.353  1.4994 -0.2705 -0.3324
  920MOL0     H24138   9.388  10.639   8.185 -3.1752  0.0731  0.5475
  920MOL0     H24139   9.340  10.408   8.097 -1.1936 -0.5440 -0.7625
  920MOL0     H24140   9.363  10.351   8.266 -2.7403 -0.4724  1.3253
  920MOL0     H24141   9.167  10.489   8.345  1.6769  0.6819 -0.0592
  920MOL0     H24142   9.155  10.543   8.173 -0.5932  1.1738  1.1307
  920MOL0     H24143   9.130  10.318   8.098 -1.2604 -0.9583  0.8153
  920MOL0     H24144   9.154  10.253   8.255  0.7843 -0.5177 -1.6960
  920MOL0     H24145   8.931  10.387   8.336  1.9327  2.1013  0.2772
  920MOL0     H24146   8.947  10.489   8.211 -3.2854  0.3335  1.8271
  920MOL0     H24147   8.907  10.279   8.045 -1.5693 -1.8443 -0.8212
  920MOL0     H24148   8.843  10.211   8.197 -0.7989 -0.6816 -1.7371
  920MOL0     H24149   8.768  10.474   8.071  0.7497  0.7788  1.3700
  920MOL0     H24150   8.699  10.405   8.224 -4.1395  3.1385 -2.0506
  920MOL0     H24151   8.537  10.223   8.242  0.1323 -2.6849  0.1911
  920MOL0     H24152   8.286  10.146   8.190 -0.4087 -1.2683  1.2659
  920MOL0     H24153   8.226  10.201   8.033 -1.9749 -1.2185  0.7000
  920MOL0     H24154   8.383   9.949   8.096  0.4978  0.5982 -1.0803
  920MOL0     H24155   8.315   9.979   7.938 -0.0772  1.0427 -0.5173
  920MOL0     H24156   8.173   9.942   8.201  2.1565 -2.2463  0.5044
  920MOL0     H24157   8.178   9.821   8.077  0.0891 -0.5611  1.3776
  920MOL0     H24158   8.063   9.997   7.925  0.5469  2.2379  0.2251
  920MOL0     H24159   8.028  10.081   8.074  2.7942  0.7801  0.6233
  920MOL0     H24160   7.758   9.712   8.001  1.2505  0.2033 -0.8592
  920MOL0     H24161   7.589   9.624   7.879  1.2139  1.4042 -0.6599
  920MOL0     H24162   7.434   9.675   7.936  0.3405 -0.6843  0.9106
  920MOL0     H24163   7.483   9.720   7.776  1.2277  2.5986 -0.6131
  920MOL0     H24164   7.261  10.052   7.570  2.1289  0.3359  1.7378
  920MOL0     H24165   7.012  10.076   7.535 -1.8351 -0.3130  1.5175
  920MOL0     H24166   6.760  10.309   7.846 -2.5628  1.8056  0.7049
  920MOL0     H24167   6.856  10.417   7.740  1.3688 -1.5082  3.2568
  920MOL0     H24168   6.609  10.278   7.643  0.1162  0.6701 -1.6843
  920MOL0     H24169   6.606  10.437   7.715  0.1912 -0.2896  1.0740
  920MOL0     H24170   6.780  10.403   7.473  2.4832 -1.0328  2.4722
  920MOL0     H24171   6.768  10.539   7.587 -1.8676  1.6388  1.0656
  920MOL0     H24172   6.545  10.417   7.424  2.1072 -1.6830  1.2082
  920MOL0     H24173   6.514  10.533   7.547 -1.6576  2.7167 -2.1492
  920MOL0     H24174   6.646  10.602   7.288 -1.5171 -1.1050 -0.0001
  920MOL0     H24175   6.656  10.706   7.430  0.1182 -2.1281  2.2481
  920MOL0     H24176   6.411  10.612   7.288  1.8987 -1.1144 -0.6965
  920MOL0     H24177   6.401  10.715   7.431  1.5369 -0.4666  1.5567
  920MOL0     H24178   6.542  10.802   7.182  0.1740  0.7236 -0.6354
  920MOL0     H24179   6.536  10.890   7.331 -2.7104  2.1124  0.8727
  920MOL0     H24180   6.366  10.950   7.148 -0.3462 -3.0645 -2.3967
  920MOL0     H24181   6.297  10.937   7.312 -0.8885 -2.3412  2.2125
  920MOL0     H24182   6.994  10.295   7.896  0.0303  0.3733 -1.1173
  920MOL0     H24183   7.242  10.258   7.937  2.4202  0.1426 -1.8063
  920MOL0     H24184   7.630  10.158   7.845 -0.4107 -0.0583 -0.6231
  920MOL0     H24185   7.853  10.123   7.937  0.9364 -0.2170  0.2110
  920MOL0     H24186   9.820  10.445   8.182 -2.7744  0.7330  1.3609
  920MOL0     H24187  10.066  10.474   8.177 -1.3603 -0.5163 -0.9971
  920MOL0     H24188  10.395  10.744   7.812  0.8002 -0.5408 -0.7695
  920MOL0     H24189  10.633  10.764   7.797 -2.0097  0.5238 -2.2038
  920MOL0     H24190  10.987  10.771   7.937 -0.5538 -2.2425 -1.1462
  920MOL0     H24191  10.857  10.769   7.823  0.4361 -1.5411  0.8488
  920MOL0     H24192  10.788  11.010   7.902 -0.2890 -1.6183 -0.5402
  920MOL0     H24193  10.942  11.008   7.821 -0.4411  2.6003  0.6889
  920MOL0     H24194  11.013  10.952   8.087  0.6604  0.5778  0.2783
  920MOL0     H24195  10.888  11.080   8.095  0.3430  0.7762 -1.0107
  920MOL0     H24196  11.115  11.112   7.899  1.2180 -0.9182  1.7448
  920MOL0     H24197  11.134  11.143   8.057  0.3804 -0.3532 -0.0594
  920MOL0     H24198  10.894  11.476   7.918  0.1989  0.7785 -1.2966
  920MOL0     H24199  10.655  10.791   8.234  0.3286 -1.8863  0.2499
  920MOL0     H24200  10.422  10.798   8.241  0.8987  3.9313  0.2201
  921MOL0     O24201   0.436   7.885   1.566 -0.1548  0.2822 -0.0909
  921MOL0     C24202   0.371   7.920   1.473 -0.1771  0.5886  0.0490
  921MOL0     O24203   0.419   7.994   1.366  0.4210  0.7591 -0.4063
  921MOL0     C24204   0.547   8.030   1.374 -0.0460 -0.0765 -0.0678
  921MOL0     C24205   0.592   8.156   1.431 -0.1396 -0.3849 -0.1169
  921MOL0     C24206   0.732   8.185   1.427  0.5754  0.3603  0.2440
  921MOL0     C24207   0.818   8.096   1.360 -0.9167 -0.0831 -0.5601
  921MOL0     O24208   0.960   8.104   1.342  0.7519 -0.3770 -0.3039
  921MOL0     C24209   1.040   8.146   1.458  0.2123  0.4995 -0.6902
  921MOL0     C24210   1.184   8.093   1.452 -0.0278 -0.4779 -0.1688
  921MOL0     C24211   1.279   8.191   1.372 -0.0446 -0.1458  0.2332
  921MOL0     C24212   1.425   8.152   1.377 -0.0720  0.0478 -1.3183
  921MOL0     C24213   1.483   8.206   1.515 -0.1880  0.3031  0.0059
  921MOL0     C24214   1.626   8.146   1.538 -0.4128  0.6778 -0.1738
  921MOL0     C24215   1.716   8.231   1.621  0.5134  0.1960  0.0975
  921MOL0     C24216   1.871   8.223   1.599  0.1384 -0.3058 -0.2027
  921MOL0     N24217   1.913   8.229   1.459 -0.1950  0.4152  0.0385
  921MOL0     C24218   1.956   8.346   1.399 -0.4094  0.4859 -0.5664
  921MOL0     C24219   2.008   8.314   1.284 -0.8669 -0.1709  0.1091
  921MOL0     C24220   2.091   8.417   1.210  0.2563  0.7166 -0.0099
  921MOL0     C24221   2.133   8.362   1.067  0.2608  0.0701 -0.0069
  921MOL0     C24222   2.014   8.334   0.968  0.6262  0.4537 -0.7011
  921MOL0     C24223   1.938   8.461   0.930 -1.4283  0.4071 -0.3161
  921MOL0     O24224   1.844   8.490   1.036 -0.8583 -0.2619 -0.4590
  921MOL0     C24225   1.715   8.494   0.997 -0.3450 -1.4896 -0.1066
  921MOL0     C24226   1.673   8.572   0.888 -0.3134  0.9040  0.1513
  921MOL0     C24227   1.534   8.580   0.865  0.6087 -0.2599 -1.0186
  921MOL0     C24228   1.493   8.658   0.745  0.3191 -0.5340 -0.2711
  921MOL0     C24229   1.445   8.521   0.957 -0.2233 -0.2541 -0.2512
  921MOL0     C24230   1.299   8.532   0.944 -0.2608 -0.0940 -0.1115
  921MOL0     O24231   1.226   8.431   1.001 -1.0699 -0.2559  0.3868
  921MOL0     C24232   1.089   8.434   0.998 -0.7465 -0.1813  0.2326
  921MOL0     C24233   1.028   8.342   1.084  0.4343 -0.0898 -0.0498
  921MOL0     C24234   0.887   8.337   1.091 -0.2117 -0.1694  0.7381
  921MOL0     C24235   0.809   8.420   1.015 -0.1482 -1.0980 -0.3115
  921MOL0     O24236   0.671   8.402   1.005  1.0008 -0.2541 -0.5151
  921MOL0     C24237   0.611   8.272   1.024 -0.8242 -0.2162  0.2111
  921MOL0     C24238   0.463   8.284   1.020  0.6755  0.4856  0.4609
  921MOL0     C24239   0.414   8.354   1.147 -0.2320  0.3720  0.7185
  921MOL0     C24240   0.259   8.346   1.171 -1.0348  0.9619  0.1675
  921MOL0     C24241   0.213   8.413   1.294  0.4377  0.8873 -0.5613
  921MOL0     C24242   0.049   8.401   1.307 -0.5317 -0.8029  0.5335
  921MOL0     C24243  -0.012   8.456   1.433  0.2535 -1.3464 -0.3145
  921MOL0     C24244  -0.148   8.399   1.461  0.0380 -0.6765 -0.5007
  921MOL0    Cl24245  -0.161   8.228   1.503 -0.0928 -0.1042 -0.3486
  921MOL0     C24246   0.870   8.509   0.925  0.4750 -0.6701  0.2609
  921MOL0     C24247   1.007   8.510   0.913  0.5587 -0.6804 -0.0839
  921MOL0     O24248   1.256   8.635   0.894  0.1062  0.5856  0.5788
  921MOL0     C24249   1.492   8.441   1.055 -0.7881  0.3650  0.0485
  921MOL0     C24250   1.631   8.430   1.087 -0.5578  0.8599  1.1327
  921MOL0     N24251   1.982   8.179   1.265 -0.7739 -0.0535 -0.0004
  921MOL0     N24252   1.921   8.125   1.366 -0.0998  0.5950 -0.3522
  921MOL0     C24253   0.766   7.985   1.304  0.1738  0.0989  0.8286
  921MOL0     C24254   0.638   7.943   1.312 -0.1120  0.3427 -0.2780
  921MOL0     C24255   0.223   7.888   1.482 -1.0088  0.5709 -0.5608
  921MOL0     C24256   0.125   7.971   1.428  0.0379  0.3376 -0.0293
  921MOL0     C24257  -0.003   7.921   1.431  0.7689 -0.2832  0.3610
  921MOL0     C24258  -0.033   7.790   1.470 -0.1404 -0.5103 -0.3578
  921MOL0     O24259  -0.155   7.724   1.466  0.7440 -0.3042  0.7213
  921MOL0     C24260  -0.243   7.798   1.383  1.0339 -0.3522  0.6330
  921MOL0     C24261  -0.374   7.729   1.368  0.1935 -0.1239  0.1131
  921MOL0     C24262  -0.477   7.827   1.312 -0.4269  0.0244 -0.6028
  921MOL0     C24263  -0.597   7.762   1.240 -0.0697  1.0859 -0.1441
  921MOL0     C24264  -0.539   7.695   1.123  0.3118  0.3950 -0.0481
  921MOL0     C24265  -0.486   7.661   1.017  0.2818  0.2244  0.6911
  921MOL0     C24266   0.064   7.719   1.525  0.3402 -0.3344 -0.4798
  921MOL0     C24267   0.193   7.761   1.529 -0.1778  0.3962 -0.3342
  921MOL0     H24268   0.529   8.233   1.475 -0.4367 -0.4240 -0.4671
  921MOL0     H24269   0.780   8.270   1.474 -1.7024  1.9415 -0.1675
  921MOL0     H24270   1.058   8.254   1.471  4.0588 -0.1874  1.4584
  921MOL0     H24271   0.988   8.111   1.548  0.4458 -0.3421 -0.8743
  921MOL0     H24272   1.223   8.056   1.547 -1.0100 -2.0857 -0.3677
  921MOL0     H24273   1.179   7.998   1.398  2.5400  0.7006 -2.8032
  921MOL0     H24274   1.259   8.191   1.264  1.6179  2.6831 -0.1712
  921MOL0     H24275   1.263   8.293   1.409  0.7216  0.0119  0.1327
  921MOL0     H24276   1.429   8.043   1.377  3.8578  0.0177 -0.3964
  921MOL0     H24277   1.487   8.193   1.296  0.8435  1.6494  0.1281
  921MOL0     H24278   1.484   8.315   1.527 -1.4790  0.3983 -0.5771
  921MOL0     H24279   1.434   8.164   1.603 -0.2974 -0.1055 -0.2492
  921MOL0     H24280   1.614   8.051   1.592  2.2439  1.9775  2.9902
  921MOL0     H24281   1.678   8.126   1.445 -1.3851  2.7753 -1.2336
  921MOL0     H24282   1.681   8.332   1.598 -0.4930 -0.4845 -1.5455
  921MOL0     H24283   1.693   8.208   1.725  1.9754  1.6726  0.7885
  921MOL0     H24284   1.904   8.124   1.635  0.3016  0.3235  1.4722
  921MOL0     H24285   1.919   8.305   1.653 -2.6177  1.2182  0.1052
  921MOL0     H24286   1.985   8.443   1.437  0.0070  0.6263 -1.2102
  921MOL0     H24287   2.039   8.512   1.197  1.4987  1.3348 -0.6180
  921MOL0     H24288   2.179   8.435   1.273 -0.0706  0.5617  0.4943
  921MOL0     H24289   2.199   8.277   1.081  2.0385  1.8032  3.4345
  921MOL0     H24290   2.189   8.441   1.016 -0.2937  1.9550  2.1341
  921MOL0     H24291   1.936   8.265   1.002  1.0283 -0.5745 -1.8221
  921MOL0     H24292   2.072   8.290   0.887  1.4852  1.3613 -0.6005
  921MOL0     H24293   1.892   8.441   0.833 -0.0711 -2.1122 -0.5117
  921MOL0     H24294   2.003   8.547   0.913 -1.2593 -0.0871 -2.3966
  921MOL0     H24295   1.749   8.616   0.824  1.2081 -0.6824  0.7960
  921MOL0     H24296   1.581   8.676   0.683  1.1212  0.0266  0.9972
  921MOL0     H24297   1.422   8.613   0.675  0.7820  1.4050 -2.0807
  921MOL0     H24298   1.440   8.752   0.762  0.5248 -0.6922  1.4645
  921MOL0     H24299   1.083   8.269   1.142  0.8102  0.4871  0.3308
  921MOL0     H24300   0.858   8.259   1.160 -0.4859  0.7412  1.6731
  921MOL0     H24301   0.638   8.208   0.940 -1.2078 -0.5486  0.3358
  921MOL0     H24302   0.647   8.222   1.114 -0.6595  0.6635  0.6472
  921MOL0     H24303   0.449   8.346   0.931 -0.3667  0.4994  0.6295
  921MOL0     H24304   0.418   8.185   1.011  0.0513  0.7408  0.7524
  921MOL0     H24305   0.452   8.456   1.143  2.5792 -0.5266  2.0751
  921MOL0     H24306   0.467   8.316   1.235 -1.6156  1.3655  2.0350
  921MOL0     H24307   0.226   8.396   1.079 -1.8238 -1.9396 -1.2327
  921MOL0     H24308   0.222   8.244   1.161  0.3199  0.6028 -1.9431
  921MOL0     H24309   0.246   8.515   1.310 -0.1280  0.8330  1.1600
  921MOL0     H24310   0.244   8.353   1.380 -2.9320  0.9237  0.8449
  921MOL0     H24311   0.006   8.456   1.223  1.8519  2.0756  1.0087
  921MOL0     H24312   0.024   8.294   1.304  3.9478 -2.0431 -0.1489
  921MOL0     H24313  -0.021   8.562   1.410 -1.0041 -1.4325 -0.2690
  921MOL0     H24314   0.057   8.442   1.517 -0.4723  0.7658  0.6923
  921MOL0     H24315  -0.214   8.417   1.375 -1.2439  1.0735  0.7742
  921MOL0     H24316  -0.196   8.450   1.545 -0.4809 -0.7829 -0.7273
  921MOL0     H24317   0.809   8.560   0.851  2.3857 -1.4075 -1.9316
  921MOL0     H24318   1.052   8.568   0.834  0.4076 -3.1145 -2.0829
  921MOL0     H24319   1.425   8.378   1.113 -0.4524 -0.7993 -0.7841
  921MOL0     H24320   1.655   8.375   1.177 -0.8173  0.9048  1.2318
  921MOL0     H24321   0.830   7.921   1.244 -0.0024 -1.4380  2.1974
  921MOL0     H24322   0.608   7.856   1.253 -0.5040  0.3802 -0.1408
  921MOL0     H24323   0.156   8.072   1.403  0.8408  0.9157  3.0074
  921MOL0     H24324  -0.080   7.982   1.386 -0.8980 -2.6619 -0.1809
  921MOL0     H24325  -0.274   7.892   1.430 -0.1597 -0.6703  0.5142
  921MOL0     H24326  -0.198   7.818   1.286 -1.5085 -0.0525 -0.5586
  921MOL0     H24327  -0.415   7.691   1.462  2.0067  1.5332  1.6649
  921MOL0     H24328  -0.364   7.649   1.295 -3.6084 -0.4108 -0.2860
  921MOL0     H24329  -0.425   7.902   1.252 -1.4344  1.1476 -0.1120
  921MOL0     H24330  -0.530   7.885   1.389 -1.5355 -0.2715 -1.1181
  921MOL0     H24331  -0.671   7.839   1.216 -1.6080 -0.1235  0.5052
  921MOL0     H24332  -0.648   7.682   1.293 -0.8632  0.3919 -1.8668
  921MOL0     H24333  -0.438   7.647   0.922 -1.2783  1.5025 -0.3407
  921MOL0     H24334   0.051   7.615   1.555 -0.1617 -0.1173  0.0594
  921MOL0     H24335   0.277   7.699   1.558  1.8080  3.7953  1.7317
  922MOL0     O24336   0.397   2.015   1.020  0.1090  0.6996  0.3819
  922MOL0     C24337   0.364   1.981   0.902 -0.7879 -0.6120 -0.7915
  922MOL0     O24338   0.247   1.997   0.839 -0.3937  0.1604 -0.1876
  922MOL0     C24339   0.139   2.061   0.907  0.0458  0.7776  0.4303
  922MOL0     C24340   0.060   2.135   0.826  0.1482 -0.0794  0.2838
  922MOL0     C24341  -0.050   2.198   0.887  0.6902  0.6442 -0.4734
  922MOL0     C24342  -0.075   2.191   1.023  0.0875 -0.3251  0.2324
  922MOL0     O24343  -0.182   2.266   1.061  0.6687  0.0593  0.3918
  922MOL0     C24344  -0.263   2.231   1.174  0.7761 -0.1241 -0.5513
  922MOL0     C24345  -0.195   2.284   1.306 -0.3090 -0.8890  0.8628
  922MOL0     C24346  -0.308   2.325   1.404 -0.6792  0.3456 -0.6824
  922MOL0     C24347  -0.253   2.430   1.502  0.0459 -0.3420 -0.2587
  922MOL0     C24348  -0.362   2.507   1.572 -0.1419  0.5506 -0.1320
  922MOL0     C24349  -0.441   2.424   1.679  0.0587  0.0797 -0.2731
  922MOL0     C24350  -0.539   2.515   1.741  0.0767 -0.2328  1.1240
  922MOL0     C24351  -0.578   2.471   1.884 -0.1679  0.5560  0.3383
  922MOL0     N24352  -0.680   2.559   1.943 -0.0300 -0.7099 -0.0528
  922MOL0     C24353  -0.668   2.639   2.051  0.8289  0.4694 -0.2845
  922MOL0     C24354  -0.785   2.708   2.060 -0.0025  0.3722 -1.2423
  922MOL0     C24355  -0.834   2.816   2.156 -0.0903  0.7730  0.6888
  922MOL0     C24356  -0.985   2.818   2.146 -0.0284  0.4545  0.4098
  922MOL0     C24357  -1.049   2.915   2.246  0.0667  0.0225 -0.3174
  922MOL0     C24358  -1.201   2.930   2.240  0.4789  0.0790 -0.5484
  922MOL0     O24359  -1.255   2.943   2.370 -0.1704 -0.0239 -0.1645
  922MOL0     C24360  -1.390   2.916   2.389  0.5141 -0.4838 -0.3692
  922MOL0     C24361  -1.431   2.887   2.522  0.4799  0.6054  0.4788
  922MOL0     C24362  -1.566   2.858   2.558 -0.2541  0.5710  0.2786
  922MOL0     C24363  -1.601   2.840   2.708  0.5920  0.6689 -0.4106
  922MOL0     C24364  -1.658   2.849   2.446  0.1373 -0.3840 -0.0880
  922MOL0     C24365  -1.807   2.817   2.467 -0.4663 -0.5794 -0.6873
  922MOL0     O24366  -1.870   2.748   2.366 -0.3626 -1.2440  0.6449
  922MOL0     C24367  -1.999   2.745   2.353  0.4332  0.4337  0.0427
  922MOL0     C24368  -2.055   2.620   2.366 -0.1039 -0.5527  0.8686
  922MOL0     C24369  -2.194   2.609   2.359 -0.7611 -0.5829 -0.4006
  922MOL0     C24370  -2.279   2.717   2.348 -0.3341 -0.6209 -0.2118
  922MOL0     O24371  -2.418   2.692   2.341  0.1965  0.1578 -0.4417
  922MOL0     C24372  -2.507   2.786   2.408  0.1775  0.7772  0.4084
  922MOL0     C24373  -2.637   2.716   2.420  0.2102  0.0274  0.1984
  922MOL0     C24374  -2.741   2.818   2.470  0.9961 -0.2706 -0.6589
  922MOL0     C24375  -2.764   2.934   2.372  0.3579  0.0037 -0.5402
  922MOL0     C24376  -2.897   2.999   2.415  0.1849  0.9960  0.2750
  922MOL0     C24377  -2.888   3.083   2.542  0.2850 -0.2898  0.3318
  922MOL0     C24378  -2.867   3.228   2.505 -0.3392 -0.6554 -1.0162
  922MOL0     C24379  -2.896   3.314   2.627  0.1544  0.6949 -0.2848
  922MOL0    Cl24380  -3.058   3.290   2.697  0.4813  0.1096 -0.2802
  922MOL0     C24381  -2.222   2.845   2.331  0.0479 -0.3914 -0.0358
  922MOL0     C24382  -2.083   2.857   2.327 -0.3663 -0.3903  0.8122
  922MOL0     O24383  -1.858   2.854   2.572 -0.5950  0.0028 -0.1096
  922MOL0     C24384  -1.620   2.873   2.313 -0.4228  0.0059  0.2895
  922MOL0     C24385  -1.484   2.907   2.284  0.5989 -0.2227  0.2018
  922MOL0     N24386  -0.859   2.655   1.953 -0.2862 -0.2880  0.3422
  922MOL0     N24387  -0.797   2.568   1.886  0.1015 -0.3789 -0.5229
  922MOL0     C24388   0.002   2.102   1.101 -0.1589 -0.0567  0.3753
  922MOL0     C24389   0.105   2.036   1.040  0.2064  0.4450  0.3002
  922MOL0     C24390   0.470   1.920   0.822 -0.2964 -0.2171  0.2567
  922MOL0     C24391   0.449   1.893   0.681 -0.0089  0.4722 -0.6014
  922MOL0     C24392   0.557   1.862   0.595  0.3765 -0.1731  0.2105
  922MOL0     C24393   0.687   1.844   0.647 -0.3985  0.1074 -0.6495
  922MOL0     O24394   0.795   1.815   0.563  0.9220  0.1653  0.2947
  922MOL0     C24395   0.880   1.704   0.611  0.7534 -1.4956 -0.4241
  922MOL0     C24396   0.975   1.658   0.507  0.2489 -0.0552 -0.7063
  922MOL0     C24397   0.911   1.578   0.394  0.0508  0.8050 -0.0626
  922MOL0     C24398   1.017   1.537   0.292 -0.0893 -0.3198 -0.2149
  922MOL0     C24399   1.051   1.662   0.212 -0.5843  0.1371 -0.0816
  922MOL0     C24400   1.084   1.768   0.169 -0.4599 -0.4210 -0.3795
  922MOL0     C24401   0.709   1.865   0.780  0.3306 -0.6970 -0.0768
  922MOL0     C24402   0.603   1.895   0.870  0.8126  0.6570 -0.4864
  922MOL0     H24403   0.078   2.154   0.720  7.0648  0.1834  1.0367
  922MOL0     H24404  -0.120   2.257   0.828 -0.0393 -0.0246 -0.2843
  922MOL0     H24405  -0.358   2.282   1.157 -0.0522 -1.7045 -0.8738
  922MOL0     H24406  -0.290   2.125   1.178  1.2862 -0.2305  0.4887
  922MOL0     H24407  -0.121   2.215   1.349  1.5402 -0.8966 -2.1098
  922MOL0     H24408  -0.137   2.371   1.276 -0.5629 -1.5887 -1.9393
  922MOL0     H24409  -0.392   2.372   1.352 -1.4402  1.3246  1.3413
  922MOL0     H24410  -0.347   2.241   1.463 -0.9882  3.1317  3.4329
  922MOL0     H24411  -0.185   2.385   1.575 -0.5003  1.0823  1.1991
  922MOL0     H24412  -0.190   2.497   1.442  0.9303  0.6007  1.6382
  922MOL0     H24413  -0.318   2.589   1.630 -3.9385  0.9571  2.5080
  922MOL0     H24414  -0.437   2.554   1.509  1.5863  0.4968 -2.3495
  922MOL0     H24415  -0.495   2.338   1.639 -0.1256 -0.2764  0.7168
  922MOL0     H24416  -0.370   2.388   1.754  0.3421 -0.3370 -0.7343
  922MOL0     H24417  -0.487   2.611   1.742 -0.4341  0.1561 -1.6786
  922MOL0     H24418  -0.625   2.519   1.674  0.6612 -2.3626  0.1408
  922MOL0     H24419  -0.487   2.484   1.944  1.4169  3.8208 -2.4243
  922MOL0     H24420  -0.612   2.367   1.887  1.6035 -0.1102 -1.3554
  922MOL0     H24421  -0.589   2.644   2.124  0.2386 -1.7860  0.5824
  922MOL0     H24422  -0.816   2.784   2.259 -0.9072 -4.7126 -0.5789
  922MOL0     H24423  -0.780   2.907   2.128  3.0153 -1.5320 -1.3189
  922MOL0     H24424  -1.033   2.722   2.166 -1.9654  0.9528 -1.5541
  922MOL0     H24425  -1.022   2.848   2.048  0.0219  2.0433  0.8617
  922MOL0     H24426  -0.998   3.010   2.232  2.5190 -0.8858  1.6965
  922MOL0     H24427  -1.013   2.886   2.345 -1.8105  1.3624  0.8062
  922MOL0     H24428  -1.245   2.845   2.187 -2.2285  0.7248  0.5360
  922MOL0     H24429  -1.235   3.017   2.182 -2.5204 -0.7909 -0.2463
  922MOL0     H24430  -1.363   2.896   2.605 -1.2397  0.7602  1.9266
  922MOL0     H24431  -1.512   2.829   2.771  0.5302 -0.1605 -0.4583
  922MOL0     H24432  -1.653   2.929   2.746 -0.5223 -0.4025  0.6654
  922MOL0     H24433  -1.663   2.753   2.732 -0.0687  0.6821 -1.9569
  922MOL0     H24434  -1.995   2.534   2.394  2.4217 -0.1390 -2.5519
  922MOL0     H24435  -2.241   2.514   2.382 -1.4460 -0.0813  0.3375
  922MOL0     H24436  -2.479   2.802   2.512  1.1018  2.1258 -0.0231
  922MOL0     H24437  -2.511   2.878   2.349 -1.8151  0.3221 -0.2356
  922MOL0     H24438  -2.668   2.676   2.323  1.2083  1.5460 -0.8071
  922MOL0     H24439  -2.638   2.625   2.480  0.0925  0.5479  0.9916
  922MOL0     H24440  -2.718   2.858   2.569 -0.1651  0.0356 -0.4983
  922MOL0     H24441  -2.834   2.763   2.482  0.6387  0.4435 -0.0931
  922MOL0     H24442  -2.685   3.009   2.365 -0.8284  1.3107 -0.4007
  922MOL0     H24443  -2.783   2.887   2.275 -3.6223  1.7154 -0.7712
  922MOL0     H24444  -2.975   2.926   2.438  0.9691 -0.1217 -0.4983
  922MOL0     H24445  -2.937   3.059   2.333  4.1562  1.7808 -1.3418
  922MOL0     H24446  -2.981   3.068   2.598 -0.8510 -1.6371 -1.7810
  922MOL0     H24447  -2.809   3.034   2.600 -0.1911  0.2152  1.4419
  922MOL0     H24448  -2.929   3.267   2.424  1.5177 -1.3899 -2.8554
  922MOL0     H24449  -2.762   3.245   2.482  0.1823  1.4434  2.2541
  922MOL0     H24450  -2.881   3.420   2.603 -3.2023  1.8896  2.1452
  922MOL0     H24451  -2.824   3.287   2.705 -0.0949 -1.3831 -0.7219
  922MOL0     H24452  -2.276   2.938   2.318 -0.5486 -0.3802  2.2073
  922MOL0     H24453  -2.035   2.952   2.310  0.3495 -0.5611  1.7928
  922MOL0     H24454  -1.693   2.878   2.233 -1.0141  5.4386  0.7721
  922MOL0     H24455  -1.459   2.934   2.182  3.0197  2.6984  1.3907
  922MOL0     H24456  -0.028   2.069   1.200 -0.4880 -2.5764 -0.4864
  922MOL0     H24457   0.158   1.973   1.110  0.1955  2.3516  2.1416
  922MOL0     H24458   0.352   1.912   0.635 -1.2497 -0.6242  1.4065
  922MOL0     H24459   0.527   1.837   0.494  0.8519 -4.6794  0.9696
  922MOL0     H24460   0.945   1.744   0.690 -1.1904  1.0653  0.0100
  922MOL0     H24461   0.818   1.627   0.658 -0.3669 -0.1632  0.3571
  922MOL0     H24462   1.047   1.589   0.551 -0.1188 -0.6360 -0.9959
  922MOL0     H24463   1.035   1.737   0.461  2.6327 -2.9704 -3.0266
  922MOL0     H24464   0.844   1.642   0.336  1.9636  1.0533 -2.1011
  922MOL0     H24465   0.859   1.491   0.437  0.3058  0.0271 -1.2754
  922MOL0     H24466   0.990   1.453   0.228  4.1151  0.4115 -3.3760
  922MOL0     H24467   1.104   1.501   0.348 -2.6539 -1.4100  3.4158
  922MOL0     H24468   1.102   1.867   0.134 -1.5495 -0.1330 -0.1480
  922MOL0     H24469   0.810   1.853   0.817  1.0630 -1.2344 -2.1596
  922MOL0     H24470   0.625   1.905   0.976  0.4259  2.2346 -0.5336
  923MOL0     O24471   4.696   7.632   2.169  0.8875 -0.3525 -0.1230
  923MOL0     C24472   4.783   7.713   2.173 -0.2014 -0.9795 -0.7794
  923MOL0     O24473   4.828   7.798   2.073  0.3060 -0.2550  0.1171
  923MOL0     C24474   4.762   7.809   1.954  0.0856 -0.4118 -0.2922
  923MOL0     C24475   4.624   7.809   1.945  0.1841  0.4941 -0.1902
  923MOL0     C24476   4.557   7.782   1.831 -0.4168  0.0199  0.2867
  923MOL0     C24477   4.626   7.777   1.706  0.2571 -0.9985 -1.0077
  923MOL0     O24478   4.552   7.762   1.599 -0.5116  0.4544  0.2034
  923MOL0     C24479   4.607   7.793   1.471 -0.4895 -0.4034  0.1845
  923MOL0     C24480   4.480   7.815   1.385 -0.2488 -0.6756  0.3580
  923MOL0     C24481   4.391   7.930   1.431  0.3235  0.1218 -0.2441
  923MOL0     C24482   4.282   7.943   1.320  0.0167 -0.4577 -0.8376
  923MOL0     C24483   4.169   8.031   1.377 -0.4628 -0.2762 -0.2247
  923MOL0     C24484   4.094   8.095   1.268  0.2416 -0.8325  0.6139
  923MOL0     C24485   3.991   8.198   1.303  0.2654 -0.1611 -0.4419
  923MOL0     C24486   3.885   8.159   1.407  0.5283  0.9600  1.6268
  923MOL0     N24487   3.763   8.235   1.389  0.4081  0.7527  0.3101
  923MOL0     C24488   3.754   8.371   1.386  0.8516 -0.4506  0.1375
  923MOL0     C24489   3.626   8.394   1.420  0.4077 -0.1757 -0.3571
  923MOL0     C24490   3.558   8.534   1.417 -0.1926  0.3485 -0.4792
  923MOL0     C24491   3.423   8.549   1.335  0.1436  1.0675 -0.4492
  923MOL0     C24492   3.317   8.535   1.447  0.1307 -0.0970 -0.6078
  923MOL0     C24493   3.171   8.540   1.393 -0.4424  0.9158 -0.0830
  923MOL0     O24494   3.154   8.666   1.331 -0.7343  0.2658 -0.2501
  923MOL0     C24495   3.031   8.701   1.277  0.2123 -0.1818 -0.1426
  923MOL0     C24496   2.922   8.612   1.275 -1.0220 -0.5290 -0.1375
  923MOL0     C24497   2.795   8.651   1.230 -0.1627 -0.4592  0.6140
  923MOL0     C24498   2.692   8.547   1.223  0.2290  0.0646  0.6883
  923MOL0     C24499   2.775   8.786   1.192 -0.0725 -0.5444 -0.7042
  923MOL0     C24500   2.638   8.848   1.166  0.2212  0.3570 -0.1618
  923MOL0     O24501   2.529   8.774   1.134 -0.4883  0.5315  0.1710
  923MOL0     C24502   2.406   8.825   1.101  0.5033 -0.8251 -0.3905
  923MOL0     C24503   2.333   8.746   1.008  0.5871  0.8360  0.5309
  923MOL0     C24504   2.198   8.781   0.978  0.3335 -0.3196 -0.5981
  923MOL0     C24505   2.145   8.903   1.033 -0.2446 -0.4835  0.3795
  923MOL0     O24506   2.016   8.955   1.001 -0.1821  0.6139  0.2263
  923MOL0     C24507   1.943   8.872   0.910  0.5478 -0.1917  0.3653
  923MOL0     C24508   1.799   8.916   0.900 -0.3620  0.4472  0.6689
  923MOL0     C24509   1.722   8.890   1.026 -0.6408  0.2281 -0.6400
  923MOL0     C24510   1.584   8.943   1.004  0.6482  0.3713 -0.3564
  923MOL0     C24511   1.496   8.896   1.117 -0.5943  0.4077 -0.7817
  923MOL0     C24512   1.364   8.955   1.096  0.7245 -0.5088 -0.3442
  923MOL0     C24513   1.259   8.878   1.177  0.3589  0.2629  0.2198
  923MOL0     C24514   1.131   8.953   1.196  0.1333  0.0289 -0.4899
  923MOL0    Cl24515   1.136   9.082   1.324 -0.4005  0.7456  0.3723
  923MOL0     C24516   2.214   8.980   1.123 -0.0330 -0.3367  0.2943
  923MOL0     C24517   2.348   8.943   1.145 -0.1711  0.3112  0.3644
  923MOL0     O24518   2.637   8.968   1.176  0.7157  0.0652  0.0487
  923MOL0     C24519   2.887   8.869   1.181 -0.5728  0.1572  0.2423
  923MOL0     C24520   3.019   8.829   1.227  0.0224  0.2158  0.2122
  923MOL0     N24521   3.559   8.276   1.429  0.2722  0.1184  0.0223
  923MOL0     N24522   3.641   8.178   1.423  0.3099  0.4869  0.5985
  923MOL0     C24523   4.761   7.796   1.705 -0.7244 -0.5328 -0.2631
  923MOL0     C24524   4.829   7.812   1.832  0.0173  0.0076 -0.7973
  923MOL0     C24525   4.871   7.706   2.294  0.4272 -0.0650  0.1350
  923MOL0     C24526   4.963   7.809   2.326 -0.5120 -0.4143 -0.3983
  923MOL0     C24527   5.035   7.808   2.448  0.1695 -0.4750 -0.0379
  923MOL0     C24528   5.023   7.693   2.532  0.6860 -0.4278 -0.4834
  923MOL0     O24529   5.085   7.674   2.653 -0.2274  0.0050  0.2965
  923MOL0     C24530   5.161   7.777   2.703 -0.2177 -0.1160 -0.2181
  923MOL0     C24531   5.240   7.728   2.825 -0.1602  0.1594  0.9297
  923MOL0     C24532   5.313   7.844   2.880  0.6741 -0.4782  0.1079
  923MOL0     C24533   5.429   7.789   2.968 -0.5914  0.6368  0.2937
  923MOL0     C24534   5.550   7.760   2.898  0.1453 -1.0884  0.2306
  923MOL0     C24535   5.655   7.739   2.836 -0.5336 -0.4184 -0.3309
  923MOL0     C24536   4.931   7.590   2.502 -0.5359  0.4599 -0.4578
  923MOL0     C24537   4.858   7.594   2.382  0.4576  0.6703  0.3965
  923MOL0     H24538   4.570   7.810   2.039 -3.8767 -1.0594 -2.2750
  923MOL0     H24539   4.450   7.761   1.833 -0.1412 -1.4835  0.6108
  923MOL0     H24540   4.665   7.886   1.468 -0.9261 -0.1485 -0.4209
  923MOL0     H24541   4.674   7.712   1.441 -3.5335 -2.7222 -0.8419
  923MOL0     H24542   4.515   7.842   1.285  2.4755  1.2210  1.6772
  923MOL0     H24543   4.435   7.717   1.373 -3.3242  0.3766  2.2590
  923MOL0     H24544   4.335   7.894   1.518 -4.4443 -2.4534 -3.8492
  923MOL0     H24545   4.453   8.015   1.459 -1.3895  1.5003 -0.4802
  923MOL0     H24546   4.334   7.988   1.235  3.1955  0.5804  1.4831
  923MOL0     H24547   4.236   7.846   1.297  0.2062 -1.1017  1.2485
  923MOL0     H24548   4.108   7.977   1.450  0.7252 -1.4296 -0.0562
  923MOL0     H24549   4.211   8.117   1.431  1.3026 -0.7269 -0.8104
  923MOL0     H24550   4.162   8.150   1.203 -0.9657  1.0156  0.8203
  923MOL0     H24551   4.039   8.018   1.214  0.6964 -1.4223  0.9837
  923MOL0     H24552   4.026   8.294   1.342 -1.7948  0.7868 -0.7774
  923MOL0     H24553   3.946   8.219   1.205  3.0383 -0.6694 -1.9657
  923MOL0     H24554   3.928   8.170   1.506  1.9687  1.1753  0.9947
  923MOL0     H24555   3.854   8.055   1.390  0.8056  1.2493 -1.3167
  923MOL0     H24556   3.827   8.444   1.355  1.3193 -0.0492  2.0662
  923MOL0     H24557   3.555   8.564   1.522  0.6902  1.0775 -0.6413
  923MOL0     H24558   3.632   8.607   1.384  1.2494 -1.0429 -0.4294
  923MOL0     H24559   3.409   8.474   1.257 -0.1203  0.2335  0.3856
  923MOL0     H24560   3.417   8.644   1.281  2.3805  0.2125 -2.3644
  923MOL0     H24561   3.337   8.617   1.516  0.7758 -0.1910 -0.6746
  923MOL0     H24562   3.321   8.439   1.499 -2.8289 -0.2504 -0.5244
  923MOL0     H24563   3.102   8.518   1.475  0.3473  2.7006  1.1261
  923MOL0     H24564   3.160   8.459   1.320 -0.4357  1.0093 -0.1892
  923MOL0     H24565   2.926   8.508   1.306 -0.8505 -1.1799 -2.2058
  923MOL0     H24566   2.618   8.580   1.296  0.0377 -2.4884  1.7464
  923MOL0     H24567   2.654   8.530   1.122  0.4778 -1.0040  0.7541
  923MOL0     H24568   2.735   8.451   1.255  0.8911 -0.6484 -2.0962
  923MOL0     H24569   2.374   8.665   0.948 -2.2637 -0.9131  0.7404
  923MOL0     H24570   2.149   8.720   0.903  0.9747 -1.6441  0.0299
  923MOL0     H24571   1.994   8.897   0.817 -0.4540  1.9508  0.3327
  923MOL0     H24572   1.951   8.764   0.924  0.3786 -0.1753  0.5925
  923MOL0     H24573   1.798   9.018   0.861 -1.8249 -0.0383 -0.6574
  923MOL0     H24574   1.746   8.856   0.826 -1.3412  1.2109  0.7238
  923MOL0     H24575   1.769   8.942   1.110 -1.9045  1.2575 -0.5384
  923MOL0     H24576   1.715   8.783   1.048  1.5584 -0.1355 -1.4363
  923MOL0     H24577   1.578   9.052   1.000  0.2445  0.3172 -1.6015
  923MOL0     H24578   1.545   8.905   0.910  0.4247 -0.0159 -0.1130
  923MOL0     H24579   1.529   8.918   1.218 -0.3260  1.7288 -1.1352
  923MOL0     H24580   1.489   8.787   1.109  2.1227  0.2503 -1.8648
  923MOL0     H24581   1.371   9.060   1.126  1.1303 -0.2212 -1.4095
  923MOL0     H24582   1.343   8.956   0.989  2.7416 -1.0463 -0.7902
  923MOL0     H24583   1.305   8.848   1.272  1.3557  1.3104  0.0903
  923MOL0     H24584   1.224   8.789   1.124 -2.8357 -0.1006  2.6287
  923MOL0     H24585   1.054   8.878   1.217  0.7849 -0.8964 -1.2809
  923MOL0     H24586   1.094   9.000   1.104  2.0121  1.3274 -0.6463
  923MOL0     H24587   2.180   9.071   1.173  0.7979  1.1272 -1.6727
  923MOL0     H24588   2.401   8.997   1.223 -1.1946  0.7478  0.7714
  923MOL0     H24589   2.864   8.962   1.130  2.1012  1.1361  0.6678
  923MOL0     H24590   3.108   8.891   1.226 -0.1263  0.5317 -2.5835
  923MOL0     H24591   4.823   7.790   1.616  1.9679 -2.1218  1.5646
  923MOL0     H24592   4.937   7.817   1.839 -0.1316  1.8556  1.4799
  923MOL0     H24593   4.986   7.886   2.253 -0.0152 -0.2103 -0.0266
  923MOL0     H24594   5.100   7.893   2.466  0.7687 -1.0237  0.4411
  923MOL0     H24595   5.239   7.804   2.631  1.1838 -0.7804  1.0155
  923MOL0     H24596   5.100   7.864   2.730  1.1361  1.3530 -1.6262
  923MOL0     H24597   5.305   7.649   2.788  0.8856  1.5759 -0.4111
  923MOL0     H24598   5.167   7.689   2.896 -0.1420 -0.4814  0.5993
  923MOL0     H24599   5.249   7.910   2.939  2.0572  0.6395  0.4089
  923MOL0     H24600   5.354   7.900   2.795 -1.8463 -1.0013 -1.5775
  923MOL0     H24601   5.401   7.691   3.007 -0.2458  1.3901  2.5767
  923MOL0     H24602   5.455   7.842   3.060  1.6351 -0.9964  0.7021
  923MOL0     H24603   5.734   7.725   2.766  0.1656 -0.3974  0.4353
  923MOL0     H24604   4.907   7.520   2.582  0.0230 -0.8180 -1.3812
  923MOL0     H24605   4.787   7.515   2.363 -0.0375  1.0552  0.6169
  924MOL0     O24606   4.110  10.838   4.343 -0.5240 -0.1244  0.3070
  924MOL0     C24607   4.053  10.747   4.284 -0.5052  0.6866  0.6240
  924MOL0     O24608   4.112  10.628   4.241  0.1301 -0.6084 -0.5316
  924MOL0     C24609   4.243  10.598   4.257  0.9866 -0.1450  0.5329
  924MOL0     C24610   4.338  10.695   4.214 -1.0034 -0.2674  0.8627
  924MOL0     C24611   4.478  10.656   4.206  0.0146  0.0061  0.8216
  924MOL0     C24612   4.516  10.525   4.234  0.3371  0.3012 -0.6303
  924MOL0     O24613   4.652  10.512   4.230  0.7945 -0.3187 -0.2783
  924MOL0     C24614   4.700  10.379   4.235 -0.2951 -0.1166  0.3704
  924MOL0     C24615   4.842  10.376   4.207 -1.1419  0.8944  1.2081
  924MOL0     C24616   4.898  10.231   4.206 -0.0486  0.5316  0.3603
  924MOL0     C24617   5.046  10.243   4.180 -0.8749 -0.7690  0.5506
  924MOL0     C24618   5.103  10.119   4.103 -0.1462 -0.5971 -0.0250
  924MOL0     C24619   5.080   9.985   4.168  0.6807  0.7692  0.4532
  924MOL0     C24620   5.128   9.867   4.073  0.4629 -0.2090  0.0480
  924MOL0     C24621   5.135   9.735   4.160 -0.2464 -0.1820  0.2034
  924MOL0     N24622   5.004   9.699   4.214 -0.2937  0.0597  0.6696
  924MOL0     C24623   4.887   9.673   4.147 -0.4032  0.0924 -0.3695
  924MOL0     C24624   4.791   9.681   4.240  0.1896  0.2963  0.9217
  924MOL0     C24625   4.643   9.656   4.221 -0.4025  0.0356 -1.0493
  924MOL0     C24626   4.580   9.743   4.119 -0.5235  0.1705 -0.6094
  924MOL0     C24627   4.574   9.675   3.975 -0.5519 -0.6982  0.8209
  924MOL0     C24628   4.544   9.772   3.864 -1.2561  0.3671  0.7962
  924MOL0     O24629   4.412   9.829   3.891 -0.5434  0.6828 -0.6684
  924MOL0     C24630   4.307   9.749   3.884  0.3914 -0.7467  0.3518
  924MOL0     C24631   4.304   9.645   3.787  0.1382  0.9984  0.3863
  924MOL0     C24632   4.197   9.555   3.781 -0.0294 -0.6321 -0.0654
  924MOL0     C24633   4.217   9.440   3.681 -0.4196 -0.0664 -0.6254
  924MOL0     C24634   4.079   9.575   3.860 -0.2778  1.0751 -0.2409
  924MOL0     C24635   3.961   9.491   3.863 -0.0778 -0.7797  1.0230
  924MOL0     O24636   3.900   9.455   3.985 -0.4774  0.0416 -0.2320
  924MOL0     C24637   3.784   9.378   3.993  0.1841  0.2472 -0.0499
  924MOL0     C24638   3.775   9.288   4.099  0.5422 -0.0846  0.7502
  924MOL0     C24639   3.661   9.204   4.103  1.0032  0.0729 -0.3289
  924MOL0     C24640   3.545   9.216   4.019 -0.0174 -0.9866 -0.5041
  924MOL0     O24641   3.443   9.129   4.041  0.5336 -0.0592 -0.1158
  924MOL0     C24642   3.310   9.154   3.983  0.2200 -0.9018  1.1292
  924MOL0     C24643   3.224   9.189   4.097 -0.3313  0.3367  0.5075
  924MOL0     C24644   3.084   9.242   4.054  0.0315  1.1699 -0.5471
  924MOL0     C24645   2.985   9.243   4.176  0.5418  0.1536  0.1836
  924MOL0     C24646   2.849   9.307   4.145 -0.4741 -0.1132  0.2610
  924MOL0     C24647   2.770   9.312   4.263  1.0807 -1.1249  0.0716
  924MOL0     C24648   2.639   9.391   4.256  0.0270  0.0846 -0.2029
  924MOL0     C24649   2.566   9.374   4.391 -0.8010 -0.1438 -0.0676
  924MOL0    Cl24650   2.649   9.451   4.525  0.3047 -0.2863 -0.4316
  924MOL0     C24651   3.557   9.308   3.912  1.2037  0.8282  0.0603
  924MOL0     C24652   3.680   9.376   3.901  0.1453 -0.1373  0.3436
  924MOL0     O24653   3.917   9.454   3.759 -0.2646  0.2889  0.4988
  924MOL0     C24654   4.070   9.681   3.942  0.5432  0.1425 -0.6761
  924MOL0     C24655   4.182   9.765   3.963  0.4628  0.1616  0.0356
  924MOL0     N24656   4.851   9.707   4.364 -0.4176 -0.1199  0.2228
  924MOL0     N24657   4.979   9.708   4.345 -0.1647 -0.2061 -0.2802
  924MOL0     C24658   4.419  10.434   4.277  0.3348 -0.2323 -0.1837
  924MOL0     C24659   4.283  10.468   4.287 -0.0322 -0.5873 -0.0739
  924MOL0     C24660   3.911  10.759   4.266  0.9665  0.0027  0.7908
  924MOL0     C24661   3.838  10.884   4.253 -0.5976  0.1444 -0.5660
  924MOL0     C24662   3.704  10.885   4.230  0.6471  0.4320  0.8049
  924MOL0     C24663   3.636  10.763   4.209  0.3705  0.3068  0.3035
  924MOL0     O24664   3.507  10.767   4.158 -0.1883 -0.3387 -0.6295
  924MOL0     C24665   3.441  10.885   4.109  0.5869  0.0999 -0.4137
  924MOL0     C24666   3.301  10.843   4.063  0.0472  1.0690 -0.8155
  924MOL0     C24667   3.214  10.969   4.037 -0.8353  1.2970 -0.7498
  924MOL0     C24668   3.102  10.943   3.940  0.2243  0.0365  0.4417
  924MOL0     C24669   3.044  11.065   3.910  1.0798 -0.5207 -0.4695
  924MOL0     C24670   3.008  11.180   3.896 -0.6686  0.2831 -0.1516
  924MOL0     C24671   3.691  10.644   4.244  0.0983  0.4939 -0.1033
  924MOL0     C24672   3.831  10.645   4.267  0.0923 -0.1397 -0.0369
  924MOL0     H24673   4.314  10.787   4.161  0.4848 -1.4323 -2.0675
  924MOL0     H24674   4.561  10.718   4.171 -0.8064 -0.7602 -2.9955
  924MOL0     H24675   4.682  10.341   4.336 -1.3219  0.7199  0.5194
  924MOL0     H24676   4.650  10.319   4.158 -0.5865  0.0785  0.4069
  924MOL0     H24677   4.846  10.411   4.103 -2.7358 -3.1559 -0.4447
  924MOL0     H24678   4.894  10.430   4.287  2.2680 -2.9514  1.9604
  924MOL0     H24679   4.876  10.181   4.301 -0.3450  1.7781  0.9695
  924MOL0     H24680   4.844  10.180   4.126  0.0341 -0.3469  0.8445
  924MOL0     H24681   5.063  10.321   4.106 -0.4071 -1.6470 -0.2720
  924MOL0     H24682   5.099  10.263   4.274 -1.7290 -1.4038  1.1891
  924MOL0     H24683   5.079  10.130   3.997 -0.6115  2.6732  0.3135
  924MOL0     H24684   5.212  10.121   4.111 -0.1910 -0.5402  0.6586
  924MOL0     H24685   5.146   9.979   4.255 -0.2899 -3.8437  1.1512
  924MOL0     H24686   4.975   9.977   4.196  0.4009  0.1403 -0.6998
  924MOL0     H24687   5.051   9.849   3.997 -0.2374 -0.8852  0.8942
  924MOL0     H24688   5.221   9.883   4.019 -0.6101  3.8978 -0.9604
  924MOL0     H24689   5.213   9.754   4.234  0.3172 -0.4284 -0.3253
  924MOL0     H24690   5.155   9.655   4.088 -1.8271  0.1571 -0.6548
  924MOL0     H24691   4.874   9.639   4.045 -0.5216 -3.6955  0.7355
  924MOL0     H24692   4.635   9.548   4.202  2.1555 -0.1499 -1.4233
  924MOL0     H24693   4.598   9.680   4.317  0.6899  2.9330 -1.1774
  924MOL0     H24694   4.627   9.841   4.118  2.2007 -0.9343  1.9237
  924MOL0     H24695   4.479   9.754   4.159 -0.2093 -2.5572  1.2595
  924MOL0     H24696   4.496   9.599   3.974  0.3734 -1.6869  1.3020
  924MOL0     H24697   4.667   9.622   3.951 -0.7409 -1.0227  0.7946
  924MOL0     H24698   4.560   9.709   3.775 -1.0595 -2.0766  2.4482
  924MOL0     H24699   4.622   9.848   3.859 -0.5310 -0.4187 -0.6958
  924MOL0     H24700   4.384   9.635   3.715 -1.8353  1.7386 -2.0397
  924MOL0     H24701   4.271   9.355   3.724 -0.5260 -0.9706 -2.1802
  924MOL0     H24702   4.123   9.399   3.642 -2.5755  3.6522  0.2193
  924MOL0     H24703   4.279   9.470   3.596  2.2989  1.0203  1.5949
  924MOL0     H24704   3.840   9.281   4.185 -1.2856 -2.6090  2.0445
  924MOL0     H24705   3.656   9.130   4.182 -0.3108  0.4411 -0.0374
  924MOL0     H24706   3.310   9.229   3.904 -0.7168 -0.2840  1.7030
  924MOL0     H24707   3.283   9.061   3.931 -0.1408  1.3941 -3.2265
  924MOL0     H24708   3.210   9.092   4.146  0.7989 -0.3548 -0.5062
  924MOL0     H24709   3.277   9.263   4.158  2.9552 -0.7712 -0.8256
  924MOL0     H24710   3.039   9.187   3.970 -2.2889 -0.4488  1.6106
  924MOL0     H24711   3.091   9.345   4.017 -0.9665  1.4318 -0.0337
  924MOL0     H24712   2.968   9.141   4.212 -1.3386  1.0710  2.0615
  924MOL0     H24713   3.030   9.294   4.261  0.7107 -1.0214  0.8180
  924MOL0     H24714   2.800   9.253   4.063  0.0107 -0.3372  0.1199
  924MOL0     H24715   2.867   9.409   4.109  1.7870 -0.6821 -0.3512
  924MOL0     H24716   2.740   9.213   4.300 -1.3283 -0.5765 -0.2549
  924MOL0     H24717   2.827   9.375   4.332 -0.6341  0.5376  0.0461
  924MOL0     H24718   2.572   9.344   4.184  1.5967  1.1835 -2.4977
  924MOL0     H24719   2.659   9.496   4.230 -1.6407  0.0051 -2.0637
  924MOL0     H24720   2.543   9.268   4.406 -1.0396  0.3087  3.7744
  924MOL0     H24721   2.468   9.422   4.383 -0.5462  0.5404  0.8134
  924MOL0     H24722   3.473   9.315   3.843  0.3415 -1.0561  0.8402
  924MOL0     H24723   3.690   9.445   3.818  1.2317 -1.0023 -0.2769
  924MOL0     H24724   3.974   9.694   3.990  0.5537 -2.9624  0.3949
  924MOL0     H24725   4.164   9.858   4.016  3.8481  1.0653 -0.1888
  924MOL0     H24726   4.463  10.337   4.298 -0.3215 -0.8448 -1.5056
  924MOL0     H24727   4.212  10.391   4.319 -0.2586 -0.7954 -1.0337
  924MOL0     H24728   3.908  10.967   4.265  0.9722 -1.1498 -0.3874
  924MOL0     H24729   3.655  10.978   4.202  2.3699  0.7909 -1.3636
  924MOL0     H24730   3.430  10.959   4.188  1.2464  1.0657 -1.1933
  924MOL0     H24731   3.504  10.930   4.032 -1.0793  2.0742 -0.7307
  924MOL0     H24732   3.259  10.772   4.134  0.4512 -1.1559 -2.6747
  924MOL0     H24733   3.318  10.789   3.969  3.3276  2.1102 -0.9684
  924MOL0     H24734   3.265  11.062   4.012 -1.7595  1.8617 -0.5955
  924MOL0     H24735   3.172  10.991   4.135  1.5107  1.3649  0.3093
  924MOL0     H24736   3.036  10.873   3.992 -0.0425 -1.5190 -1.8321
  924MOL0     H24737   3.137  10.891   3.850  1.3421  1.6076 -0.0747
  924MOL0     H24738   2.993  11.286   3.904  0.2781  0.3246  1.5065
  924MOL0     H24739   3.650  10.544   4.251 -0.1640  0.7082  2.0030
  924MOL0     H24740   3.874  10.547   4.287 -2.7075 -1.4131  0.1494
  925MOL0     O24741   4.654   8.945   5.093  0.1268  0.3934  0.4637
  925MOL0     C24742   4.741   8.986   5.014 -0.9828  1.0250 -1.1096
  925MOL0     O24743   4.781   9.115   4.996  0.0985 -0.3756 -0.3339
  925MOL0     C24744   4.696   9.213   5.051 -0.3160  0.6431 -0.0338
  925MOL0     C24745   4.576   9.246   4.999 -0.7437  0.0396 -0.3734
  925MOL0     C24746   4.497   9.335   5.060  0.0831 -0.2635  0.2357
  925MOL0     C24747   4.537   9.407   5.172  0.6664  0.3707 -0.1749
  925MOL0     O24748   4.466   9.506   5.237 -0.3773 -0.8143  0.1478
  925MOL0     C24749   4.325   9.535   5.199  0.0468  0.3762  0.2619
  925MOL0     C24750   4.265   9.652   5.266  0.1604  0.5742 -0.5248
  925MOL0     C24751   4.340   9.781   5.247 -0.1489 -0.2380  0.7334
  925MOL0     C24752   4.297   9.899   5.331  0.7909  0.8658 -0.6767
  925MOL0     C24753   4.401  10.007   5.336  0.2743  0.1050  0.0600
  925MOL0     C24754   4.332  10.133   5.382 -0.2899  0.2040  0.1389
  925MOL0     C24755   4.421  10.256   5.354  0.2844 -0.7607 -0.2931
  925MOL0     C24756   4.332  10.373   5.377  0.5699 -0.6909  0.3350
  925MOL0     N24757   4.225  10.395   5.271 -0.1690 -0.2176 -0.4346
  925MOL0     C24758   4.241  10.481   5.166 -0.3237  0.0685  0.3233
  925MOL0     C24759   4.114  10.502   5.124  0.2311 -0.7607 -1.0729
  925MOL0     C24760   4.064  10.585   5.012 -0.5234 -0.3737 -0.2581
  925MOL0     C24761   4.023  10.727   5.065  0.6178  0.9821  0.6356
  925MOL0     C24762   3.888  10.719   5.133  0.6032  0.4884 -0.3725
  925MOL0     C24763   3.769  10.699   5.037 -0.4047  0.6091 -0.1901
  925MOL0     O24764   3.761  10.817   4.957  0.2166  0.0192  0.4884
  925MOL0     C24765   3.627  10.833   4.912 -0.4655 -0.3155  0.7510
  925MOL0     C24766   3.554  10.935   4.967  0.1898  0.2932  0.4565
  925MOL0     C24767   3.420  10.967   4.931 -0.2770  0.4469 -0.1197
  925MOL0     C24768   3.374  11.088   5.001  0.3477 -0.1253  0.5168
  925MOL0     C24769   3.351  10.883   4.839  0.1310 -0.1598 -0.3352
  925MOL0     C24770   3.214  10.916   4.787 -0.2716 -0.3527 -0.8016
  925MOL0     O24771   3.160  11.032   4.819  0.3801 -0.0814 -0.1905
  925MOL0     C24772   3.022  11.043   4.815 -0.2567  0.2702 -0.3819
  925MOL0     C24773   2.956  10.978   4.931 -0.2756  0.3032 -0.7115
  925MOL0     C24774   2.812  10.966   4.923 -0.2329 -0.5660  0.5017
  925MOL0     C24775   2.736  11.027   4.814 -0.6759 -0.0702 -0.4245
  925MOL0     O24776   2.598  11.022   4.824  0.7949  0.2320  0.0967
  925MOL0     C24777   2.517  11.086   4.717  0.1039  0.8370  0.4929
  925MOL0     C24778   2.521  11.236   4.725  0.3272 -0.3450  0.4353
  925MOL0     C24779   2.468  11.292   4.855 -0.3092  1.1031  0.0735
  925MOL0     C24780   2.465  11.448   4.854  1.0405 -0.3809  0.4920
  925MOL0     C24781   2.438  11.497   5.002 -0.4823 -0.0063 -0.6054
  925MOL0     C24782   2.490  11.634   5.016  0.5876  0.4783 -0.4825
  925MOL0     C24783   2.418  11.744   4.932 -0.1195 -0.6072  0.1435
  925MOL0     C24784   2.498  11.873   4.932 -0.3493 -0.0241  0.2892
  925MOL0    Cl24785   2.664  11.845   4.887 -0.2861 -0.0292 -0.0969
  925MOL0     C24786   2.810  11.083   4.711 -0.2099 -0.3083  0.3205
  925MOL0     C24787   2.950  11.098   4.714  0.3433  0.5083  0.3546
  925MOL0     O24788   3.165  10.831   4.717  0.0888 -1.0832 -0.2471
  925MOL0     C24789   3.431  10.784   4.777  0.4649  0.5275  0.0296
  925MOL0     C24790   3.568  10.758   4.813  0.0927  0.5560  1.2640
  925MOL0     N24791   4.025  10.422   5.195  0.0530 -0.0871  0.3518
  925MOL0     N24792   4.091  10.355   5.287  0.2011 -0.4389 -0.4027
  925MOL0     C24793   4.666   9.389   5.219  0.4169  0.1395 -1.0291
  925MOL0     C24794   4.745   9.289   5.161  0.8045  0.4132  1.2562
  925MOL0     C24795   4.809   8.887   4.932  0.3452 -0.0950 -0.3864
  925MOL0     C24796   4.945   8.897   4.910  0.1755  0.2075 -0.9187
  925MOL0     C24797   5.014   8.801   4.838 -0.7318 -0.5154  0.1732
  925MOL0     C24798   4.949   8.695   4.792 -0.1006  0.8424  0.1095
  925MOL0     O24799   5.001   8.590   4.713  0.1441 -0.2293 -0.1254
  925MOL0     C24800   5.141   8.586   4.686  0.4018 -0.0280  0.8537
  925MOL0     C24801   5.173   8.469   4.587 -0.5086 -0.2515 -0.1424
  925MOL0     C24802   5.326   8.439   4.586 -0.1405 -0.0393  0.6684
  925MOL0     C24803   5.343   8.312   4.509  0.5651  1.1130 -0.4779
  925MOL0     C24804   5.355   8.337   4.364  0.3131 -0.4536 -0.1451
  925MOL0     C24805   5.364   8.358   4.244  0.0450  0.0950  0.9368
  925MOL0     C24806   4.816   8.679   4.809  0.2752  0.1221  0.4195
  925MOL0     C24807   4.743   8.773   4.884 -0.1856 -0.4686  0.0869
  925MOL0     H24808   4.529   9.196   4.915 -1.7066  2.4020 -1.3432
  925MOL0     H24809   4.393   9.338   5.028 -0.2692  3.1270  1.3276
  925MOL0     H24810   4.324   9.569   5.095 -0.4861 -0.0821  0.1153
  925MOL0     H24811   4.263   9.447   5.216  0.4957 -0.5903 -2.5614
  925MOL0     H24812   4.167   9.662   5.217 -0.5650  0.2942  0.8193
  925MOL0     H24813   4.262   9.618   5.370  4.4405 -0.9850 -0.7166
  925MOL0     H24814   4.445   9.757   5.269 -0.2884 -2.2706 -0.5467
  925MOL0     H24815   4.341   9.808   5.141 -0.0577  1.1023  1.0610
  925MOL0     H24816   4.206   9.938   5.285  0.8340  0.8655 -0.7633
  925MOL0     H24817   4.267   9.862   5.430 -1.4376 -0.0934 -1.6318
  925MOL0     H24818   4.486   9.978   5.399  0.5722 -0.6024 -0.6497
  925MOL0     H24819   4.441  10.023   5.236 -0.4038 -1.0561 -0.4150
  925MOL0     H24820   4.233  10.144   5.336 -1.0480 -2.2117  0.9729
  925MOL0     H24821   4.317  10.118   5.490  1.1795 -1.3966  0.1690
  925MOL0     H24822   4.506  10.266   5.422  0.6336 -2.5610 -0.4206
  925MOL0     H24823   4.460  10.251   5.252 -1.7403 -0.9517 -1.1115
  925MOL0     H24824   4.402  10.456   5.387  2.5152 -2.2473  0.2824
  925MOL0     H24825   4.276  10.359   5.470  0.4332  0.1697  0.3871
  925MOL0     H24826   4.331  10.530   5.131  0.3649 -0.4608  1.3173
  925MOL0     H24827   4.151  10.601   4.947  0.5509  1.3689  1.4984
  925MOL0     H24828   3.988  10.526   4.961  1.0154 -2.1441 -0.6522
  925MOL0     H24829   4.028  10.803   4.986  1.1311 -0.5864 -0.9091
  925MOL0     H24830   4.097  10.754   5.140  0.7011 -1.8597  1.7127
  925MOL0     H24831   3.873  10.817   5.180 -4.3851 -0.4282  0.5298
  925MOL0     H24832   3.878  10.635   5.202 -1.2813 -0.0391 -1.2068
  925MOL0     H24833   3.674  10.690   5.091 -0.1710 -0.2116  0.0994
  925MOL0     H24834   3.783  10.607   4.980  1.7192  0.1386  0.9805
  925MOL0     H24835   3.600  10.999   5.042  0.4553  1.4940 -0.7066
  925MOL0     H24836   3.434  11.103   5.092 -0.0355 -0.1345  0.7736
  925MOL0     H24837   3.362  11.177   4.938 -3.5679 -0.3251  0.7546
  925MOL0     H24838   3.278  11.081   5.054  0.3808 -0.4429  0.5380
  925MOL0     H24839   3.004  10.927   5.014  0.2333 -1.3950 -1.9877
  925MOL0     H24840   2.763  10.908   5.000 -0.2674 -2.5395 -0.9036
  925MOL0     H24841   2.557  11.041   4.626 -1.3521 -2.0713  1.1883
  925MOL0     H24842   2.412  11.058   4.728  0.6234 -1.4681  0.1181
  925MOL0     H24843   2.623  11.275   4.719  0.4284 -0.5788  0.6289
  925MOL0     H24844   2.466  11.270   4.637  2.0148 -0.8033 -0.8422
  925MOL0     H24845   2.534  11.258   4.935  0.1971 -2.2032 -1.5824
  925MOL0     H24846   2.370  11.246   4.875  0.3943  0.0054  1.1638
  925MOL0     H24847   2.560  11.489   4.818  1.2394  0.7796  2.2313
  925MOL0     H24848   2.380  11.489   4.799 -1.2921 -2.4711  2.2357
  925MOL0     H24849   2.501  11.439   5.070 -0.9300 -1.1391 -1.1257
  925MOL0     H24850   2.330  11.498   5.020 -0.4631 -0.4788 -0.4516
  925MOL0     H24851   2.483  11.664   5.121 -3.1824  2.7963 -1.2262
  925MOL0     H24852   2.597  11.630   4.994  0.5343 -2.4005 -0.7213
  925MOL0     H24853   2.316  11.768   4.963  0.6196  1.8868  0.8429
  925MOL0     H24854   2.418  11.723   4.824  1.3865  1.3203 -0.2751
  925MOL0     H24855   2.497  11.914   5.033  0.2317  0.4620  0.1016
  925MOL0     H24856   2.464  11.946   4.858  0.4000 -0.9057 -0.9524
  925MOL0     H24857   2.762  11.129   4.625  0.9553  0.4724  0.0802
  925MOL0     H24858   2.996  11.139   4.625 -1.5100  1.3697 -0.2569
  925MOL0     H24859   3.403  10.722   4.693  0.0286 -2.5123  2.2283
  925MOL0     H24860   3.618  10.672   4.770  0.4305  1.4423 -0.1870
  925MOL0     H24861   4.706   9.437   5.308 -0.8901  1.6998 -1.2538
  925MOL0     H24862   4.851   9.271   5.174  0.8539 -3.0209 -1.9926
  925MOL0     H24863   5.006   8.980   4.942  2.2185  0.0473 -3.9556
  925MOL0     H24864   5.122   8.813   4.837 -0.6036 -1.4865  0.9791
  925MOL0     H24865   5.181   8.678   4.641 -1.8349  0.5048 -0.2264
  925MOL0     H24866   5.194   8.580   4.781 -0.6297 -1.2149  1.3693
  925MOL0     H24867   5.135   8.491   4.486 -0.3110 -1.7028 -0.5597
  925MOL0     H24868   5.122   8.377   4.616 -1.6395  0.6342  0.7935
  925MOL0     H24869   5.379   8.435   4.682 -1.2025 -0.2230  1.2716
  925MOL0     H24870   5.370   8.516   4.523  0.0469 -1.5102 -1.0605
  925MOL0     H24871   5.261   8.244   4.534  0.1249  1.5377 -0.7374
  925MOL0     H24872   5.434   8.264   4.545 -1.5485 -2.0985  1.0370
  925MOL0     H24873   5.361   8.389   4.142 -4.4642 -0.9347  0.5361
  925MOL0     H24874   4.770   8.587   4.774 -0.6230 -0.0097  1.8446
  925MOL0     H24875   4.637   8.755   4.901 -0.4303  2.8607  3.7825
  926MOL0     O24876   2.744   6.989   5.199 -0.1761  0.3712 -0.0014
  926MOL0     C24877   2.792   7.065   5.117 -0.7460  0.8665  0.0261
  926MOL0     O24878   2.725   7.133   5.028  0.2649 -0.5322 -0.4112
  926MOL0     C24879   2.581   7.139   5.026 -0.6471  0.4346  0.2931
  926MOL0     C24880   2.500   7.027   5.060  0.2816  0.2319 -0.0388
  926MOL0     C24881   2.366   7.032   5.037 -0.6995 -0.3604  0.1508
  926MOL0     C24882   2.301   7.142   4.980 -0.5808 -0.5066  0.5991
  926MOL0     O24883   2.171   7.165   4.949 -0.4983 -0.9028  0.2861
  926MOL0     C24884   2.069   7.108   5.034  0.1362 -0.1540  0.0341
  926MOL0     C24885   1.927   7.139   4.986 -0.3238  0.5469  0.1737
  926MOL0     C24886   1.895   7.285   4.985 -0.2352  0.7256  0.0214
  926MOL0     C24887   1.746   7.290   4.966  0.8385  0.0603 -0.2617
  926MOL0     C24888   1.686   7.436   4.967 -1.5735  0.4493  0.3616
  926MOL0     C24889   1.717   7.509   4.838  1.2640 -1.0519  0.0747
  926MOL0     C24890   1.645   7.646   4.838  0.1232 -0.6050  0.0481
  926MOL0     C24891   1.490   7.636   4.829  0.1108 -0.3611 -0.4183
  926MOL0     N24892   1.438   7.758   4.895 -0.3584  0.3824  0.7700
  926MOL0     C24893   1.427   7.796   5.025 -0.2613 -0.0651 -0.2394
  926MOL0     C24894   1.404   7.931   5.018  1.3913  0.7261  0.3839
  926MOL0     C24895   1.395   8.021   5.132 -0.0024  0.3823  0.0003
  926MOL0     C24896   1.532   8.050   5.186 -0.0460  0.0491 -0.1887
  926MOL0     C24897   1.594   8.150   5.097  0.2337  0.4694  0.1186
  926MOL0     C24898   1.743   8.144   5.112  0.1251  0.0432 -0.6499
  926MOL0     O24899   1.814   8.227   5.025 -0.1348 -0.8049 -0.1944
  926MOL0     C24900   1.947   8.244   5.033  0.2531  0.3859 -0.0417
  926MOL0     C24901   2.025   8.204   5.139 -0.3509  0.3477 -0.3659
  926MOL0     C24902   2.160   8.229   5.173  1.5699  0.0095  0.2929
  926MOL0     C24903   2.220   8.144   5.291  0.2317  0.6374  0.7637
  926MOL0     C24904   2.224   8.323   5.091  0.3376 -0.9994  0.3841
  926MOL0     C24905   2.349   8.380   5.120 -0.5204 -1.0464 -0.1065
  926MOL0     O24906   2.377   8.497   5.051 -0.3627  0.7541  0.0238
  926MOL0     C24907   2.507   8.539   5.051  0.1869  0.1881  0.2738
  926MOL0     C24908   2.535   8.668   5.090 -0.7630  0.4807 -1.1532
  926MOL0     C24909   2.670   8.710   5.105  0.6374  0.1013 -0.4574
  926MOL0     C24910   2.775   8.626   5.072  0.2594  0.8662 -0.1412
  926MOL0     O24911   2.904   8.657   5.109 -0.0433 -0.9272 -0.7074
  926MOL0     C24912   3.011   8.562   5.103 -0.3649  0.0850  0.2869
  926MOL0     C24913   3.123   8.606   5.201 -0.8434 -0.0350  1.0233
  926MOL0     C24914   3.254   8.513   5.187  0.1855  0.2599 -0.4656
  926MOL0     C24915   3.372   8.541   5.275 -0.2953 -0.5999  0.1965
  926MOL0     C24916   3.491   8.453   5.234  0.2093  0.2629  0.1638
  926MOL0     C24917   3.608   8.478   5.333 -0.0515  0.2370 -0.6819
  926MOL0     C24918   3.731   8.401   5.280 -0.5557  0.0514 -0.1732
  926MOL0     C24919   3.803   8.465   5.165 -0.6958 -0.1048  0.5450
  926MOL0    Cl24920   3.973   8.396   5.143 -0.7452  0.0815  0.1927
  926MOL0     C24921   2.745   8.502   5.015 -0.3559  0.5278  0.0671
  926MOL0     C24922   2.614   8.464   4.989 -0.4082 -0.2398  0.5061
  926MOL0     O24923   2.422   8.318   5.195 -0.9145  0.1458  0.2420
  926MOL0     C24924   2.158   8.360   4.967 -0.0263 -0.2699  0.2343
  926MOL0     C24925   2.026   8.314   4.938  0.1589 -0.4710 -0.2224
  926MOL0     N24926   1.394   7.973   4.886  0.0169 -0.8276  0.0227
  926MOL0     N24927   1.425   7.868   4.817  0.1631  0.0967  0.5045
  926MOL0     C24928   2.383   7.257   4.948  0.6167  0.3343  0.7457
  926MOL0     C24929   2.519   7.252   4.973 -0.3539  0.0022  0.0741
  926MOL0     C24930   2.941   7.066   5.115 -0.0639  0.2558  0.6025
  926MOL0     C24931   3.007   7.159   5.038 -0.6266 -0.6292 -0.3736
  926MOL0     C24932   3.151   7.161   5.037 -0.9209  0.1957  1.1318
  926MOL0     C24933   3.236   7.072   5.104  0.1181 -0.6260 -1.0467
  926MOL0     O24934   3.373   7.089   5.098 -0.2206  0.6217  0.7235
  926MOL0     C24935   3.449   7.012   5.204 -0.2719 -0.4504  0.2272
  926MOL0     C24936   3.602   7.035   5.207  0.1986 -0.4920 -0.7138
  926MOL0     C24937   3.666   6.941   5.308  0.8520  0.4167 -0.1456
  926MOL0     C24938   3.818   6.964   5.305  0.1290  0.0697  0.0120
  926MOL0     C24939   3.887   6.913   5.185  0.6226  0.3998 -1.1874
  926MOL0     C24940   3.951   6.863   5.098 -0.3578  0.7164  1.3110
  926MOL0     C24941   3.164   6.979   5.187  0.8330 -0.2577  0.1546
  926MOL0     C24942   3.020   6.985   5.200  0.0602  0.5330 -0.3005
  926MOL0     H24943   2.542   6.941   5.111  0.0307 -0.3204 -0.7447
  926MOL0     H24944   2.305   6.957   5.085 -1.1300 -1.0889 -1.4675
  926MOL0     H24945   2.082   7.000   5.044 -0.9397 -0.1796  1.4092
  926MOL0     H24946   2.078   7.157   5.131 -0.5722  0.8560 -0.3868
  926MOL0     H24947   1.922   7.099   4.884  0.8444  0.8678 -0.0190
  926MOL0     H24948   1.863   7.073   5.046  1.6353 -2.2704 -0.6304
  926MOL0     H24949   1.920   7.331   5.081 -1.0732 -0.3583  0.7942
  926MOL0     H24950   1.951   7.331   4.904 -0.2808 -1.0962 -1.1084
  926MOL0     H24951   1.730   7.242   4.869 -0.7196  2.9531 -1.5782
  926MOL0     H24952   1.708   7.232   5.050  1.4300 -0.6458 -0.4775
  926MOL0     H24953   1.578   7.422   4.978 -1.3727 -0.9043  0.7304
  926MOL0     H24954   1.719   7.502   5.048 -1.0778  1.5928 -0.7261
  926MOL0     H24955   1.826   7.523   4.836  1.0927  0.4333 -0.2696
  926MOL0     H24956   1.679   7.449   4.755 -1.3767  0.9252 -0.2746
  926MOL0     H24957   1.665   7.700   4.932 -0.3414 -0.2712 -0.0449
  926MOL0     H24958   1.680   7.708   4.754  0.2246  0.7689  1.0625
  926MOL0     H24959   1.448   7.549   4.881  1.3569 -1.3746 -1.0571
  926MOL0     H24960   1.455   7.637   4.726 -0.6981  0.8867 -0.1542
  926MOL0     H24961   1.444   7.751   5.122  1.3914 -0.1197 -0.5215
  926MOL0     H24962   1.340   8.110   5.099 -0.7936  1.6126  4.0373
  926MOL0     H24963   1.331   7.974   5.207 -2.0976 -0.2435 -2.0627
  926MOL0     H24964   1.596   7.962   5.187 -1.5629 -1.1901 -2.5891
  926MOL0     H24965   1.521   8.098   5.283  1.0421 -0.8568  0.4035
  926MOL0     H24966   1.560   8.247   5.134  0.0888 -0.8960  3.9447
  926MOL0     H24967   1.570   8.149   4.990 -0.7184 -0.7290  0.3196
  926MOL0     H24968   1.771   8.039   5.103 -0.5294 -0.3006  1.0327
  926MOL0     H24969   1.759   8.179   5.215 -1.0944 -1.3822  0.0552
  926MOL0     H24970   1.975   8.154   5.222  0.6933  0.4059  0.3236
  926MOL0     H24971   2.317   8.102   5.263  0.1508 -0.0717  1.5062
  926MOL0     H24972   2.242   8.214   5.373  0.2047 -0.9370  2.1532
  926MOL0     H24973   2.149   8.068   5.324 -1.0028  0.9025 -1.1169
  926MOL0     H24974   2.459   8.730   5.136 -0.1188 -0.6863  1.7301
  926MOL0     H24975   2.687   8.799   5.165  0.9783 -1.0021  1.1289
  926MOL0     H24976   2.971   8.466   5.138  2.1639 -0.4603  1.8526
  926MOL0     H24977   3.039   8.547   4.998 -0.6731 -1.0337  0.3530
  926MOL0     H24978   3.152   8.710   5.188  2.6933 -1.1131 -1.2038
  926MOL0     H24979   3.074   8.591   5.298 -1.5969  0.9565  0.8036
  926MOL0     H24980   3.286   8.517   5.082  1.2172 -1.3073 -0.2505
  926MOL0     H24981   3.226   8.412   5.220  0.7627  0.7916  1.7922
  926MOL0     H24982   3.394   8.647   5.259 -0.0381 -0.6484  0.2329
  926MOL0     H24983   3.352   8.514   5.379 -0.8092  2.0266  0.8748
  926MOL0     H24984   3.515   8.479   5.130 -1.0501  4.1292  0.6766
  926MOL0     H24985   3.457   8.350   5.223  0.5663 -0.0993  2.1076
  926MOL0     H24986   3.631   8.585   5.337  0.8312  0.0861 -1.2242
  926MOL0     H24987   3.583   8.448   5.435  0.6659 -0.7232 -0.7727
  926MOL0     H24988   3.706   8.298   5.254  1.1318 -0.9069  1.7491
  926MOL0     H24989   3.808   8.392   5.357  1.2602  1.1182 -1.7969
  926MOL0     H24990   3.808   8.573   5.183 -1.0340 -0.1721  1.0508
  926MOL0     H24991   3.749   8.457   5.070  0.5969 -0.2085 -0.2119
  926MOL0     H24992   2.822   8.432   4.983 -0.9598 -0.6078  0.9958
  926MOL0     H24993   2.593   8.371   4.937  1.8974  0.6416 -2.2831
  926MOL0     H24994   2.210   8.414   4.889 -0.5682  0.8836  0.6392
  926MOL0     H24995   1.984   8.338   4.841 -1.0177  0.3132  0.4591
  926MOL0     H24996   2.331   7.346   4.916 -1.1853  0.1969  2.9885
  926MOL0     H24997   2.586   7.333   4.947  0.7296 -0.3300  1.7527
  926MOL0     H24998   2.954   7.229   4.975  1.0745  2.8231  1.7573
  926MOL0     H24999   3.198   7.236   4.974 -2.8302 -0.0302 -0.6895
  926MOL0     H25000   3.414   7.037   5.305  0.1378  0.7518  0.0942
  926MOL0     H25001   3.425   6.907   5.187  2.8128 -0.9076 -1.9549
  926MOL0     H25002   3.623   7.138   5.238 -0.6794  0.3656 -2.7883
  926MOL0     H25003   3.646   7.028   5.107  1.4992  1.0478 -0.2973
  926MOL0     H25004   3.649   6.835   5.286 -3.0687  0.6498  1.0916
  926MOL0     H25005   3.616   6.955   5.404  1.2919 -2.9017  0.6877
  926MOL0     H25006   3.864   6.920   5.394  2.5767  2.0151 -0.1861
  926MOL0     H25007   3.836   7.072   5.315  0.5882  0.0725 -0.8020
  926MOL0     H25008   4.010   6.809   5.027 -1.4486  0.2546  0.7245
  926MOL0     H25009   3.225   6.939   5.267 -0.5996 -2.1619  0.3564
  926MOL0     H25010   2.982   6.900   5.256  2.4830 -1.8392 -2.0112
  927MOL0     O25011   9.323   0.149   4.039 -0.1705  0.5256  0.0920
  927MOL0     C25012   9.415   0.129   4.116  0.8565  0.5069  0.2711
  927MOL0     O25013   9.402   0.124   4.254 -0.8074  0.1033 -0.8459
  927MOL0     C25014   9.279   0.103   4.296  0.1778 -0.0370  0.5012
  927MOL0     C25015   9.233   0.189   4.395  0.0394  0.8310  0.3668
  927MOL0     C25016   9.103   0.159   4.438 -0.5971  0.3870  0.2962
  927MOL0     C25017   9.031   0.049   4.397 -1.0474  0.6642  0.0881
  927MOL0     O25018   8.905   0.045   4.441 -0.5936  0.0823 -0.3243
  927MOL0     C25019   8.869  -0.085   4.501  0.4368 -0.2266 -0.0048
  927MOL0     C25020   8.722  -0.082   4.537  0.0548 -0.5397  0.1681
  927MOL0     C25021   8.678  -0.198   4.618 -0.0722  0.5462  0.7922
  927MOL0     C25022   8.531  -0.230   4.612  0.0421  0.6332  0.3314
  927MOL0     C25023   8.452  -0.142   4.710  0.2887  0.7722  0.5302
  927MOL0     C25024   8.301  -0.168   4.695  0.1498  0.3246  0.8879
  927MOL0     C25025   8.219  -0.125   4.815 -0.5523 -0.2026  0.0975
  927MOL0     C25026   8.229   0.030   4.854 -0.1300  0.0403  0.4773
  927MOL0     N25027   8.130   0.073   4.956 -0.7581 -0.1847 -0.2706
  927MOL0     C25028   7.991   0.072   4.948 -0.4176 -0.4264 -0.1098
  927MOL0     C25029   7.951   0.144   5.058 -0.0826  0.9620  0.1418
  927MOL0     C25030   7.817   0.187   5.109  0.2904  0.1479 -0.0582
  927MOL0     C25031   7.699   0.160   5.016 -0.8197  0.5030  0.0651
  927MOL0     C25032   7.570   0.243   5.040  0.0836 -0.0416 -0.8935
  927MOL0     C25033   7.515   0.252   5.183 -0.4371  1.2132 -0.1866
  927MOL0     O25034   7.432   0.367   5.181 -0.6800 -0.6723  1.0211
  927MOL0     C25035   7.333   0.375   5.279  0.0126  0.6676 -0.1040
  927MOL0     C25036   7.219   0.447   5.261 -0.3938  0.8946  0.3088
  927MOL0     C25037   7.107   0.452   5.346 -0.4760 -0.9118  0.1432
  927MOL0     C25038   6.988   0.530   5.290 -0.2241 -0.5628  0.1160
  927MOL0     C25039   7.111   0.375   5.467  0.0387  0.2493 -0.1596
  927MOL0     C25040   7.003   0.364   5.563  0.8810 -0.2998 -0.3615
  927MOL0     O25041   7.006   0.271   5.658 -0.1753 -0.4998 -0.0199
  927MOL0     C25042   6.900   0.238   5.738  0.4077  0.1496  0.1984
  927MOL0     C25043   6.796   0.322   5.786  0.1035  0.1051 -0.1832
  927MOL0     C25044   6.689   0.259   5.860  0.0950  0.4602  0.8038
  927MOL0     C25045   6.697   0.128   5.905 -0.0785  0.1760  0.7699
  927MOL0     O25046   6.593   0.085   5.981  0.2010  0.5922 -0.5927
  927MOL0     C25047   6.587  -0.063   6.000  0.2960 -0.2791 -0.0227
  927MOL0     C25048   6.469  -0.094   6.094  0.1045  0.1091  0.1256
  927MOL0     C25049   6.335  -0.025   6.064 -0.9382  0.5581 -0.5251
  927MOL0     C25050   6.222  -0.109   6.118  0.5083  0.3164  0.5703
  927MOL0     C25051   6.090  -0.026   6.136 -0.5476  1.3357 -0.2388
  927MOL0     C25052   6.044   0.047   6.013 -0.1861  0.2384  0.4464
  927MOL0     C25053   5.906   0.100   6.034 -0.3943 -0.1464  0.2041
  927MOL0     C25054   5.807  -0.006   5.975  0.1679 -0.3461  0.4899
  927MOL0    Cl25055   5.639   0.038   5.989 -0.2122  0.2158  0.2669
  927MOL0     C25056   6.800   0.045   5.858  0.0029  0.2034 -0.3972
  927MOL0     C25057   6.894   0.102   5.770 -0.0144 -0.0395  0.7413
  927MOL0     O25058   6.906   0.435   5.538 -0.9861  0.8193  0.0847
  927MOL0     C25059   7.229   0.297   5.485  0.1279  0.0911 -0.2103
  927MOL0     C25060   7.336   0.299   5.397  0.4936  0.0117 -0.0763
  927MOL0     N25061   8.065   0.182   5.132 -0.9294  0.5157  0.0971
  927MOL0     N25062   8.170   0.137   5.074  0.3222  0.2224  0.2497
  927MOL0     C25063   9.094  -0.045   4.320  0.0208 -1.1254 -0.7155
  927MOL0     C25064   9.217  -0.012   4.258 -0.9495  0.1060  0.7304
  927MOL0     C25065   9.556   0.141   4.067  0.2175  0.5872 -0.3624
  927MOL0     C25066   9.665   0.125   4.153 -0.6481 -0.0649 -0.3770
  927MOL0     C25067   9.796   0.130   4.105 -0.1206  0.4980  0.5878
  927MOL0     C25068   9.814   0.140   3.970  0.2756  0.7117  0.1306
  927MOL0     O25069   9.938   0.142   3.907 -0.3097 -0.2861  0.3923
  927MOL0     C25070  10.017   0.249   3.946 -0.4331 -0.4883  0.1958
  927MOL0     C25071  10.098   0.314   3.836 -0.4610 -0.0028  0.3312
  927MOL0     C25072  10.029   0.426   3.761 -0.5857 -0.2563  0.5146
  927MOL0     C25073   9.973   0.357   3.633  0.4442 -0.2696 -0.1842
  927MOL0     C25074   9.843   0.409   3.605  0.5263  0.1180  0.6634
  927MOL0     C25075   9.734   0.450   3.574 -0.2675 -0.8697 -0.0658
  927MOL0     C25076   9.712   0.125   3.881 -0.1876 -0.9469 -0.7352
  927MOL0     C25077   9.582   0.143   3.925  1.1278  0.5128 -0.2049
  927MOL0     H25078   9.281   0.279   4.431  0.2393 -0.0176  2.3745
  927MOL0     H25079   9.051   0.232   4.498 -0.4740  0.2506  0.5718
  927MOL0     H25080   8.886  -0.160   4.423  0.8130  0.8504 -0.9889
  927MOL0     H25081   8.926  -0.119   4.588 -1.0298  0.1802  1.1612
  927MOL0     H25082   8.700   0.014   4.586  1.4632 -1.2098  2.2283
  927MOL0     H25083   8.666  -0.084   4.443  0.9372  0.1419 -0.3882
  927MOL0     H25084   8.738  -0.285   4.589  0.1030  0.8977  0.0687
  927MOL0     H25085   8.706  -0.173   4.720  0.8238  0.5992  0.5417
  927MOL0     H25086   8.493  -0.217   4.510 -0.7763 -0.8329  0.4162
  927MOL0     H25087   8.514  -0.335   4.638 -1.5754  0.7821 -0.0291
  927MOL0     H25088   8.490  -0.168   4.809  2.3044  0.0801 -0.3873
  927MOL0     H25089   8.475  -0.037   4.692  2.3604 -0.0884 -2.4056
  927MOL0     H25090   8.267  -0.128   4.599  1.5678 -1.8962 -0.6228
  927MOL0     H25091   8.285  -0.276   4.683 -0.7644  0.7064 -2.4332
  927MOL0     H25092   8.114  -0.154   4.803 -1.9834  4.6603 -1.4198
  927MOL0     H25093   8.263  -0.179   4.899  0.8489 -0.4646 -0.7692
  927MOL0     H25094   8.212   0.077   4.757  3.2960 -1.6609 -1.1259
  927MOL0     H25095   8.329   0.061   4.886 -0.8321 -0.0062  2.9421
  927MOL0     H25096   7.921   0.044   4.870  2.2318 -0.2464 -2.7237
  927MOL0     H25097   7.797   0.123   5.195  3.0817 -0.5416  0.1695
  927MOL0     H25098   7.813   0.293   5.136 -1.4147 -0.4826  2.4824
  927MOL0     H25099   7.678   0.053   5.023 -0.3815  0.1866 -2.4522
  927MOL0     H25100   7.730   0.176   4.912  3.7545 -1.0236  0.9330
  927MOL0     H25101   7.488   0.195   4.987 -0.7191  1.4594 -1.0450
  927MOL0     H25102   7.589   0.343   5.000  1.2448  0.4400  0.7510
  927MOL0     H25103   7.598   0.269   5.252 -1.1092  2.1876  0.4003
  927MOL0     H25104   7.464   0.159   5.212 -1.4770  2.0201  0.6308
  927MOL0     H25105   7.215   0.516   5.177  2.2068  1.6230  0.7001
  927MOL0     H25106   6.905   0.461   5.271  0.2470 -1.0303 -0.2970
  927MOL0     H25107   6.952   0.611   5.354  0.4011  0.2264 -0.5125
  927MOL0     H25108   7.018   0.572   5.194  0.5131 -0.2429  0.4766
  927MOL0     H25109   6.790   0.428   5.763 -0.0991  0.4031  1.1972
  927MOL0     H25110   6.605   0.319   5.895  0.8395  1.7258  0.4925
  927MOL0     H25111   6.576  -0.116   5.905  3.4113 -0.2880 -0.4784
  927MOL0     H25112   6.682  -0.093   6.045  0.4809  2.9504  2.0814
  927MOL0     H25113   6.450  -0.202   6.096 -0.9331  0.2721  2.2209
  927MOL0     H25114   6.492  -0.058   6.195 -1.8608 -0.1296  0.7164
  927MOL0     H25115   6.312  -0.013   5.958 -0.3479  0.8179 -0.6262
  927MOL0     H25116   6.344   0.078   6.100 -1.5385  1.4033 -2.6250
  927MOL0     H25117   6.198  -0.196   6.057 -1.7057  1.6043 -0.5426
  927MOL0     H25118   6.238  -0.145   6.220 -1.5409 -1.4513  0.3505
  927MOL0     H25119   6.089   0.041   6.223 -0.0330 -1.2495  1.9031
  927MOL0     H25120   6.008  -0.095   6.161 -1.8812  1.8302 -2.8636
  927MOL0     H25121   6.108   0.132   5.986  1.6283 -0.7702  1.3872
  927MOL0     H25122   6.049  -0.024   5.930 -1.3009 -1.2242  1.5790
  927MOL0     H25123   5.880   0.194   5.985  0.3134  0.9493  1.8472
  927MOL0     H25124   5.891   0.126   6.139 -0.5838 -0.9580  0.3859
  927MOL0     H25125   5.817  -0.099   6.031 -0.3360  0.1468  1.4363
  927MOL0     H25126   5.834  -0.020   5.870  1.4784  0.3261  0.7252
  927MOL0     H25127   6.820  -0.055   5.895  1.9064  1.8532  3.6101
  927MOL0     H25128   6.971   0.034   5.736 -2.3826 -1.5170 -2.1533
  927MOL0     H25129   7.241   0.253   5.584 -0.7200  1.6638  0.6393
  927MOL0     H25130   7.430   0.258   5.430  1.1801  2.1935  0.8812
  927MOL0     H25131   9.047  -0.138   4.289 -0.6178 -1.3854  0.9160
  927MOL0     H25132   9.265  -0.078   4.187 -0.0114  0.5573  0.9302
  927MOL0     H25133   9.648   0.122   4.260 -0.6373  1.1938 -0.3316
  927MOL0     H25134   9.879   0.126   4.174  0.0032  0.7198  0.4528
  927MOL0     H25135   9.960   0.332   3.990 -0.9071 -0.8566  0.2908
  927MOL0     H25136  10.085   0.221   4.027 -1.4811  2.7776  2.4036
  927MOL0     H25137  10.148   0.234   3.781 -3.4152 -0.1156 -2.4299
  927MOL0     H25138  10.182   0.356   3.892 -1.1840  0.2189  1.2774
  927MOL0     H25139  10.108   0.498   3.734 -0.7043  0.2099  1.3739
  927MOL0     H25140   9.952   0.472   3.823  1.5199  2.4260  1.3629
  927MOL0     H25141   9.967   0.248   3.636  2.9174 -0.4608  0.2667
  927MOL0     H25142  10.048   0.379   3.556  1.2004  0.2594  0.6680
  927MOL0     H25143   9.645   0.493   3.533 -0.2067 -0.3421  0.3298
  927MOL0     H25144   9.715   0.116   3.773  1.0158  2.9290 -1.1919
  927MOL0     H25145   9.501   0.139   3.852  1.4690  0.8364 -0.6100
  928MOL0     O25146  10.784   2.060   2.744 -0.3911  0.0127 -0.2752
  928MOL0     C25147  10.832   2.168   2.702  0.3069  0.2955 -0.5725
  928MOL0     O25148  10.781   2.236   2.601 -0.4533  0.2002 -0.3118
  928MOL0     C25149  10.642   2.230   2.563 -0.2166 -0.5508 -0.5063
  928MOL0     C25150  10.608   2.322   2.456  0.1374  0.6688 -0.0597
  928MOL0     C25151  10.471   2.326   2.414  0.2500 -0.3133 -0.7660
  928MOL0     C25152  10.371   2.250   2.473 -0.1212  0.6659 -0.4526
  928MOL0     O25153  10.248   2.259   2.415 -0.0354  0.3277  0.0298
  928MOL0     C25154  10.142   2.192   2.480  0.1450  0.8424  0.3853
  928MOL0     C25155  10.017   2.244   2.429  0.8406  0.3415 -0.0285
  928MOL0     C25156   9.885   2.186   2.476 -0.6867 -0.0675  0.1490
  928MOL0     C25157   9.771   2.285   2.467 -0.0716 -0.3380 -0.4265
  928MOL0     C25158   9.768   2.370   2.591 -0.2125 -0.1091  0.3670
  928MOL0     C25159   9.697   2.502   2.578  0.0826  0.5584  0.2258
  928MOL0     C25160   9.549   2.475   2.572  0.7227 -0.4198  0.0348
  928MOL0     C25161   9.478   2.426   2.697 -0.4979 -0.7113  0.1684
  928MOL0     N25162   9.338   2.441   2.683 -0.4089 -0.2824  0.1704
  928MOL0     C25163   9.261   2.557   2.720 -0.9332 -1.3314 -0.2360
  928MOL0     C25164   9.134   2.512   2.705  0.5554 -1.2545  0.1079
  928MOL0     C25165   9.004   2.593   2.728 -0.1732  0.1722  0.1321
  928MOL0     C25166   9.011   2.729   2.791  0.7220 -0.1337 -0.0594
  928MOL0     C25167   9.012   2.731   2.949  0.2324 -0.9332  0.0376
  928MOL0     C25168   8.977   2.884   2.981 -0.0468 -0.4521  0.6420
  928MOL0     O25169   8.963   2.898   3.126 -0.6176 -0.4351 -0.1401
  928MOL0     C25170   9.077   2.911   3.207  0.2792 -0.2750  1.0763
  928MOL0     C25171   9.071   2.890   3.343 -0.9118  0.1914 -0.5062
  928MOL0     C25172   9.179   2.906   3.429  0.5600  0.0691  0.1812
  928MOL0     C25173   9.153   2.872   3.573 -0.2925 -0.1301 -0.3645
  928MOL0     C25174   9.302   2.935   3.377 -0.6785 -0.5818 -0.1925
  928MOL0     C25175   9.435   2.948   3.450 -0.1214  0.4464 -0.3768
  928MOL0     O25176   9.556   2.952   3.380 -0.1049  0.1924  0.0060
  928MOL0     C25177   9.665   2.933   3.457  0.0476 -0.2408  0.4585
  928MOL0     C25178   9.731   3.039   3.513  0.2658  0.0020 -0.5033
  928MOL0     C25179   9.842   3.020   3.583  0.1322 -0.4099  0.2612
  928MOL0     C25180   9.897   2.892   3.614  0.8042 -0.2878 -0.9888
  928MOL0     O25181   9.995   2.878   3.702 -0.2384 -0.2138 -0.4355
  928MOL0     C25182  10.091   2.774   3.682  0.9088  0.5314 -0.5244
  928MOL0     C25183  10.218   2.831   3.744  0.5576  0.0480  0.4033
  928MOL0     C25184  10.281   2.943   3.656  0.2116 -0.2476 -0.2398
  928MOL0     C25185  10.421   2.975   3.697 -1.1529 -0.4998  0.9986
  928MOL0     C25186  10.460   3.112   3.658 -0.2906 -0.5596  0.2035
  928MOL0     C25187  10.613   3.138   3.672 -0.1942 -0.2456 -0.0900
  928MOL0     C25188  10.654   3.257   3.589 -1.0268 -0.3015 -0.6559
  928MOL0     C25189  10.806   3.277   3.592 -0.2127 -0.2436 -0.6567
  928MOL0    Cl25190  10.865   3.312   3.758  0.6330 -0.0058 -0.1535
  928MOL0     C25191   9.819   2.785   3.565  0.4418  0.2063 -0.7705
  928MOL0     C25192   9.708   2.805   3.486  0.4469 -0.5235  0.2609
  928MOL0     O25193   9.428   2.939   3.573 -0.0196 -0.4170 -0.1332
  928MOL0     C25194   9.314   2.961   3.240  0.5079  0.0902  0.0944
  928MOL0     C25195   9.203   2.945   3.156 -0.2002  0.1233 -0.4360
  928MOL0     N25196   9.136   2.377   2.672 -0.4219  0.5670  0.1542
  928MOL0     N25197   9.252   2.340   2.660  0.0935  1.5080 -0.3005
  928MOL0     C25198  10.407   2.164   2.581 -0.0120 -0.2539  0.6800
  928MOL0     C25199  10.541   2.147   2.620  0.8231  0.9250  0.6023
  928MOL0     C25200  10.952   2.213   2.761  0.1283  0.2333  0.2884
  928MOL0     C25201  11.010   2.332   2.717  0.3391 -0.2307 -0.0171
  928MOL0     C25202  11.142   2.367   2.748  0.7382 -0.2590 -0.6383
  928MOL0     C25203  11.207   2.289   2.844 -0.4273  0.1642  0.2760
  928MOL0     O25204  11.334   2.321   2.882 -0.0861  0.1279 -0.0166
  928MOL0     C25205  11.391   2.452   2.857 -0.2835 -0.3314  1.0813
  928MOL0     C25206  11.537   2.448   2.888  0.4733  0.3365 -0.8624
  928MOL0     C25207  11.627   2.553   2.825  0.5608 -0.5289 -0.5163
  928MOL0     C25208  11.577   2.695   2.856 -0.2505 -0.2844  0.4258
  928MOL0     C25209  11.687   2.796   2.827 -0.6255  0.3705  0.0598
  928MOL0     C25210  11.780   2.872   2.806 -0.1365  0.3092  1.5147
  928MOL0     C25211  11.151   2.171   2.890 -0.8203 -0.0447  0.1400
  928MOL0     C25212  11.027   2.128   2.851 -0.4109 -0.5468  1.4154
  928MOL0     H25213  10.676   2.400   2.425  0.8186 -0.1170 -0.6133
  928MOL0     H25214  10.439   2.397   2.339 -1.6114 -0.5766 -0.2604
  928MOL0     H25215  10.143   2.083   2.479 -2.6543  0.7445  0.8651
  928MOL0     H25216  10.146   2.211   2.587 -3.2505 -4.2988  1.7550
  928MOL0     H25217  10.022   2.352   2.447  0.3702  0.6938 -1.8682
  928MOL0     H25218  10.028   2.239   2.321  4.1306 -1.4590  0.2472
  928MOL0     H25219   9.867   2.099   2.412  2.3537 -2.1695  1.8692
  928MOL0     H25220   9.904   2.153   2.579  2.5989  1.6898  0.2466
  928MOL0     H25221   9.777   2.358   2.386 -0.0658 -0.6775 -0.7332
  928MOL0     H25222   9.676   2.235   2.445  0.4925 -1.7618  0.1982
  928MOL0     H25223   9.726   2.325   2.681  0.8476  0.1155  0.9833
  928MOL0     H25224   9.873   2.395   2.606 -0.0864 -0.5100  0.1414
  928MOL0     H25225   9.715   2.565   2.666 -1.3111  3.5984 -1.5168
  928MOL0     H25226   9.732   2.560   2.493  0.6638  0.8341  0.6511
  928MOL0     H25227   9.501   2.572   2.551 -0.9087 -0.9831  0.9484
  928MOL0     H25228   9.530   2.417   2.481 -1.9005 -0.3316  0.4479
  928MOL0     H25229   9.516   2.485   2.781 -0.0221  1.9692 -1.7662
  928MOL0     H25230   9.506   2.321   2.711 -1.0116 -1.2588 -2.3985
  928MOL0     H25231   9.287   2.655   2.759 -3.4738 -0.9425  0.5965
  928MOL0     H25232   8.966   2.610   2.627  0.1555 -1.5917 -0.3102
  928MOL0     H25233   8.947   2.519   2.785  1.7672 -0.7289  1.0201
  928MOL0     H25234   8.920   2.782   2.763  0.5443  0.3543  1.3675
  928MOL0     H25235   9.105   2.775   2.758  1.1467 -1.7747 -1.2589
  928MOL0     H25236   9.109   2.713   2.997  1.8239  1.6449 -1.9401
  928MOL0     H25237   8.937   2.663   2.991  0.1001 -1.6232 -1.2623
  928MOL0     H25238   8.884   2.918   2.936  0.7411  0.2843 -0.4824
  928MOL0     H25239   9.052   2.946   2.932  0.2441 -2.3060 -1.3882
  928MOL0     H25240   8.975   2.853   3.378 -0.6141  0.0866  0.2072
  928MOL0     H25241   9.050   2.840   3.592 -0.4243  0.3402 -0.2733
  928MOL0     H25242   9.217   2.789   3.604  0.8058  0.1708 -1.7683
  928MOL0     H25243   9.177   2.959   3.635  0.6022  0.9220 -2.1261
  928MOL0     H25244   9.699   3.138   3.482  1.0057 -0.1233 -1.7631
  928MOL0     H25245   9.910   3.096   3.621 -0.9583  0.9521 -0.4123
  928MOL0     H25246  10.051   2.687   3.734  0.7936  1.2763  0.6818
  928MOL0     H25247  10.099   2.751   3.576  2.4606 -0.0074 -0.3140
  928MOL0     H25248  10.196   2.867   3.845  0.7516 -1.3469  0.9696
  928MOL0     H25249  10.286   2.748   3.763  0.9636  0.6330  1.6158
  928MOL0     H25250  10.206   3.022   3.649 -0.0428 -0.5501 -0.9856
  928MOL0     H25251  10.280   2.910   3.552 -0.2994 -2.1411  0.3320
  928MOL0     H25252  10.421   2.970   3.807  0.7664 -2.8260  0.9890
  928MOL0     H25253  10.495   2.902   3.662 -1.3367  0.0815 -0.6635
  928MOL0     H25254  10.399   3.184   3.713 -0.6674  0.3122 -1.3174
  928MOL0     H25255  10.428   3.121   3.554 -3.5850 -3.2682  0.7889
  928MOL0     H25256  10.640   3.157   3.776  0.8978 -0.6230 -0.2937
  928MOL0     H25257  10.663   3.049   3.634  2.7337 -0.9839  4.6049
  928MOL0     H25258  10.607   3.349   3.626  2.0642  0.9337  0.4878
  928MOL0     H25259  10.623   3.243   3.485 -2.6078 -0.2392 -0.2331
  928MOL0     H25260  10.827   3.370   3.539 -1.6354  1.1261  1.0607
  928MOL0     H25261  10.853   3.196   3.535  0.3676 -0.7578  0.5293
  928MOL0     H25262   9.836   2.682   3.592  0.9607  0.6360  0.5977
  928MOL0     H25263   9.655   2.715   3.456  3.1626 -1.8788 -0.7957
  928MOL0     H25264   9.411   2.980   3.194  0.3636 -2.1313 -1.2529
  928MOL0     H25265   9.210   2.953   3.048 -2.0233 -0.8859 -0.6706
  928MOL0     H25266  10.335   2.104   2.636  0.3735 -0.6147  0.7996
  928MOL0     H25267  10.565   2.077   2.699 -0.2841 -0.9379 -0.6522
  928MOL0     H25268  10.954   2.404   2.659  1.1265  1.5013  1.2854
  928MOL0     H25269  11.180   2.466   2.723  1.7173 -0.5667 -0.3685
  928MOL0     H25270  11.389   2.474   2.750  1.4468 -0.4058  1.0117
  928MOL0     H25271  11.329   2.522   2.915  2.8840  2.1320  1.7788
  928MOL0     H25272  11.567   2.351   2.849 -1.9569 -0.7405 -0.2511
  928MOL0     H25273  11.548   2.439   2.997 -0.7581  0.5298 -0.7085
  928MOL0     H25274  11.612   2.550   2.717 -3.9379 -2.2177 -0.0523
  928MOL0     H25275  11.734   2.543   2.843  0.8081  3.3153  0.9625
  928MOL0     H25276  11.555   2.700   2.963  1.4096  0.2041  0.7661
  928MOL0     H25277  11.497   2.732   2.791 -0.6843  0.7760  1.5310
  928MOL0     H25278  11.872   2.921   2.781  0.2199 -1.1445 -0.2249
  928MOL0     H25279  11.212   2.109   2.954 -0.6619  0.4294  0.4519
  928MOL0     H25280  10.984   2.033   2.880 -0.9725 -1.3548 -1.6389
  929MOL0     O25281   5.931   6.854   7.585 -0.0385  0.2552 -0.5141
  929MOL0     C25282   6.042   6.841   7.632  0.4730 -0.5190  0.1423
  929MOL0     O25283   6.066   6.791   7.760  0.4580  0.0985 -0.1639
  929MOL0     C25284   5.951   6.773   7.836 -0.1004 -0.2382 -0.0216
  929MOL0     C25285   5.877   6.888   7.869 -0.0902 -0.0812 -0.5649
  929MOL0     C25286   5.758   6.876   7.945  0.1599 -0.0973  0.7761
  929MOL0     C25287   5.707   6.744   7.969 -0.2113 -0.2587 -0.5633
  929MOL0     O25288   5.584   6.719   8.036 -0.6702  0.2923  0.0754
  929MOL0     C25289   5.491   6.833   8.042  0.5417  0.2096 -1.3104
  929MOL0     C25290   5.519   6.914   8.171 -0.0197 -0.6306 -0.7068
  929MOL0     C25291   5.393   6.999   8.215 -0.5318  0.3539  0.1615
  929MOL0     C25292   5.389   7.124   8.128  0.8221  0.4062 -0.0251
  929MOL0     C25293   5.249   7.183   8.130 -0.6900  0.3007 -0.0902
  929MOL0     C25294   5.252   7.300   8.034 -0.2113 -0.5538  0.7758
  929MOL0     C25295   5.344   7.422   8.048 -0.3627 -0.6746  0.1513
  929MOL0     C25296   5.495   7.408   8.003 -1.4476  0.3675 -0.1123
  929MOL0     N25297   5.539   7.543   7.961  0.1551  0.4829  0.0623
  929MOL0     C25298   5.503   7.618   7.847  0.8893 -0.1809 -1.0126
  929MOL0     C25299   5.563   7.736   7.854  0.0961 -0.1144 -0.8486
  929MOL0     C25300   5.561   7.854   7.763  0.2532 -0.2774 -0.2384
  929MOL0     C25301   5.677   7.855   7.665 -0.2568  0.5963  0.0924
  929MOL0     C25302   5.822   7.872   7.728  0.0000  0.0480  0.8880
  929MOL0     C25303   5.828   7.999   7.806  0.0684 -0.1858 -0.0366
  929MOL0     O25304   5.792   8.123   7.732 -0.1015  0.3774  0.0311
  929MOL0     C25305   5.667   8.178   7.759 -0.5487  0.5740  0.4926
  929MOL0     C25306   5.608   8.241   7.652  0.0522  0.2268  0.2377
  929MOL0     C25307   5.489   8.312   7.658  0.7325 -1.0500 -0.6872
  929MOL0     C25308   5.432   8.382   7.530  1.2022  0.6880 -1.0403
  929MOL0     C25309   5.426   8.316   7.788  0.7855 -0.2477 -0.3856
  929MOL0     C25310   5.292   8.378   7.808 -0.1850  0.0076  0.0218
  929MOL0     O25311   5.212   8.427   7.702 -0.7605 -0.3323  0.5357
  929MOL0     C25312   5.086   8.466   7.733 -0.0883  0.5818  0.0661
  929MOL0     C25313   5.040   8.598   7.721 -0.2906  0.3827 -0.7732
  929MOL0     C25314   4.904   8.633   7.755  0.0813  0.3592 -0.2554
  929MOL0     C25315   4.820   8.535   7.801 -0.2473 -0.1057 -0.3668
  929MOL0     O25316   4.692   8.577   7.832  0.3924 -0.3243 -0.5572
  929MOL0     C25317   4.605   8.468   7.856  0.0212 -0.3488  1.5792
  929MOL0     C25318   4.452   8.500   7.876 -0.8144 -0.2999  0.3722
  929MOL0     C25319   4.407   8.606   7.773  0.6103  0.4052 -0.2537
  929MOL0     C25320   4.259   8.589   7.750  0.2504 -0.2074 -0.5030
  929MOL0     C25321   4.189   8.689   7.659 -0.4118  0.6998 -0.4931
  929MOL0     C25322   4.101   8.779   7.740  0.5049 -0.2034  0.0627
  929MOL0     C25323   4.021   8.876   7.659 -1.1965 -0.7709 -0.2342
  929MOL0     C25324   3.919   8.955   7.739  0.6647 -0.4744  0.1162
  929MOL0    Cl25325   3.994   9.081   7.848 -0.0198 -0.2415 -0.3063
  929MOL0     C25326   4.861   8.400   7.805  0.1483  0.1437 -0.3938
  929MOL0     C25327   4.998   8.372   7.777  0.3612 -0.7576 -0.6237
  929MOL0     O25328   5.260   8.396   7.925 -0.3269 -0.1128 -0.1764
  929MOL0     C25329   5.485   8.256   7.897 -0.3505 -0.1304 -0.5487
  929MOL0     C25330   5.609   8.185   7.879  0.2231 -0.7536  0.2657
  929MOL0     N25331   5.627   7.736   7.966 -0.5199  0.6864 -0.0641
  929MOL0     N25332   5.622   7.620   8.035  1.0350 -0.4496  0.2558
  929MOL0     C25333   5.787   6.631   7.942  0.4533  0.1431  0.0264
  929MOL0     C25334   5.908   6.646   7.878  0.3890  0.7185  0.3042
  929MOL0     C25335   6.157   6.866   7.539  0.6855  0.3453  0.4255
  929MOL0     C25336   6.140   6.922   7.411  0.7457  0.1808  0.0586
  929MOL0     C25337   6.241   6.914   7.326 -0.4413  0.1853 -0.2796
  929MOL0     C25338   6.366   6.877   7.367 -0.2580 -0.1616 -0.0540
  929MOL0     O25339   6.441   6.846   7.256  0.0293 -0.2835  0.1885
  929MOL0     C25340   6.581   6.811   7.280 -0.5468  0.5778 -0.7953
  929MOL0     C25341   6.668   6.822   7.153  0.1417 -0.0964 -0.3400
  929MOL0     C25342   6.813   6.800   7.159 -0.1096 -0.4302  0.1068
  929MOL0     C25343   6.896   6.830   7.035 -0.3042  0.2814 -1.1586
  929MOL0     C25344   6.838   6.786   6.908  0.5008  0.7241  0.5357
  929MOL0     C25345   6.803   6.743   6.793  0.0159  0.7546 -0.4345
  929MOL0     C25346   6.390   6.839   7.495 -0.3849 -0.2184 -0.0184
  929MOL0     C25347   6.281   6.830   7.584 -0.0686 -0.5845  0.4761
  929MOL0     H25348   5.922   6.980   7.832 -2.8945  1.7620  0.3126
  929MOL0     H25349   5.701   6.965   7.969 -0.4272 -0.7797  1.9567
  929MOL0     H25350   5.491   6.890   7.949 -2.0177 -0.5283 -1.8433
  929MOL0     H25351   5.387   6.808   8.064  0.6341  2.9111  3.7661
  929MOL0     H25352   5.537   6.843   8.253  5.0128  0.4791 -0.5118
  929MOL0     H25353   5.606   6.979   8.160  1.1610 -2.3247 -1.7997
  929MOL0     H25354   5.305   6.934   8.211  0.0075 -0.4787  1.2925
  929MOL0     H25355   5.399   7.025   8.321 -0.9032 -0.7987  0.4837
  929MOL0     H25356   5.473   7.188   8.159  0.5095 -0.0836  1.9851
  929MOL0     H25357   5.418   7.098   8.026 -1.9440 -0.0720 -0.7480
  929MOL0     H25358   5.184   7.103   8.092  0.7951 -0.2692 -1.5358
  929MOL0     H25359   5.220   7.203   8.234 -0.8933 -0.3094 -0.0239
  929MOL0     H25360   5.267   7.255   7.936  0.2335  0.7825  0.2058
  929MOL0     H25361   5.150   7.339   8.043 -0.7972 -2.3922  3.0103
  929MOL0     H25362   5.298   7.504   7.992 -1.0091 -0.0166  1.5904
  929MOL0     H25363   5.348   7.455   8.152  3.1475 -2.2392  0.6797
  929MOL0     H25364   5.510   7.345   7.915  2.1831 -1.3993  1.5619
  929MOL0     H25365   5.565   7.361   8.073  0.6104  0.8291 -1.7356
  929MOL0     H25366   5.435   7.584   7.770  0.6417 -0.6523 -0.5962
  929MOL0     H25367   5.471   7.849   7.702  0.7247  2.7806 -1.3390
  929MOL0     H25368   5.558   7.947   7.821  0.4636 -0.9029  0.8030
  929MOL0     H25369   5.652   7.936   7.595 -0.0125  0.7117  0.1367
  929MOL0     H25370   5.675   7.762   7.608  0.1867  1.5203 -1.5126
  929MOL0     H25371   5.892   7.881   7.644 -0.6628 -1.6597  0.1003
  929MOL0     H25372   5.852   7.780   7.778 -2.2758 -0.5762  1.2277
  929MOL0     H25373   5.925   8.013   7.856 -0.6945  0.5995  1.2581
  929MOL0     H25374   5.757   7.982   7.887  1.0796 -2.0101  0.5452
  929MOL0     H25375   5.658   8.235   7.556  0.2616  1.8350  0.2120
  929MOL0     H25376   5.384   8.478   7.551 -3.7076 -1.9561  1.6171
  929MOL0     H25377   5.509   8.386   7.452  0.0479  3.9253 -2.1559
  929MOL0     H25378   5.351   8.318   7.494  2.6056 -1.6168 -0.3074
  929MOL0     H25379   5.113   8.670   7.686  4.4076 -2.5936  1.8360
  929MOL0     H25380   4.880   8.738   7.760  0.9904  0.5049  2.2072
  929MOL0     H25381   4.612   8.414   7.760  0.9373  1.7444  0.3958
  929MOL0     H25382   4.643   8.408   7.938  1.5787 -0.4677  0.8079
  929MOL0     H25383   4.393   8.407   7.875 -2.4691  0.6925  1.1159
  929MOL0     H25384   4.423   8.538   7.974 -3.4166 -0.9919 -0.0434
  929MOL0     H25385   4.468   8.613   7.682 -3.6194  1.0024 -3.3105
  929MOL0     H25386   4.419   8.710   7.808 -0.2674  0.8105 -1.1205
  929MOL0     H25387   4.245   8.495   7.695 -2.3973  1.2009 -2.4541
  929MOL0     H25388   4.204   8.577   7.843  0.3250  3.0477  0.0466
  929MOL0     H25389   4.136   8.626   7.587  1.8858  0.8321 -2.4104
  929MOL0     H25390   4.259   8.752   7.604  0.9692  2.7041  3.1739
  929MOL0     H25391   4.030   8.723   7.801 -0.3744  1.8593  1.0315
  929MOL0     H25392   4.160   8.848   7.800 -0.4641 -0.8034  1.7700
  929MOL0     H25393   3.973   8.814   7.583 -0.3626  2.5439 -3.8019
  929MOL0     H25394   4.075   8.952   7.602 -1.2043 -0.0548  0.6705
  929MOL0     H25395   3.847   8.893   7.793  1.6144 -0.6219  1.2574
  929MOL0     H25396   3.852   9.017   7.679  3.0273  1.5581 -0.6088
  929MOL0     H25397   4.804   8.317   7.844 -1.4781  1.5855  0.4411
  929MOL0     H25398   5.038   8.271   7.773 -0.0628 -1.0731  1.6483
  929MOL0     H25399   5.437   8.260   7.994 -1.4253  1.2670 -1.0982
  929MOL0     H25400   5.652   8.153   7.974  1.6183  0.2814  0.0192
  929MOL0     H25401   5.765   6.528   7.967  2.5936 -1.1473 -2.8221
  929MOL0     H25402   5.965   6.558   7.851 -1.8171 -1.5768  2.5886
  929MOL0     H25403   6.044   6.954   7.372  1.1709  2.7183  0.8935
  929MOL0     H25404   6.210   6.934   7.224 -1.5244  0.8365  0.1537
  929MOL0     H25405   6.626   6.865   7.364 -0.4755  1.2128 -1.2307
  929MOL0     H25406   6.595   6.706   7.305  0.1357  1.1546  1.4157
  929MOL0     H25407   6.659   6.921   7.108 -0.2455  0.5503  1.1082
  929MOL0     H25408   6.621   6.750   7.085 -0.8891 -0.7330  1.0104
  929MOL0     H25409   6.832   6.695   7.184  3.1955  0.3329  1.3398
  929MOL0     H25410   6.872   6.842   7.241  2.3675 -3.2024 -0.0664
  929MOL0     H25411   6.985   6.766   7.037  0.4750  1.3636 -0.6927
  929MOL0     H25412   6.926   6.935   7.034 -0.7006  0.4623  1.2275
  929MOL0     H25413   6.764   6.730   6.694 -1.9475  3.8133 -0.1817
  929MOL0     H25414   6.488   6.804   7.525 -0.7258 -0.0268  1.3984
  929MOL0     H25415   6.317   6.805   7.683  3.0377  3.0146  0.4989
  930MOL0     O25416  10.869  10.639   9.171  0.6238  0.4840  0.0083
  930MOL0     C25417  10.873  10.674   9.055  0.1476 -0.3647  0.3797
  930MOL0     O25418  10.763  10.715   8.982 -0.2384  0.3445 -0.6567
  930MOL0     C25419  10.632  10.704   9.028  0.2790 -0.1690 -0.5476
  930MOL0     C25420  10.537  10.775   8.955 -0.3242 -0.2747  0.0066
  930MOL0     C25421  10.399  10.776   8.981  0.2957  0.2407 -0.3746
  930MOL0     C25422  10.351  10.694   9.079  0.2295  0.2030 -0.3546
  930MOL0     O25423  10.210  10.706   9.087  0.2635  0.0335  0.2003
  930MOL0     C25424  10.135  10.595   9.144 -1.4150 -0.2997  0.2488
  930MOL0     C25425   9.996  10.610   9.100 -0.2091 -0.3896  0.7821
  930MOL0     C25426   9.918  10.479   9.145 -0.0565  0.0125  0.1636
  930MOL0     C25427   9.763  10.506   9.109 -0.7444  0.5166 -0.1101
  930MOL0     C25428   9.677  10.370   9.099  0.0817 -0.4728 -0.0546
  930MOL0     C25429   9.530  10.410   9.087 -0.1191  0.1715 -0.5478
  930MOL0     C25430   9.440  10.294   9.100 -0.0670  1.0018  0.1170
  930MOL0     C25431   9.439  10.207   8.971 -0.0807  0.1847 -0.3695
  930MOL0     N25432   9.327  10.112   8.958  0.2003  0.2120  0.1384
  930MOL0     C25433   9.335   9.975   8.929  0.3623 -0.4443  0.4509
  930MOL0     C25434   9.205   9.943   8.905  0.0608  0.6292  0.4196
  930MOL0     C25435   9.151   9.798   8.901 -0.0504  0.4132 -0.4300
  930MOL0     C25436   9.062   9.775   9.020  0.7910 -0.2934  0.3135
  930MOL0     C25437   9.018   9.626   9.019 -0.7618 -0.7864  0.2604
  930MOL0     C25438   8.976   9.592   9.158  0.0233 -0.0624  0.3857
  930MOL0     O25439   8.916   9.466   9.150 -0.0312 -0.4275 -0.3124
  930MOL0     C25440   8.831   9.420   9.248  0.6004 -0.0188  0.6775
  930MOL0     C25441   8.835   9.468   9.383 -0.8606 -0.6783 -0.2944
  930MOL0     C25442   8.730   9.439   9.468 -0.6383  0.5820 -0.2977
  930MOL0     C25443   8.740   9.514   9.592 -0.0722 -0.0784  0.3333
  930MOL0     C25444   8.624   9.350   9.434 -0.7734 -0.4103  0.4621
  930MOL0     C25445   8.510   9.303   9.521 -0.0082 -0.1427 -0.7970
  930MOL0     O25446   8.393   9.263   9.457  0.1618  0.7496 -0.5294
  930MOL0     C25447   8.286   9.184   9.522 -0.2449  0.0645 -0.1117
  930MOL0     C25448   8.165   9.201   9.467  0.1602  0.8076  0.7144
  930MOL0     C25449   8.053   9.141   9.529 -0.2084 -0.1829  0.6050
  930MOL0     C25450   8.064   9.066   9.642  0.4099  0.2928  0.5360
  930MOL0     O25451   7.950   9.018   9.714 -1.1703  0.1685  0.4309
  930MOL0     C25452   7.966   8.900   9.781  0.7455  0.7704  0.1268
  930MOL0     C25453   7.834   8.857   9.847 -1.3045 -0.5264  0.1242
  930MOL0     C25454   7.833   8.710   9.896  0.2928  1.1153 -0.3848
  930MOL0     C25455   7.814   8.609   9.783 -0.0812 -0.2138  0.3387
  930MOL0     C25456   7.786   8.473   9.854  0.8320  0.0875 -0.3678
  930MOL0     C25457   7.767   8.364   9.755 -0.6238  0.3911 -1.3229
  930MOL0     C25458   7.795   8.234   9.832  0.5091  0.0770 -1.0491
  930MOL0     C25459   7.789   8.102   9.753 -0.4062  0.5288 -0.1828
  930MOL0    Cl25460   7.618   8.075   9.690  0.3267  0.1904  0.1780
  930MOL0     C25461   8.193   9.049   9.701  0.5827  0.2553 -0.4187
  930MOL0     C25462   8.297   9.114   9.641 -1.2830  0.4209 -0.5402
  930MOL0     O25463   8.521   9.307   9.642 -0.0678  0.0512  0.0454
  930MOL0     C25464   8.620   9.307   9.291 -0.5180  0.3251  0.1773
  930MOL0     C25465   8.722   9.337   9.206 -0.4953 -0.8971 -0.7613
  930MOL0     N25466   9.128  10.055   8.908 -0.2258 -0.8543  0.3147
  930MOL0     N25467   9.203  10.154   8.929 -1.0722 -0.5412  0.6885
  930MOL0     C25468  10.440  10.621   9.159  0.2657  0.3348  0.5542
  930MOL0     C25469  10.580  10.627   9.133  0.2950  0.2914  0.4486
  930MOL0     C25470  11.004  10.681   8.989 -0.3819  0.3142  0.6454
  930MOL0     C25471  11.027  10.763   8.880 -1.1504  0.2394 -0.2753
  930MOL0     C25472  11.158  10.774   8.816 -0.6523  0.7557  0.0694
  930MOL0     C25473  11.266  10.695   8.874  0.2985 -0.6656 -0.6331
  930MOL0     O25474  11.396  10.689   8.829 -0.3957 -0.7307 -0.5753
  930MOL0     C25475  11.429  10.799   8.742 -0.0212 -0.8961 -0.2985
  930MOL0     C25476  11.578  10.802   8.742 -0.7963 -0.4744  0.0228
  930MOL0     C25477  11.641  10.839   8.878  0.5173 -0.1221  0.6239
  930MOL0     C25478  11.789  10.822   8.883 -0.1019  0.2861  0.3112
  930MOL0     C25479  11.855  10.905   8.986 -0.9666  0.7639 -0.1405
  930MOL0     C25480  11.916  10.975   9.070  0.2235  0.4894 -1.0452
  930MOL0     C25481  11.245  10.628   8.993 -0.7381  0.1135 -0.9610
  930MOL0     C25482  11.112  10.622   9.047  0.1439  0.6225  0.2356
  930MOL0     H25483  10.577  10.833   8.873  1.9854  0.4430  1.5165
  930MOL0     H25484  10.341  10.830   8.907  0.1178  0.4932 -0.0526
  930MOL0     H25485  10.172  10.501   9.101 -0.8671 -0.3724  0.8587
  930MOL0     H25486  10.146  10.596   9.253  2.7034  2.1194  0.0524
  930MOL0     H25487   9.960  10.707   9.133  0.7727  0.0545  0.5658
  930MOL0     H25488   9.989  10.618   8.991 -1.0825  3.2135  0.9863
  930MOL0     H25489   9.962  10.398   9.086 -0.0428 -0.9506  1.4749
  930MOL0     H25490   9.939  10.458   9.250  2.1745 -0.0897 -0.2519
  930MOL0     H25491   9.731  10.573   9.189  1.6606  1.6379  0.0307
  930MOL0     H25492   9.751  10.559   9.015 -2.4823  0.6207  0.1449
  930MOL0     H25493   9.702  10.313   9.009 -2.1196 -0.6621 -0.6068
  930MOL0     H25494   9.690  10.305   9.185  3.1103  0.3282  0.2154
  930MOL0     H25495   9.514  10.478   9.171  3.0209 -0.3242  0.5588
  930MOL0     H25496   9.504  10.465   8.996  0.6686  0.4899 -0.5820
  930MOL0     H25497   9.472  10.248   9.194 -0.5707  2.6892  1.1472
  930MOL0     H25498   9.340  10.337   9.109 -0.7602 -0.5818  0.3389
  930MOL0     H25499   9.535  10.155   8.963 -0.3623 -0.1900 -1.4116
  930MOL0     H25500   9.435  10.276   8.886 -0.2838  0.6157 -0.0148
  930MOL0     H25501   9.422   9.911   8.925  0.2763 -0.4823 -2.4695
  930MOL0     H25502   9.095   9.793   8.807 -0.6275 -1.0949 -0.0241
  930MOL0     H25503   9.234   9.728   8.911 -0.5813 -0.3644 -1.3235
  930MOL0     H25504   8.978   9.844   9.028  0.7643 -0.2800 -0.0686
  930MOL0     H25505   9.111   9.799   9.115 -0.7466 -1.4392  1.4367
  930MOL0     H25506   9.100   9.561   8.989  0.7612  0.6709  1.0493
  930MOL0     H25507   8.944   9.616   8.939  1.3388 -2.4479 -1.5830
  930MOL0     H25508   8.904   9.662   9.200  2.7742  2.0517  1.9470
  930MOL0     H25509   9.057   9.582   9.231 -0.1159 -4.2710  0.1998
  930MOL0     H25510   8.915   9.536   9.409 -0.6312  0.2419 -3.0761
  930MOL0     H25511   8.787   9.612   9.591  0.6067 -0.3841  0.9028
  930MOL0     H25512   8.638   9.537   9.623 -0.7173 -2.0302 -0.1860
  930MOL0     H25513   8.792   9.455   9.668 -2.4162  1.0551  2.9874
  930MOL0     H25514   8.146   9.270   9.385  0.8260  0.9706  0.6853
  930MOL0     H25515   7.957   9.164   9.483  0.4673  2.5595  0.3457
  930MOL0     H25516   7.989   8.818   9.712 -2.1799 -0.1903  0.1675
  930MOL0     H25517   8.047   8.910   9.854  1.7463  1.3344 -1.0220
  930MOL0     H25518   7.812   8.929   9.926  0.6881  1.1478 -0.7545
  930MOL0     H25519   7.753   8.867   9.775 -0.0879 -0.0607 -1.2322
  930MOL0     H25520   7.754   8.702   9.972  0.1304  3.3498 -0.2583
  930MOL0     H25521   7.925   8.683   9.949 -0.5562  1.2589  1.2253
  930MOL0     H25522   7.721   8.626   9.727 -1.0820 -2.3539  1.2325
  930MOL0     H25523   7.894   8.601   9.708  0.5561  2.1530  0.6871
  930MOL0     H25524   7.698   8.474   9.919  0.9747 -1.0519 -0.1324
  930MOL0     H25525   7.873   8.442   9.914 -1.3350 -1.8864  1.9475
  930MOL0     H25526   7.666   8.367   9.714 -1.9577  0.6528  1.7135
  930MOL0     H25527   7.833   8.378   9.669 -0.4765  1.3776 -1.0581
  930MOL0     H25528   7.726   8.225   9.916  0.5426  0.6764 -0.9524
  930MOL0     H25529   7.898   8.235   9.870  0.7429 -3.3106 -1.2431
  930MOL0     H25530   7.819   8.022   9.822  1.6739  0.0199 -1.5764
  930MOL0     H25531   7.861   8.094   9.671 -0.0732  0.0284  0.1522
  930MOL0     H25532   8.210   9.016   9.803  0.1772  3.2330  0.6984
  930MOL0     H25533   8.393   9.111   9.690 -1.8244 -0.1322  0.5380
  930MOL0     H25534   8.552   9.233   9.251  0.4733 -0.5815  0.1412
  930MOL0     H25535   8.719   9.299   9.105 -0.8991 -0.7794 -0.7959
  930MOL0     H25536  10.389  10.555   9.228  1.1725  1.0516  1.9578
  930MOL0     H25537  10.639  10.557   9.192  1.9018  0.7560 -0.5370
  930MOL0     H25538  10.941  10.822   8.849 -0.0841  3.1420  1.8218
  930MOL0     H25539  11.171  10.847   8.737 -2.1031  1.0577  0.0894
  930MOL0     H25540  11.390  10.783   8.641 -0.3661 -0.0293 -0.3063
  930MOL0     H25541  11.403  10.902   8.768  0.5514 -0.5710 -0.9496
  930MOL0     H25542  11.612  10.867   8.661  1.7596 -0.3778  1.0747
  930MOL0     H25543  11.607  10.699   8.720  0.3443  0.1587 -1.6189
  930MOL0     H25544  11.595  10.777   8.956 -1.0188  0.2662  0.0630
  930MOL0     H25545  11.607  10.938   8.909 -1.2984 -0.3770 -0.4236
  930MOL0     H25546  11.826  10.844   8.783 -0.3294 -4.6979 -1.1171
  930MOL0     H25547  11.819  10.717   8.882  2.1763  0.8754  1.0128
  930MOL0     H25548  11.988  11.013   9.140 -1.2060 -3.5959  3.1393
  930MOL0     H25549  11.324  10.568   9.035 -1.2347  1.0702  1.4929
  930MOL0     H25550  11.109  10.580   9.147 -0.8935 -0.5138 -0.2490
  931MOL0     O25551  10.342   6.747   5.090 -0.8277 -0.4513  0.2634
  931MOL0     C25552  10.437   6.721   5.017  0.9346  1.3512  0.0647
  931MOL0     O25553  10.437   6.611   4.940 -0.7098 -0.2408 -0.2021
  931MOL0     C25554  10.329   6.529   4.929  0.1914 -0.1894  0.0278
  931MOL0     C25555  10.330   6.391   4.966  0.3343 -0.2100  0.3261
  931MOL0     C25556  10.213   6.315   4.948  0.5977 -0.3209  0.1779
  931MOL0     C25557  10.098   6.362   4.884  0.9771 -0.1131 -0.3743
  931MOL0     O25558   9.979   6.294   4.868  0.0793 -0.4201  0.4095
  931MOL0     C25559   9.966   6.159   4.900  0.6457  1.1032  0.1727
  931MOL0     C25560   9.858   6.095   4.827 -0.0666 -0.5877 -0.4717
  931MOL0     C25561   9.712   6.129   4.874  0.0599  0.2645 -0.4367
  931MOL0     C25562   9.597   6.049   4.796  0.0285  0.1342  0.2327
  931MOL0     C25563   9.470   6.071   4.879 -0.8241 -0.3670 -0.3882
  931MOL0     C25564   9.354   5.992   4.824  0.9662  0.6738 -0.2397
  931MOL0     C25565   9.221   6.025   4.890  1.0426  0.0894 -0.1664
  931MOL0     C25566   9.117   5.909   4.851  0.2106 -1.3507 -0.3813
  931MOL0     N25567   8.983   5.942   4.893  0.3392 -0.8463 -0.0006
  931MOL0     C25568   8.879   5.982   4.811 -0.3058  0.2626 -0.5536
  931MOL0     C25569   8.766   5.967   4.882  0.0447  0.6937  0.0544
  931MOL0     C25570   8.628   6.015   4.835  0.0221 -0.3325  0.1667
  931MOL0     C25571   8.521   5.901   4.827 -0.0283 -0.7459 -0.3502
  931MOL0     C25572   8.459   5.859   4.964  0.0885 -0.6552  0.9378
  931MOL0     C25573   8.361   5.745   4.956 -0.1396 -0.1920 -0.6004
  931MOL0     O25574   8.269   5.771   4.846  0.1088  0.0697  0.0643
  931MOL0     C25575   8.158   5.693   4.825  0.6371  0.9215 -0.2131
  931MOL0     C25576   8.111   5.586   4.905 -0.1605  0.0309  0.3591
  931MOL0     C25577   8.008   5.511   4.859 -0.7578  0.6679 -0.9189
  931MOL0     C25578   7.967   5.394   4.947 -0.9275 -0.0308 -0.2405
  931MOL0     C25579   7.931   5.544   4.744 -0.7360  0.0086 -0.5061
  931MOL0     C25580   7.821   5.452   4.692  0.7863  0.1000 -0.0544
  931MOL0     O25581   7.709   5.501   4.633 -0.1427  0.0586 -0.1223
  931MOL0     C25582   7.608   5.434   4.583  0.3284  0.1605  1.1291
  931MOL0     C25583   7.582   5.429   4.444 -0.7198  0.5488  0.1817
  931MOL0     C25584   7.468   5.364   4.393  0.2429 -0.2585  0.5433
  931MOL0     C25585   7.382   5.302   4.478  0.9355  0.8536 -0.0242
  931MOL0     O25586   7.260   5.250   4.432  0.2876  0.3837  0.1559
  931MOL0     C25587   7.286   5.133   4.347  0.4315 -0.8055  0.3441
  931MOL0     C25588   7.172   5.118   4.241  0.8204  0.6730  0.3977
  931MOL0     C25589   7.055   5.045   4.308 -0.2184 -0.5758  0.2228
  931MOL0     C25590   6.934   5.019   4.212  0.2250 -0.7355  0.7820
  931MOL0     C25591   6.843   4.908   4.276 -0.1983  0.2324 -0.0094
  931MOL0     C25592   6.753   4.845   4.167  0.6633  1.1272  0.0659
  931MOL0     C25593   6.641   4.751   4.222 -0.8147 -0.2835 -0.2552
  931MOL0     C25594   6.694   4.616   4.264  0.7401  0.3096 -0.4330
  931MOL0    Cl25595   6.551   4.513   4.291 -0.3570  0.4167 -0.3478
  931MOL0     C25596   7.404   5.308   4.615  0.2820 -0.2025  0.1091
  931MOL0     C25597   7.522   5.366   4.666 -0.4486 -0.5321 -0.6448
  931MOL0     O25598   7.847   5.332   4.699 -0.5036  0.4560  0.0965
  931MOL0     C25599   7.975   5.652   4.672 -0.1030  0.0421 -0.4238
  931MOL0     C25600   8.083   5.725   4.711  0.7550  0.4586 -0.2540
  931MOL0     N25601   8.799   5.923   5.011 -0.1303  0.6894  0.6454
  931MOL0     N25602   8.928   5.913   5.017 -0.4600  0.7691  0.4932
  931MOL0     C25603  10.103   6.489   4.835  0.6711  0.9568  0.6846
  931MOL0     C25604  10.213   6.576   4.862 -0.1181  0.5318  0.2269
  931MOL0     C25605  10.563   6.806   5.013 -0.1045 -0.3118  0.4963
  931MOL0     C25606  10.671   6.773   4.925  0.1067  0.1670 -0.5816
  931MOL0     C25607  10.796   6.834   4.926  0.0384  0.1717 -0.0482
  931MOL0     C25608  10.817   6.933   5.027 -0.1774  0.3242  0.7113
  931MOL0     O25609  10.937   6.994   5.038  0.2817 -0.9359 -0.3038
  931MOL0     C25610  11.028   6.978   4.927 -0.1003 -0.2126  0.0336
  931MOL0     C25611  11.120   7.101   4.938 -0.1409  0.8637  0.3020
  931MOL0     C25612  11.056   7.236   4.929 -0.4990  0.1244 -0.4594
  931MOL0     C25613  11.170   7.334   4.931  0.2256 -0.1989  0.1537
  931MOL0     C25614  11.259   7.324   5.046 -0.1330  0.4756 -0.7527
  931MOL0     C25615  11.333   7.332   5.142 -0.2665  0.2923 -0.3990
  931MOL0     C25616  10.710   6.967   5.106  0.2960 -0.8693 -0.1859
  931MOL0     C25617  10.581   6.909   5.100  0.3336 -0.6906  0.0411
  931MOL0     H25618  10.415   6.344   5.014 -2.1588 -1.7388  3.6276
  931MOL0     H25619  10.217   6.210   4.977 -4.2806 -0.7096  0.3675
  931MOL0     H25620  10.058   6.111   4.867 -0.2252  1.1415 -2.5170
  931MOL0     H25621   9.949   6.149   5.008 -0.5165  1.0493 -0.0061
  931MOL0     H25622   9.879   6.113   4.721  0.6142 -1.0424 -0.4197
  931MOL0     H25623   9.872   5.989   4.851 -2.2450 -1.2844 -2.0295
  931MOL0     H25624   9.703   6.118   4.983  2.6979 -2.1674 -0.3597
  931MOL0     H25625   9.699   6.237   4.858  0.3796  0.6226  1.4052
  931MOL0     H25626   9.570   6.073   4.692 -2.6287 -4.6555 -0.4565
  931MOL0     H25627   9.627   5.944   4.798  2.5124  0.6972 -1.8476
  931MOL0     H25628   9.495   6.048   4.983 -1.0920 -0.9888 -0.4555
  931MOL0     H25629   9.440   6.175   4.861 -0.6567 -0.0300  1.0928
  931MOL0     H25630   9.334   5.999   4.717  0.3008 -1.6822 -0.3341
  931MOL0     H25631   9.377   5.886   4.839  1.1890  0.4148 -2.2282
  931MOL0     H25632   9.236   6.032   4.999 -0.7532  0.5126  0.0825
  931MOL0     H25633   9.183   6.120   4.852  1.5848  0.0815 -0.7407
  931MOL0     H25634   9.147   5.815   4.898  1.8166 -0.4261  0.5558
  931MOL0     H25635   9.125   5.912   4.742 -0.9739  2.2730 -0.4865
  931MOL0     H25636   8.875   6.015   4.708  0.2222 -0.3334 -0.7676
  931MOL0     H25637   8.597   6.107   4.885  0.2948 -0.3849  0.4383
  931MOL0     H25638   8.630   6.036   4.728  0.9076 -2.0077 -0.1903
  931MOL0     H25639   8.573   5.812   4.789  2.3252  1.6649 -3.2814
  931MOL0     H25640   8.441   5.938   4.762 -2.9090 -0.0177  3.2510
  931MOL0     H25641   8.403   5.942   5.011 -0.7704 -2.1753  2.7351
  931MOL0     H25642   8.538   5.823   5.030 -1.1330  0.4535  3.1499
  931MOL0     H25643   8.301   5.727   5.045 -0.0588  3.4806  0.3629
  931MOL0     H25644   8.412   5.650   4.940 -0.2016 -0.4174  0.4671
  931MOL0     H25645   8.164   5.561   4.996  0.7076  0.1660 -0.1021
  931MOL0     H25646   7.860   5.371   4.945 -0.3959 -2.9157 -0.0607
  931MOL0     H25647   8.020   5.309   4.902 -1.0393  0.0317 -0.4947
  931MOL0     H25648   7.992   5.400   5.053 -2.1935  0.3343  0.0459
  931MOL0     H25649   7.640   5.493   4.379 -2.8502 -0.2561 -2.6931
  931MOL0     H25650   7.442   5.375   4.288 -0.6728  3.0150  0.9924
  931MOL0     H25651   7.381   5.139   4.292  0.3134  0.6121  0.2500
  931MOL0     H25652   7.288   5.043   4.409  3.5968 -0.5052  0.8531
  931MOL0     H25653   7.139   5.210   4.192 -0.3528  0.0189 -0.0673
  931MOL0     H25654   7.199   5.053   4.157 -2.8821  0.6170 -0.9106
  931MOL0     H25655   7.017   5.100   4.394  0.1846  1.3875 -0.7858
  931MOL0     H25656   7.093   4.945   4.330  2.1852 -0.1939 -1.7377
  931MOL0     H25657   6.882   5.113   4.192  2.0298  0.3868  1.2135
  931MOL0     H25658   6.963   4.978   4.114 -2.9394  1.0189 -1.0742
  931MOL0     H25659   6.783   4.947   4.358  0.0145 -3.4421  2.1170
  931MOL0     H25660   6.914   4.833   4.313 -0.0318  0.2571 -0.2724
  931MOL0     H25661   6.708   4.923   4.105  0.4163  1.1713  0.2976
  931MOL0     H25662   6.812   4.785   4.097 -0.7630 -0.3724  0.0901
  931MOL0     H25663   6.577   4.731   4.136 -0.1164 -0.8923 -0.6571
  931MOL0     H25664   6.580   4.801   4.298  2.3864  2.6367  0.6664
  931MOL0     H25665   6.758   4.625   4.353  3.9779 -0.0274 -2.5643
  931MOL0     H25666   6.743   4.562   4.183 -1.6050 -0.4289 -1.4454
  931MOL0     H25667   7.338   5.261   4.687  2.0433 -1.0289  1.2665
  931MOL0     H25668   7.546   5.353   4.771 -2.5026 -1.7835 -0.2877
  931MOL0     H25669   7.914   5.683   4.587 -2.5139 -1.7847  0.5086
  931MOL0     H25670   8.114   5.812   4.655 -1.3110  0.3599 -1.6610
  931MOL0     H25671  10.012   6.525   4.787  1.7038  0.5781 -1.6993
  931MOL0     H25672  10.216   6.681   4.832  0.8926  0.4386 -0.0396
  931MOL0     H25673  10.642   6.705   4.847 -0.0721 -0.4564  0.0196
  931MOL0     H25674  10.877   6.803   4.860 -0.7859  0.2096 -1.1045
  931MOL0     H25675  11.085   6.884   4.927  0.9594  0.3222 -3.0591
  931MOL0     H25676  10.979   6.988   4.830 -3.3215  0.0990  1.5595
  931MOL0     H25677  11.201   7.095   4.865  0.4176 -0.3915  0.9856
  931MOL0     H25678  11.166   7.090   5.037  1.7397 -0.2485 -0.6261
  931MOL0     H25679  10.999   7.247   5.022  0.9826  0.1475  0.4731
  931MOL0     H25680  11.008   7.250   4.832  2.4821 -2.1551 -2.4060
  931MOL0     H25681  11.138   7.439   4.934 -0.2272 -0.3510  0.8613
  931MOL0     H25682  11.228   7.330   4.838 -2.7771 -0.4083 -1.8285
  931MOL0     H25683  11.411   7.347   5.214 -0.3672 -0.3137 -0.1539
  931MOL0     H25684  10.726   7.051   5.172 -2.7155  0.6052 -1.1615
  931MOL0     H25685  10.502   6.938   5.169  0.7362 -1.3214  0.7863
  932MOL0     O25686  10.257   7.970   4.469  0.5725 -0.3546  0.4949
  932MOL0     C25687  10.315   8.079   4.451 -0.9080  0.7232  0.0780
  932MOL0     O25688  10.269   8.204   4.462 -0.1657  0.2969 -0.2025
  932MOL0     C25689  10.137   8.234   4.486 -0.5366  0.2986  0.8443
  932MOL0     C25690  10.022   8.156   4.482 -0.1122 -1.1282  0.4604
  932MOL0     C25691   9.896   8.209   4.494  0.8556  0.1191 -0.5592
  932MOL0     C25692   9.876   8.343   4.522  0.3751  0.5043 -0.6899
  932MOL0     O25693   9.743   8.387   4.562 -0.3022 -0.0936  0.5480
  932MOL0     C25694   9.729   8.411   4.702  0.2090  0.5452 -0.2053
  932MOL0     C25695   9.648   8.304   4.775  0.5481  0.6850 -0.6333
  932MOL0     C25696   9.517   8.256   4.702 -0.1985 -1.1865 -0.0884
  932MOL0     C25697   9.410   8.364   4.691 -0.1790 -0.7210 -0.1565
  932MOL0     C25698   9.276   8.300   4.639 -0.0300  0.2158 -1.0021
  932MOL0     C25699   9.279   8.240   4.496  1.0022  0.3971  0.2305
  932MOL0     C25700   9.151   8.177   4.462  0.1888 -0.5539  0.4085
  932MOL0     C25701   9.067   8.274   4.372 -0.0783 -0.7600  0.6650
  932MOL0     N25702   8.925   8.241   4.364 -0.8248  0.5893 -0.0805
  932MOL0     C25703   8.875   8.162   4.270  0.7135  1.0182  0.3194
  932MOL0     C25704   8.751   8.125   4.322  0.0742  0.4771  0.8184
  932MOL0     C25705   8.645   8.044   4.251  1.3388 -0.3873  0.0488
  932MOL0     C25706   8.497   8.083   4.256  1.0232  0.5321 -0.1382
  932MOL0     C25707   8.401   7.986   4.192 -0.3535 -1.3055  0.4126
  932MOL0     C25708   8.383   7.862   4.275  0.2749 -0.0418  0.2706
  932MOL0     O25709   8.283   7.777   4.216  0.1341 -0.3637  0.1689
  932MOL0     C25710   8.154   7.816   4.245 -0.0124  0.8122  0.1735
  932MOL0     C25711   8.049   7.754   4.165 -0.4445 -0.4788 -0.4229
  932MOL0     C25712   7.909   7.792   4.181  0.3578 -1.1135  0.4277
  932MOL0     C25713   7.811   7.713   4.098 -0.2040 -0.2826 -0.0892
  932MOL0     C25714   7.875   7.891   4.270  0.5977 -0.4840 -0.7432
  932MOL0     C25715   7.735   7.951   4.292 -0.8235 -0.0492 -0.8586
  932MOL0     O25716   7.631   7.902   4.219  0.4772 -0.1042  0.0868
  932MOL0     C25717   7.498   7.934   4.252  0.0013 -0.2675  0.8808
  932MOL0     C25718   7.426   7.978   4.143  0.3676  0.5412  1.0380
  932MOL0     C25719   7.282   7.991   4.145 -1.0098  0.2340 -0.4901
  932MOL0     C25720   7.217   7.972   4.269 -1.0974 -0.2763  0.0233
  932MOL0     O25721   7.081   7.991   4.297 -0.0838  0.2580  0.1466
  932MOL0     C25722   7.003   8.069   4.203 -0.4015  0.3245  0.5254
  932MOL0     C25723   6.862   8.043   4.249 -0.4295  0.6190  0.5671
  932MOL0     C25724   6.762   8.123   4.163 -0.5693 -0.4268  0.4184
  932MOL0     C25725   6.615   8.102   4.214 -0.1618  0.2509 -0.3053
  932MOL0     C25726   6.519   8.137   4.100 -0.8056  0.1744 -0.7829
  932MOL0     C25727   6.383   8.127   4.150 -0.1428  0.5738  0.0002
  932MOL0     C25728   6.274   8.202   4.083  0.0987 -0.2016  0.0543
  932MOL0     C25729   6.143   8.150   4.130 -0.6157  0.7048 -0.8876
  932MOL0    Cl25730   6.002   8.226   4.054 -0.0204  0.2547  0.2576
  932MOL0     C25731   7.304   7.954   4.384 -0.0111  0.1114  0.4024
  932MOL0     C25732   7.442   7.927   4.376  0.3503 -0.3571  0.2811
  932MOL0     O25733   7.722   8.031   4.377 -0.2159 -0.3844  0.6322
  932MOL0     C25734   7.980   7.949   4.336  0.1130 -0.8498 -0.7092
  932MOL0     C25735   8.116   7.919   4.325 -0.2770  1.4132  0.5254
  932MOL0     N25736   8.739   8.176   4.445 -0.3746  0.1192  0.2556
  932MOL0     N25737   8.841   8.247   4.469 -0.3552  0.1690  0.4588
  932MOL0     C25738   9.985   8.428   4.529  0.0504 -0.5171 -0.3342
  932MOL0     C25739  10.115   8.371   4.503 -0.0259  0.6073 -0.4477
  932MOL0     C25740  10.457   8.061   4.408 -0.3402  0.1239 -0.9644
  932MOL0     C25741  10.536   8.171   4.370  1.0309  0.6737 -0.2239
  932MOL0     C25742  10.659   8.154   4.301  0.8550 -1.0176 -0.8299
  932MOL0     C25743  10.720   8.030   4.299  0.3189  0.4608 -0.5882
  932MOL0     O25744  10.848   8.013   4.239  0.3795 -0.0046 -0.4262
  932MOL0     C25745  10.925   8.126   4.195 -0.0684  0.5114 -0.4318
  932MOL0     C25746  11.061   8.083   4.141 -1.3480 -0.0223  0.4464
  932MOL0     C25747  11.126   7.975   4.229 -0.0101  0.2204 -0.1307
  932MOL0     C25748  11.271   7.942   4.178  0.1188  0.0749 -0.8038
  932MOL0     C25749  11.341   7.865   4.283  0.4222 -0.3153  0.3063
  932MOL0     C25750  11.407   7.804   4.362  0.6890 -0.5279  0.5629
  932MOL0     C25751  10.648   7.916   4.348 -0.3042  0.6834 -0.4167
  932MOL0     C25752  10.520   7.934   4.401  0.3474 -0.1837  0.9969
  932MOL0     H25753  10.022   8.048   4.469 -0.0585 -1.1016  0.2312
  932MOL0     H25754   9.814   8.139   4.501  0.2836  0.7209 -1.0891
  932MOL0     H25755   9.826   8.424   4.751  0.0062 -1.0584  0.6929
  932MOL0     H25756   9.673   8.504   4.714  0.3639  0.5008  1.0543
  932MOL0     H25757   9.707   8.213   4.792  0.6255  0.6305 -1.1724
  932MOL0     H25758   9.637   8.336   4.879  3.6197 -0.6529  0.2106
  932MOL0     H25759   9.542   8.212   4.605  0.0071 -0.5242 -0.3444
  932MOL0     H25760   9.473   8.175   4.760 -3.4184  0.4539 -0.0095
  932MOL0     H25761   9.386   8.430   4.775 -0.6047  0.3134 -1.0678
  932MOL0     H25762   9.444   8.440   4.620  0.6130 -0.1787  0.7803
  932MOL0     H25763   9.244   8.220   4.706 -0.2856  0.4971 -0.7864
  932MOL0     H25764   9.200   8.379   4.635 -1.6982 -1.1171  1.6806
  932MOL0     H25765   9.324   8.312   4.428  1.5925 -1.1355 -1.0546
  932MOL0     H25766   9.354   8.161   4.490  1.3553  0.7772 -0.5063
  932MOL0     H25767   9.178   8.081   4.416  0.2631  0.8074 -2.6338
  932MOL0     H25768   9.092   8.149   4.550  0.8387 -0.2640  0.9494
  932MOL0     H25769   9.117   8.270   4.275  0.0780 -0.3298  0.7259
  932MOL0     H25770   9.069   8.375   4.416 -0.1229  0.3327 -1.6912
  932MOL0     H25771   8.919   8.129   4.177 -0.3786  1.3783 -0.3446
  932MOL0     H25772   8.667   8.048   4.144  0.4140 -1.5456 -0.2233
  932MOL0     H25773   8.660   7.941   4.285  1.1565 -0.8338 -1.1708
  932MOL0     H25774   8.486   8.180   4.205 -0.8253  1.2255  1.4314
  932MOL0     H25775   8.460   8.099   4.358 -0.0125 -2.4183  0.0335
  932MOL0     H25776   8.433   7.965   4.090  0.7659 -2.1095  0.9087
  932MOL0     H25777   8.302   8.030   4.176  0.3542 -0.0003 -0.5336
  932MOL0     H25778   8.363   7.876   4.382 -0.1060  0.8285  0.0960
  932MOL0     H25779   8.473   7.801   4.265  1.5730  1.6420  1.2609
  932MOL0     H25780   8.082   7.672   4.102 -1.3606 -0.5248 -0.8617
  932MOL0     H25781   7.742   7.670   4.172  0.4918 -1.4289 -0.0960
  932MOL0     H25782   7.761   7.768   4.018  1.2103  0.0340 -0.7775
  932MOL0     H25783   7.870   7.629   4.062  1.8997  1.1222 -0.0570
  932MOL0     H25784   7.486   7.984   4.053 -1.5830  0.3691 -0.3231
  932MOL0     H25785   7.235   8.029   4.055  0.0475  2.0884 -0.3250
  932MOL0     H25786   7.038   8.173   4.204  1.2752 -0.1585 -1.3684
  932MOL0     H25787   7.009   8.030   4.102 -0.2875 -2.1909  1.4363
  932MOL0     H25788   6.848   7.935   4.242  4.0223 -0.0933 -0.4024
  932MOL0     H25789   6.845   8.065   4.355 -2.1312 -1.4053  0.7827
  932MOL0     H25790   6.769   8.095   4.058  0.7447  2.1704 -0.2783
  932MOL0     H25791   6.779   8.231   4.177  0.0317 -0.2599 -1.3450
  932MOL0     H25792   6.613   8.001   4.254  2.7468  0.0816 -0.3946
  932MOL0     H25793   6.587   8.167   4.298  1.2788 -0.2288  0.5882
  932MOL0     H25794   6.535   8.064   4.021 -1.2718 -2.5819  1.5357
  932MOL0     H25795   6.538   8.238   4.061  0.8227  0.0199 -0.4647
  932MOL0     H25796   6.360   8.022   4.134 -1.8256  0.9454 -0.2347
  932MOL0     H25797   6.372   8.145   4.258  0.1196  0.1182  0.1043
  932MOL0     H25798   6.285   8.188   3.975  0.7876  1.7440 -0.1540
  932MOL0     H25799   6.288   8.307   4.107  1.4523  0.0274 -1.5484
  932MOL0     H25800   6.142   8.168   4.237  0.5263 -0.2738 -0.6909
  932MOL0     H25801   6.138   8.042   4.113 -1.3501 -0.3829  4.5260
  932MOL0     H25802   7.252   7.962   4.479 -1.2463  0.6517 -0.2952
  932MOL0     H25803   7.502   7.906   4.464  0.5088  1.5484  0.6893
  932MOL0     H25804   7.951   8.023   4.410 -0.3855 -1.1008 -0.6520
  932MOL0     H25805   8.175   7.979   4.393 -0.2149  1.1487  0.7049
  932MOL0     H25806   9.974   8.535   4.542 -1.8713 -0.7942  0.6714
  932MOL0     H25807  10.206   8.429   4.513 -0.6474  1.4076  0.9344
  932MOL0     H25808  10.498   8.272   4.383  1.7884  0.6881  2.3354
  932MOL0     H25809  10.712   8.240   4.262  0.9201  0.1369  1.5841
  932MOL0     H25810  10.885   8.188   4.114 -3.0712  1.2139  1.4329
  932MOL0     H25811  10.935   8.194   4.281 -1.1025 -0.6807  0.6624
  932MOL0     H25812  11.128   8.168   4.127 -1.4293 -0.3553 -2.6373
  932MOL0     H25813  11.046   8.038   4.042 -0.3427 -2.2507  1.2364
  932MOL0     H25814  11.064   7.887   4.243 -0.4937  0.9977  3.3835
  932MOL0     H25815  11.145   8.004   4.332  2.4853 -1.5562 -0.0075
  932MOL0     H25816  11.327   8.035   4.166 -2.2238  1.6136 -0.4892
  932MOL0     H25817  11.273   7.885   4.084  1.8822  1.2781 -1.5574
  932MOL0     H25818  11.475   7.751   4.427  0.8056  0.3699  1.2050
  932MOL0     H25819  10.705   7.826   4.326  1.6523  1.8624 -0.3953
  932MOL0     H25820  10.468   7.842   4.424 -1.6215  0.6929  0.2857
  933MOL0     O25821   3.980   3.937   3.894 -0.2180  0.3679 -0.5787
  933MOL0     C25822   4.024   3.897   4.002 -0.4074 -0.1326  0.2355
  933MOL0     O25823   3.949   3.864   4.103 -0.1666  0.3267  0.0194
  933MOL0     C25824   3.813   3.850   4.092 -0.7504 -0.3727  0.0046
  933MOL0     C25825   3.768   3.754   4.009 -0.9925 -0.3284 -0.3972
  933MOL0     C25826   3.636   3.735   3.987 -1.0697 -0.3344 -0.0434
  933MOL0     C25827   3.541   3.811   4.058  0.2142  0.6884  0.3373
  933MOL0     O25828   3.408   3.773   4.031 -0.7439 -0.4813 -0.3800
  933MOL0     C25829   3.310   3.811   4.139 -0.1977 -0.0366  0.4642
  933MOL0     C25830   3.171   3.753   4.118 -0.0570  0.2028  1.3211
  933MOL0     C25831   3.107   3.798   3.985  0.5671 -0.7816  0.2914
  933MOL0     C25832   3.065   3.946   3.991  0.0005 -0.1775  0.6270
  933MOL0     C25833   2.949   3.969   3.892  0.5930  0.4694  0.3974
  933MOL0     C25834   2.940   4.118   3.862  0.0773  0.1467  0.2893
  933MOL0     C25835   2.822   4.157   3.763 -0.6377 -0.4464  0.2715
  933MOL0     C25836   2.688   4.166   3.843  0.7284  0.4907  0.4311
  933MOL0     N25837   2.588   4.254   3.775 -0.7871 -0.4725  0.4154
  933MOL0     C25838   2.601   4.388   3.755 -0.2869  0.6801  0.0817
  933MOL0     C25839   2.481   4.437   3.728  1.3998 -0.0459 -0.7087
  933MOL0     C25840   2.451   4.582   3.721  0.7675 -0.6761 -0.2978
  933MOL0     C25841   2.460   4.655   3.860 -0.1594  0.3214 -0.8791
  933MOL0     C25842   2.380   4.784   3.873 -0.4241  0.1509  0.2597
  933MOL0     C25843   2.228   4.758   3.877 -0.7590 -0.2189 -0.1731
  933MOL0     O25844   2.183   4.685   3.992 -0.6318  0.4144 -0.3806
  933MOL0     C25845   2.050   4.681   4.032  0.6926  0.0801  0.0681
  933MOL0     C25846   1.968   4.568   4.024 -0.2850  0.3663 -0.1345
  933MOL0     C25847   1.828   4.569   4.052  0.3221 -0.4503 -0.5503
  933MOL0     C25848   1.760   4.441   4.034  0.1658 -0.4207 -0.5024
  933MOL0     C25849   1.771   4.698   4.094  0.0117 -0.4440  0.1561
  933MOL0     C25850   1.632   4.720   4.128 -0.2430  0.8695 -0.1909
  933MOL0     O25851   1.610   4.816   4.222  0.1966 -0.2662 -0.6849
  933MOL0     C25852   1.490   4.823   4.296 -0.7667  0.1491  0.1656
  933MOL0     C25853   1.400   4.711   4.306  0.0676 -0.3411  0.1646
  933MOL0     C25854   1.274   4.732   4.379 -0.4188  0.2417  0.1217
  933MOL0     C25855   1.251   4.857   4.440 -0.4680  0.1923  0.8765
  933MOL0     O25856   1.141   4.866   4.519 -0.6172 -0.8268  0.2354
  933MOL0     C25857   1.042   4.957   4.471  1.1230 -0.9282 -0.6720
  933MOL0     C25858   0.926   4.922   4.559 -0.2141  0.0525  0.2328
  933MOL0     C25859   0.790   4.990   4.518  0.7770  0.2880  0.2924
  933MOL0     C25860   0.671   4.961   4.606  0.0528  1.0026  0.3362
  933MOL0     C25861   0.534   5.019   4.560 -0.3418  0.4387  0.6170
  933MOL0     C25862   0.420   4.996   4.668 -0.1898  0.2548  0.3534
  933MOL0     C25863   0.313   4.909   4.603  0.5679 -0.8044 -0.5818
  933MOL0     C25864   0.222   4.871   4.715  0.5102 -0.3012  0.4665
  933MOL0    Cl25865   0.300   4.738   4.815 -0.2410  0.3632  0.1087
  933MOL0     C25866   1.344   4.967   4.417 -0.4538  0.6880 -0.3559
  933MOL0     C25867   1.460   4.953   4.343  0.1722  0.4782 -0.2695
  933MOL0     O25868   1.552   4.657   4.065 -0.2010  0.5890 -0.9321
  933MOL0     C25869   1.854   4.812   4.099  0.5051  0.2624 -0.9423
  933MOL0     C25870   1.992   4.802   4.058  0.2968  0.4457  0.4587
  933MOL0     N25871   2.389   4.332   3.726 -0.2565  0.5055 -0.1799
  933MOL0     N25872   2.456   4.225   3.753  0.6252 -0.2894  0.2053
  933MOL0     C25873   3.581   3.904   4.154 -0.1909 -0.3709  0.4490
  933MOL0     C25874   3.723   3.933   4.161  0.6362 -1.0019 -0.1170
  933MOL0     C25875   4.175   3.912   4.034 -0.1991 -0.1019 -0.2505
  933MOL0     C25876   4.255   3.967   3.936 -0.3567 -0.1950 -0.6895
  933MOL0     C25877   4.397   3.979   3.960  0.3543 -0.3046  0.6709
  933MOL0     C25878   4.449   3.943   4.077 -0.2099  0.2758 -0.9927
  933MOL0     O25879   4.592   3.959   4.082  0.1408 -0.0895 -0.7482
  933MOL0     C25880   4.664   3.903   4.200 -0.0062 -0.1635 -0.0934
  933MOL0     C25881   4.804   3.949   4.205  0.0473  0.0165  0.1748
  933MOL0     C25882   4.811   4.108   4.236  0.0165 -0.8804  0.9283
  933MOL0     C25883   4.951   4.167   4.222  0.5858  0.9326 -0.2387
  933MOL0     C25884   4.960   4.316   4.216  0.5857  0.6141  0.1609
  933MOL0     C25885   4.963   4.433   4.209 -0.6977 -0.7860 -0.3337
  933MOL0     C25886   4.367   3.896   4.173  0.1439  1.1628 -0.5016
  933MOL0     C25887   4.233   3.878   4.157  0.2427 -0.6771 -0.0397
  933MOL0     H25888   3.839   3.696   3.952 -1.1493 -0.2164 -0.7087
  933MOL0     H25889   3.608   3.653   3.922 -2.0591 -0.4541  0.5100
  933MOL0     H25890   3.342   3.758   4.230  1.9175 -0.8651 -0.6820
  933MOL0     H25891   3.308   3.918   4.159  2.1994 -0.2665  2.5856
  933MOL0     H25892   3.174   3.644   4.117  2.8583  0.2158  0.7981
  933MOL0     H25893   3.106   3.788   4.199  0.2476  2.1583  0.7751
  933MOL0     H25894   3.169   3.790   3.895 -3.5204 -0.1925 -2.9044
  933MOL0     H25895   3.018   3.737   3.962  0.3381 -0.7599  1.0762
  933MOL0     H25896   3.041   3.982   4.091  0.9341  1.1131  0.4163
  933MOL0     H25897   3.153   4.001   3.957  1.0663 -1.0235  1.9309
  933MOL0     H25898   2.979   3.904   3.808 -0.1447  0.1792  0.3512
  933MOL0     H25899   2.855   3.938   3.938  0.9321 -1.6573 -0.2028
  933MOL0     H25900   2.917   4.166   3.958  0.2619 -1.6797  1.3010
  933MOL0     H25901   3.034   4.155   3.820  0.3361  0.6060  1.2464
  933MOL0     H25902   2.846   4.253   3.717 -0.2226 -0.5879  0.1826
  933MOL0     H25903   2.820   4.094   3.674 -1.4156  0.5200 -0.4142
  933MOL0     H25904   2.707   4.212   3.940 -1.9965  1.4618  0.5776
  933MOL0     H25905   2.660   4.067   3.880  2.2309 -0.0326  0.2607
  933MOL0     H25906   2.689   4.446   3.783 -2.3423  3.5811  0.8895
  933MOL0     H25907   2.520   4.637   3.657 -1.9561  3.4449 -0.0939
  933MOL0     H25908   2.350   4.600   3.682  0.8558 -2.3960 -1.4576
  933MOL0     H25909   2.564   4.685   3.868 -0.2373  0.5553 -0.7333
  933MOL0     H25910   2.429   4.592   3.945 -2.1313  0.1967 -1.6218
  933MOL0     H25911   2.406   4.844   3.785 -1.7614 -0.7027 -0.7640
  933MOL0     H25912   2.397   4.843   3.963 -0.0329  1.1825 -0.4799
  933MOL0     H25913   2.191   4.710   3.786 -3.8750 -1.1796  1.4340
  933MOL0     H25914   2.178   4.856   3.873  0.0504  0.1995 -4.1127
  933MOL0     H25915   2.009   4.474   3.988 -1.2301  0.2400 -0.9237
  933MOL0     H25916   1.713   4.430   3.936 -4.0972  1.3159  1.0686
  933MOL0     H25917   1.838   4.365   4.037  0.1626 -0.3894  0.9476
  933MOL0     H25918   1.696   4.416   4.119  0.1813 -0.3916 -0.4816
  933MOL0     H25919   1.419   4.616   4.257  1.1931 -0.1865  0.2719
  933MOL0     H25920   1.194   4.661   4.393  0.2581 -0.0753  2.8398
  933MOL0     H25921   1.074   5.060   4.486  1.0348 -0.7264 -1.7563
  933MOL0     H25922   1.027   4.951   4.362 -1.5986  2.6246 -0.6772
  933MOL0     H25923   0.906   4.815   4.547 -1.0038  0.3115 -0.9129
  933MOL0     H25924   0.961   4.949   4.659 -0.6420 -0.2167  0.4600
  933MOL0     H25925   0.763   4.962   4.416  1.1052 -1.4577  0.6435
  933MOL0     H25926   0.808   5.097   4.525 -2.3360  1.0537 -1.7278
  933MOL0     H25927   0.664   4.852   4.611  1.1995  0.8326 -0.9999
  933MOL0     H25928   0.693   4.994   4.708 -1.5053  0.8501  0.7550
  933MOL0     H25929   0.510   4.968   4.467  4.8817 -3.7438  1.0431
  933MOL0     H25930   0.558   5.126   4.553  0.4847  0.5043  3.1523
  933MOL0     H25931   0.465   4.948   4.756  2.8442  0.8596 -0.7706
  933MOL0     H25932   0.367   5.087   4.699  1.0843  1.3025 -0.4540
  933MOL0     H25933   0.362   4.820   4.563  1.8020 -2.0319  3.2154
  933MOL0     H25934   0.264   4.965   4.523 -0.1311  1.8146  1.5140
  933MOL0     H25935   0.135   4.822   4.671  0.1467  0.0590  0.7685
  933MOL0     H25936   0.202   4.961   4.774  1.9694  1.3495 -1.4126
  933MOL0     H25937   1.316   5.061   4.463 -2.7171 -0.4960  0.9018
  933MOL0     H25938   1.529   5.037   4.340  2.3800 -1.2055  0.9205
  933MOL0     H25939   1.808   4.910   4.094 -1.2767 -0.5994 -4.0419
  933MOL0     H25940   2.054   4.890   4.062  1.5339 -0.2139 -2.0937
  933MOL0     H25941   3.513   3.976   4.197 -2.0654  0.2605 -3.1532
  933MOL0     H25942   3.755   4.014   4.225  0.7136 -0.8970 -0.2876
  933MOL0     H25943   4.214   4.004   3.843  2.5380  2.6598 -1.0011
  933MOL0     H25944   4.475   4.011   3.891  1.6281  1.1962  2.7150
  933MOL0     H25945   4.622   3.931   4.297  2.4259 -0.7482  1.2118
  933MOL0     H25946   4.672   3.794   4.189 -0.9408 -0.0176 -2.7948
  933MOL0     H25947   4.856   3.931   4.111  0.6565  2.7553 -0.1120
  933MOL0     H25948   4.852   3.888   4.282  2.4658 -0.7213 -1.7952
  933MOL0     H25949   4.770   4.137   4.333 -1.5432  0.1098  0.0126
  933MOL0     H25950   4.752   4.149   4.154 -0.1569 -1.0367  0.9754
  933MOL0     H25951   4.980   4.126   4.124 -0.2674 -0.1646 -0.0593
  933MOL0     H25952   5.027   4.126   4.288 -0.5603 -0.1203  0.4751
  933MOL0     H25953   4.966   4.540   4.214 -1.8471 -0.7967  1.5076
  933MOL0     H25954   4.421   3.877   4.266  1.1665 -1.1106 -1.4910
  933MOL0     H25955   4.185   3.837   4.245 -0.8647  2.7838  1.1286
  934MOL0     O25956   8.914   0.525   3.888 -0.3085  0.0947 -0.2532
  934MOL0     C25957   8.867   0.518   4.002 -0.2064 -0.7517 -0.3839
  934MOL0     O25958   8.939   0.523   4.120 -0.1061 -0.3370  0.3274
  934MOL0     C25959   9.071   0.556   4.097  0.5574 -0.5637 -0.1233
  934MOL0     C25960   9.153   0.450   4.059  0.1094  0.1524  0.4961
  934MOL0     C25961   9.288   0.461   4.057 -0.6050 -0.3404  1.2479
  934MOL0     C25962   9.349   0.585   4.089  0.1405 -0.1180 -1.0430
  934MOL0     O25963   9.482   0.607   4.105 -0.6922 -1.1725  0.0739
  934MOL0     C25964   9.576   0.505   4.048 -0.2211  0.4117 -0.5879
  934MOL0     C25965   9.714   0.559   4.080  0.1298 -0.8912 -0.2234
  934MOL0     C25966   9.737   0.706   4.042 -0.2326  0.3293 -0.2892
  934MOL0     C25967   9.736   0.719   3.893 -0.0812  0.6683 -0.2215
  934MOL0     C25968   9.750   0.857   3.838  0.8583 -0.5487  0.6280
  934MOL0     C25969   9.668   0.962   3.910  1.0285  0.0412  0.8626
  934MOL0     C25970   9.673   1.089   3.831  0.1922 -0.5785 -0.1075
  934MOL0     C25971   9.605   1.214   3.904  0.3471 -0.0485  0.1660
  934MOL0     N25972   9.469   1.236   3.845 -0.0941  0.0446 -0.3470
  934MOL0     C25973   9.445   1.317   3.729  0.7960  0.9238 -0.4596
  934MOL0     C25974   9.312   1.309   3.715 -0.5933 -0.3634 -1.0228
  934MOL0     C25975   9.227   1.378   3.616 -0.3930 -0.4004  0.6349
  934MOL0     C25976   9.248   1.345   3.466 -0.2290  0.8467  0.2622
  934MOL0     C25977   9.213   1.197   3.439  0.4516  0.0525  0.2487
  934MOL0     C25978   9.067   1.165   3.446  0.4257  0.8309  0.3107
  934MOL0     O25979   9.038   1.093   3.326  0.2722  0.1995  0.0629
  934MOL0     C25980   8.929   1.010   3.350  0.0768 -0.3670  0.5150
  934MOL0     C25981   8.944   0.881   3.391  0.3182 -0.2207  0.1887
  934MOL0     C25982   8.829   0.806   3.418  0.1680 -0.6152 -0.2381
  934MOL0     C25983   8.862   0.669   3.463 -0.2048 -0.0891 -0.3424
  934MOL0     C25984   8.699   0.861   3.433  0.4595  0.6628  0.1969
  934MOL0     C25985   8.578   0.782   3.480 -0.0523 -0.3390  0.0647
  934MOL0     O25986   8.458   0.835   3.442 -0.1604 -0.2451 -0.3848
  934MOL0     C25987   8.342   0.777   3.500  0.8259  0.0296 -0.3917
  934MOL0     C25988   8.263   0.682   3.427  0.0530 -0.3254 -0.4781
  934MOL0     C25989   8.157   0.612   3.486 -0.2214 -0.9736  0.2155
  934MOL0     C25990   8.132   0.634   3.625 -0.0605  0.3704  0.2446
  934MOL0     O25991   8.023   0.576   3.691 -0.1145 -0.2643 -0.5324
  934MOL0     C25992   8.005   0.439   3.667  0.5838 -0.0847 -0.6846
  934MOL0     C25993   7.871   0.399   3.731 -0.1872  0.6089 -0.2597
  934MOL0     C25994   7.745   0.427   3.653  0.3355 -0.2026  0.2122
  934MOL0     C25995   7.629   0.349   3.720  0.1270 -0.1164 -0.4536
  934MOL0     C25996   7.491   0.406   3.678 -0.6397 -0.5934 -0.0590
  934MOL0     C25997   7.381   0.333   3.750 -0.2784 -0.3358 -0.4195
  934MOL0     C25998   7.250   0.412   3.718 -0.4714 -0.3940  0.4861
  934MOL0     C25999   7.130   0.315   3.739 -0.1984  0.2502 -0.4926
  934MOL0    Cl26000   7.127   0.272   3.914  0.0434  0.5455  0.1625
  934MOL0     C26001   8.213   0.709   3.704 -0.3049 -0.8677 -0.2486
  934MOL0     C26002   8.320   0.789   3.644  0.0139  0.0868 -0.7933
  934MOL0     O26003   8.593   0.674   3.540  0.1072 -0.0888 -0.5374
  934MOL0     C26004   8.693   0.998   3.408 -0.1056 -0.7688  0.6798
  934MOL0     C26005   8.804   1.066   3.363  0.4936 -1.0841  0.2231
  934MOL0     N26006   9.263   1.232   3.821  0.6027  0.0558  0.2347
  934MOL0     N26007   9.354   1.192   3.898 -0.8244 -0.1872  0.2514
  934MOL0     C26008   9.269   0.694   4.134  0.0290  0.5582  0.7730
  934MOL0     C26009   9.126   0.675   4.131 -0.2846 -0.1070 -0.8331
  934MOL0     C26010   8.713   0.513   4.017 -0.7174 -0.2150  0.3487
  934MOL0     C26011   8.636   0.544   3.905  0.2479 -0.4372  0.2119
  934MOL0     C26012   8.498   0.541   3.905  0.6345  0.5398 -0.5079
  934MOL0     C26013   8.436   0.511   4.029 -0.0531 -0.5623  0.5886
  934MOL0     O26014   8.300   0.517   4.013  0.3638 -0.1129  0.6003
  934MOL0     C26015   8.209   0.467   4.109 -0.9447 -0.0841 -0.1188
  934MOL0     C26016   8.065   0.479   4.064  0.0175 -0.0173 -0.2348
  934MOL0     C26017   7.970   0.424   4.168  0.0279  0.0405  1.0736
  934MOL0     C26018   7.824   0.459   4.136 -0.9055 -0.6066  0.2062
  934MOL0     C26019   7.726   0.370   4.199  0.1035  0.3924 -0.3776
  934MOL0     C26020   7.644   0.290   4.235 -0.1971  0.2169 -0.6605
  934MOL0     C26021   8.503   0.479   4.141  0.3505 -1.0792  0.2503
  934MOL0     C26022   8.649   0.485   4.135 -0.3552  0.5516  0.6424
  934MOL0     H26023   9.108   0.355   4.031 -0.8747  0.2477  1.6830
  934MOL0     H26024   9.355   0.380   4.033  2.7452  1.8002  2.5690
  934MOL0     H26025   9.567   0.413   4.105  0.2271  0.1771 -0.8931
  934MOL0     H26026   9.562   0.484   3.941  0.0723 -2.8951 -0.0596
  934MOL0     H26027   9.733   0.547   4.187  0.6078 -0.3260 -0.2417
  934MOL0     H26028   9.798   0.503   4.038  2.4276  2.7560 -0.9224
  934MOL0     H26029   9.674   0.772   4.103  0.2269 -1.0314  1.7784
  934MOL0     H26030   9.838   0.737   4.069  0.4413 -0.5699 -1.6775
  934MOL0     H26031   9.814   0.646   3.868  0.2371 -0.3276  3.2047
  934MOL0     H26032   9.642   0.672   3.862 -0.1789 -0.0914  1.1272
  934MOL0     H26033   9.852   0.897   3.835  0.8202 -0.4899 -2.0146
  934MOL0     H26034   9.723   0.850   3.732  1.3376  1.0040  0.3796
  934MOL0     H26035   9.563   0.945   3.936  0.6627 -0.1525 -0.6453
  934MOL0     H26036   9.725   0.980   4.002  2.4193 -1.1621  0.2712
  934MOL0     H26037   9.778   1.116   3.822  0.4114 -0.9556  1.1643
  934MOL0     H26038   9.628   1.080   3.731 -2.2237 -1.3331  0.9651
  934MOL0     H26039   9.672   1.299   3.893 -2.4471  2.4628  1.2235
  934MOL0     H26040   9.602   1.199   4.012 -0.9115  0.3503  0.2035
  934MOL0     H26041   9.516   1.370   3.666 -0.4320  2.7150 -0.4143
  934MOL0     H26042   9.120   1.361   3.631 -0.6588 -1.6709 -2.0847
  934MOL0     H26043   9.242   1.486   3.624  0.2431 -0.3896 -0.5904
  934MOL0     H26044   9.349   1.359   3.427 -0.8311  1.1711 -1.2474
  934MOL0     H26045   9.183   1.409   3.405 -1.2899  2.9556  3.3173
  934MOL0     H26046   9.271   1.126   3.498  0.6492  0.8122  0.9851
  934MOL0     H26047   9.249   1.173   3.339  3.1511  0.5952  1.0283
  934MOL0     H26048   9.007   1.256   3.437 -0.6158  0.0727 -0.5531
  934MOL0     H26049   9.046   1.116   3.542  3.1808  0.6370  0.9126
  934MOL0     H26050   9.045   0.844   3.401  0.1722 -0.8484 -0.5912
  934MOL0     H26051   8.838   0.662   3.569  0.2820  1.6065 -0.1020
  934MOL0     H26052   8.794   0.603   3.408 -0.2716  0.6814 -1.1968
  934MOL0     H26053   8.968   0.651   3.442  0.2995 -0.9881  2.5398
  934MOL0     H26054   8.279   0.649   3.325 -3.5030 -3.6111 -0.1789
  934MOL0     H26055   8.099   0.545   3.424 -0.8520  2.4390 -3.2389
  934MOL0     H26056   8.006   0.406   3.563 -1.0889  0.4452 -0.8944
  934MOL0     H26057   8.086   0.396   3.727  1.4427  0.9852 -1.0556
  934MOL0     H26058   7.880   0.292   3.755  0.0496  0.0263 -2.7200
  934MOL0     H26059   7.868   0.449   3.828  0.7616 -2.2178  1.3650
  934MOL0     H26060   7.754   0.391   3.551 -2.2656  0.4747 -0.3301
  934MOL0     H26061   7.715   0.532   3.658 -0.1981 -0.2453 -1.5301
  934MOL0     H26062   7.633   0.245   3.686 -0.4658 -1.1589  2.3828
  934MOL0     H26063   7.633   0.336   3.829 -0.7454 -0.9913 -0.5084
  934MOL0     H26064   7.480   0.410   3.569 -0.4807 -0.1012 -0.0610
  934MOL0     H26065   7.489   0.510   3.713 -0.0732 -0.8129  0.6442
  934MOL0     H26066   7.377   0.230   3.713 -1.2596 -0.7580  0.7720
  934MOL0     H26067   7.396   0.332   3.859 -0.1077 -0.6683 -0.4463
  934MOL0     H26068   7.260   0.438   3.613 -1.6824 -0.0627  0.4359
  934MOL0     H26069   7.229   0.509   3.764 -3.1882 -0.7988  0.2559
  934MOL0     H26070   7.126   0.226   3.676 -3.7258  0.2282 -0.4601
  934MOL0     H26071   7.042   0.365   3.699  0.7098  1.6192 -0.8512
  934MOL0     H26072   8.199   0.716   3.812  2.2284  1.5939  0.0383
  934MOL0     H26073   8.369   0.870   3.696 -2.0414  1.2158 -0.5202
  934MOL0     H26074   8.606   1.062   3.411 -0.1332 -0.8190  1.1164
  934MOL0     H26075   8.782   1.167   3.331  3.9693  0.5447  2.4810
  934MOL0     H26076   9.314   0.786   4.171  1.1936 -0.8544  3.1248
  934MOL0     H26077   9.060   0.749   4.174 -0.7998 -0.5304 -0.8922
  934MOL0     H26078   8.683   0.583   3.816 -1.8596 -0.0024 -0.7763
  934MOL0     H26079   8.443   0.580   3.821 -0.1422 -0.6426 -0.5767
  934MOL0     H26080   8.243   0.364   4.125  1.0468 -0.0198 -3.1980
  934MOL0     H26081   8.227   0.532   4.195  0.5860  2.2841 -2.1176
  934MOL0     H26082   8.060   0.427   3.968  0.8664  2.7142 -1.8598
  934MOL0     H26083   8.045   0.584   4.043  0.5500  0.0299 -0.5056
  934MOL0     H26084   8.005   0.469   4.261  0.4111  2.2323 -0.0640
  934MOL0     H26085   7.976   0.316   4.182  0.0776  0.0027  0.7774
  934MOL0     H26086   7.797   0.452   4.030 -1.4857 -2.0961  0.4343
  934MOL0     H26087   7.813   0.565   4.161  1.6792  0.6589 -3.1833
  934MOL0     H26088   7.582   0.205   4.254 -3.0888  2.8345  3.1970
  934MOL0     H26089   8.446   0.446   4.227  0.4587 -1.4658  0.1768
  934MOL0     H26090   8.707   0.467   4.225  4.1946 -0.0815 -2.0938
  935MOL0     O26091   8.241  10.451   8.265  0.2788  0.0121  0.4354
  935MOL0     C26092   8.286  10.546   8.207 -0.2334  0.3789 -0.1558
  935MOL0     O26093   8.209  10.633   8.127 -0.1030  0.2156  0.5250
  935MOL0     C26094   8.086  10.589   8.077  0.6007 -0.2462 -0.0774
  935MOL0     C26095   8.022  10.458   8.088 -0.0836 -0.1461  1.1454
  935MOL0     C26096   7.897  10.437   8.035  0.2642 -0.1526 -0.5051
  935MOL0     C26097   7.813  10.535   7.978  0.7351  0.4104  0.1660
  935MOL0     O26098   7.688  10.495   7.934  0.2875  0.1383 -0.0718
  935MOL0     C26099   7.648  10.553   7.813 -0.5202  0.1026  0.0801
  935MOL0     C26100   7.512  10.495   7.781 -0.5560  0.8660  0.3763
  935MOL0     C26101   7.436  10.571   7.673  0.3742  0.0487 -0.0574
  935MOL0     C26102   7.317  10.475   7.630  0.6828  1.3201  0.2617
  935MOL0     C26103   7.204  10.550   7.555  0.0966  0.6774 -0.6895
  935MOL0     C26104   7.126  10.460   7.453  1.0155  0.7761  1.1903
  935MOL0     C26105   7.028  10.535   7.367  0.5677  0.2444 -0.4566
  935MOL0     C26106   7.088  10.598   7.241 -0.1178 -0.1775  0.0623
  935MOL0     N26107   6.983  10.680   7.181 -0.6511 -0.3976  0.1489
  935MOL0     C26108   6.971  10.821   7.179  0.2283  0.6770 -0.0810
  935MOL0     C26109   6.883  10.836   7.073 -0.7569 -0.3957  0.9425
  935MOL0     C26110   6.881  10.967   6.999  0.2724  0.0118  0.3754
  935MOL0     C26111   6.756  11.039   7.041 -0.5941  0.4581  0.6528
  935MOL0     C26112   6.748  11.084   7.187  0.5696 -0.7859  0.3045
  935MOL0     C26113   6.607  11.151   7.211 -0.3936 -0.4891 -0.4144
  935MOL0     O26114   6.588  11.266   7.122 -0.4960 -0.3394 -0.2709
  935MOL0     C26115   6.459  11.320   7.101  1.0039 -0.0618  0.0964
  935MOL0     C26116   6.446  11.445   7.052  0.0751 -0.3230 -0.2394
  935MOL0     C26117   6.320  11.499   7.030 -0.6503 -0.3611 -0.2879
  935MOL0     C26118   6.324  11.628   6.947 -0.0937  0.0395 -0.0201
  935MOL0     C26119   6.199  11.445   7.075 -0.2187 -0.6234  0.5082
  935MOL0     C26120   6.068  11.504   7.074 -0.1172  0.0502 -0.3487
  935MOL0     O26121   5.968  11.434   7.139  0.3378 -0.3104 -0.5175
  935MOL0     C26122   5.834  11.456   7.164 -0.1225  0.9456  0.0858
  935MOL0     C26123   5.771  11.360   7.244 -0.7873  0.4856 -0.4690
  935MOL0     C26124   5.637  11.371   7.263 -0.8871  0.0628  0.9801
  935MOL0     C26125   5.559  11.470   7.204 -0.1285  0.2613 -0.4233
  935MOL0     O26126   5.424  11.478   7.227 -0.0629 -0.1328 -0.4347
  935MOL0     C26127   5.333  11.521   7.127 -0.8252  0.3720  0.0607
  935MOL0     C26128   5.195  11.462   7.157 -0.2281  0.4502  0.6822
  935MOL0     C26129   5.135  11.519   7.282 -0.3144 -0.9216 -0.4911
  935MOL0     C26130   5.102  11.668   7.285  0.6422  0.0839 -0.9966
  935MOL0     C26131   5.029  11.709   7.409  0.2649 -0.7048 -0.0212
  935MOL0     C26132   5.024  11.862   7.438 -0.1368 -0.1089 -0.0518
  935MOL0     C26133   4.939  11.890   7.564  0.1884  0.1197 -0.9330
  935MOL0     C26134   4.936  12.032   7.613  0.2052 -0.5757 -1.0069
  935MOL0    Cl26135   4.834  12.131   7.512 -0.1542  0.1766  0.1565
  935MOL0     C26136   5.624  11.555   7.113  0.4653 -0.1144  0.0216
  935MOL0     C26137   5.760  11.551   7.096 -0.1827 -0.1421 -0.1432
  935MOL0     O26138   6.044  11.616   7.027  0.0235  0.1347  0.5488
  935MOL0     C26139   6.214  11.323   7.146  0.5211  0.0894  0.4092
  935MOL0     C26140   6.342  11.262   7.149 -0.2852 -0.5743  1.2141
  935MOL0     N26141   6.822  10.715   7.048 -0.3424  0.5775  0.1503
  935MOL0     N26142   6.885  10.625   7.106 -0.5110 -0.8875 -0.2845
  935MOL0     C26143   7.881  10.661   7.956  0.4546  0.5479  0.0831
  935MOL0     C26144   8.009  10.691   8.011  0.0355  0.7743  0.4105
  935MOL0     C26145   8.422  10.594   8.238 -0.3813  0.0656 -0.2449
  935MOL0     C26146   8.482  10.696   8.167 -0.2076 -0.0763 -0.3698
  935MOL0     C26147   8.614  10.728   8.194 -0.0955 -0.1826  0.5170
  935MOL0     C26148   8.689  10.667   8.293 -0.8537  0.5306 -0.6321
  935MOL0     O26149   8.825  10.691   8.323  0.1057  0.8656  0.0307
  935MOL0     C26150   8.909  10.782   8.248 -0.5328  1.1930 -0.3124
  935MOL0     C26151   9.037  10.807   8.330  0.0117 -0.2274 -0.1573
  935MOL0     C26152   9.098  10.943   8.282  0.1570  0.1074  0.3003
  935MOL0     C26153   9.239  10.969   8.346 -0.0951 -0.0547 -0.2169
  935MOL0     C26154   9.342  10.934   8.245  0.5770 -0.8165 -0.9223
  935MOL0     C26155   9.430  10.896   8.184  0.1887  0.5052 -0.3413
  935MOL0     C26156   8.619  10.579   8.373 -0.1774  0.0737 -0.2135
  935MOL0     C26157   8.487  10.544   8.350  0.2207  0.4564 -0.8102
  935MOL0     H26158   8.060  10.366   8.132  1.0552 -0.5918 -0.7022
  935MOL0     H26159   7.846  10.343   8.050  0.0336  0.1284  0.6044
  935MOL0     H26160   7.654  10.662   7.821  3.9436  0.1674 -1.3470
  935MOL0     H26161   7.717  10.530   7.732 -1.5320  1.4307 -1.2081
  935MOL0     H26162   7.522  10.390   7.754 -0.0117  0.5786  1.6001
  935MOL0     H26163   7.462  10.499   7.878  0.5085  0.4253  0.9557
  935MOL0     H26164   7.394  10.663   7.715 -0.6989 -0.8499  0.9252
  935MOL0     H26165   7.506  10.591   7.591 -2.2235 -0.3845 -2.4988
  935MOL0     H26166   7.355  10.390   7.572 -0.0307  2.4876 -2.0699
  935MOL0     H26167   7.268  10.434   7.718  0.0003  2.5824  0.4858
  935MOL0     H26168   7.125  10.593   7.617 -0.8870  0.0948 -1.5120
  935MOL0     H26169   7.254  10.632   7.502  1.5789  1.3624  1.5827
  935MOL0     H26170   7.201  10.428   7.380  1.4882  4.2249  0.0017
  935MOL0     H26171   7.078  10.379   7.508 -1.8160  0.6262 -1.2567
  935MOL0     H26172   6.957  10.462   7.326  2.2736 -1.9693  0.3503
  935MOL0     H26173   6.975  10.607   7.429  1.0781  0.3824 -0.1773
  935MOL0     H26174   7.112  10.521   7.167 -0.5022  1.3675 -1.7360
  935MOL0     H26175   7.179  10.650   7.275  1.0378 -2.0792  0.0168
  935MOL0     H26176   7.025  10.902   7.227  0.2231 -0.3590  1.7669
  935MOL0     H26177   6.970  11.016   7.039  1.1781 -1.9071  0.8234
  935MOL0     H26178   6.882  10.962   6.889 -1.1549  1.0445  0.2925
  935MOL0     H26179   6.671  10.978   7.014  1.5451 -2.6434  0.4477
  935MOL0     H26180   6.742  11.122   6.971 -0.5507  0.1675  0.2992
  935MOL0     H26181   6.827  11.157   7.208 -1.9030  1.2752  3.5038
  935MOL0     H26182   6.756  11.002   7.258 -1.4849 -0.1461  1.3678
  935MOL0     H26183   6.601  11.184   7.315 -3.0544  1.4075 -1.0807
  935MOL0     H26184   6.527  11.078   7.200 -1.4190  0.9368 -3.3804
  935MOL0     H26185   6.537  11.500   7.030  0.2012 -0.4742 -0.0980
  935MOL0     H26186   6.278  11.619   6.847 -1.9600 -0.1378  0.8039
  935MOL0     H26187   6.264  11.703   7.000 -1.7706 -0.1412 -1.5459
  935MOL0     H26188   6.424  11.670   6.935  0.7406 -1.9682 -0.5301
  935MOL0     H26189   5.820  11.278   7.296  0.7029  1.1644 -0.7685
  935MOL0     H26190   5.580  11.299   7.321 -0.5144 -0.8170  0.2575
  935MOL0     H26191   5.331  11.630   7.121  0.9328  0.6273  2.5994
  935MOL0     H26192   5.375  11.483   7.033  1.0316 -0.1007  1.0316
  935MOL0     H26193   5.127  11.481   7.073 -1.6013 -1.2228  1.3586
  935MOL0     H26194   5.205  11.354   7.169  0.5296 -0.0088 -2.9292
  935MOL0     H26195   5.220  11.500   7.348  0.0323  0.0517 -0.6393
  935MOL0     H26196   5.052  11.467   7.330 -0.7791 -0.0103 -0.2806
  935MOL0     H26197   5.193  11.726   7.266  2.2881 -2.4545 -1.5392
  935MOL0     H26198   5.043  11.688   7.195 -3.0098 -1.1180  0.9599
  935MOL0     H26199   5.082  11.664   7.493  0.6125 -0.3953 -0.0733
  935MOL0     H26200   4.926  11.672   7.415 -0.1572  0.6897  3.6499
  935MOL0     H26201   5.124  11.899   7.462 -0.4160  0.1232  0.7549
  935MOL0     H26202   4.982  11.915   7.352 -0.3429 -0.6882 -0.3140
  935MOL0     H26203   4.978  11.836   7.652 -1.2398 -0.6445 -0.7406
  935MOL0     H26204   4.837  11.857   7.543  0.8139 -4.3766  1.6400
  935MOL0     H26205   5.039  12.067   7.601  0.2537 -0.5639 -0.5407
  935MOL0     H26206   4.905  12.044   7.717  1.8017  3.7183 -0.7857
  935MOL0     H26207   5.569  11.626   7.052  1.3209  2.3761  1.9538
  935MOL0     H26208   5.813  11.616   7.027  2.4712 -0.5571  1.3602
  935MOL0     H26209   6.131  11.270   7.191 -0.5944  2.1154  0.8516
  935MOL0     H26210   6.348  11.161   7.189 -0.0029 -1.0951 -0.0938
  935MOL0     H26211   7.842  10.743   7.896  1.5344  0.9984 -0.0324
  935MOL0     H26212   8.044  10.790   7.983 -1.3175  0.7437 -1.6294
  935MOL0     H26213   8.431  10.728   8.077  2.1655 -3.4796 -3.2590
  935MOL0     H26214   8.655  10.804   8.129  1.4930 -1.4500 -0.0373
  935MOL0     H26215   8.921  10.735   8.150 -1.9822 -1.7782  0.8289
  935MOL0     H26216   8.859  10.879   8.235 -0.8573  0.8577 -1.6755
  935MOL0     H26217   9.106  10.722   8.331 -0.3008 -0.4763  0.4605
  935MOL0     H26218   9.008  10.826   8.433  0.1620  0.7321 -0.2847
  935MOL0     H26219   9.025  11.018   8.315 -1.3078 -0.5669 -1.3053
  935MOL0     H26220   9.109  10.948   8.174  2.5744 -0.2910  0.4763
  935MOL0     H26221   9.235  10.910   8.438 -2.2845  0.5155  0.1064
  935MOL0     H26222   9.256  11.073   8.375  2.6810 -1.1515  2.7388
  935MOL0     H26223   9.509  10.855   8.123 -1.0160 -0.8666 -1.0378
  935MOL0     H26224   8.661  10.520   8.454 -0.5983 -0.4765 -0.3886
  935MOL0     H26225   8.436  10.470   8.410 -1.2385  1.3958 -0.8349
  936MOL0     O26226   2.098   6.447   5.608  0.0578 -0.9007 -0.0358
  936MOL0     C26227   2.091   6.435   5.731 -0.7825  0.0734  0.9336
  936MOL0     O26228   1.992   6.471   5.803 -0.1199  0.8906 -0.7054
  936MOL0     C26229   1.870   6.491   5.742  0.3451 -0.0910  0.6202
  936MOL0     C26230   1.805   6.399   5.657 -0.3114  0.4342  0.4233
  936MOL0     C26231   1.678   6.423   5.618  0.8422 -0.0934 -1.6413
  936MOL0     C26232   1.609   6.536   5.650 -0.3645 -0.8915  0.2178
  936MOL0     O26233   1.485   6.549   5.588  0.4110 -0.3527  0.0005
  936MOL0     C26234   1.432   6.678   5.592 -0.5580 -0.3928 -1.1628
  936MOL0     C26235   1.313   6.691   5.511 -0.2533 -0.2344  0.2289
  936MOL0     C26236   1.218   6.794   5.564 -0.0067 -0.4436 -0.7042
  936MOL0     C26237   1.074   6.750   5.545 -0.5750  0.5640 -0.1973
  936MOL0     C26238   0.971   6.864   5.570  0.5622  0.5292 -0.0233
  936MOL0     C26239   0.840   6.815   5.510  0.0179 -0.0559 -0.1383
  936MOL0     C26240   0.726   6.920   5.544  0.0234  0.1706  0.7223
  936MOL0     C26241   0.601   6.861   5.470 -0.3587 -0.5698  0.1184
  936MOL0     N26242   0.498   6.951   5.522  0.4712 -0.0123  0.5117
  936MOL0     C26243   0.477   7.083   5.486 -0.3508  0.6040 -0.3261
  936MOL0     C26244   0.385   7.122   5.579  1.0707 -0.6867 -0.7696
  936MOL0     C26245   0.332   7.256   5.592  0.1752 -0.2156  0.1785
  936MOL0     C26246   0.183   7.264   5.551  0.2096 -0.4676  0.0233
  936MOL0     C26247   0.117   7.385   5.616  1.3015  0.2942 -0.5588
  936MOL0     C26248  -0.034   7.382   5.595  0.2527 -0.3871 -0.7054
  936MOL0     O26249  -0.105   7.499   5.628  0.3242 -0.6370 -0.1137
  936MOL0     C26250  -0.168   7.510   5.750  0.6092  0.1935  0.2371
  936MOL0     C26251  -0.263   7.615   5.766  0.2678 -0.7953  0.3102
  936MOL0     C26252  -0.324   7.639   5.886  0.5541  0.0090 -0.0522
  936MOL0     C26253  -0.407   7.765   5.899 -0.6849  1.3769  0.6698
  936MOL0     C26254  -0.312   7.544   5.990 -0.1381 -0.8396 -0.9562
  936MOL0     C26255  -0.389   7.558   6.122 -0.1287 -0.1121  0.8752
  936MOL0     O26256  -0.347   7.494   6.231 -0.3422  0.6010  0.4534
  936MOL0     C26257  -0.418   7.489   6.343  0.5822 -1.1657 -0.2484
  936MOL0     C26258  -0.539   7.421   6.351  1.0242  0.1540  0.9106
  936MOL0     C26259  -0.618   7.429   6.458 -0.3612 -0.0368  0.0187
  936MOL0     C26260  -0.568   7.499   6.572  1.0860 -0.3627  0.6591
  936MOL0     O26261  -0.619   7.503   6.699 -0.0392 -0.3187  0.0503
  936MOL0     C26262  -0.750   7.448   6.726  0.8329 -0.0525  0.3448
  936MOL0     C26263  -0.785   7.471   6.873  0.2909  0.8579 -0.1828
  936MOL0     C26264  -0.891   7.375   6.931 -0.1556 -0.1103 -0.2055
  936MOL0     C26265  -0.924   7.415   7.069 -0.5155 -0.7252  0.2676
  936MOL0     C26266  -1.060   7.343   7.098 -0.3782  0.5643 -0.4851
  936MOL0     C26267  -1.100   7.390   7.236  0.2506 -0.0601 -0.5973
  936MOL0     C26268  -1.248   7.347   7.282 -0.4151  0.1614  0.3004
  936MOL0     C26269  -1.360   7.411   7.189 -0.6200 -0.0665  0.7647
  936MOL0    Cl26270  -1.508   7.367   7.281  0.2082  0.3581 -0.1895
  936MOL0     C26271  -0.447   7.565   6.570  0.2998  0.3722  1.4296
  936MOL0     C26272  -0.373   7.563   6.449  0.1727  0.3790 -0.2646
  936MOL0     O26273  -0.492   7.622   6.124 -0.4298 -0.1085  0.1027
  936MOL0     C26274  -0.232   7.432   5.967 -0.0261 -0.5570  0.2596
  936MOL0     C26275  -0.158   7.417   5.853  0.0433  0.4590 -0.0922
  936MOL0     N26276   0.347   7.017   5.654  0.6157 -0.0273  0.5783
  936MOL0     N26277   0.412   6.919   5.621 -0.4861 -0.6257 -0.1836
  936MOL0     C26278   1.670   6.626   5.741  0.9885  0.1903 -0.2350
  936MOL0     C26279   1.794   6.594   5.788 -0.9844  0.5277  0.1877
  936MOL0     C26280   2.217   6.389   5.799 -0.8587  0.6754 -0.5831
  936MOL0     C26281   2.212   6.334   5.927  0.7967 -1.2132  0.5727
  936MOL0     C26282   2.326   6.306   6.003 -0.7787  1.0271  0.6402
  936MOL0     C26283   2.452   6.355   5.956 -0.5322 -0.5249  1.0747
  936MOL0     O26284   2.570   6.364   6.031 -0.2629 -0.7314  0.7514
  936MOL0     C26285   2.567   6.360   6.178 -0.9107 -0.4774  0.3976
  936MOL0     C26286   2.712   6.391   6.229 -0.1446  0.5184  0.2990
  936MOL0     C26287   2.749   6.542   6.210 -0.4906  0.3044  0.6854
  936MOL0     C26288   2.880   6.575   6.279  0.7724  0.3296  0.0425
  936MOL0     C26289   2.992   6.497   6.225 -0.2528  0.4718  0.1291
  936MOL0     C26290   3.080   6.424   6.183 -0.4262  0.5000 -0.7187
  936MOL0     C26291   2.448   6.423   5.832 -0.5843  0.2439  0.9404
  936MOL0     C26292   2.341   6.436   5.745  0.3696  0.0059 -0.4027
  936MOL0     H26293   1.856   6.310   5.619 -3.7264 -1.3011 -0.5195
  936MOL0     H26294   1.622   6.356   5.554 -0.6907 -0.2684 -0.1956
  936MOL0     H26295   1.413   6.692   5.698  0.6835 -2.6795 -0.5784
  936MOL0     H26296   1.501   6.757   5.560 -3.9295  3.4330  0.1501
  936MOL0     H26297   1.332   6.708   5.405 -1.0575 -0.1836  0.0838
  936MOL0     H26298   1.254   6.599   5.504  0.9548 -1.0160  0.0209
  936MOL0     H26299   1.225   6.808   5.672 -2.4859  0.4614 -0.6066
  936MOL0     H26300   1.219   6.894   5.521  0.2797 -0.8821 -1.7521
  936MOL0     H26301   1.071   6.723   5.439  0.8876  0.4626 -0.2408
  936MOL0     H26302   1.043   6.664   5.605 -0.2319  1.1993  0.9279
  936MOL0     H26303   0.963   6.886   5.677  0.4333  1.0222 -0.1299
  936MOL0     H26304   0.994   6.960   5.522 -0.4086  0.5883 -0.4024
  936MOL0     H26305   0.845   6.815   5.400  1.2306  2.1887 -0.1479
  936MOL0     H26306   0.815   6.717   5.552 -1.7188 -0.8309 -2.7020
  936MOL0     H26307   0.695   6.921   5.649  0.6158  0.0320  0.9019
  936MOL0     H26308   0.743   7.021   5.506  1.5362 -0.7285 -1.1856
  936MOL0     H26309   0.575   6.757   5.493 -0.5022  0.1096  3.5917
  936MOL0     H26310   0.616   6.865   5.362 -1.0731 -0.5729  0.0170
  936MOL0     H26311   0.536   7.143   5.417  0.9710 -1.1695 -0.8138
  936MOL0     H26312   0.355   7.298   5.690  0.3109 -0.0770  0.0892
  936MOL0     H26313   0.378   7.323   5.518  2.2096 -1.5483  0.1524
  936MOL0     H26314   0.127   7.177   5.587  0.8046  0.4533  3.5330
  936MOL0     H26315   0.178   7.272   5.442  1.0501 -0.8037 -0.0562
  936MOL0     H26316   0.150   7.479   5.571  0.4770  0.3541 -1.0537
  936MOL0     H26317   0.127   7.392   5.725 -3.2065 -2.2146  0.2509
  936MOL0     H26318  -0.076   7.288   5.632  1.7662 -1.6933 -2.1189
  936MOL0     H26319  -0.059   7.363   5.490  0.6727  1.2797 -1.1378
  936MOL0     H26320  -0.281   7.692   5.691 -2.4576 -0.6311  1.0496
  936MOL0     H26321  -0.514   7.747   5.887 -0.1768 -2.5284  0.7471
  936MOL0     H26322  -0.387   7.807   5.998  0.5039 -0.7245  1.3799
  936MOL0     H26323  -0.370   7.833   5.822  0.9800  0.4710  0.6278
  936MOL0     H26324  -0.585   7.373   6.265  0.1337 -0.0727  1.4958
  936MOL0     H26325  -0.718   7.386   6.457 -0.4191  0.0726  0.5876
  936MOL0     H26326  -0.823   7.498   6.661  1.0128  0.0064  0.1888
  936MOL0     H26327  -0.754   7.343   6.696  2.4588  0.4193 -1.7686
  936MOL0     H26328  -0.694   7.464   6.933  0.3294  0.3507 -0.2907
  936MOL0     H26329  -0.820   7.574   6.884  0.4384  0.8843  0.0312
  936MOL0     H26330  -0.873   7.268   6.914 -2.6615 -0.7904  1.0560
  936MOL0     H26331  -0.980   7.397   6.872  0.7085 -0.5980 -1.7435
  936MOL0     H26332  -0.836   7.372   7.116  1.1637  0.1253 -1.9285
  936MOL0     H26333  -0.926   7.524   7.078 -0.3325 -0.7332  0.4178
  936MOL0     H26334  -1.047   7.234   7.097 -0.0004  0.5361 -3.7280
  936MOL0     H26335  -1.137   7.367   7.024 -1.5521  0.2266  0.5979
  936MOL0     H26336  -1.026   7.353   7.307  1.5545  1.8705 -0.8850
  936MOL0     H26337  -1.089   7.498   7.233 -2.3317  0.2461 -2.1241
  936MOL0     H26338  -1.270   7.376   7.385 -0.3909 -2.1222  1.0038
  936MOL0     H26339  -1.250   7.238   7.275  2.6085  0.0291 -0.2354
  936MOL0     H26340  -1.352   7.354   7.096 -0.2331 -0.1943  0.8746
  936MOL0     H26341  -1.351   7.519   7.170  0.0609 -0.3879 -0.8343
  936MOL0     H26342  -0.412   7.626   6.652  0.4591  0.2246  1.4735
  936MOL0     H26343  -0.285   7.625   6.434 -1.1135  1.9604 -1.6735
  936MOL0     H26344  -0.232   7.353   6.042 -0.1241  1.3906  2.4261
  936MOL0     H26345  -0.095   7.330   5.835 -0.6325  0.0946 -0.7744
  936MOL0     H26346   1.628   6.719   5.779  1.0701 -0.0220  0.3702
  936MOL0     H26347   1.849   6.656   5.858 -0.0199  0.9944 -0.9328
  936MOL0     H26348   2.112   6.311   5.963  1.4014 -2.2528  1.6373
  936MOL0     H26349   2.327   6.260   6.101  0.5997  0.3836  0.3556
  936MOL0     H26350   2.492   6.428   6.217 -0.2960  0.2847  0.2807
  936MOL0     H26351   2.533   6.260   6.206  0.2437 -0.7891  0.7567
  936MOL0     H26352   2.781   6.326   6.174  2.0851  3.8461 -1.2152
  936MOL0     H26353   2.721   6.363   6.334  0.1618 -1.4000 -0.1956
  936MOL0     H26354   2.664   6.602   6.244 -2.8254 -1.3154 -1.8915
  936MOL0     H26355   2.753   6.550   6.101 -3.3905 -1.5309  0.3429
  936MOL0     H26356   2.856   6.563   6.385 -1.3733 -0.2777 -0.4611
  936MOL0     H26357   2.908   6.680   6.260 -0.7285  0.9862  1.2497
  936MOL0     H26358   3.154   6.349   6.167 -1.5576 -1.3281  1.8770
  936MOL0     H26359   2.536   6.466   5.784 -0.2340 -0.4847  0.9137
  936MOL0     H26360   2.343   6.477   5.644 -0.0875 -0.3068 -0.5421
  937MOL0     O26361   0.531   8.298   1.716 -0.7174 -0.1524  0.5882
  937MOL0     C26362   0.587   8.208   1.776 -0.9837  1.4865 -1.1919
  937MOL0     O26363   0.532   8.102   1.833 -0.0744 -0.4536 -0.6930
  937MOL0     C26364   0.399   8.067   1.831 -0.5835 -0.7011 -0.5249
  937MOL0     C26365   0.371   7.930   1.861 -0.8480 -0.7323 -0.3588
  937MOL0     C26366   0.248   7.884   1.854 -0.3497  0.1932 -0.1405
  937MOL0     C26367   0.134   7.956   1.839 -0.4969 -0.7003 -0.2562
  937MOL0     O26368   0.015   7.894   1.853  0.4748 -0.0221 -0.0243
  937MOL0     C26369  -0.092   7.957   1.795 -0.8972 -0.5523  0.6173
  937MOL0     C26370  -0.209   7.859   1.798 -0.2116 -0.7255  0.0202
  937MOL0     C26371  -0.334   7.924   1.745  0.4106  0.1371 -0.3311
  937MOL0     C26372  -0.415   7.993   1.851 -0.4791  0.1729  0.0400
  937MOL0     C26373  -0.535   8.077   1.802  0.3658  0.5533 -0.5639
  937MOL0     C26374  -0.641   7.984   1.744  0.8228  0.0571 -0.5147
  937MOL0     C26375  -0.754   8.061   1.681 -0.1154  0.7681  0.1670
  937MOL0     C26376  -0.729   8.109   1.542  0.2317  0.1529 -0.3346
  937MOL0     N26377  -0.855   8.165   1.480 -0.4515 -0.0543 -0.1353
  937MOL0     C26378  -0.897   8.126   1.358  0.5941  0.6165 -0.1580
  937MOL0     C26379  -1.025   8.177   1.345  0.6780  0.0592  0.3407
  937MOL0     C26380  -1.118   8.134   1.228 -0.2319  0.0254 -0.3075
  937MOL0     C26381  -1.227   8.243   1.197  0.1413 -0.0347  0.2845
  937MOL0     C26382  -1.335   8.183   1.103 -0.0368 -0.3376 -0.0134
  937MOL0     C26383  -1.431   8.287   1.068  0.1286  1.1641 -0.1297
  937MOL0     O26384  -1.383   8.352   0.945 -0.1617 -0.1359  0.1893
  937MOL0     C26385  -1.456   8.451   0.883 -0.1129  0.5381 -0.1917
  937MOL0     C26386  -1.551   8.530   0.952  0.2839 -0.1436  0.2438
  937MOL0     C26387  -1.633   8.620   0.885 -0.0318 -0.2218 -0.7014
  937MOL0     C26388  -1.714   8.704   0.977  0.5344  0.2828 -0.9771
  937MOL0     C26389  -1.617   8.644   0.747  0.5808  0.3930 -0.6357
  937MOL0     C26390  -1.711   8.730   0.675 -0.7138  0.9383  0.0433
  937MOL0     O26391  -1.851   8.720   0.697  0.6185  0.3704  0.0917
  937MOL0     C26392  -1.934   8.825   0.695  0.8671  0.3244 -0.8383
  937MOL0     C26393  -1.914   8.954   0.732 -0.7866 -0.0380  0.6930
  937MOL0     C26394  -2.011   9.057   0.713 -0.3143 -0.2879 -0.1742
  937MOL0     C26395  -2.137   9.024   0.668  0.1352 -0.2771  0.2430
  937MOL0     O26396  -2.236   9.121   0.667 -0.3654 -0.2543  0.1668
  937MOL0     C26397  -2.224   9.224   0.577  0.3344 -0.6314  0.7295
  937MOL0     C26398  -2.345   9.314   0.589 -0.6581 -0.1497 -0.3109
  937MOL0     C26399  -2.473   9.245   0.553 -0.5076 -0.6654  1.0889
  937MOL0     C26400  -2.587   9.342   0.569  0.2696  0.1135  0.7290
  937MOL0     C26401  -2.715   9.257   0.548  0.9278 -0.1658  0.2223
  937MOL0     C26402  -2.848   9.339   0.549  0.2775 -0.7989  0.0069
  937MOL0     C26403  -2.983   9.273   0.540 -0.2165  0.6017 -0.3134
  937MOL0     C26404  -3.093   9.375   0.533 -0.4013  1.0095  0.3619
  937MOL0    Cl26405  -3.211   9.288   0.434  0.2649  0.0288  0.1450
  937MOL0     C26406  -2.158   8.885   0.636 -0.1997 -0.4008 -0.0155
  937MOL0     C26407  -2.059   8.790   0.655  0.2525  0.8666  0.2357
  937MOL0     O26408  -1.656   8.821   0.607 -0.7489  0.3567  0.6235
  937MOL0     C26409  -1.506   8.593   0.686  0.0730  0.0364 -0.8120
  937MOL0     C26410  -1.426   8.492   0.749  0.0144  0.0311  0.3590
  937MOL0     N26411  -1.051   8.252   1.463  0.4963 -0.2279  0.1844
  937MOL0     N26412  -0.951   8.238   1.545  0.3377  0.6913  0.1369
  937MOL0     C26413   0.160   8.092   1.819  0.4593  0.1741  0.4935
  937MOL0     C26414   0.286   8.150   1.810  0.4282 -0.1222  0.3261
  937MOL0     C26415   0.734   8.217   1.798 -0.0704 -1.2393 -0.3377
  937MOL0     C26416   0.805   8.123   1.877 -0.1059 -0.1773  0.1721
  937MOL0     C26417   0.942   8.136   1.893  0.0226  0.0378 -0.6113
  937MOL0     C26418   1.013   8.245   1.851 -0.2971 -0.5767  0.3703
  937MOL0     O26419   1.139   8.264   1.902 -0.0346  0.1469 -0.6182
  937MOL0     C26420   1.220   8.374   1.850 -0.2059 -0.0125  0.3941
  937MOL0     C26421   1.367   8.375   1.883 -0.1079  0.4309 -0.0277
  937MOL0     C26422   1.390   8.340   2.036 -0.1110 -0.3243 -0.2235
  937MOL0     C26423   1.521   8.396   2.094  0.0632 -0.1284  0.1215
  937MOL0     C26424   1.560   8.321   2.210 -0.1863  0.1274 -0.0990
  937MOL0     C26425   1.585   8.264   2.316 -0.7496 -0.6196 -0.0734
  937MOL0     C26426   0.944   8.343   1.770 -0.8566  0.1821 -0.5782
  937MOL0     C26427   0.810   8.327   1.757 -0.5127 -0.5823 -0.4871
  937MOL0     H26428   0.461   7.872   1.878 -0.3837 -0.7979 -2.6599
  937MOL0     H26429   0.234   7.777   1.862  1.9093 -0.2900 -1.6690
  937MOL0     H26430  -0.118   8.046   1.853 -0.0290  1.2952 -1.6827
  937MOL0     H26431  -0.060   7.986   1.695 -1.1589  0.2675  0.7625
  937MOL0     H26432  -0.187   7.781   1.724  0.7638 -0.7667  0.3415
  937MOL0     H26433  -0.222   7.815   1.897  1.4858  0.1425  0.6623
  937MOL0     H26434  -0.314   7.995   1.664  0.5695  1.2049  0.6225
  937MOL0     H26435  -0.395   7.847   1.697 -2.7551  4.1106 -3.4492
  937MOL0     H26436  -0.435   7.914   1.924  2.7326 -0.4755  0.3975
  937MOL0     H26437  -0.353   8.061   1.910 -1.8449  0.5635  1.0674
  937MOL0     H26438  -0.574   8.138   1.885  2.3375 -1.3407  1.9005
  937MOL0     H26439  -0.518   8.148   1.720 -2.1603 -0.2429 -1.8978
  937MOL0     H26440  -0.603   7.915   1.669 -0.0782 -0.6578 -0.3309
  937MOL0     H26441  -0.680   7.930   1.831  2.7388 -1.4644 -0.5327
  937MOL0     H26442  -0.837   7.992   1.665  0.6952 -0.5947  1.5406
  937MOL0     H26443  -0.780   8.142   1.751  0.8994  1.7451 -0.5369
  937MOL0     H26444  -0.692   8.025   1.483  1.2090  1.4775 -1.6544
  937MOL0     H26445  -0.656   8.190   1.537  0.2983  0.1461  0.3803
  937MOL0     H26446  -0.840   8.064   1.289  0.2085 -1.8445  1.5782
  937MOL0     H26447  -1.066   8.096   1.139 -1.3044  2.1181 -1.9259
  937MOL0     H26448  -1.175   8.055   1.276  1.3609 -0.7121  0.4616
  937MOL0     H26449  -1.173   8.325   1.149  1.1327 -0.9595 -0.2298
  937MOL0     H26450  -1.273   8.282   1.289  0.3407 -0.8384  0.7421
  937MOL0     H26451  -1.398   8.110   1.154 -1.5514  0.9146 -0.0194
  937MOL0     H26452  -1.287   8.133   1.018 -1.3289 -0.1946 -0.8503
  937MOL0     H26453  -1.435   8.355   1.153  2.5852  0.9982  0.1712
  937MOL0     H26454  -1.527   8.240   1.043  0.8529  0.6084 -2.0989
  937MOL0     H26455  -1.586   8.515   1.053  0.2261 -2.1204 -0.0187
  937MOL0     H26456  -1.813   8.657   0.980  0.8705 -0.3928 -0.1859
  937MOL0     H26457  -1.667   8.703   1.076 -0.5476 -1.7711 -0.4163
  937MOL0     H26458  -1.722   8.809   0.949 -0.8206  0.9880  1.7641
  937MOL0     H26459  -1.813   8.977   0.764  0.3485 -3.2805 -0.1199
  937MOL0     H26460  -1.987   9.163   0.721 -0.7475 -0.2063  0.0518
  937MOL0     H26461  -2.134   9.283   0.596  1.6025 -1.1436 -2.9388
  937MOL0     H26462  -2.212   9.189   0.474  0.3953  0.4237  0.3731
  937MOL0     H26463  -2.361   9.345   0.693  1.4659 -1.4249  0.4632
  937MOL0     H26464  -2.332   9.398   0.520 -2.2803 -0.7355 -1.4061
  937MOL0     H26465  -2.492   9.161   0.621 -1.2362 -2.1776 -0.8951
  937MOL0     H26466  -2.462   9.209   0.451 -1.2816  0.9961  0.3842
  937MOL0     H26467  -2.583   9.376   0.673  0.9266  0.6547  0.5346
  937MOL0     H26468  -2.581   9.429   0.503  2.2545  0.7598  1.6748
  937MOL0     H26469  -2.729   9.188   0.632  0.4597 -0.1430  0.1628
  937MOL0     H26470  -2.709   9.199   0.456 -1.3954  1.6969 -1.2284
  937MOL0     H26471  -2.846   9.402   0.638  1.6019 -0.6004 -0.1343
  937MOL0     H26472  -2.834   9.409   0.466  1.7210  0.2073  1.0345
  937MOL0     H26473  -2.990   9.205   0.626  0.8375 -2.7421 -2.6590
  937MOL0     H26474  -2.983   9.189   0.470 -0.0889 -1.7381  2.2895
  937MOL0     H26475  -3.078   9.464   0.472 -1.7123  0.4239 -0.8775
  937MOL0     H26476  -3.127   9.398   0.635 -0.0635 -3.5679  1.7407
  937MOL0     H26477  -2.258   8.852   0.610  0.0505  0.7200 -2.7254
  937MOL0     H26478  -2.074   8.684   0.632  5.0750 -0.2329  1.1817
  937MOL0     H26479  -1.483   8.624   0.585  0.6893  1.0523 -0.3802
  937MOL0     H26480  -1.340   8.445   0.703 -0.5929 -1.4077  0.6302
  937MOL0     H26481   0.075   8.160   1.811 -2.8616 -3.5759  1.0842
  937MOL0     H26482   0.297   8.257   1.794  0.6005 -0.0387  0.9777
  937MOL0     H26483   0.757   8.030   1.907 -1.3494  0.9461  1.8510
  937MOL0     H26484   0.988   8.069   1.964  0.3781  0.4305 -0.4673
  937MOL0     H26485   1.214   8.383   1.741  1.4108  2.3994  0.4079
  937MOL0     H26486   1.169   8.461   1.891 -0.7788 -1.4059  2.8078
  937MOL0     H26487   1.416   8.466   1.848 -0.3747  0.2806 -0.8091
  937MOL0     H26488   1.406   8.287   1.830 -0.4523  0.0828  0.2878
  937MOL0     H26489   1.399   8.232   2.048  3.2584 -0.0008  1.0132
  937MOL0     H26490   1.301   8.371   2.092  1.1292  0.5897  1.3130
  937MOL0     H26491   1.501   8.502   2.112 -0.1549 -0.5896  2.9479
  937MOL0     H26492   1.604   8.390   2.023  0.7882  3.8524  0.4185
  937MOL0     H26493   1.620   8.224   2.408  1.4672 -0.7812 -0.9262
  937MOL0     H26494   0.988   8.436   1.736  3.3125 -1.1242  0.6034
  937MOL0     H26495   0.755   8.407   1.708 -1.9250  0.8674  3.1820
  938MOL0     O26496  10.692   2.143   1.061  0.1901  0.3879 -0.0863
  938MOL0     C26497  10.712   2.135   0.937 -0.6059 -0.6387  0.9480
  938MOL0     O26498  10.649   2.217   0.839  0.0941  0.0653  0.6346
  938MOL0     C26499  10.525   2.264   0.870 -0.6724 -0.1361 -0.3281
  938MOL0     C26500  10.514   2.357   0.978 -0.5958 -0.4257 -0.0430
  938MOL0     C26501  10.386   2.413   1.008  0.6323  0.2410 -0.2279
  938MOL0     C26502  10.266   2.360   0.947  0.6332  0.2312  0.8123
  938MOL0     O26503  10.141   2.417   0.979 -0.0768 -0.0389 -0.2695
  938MOL0     C26504  10.025   2.379   0.901 -0.4347  0.0919 -0.1540
  938MOL0     C26505   9.902   2.454   0.941 -0.2074 -0.7812  0.4598
  938MOL0     C26506   9.852   2.424   1.079  0.5373 -0.8677  0.2507
  938MOL0     C26507   9.699   2.453   1.098 -0.0501 -0.3764  0.6623
  938MOL0     C26508   9.657   2.427   1.240 -0.1299  0.5985  0.2222
  938MOL0     C26509   9.503   2.403   1.260  0.0960 -0.2135  0.9625
  938MOL0     C26510   9.441   2.270   1.212  0.3471 -0.5306 -0.1139
  938MOL0     C26511   9.296   2.295   1.161  0.0538 -0.1885  1.3200
  938MOL0     N26512   9.200   2.320   1.269  0.2332 -0.5032 -0.5028
  938MOL0     C26513   9.168   2.450   1.315 -1.1085  0.0524 -0.1557
  938MOL0     C26514   9.120   2.434   1.437  0.8197  0.8416  0.0694
  938MOL0     C26515   9.060   2.533   1.527 -0.5451 -0.4721 -0.0614
  938MOL0     C26516   8.912   2.515   1.525  0.3518  0.4312 -0.8178
  938MOL0     C26517   8.832   2.620   1.608 -0.0573 -0.3955  0.5280
  938MOL0     C26518   8.684   2.582   1.608  0.3299  0.4616  0.9460
  938MOL0     O26519   8.631   2.585   1.473  0.2294 -0.8243 -0.5440
  938MOL0     C26520   8.498   2.561   1.459 -0.0641 -0.5188  0.3428
  938MOL0     C26521   8.412   2.517   1.552 -0.6677  1.4579  0.4432
  938MOL0     C26522   8.274   2.504   1.531 -1.1329 -0.6761  0.1549
  938MOL0     C26523   8.195   2.449   1.639  0.6987  0.3407 -0.9900
  938MOL0     C26524   8.230   2.537   1.402 -0.0340 -0.6673  0.8247
  938MOL0     C26525   8.090   2.538   1.358  0.0949 -0.1240 -0.9686
  938MOL0     O26526   8.047   2.618   1.248 -0.0243  0.5396  0.1439
  938MOL0     C26527   7.913   2.637   1.222  0.1893  0.4434 -0.0111
  938MOL0     C26528   7.813   2.667   1.320 -0.7396 -0.0082 -0.6972
  938MOL0     C26529   7.685   2.706   1.273 -0.5466  0.3392  0.2574
  938MOL0     C26530   7.650   2.701   1.143 -0.1101  0.5714  0.1900
  938MOL0     O26531   7.518   2.735   1.126  0.1804  0.5751  0.4141
  938MOL0     C26532   7.462   2.700   0.993 -0.1227  0.3239 -0.4115
  938MOL0     C26533   7.314   2.712   0.995 -0.0213 -0.1133 -0.0913
  938MOL0     C26534   7.251   2.641   0.878  0.9209  0.4959 -0.0425
  938MOL0     C26535   7.103   2.678   0.885 -0.2651 -0.0481  0.5194
  938MOL0     C26536   7.041   2.630   0.748 -0.0218  0.0009 -0.0727
  938MOL0     C26537   6.891   2.661   0.731 -0.5400 -0.3815 -0.3398
  938MOL0     C26538   6.837   2.598   0.612  0.2701  0.2594  0.7046
  938MOL0     C26539   6.693   2.642   0.578  0.3389  0.0894  0.5632
  938MOL0    Cl26540   6.594   2.611   0.731 -0.0135  0.0486  0.5532
  938MOL0     C26541   7.734   2.658   1.045  0.8963  0.4514 -0.4645
  938MOL0     C26542   7.871   2.633   1.086 -0.2199  0.6796  0.3029
  938MOL0     O26543   8.021   2.456   1.413  0.9999  0.7131 -0.6462
  938MOL0     C26544   8.318   2.580   1.307 -0.2417  0.2339  0.2765
  938MOL0     C26545   8.448   2.600   1.331  1.1794  0.8556 -0.5372
  938MOL0     N26546   9.125   2.297   1.467  0.2368 -0.1354 -0.0486
  938MOL0     N26547   9.175   2.229   1.366 -0.4518  0.1422 -0.2699
  938MOL0     C26548  10.286   2.271   0.837  0.1457 -0.3665 -0.3297
  938MOL0     C26549  10.416   2.230   0.796 -0.1363 -0.6039  0.2756
  938MOL0     C26550  10.832   2.053   0.889  0.3710  0.9415 -0.4553
  938MOL0     C26551  10.904   2.078   0.764  0.0460  0.1002 -0.6861
  938MOL0     C26552  11.016   2.000   0.731 -0.8243  0.1836  0.0332
  938MOL0     C26553  11.064   1.895   0.806  0.3450 -0.4660 -0.4970
  938MOL0     O26554  11.174   1.816   0.776 -0.0855  0.6638  0.0388
  938MOL0     C26555  11.221   1.811   0.643 -0.0392 -0.0202 -0.4826
  938MOL0     C26556  11.284   1.673   0.626 -0.4009 -0.0325 -0.3580
  938MOL0     C26557  11.429   1.666   0.682  0.9135 -0.6747  0.3758
  938MOL0     C26558  11.465   1.520   0.686 -0.1599 -0.4994 -0.4516
  938MOL0     C26559  11.606   1.507   0.714 -0.0977 -0.6583  1.1741
  938MOL0     C26560  11.722   1.510   0.749  0.1260 -0.4432 -0.1827
  938MOL0     C26561  10.992   1.869   0.926 -0.1010  0.5928 -0.0492
  938MOL0     C26562  10.877   1.941   0.963 -0.0033  0.1157  0.0205
  938MOL0     H26563  10.599   2.397   1.032 -1.9084  0.6893  1.2836
  938MOL0     H26564  10.373   2.499   1.073 -3.4769  0.3486 -0.9044
  938MOL0     H26565  10.056   2.395   0.797 -1.5900  0.0374 -0.5199
  938MOL0     H26566  10.000   2.274   0.921 -1.7484  0.3005 -0.6514
  938MOL0     H26567   9.927   2.560   0.938 -0.3037 -0.7816 -0.6906
  938MOL0     H26568   9.832   2.428   0.861  1.0587  1.5245 -1.5194
  938MOL0     H26569   9.871   2.319   1.102 -1.8407 -1.4647 -0.2984
  938MOL0     H26570   9.909   2.480   1.153  0.0245  2.8937 -1.9466
  938MOL0     H26571   9.672   2.548   1.050  1.3478 -0.4416 -0.2892
  938MOL0     H26572   9.648   2.380   1.035 -0.7340 -1.2247  2.1418
  938MOL0     H26573   9.712   2.341   1.280 -0.9631 -0.0536  0.0072
  938MOL0     H26574   9.686   2.514   1.299  1.5594  2.2752 -2.8372
  938MOL0     H26575   9.493   2.418   1.368  2.0822  1.4580  0.9776
  938MOL0     H26576   9.456   2.485   1.204  0.3751 -0.6394  0.0797
  938MOL0     H26577   9.497   2.231   1.127 -1.4349  1.7841 -2.5136
  938MOL0     H26578   9.438   2.201   1.297 -1.1518 -0.9730 -0.5014
  938MOL0     H26579   9.264   2.205   1.107  1.3538  0.5291 -0.8218
  938MOL0     H26580   9.291   2.362   1.075  0.6695 -1.2664  0.4087
  938MOL0     H26581   9.200   2.540   1.265  0.8504  0.3086  1.4359
  938MOL0     H26582   9.091   2.530   1.632 -1.9410 -0.6517  0.3592
  938MOL0     H26583   9.078   2.630   1.481 -0.6908 -1.2833 -1.9013
  938MOL0     H26584   8.889   2.417   1.566  0.3801  1.1581  1.0256
  938MOL0     H26585   8.876   2.516   1.422  1.4891  0.6989 -1.2347
  938MOL0     H26586   8.844   2.719   1.564 -4.1567 -0.5216 -1.3188
  938MOL0     H26587   8.862   2.620   1.713 -0.8149 -0.6186  0.7499
  938MOL0     H26588   8.628   2.651   1.671 -1.4278 -0.0426  0.0148
  938MOL0     H26589   8.665   2.483   1.650 -0.6919  0.7759  1.2583
  938MOL0     H26590   8.435   2.504   1.657 -0.2294 -2.2516 -0.0028
  938MOL0     H26591   8.236   2.498   1.727 -0.0185 -0.8489  0.0470
  938MOL0     H26592   8.095   2.494   1.631 -0.4642 -2.2595 -2.9138
  938MOL0     H26593   8.184   2.340   1.642  3.0394  0.0874  1.4420
  938MOL0     H26594   7.855   2.662   1.420  0.4255 -0.0551 -1.1694
  938MOL0     H26595   7.608   2.735   1.344 -0.4554 -0.3512  0.6483
  938MOL0     H26596   7.500   2.773   0.921 -0.4188  0.2028 -0.6913
  938MOL0     H26597   7.482   2.600   0.954 -1.8758 -0.6614  1.0702
  938MOL0     H26598   7.279   2.659   1.085  0.4893 -1.7250 -0.8056
  938MOL0     H26599   7.282   2.816   1.009  0.8549  0.2258 -0.5162
  938MOL0     H26600   7.265   2.533   0.888  3.6517  0.8405  0.5946
  938MOL0     H26601   7.303   2.669   0.786  0.7574 -1.0621 -0.6418
  938MOL0     H26602   7.050   2.628   0.966 -2.2082  5.4173  3.1179
  938MOL0     H26603   7.092   2.785   0.903  1.5614 -0.2290  3.3045
  938MOL0     H26604   7.056   2.522   0.745  1.3583  0.1725  0.0904
  938MOL0     H26605   7.096   2.667   0.661 -2.0518  2.9608 -0.2296
  938MOL0     H26606   6.851   2.611   0.819  1.0995 -2.1386 -0.5357
  938MOL0     H26607   6.868   2.766   0.752  0.4392 -0.4515  1.3411
  938MOL0     H26608   6.852   2.490   0.620 -2.0487 -0.1461  0.2190
  938MOL0     H26609   6.913   2.618   0.537  0.2776  0.2551  0.7109
  938MOL0     H26610   6.656   2.591   0.489 -0.2921  0.5439  0.5558
  938MOL0     H26611   6.693   2.750   0.561  1.1901  0.1503  0.9281
  938MOL0     H26612   7.694   2.648   0.945  0.6007 -0.3457 -0.2752
  938MOL0     H26613   7.945   2.616   1.008  0.3908  1.5562  0.6792
  938MOL0     H26614   8.275   2.614   1.213 -0.9359  1.7788  1.1122
  938MOL0     H26615   8.515   2.626   1.250  0.5606  2.6679 -0.5011
  938MOL0     H26616  10.208   2.221   0.780  1.4885 -1.4040 -1.3441
  938MOL0     H26617  10.420   2.172   0.705 -0.3104  2.9921 -2.2233
  938MOL0     H26618  10.862   2.166   0.716  1.3138  0.5554 -0.9973
  938MOL0     H26619  11.069   2.037   0.644  0.0412 -1.3959 -0.1346
  938MOL0     H26620  11.136   1.813   0.574  0.3577  0.4786 -0.9551
  938MOL0     H26621  11.300   1.885   0.636 -0.9795  1.2513  1.4728
  938MOL0     H26622  11.292   1.654   0.519  1.8530  4.7349 -1.2795
  938MOL0     H26623  11.226   1.598   0.682  0.7784  0.3912  1.5331
  938MOL0     H26624  11.433   1.698   0.786 -0.2880 -1.3086  0.6354
  938MOL0     H26625  11.503   1.720   0.622 -1.2251  1.2752 -0.6996
  938MOL0     H26626  11.456   1.474   0.587  1.3300 -0.8749 -0.4448
  938MOL0     H26627  11.405   1.465   0.759  0.1930  2.4794  2.2857
  938MOL0     H26628  11.816   1.531   0.797 -0.7267  1.0703  0.9239
  938MOL0     H26629  11.029   1.791   0.993  1.9174  0.1576 -1.5685
  938MOL0     H26630  10.832   1.908   1.056 -1.6335  2.5074  0.1474
  939MOL0     O26631  10.786   3.373   9.046  0.2034  0.2735 -0.2481
  939MOL0     C26632  10.796   3.427   8.939  0.5119 -0.1127  0.5478
  939MOL0     O26633  10.696   3.436   8.843  0.0713 -0.1734 -0.0503
  939MOL0     C26634  10.563   3.393   8.868  0.4377  0.6733  0.1420
  939MOL0     C26635  10.505   3.361   8.993 -0.1263 -1.1930  0.1435
  939MOL0     C26636  10.373   3.320   9.004 -0.0821  0.1099 -0.8634
  939MOL0     C26637  10.303   3.293   8.883 -0.1553  0.6320 -0.6576
  939MOL0     O26638  10.177   3.251   8.884  0.5499  0.8709  0.6908
  939MOL0     C26639  10.123   3.170   8.986 -0.1108  0.4672 -0.6332
  939MOL0     C26640   9.967   3.149   8.978 -0.3003  0.8738  0.9687
  939MOL0     C26641   9.911   3.088   8.838  0.5062 -0.0710  0.4268
  939MOL0     C26642   9.763   3.054   8.854 -0.1280  0.3470  0.0811
  939MOL0     C26643   9.701   3.031   8.707 -0.3564  0.4321 -0.5844
  939MOL0     C26644   9.557   3.007   8.693 -0.3164  0.3297  0.3192
  939MOL0     C26645   9.482   3.146   8.715  0.4013 -0.0036  0.3118
  939MOL0     C26646   9.334   3.136   8.671  0.6322 -0.3944 -0.9854
  939MOL0     N26647   9.255   3.057   8.761 -0.9273 -0.4825  0.2146
  939MOL0     C26648   9.177   3.093   8.870 -0.4021  0.0295 -0.3428
  939MOL0     C26649   9.112   2.981   8.904 -0.1193 -0.2508  0.0261
  939MOL0     C26650   9.012   2.954   9.016 -0.0132 -0.3573  0.1218
  939MOL0     C26651   8.871   2.927   8.965 -0.0469  0.0595  0.6688
  939MOL0     C26652   8.774   2.899   9.081 -0.0808 -0.0180  0.7116
  939MOL0     C26653   8.631   2.907   9.020 -0.1441 -0.5467 -0.5324
  939MOL0     O26654   8.532   2.846   9.105  0.1028 -0.1748 -0.3507
  939MOL0     C26655   8.401   2.870   9.085 -0.3062 -0.3158 -0.1313
  939MOL0     C26656   8.354   2.910   8.959  0.6369 -0.2842  0.4040
  939MOL0     C26657   8.220   2.949   8.938 -0.1420 -0.3741  0.7593
  939MOL0     C26658   8.184   3.015   8.811 -0.5976 -0.2976 -0.0122
  939MOL0     C26659   8.122   2.910   9.031 -0.2080 -0.7815 -0.7580
  939MOL0     C26660   7.975   2.921   9.018  0.0840  0.4970  0.2144
  939MOL0     O26661   7.918   2.963   8.895 -0.3076  0.1070  0.5843
  939MOL0     C26662   7.775   2.971   8.885 -0.5818 -0.8642  0.8131
  939MOL0     C26663   7.678   2.998   8.988  1.3567 -0.4779  0.6823
  939MOL0     C26664   7.537   3.000   8.956  0.0857 -0.4885  0.1867
  939MOL0     C26665   7.496   2.989   8.821  0.2988  0.2463  0.3070
  939MOL0     O26666   7.361   3.006   8.775 -0.4790  0.0615  0.3616
  939MOL0     C26667   7.256   3.031   8.875 -0.2127  0.2585 -0.5198
  939MOL0     C26668   7.120   3.011   8.802  0.0753 -0.4065  0.2963
  939MOL0     C26669   7.006   2.981   8.902  0.7486 -0.1991  0.2465
  939MOL0     C26670   6.874   3.050   8.886 -0.3328  0.0100  0.3126
  939MOL0     C26671   6.872   3.196   8.938 -1.4135 -0.2835 -0.0987
  939MOL0     C26672   6.729   3.255   8.915  0.4444 -0.3180  0.4153
  939MOL0     C26673   6.722   3.388   8.980 -0.3509  0.0361 -0.0156
  939MOL0     C26674   6.579   3.447   8.990 -0.5340  0.0950  0.1303
  939MOL0    Cl26675   6.502   3.444   8.829 -0.2614  0.3527  0.2310
  939MOL0     C26676   7.599   2.967   8.726  0.2218 -0.2102 -0.0488
  939MOL0     C26677   7.735   2.947   8.752 -0.0968 -0.7516 -0.3318
  939MOL0     O26678   7.908   2.892   9.115  0.1803  0.1099  0.4044
  939MOL0     C26679   8.169   2.856   9.151  0.4387 -0.1252  0.1127
  939MOL0     C26680   8.303   2.837   9.178 -0.3795  0.2608  0.7263
  939MOL0     N26681   9.152   2.879   8.821 -1.4381 -0.4216  0.3280
  939MOL0     N26682   9.237   2.930   8.731  0.0628 -0.7046  0.0074
  939MOL0     C26683  10.362   3.329   8.757  0.7196 -0.4744 -0.9484
  939MOL0     C26684  10.488   3.383   8.748 -0.1289  0.5680 -0.1072
  939MOL0     C26685  10.926   3.470   8.895  0.3865 -0.4721 -0.4329
  939MOL0     C26686  10.942   3.573   8.791  1.5845  0.5103  0.4914
  939MOL0     C26687  11.064   3.621   8.759  0.4480 -0.5205 -0.4277
  939MOL0     C26688  11.181   3.567   8.810  0.5455  0.8471  0.3474
  939MOL0     O26689  11.300   3.613   8.757 -0.2528  0.8538  0.6701
  939MOL0     C26690  11.421   3.540   8.792 -0.4102 -0.9837 -0.1353
  939MOL0     C26691  11.540   3.581   8.705  0.2710  0.3243  0.3038
  939MOL0     C26692  11.537   3.499   8.574 -0.1953  0.2362 -0.4084
  939MOL0     C26693  11.676   3.505   8.499  0.0941 -0.0416 -0.1590
  939MOL0     C26694  11.663   3.440   8.365  0.8703  0.0087  0.5771
  939MOL0     C26695  11.663   3.382   8.259 -0.2898  0.4426 -0.1558
  939MOL0     C26696  11.171   3.460   8.899  0.2442 -0.0752 -0.0677
  939MOL0     C26697  11.047   3.424   8.956 -0.0777 -0.3899  0.5183
  939MOL0     H26698  10.572   3.388   9.074  2.0730  2.9081 -2.7203
  939MOL0     H26699  10.339   3.291   9.102  4.0838  1.6405  1.2804
  939MOL0     H26700  10.175   3.074   8.977  0.1623 -0.3256  5.3143
  939MOL0     H26701  10.139   3.214   9.085  1.3682  1.3355 -1.2171
  939MOL0     H26702   9.936   3.082   9.059  0.9726 -2.3764 -1.0291
  939MOL0     H26703   9.930   3.252   8.981  1.5657  1.5817  1.1904
  939MOL0     H26704   9.927   3.160   8.756 -2.3529 -1.1471 -1.2189
  939MOL0     H26705   9.973   3.003   8.807  1.4525  0.8385 -0.2613
  939MOL0     H26706   9.758   2.961   8.912  3.3740 -1.1581 -1.7300
  939MOL0     H26707   9.719   3.134   8.914  2.0586  1.9151 -0.2830
  939MOL0     H26708   9.726   3.122   8.651  2.1789  0.3634  0.2833
  939MOL0     H26709   9.755   2.946   8.664 -1.3258 -1.1537  1.1904
  939MOL0     H26710   9.545   2.968   8.591  3.2108  0.5541 -0.3082
  939MOL0     H26711   9.519   2.944   8.773  0.9046  0.6701  1.2021
  939MOL0     H26712   9.490   3.183   8.818  0.8216 -0.1854  0.3473
  939MOL0     H26713   9.517   3.227   8.650 -1.1681 -0.9330 -1.8086
  939MOL0     H26714   9.327   3.090   8.573  1.7730 -1.4369 -0.6076
  939MOL0     H26715   9.297   3.239   8.675 -4.3211 -1.9199  2.1472
  939MOL0     H26716   9.164   3.185   8.926  0.8575  1.1793 -1.8450
  939MOL0     H26717   9.050   2.866   9.069  1.0346 -0.8036 -1.3106
  939MOL0     H26718   9.020   3.041   9.083 -2.3764  1.6113 -1.9301
  939MOL0     H26719   8.878   2.843   8.896 -1.1329  0.5415 -0.0439
  939MOL0     H26720   8.844   3.022   8.918 -1.6331 -0.5054  0.3960
  939MOL0     H26721   8.788   2.982   9.151 -0.0769  1.7087 -1.2231
  939MOL0     H26722   8.799   2.803   9.127 -2.3708 -1.1291 -0.1910
  939MOL0     H26723   8.627   2.874   8.916  1.0104  3.5250 -2.0641
  939MOL0     H26724   8.606   3.013   9.032  2.5303 -0.0598  2.2114
  939MOL0     H26725   8.414   2.916   8.868 -1.3136 -3.6456 -1.2856
  939MOL0     H26726   8.101   3.084   8.831 -1.6499 -2.0313  2.0131
  939MOL0     H26727   8.269   3.063   8.761 -0.5843  0.6069  0.8584
  939MOL0     H26728   8.147   2.940   8.740 -0.9977 -0.5937  0.5005
  939MOL0     H26729   7.704   3.032   9.087 -0.6583  1.3134  0.6701
  939MOL0     H26730   7.474   3.024   9.041  1.0759  1.9053  0.3446
  939MOL0     H26731   7.265   2.962   8.958 -1.1592 -1.0373 -1.4536
  939MOL0     H26732   7.265   3.131   8.920  1.2816 -0.4860  0.9185
  939MOL0     H26733   7.092   3.099   8.742 -2.3353 -0.0902  1.7329
  939MOL0     H26734   7.141   2.921   8.743  2.7077  0.2546  0.1212
  939MOL0     H26735   7.044   3.015   8.999 -0.5043 -0.4141  0.8360
  939MOL0     H26736   6.985   2.874   8.907  1.1172 -0.4090 -1.7952
  939MOL0     H26737   6.837   3.035   8.784  3.7532 -0.6352 -1.2417
  939MOL0     H26738   6.803   2.997   8.951 -2.3074  0.8553 -1.0699
  939MOL0     H26739   6.944   3.253   8.879 -1.0895 -0.7907 -0.2043
  939MOL0     H26740   6.897   3.200   9.045  1.4273  0.5803 -0.7434
  939MOL0     H26741   6.714   3.267   8.807 -2.0503  2.6195  0.9425
  939MOL0     H26742   6.650   3.189   8.950  1.0410 -2.0883 -1.3948
  939MOL0     H26743   6.791   3.449   8.921  2.2674 -1.1301  1.6162
  939MOL0     H26744   6.761   3.394   9.083  0.0272  2.6771 -0.2410
  939MOL0     H26745   6.593   3.552   9.018 -0.9375  0.3612 -0.6280
  939MOL0     H26746   6.519   3.391   9.062 -0.2774  1.2279  1.2636
  939MOL0     H26747   7.577   2.970   8.619  1.9546  1.0983 -0.4082
  939MOL0     H26748   7.820   2.932   8.686  1.4986 -2.3629  1.9475
  939MOL0     H26749   8.099   2.837   9.232 -1.5475 -1.8499 -1.8879
  939MOL0     H26750   8.339   2.806   9.275  0.5154  0.6847  0.5358
  939MOL0     H26751  10.299   3.326   8.668 -0.4808 -1.4603 -0.1057
  939MOL0     H26752  10.539   3.403   8.655  2.3879 -2.0743  0.5470
  939MOL0     H26753  10.860   3.614   8.733  2.4755  2.0595  0.2700
  939MOL0     H26754  11.066   3.705   8.690  1.2851  0.6507  0.9584
  939MOL0     H26755  11.445   3.574   8.893 -0.7353  1.4353 -0.8157
  939MOL0     H26756  11.411   3.431   8.795 -0.4791 -0.9786 -0.1760
  939MOL0     H26757  11.628   3.552   8.763 -1.7366 -1.2656  2.7613
  939MOL0     H26758  11.532   3.686   8.676 -0.9587 -0.4070 -2.4005
  939MOL0     H26759  11.448   3.523   8.515  0.0144  4.0757  0.5808
  939MOL0     H26760  11.523   3.393   8.597 -1.0690  0.2130 -0.9788
  939MOL0     H26761  11.746   3.453   8.565  1.2676 -1.3216 -2.3091
  939MOL0     H26762  11.715   3.604   8.475 -3.1615  0.8878 -2.2585
  939MOL0     H26763  11.674   3.323   8.170  1.9209  0.1099  0.2687
  939MOL0     H26764  11.265   3.415   8.932  2.0384 -0.0960 -4.4985
  939MOL0     H26765  11.047   3.353   9.038  0.6727  1.3437  2.1095
  940MOL0     O26766   5.199   1.407   8.380  0.6809 -0.3927  0.8367
  940MOL0     C26767   5.307   1.449   8.334  0.3219 -0.3466  0.0240
  940MOL0     O26768   5.377   1.565   8.377  0.6030  0.8374 -0.2923
  940MOL0     C26769   5.318   1.662   8.454 -0.4319  0.0170 -0.4625
  940MOL0     C26770   5.236   1.634   8.569  0.2820  0.2565 -0.2183
  940MOL0     C26771   5.168   1.732   8.641  0.5453  0.3926  0.9953
  940MOL0     C26772   5.195   1.869   8.603  0.1267  0.3721 -0.5138
  940MOL0     O26773   5.130   1.960   8.686 -0.1692 -0.3263 -0.4208
  940MOL0     C26774   5.190   2.091   8.697  0.9836  0.3440  0.6282
  940MOL0     C26775   5.117   2.167   8.803 -0.7839 -0.0054  0.1491
  940MOL0     C26776   4.967   2.189   8.778 -0.8643 -0.0539  0.1831
  940MOL0     C26777   4.901   2.274   8.882 -0.6383 -0.7011  0.0921
  940MOL0     C26778   4.760   2.294   8.840  0.5679 -0.4193 -0.6180
  940MOL0     C26779   4.742   2.378   8.714  0.1130 -0.4072  0.0302
  940MOL0     C26780   4.606   2.443   8.717 -0.1865  0.0628 -0.3798
  940MOL0     C26781   4.500   2.346   8.672  0.2307  0.1710  0.6236
  940MOL0     N26782   4.365   2.402   8.677  0.6934 -0.5002 -1.0896
  940MOL0     C26783   4.302   2.427   8.806 -0.5761  0.2288 -0.2962
  940MOL0     C26784   4.206   2.519   8.775  0.9190  0.6763  0.0868
  940MOL0     C26785   4.111   2.580   8.872 -0.5047  0.1455 -0.2795
  940MOL0     C26786   3.968   2.549   8.845 -0.4606 -0.2027  0.7331
  940MOL0     C26787   3.894   2.561   8.974 -0.3379 -0.1925 -0.1001
  940MOL0     C26788   3.865   2.701   9.014 -0.0395 -1.0004  0.2788
  940MOL0     O26789   3.788   2.781   8.914  0.2751  0.1418 -0.4580
  940MOL0     C26790   3.658   2.778   8.913  0.0210 -0.5885  0.0815
  940MOL0     C26791   3.588   2.858   8.820 -0.0184 -0.8263  0.7190
  940MOL0     C26792   3.451   2.869   8.810 -1.2387  0.1261 -0.7919
  940MOL0     C26793   3.395   2.959   8.710 -0.0491 -0.8739 -0.6243
  940MOL0     C26794   3.373   2.788   8.900  0.5084  0.2988  1.2791
  940MOL0     C26795   3.227   2.781   8.893 -0.6566 -0.4836 -0.1759
  940MOL0     O26796   3.163   2.738   8.776 -0.4555  0.2687  0.2402
  940MOL0     C26797   3.027   2.737   8.785 -0.7106  0.4549 -0.2372
  940MOL0     C26798   2.958   2.858   8.796  0.3126  0.5957  0.4894
  940MOL0     C26799   2.820   2.854   8.817 -0.2218 -0.3592 -0.4291
  940MOL0     C26800   2.750   2.735   8.817  0.9496 -0.4068  0.2932
  940MOL0     O26801   2.615   2.742   8.841 -0.2371 -0.0956  0.4347
  940MOL0     C26802   2.534   2.823   8.746 -0.4570  0.5174  0.1199
  940MOL0     C26803   2.397   2.756   8.738  0.4940 -0.5596  0.2681
  940MOL0     C26804   2.329   2.782   8.870 -0.0076  0.0023 -0.2024
  940MOL0     C26805   2.192   2.725   8.869  0.5924  0.7370 -0.3114
  940MOL0     C26806   2.093   2.788   8.771  0.5748  0.4367  0.4084
  940MOL0     C26807   2.079   2.944   8.771  0.2945  0.7084 -0.3295
  940MOL0     C26808   2.009   2.988   8.901 -0.0578 -0.2130 -0.1882
  940MOL0     C26809   1.988   3.141   8.908  0.5550  0.6721  1.2620
  940MOL0    Cl26810   1.892   3.194   8.776  0.1979  0.1513 -0.1711
  940MOL0     C26811   2.814   2.615   8.785  0.0875 -0.0945  0.8294
  940MOL0     C26812   2.955   2.618   8.780 -0.4726 -0.3241 -0.3919
  940MOL0     O26813   3.176   2.833   8.993  0.1501 -0.0668 -0.0379
  940MOL0     C26814   3.440   2.709   8.993 -0.0491 -0.2390 -0.2698
  940MOL0     C26815   3.577   2.708   8.997 -0.1673  0.0016 -0.2995
  940MOL0     N26816   4.221   2.554   8.640 -0.0971 -0.1921  0.3348
  940MOL0     N26817   4.306   2.486   8.581  0.1066  0.3784  0.0696
  940MOL0     C26818   5.291   1.900   8.497  0.9113 -0.3279 -0.1130
  940MOL0     C26819   5.338   1.798   8.419 -0.0631 -0.3942  0.5456
  940MOL0     C26820   5.379   1.372   8.230  0.2547  0.6236  0.4111
  940MOL0     C26821   5.511   1.401   8.190 -0.6551 -0.0337 -0.0274
  940MOL0     C26822   5.572   1.324   8.085  0.5747 -0.9601 -0.1418
  940MOL0     C26823   5.497   1.222   8.016 -0.3507 -0.1157  0.2173
  940MOL0     O26824   5.546   1.128   7.927 -0.0733  1.0266  0.7271
  940MOL0     C26825   5.692   1.111   7.923  0.8272  0.0589 -0.2704
  940MOL0     C26826   5.707   0.986   7.832 -0.1020 -0.3248 -0.1362
  940MOL0     C26827   5.664   0.855   7.899 -1.1290 -0.4162 -0.2907
  940MOL0     C26828   5.671   0.731   7.817 -0.8472 -0.5954  0.0721
  940MOL0     C26829   5.812   0.680   7.796 -0.0444  0.4927  0.0104
  940MOL0     C26830   5.929   0.633   7.801  0.3811 -0.0498 -0.1524
  940MOL0     C26831   5.364   1.205   8.057 -0.2580  0.1469  0.0610
  940MOL0     C26832   5.307   1.276   8.160  0.7869  0.2405  0.4226
  940MOL0     H26833   5.234   1.532   8.605 -0.7564  0.3498  0.0230
  940MOL0     H26834   5.100   1.722   8.725 -0.3848 -2.5313  0.0151
  940MOL0     H26835   5.297   2.073   8.711  0.9800 -1.8941 -1.5088
  940MOL0     H26836   5.188   2.147   8.602  3.9224 -1.3598 -0.5592
  940MOL0     H26837   5.125   2.113   8.897 -2.4914  0.4105  0.5725
  940MOL0     H26838   5.170   2.263   8.809  0.0452 -0.5414  2.2932
  940MOL0     H26839   4.944   2.235   8.681 -0.4705  0.2690  0.2402
  940MOL0     H26840   4.913   2.094   8.773 -0.3452 -0.2983 -1.8723
  940MOL0     H26841   4.902   2.227   8.981  0.1722  0.5333  0.6966
  940MOL0     H26842   4.958   2.367   8.885  0.4843 -1.3532 -0.3372
  940MOL0     H26843   4.717   2.193   8.836 -0.4178  0.0307 -2.6066
  940MOL0     H26844   4.721   2.347   8.926  2.2640  3.1580 -1.8451
  940MOL0     H26845   4.816   2.457   8.700  0.0980 -0.5566 -0.9023
  940MOL0     H26846   4.742   2.316   8.624 -5.4155 -0.8869 -0.0031
  940MOL0     H26847   4.580   2.478   8.817  2.4560  0.4819  0.2426
  940MOL0     H26848   4.608   2.524   8.644  1.5896  2.3965  2.0715
  940MOL0     H26849   4.503   2.250   8.725  3.7609  0.5753  1.4071
  940MOL0     H26850   4.520   2.330   8.566  2.0073 -2.5143  1.2674
  940MOL0     H26851   4.323   2.378   8.900 -0.7132  0.6887 -0.0229
  940MOL0     H26852   4.147   2.555   8.972 -0.7196  0.1738 -0.1972
  940MOL0     H26853   4.125   2.687   8.854  0.4904 -0.3401 -3.0216
  940MOL0     H26854   3.972   2.443   8.818  0.3110 -0.3156  1.2585
  940MOL0     H26855   3.934   2.603   8.756 -0.4075  0.8612  1.3338
  940MOL0     H26856   3.946   2.509   9.055  0.5709  2.9124  1.4416
  940MOL0     H26857   3.800   2.509   8.953 -2.0377  2.7259 -0.1719
  940MOL0     H26858   3.958   2.758   9.029  0.5115 -1.8393  0.1484
  940MOL0     H26859   3.814   2.699   9.110  0.1474  0.5934  0.4308
  940MOL0     H26860   3.659   2.917   8.764  0.6598  0.0672  2.4410
  940MOL0     H26861   3.472   3.009   8.650  2.2117 -1.6068  1.4879
  940MOL0     H26862   3.336   2.902   8.638  0.5263 -0.7697 -1.1861
  940MOL0     H26863   3.337   3.036   8.763 -1.9759 -3.2205  0.9048
  940MOL0     H26864   3.013   2.952   8.788  0.4672  0.3933 -0.9115
  940MOL0     H26865   2.767   2.948   8.832  0.1850  0.1767 -2.0991
  940MOL0     H26866   2.525   2.927   8.777  0.4325  0.8993 -0.8461
  940MOL0     H26867   2.576   2.821   8.645 -2.0556  0.3528 -0.5765
  940MOL0     H26868   2.334   2.809   8.666 -2.2197 -2.2092  1.2718
  940MOL0     H26869   2.422   2.657   8.699  0.4368  0.7134 -3.3964
  940MOL0     H26870   2.330   2.889   8.891  0.3582 -0.4628  2.5152
  940MOL0     H26871   2.387   2.731   8.948  1.9594 -0.2814 -1.7794
  940MOL0     H26872   2.212   2.620   8.849  0.2576  0.5064  0.5233
  940MOL0     H26873   2.146   2.738   8.967 -2.3833  0.8052 -1.6089
  940MOL0     H26874   1.998   2.742   8.799  1.1273 -0.8148  0.2944
  940MOL0     H26875   2.104   2.745   8.671 -2.4682  1.5432 -0.5438
  940MOL0     H26876   2.169   3.004   8.756  0.2348  1.2846  1.4256
  940MOL0     H26877   2.011   2.968   8.689 -0.4760 -0.0474  0.0669
  940MOL0     H26878   2.065   2.956   8.989 -0.5275  1.3916  0.7382
  940MOL0     H26879   1.908   2.952   8.924  0.1467  0.3346  1.7400
  940MOL0     H26880   2.084   3.192   8.912  0.9242 -0.0769  3.3439
  940MOL0     H26881   1.927   3.164   8.996 -0.7723 -1.0230  0.8476
  940MOL0     H26882   2.759   2.525   8.761  0.2001  0.2549 -0.9272
  940MOL0     H26883   3.025   2.537   8.763 -0.9663 -0.8712  0.1437
  940MOL0     H26884   3.378   2.649   9.059 -1.3599  0.3023 -0.9820
  940MOL0     H26885   3.628   2.649   9.073 -1.8866 -1.2887 -0.0787
  940MOL0     H26886   5.315   2.004   8.477 -0.9688  0.0905 -0.3917
  940MOL0     H26887   5.403   1.825   8.336  0.3967 -0.1466  0.9853
  940MOL0     H26888   5.571   1.472   8.245 -1.0525  1.5891 -1.5868
  940MOL0     H26889   5.678   1.344   8.073  0.2767  0.1782 -1.0720
  940MOL0     H26890   5.743   1.198   7.881  0.1398  0.1293 -0.9618
  940MOL0     H26891   5.749   1.088   8.014  0.6411 -0.6888 -0.3320
  940MOL0     H26892   5.813   0.986   7.806 -0.2626  1.8548 -1.0554
  940MOL0     H26893   5.649   0.999   7.740 -1.1597  0.0979  0.5745
  940MOL0     H26894   5.570   0.864   7.954 -0.4101 -0.3622  0.9487
  940MOL0     H26895   5.740   0.842   7.976  0.5576 -0.9388 -1.9507
  940MOL0     H26896   5.624   0.760   7.722  1.1962 -0.5303 -0.9801
  940MOL0     H26897   5.613   0.650   7.861  0.3992 -1.2371  0.5886
  940MOL0     H26898   6.030   0.601   7.794  0.6267  1.0792 -3.6670
  940MOL0     H26899   5.313   1.120   8.013 -1.5337 -0.5161  2.6110
  940MOL0     H26900   5.205   1.255   8.191  0.1462  1.7231 -0.6020
  941MOL0     O26901   1.246   6.079   4.643 -0.3454 -0.5495 -0.4480
  941MOL0     C26902   1.304   5.974   4.611 -0.0588 -0.3150 -0.6323
  941MOL0     O26903   1.257   5.846   4.643 -0.3209 -0.1417 -0.4246
  941MOL0     C26904   1.128   5.840   4.682 -0.2652  0.4862  1.0861
  941MOL0     C26905   1.023   5.918   4.633  0.4181 -0.4568  0.4317
  941MOL0     C26906   0.887   5.902   4.676 -0.0149 -0.2695 -0.0428
  941MOL0     C26907   0.853   5.793   4.765  1.2617  0.6363  0.0981
  941MOL0     O26908   0.729   5.786   4.811 -0.2398 -0.5764 -1.0465
  941MOL0     C26909   0.714   5.747   4.952  0.1624  0.1925 -0.3229
  941MOL0     C26910   0.591   5.816   5.012  0.2273  0.2054 -1.0024
  941MOL0     C26911   0.460   5.758   4.958 -0.8685 -0.0034  0.7308
  941MOL0     C26912   0.340   5.825   5.032 -0.4620  0.1462 -0.0643
  941MOL0     C26913   0.222   5.722   5.026 -0.0603  0.3210 -0.4357
  941MOL0     C26914   0.082   5.786   5.057 -0.2970  0.7657  0.0780
  941MOL0     C26915  -0.029   5.682   5.024  0.0585 -0.0407  0.5119
  941MOL0     C26916  -0.031   5.563   5.124  0.4459  0.7777 -0.3983
  941MOL0     N26917  -0.157   5.489   5.114  0.6071 -0.0018 -0.3737
  941MOL0     C26918  -0.204   5.423   5.000  0.5022  0.5826 -0.1733
  941MOL0     C26919  -0.335   5.401   5.018  0.1321 -0.8354 -0.1317
  941MOL0     C26920  -0.438   5.335   4.932  0.4599 -0.1996  0.0356
  941MOL0     C26921  -0.528   5.442   4.872 -0.5738  0.0745 -1.1752
  941MOL0     C26922  -0.658   5.382   4.801  0.5826 -0.3241  0.3653
  941MOL0     C26923  -0.747   5.504   4.783 -0.9710 -0.2524 -0.6038
  941MOL0     O26924  -0.839   5.487   4.680  0.0802  0.0275 -0.0451
  941MOL0     C26925  -0.956   5.558   4.672  0.1240  0.0431 -0.4201
  941MOL0     C26926  -0.988   5.659   4.760 -0.1785 -0.3295  0.6007
  941MOL0     C26927  -1.112   5.722   4.754  0.1800  0.2345  0.2164
  941MOL0     C26928  -1.139   5.825   4.867  0.4905  0.0611 -0.2640
  941MOL0     C26929  -1.213   5.675   4.657 -0.7563  0.5639 -0.2737
  941MOL0     C26930  -1.343   5.725   4.633 -0.2303 -0.3724  0.3874
  941MOL0     O26931  -1.386   5.714   4.505 -0.0074 -0.2529  0.5046
  941MOL0     C26932  -1.513   5.746   4.469 -0.0952 -0.3611 -0.1462
  941MOL0     C26933  -1.573   5.646   4.393 -0.5099 -0.2011 -0.1719
  941MOL0     C26934  -1.705   5.652   4.356  1.2866 -0.0090  0.4408
  941MOL0     C26935  -1.788   5.761   4.396 -0.8809  0.3573 -0.1740
  941MOL0     O26936  -1.912   5.786   4.358 -0.1666  0.2358 -0.2835
  941MOL0     C26937  -1.995   5.677   4.316 -0.0792 -0.6681 -1.0555
  941MOL0     C26938  -2.131   5.721   4.264  0.0888  0.2903  0.5277
  941MOL0     C26939  -2.230   5.619   4.228 -0.4613 -0.3532  0.0223
  941MOL0     C26940  -2.178   5.530   4.114 -1.2439  0.2980  0.1045
  941MOL0     C26941  -2.272   5.412   4.082  0.1372 -0.1547  0.7944
  941MOL0     C26942  -2.413   5.458   4.044  0.8883  0.7838  0.2551
  941MOL0     C26943  -2.417   5.571   3.937  0.6059 -0.3075  0.0269
  941MOL0     C26944  -2.563   5.605   3.922 -1.1620 -0.1246  0.2382
  941MOL0    Cl26945  -2.642   5.482   3.819 -0.4652 -0.0000  0.0435
  941MOL0     C26946  -1.731   5.861   4.477 -0.4147  0.2231 -0.5616
  941MOL0     C26947  -1.590   5.853   4.514  0.2472  0.3570 -0.7142
  941MOL0     O26948  -1.404   5.772   4.724  0.6323 -0.5512  0.2798
  941MOL0     C26949  -1.172   5.575   4.568  0.6354 -1.0161  0.8446
  941MOL0     C26950  -1.053   5.516   4.575 -0.2927  0.3477 -0.1051
  941MOL0     N26951  -0.367   5.457   5.143 -0.1580  0.5381  0.1497
  941MOL0     N26952  -0.263   5.511   5.199 -0.3198 -0.7657  0.0294
  941MOL0     C26953   0.955   5.708   4.814 -1.1673  0.2193 -0.1587
  941MOL0     C26954   1.087   5.737   4.770 -0.1024  0.0176 -0.6438
  941MOL0     C26955   1.439   5.977   4.543  0.1051  0.2851  0.2858
  941MOL0     C26956   1.476   6.081   4.464  0.5588  0.1487  0.0632
  941MOL0     C26957   1.601   6.091   4.400 -0.4433 -0.3246  0.2595
  941MOL0     C26958   1.698   5.989   4.414 -0.1323  0.0719  0.3859
  941MOL0     O26959   1.816   6.004   4.343  0.2968 -0.3342 -0.5062
  941MOL0     C26960   1.910   5.898   4.348 -0.0885 -0.6310 -0.0276
  941MOL0     C26961   2.037   5.946   4.276  0.0235  0.7179  0.0603
  941MOL0     C26962   2.093   6.088   4.316 -1.7431 -0.5658  0.5664
  941MOL0     C26963   2.136   6.096   4.462 -0.1051 -0.4090 -0.1146
  941MOL0     C26964   2.241   5.999   4.490 -0.5784 -0.5956  0.0893
  941MOL0     C26965   2.329   5.914   4.506  0.0861 -0.2471 -0.4556
  941MOL0     C26966   1.653   5.883   4.485 -0.0742  1.3099 -0.9900
  941MOL0     C26967   1.534   5.872   4.550  0.4210 -0.5766 -0.1722
  941MOL0     H26968   1.045   6.002   4.567  3.5158  1.1269  3.1690
  941MOL0     H26969   0.807   5.970   4.648 -1.3733 -1.5852  0.5042
  941MOL0     H26970   0.692   5.640   4.957  1.2083 -0.0217 -0.0377
  941MOL0     H26971   0.798   5.762   5.020  1.4080 -2.5980 -1.1186
  941MOL0     H26972   0.608   5.819   5.120  2.4872 -0.9662 -1.2547
  941MOL0     H26973   0.605   5.918   4.976 -0.6683 -0.1693 -2.4783
  941MOL0     H26974   0.455   5.776   4.850  1.3113 -0.7175  0.4435
  941MOL0     H26975   0.468   5.653   4.989  3.6382  0.2627  1.1107
  941MOL0     H26976   0.367   5.855   5.134  0.8337  4.2244 -1.3986
  941MOL0     H26977   0.316   5.920   4.984  0.4444  1.6992  2.3603
  941MOL0     H26978   0.222   5.678   4.926 -1.6239 -1.5001  0.3169
  941MOL0     H26979   0.254   5.638   5.088  0.2973  0.2838 -0.6664
  941MOL0     H26980   0.075   5.811   5.163 -1.1728  0.5439  0.0785
  941MOL0     H26981   0.070   5.877   4.998  0.6630  0.7040 -0.2283
  941MOL0     H26982  -0.124   5.734   5.037 -0.6374 -1.3931  1.1665
  941MOL0     H26983  -0.014   5.648   4.921  4.0763 -0.1442  1.0049
  941MOL0     H26984  -0.018   5.604   5.225 -0.6790 -0.2455  0.1927
  941MOL0     H26985   0.047   5.487   5.124 -0.7388 -0.4760  0.1796
  941MOL0     H26986  -0.149   5.384   4.915  0.1069 -0.6189  0.1022
  941MOL0     H26987  -0.380   5.283   4.854  2.2850  0.3385  0.9654
  941MOL0     H26988  -0.487   5.262   4.997  0.4002 -2.1537 -2.0764
  941MOL0     H26989  -0.470   5.507   4.805  1.5577 -1.0186 -0.4803
  941MOL0     H26990  -0.560   5.507   4.953  3.6092  0.0858  0.7270
  941MOL0     H26991  -0.705   5.305   4.863  0.0917 -0.8411 -0.6280
  941MOL0     H26992  -0.631   5.330   4.708  1.8736  2.5372 -0.9647
  941MOL0     H26993  -0.682   5.588   4.759 -1.8061  0.3797 -0.6892
  941MOL0     H26994  -0.794   5.525   4.879 -1.9402 -1.3137 -0.8192
  941MOL0     H26995  -0.916   5.689   4.835  1.6010  0.6679 -1.3718
  941MOL0     H26996  -1.232   5.802   4.920  0.7112  1.1064  0.5939
  941MOL0     H26997  -1.063   5.817   4.945  1.3099  0.4749 -1.0090
  941MOL0     H26998  -1.139   5.924   4.821  3.0839  0.8869  1.3420
  941MOL0     H26999  -1.515   5.560   4.360 -2.0591 -1.6388  0.7576
  941MOL0     H27000  -1.756   5.583   4.290 -0.3433  2.8255 -1.4606
  941MOL0     H27001  -1.949   5.622   4.233  1.1151 -0.1370 -0.7781
  941MOL0     H27002  -2.017   5.612   4.401 -1.0323  2.0439  0.9032
  941MOL0     H27003  -2.175   5.791   4.336 -4.2456 -0.3334 -1.2012
  941MOL0     H27004  -2.120   5.774   4.169  0.2304  1.2633  1.0681
  941MOL0     H27005  -2.320   5.669   4.191 -1.4514 -1.4166  0.9107
  941MOL0     H27006  -2.252   5.566   4.321 -1.5421  0.3238  0.1785
  941MOL0     H27007  -2.158   5.593   4.027 -1.1970  1.4436  0.9126
  941MOL0     H27008  -2.090   5.475   4.149 -0.9360  0.9222  0.3236
  941MOL0     H27009  -2.278   5.344   4.168 -3.1139 -0.9934  0.0168
  941MOL0     H27010  -2.227   5.354   4.001 -1.2052 -3.1539  2.0538
  941MOL0     H27011  -2.473   5.369   4.020 -0.5061  1.4011  1.3167
  941MOL0     H27012  -2.457   5.491   4.139  1.1946 -1.0516  1.0918
  941MOL0     H27013  -2.378   5.533   3.842 -0.0998 -1.5590  0.2111
  941MOL0     H27014  -2.369   5.663   3.974 -1.4212  0.2588  1.4065
  941MOL0     H27015  -2.581   5.705   3.881 -0.1911 -0.8066 -1.9766
  941MOL0     H27016  -2.617   5.611   4.018  0.6488 -0.6530  1.3352
  941MOL0     H27017  -1.787   5.947   4.512  2.1557  0.8432  2.5069
  941MOL0     H27018  -1.545   5.932   4.574  0.2685  3.3656 -4.3177
  941MOL0     H27019  -1.240   5.548   4.488  0.3794  1.5444  0.1120
  941MOL0     H27020  -1.035   5.443   4.497 -1.4932 -1.6359  1.3767
  941MOL0     H27021   0.956   5.632   4.891  0.4136  1.1860  0.8385
  941MOL0     H27022   1.161   5.670   4.813  0.5471  1.2876  0.2874
  941MOL0     H27023   1.417   6.172   4.449 -0.5288 -0.5762 -0.1569
  941MOL0     H27024   1.623   6.182   4.346 -3.4268  0.6693  0.5449
  941MOL0     H27025   1.934   5.859   4.447  1.1008 -0.0570 -0.0696
  941MOL0     H27026   1.864   5.816   4.292 -2.4536  0.8217 -0.3314
  941MOL0     H27027   2.010   5.944   4.170  0.8686 -2.0583 -0.1839
  941MOL0     H27028   2.114   5.868   4.280 -1.9462 -1.2686  1.9303
  941MOL0     H27029   2.027   6.168   4.283 -1.8659 -0.3028  1.4174
  941MOL0     H27030   2.183   6.107   4.256 -2.0147 -0.5028  0.1792
  941MOL0     H27031   2.042   6.073   4.513 -0.6782 -1.2767 -1.4972
  941MOL0     H27032   2.173   6.197   4.484 -1.8522  0.1441  0.4371
  941MOL0     H27033   2.409   5.843   4.518  0.3475  0.0602 -0.3868
  941MOL0     H27034   1.712   5.792   4.481 -0.0835  1.2752 -0.3710
  941MOL0     H27035   1.503   5.790   4.615  0.9165  0.6605  1.6841
  942MOL0     O27036   4.994   6.726   7.278  0.1582 -0.6518 -0.5694
  942MOL0     C27037   4.997   6.678   7.163 -0.8632 -0.4401 -0.3126
  942MOL0     O27038   4.891   6.670   7.077 -0.3354 -0.0496  0.0410
  942MOL0     C27039   4.768   6.631   7.131  0.3289 -0.2232  1.1366
  942MOL0     C27040   4.746   6.582   7.267  0.2733  0.7269  0.6037
  942MOL0     C27041   4.618   6.538   7.308  0.4452 -0.1319  0.4206
  942MOL0     C27042   4.510   6.545   7.212 -0.0594 -0.4310 -0.5321
  942MOL0     O27043   4.384   6.511   7.267  0.5136  0.1065  0.0144
  942MOL0     C27044   4.272   6.504   7.176 -0.5574 -0.1562 -0.0858
  942MOL0     C27045   4.148   6.484   7.258 -0.0682 -0.3406 -1.0024
  942MOL0     C27046   4.122   6.354   7.326  0.2936  0.4973 -0.5250
  942MOL0     C27047   4.142   6.240   7.227  0.1739  0.4229  0.5276
  942MOL0     C27048   4.085   6.100   7.255  0.5907  0.6464 -0.8740
  942MOL0     C27049   4.089   6.055   7.403 -0.9048 -0.4950 -0.3882
  942MOL0     C27050   4.240   6.042   7.442  0.1975  0.6304  0.0544
  942MOL0     C27051   4.263   6.023   7.596 -0.3379 -0.3144  0.7043
  942MOL0     N27052   4.191   5.898   7.628 -0.6647 -0.5001 -0.1108
  942MOL0     C27053   4.246   5.779   7.592  0.0635 -0.4407 -0.0927
  942MOL0     C27054   4.157   5.691   7.635 -0.2710 -0.6883 -0.3073
  942MOL0     C27055   4.165   5.545   7.624  0.1614  0.3671 -0.5658
  942MOL0     C27056   4.250   5.477   7.742  0.3766 -0.6487  0.5061
  942MOL0     C27057   4.198   5.509   7.885 -0.6085 -0.8321  0.4837
  942MOL0     C27058   4.056   5.469   7.915  1.0459 -0.1076 -0.0938
  942MOL0     O27059   4.031   5.324   7.904 -0.0474 -0.0099  0.2040
  942MOL0     C27060   3.903   5.279   7.889  0.2816 -1.0617 -0.6986
  942MOL0     C27061   3.892   5.148   7.869  0.6714 -0.5293 -0.4004
  942MOL0     C27062   3.766   5.084   7.862 -0.3375 -0.1828 -0.3777
  942MOL0     C27063   3.774   4.938   7.822  0.5842 -0.0482 -0.5730
  942MOL0     C27064   3.645   5.151   7.870 -0.4468 -0.6617 -0.1105
  942MOL0     C27065   3.512   5.095   7.866 -0.4921 -0.4980  0.4206
  942MOL0     O27066   3.487   4.990   7.944 -0.4355 -0.8712 -0.4539
  942MOL0     C27067   3.357   4.974   7.982  0.1780  0.3995 -0.0024
  942MOL0     C27068   3.278   5.069   8.042 -0.8727 -0.0079  0.3820
  942MOL0     C27069   3.145   5.055   8.068 -0.6179  0.1300 -0.5100
  942MOL0     C27070   3.073   4.944   8.031 -0.2768  1.0880  0.0598
  942MOL0     O27071   2.940   4.943   8.065  0.2666 -0.1185  0.4057
  942MOL0     C27072   2.854   4.912   7.952 -0.3143  0.1278 -0.2403
  942MOL0     C27073   2.713   4.968   7.981 -0.4657 -0.4648  0.5075
  942MOL0     C27074   2.650   4.890   8.098 -0.2927  0.2193 -0.1566
  942MOL0     C27075   2.510   4.936   8.130  0.2492 -0.5152 -0.5017
  942MOL0     C27076   2.398   4.908   8.028 -0.4742  0.0971 -0.5013
  942MOL0     C27077   2.260   4.946   8.076  0.1438  0.2032 -0.7687
  942MOL0     C27078   2.238   5.096   8.071  0.1904 -0.6478 -0.4100
  942MOL0     C27079   2.126   5.147   8.162  0.0784 -0.3219  0.3104
  942MOL0    Cl27080   1.967   5.071   8.116 -0.1875  0.4020  0.4256
  942MOL0     C27081   3.150   4.847   7.970 -0.0275  0.3725 -0.5451
  942MOL0     C27082   3.285   4.856   7.940  0.0226 -0.2482  0.9447
  942MOL0     O27083   3.442   5.148   7.783  1.2247 -0.4517 -0.3759
  942MOL0     C27084   3.661   5.290   7.882 -0.0817 -0.0326 -0.4697
  942MOL0     C27085   3.789   5.349   7.894 -0.4304  0.2484 -0.5232
  942MOL0     N27086   4.052   5.755   7.703  0.0676  0.0777 -0.4371
  942MOL0     N27087   4.077   5.883   7.696  0.0430  0.3296 -1.1556
  942MOL0     C27088   4.525   6.595   7.080  0.6169  0.1470  0.6740
  942MOL0     C27089   4.651   6.630   7.035 -1.2535  0.0969 -0.7849
  942MOL0     C27090   5.129   6.649   7.108  0.1270 -0.0376 -0.4116
  942MOL0     C27091   5.161   6.658   6.965  1.0281  0.2390 -0.9460
  942MOL0     C27092   5.291   6.638   6.919  0.2667 -0.2565 -0.7380
  942MOL0     C27093   5.387   6.590   7.005  0.6049  0.5774 -0.0560
  942MOL0     O27094   5.512   6.545   6.963 -0.3167 -0.2374 -0.2440
  942MOL0     C27095   5.606   6.490   7.057  0.6232  0.6364  0.0330
  942MOL0     C27096   5.741   6.454   6.991  0.3650  0.1523  0.5408
  942MOL0     C27097   5.813   6.581   6.924  1.0834  0.9899  0.6204
  942MOL0     C27098   5.938   6.619   6.990  0.0089  0.6357 -0.2599
  942MOL0     C27099   5.915   6.690   7.120 -0.8731  0.2322 -0.5877
  942MOL0     C27100   5.901   6.741   7.231 -0.5513 -0.3883  0.1418
  942MOL0     C27101   5.354   6.579   7.144 -0.4899 -0.7768 -0.4741
  942MOL0     C27102   5.235   6.613   7.195  0.3421 -0.3173  0.1138
  942MOL0     H27103   4.819   6.563   7.345  0.6291 -2.3625 -0.3391
  942MOL0     H27104   4.599   6.519   7.413 -2.2950  0.0417  0.0212
  942MOL0     H27105   4.267   6.604   7.132  1.3878  0.8205  1.7077
  942MOL0     H27106   4.287   6.434   7.094 -1.3333 -0.8831  0.3836
  942MOL0     H27107   4.142   6.564   7.332 -1.2008 -0.8160 -0.5654
  942MOL0     H27108   4.073   6.489   7.179  0.4079 -2.2591 -1.6145
  942MOL0     H27109   4.188   6.344   7.413 -0.4060  0.2630 -0.0108
  942MOL0     H27110   4.019   6.341   7.361 -0.1790 -5.3527 -2.9045
  942MOL0     H27111   4.087   6.263   7.136  0.7008 -1.1405 -0.2249
  942MOL0     H27112   4.244   6.218   7.193  0.1031  0.4893  0.2769
  942MOL0     H27113   3.979   6.109   7.230  0.1163  0.7027  1.0400
  942MOL0     H27114   4.136   6.033   7.185  2.3671  1.9573 -0.9148
  942MOL0     H27115   4.030   6.132   7.455 -0.7814  0.4275 -1.5679
  942MOL0     H27116   4.047   5.956   7.424  2.5016 -1.6187  1.9907
  942MOL0     H27117   4.269   5.944   7.402 -3.9240 -0.6106 -0.3765
  942MOL0     H27118   4.299   6.120   7.394  0.7558 -0.0370 -0.3519
  942MOL0     H27119   4.222   6.109   7.650 -1.4060 -0.0425 -0.4691
  942MOL0     H27120   4.370   6.021   7.617 -0.1915 -0.3508 -0.0149
  942MOL0     H27121   4.328   5.750   7.527 -0.6669  2.2770 -2.4283
  942MOL0     H27122   4.064   5.502   7.631 -0.2099  1.4696  3.3818
  942MOL0     H27123   4.221   5.526   7.532  2.4279 -0.6827  0.9274
  942MOL0     H27124   4.353   5.515   7.742  0.8997 -1.8592 -2.0098
  942MOL0     H27125   4.251   5.368   7.737 -2.2118 -0.7496  0.8276
  942MOL0     H27126   4.200   5.617   7.905  0.8639 -0.4127 -1.6229
  942MOL0     H27127   4.260   5.450   7.953  2.0525 -3.1118 -3.5398
  942MOL0     H27128   3.994   5.517   7.838 -0.6253 -5.8180 -2.8603
  942MOL0     H27129   4.035   5.506   8.016 -0.4417  0.1729 -0.4899
  942MOL0     H27130   3.983   5.088   7.868  1.3822  0.1760  3.7483
  942MOL0     H27131   3.676   4.899   7.794  1.0584 -0.0083 -2.4008
  942MOL0     H27132   3.824   4.931   7.725 -0.1729  0.3666 -1.0017
  942MOL0     H27133   3.817   4.873   7.899  0.8889  0.3385 -0.4110
  942MOL0     H27134   3.323   5.162   8.075  2.5001 -1.7221  1.0829
  942MOL0     H27135   3.091   5.133   8.121 -0.6482 -0.5999  0.5681
  942MOL0     H27136   2.898   4.949   7.859  1.2200 -3.2466 -1.0284
  942MOL0     H27137   2.845   4.803   7.949 -0.1252  0.1059 -0.0643
  942MOL0     H27138   2.717   5.076   7.997  0.6628 -0.6149  1.3511
  942MOL0     H27139   2.640   4.950   7.901 -2.0487  0.7139  1.6236
  942MOL0     H27140   2.717   4.906   8.183  1.7621 -0.2851 -1.6119
  942MOL0     H27141   2.660   4.784   8.075  2.1137  0.0401  1.3721
  942MOL0     H27142   2.492   4.890   8.228  4.4606  0.5055  0.9472
  942MOL0     H27143   2.499   5.044   8.145  0.8681 -0.4227 -0.7153
  942MOL0     H27144   2.376   4.801   8.017 -1.5812  0.5143 -3.1754
  942MOL0     H27145   2.419   4.949   7.929  2.5681  3.5283  1.3110
  942MOL0     H27146   2.190   4.906   8.003  0.2633  1.5391 -1.6523
  942MOL0     H27147   2.231   4.909   8.175 -1.4572 -0.7194 -1.5465
  942MOL0     H27148   2.222   5.132   7.969  2.7018  0.2341 -0.5503
  942MOL0     H27149   2.326   5.157   8.094 -1.0635  0.6991  1.0774
  942MOL0     H27150   2.119   5.255   8.148  0.1383 -0.5597 -1.7859
  942MOL0     H27151   2.157   5.136   8.267  0.5174  0.2083  0.2423
  942MOL0     H27152   3.109   4.750   7.946 -0.6695  0.2108  1.0975
  942MOL0     H27153   3.335   4.764   7.911 -0.4554 -0.5856  1.1824
  942MOL0     H27154   3.572   5.348   7.861  0.1580 -0.4558 -3.0330
  942MOL0     H27155   3.797   5.456   7.910 -1.3383  0.1504  0.7250
  942MOL0     H27156   4.443   6.600   7.009  2.5478  2.4865 -1.5861
  942MOL0     H27157   4.658   6.664   6.932 -1.3014 -2.1530 -1.5813
  942MOL0     H27158   5.076   6.678   6.901  2.1363 -1.3380 -3.0027
  942MOL0     H27159   5.308   6.641   6.812 -1.4318  0.7352 -1.0229
  942MOL0     H27160   5.625   6.552   7.146  0.5700  4.2165 -2.2356
  942MOL0     H27161   5.564   6.394   7.088  2.4947 -0.3537 -0.3397
  942MOL0     H27162   5.724   6.377   6.915  0.4434  0.7675 -0.1159
  942MOL0     H27163   5.802   6.400   7.063  1.1516 -0.7037 -0.7360
  942MOL0     H27164   5.750   6.670   6.928  0.7068  0.8355 -1.1155
  942MOL0     H27165   5.837   6.563   6.819  0.3544  0.3858  0.5478
  942MOL0     H27166   5.987   6.692   6.925 -0.2918 -0.2259 -1.5021
  942MOL0     H27167   6.001   6.530   6.998  0.5230  0.9987 -0.2070
  942MOL0     H27168   5.886   6.784   7.328 -1.0258  0.4138 -0.2727
  942MOL0     H27169   5.425   6.541   7.217 -0.9696 -0.5784  0.0981
  942MOL0     H27170   5.226   6.611   7.303  2.9855 -0.3564  0.4030
  943MOL0     O27171   9.961   8.987   5.577  0.1031 -0.0054  0.1247
  943MOL0     C27172  10.043   8.956   5.669  0.1833 -0.1421 -0.9098
  943MOL0     O27173  10.018   8.956   5.803  0.3975 -0.4036 -1.0380
  943MOL0     C27174   9.886   8.971   5.836  0.7370  0.0758 -0.1439
  943MOL0     C27175   9.833   9.096   5.852  0.0438 -0.9919  0.1592
  943MOL0     C27176   9.698   9.107   5.892 -0.7483  0.7102  0.2114
  943MOL0     C27177   9.615   8.999   5.907  0.1937 -0.3660 -0.0343
  943MOL0     O27178   9.478   9.017   5.947  0.1194  0.0734 -0.4022
  943MOL0     C27179   9.385   8.906   5.923  0.1448 -0.0046 -0.5369
  943MOL0     C27180   9.240   8.947   5.965  0.7139  0.4416 -0.4784
  943MOL0     C27181   9.146   8.827   5.949 -0.1106 -0.2784 -0.9149
  943MOL0     C27182   9.005   8.874   5.999 -0.1123  0.3111 -0.3521
  943MOL0     C27183   8.920   8.744   5.990  0.0351 -0.9395 -0.8877
  943MOL0     C27184   8.777   8.787   6.016  0.8651  0.9408  0.4400
  943MOL0     C27185   8.685   8.667   6.034 -0.5084  0.5102 -0.2473
  943MOL0     C27186   8.535   8.704   6.036 -0.5752  0.0234 -0.4967
  943MOL0     N27187   8.456   8.580   6.035 -0.3503  0.0389 -0.8174
  943MOL0     C27188   8.477   8.469   6.113  0.3749  0.8880  0.4514
  943MOL0     C27189   8.378   8.374   6.079 -0.0330  0.0254  0.4646
  943MOL0     C27190   8.385   8.236   6.125  0.2345 -0.0865  0.5642
  943MOL0     C27191   8.297   8.205   6.250  0.2872 -0.0222 -0.8394
  943MOL0     C27192   8.148   8.162   6.215  0.4485  0.0415 -0.2056
  943MOL0     C27193   8.087   8.247   6.099  0.3956 -0.1876 -0.6767
  943MOL0     O27194   7.975   8.179   6.048  0.0257 -0.4741  0.3699
  943MOL0     C27195   7.848   8.200   6.101  0.0554 -0.1534 -0.8904
  943MOL0     C27196   7.826   8.274   6.221 -0.3386 -0.0836  0.2126
  943MOL0     C27197   7.706   8.300   6.286  0.2075  1.0014 -0.1647
  943MOL0     C27198   7.712   8.400   6.395 -0.0670 -0.2117 -0.8026
  943MOL0     C27199   7.595   8.230   6.236 -0.2360 -0.9258  0.5239
  943MOL0     C27200   7.461   8.241   6.302  0.2131  0.6969 -0.6544
  943MOL0     O27201   7.430   8.343   6.385 -0.0056  0.1609  0.2779
  943MOL0     C27202   7.304   8.377   6.434 -0.1662 -0.9780  0.1754
  943MOL0     C27203   7.184   8.317   6.396  0.2973 -0.5826  0.1594
  943MOL0     C27204   7.065   8.357   6.450 -0.3955 -0.1805  0.7008
  943MOL0     C27205   7.067   8.455   6.552  0.0630 -0.0561  0.0090
  943MOL0     O27206   6.963   8.501   6.629 -0.2681 -0.7111  0.0464
  943MOL0     C27207   6.842   8.433   6.635  0.6892  0.5287  0.0822
  943MOL0     C27208   6.767   8.507   6.747 -0.0484 -0.4814  0.2314
  943MOL0     C27209   6.705   8.637   6.686 -0.4041 -0.1492  0.1108
  943MOL0     C27210   6.615   8.710   6.776  0.6259 -0.1484 -0.3179
  943MOL0     C27211   6.561   8.847   6.736  0.0640  0.1763  0.3489
  943MOL0     C27212   6.472   8.836   6.613  0.6104 -0.6056 -0.3849
  943MOL0     C27213   6.398   8.969   6.592 -0.8655 -0.2752  0.2586
  943MOL0     C27214   6.308   8.971   6.466 -0.1203 -0.2797 -0.0234
  943MOL0    Cl27215   6.391   8.926   6.312 -0.1879 -0.0660 -0.3730
  943MOL0     C27216   7.194   8.520   6.586 -0.4304 -0.5876 -0.3477
  943MOL0     C27217   7.310   8.483   6.518 -0.8523  0.2948  0.2903
  943MOL0     O27218   7.384   8.160   6.253 -0.0711 -0.8556  0.1418
  943MOL0     C27219   7.608   8.161   6.117 -0.1983 -0.5926  0.1151
  943MOL0     C27220   7.732   8.150   6.052  0.5559  0.6996  0.2393
  943MOL0     N27221   8.304   8.435   5.981 -0.3509 -0.7242  0.4546
  943MOL0     N27222   8.349   8.557   5.964  0.0770  0.7452 -0.1414
  943MOL0     C27223   9.673   8.876   5.896  0.8865  0.0283 -0.6006
  943MOL0     C27224   9.806   8.857   5.861 -0.8851 -0.3422 -0.1468
  943MOL0     C27225  10.178   8.925   5.631 -0.1083 -0.3069 -0.2930
  943MOL0     C27226  10.284   8.910   5.721 -0.3056 -0.1826  0.2021
  943MOL0     C27227  10.416   8.881   5.693 -0.8084  0.0642 -1.2635
  943MOL0     C27228  10.452   8.862   5.562  0.7536 -0.2430  0.8808
  943MOL0     O27229  10.580   8.829   5.530 -0.1983 -0.3877  0.9123
  943MOL0     C27230  10.617   8.810   5.388 -0.2032 -0.3424 -0.5063
  943MOL0     C27231  10.768   8.809   5.391  0.7382 -0.2235 -0.3181
  943MOL0     C27232  10.841   8.675   5.438 -1.1025 -0.0893 -0.0841
  943MOL0     C27233  10.807   8.612   5.570  0.4186 -0.6931  0.2441
  943MOL0     C27234  10.892   8.657   5.678 -0.4634  0.1104 -0.1071
  943MOL0     C27235  10.981   8.684   5.766  0.7593 -0.1662 -0.0802
  943MOL0     C27236  10.348   8.879   5.467 -0.3249 -0.3295  0.2773
  943MOL0     C27237  10.222   8.897   5.503 -0.3036 -0.2721  0.0438
  943MOL0     H27238   9.900   9.182   5.849 -0.1024 -0.8242  1.3436
  943MOL0     H27239   9.647   9.200   5.914  1.4178  1.8570  0.5721
  943MOL0     H27240   9.379   8.894   5.814 -0.1676  0.3944 -0.5687
  943MOL0     H27241   9.411   8.811   5.970  1.3622  2.5788  4.7682
  943MOL0     H27242   9.239   8.980   6.069 -1.3561  0.7402 -0.5623
  943MOL0     H27243   9.206   9.022   5.893  1.0217 -1.3073 -2.5634
  943MOL0     H27244   9.147   8.801   5.843  2.9622 -0.2557 -0.9697
  943MOL0     H27245   9.188   8.746   6.010  0.5821 -0.3458 -1.4755
  943MOL0     H27246   9.018   8.918   6.099  0.7079  0.0257 -0.3197
  943MOL0     H27247   8.958   8.953   5.940 -2.1746  0.8016  1.7800
  943MOL0     H27248   8.920   8.699   5.890  1.1847  3.1135 -2.9376
  943MOL0     H27249   8.948   8.673   6.068  1.3305  1.5093  1.0108
  943MOL0     H27250   8.773   8.853   6.103  1.1454 -2.0899  2.9572
  943MOL0     H27251   8.737   8.850   5.937 -3.0667  0.1575  1.5822
  943MOL0     H27252   8.714   8.587   5.966  0.2831  0.4991  0.0963
  943MOL0     H27253   8.717   8.636   6.134 -0.4103  0.5470 -0.2666
  943MOL0     H27254   8.513   8.765   5.948  1.5904  0.5285 -0.7502
  943MOL0     H27255   8.523   8.760   6.129 -0.0768 -0.9231  0.1615
  943MOL0     H27256   8.561   8.444   6.177  2.9156 -3.6989 -3.8803
  943MOL0     H27257   8.374   8.165   6.043  3.1443 -0.2467  0.1820
  943MOL0     H27258   8.488   8.223   6.161  0.5991  0.5325 -0.2226
  943MOL0     H27259   8.306   8.292   6.316 -0.6231 -1.5112  1.3773
  943MOL0     H27260   8.344   8.124   6.306 -0.3281 -1.2826 -2.0995
  943MOL0     H27261   8.085   8.186   6.302  0.7673 -1.1812  0.3950
  943MOL0     H27262   8.148   8.057   6.186  0.5354  0.0989 -0.4103
  943MOL0     H27263   8.159   8.250   6.017  1.5453 -1.1272  0.2648
  943MOL0     H27264   8.056   8.348   6.125 -1.3956 -0.9580  0.3500
  943MOL0     H27265   7.910   8.315   6.274  0.0656  3.0528 -2.5265
  943MOL0     H27266   7.812   8.443   6.409  0.4753 -0.7738 -2.6791
  943MOL0     H27267   7.641   8.482   6.383 -0.2782 -0.2552  0.0991
  943MOL0     H27268   7.700   8.343   6.488  2.4222  0.0361 -0.2338
  943MOL0     H27269   7.183   8.235   6.325 -2.5859 -2.0081  1.6593
  943MOL0     H27270   6.978   8.310   6.404 -0.5256  0.4689  0.2795
  943MOL0     H27271   6.790   8.447   6.539 -0.9388  0.8603  0.9626
  943MOL0     H27272   6.861   8.327   6.651  0.4539  0.3755 -0.6124
  943MOL0     H27273   6.682   8.449   6.784  0.3997  0.3569  2.7289
  943MOL0     H27274   6.832   8.516   6.834 -2.1976 -2.1105  2.1256
  943MOL0     H27275   6.645   8.609   6.599 -0.3522  2.9122 -1.0382
  943MOL0     H27276   6.788   8.701   6.653  0.5049 -1.2219  0.2655
  943MOL0     H27277   6.528   8.646   6.788  0.6291 -0.5137 -1.9624
  943MOL0     H27278   6.659   8.704   6.876 -2.6088 -0.3692  1.2156
  943MOL0     H27279   6.650   8.908   6.716 -0.4160  0.5175 -0.8601
  943MOL0     H27280   6.503   8.893   6.816  0.4224  2.7865 -0.7755
  943MOL0     H27281   6.523   8.811   6.519  2.7050 -0.6351  0.7134
  943MOL0     H27282   6.399   8.756   6.623  0.6114 -0.4234  1.2290
  943MOL0     H27283   6.467   9.054   6.595 -0.8412 -0.3278  3.1840
  943MOL0     H27284   6.344   8.983   6.686 -1.9661 -0.5958 -0.3101
  943MOL0     H27285   6.272   9.073   6.458  1.1824  0.1097 -1.3894
  943MOL0     H27286   6.219   8.909   6.481 -2.6673  3.1079 -0.0848
  943MOL0     H27287   7.182   8.590   6.668  0.5627  1.1574 -1.6281
  943MOL0     H27288   7.403   8.533   6.546 -0.5101 -0.5745  0.7323
  943MOL0     H27289   7.524   8.098   6.090  0.9821 -3.4951  2.5920
  943MOL0     H27290   7.736   8.085   5.965  1.0657  2.8977 -1.4656
  943MOL0     H27291   9.613   8.790   5.923  1.5856 -0.4530 -0.5533
  943MOL0     H27292   9.846   8.759   5.839  0.5205  0.2774 -0.4680
  943MOL0     H27293  10.266   8.916   5.828  0.5997  0.0294  0.3463
  943MOL0     H27294  10.492   8.866   5.769  0.8085 -0.1087 -2.8340
  943MOL0     H27295  10.583   8.714   5.347 -1.5513 -0.4620  0.7866
  943MOL0     H27296  10.580   8.887   5.321 -1.0742 -0.2981  0.0071
  943MOL0     H27297  10.790   8.902   5.445  2.8448 -0.7777 -0.1340
  943MOL0     H27298  10.798   8.826   5.287 -2.1477 -1.5564 -1.4887
  943MOL0     H27299  10.948   8.689   5.424 -0.9131 -2.9180 -2.2643
  943MOL0     H27300  10.809   8.606   5.359 -0.8928  1.7753 -1.8537
  943MOL0     H27301  10.819   8.504   5.559 -1.2187 -0.8320 -0.5104
  943MOL0     H27302  10.705   8.643   5.593 -0.1272 -1.1855 -1.4060
  943MOL0     H27303  11.052   8.705   5.843  0.6239  0.8119 -0.2053
  943MOL0     H27304  10.369   8.888   5.361 -0.2114 -0.3396  0.2991
  943MOL0     H27305  10.150   8.901   5.422  1.2030 -1.6517 -1.4630
  944MOL0     O27306   6.157   9.864   0.699 -0.2508  0.0099  1.0654
  944MOL0     C27307   6.149   9.785   0.608 -0.3375  0.0459 -0.2192
  944MOL0     O27308   6.040   9.713   0.572  1.1025  0.0271 -0.1935
  944MOL0     C27309   5.913   9.767   0.594 -1.1821  0.5160  0.4768
  944MOL0     C27310   5.801   9.690   0.619 -0.4384  0.0012  0.7402
  944MOL0     C27311   5.673   9.745   0.617 -0.3794  0.9002  0.5771
  944MOL0     C27312   5.655   9.878   0.592  0.0755 -0.7981 -0.2709
  944MOL0     O27313   5.533   9.933   0.582  0.0809 -0.9475  0.8287
  944MOL0     C27314   5.517  10.067   0.626  1.1615 -0.4505 -0.4303
  944MOL0     C27315   5.388  10.081   0.711 -0.1642  1.1265  0.3307
  944MOL0     C27316   5.277  10.123   0.618  0.1316  0.2064  0.6119
  944MOL0     C27317   5.158  10.164   0.706 -0.0315  0.2956  0.3698
  944MOL0     C27318   5.062  10.054   0.751  0.8034 -0.0870  0.3706
  944MOL0     C27319   4.929  10.115   0.792 -0.5127  1.0633 -0.0526
  944MOL0     C27320   4.804  10.027   0.780  0.5248  0.5060  0.3662
  944MOL0     C27321   4.811   9.887   0.852  0.6538  0.2957  0.1155
  944MOL0     N27322   4.672   9.845   0.849  0.1719  0.2550  0.1846
  944MOL0     C27323   4.599   9.814   0.734  0.5165 -0.6586  0.4718
  944MOL0     C27324   4.470   9.793   0.780 -0.0347 -0.6464 -0.1205
  944MOL0     C27325   4.378   9.716   0.683 -0.8234 -0.8384 -0.3388
  944MOL0     C27326   4.260   9.813   0.629  0.4116 -0.2226 -0.1511
  944MOL0     C27327   4.224   9.920   0.730  0.1380  0.4359 -0.2102
  944MOL0     C27328   4.079   9.964   0.725  0.5433  0.2851  0.2175
  944MOL0     O27329   3.986   9.854   0.762 -0.1297  1.0679 -0.1231
  944MOL0     C27330   3.851   9.887   0.744 -0.5559 -0.4032 -0.0455
  944MOL0     C27331   3.785  10.016   0.742 -0.1572 -0.3414  0.1112
  944MOL0     C27332   3.647  10.023   0.752  0.4789  0.5238  0.3860
  944MOL0     C27333   3.591  10.162   0.743 -0.1131 -0.5271 -0.6806
  944MOL0     C27334   3.563   9.907   0.754 -0.7170  0.0069 -0.4746
  944MOL0     C27335   3.418   9.913   0.775 -0.2111 -0.0876  0.6641
  944MOL0     O27336   3.384   9.987   0.882 -0.2862 -0.0380  0.8131
  944MOL0     C27337   3.261   9.982   0.931  0.1271  0.6361 -0.7194
  944MOL0     C27338   3.159  10.061   0.863 -0.1434 -0.0043 -0.0488
  944MOL0     C27339   3.038  10.082   0.917  1.2008 -0.1534  0.3313
  944MOL0     C27340   3.002  10.018   1.037 -0.1130 -0.1677  0.9313
  944MOL0     O27341   2.875  10.051   1.076  0.4562  0.3364 -0.1002
  944MOL0     C27342   2.796   9.929   1.096 -0.5038 -0.0741  0.7006
  944MOL0     C27343   2.649   9.950   1.111  0.1727 -0.1957 -0.4890
  944MOL0     C27344   2.572   9.819   1.082 -0.1121  0.3686  0.1979
  944MOL0     C27345   2.434   9.827   1.139  0.5837  0.2472  0.6099
  944MOL0     C27346   2.325   9.736   1.071  1.2559 -0.0590  0.0276
  944MOL0     C27347   2.180   9.731   1.141 -0.2283  0.1839 -0.5525
  944MOL0     C27348   2.107   9.867   1.126  0.2510  0.2092 -0.6684
  944MOL0     C27349   1.951   9.853   1.132 -0.2395  0.5724 -0.4282
  944MOL0    Cl27350   1.883   9.800   1.295  0.1001  0.2490 -0.3866
  944MOL0     C27351   3.094   9.929   1.099 -0.1553 -0.6150 -0.5374
  944MOL0     C27352   3.220   9.909   1.042 -0.0857 -0.5212 -0.3157
  944MOL0     O27353   3.340   9.845   0.711 -0.5103  0.2889 -0.2162
  944MOL0     C27354   3.629   9.787   0.740 -0.9003 -0.7493 -1.2481
  944MOL0     C27355   3.767   9.777   0.743  0.5724 -0.3042  0.0000
  944MOL0     N27356   4.466   9.811   0.918  0.2702 -0.3068 -1.3549
  944MOL0     N27357   4.589   9.842   0.957 -1.5549  0.0678 -0.5294
  944MOL0     C27358   5.770   9.958   0.566  0.0887 -0.1013  0.1450
  944MOL0     C27359   5.895   9.903   0.571 -0.3096 -0.4519 -0.0697
  944MOL0     C27360   6.274   9.741   0.535  0.5301 -0.0877  0.0512
  944MOL0     C27361   6.396   9.735   0.592 -0.1162  0.1627  0.1886
  944MOL0     C27362   6.513   9.696   0.511 -0.0809  0.0698 -0.0234
  944MOL0     C27363   6.484   9.650   0.377 -0.1269 -1.0019  0.7752
  944MOL0     O27364   6.577   9.600   0.289  0.2743 -0.1211  0.4687
  944MOL0     C27365   6.712   9.583   0.339 -0.3936  1.0893 -0.0766
  944MOL0     C27366   6.806   9.707   0.340  0.1360 -0.2433  0.0765
  944MOL0     C27367   6.797   9.786   0.214 -0.1911 -0.2474  0.6910
  944MOL0     C27368   6.865   9.925   0.215 -0.4723 -0.0627  0.3859
  944MOL0     C27369   6.867   9.989   0.078 -0.3214  0.1648 -0.1706
  944MOL0     C27370   6.859  10.038  -0.033 -0.9990 -0.6296  0.7053
  944MOL0     C27371   6.356   9.658   0.330 -0.3530  0.2355  0.9582
  944MOL0     C27372   6.253   9.701   0.404  0.2070 -1.3612  0.7537
  944MOL0     H27373   5.817   9.585   0.645  1.9878  0.7173  2.5787
  944MOL0     H27374   5.597   9.672   0.642 -0.7069  1.2235  0.5385
  944MOL0     H27375   5.590  10.085   0.705 -0.9844  1.4228  1.2180
  944MOL0     H27376   5.532  10.143   0.548  0.1585 -1.1261 -1.3185
  944MOL0     H27377   5.359   9.989   0.762 -2.2236  2.0233  0.8803
  944MOL0     H27378   5.415  10.153   0.789  0.3970 -0.8288  2.0160
  944MOL0     H27379   5.304  10.210   0.557  0.5782 -0.7904 -0.6504
  944MOL0     H27380   5.249  10.042   0.550 -1.2102  0.5973  0.6683
  944MOL0     H27381   5.183  10.206   0.804 -2.8606 -1.3493  1.9302
  944MOL0     H27382   5.112  10.237   0.639  2.6989 -0.1377 -2.2105
  944MOL0     H27383   5.044   9.988   0.665  1.3559  0.7095 -0.3674
  944MOL0     H27384   5.103  10.003   0.839  1.5000 -0.5612 -0.2094
  944MOL0     H27385   4.943  10.141   0.898  1.7160  1.9793 -0.5273
  944MOL0     H27386   4.903  10.206   0.738 -2.9359  1.7303  2.0028
  944MOL0     H27387   4.717  10.084   0.815  1.4388  1.1550  1.6637
  944MOL0     H27388   4.782  10.009   0.675  1.1132  1.3883  0.0832
  944MOL0     H27389   4.839   9.905   0.956 -1.4013  0.1838  0.7378
  944MOL0     H27390   4.881   9.816   0.806  0.4236  0.2648 -0.1912
  944MOL0     H27391   4.637   9.799   0.633 -1.5136 -0.9897 -0.3057
  944MOL0     H27392   4.434   9.679   0.597  1.5112 -0.8347  1.1109
  944MOL0     H27393   4.338   9.627   0.733  1.6358 -3.3224 -2.4771
  944MOL0     H27394   4.184   9.738   0.608  0.8509 -0.4484 -0.9774
  944MOL0     H27395   4.281   9.857   0.531 -1.5067  0.3986 -0.3189
  944MOL0     H27396   4.291  10.006   0.727 -0.4286  0.8616 -2.1232
  944MOL0     H27397   4.234   9.870   0.827  2.1647  0.4888 -0.3567
  944MOL0     H27398   4.046   9.994   0.626 -1.5166  1.8285  1.2827
  944MOL0     H27399   4.066  10.042   0.800 -2.8875 -0.3293  0.4367
  944MOL0     H27400   3.854  10.098   0.757  1.5339 -1.6158 -0.4201
  944MOL0     H27401   3.553  10.199   0.839 -1.6850  0.6819 -1.7062
  944MOL0     H27402   3.664  10.235   0.709 -1.6490  2.1761  1.3606
  944MOL0     H27403   3.507  10.150   0.673 -1.1971 -0.6868  0.6013
  944MOL0     H27404   3.192  10.120   0.778  2.0742 -2.7606 -1.2737
  944MOL0     H27405   2.967  10.132   0.852  0.5847 -0.5083  0.7267
  944MOL0     H27406   2.823   9.861   1.015  0.7626  0.4541  0.6534
  944MOL0     H27407   2.833   9.883   1.188 -1.1041  0.9342  1.4722
  944MOL0     H27408   2.622  10.000   1.205 -1.0908  1.8130 -1.8438
  944MOL0     H27409   2.617  10.021   1.035  1.3726  1.2214  0.2839
  944MOL0     H27410   2.621   9.730   1.120  0.7338  1.3576  1.4769
  944MOL0     H27411   2.570   9.818   0.972  1.7875 -0.9815  0.1307
  944MOL0     H27412   2.452   9.788   1.240 -2.4027 -1.2463  0.6912
  944MOL0     H27413   2.392   9.928   1.136 -0.5097 -0.2092 -1.2600
  944MOL0     H27414   2.359   9.632   1.059  0.2565 -0.4597  0.4884
  944MOL0     H27415   2.306   9.777   0.972  0.2104 -0.7163 -0.0655
  944MOL0     H27416   2.131   9.653   1.081  0.3221  0.4893 -1.4229
  944MOL0     H27417   2.196   9.703   1.245 -1.6183 -2.4709 -0.9606
  944MOL0     H27418   2.136   9.919   1.035 -1.1287  2.0721 -0.1212
  944MOL0     H27419   2.145   9.942   1.197  0.2157 -0.8205  0.4712
  944MOL0     H27420   1.920   9.772   1.066 -1.1336 -2.2426  3.1523
  944MOL0     H27421   1.906   9.946   1.095 -2.7397 -0.2989  0.2181
  944MOL0     H27422   3.063   9.865   1.181 -1.6345  2.6319  1.6430
  944MOL0     H27423   3.287   9.832   1.078  0.1099 -0.4070 -0.4315
  944MOL0     H27424   3.573   9.694   0.738  0.2614 -1.5019 -0.2143
  944MOL0     H27425   3.809   9.678   0.753 -1.1973 -0.9874  1.3594
  944MOL0     H27426   5.767  10.064   0.542 -3.1214  0.7240  3.2839
  944MOL0     H27427   5.981   9.965   0.547 -1.3562  1.7465  1.5916
  944MOL0     H27428   6.406   9.768   0.694 -4.7846  1.5279  0.4345
  944MOL0     H27429   6.613   9.689   0.554 -0.2133  0.0392  0.2825
  944MOL0     H27430   6.712   9.539   0.440  2.2667 -0.2592 -0.5679
  944MOL0     H27431   6.765   9.511   0.276 -1.0027  0.7640 -0.2238
  944MOL0     H27432   6.909   9.673   0.336 -0.2148 -1.2191 -1.3152
  944MOL0     H27433   6.793   9.764   0.433 -1.9171 -0.0211 -0.2917
  944MOL0     H27434   6.692   9.803   0.190  0.4861  2.5253 -0.7919
  944MOL0     H27435   6.830   9.729   0.127  0.5994  4.7249 -2.7189
  944MOL0     H27436   6.966   9.929   0.255  0.1465  1.9026 -1.1860
  944MOL0     H27437   6.811   9.983   0.290 -1.0267 -0.3590  0.2281
  944MOL0     H27438   6.871  10.085  -0.129  1.8196  0.0939  1.3079
  944MOL0     H27439   6.343   9.631   0.226  2.7292  0.3919  0.4291
  944MOL0     H27440   6.155   9.714   0.360  0.3210 -1.7205  0.3887
  945MOL0     O27441   1.715   4.836   5.863  0.0274  0.7709  0.0823
  945MOL0     C27442   1.721   4.948   5.908  0.0576  0.0998  0.2557
  945MOL0     O27443   1.614   5.021   5.932  0.2066  0.2283 -0.3231
  945MOL0     C27444   1.480   4.986   5.947  0.1244  0.2809 -0.1878
  945MOL0     C27445   1.437   4.859   5.982  0.1888 -0.2587  0.5993
  945MOL0     C27446   1.306   4.825   5.994  0.3025 -0.6227  0.1400
  945MOL0     C27447   1.208   4.931   5.981  0.0058 -0.2170  0.4359
  945MOL0     O27448   1.076   4.906   6.000 -0.2555 -0.2391 -0.0875
  945MOL0     C27449   1.042   4.803   6.093  0.2477  0.4002  0.6553
  945MOL0     C27450   0.883   4.776   6.096 -1.1075  0.5963  0.3936
  945MOL0     C27451   0.790   4.876   6.157 -0.3971  0.0453  0.1877
  945MOL0     C27452   0.651   4.815   6.185  0.6099  0.2053 -0.8959
  945MOL0     C27453   0.543   4.920   6.173 -0.3744 -0.5312  0.5437
  945MOL0     C27454   0.419   4.860   6.230 -0.1787 -0.3630  0.6923
  945MOL0     C27455   0.307   4.964   6.230 -0.3012 -0.0826 -0.3959
  945MOL0     C27456   0.174   4.883   6.224  0.5695 -0.0396  0.1390
  945MOL0     N27457   0.056   4.971   6.243  0.3203 -0.0507  1.0633
  945MOL0     C27458   0.039   5.061   6.345 -0.1178  0.2015  0.2609
  945MOL0     C27459  -0.083   5.106   6.325  0.4091 -0.3346 -0.4580
  945MOL0     C27460  -0.155   5.215   6.384 -0.1991 -0.1852 -0.2983
  945MOL0     C27461  -0.126   5.221   6.540  0.5479  0.1263  0.3562
  945MOL0     C27462  -0.170   5.101   6.621  0.4626  0.3846 -0.7342
  945MOL0     C27463  -0.098   5.095   6.762  0.7353  0.0704 -0.1486
  945MOL0     O27464  -0.127   4.978   6.830 -0.1930  0.2220  0.6564
  945MOL0     C27465  -0.252   4.958   6.875 -0.7630 -1.1494 -0.0231
  945MOL0     C27466  -0.298   4.828   6.896 -0.4653  0.0213 -0.0027
  945MOL0     C27467  -0.424   4.800   6.946  0.1295 -0.0408 -0.2943
  945MOL0     C27468  -0.461   4.656   6.955  0.0857 -0.1880  0.5908
  945MOL0     C27469  -0.519   4.901   6.964 -0.4102  0.3133 -0.6699
  945MOL0     C27470  -0.656   4.884   7.013 -0.5870  0.2139 -0.5907
  945MOL0     O27471  -0.752   4.982   6.992 -0.3859  0.2842 -0.1904
  945MOL0     C27472  -0.885   4.959   7.012  0.6982  0.5893 -0.6553
  945MOL0     C27473  -0.971   5.073   7.025  0.3800 -0.6888 -0.7716
  945MOL0     C27474  -1.107   5.052   7.046 -0.2562 -0.2226 -0.1075
  945MOL0     C27475  -1.166   4.926   7.042  0.7973 -0.3316  1.2328
  945MOL0     O27476  -1.309   4.917   7.048  0.6388  0.8692 -0.0859
  945MOL0     C27477  -1.365   4.788   7.088 -0.3041  0.0400  0.0412
  945MOL0     C27478  -1.518   4.800   7.099 -0.4104 -0.4625  0.0342
  945MOL0     C27479  -1.578   4.683   7.174 -0.8099  0.0690 -0.2616
  945MOL0     C27480  -1.730   4.686   7.154 -0.3731  0.7992 -0.3905
  945MOL0     C27481  -1.825   4.590   7.239 -0.7365  0.1620  1.4579
  945MOL0     C27482  -1.829   4.646   7.387 -0.3089 -0.2527  0.2985
  945MOL0     C27483  -1.932   4.596   7.479 -0.4335  0.6262  0.8177
  945MOL0     C27484  -1.942   4.654   7.613  0.1114 -0.0489 -0.1207
  945MOL0    Cl27485  -1.786   4.681   7.684 -0.4475 -0.0438 -0.0657
  945MOL0     C27486  -1.085   4.815   7.014  0.6591 -0.9252  0.5926
  945MOL0     C27487  -0.942   4.832   7.018  0.2530  0.8913 -0.5694
  945MOL0     O27488  -0.659   4.807   7.106  0.0820  0.0214  0.3235
  945MOL0     C27489  -0.474   5.029   6.940 -0.1834 -0.4542 -0.7785
  945MOL0     C27490  -0.346   5.060   6.893 -0.6156 -0.9246 -0.7733
  945MOL0     N27491  -0.142   5.050   6.217  0.1093  0.3788 -0.0105
  945MOL0     N27492  -0.059   4.966   6.166 -0.2116 -0.4873 -0.5144
  945MOL0     C27493   1.251   5.059   5.947 -0.5115 -0.7128 -0.6992
  945MOL0     C27494   1.386   5.083   5.932  0.8259 -0.0652 -0.2636
  945MOL0     C27495   1.851   5.006   5.930  0.7558 -0.5952 -0.3607
  945MOL0     C27496   1.959   4.929   5.936 -0.4342  0.0401  0.1831
  945MOL0     C27497   2.095   4.976   5.955  0.1967  0.6138 -0.2308
  945MOL0     C27498   2.122   5.115   5.952  0.4671  0.0510 -0.3149
  945MOL0     O27499   2.243   5.156   5.953 -0.3482  0.0498  0.0434
  945MOL0     C27500   2.268   5.293   5.964  0.5309 -0.2243  0.8586
  945MOL0     C27501   2.409   5.332   6.023  0.1188  0.3364 -0.2693
  945MOL0     C27502   2.519   5.328   5.918  0.1755 -0.3801  0.2348
  945MOL0     C27503   2.660   5.301   5.973 -0.6764  0.2317  0.1976
  945MOL0     C27504   2.768   5.277   5.867  1.0610 -0.0211 -0.1109
  945MOL0     C27505   2.845   5.259   5.779  0.3575  0.3639  0.1710
  945MOL0     C27506   2.003   5.204   5.946  0.6842 -0.1158  0.1922
  945MOL0     C27507   1.873   5.145   5.942 -0.4404 -0.2520  0.0037
  945MOL0     H27508   1.516   4.787   6.004  1.0336  0.4244 -0.1265
  945MOL0     H27509   1.277   4.727   6.032 -4.5156 -0.3861 -2.1158
  945MOL0     H27510   1.069   4.700   6.067  1.6012  1.0418 -0.6102
  945MOL0     H27511   1.081   4.828   6.192 -2.2634 -1.5637  2.2584
  945MOL0     H27512   0.849   4.760   5.993  3.1115  0.9566 -1.2646
  945MOL0     H27513   0.870   4.694   6.168  0.2523  0.5051  0.5598
  945MOL0     H27514   0.833   4.925   6.245 -1.0077  0.1673  0.4288
  945MOL0     H27515   0.769   4.960   6.091 -0.7775 -0.7201 -0.6768
  945MOL0     H27516   0.629   4.726   6.126  4.3194 -0.5470 -1.4397
  945MOL0     H27517   0.666   4.789   6.290  1.1159 -0.0490 -1.0283
  945MOL0     H27518   0.571   5.017   6.215 -2.8776  1.0782 -1.2185
  945MOL0     H27519   0.534   4.953   6.069 -0.1878  0.7792  0.9275
  945MOL0     H27520   0.400   4.783   6.154  2.5572 -0.5771  0.1509
  945MOL0     H27521   0.441   4.825   6.331  0.8741  0.2230  0.6718
  945MOL0     H27522   0.327   5.022   6.320  1.8914  0.2868 -1.0706
  945MOL0     H27523   0.315   5.032   6.145  0.1548  0.4012  0.0297
  945MOL0     H27524   0.177   4.803   6.298  0.9940 -1.1029 -1.0007
  945MOL0     H27525   0.171   4.832   6.128  0.3270 -1.5410  0.9133
  945MOL0     H27526   0.117   5.094   6.413 -0.8899  0.0111  1.2760
  945MOL0     H27527  -0.124   5.306   6.331 -1.8076 -0.3363 -1.5556
  945MOL0     H27528  -0.262   5.213   6.363  0.1490  0.9399 -2.3911
  945MOL0     H27529  -0.173   5.315   6.570  1.7851  1.0847 -0.5800
  945MOL0     H27530  -0.019   5.233   6.558  0.1540  1.0402  2.3903
  945MOL0     H27531  -0.138   5.012   6.566  0.9518 -0.4931  0.9028
  945MOL0     H27532  -0.278   5.107   6.635  0.7740 -1.3278  4.6473
  945MOL0     H27533  -0.126   5.179   6.827  2.5582  0.3512  0.3329
  945MOL0     H27534   0.009   5.110   6.743  0.8333 -0.5306 -0.0833
  945MOL0     H27535  -0.220   4.756   6.871  3.8327  4.5928 -1.4378
  945MOL0     H27536  -0.566   4.638   6.930  0.4732 -1.6719 -0.1135
  945MOL0     H27537  -0.393   4.584   6.908  0.8462  1.7760 -1.4681
  945MOL0     H27538  -0.454   4.631   7.062  0.5389  1.1214  0.8780
  945MOL0     H27539  -0.929   5.173   7.015  0.8860 -1.1240 -3.6066
  945MOL0     H27540  -1.166   5.141   7.066 -0.0573 -0.1693  0.2541
  945MOL0     H27541  -1.333   4.700   7.032 -0.7795  0.3257 -0.6838
  945MOL0     H27542  -1.320   4.778   7.188  1.9340 -0.4838 -0.9644
  945MOL0     H27543  -1.544   4.886   7.162  0.0748 -0.0259 -0.3530
  945MOL0     H27544  -1.557   4.797   6.997  5.0934 -1.0496 -2.3799
  945MOL0     H27545  -1.552   4.711   7.276  0.6113  1.1696 -0.8886
  945MOL0     H27546  -1.524   4.593   7.144  1.3268  0.1716  2.8335
  945MOL0     H27547  -1.769   4.787   7.162 -1.5070  0.2847  0.9711
  945MOL0     H27548  -1.734   4.654   7.049  2.0339 -1.7107  0.1725
  945MOL0     H27549  -1.783   4.489   7.242 -0.1222  0.3250 -0.3983
  945MOL0     H27550  -1.920   4.581   7.187 -0.3740  3.1179  0.0390
  945MOL0     H27551  -1.728   4.634   7.428  0.4013 -0.7321 -1.4849
  945MOL0     H27552  -1.828   4.755   7.381  0.1711 -0.3115 -1.9214
  945MOL0     H27553  -1.915   4.488   7.491 -2.3283  0.2505  0.5897
  945MOL0     H27554  -2.035   4.586   7.443 -0.2680 -2.7078  0.9607
  945MOL0     H27555  -2.008   4.593   7.676  0.3829 -0.0614  0.1481
  945MOL0     H27556  -1.998   4.748   7.602 -0.4424 -0.4474 -0.8531
  945MOL0     H27557  -1.120   4.716   6.986  1.3363 -0.5821 -1.6381
  945MOL0     H27558  -0.884   4.742   7.002 -0.2577  0.2580  0.9682
  945MOL0     H27559  -0.541   5.111   6.960  1.6738  0.6687  1.3310
  945MOL0     H27560  -0.328   5.164   6.869  0.6048 -1.1960 -1.1026
  945MOL0     H27561   1.182   5.142   5.958  0.3342 -0.2409  1.4556
  945MOL0     H27562   1.415   5.179   5.891 -1.4189  0.4531 -0.7736
  945MOL0     H27563   1.947   4.822   5.922  0.5203 -0.0431 -0.1062
  945MOL0     H27564   2.177   4.906   5.947  1.6133  2.3543 -1.7411
  945MOL0     H27565   2.240   5.345   5.872  0.7220  0.5382  1.2230
  945MOL0     H27566   2.203   5.345   6.035  1.1218  0.2303  1.0783
  945MOL0     H27567   2.432   5.270   6.110 -1.1377  2.9911  2.1341
  945MOL0     H27568   2.387   5.433   6.059 -2.7549 -0.4961  0.5827
  945MOL0     H27569   2.523   5.421   5.860  0.0777 -0.6775 -0.2538
  945MOL0     H27570   2.498   5.247   5.847 -0.1747 -2.2522  2.3607
  945MOL0     H27571   2.651   5.218   6.043  0.8718 -0.6644 -0.6294
  945MOL0     H27572   2.696   5.385   6.034  1.0110  0.4587 -1.0758
  945MOL0     H27573   2.904   5.234   5.694 -0.6315  0.1814 -0.4878
  945MOL0     H27574   2.006   5.312   5.947 -2.0423  0.0167 -0.0737
  945MOL0     H27575   1.777   5.196   5.934  0.8034  1.8151 -4.7974
  946MOL0     O27576   6.914   5.863   1.000 -0.1377  0.0006  0.0987
  946MOL0     C27577   6.953   5.744   1.009  0.3442  0.9552  0.6279
  946MOL0     O27578   6.877   5.633   1.026  0.0473 -0.6912  0.0524
  946MOL0     C27579   6.746   5.640   1.020  0.2350 -0.2312  0.3812
  946MOL0     C27580   6.673   5.586   0.920 -0.1318  0.6079 -1.2362
  946MOL0     C27581   6.532   5.567   0.933 -0.2670 -0.1404 -0.1366
  946MOL0     C27582   6.474   5.610   1.053  0.0404 -0.4993 -1.3364
  946MOL0     O27583   6.339   5.579   1.069 -0.0639 -0.4024 -0.3986
  946MOL0     C27584   6.301   5.553   1.209 -0.3808  0.5075  0.0614
  946MOL0     C27585   6.161   5.515   1.225  0.0812  0.4674  0.7760
  946MOL0     C27586   6.070   5.635   1.206 -0.1818  0.1700  0.1967
  946MOL0     C27587   5.918   5.605   1.176 -0.4298 -0.8714  0.4012
  946MOL0     C27588   5.856   5.535   1.283  0.9492 -0.8456  0.3558
  946MOL0     C27589   5.701   5.545   1.268  0.3054 -0.4382 -0.1345
  946MOL0     C27590   5.624   5.428   1.338  0.3965  0.5198 -0.3327
  946MOL0     C27591   5.475   5.455   1.328  0.2494 -0.7624  0.7933
  946MOL0     N27592   5.421   5.475   1.186 -0.8337 -0.4536 -0.2178
  946MOL0     C27593   5.378   5.381   1.094  0.3510  0.0267 -1.1998
  946MOL0     C27594   5.324   5.461   0.999 -0.0279  0.4107  0.4295
  946MOL0     C27595   5.264   5.406   0.878 -0.0442 -0.7672 -0.0126
  946MOL0     C27596   5.121   5.444   0.863  0.3745 -0.1802 -0.6732
  946MOL0     C27597   5.035   5.375   0.978  0.1804 -0.2181  0.3494
  946MOL0     C27598   4.884   5.342   0.926 -1.0972 -0.4143  0.1973
  946MOL0     O27599   4.892   5.257   0.805  0.3916 -0.5792 -0.9900
  946MOL0     C27600   4.776   5.207   0.752  0.2201  0.3820  0.4288
  946MOL0     C27601   4.647   5.223   0.802 -0.0394  0.6019  0.1031
  946MOL0     C27602   4.531   5.156   0.740 -0.1586  0.4323 -0.7708
  946MOL0     C27603   4.401   5.181   0.805 -0.1120  0.4355 -0.2795
  946MOL0     C27604   4.550   5.077   0.630  0.3316  0.1955  0.0985
  946MOL0     C27605   4.448   5.001   0.548 -0.3400  0.5456  0.6775
  946MOL0     O27606   4.492   4.961   0.426  0.6817  0.1222  0.4298
  946MOL0     C27607   4.425   4.875   0.344 -0.7115 -0.0955  0.8229
  946MOL0     C27608   4.298   4.819   0.365  0.1016 -0.7156  0.0327
  946MOL0     C27609   4.234   4.750   0.264  0.0842  0.2670 -0.1902
  946MOL0     C27610   4.307   4.713   0.144  0.0303 -0.8786 -0.0735
  946MOL0     O27611   4.250   4.637   0.043  0.0989  0.3040 -0.1719
  946MOL0     C27612   4.177   4.520   0.078 -0.8422 -0.1053 -0.0180
  946MOL0     C27613   4.027   4.542   0.035 -0.2859 -0.7263  0.9246
  946MOL0     C27614   3.960   4.412   0.033  0.6404  0.0443 -1.2851
  946MOL0     C27615   3.812   4.429  -0.016  0.5394  0.1515 -0.1673
  946MOL0     C27616   3.730   4.297   0.006  0.3633  0.3407 -0.0788
  946MOL0     C27617   3.583   4.311  -0.039 -0.4124 -0.0276  0.6993
  946MOL0     C27618   3.495   4.204   0.013 -0.7429  0.3243  0.2877
  946MOL0     C27619   3.357   4.219  -0.051 -0.3774 -0.0464  0.2399
  946MOL0    Cl27620   3.242   4.087  -0.040 -0.1058  0.1632  0.1549
  946MOL0     C27621   4.435   4.776   0.116  0.6849  0.2621 -0.5555
  946MOL0     C27622   4.484   4.859   0.217  0.0548  0.4489  0.3284
  946MOL0     O27623   4.333   4.987   0.588 -0.0539  0.2381 -0.3570
  946MOL0     C27624   4.685   5.072   0.585  0.5749 -0.0905  1.4810
  946MOL0     C27625   4.794   5.131   0.638 -0.5845  0.3837 -1.0823
  946MOL0     N27626   5.333   5.596   1.032  0.2569 -0.1001  0.0300
  946MOL0     N27627   5.392   5.598   1.139  0.7657  0.1918 -0.5817
  946MOL0     C27628   6.554   5.669   1.153  0.5364 -0.1484 -0.1327
  946MOL0     C27629   6.690   5.687   1.137  0.2320  0.0489  0.1190
  946MOL0     C27630   7.102   5.712   1.012  0.1571 -0.3993 -0.1803
  946MOL0     C27631   7.200   5.805   0.991 -0.6059  0.2350 -0.4648
  946MOL0     C27632   7.329   5.773   0.948 -0.7711  0.1057 -0.9274
  946MOL0     C27633   7.371   5.638   0.953  0.1814 -0.5118  1.0650
  946MOL0     O27634   7.504   5.598   0.931  0.6239 -0.0688  0.3893
  946MOL0     C27635   7.599   5.701   0.963  0.8494  0.2943 -0.6119
  946MOL0     C27636   7.741   5.643   0.970 -0.0354  0.4589  0.3614
  946MOL0     C27637   7.799   5.631   0.830  0.1874 -0.2304  0.2199
  946MOL0     C27638   7.940   5.585   0.828  0.4155 -0.6671 -0.1923
  946MOL0     C27639   8.031   5.667   0.910  0.6389 -0.3531 -0.6828
  946MOL0     C27640   8.118   5.719   0.980 -0.2078 -0.0409 -0.4742
  946MOL0     C27641   7.278   5.539   0.984 -0.0923 -0.7074 -0.3014
  946MOL0     C27642   7.141   5.577   1.011  0.1192  0.1204 -1.2111
  946MOL0     H27643   6.725   5.540   0.836 -0.2766  1.5742 -1.8701
  946MOL0     H27644   6.478   5.506   0.861 -2.6233 -0.0268  1.3990
  946MOL0     H27645   6.356   5.465   1.244 -0.0811  0.9317  0.6578
  946MOL0     H27646   6.321   5.635   1.278  2.2279 -0.0687  0.0974
  946MOL0     H27647   6.144   5.438   1.149  1.0791  1.4107 -0.4389
  946MOL0     H27648   6.137   5.483   1.327  0.0811 -2.0561  0.0424
  946MOL0     H27649   6.076   5.709   1.286  0.7266  0.9108 -0.5316
  946MOL0     H27650   6.106   5.688   1.117 -0.8139 -2.4085 -1.7155
  946MOL0     H27651   5.871   5.704   1.176  1.5364  0.1166  1.6881
  946MOL0     H27652   5.896   5.550   1.084  2.1106 -2.9991  0.9636
  946MOL0     H27653   5.892   5.431   1.285  0.8987 -0.8521  1.7900
  946MOL0     H27654   5.888   5.584   1.375 -1.2652 -1.8800  1.7564
  946MOL0     H27655   5.673   5.642   1.308 -0.3352  0.0026 -1.5870
  946MOL0     H27656   5.674   5.551   1.162  2.1838 -3.3550 -0.8909
  946MOL0     H27657   5.658   5.335   1.291  0.0307  0.2601 -0.0867
  946MOL0     H27658   5.647   5.417   1.445  0.4706  2.4110 -0.1326
  946MOL0     H27659   5.466   5.538   1.398 -1.1382 -0.2194  0.0037
  946MOL0     H27660   5.414   5.374   1.370 -0.7583  0.1016  1.0312
  946MOL0     H27661   5.382   5.273   1.093 -0.4339 -0.0453  0.3466
  946MOL0     H27662   5.334   5.443   0.802 -0.4030 -0.2543 -0.0942
  946MOL0     H27663   5.272   5.297   0.882 -1.1709 -0.8666 -0.2585
  946MOL0     H27664   5.083   5.404   0.769 -0.5326  1.2181 -0.9331
  946MOL0     H27665   5.105   5.552   0.870  4.0294  0.4211  3.9817
  946MOL0     H27666   5.038   5.435   1.070 -0.3802 -0.7724  0.7385
  946MOL0     H27667   5.072   5.278   1.014 -0.8007 -0.7212  0.0328
  946MOL0     H27668   4.831   5.438   0.913  0.1688  0.2697 -0.0472
  946MOL0     H27669   4.831   5.288   1.005  0.5170 -1.9064  0.3137
  946MOL0     H27670   4.631   5.277   0.895 -1.6108  0.5663 -0.1279
  946MOL0     H27671   4.333   5.228   0.733 -0.4746 -1.5607 -1.3116
  946MOL0     H27672   4.352   5.096   0.854  0.9973  0.9076  1.7705
  946MOL0     H27673   4.414   5.254   0.885  0.8826 -1.4022  1.3193
  946MOL0     H27674   4.229   4.831   0.447 -1.6464  1.6463 -1.6691
  946MOL0     H27675   4.137   4.703   0.278 -0.1927 -0.4081 -3.6707
  946MOL0     H27676   4.236   4.444   0.027 -0.9958 -0.2603  0.0351
  946MOL0     H27677   4.187   4.490   0.183  5.5813 -0.1711 -0.2928
  946MOL0     H27678   3.972   4.613   0.097 -1.6355  0.3962 -1.4309
  946MOL0     H27679   4.041   4.591  -0.062  1.4690  1.0977  2.0245
  946MOL0     H27680   3.960   4.368   0.133 -3.6066 -0.2949 -1.2647
  946MOL0     H27681   4.022   4.343  -0.025  0.6393 -2.2701  1.2415
  946MOL0     H27682   3.760   4.501   0.047  0.1805 -1.2318  1.1823
  946MOL0     H27683   3.817   4.474  -0.116  0.8094  4.9309  1.7447
  946MOL0     H27684   3.726   4.278   0.113  0.1708  1.7156  0.1673
  946MOL0     H27685   3.768   4.213  -0.053 -0.2305 -0.7077  0.9966
  946MOL0     H27686   3.548   4.403   0.009  3.0951  1.0718  1.3902
  946MOL0     H27687   3.592   4.324  -0.147  0.2766  1.6995  0.9278
  946MOL0     H27688   3.500   4.203   0.122  1.2685 -0.6258  0.2432
  946MOL0     H27689   3.543   4.111  -0.020  0.7588  0.8557  0.8405
  946MOL0     H27690   3.376   4.227  -0.159 -1.0020  0.8067  0.1853
  946MOL0     H27691   3.311   4.314  -0.025  1.5762  1.0373 -0.1029
  946MOL0     H27692   4.473   4.759   0.016  2.1246 -3.7117  0.4713
  946MOL0     H27693   4.576   4.914   0.198  1.2965 -0.4885  3.0158
  946MOL0     H27694   4.710   5.017   0.495  0.9549  1.5391  0.5538
  946MOL0     H27695   4.895   5.124   0.601 -0.1966  1.0110 -0.1799
  946MOL0     H27696   6.508   5.695   1.248 -0.0184 -1.0464 -0.1384
  946MOL0     H27697   6.757   5.737   1.206  0.5994  2.4180 -1.7920
  946MOL0     H27698   7.168   5.908   0.982 -1.0386 -0.0835 -4.1625
  946MOL0     H27699   7.396   5.855   0.922  0.4801 -1.0578 -1.4943
  946MOL0     H27700   7.603   5.775   0.883  3.3884  0.9277  0.0191
  946MOL0     H27701   7.585   5.766   1.050  0.1479  0.4036 -0.7970
  946MOL0     H27702   7.736   5.547   1.022  2.7017 -1.6163 -2.8135
  946MOL0     H27703   7.803   5.712   1.027  1.5637  0.5698 -1.4483
  946MOL0     H27704   7.790   5.727   0.779  3.3166  0.5746  0.9989
  946MOL0     H27705   7.740   5.555   0.778 -3.3006  0.4625  2.7809
  946MOL0     H27706   7.976   5.607   0.727 -2.1684  1.8089 -0.6971
  946MOL0     H27707   7.954   5.480   0.855  1.1746 -0.4047  0.4959
  946MOL0     H27708   8.198   5.772   1.028  0.9150 -1.7317 -0.4135
  946MOL0     H27709   7.305   5.435   0.973  3.0005  0.0127 -0.5652
  946MOL0     H27710   7.073   5.496   1.032  1.1247 -0.4986 -0.2906
  947MOL0     O27711   5.886   0.505   2.481  0.3161  0.4284  0.0923
  947MOL0     C27712   5.889   0.609   2.414  0.5305  0.0272  0.1055
  947MOL0     O27713   5.790   0.705   2.410  0.6640 -0.1193  0.2542
  947MOL0     C27714   5.681   0.678   2.488 -0.2446 -0.0268 -0.0999
  947MOL0     C27715   5.664   0.742   2.616  0.8457 -0.2342  0.4477
  947MOL0     C27716   5.543   0.710   2.689 -0.4635 -0.0423 -0.0266
  947MOL0     C27717   5.454   0.618   2.642 -0.5996  0.9633  0.0010
  947MOL0     O27718   5.338   0.584   2.704 -0.0569  0.0089 -0.1108
  947MOL0     C27719   5.315   0.603   2.843 -0.6686 -0.1948 -0.3128
  947MOL0     C27720   5.179   0.546   2.873  0.3009 -0.1574 -0.3038
  947MOL0     C27721   5.164   0.499   3.018  0.0622  0.3102  0.0485
  947MOL0     C27722   5.028   0.427   3.045  0.4496  0.3475 -0.2966
  947MOL0     C27723   4.924   0.540   3.050  0.2871  0.0916 -0.6252
  947MOL0     C27724   4.791   0.479   3.089  1.3056 -1.9313 -0.5736
  947MOL0     C27725   4.693   0.598   3.113 -0.1908 -0.0878  0.0873
  947MOL0     C27726   4.550   0.535   3.145 -0.5780 -0.5061  0.5776
  947MOL0     N27727   4.466   0.656   3.158 -0.3917  0.6798 -0.1003
  947MOL0     C27728   4.388   0.709   3.057  0.0448  0.1749 -0.0544
  947MOL0     C27729   4.315   0.801   3.118 -0.1468 -0.4511 -0.2354
  947MOL0     C27730   4.222   0.898   3.050 -0.2787 -0.7164 -0.2059
  947MOL0     C27731   4.079   0.855   3.075  0.5861 -0.4979 -0.6522
  947MOL0     C27732   4.050   0.705   3.051  0.5002  0.3933  0.3339
  947MOL0     C27733   3.909   0.665   3.087  0.3992  0.4400  0.6698
  947MOL0     O27734   3.806   0.730   3.007 -0.1270  0.2267 -0.4291
  947MOL0     C27735   3.685   0.682   2.984  0.2825 -0.0163  0.3381
  947MOL0     C27736   3.654   0.547   2.982 -0.5499  0.0041  0.7748
  947MOL0     C27737   3.518   0.512   2.950 -0.1116 -0.6397  0.1590
  947MOL0     C27738   3.487   0.365   2.937 -0.6132  0.4298  0.2117
  947MOL0     C27739   3.418   0.613   2.928 -0.7177 -0.1395  0.6215
  947MOL0     C27740   3.278   0.587   2.898  0.8493  0.4926  1.0822
  947MOL0     O27741   3.215   0.673   2.810  0.0482  0.1290 -0.0288
  947MOL0     C27742   3.077   0.672   2.806 -0.1014  0.7489 -0.5829
  947MOL0     C27743   2.995   0.668   2.921 -0.6541 -0.0748 -0.2520
  947MOL0     C27744   2.851   0.679   2.899 -0.6053  0.2155 -0.2421
  947MOL0     C27745   2.793   0.669   2.768  0.5691  0.2775  0.5832
  947MOL0     O27746   2.657   0.656   2.736  0.4404 -0.0906 -0.4777
  947MOL0     C27747   2.561   0.721   2.815  0.0465  0.3545 -0.2046
  947MOL0     C27748   2.442   0.759   2.727  0.1416  0.4269 -0.6115
  947MOL0     C27749   2.344   0.847   2.802  0.9585  0.0628  0.6220
  947MOL0     C27750   2.242   0.919   2.716 -0.4175  0.1341 -0.8633
  947MOL0     C27751   2.141   0.989   2.814 -0.0015  0.0548 -0.8255
  947MOL0     C27752   2.040   1.077   2.739  0.3732  0.6336 -0.0496
  947MOL0     C27753   1.964   1.001   2.623 -0.3455  0.7626 -0.8595
  947MOL0     C27754   1.831   1.066   2.593 -0.8655 -0.1589 -0.1386
  947MOL0    Cl27755   1.727   1.058   2.745  0.4370 -0.3917 -0.1856
  947MOL0     C27756   2.879   0.678   2.662 -0.8709 -0.3746 -0.5888
  947MOL0     C27757   3.019   0.683   2.686 -0.9909 -0.1810  0.1890
  947MOL0     O27758   3.229   0.490   2.951 -0.2571 -0.4339  0.2713
  947MOL0     C27759   3.454   0.750   2.954 -0.2923 -0.7311 -0.2536
  947MOL0     C27760   3.586   0.785   2.975 -0.8218  0.4400 -0.2414
  947MOL0     N27761   4.362   0.820   3.254  0.5099 -0.3233  0.1090
  947MOL0     N27762   4.444   0.720   3.271 -0.5238  0.4958  0.6741
  947MOL0     C27763   5.475   0.557   2.520  0.0579 -0.4972  0.5460
  947MOL0     C27764   5.588   0.585   2.444  0.4300  0.6716  0.1884
  947MOL0     C27765   6.012   0.622   2.336 -0.1152  0.3401  0.0375
  947MOL0     C27766   6.055   0.749   2.298  0.1891  1.5629  0.0785
  947MOL0     C27767   6.177   0.771   2.242  0.4908  0.6480 -0.1386
  947MOL0     C27768   6.266   0.667   2.229  0.2922 -0.6562 -0.0788
  947MOL0     O27769   6.387   0.705   2.192 -0.0567 -0.1502 -0.3275
  947MOL0     C27770   6.495   0.620   2.234 -0.1132 -0.0941  0.0340
  947MOL0     C27771   6.609   0.709   2.288 -1.0173 -0.6187  0.3067
  947MOL0     C27772   6.585   0.791   2.410  0.6954 -0.5053  0.4314
  947MOL0     C27773   6.560   0.702   2.529 -0.0833 -1.0833 -0.7600
  947MOL0     C27774   6.534   0.789   2.644 -0.0659  0.1558  0.1976
  947MOL0     C27775   6.519   0.861   2.740 -1.0793 -0.3121  0.9410
  947MOL0     C27776   6.227   0.536   2.257 -0.2241  0.4988  0.9971
  947MOL0     C27777   6.103   0.518   2.319  0.2004  0.2471  0.2698
  947MOL0     H27778   5.742   0.811   2.645 -0.1521  2.0370 -1.8236
  947MOL0     H27779   5.523   0.767   2.780  1.7216  2.6920 -1.0914
  947MOL0     H27780   5.399   0.559   2.896 -0.1053 -0.9864 -1.7916
  947MOL0     H27781   5.326   0.709   2.866  0.7488 -0.5563  0.7749
  947MOL0     H27782   5.109   0.627   2.850  1.5251  1.1107  0.2391
  947MOL0     H27783   5.160   0.460   2.809 -2.8261 -0.8468  1.3264
  947MOL0     H27784   5.244   0.429   3.042 -0.9568 -0.8739  0.1470
  947MOL0     H27785   5.180   0.585   3.082  0.5978 -0.0490  0.4053
  947MOL0     H27786   5.001   0.356   2.966 -1.1110  0.9771 -0.3725
  947MOL0     H27787   5.031   0.378   3.142 -0.1667 -1.3695 -1.1048
  947MOL0     H27788   4.957   0.603   3.133  2.2376 -2.0873  0.3895
  947MOL0     H27789   4.905   0.592   2.957  0.5116 -0.5502 -1.0376
  947MOL0     H27790   4.748   0.413   3.012  0.6961 -1.1710 -0.9041
  947MOL0     H27791   4.801   0.415   3.177  0.0285 -2.0526 -0.4988
  947MOL0     H27792   4.715   0.664   3.198  1.0290 -1.4125  0.8329
  947MOL0     H27793   4.687   0.667   3.028 -1.5166  2.6381  2.2147
  947MOL0     H27794   4.547   0.476   3.237 -2.0914 -1.4509 -0.0337
  947MOL0     H27795   4.518   0.479   3.057  0.1625  2.1250 -1.5105
  947MOL0     H27796   4.378   0.686   2.952 -0.2951  2.8041 -0.6731
  947MOL0     H27797   4.243   0.997   3.092  2.3768 -2.4528  2.9667
  947MOL0     H27798   4.235   0.900   2.941  0.6275  0.1669 -0.0991
  947MOL0     H27799   4.016   0.919   3.013 -1.5853 -1.0431  0.8618
  947MOL0     H27800   4.053   0.898   3.172  0.2086  0.3252 -1.1108
  947MOL0     H27801   4.116   0.644   3.114  1.8854  1.3919 -0.1143
  947MOL0     H27802   4.083   0.682   2.949 -0.4083 -2.1438  0.5413
  947MOL0     H27803   3.889   0.671   3.195 -2.1126 -1.5709  0.4132
  947MOL0     H27804   3.909   0.557   3.074 -0.5376  0.1009  2.9480
  947MOL0     H27805   3.744   0.487   2.991  1.1289  1.8624 -1.9840
  947MOL0     H27806   3.574   0.307   2.902  0.6502  3.0320 -1.2527
  947MOL0     H27807   3.458   0.333   3.038  0.8441  2.9999  1.5462
  947MOL0     H27808   3.411   0.334   2.865 -0.1405 -1.9121  0.6445
  947MOL0     H27809   3.041   0.656   3.018 -0.5118  0.9797 -0.1780
  947MOL0     H27810   2.788   0.691   2.987  1.1079 -2.0408  1.4160
  947MOL0     H27811   2.534   0.646   2.890 -0.6809  0.6034 -0.2097
  947MOL0     H27812   2.603   0.809   2.864  1.0625  0.5161 -1.3275
  947MOL0     H27813   2.472   0.809   2.634 -2.5168  0.9893 -1.2538
  947MOL0     H27814   2.397   0.664   2.696  0.4836  0.8067 -2.3586
  947MOL0     H27815   2.398   0.930   2.849  1.2751  0.2229 -0.0233
  947MOL0     H27816   2.283   0.789   2.872 -0.0037 -0.8897 -0.9513
  947MOL0     H27817   2.299   0.996   2.663  0.8259 -1.2049 -1.5417
  947MOL0     H27818   2.196   0.851   2.644 -0.6238 -1.7653  0.9646
  947MOL0     H27819   2.194   1.060   2.877  1.3802 -1.6557  0.0105
  947MOL0     H27820   2.091   0.913   2.875 -0.9048  1.2389 -0.0435
  947MOL0     H27821   1.968   1.109   2.815 -0.3250  0.0756 -0.4642
  947MOL0     H27822   2.088   1.168   2.701 -4.4751  3.2767 -0.5748
  947MOL0     H27823   1.950   0.895   2.644  2.3781  0.6927  1.1712
  947MOL0     H27824   2.035   0.994   2.540 -1.7696  0.2329 -2.0737
  947MOL0     H27825   1.796   1.005   2.509  1.1452 -1.0794 -0.3585
  947MOL0     H27826   1.839   1.166   2.549 -1.2104  1.4656  3.1668
  947MOL0     H27827   2.827   0.691   2.568 -0.4863  0.3700 -0.7037
  947MOL0     H27828   3.096   0.685   2.610  1.4847 -0.9831  2.4917
  947MOL0     H27829   3.380   0.829   2.954  1.3987  0.9841 -2.3315
  947MOL0     H27830   3.615   0.889   2.987 -1.1671  0.3967  1.0659
  947MOL0     H27831   5.412   0.481   2.476 -1.8593  2.4688 -2.3299
  947MOL0     H27832   5.600   0.546   2.343 -2.8227 -0.3645  0.0730
  947MOL0     H27833   5.996   0.839   2.312  0.3477  1.6607  0.1222
  947MOL0     H27834   6.211   0.869   2.213  1.8745 -0.2779 -1.8018
  947MOL0     H27835   6.473   0.546   2.311 -0.2346 -1.7097 -1.4739
  947MOL0     H27836   6.540   0.559   2.155  0.7337  0.3306  0.1778
  947MOL0     H27837   6.636   0.777   2.207 -0.8041 -2.2687 -1.0747
  947MOL0     H27838   6.699   0.650   2.304  0.9549  2.6137  2.3489
  947MOL0     H27839   6.490   0.842   2.392 -0.0331 -1.7396  0.6702
  947MOL0     H27840   6.663   0.866   2.426 -0.4588  0.9245 -0.4571
  947MOL0     H27841   6.648   0.648   2.566 -0.3530  0.3150  2.2294
  947MOL0     H27842   6.474   0.635   2.518 -1.3056  0.4743 -1.0326
  947MOL0     H27843   6.529   0.928   2.823 -1.1770  1.4079 -0.3893
  947MOL0     H27844   6.289   0.450   2.233  0.8037  1.8687 -1.7068
  947MOL0     H27845   6.078   0.421   2.362  2.2767  0.0049  1.0063
  948MOL0     O27846   7.883   0.701   6.287 -0.0158  0.6338  0.3258
  948MOL0     C27847   7.969   0.655   6.358 -0.9616  0.3465  0.8212
  948MOL0     O27848   7.952   0.595   6.485 -0.1456 -0.0057 -0.1799
  948MOL0     C27849   7.839   0.627   6.552  0.0580 -0.5681 -0.2213
  948MOL0     C27850   7.763   0.739   6.537  0.6041  0.6440 -0.1601
  948MOL0     C27851   7.643   0.751   6.602  0.5229 -1.5220  0.1020
  948MOL0     C27852   7.599   0.659   6.693 -0.1985 -0.4835  0.0302
  948MOL0     O27853   7.482   0.660   6.763  0.3809 -0.1089  0.0312
  948MOL0     C27854   7.408   0.784   6.761 -0.9050  0.4912  0.7801
  948MOL0     C27855   7.301   0.792   6.872  0.1491 -0.5924  0.1548
  948MOL0     C27856   7.201   0.902   6.835 -0.7091  1.3706 -0.9064
  948MOL0     C27857   7.079   0.882   6.926  0.6569 -0.3215  0.5202
  948MOL0     C27858   6.973   0.985   6.897  0.8417  0.2329 -0.5635
  948MOL0     C27859   7.010   1.131   6.943 -0.6649 -0.1365  0.4176
  948MOL0     C27860   6.907   1.230   6.880 -0.2220  0.4540 -0.2486
  948MOL0     C27861   6.788   1.255   6.966  0.2420 -0.2246 -0.1445
  948MOL0     N27862   6.675   1.313   6.897  0.7052 -0.6101 -0.0598
  948MOL0     C27863   6.670   1.445   6.861 -0.1118 -0.6076  0.8899
  948MOL0     C27864   6.554   1.459   6.794 -0.3378  0.2403 -0.2193
  948MOL0     C27865   6.515   1.583   6.719 -0.0248 -0.4397 -1.0730
  948MOL0     C27866   6.393   1.565   6.618  0.5578 -0.4422  0.0019
  948MOL0     C27867   6.318   1.706   6.610  0.5963 -0.2162 -0.3722
  948MOL0     C27868   6.180   1.686   6.552 -0.0743 -0.2685 -0.1719
  948MOL0     O27869   6.131   1.810   6.504  0.5836 -0.5535  0.2367
  948MOL0     C27870   5.997   1.814   6.460  0.5651  0.1742  0.2146
  948MOL0     C27871   5.931   1.928   6.419 -0.3561 -0.0337  0.6036
  948MOL0     C27872   5.795   1.938   6.375  0.6122  0.1239 -0.1446
  948MOL0     C27873   5.744   2.070   6.308 -0.2025  0.2902 -0.3134
  948MOL0     C27874   5.728   1.818   6.366  0.2519  0.1401 -0.4854
  948MOL0     C27875   5.589   1.807   6.315  0.4698 -0.3178  0.5395
  948MOL0     O27876   5.497   1.911   6.359 -0.1879 -0.2518 -0.4470
  948MOL0     C27877   5.371   1.932   6.299  0.2277  0.6604 -0.0993
  948MOL0     C27878   5.377   1.964   6.163  0.0624  0.0775  1.2414
  948MOL0     C27879   5.257   1.987   6.089 -1.2595  0.7425  0.3000
  948MOL0     C27880   5.131   1.984   6.151 -0.2673  0.0353 -0.0240
  948MOL0     O27881   5.008   2.010   6.084 -0.2353 -0.2986  0.7019
  948MOL0     C27882   5.022   2.098   5.966  0.0508 -0.1922 -1.2721
  948MOL0     C27883   4.895   2.161   5.919 -0.8854  0.8026  0.0540
  948MOL0     C27884   4.946   2.255   5.806 -0.8448 -0.0378 -0.6483
  948MOL0     C27885   4.865   2.382   5.795  0.4934 -0.4713 -0.7985
  948MOL0     C27886   4.722   2.345   5.743 -0.3854 -0.1057  0.3212
  948MOL0     C27887   4.626   2.453   5.772  0.1681  0.0480  1.2420
  948MOL0     C27888   4.484   2.401   5.742 -0.2352  0.4140  0.4978
  948MOL0     C27889   4.383   2.514   5.731  0.1353  0.1483 -0.9616
  948MOL0    Cl27890   4.408   2.621   5.586  0.0160  0.1913  0.1999
  948MOL0     C27891   5.125   1.941   6.287 -0.1092 -0.4809 -0.0739
  948MOL0     C27892   5.246   1.918   6.364  0.7696 -0.3515 -0.1362
  948MOL0     O27893   5.562   1.710   6.246 -0.4501  0.5286 -0.4294
  948MOL0     C27894   5.789   1.703   6.415 -0.3606  0.1146 -0.5727
  948MOL0     C27895   5.916   1.703   6.459  0.0886 -1.1318  0.2031
  948MOL0     N27896   6.503   1.331   6.780 -0.6158  0.3791 -0.4495
  948MOL0     N27897   6.576   1.245   6.834  0.2998 -0.3496  0.3253
  948MOL0     C27898   7.677   0.544   6.710  0.2095  0.2565  0.2868
  948MOL0     C27899   7.799   0.534   6.643 -0.2064  0.6409  0.6347
  948MOL0     C27900   8.111   0.680   6.314 -0.5280 -1.0653  0.3341
  948MOL0     C27901   8.223   0.652   6.409 -0.7723 -0.1036 -0.0498
  948MOL0     C27902   8.351   0.684   6.376 -0.6849  0.3848 -0.5224
  948MOL0     C27903   8.382   0.758   6.264 -0.0401  0.5636  0.7140
  948MOL0     O27904   8.507   0.804   6.222  0.7745  0.9952  0.4019
  948MOL0     C27905   8.629   0.748   6.279 -0.0111 -0.2980 -0.5372
  948MOL0     C27906   8.670   0.797   6.419  0.7545  0.3242 -0.2662
  948MOL0     C27907   8.624   0.939   6.449  0.1259 -1.2402  0.1987
  948MOL0     C27908   8.661   1.059   6.365 -0.6592 -0.2382 -0.4066
  948MOL0     C27909   8.809   1.067   6.359 -0.1022 -0.0345  0.3249
  948MOL0     C27910   8.930   1.083   6.333  0.0935  0.0061  0.2578
  948MOL0     C27911   8.279   0.792   6.171  0.6389 -0.0767 -0.7566
  948MOL0     C27912   8.143   0.749   6.196 -0.5376 -0.4860 -0.6387
  948MOL0     H27913   7.807   0.824   6.486  0.6372  1.5650  1.3461
  948MOL0     H27914   7.599   0.849   6.585  1.5807 -1.1186 -0.4242
  948MOL0     H27915   7.474   0.871   6.772  0.6346 -0.7023  1.2482
  948MOL0     H27916   7.362   0.790   6.662  0.4787 -1.4792 -0.0470
  948MOL0     H27917   7.251   0.698   6.895 -1.9904  0.6139  0.6668
  948MOL0     H27918   7.345   0.818   6.968 -1.2092  0.7939  0.4363
  948MOL0     H27919   7.252   0.996   6.858  2.6636 -0.9482  2.0347
  948MOL0     H27920   7.158   0.902   6.734 -0.6553 -1.1810 -0.9969
  948MOL0     H27921   7.040   0.782   6.904  1.6088 -0.3519 -1.2296
  948MOL0     H27922   7.102   0.877   7.032  0.5942  0.0092  0.5516
  948MOL0     H27923   6.971   0.979   6.788  0.3597  0.9068 -0.5940
  948MOL0     H27924   6.878   0.956   6.942 -1.3594  3.9687 -2.3606
  948MOL0     H27925   7.008   1.142   7.052  0.2068  1.6590  0.2890
  948MOL0     H27926   7.108   1.158   6.904 -0.4689 -0.2717  0.8036
  948MOL0     H27927   6.960   1.326   6.873  0.6267  0.1689  1.6139
  948MOL0     H27928   6.877   1.202   6.779  1.7882 -1.1862 -0.4592
  948MOL0     H27929   6.815   1.319   7.050 -1.9474  1.0432 -0.3537
  948MOL0     H27930   6.745   1.169   7.017 -1.6259  1.1259  0.6443
  948MOL0     H27931   6.740   1.525   6.886 -1.3464  0.1265  2.1775
  948MOL0     H27932   6.485   1.659   6.791 -3.3737 -1.7235 -0.9005
  948MOL0     H27933   6.598   1.630   6.666  0.2426 -0.0928 -0.3421
  948MOL0     H27934   6.321   1.488   6.647  1.3677 -1.3382 -0.3160
  948MOL0     H27935   6.424   1.546   6.515  0.8123  2.0204 -0.4495
  948MOL0     H27936   6.384   1.768   6.548  1.7346 -1.3769 -0.3571
  948MOL0     H27937   6.304   1.748   6.710  2.8023 -1.1835  0.4050
  948MOL0     H27938   6.129   1.640   6.637  2.8639 -1.0044  1.3062
  948MOL0     H27939   6.185   1.613   6.471 -0.3715 -3.0218  2.1393
  948MOL0     H27940   5.994   2.015   6.409  0.2202  0.0411  3.7371
  948MOL0     H27941   5.655   2.107   6.359  0.5229 -0.4159  1.5486
  948MOL0     H27942   5.820   2.148   6.312 -0.2154  0.4162 -1.7658
  948MOL0     H27943   5.723   2.049   6.203  1.6948  1.0227 -0.8882
  948MOL0     H27944   5.474   1.971   6.117  0.6247 -2.5946  1.8542
  948MOL0     H27945   5.267   2.013   5.984 -2.1552 -1.9154 -0.5041
  948MOL0     H27946   5.092   2.180   5.983  0.0304 -0.3172 -0.5546
  948MOL0     H27947   5.075   2.045   5.886  2.7118 -0.7142  0.6928
  948MOL0     H27948   4.829   2.089   5.871  1.1654 -1.2975  0.2287
  948MOL0     H27949   4.837   2.213   5.995 -0.5177  0.1999  0.7539
  948MOL0     H27950   4.936   2.208   5.707 -2.7607  0.0337 -0.5282
  948MOL0     H27951   5.047   2.294   5.817 -0.7843  0.1959 -1.8445
  948MOL0     H27952   4.850   2.421   5.896  0.0644 -1.8874 -0.2859
  948MOL0     H27953   4.906   2.457   5.727 -0.6968  1.0092  0.0410
  948MOL0     H27954   4.687   2.248   5.780 -3.6973  1.6887  2.2967
  948MOL0     H27955   4.730   2.333   5.634 -0.9398  1.8320  0.0381
  948MOL0     H27956   4.637   2.489   5.875 -1.7886  2.8639  0.5909
  948MOL0     H27957   4.647   2.539   5.707  0.4444 -0.4530  0.6644
  948MOL0     H27958   4.458   2.323   5.814 -1.8791 -0.2833 -0.7994
  948MOL0     H27959   4.485   2.345   5.649 -0.9015 -0.4376  0.9921
  948MOL0     H27960   4.384   2.574   5.822 -0.6146 -1.4802  0.1532
  948MOL0     H27961   4.279   2.479   5.729 -1.8036  4.9684  0.3647
  948MOL0     H27962   5.029   1.923   6.333 -0.3108  1.8394  0.5445
  948MOL0     H27963   5.240   1.905   6.472 -0.9778  3.1925  0.3373
  948MOL0     H27964   5.728   1.613   6.420  0.6223 -0.7168 -2.2879
  948MOL0     H27965   5.956   1.609   6.496  1.5102 -0.5150  0.2900
  948MOL0     H27966   7.654   0.470   6.786  1.6082 -1.7740 -1.1591
  948MOL0     H27967   7.872   0.455   6.655 -0.8132 -0.7294 -3.2617
  948MOL0     H27968   8.201   0.620   6.510  0.0873 -0.1257  0.1325
  948MOL0     H27969   8.424   0.673   6.455 -1.2942 -0.1946 -0.0276
  948MOL0     H27970   8.621   0.639   6.285 -0.6482 -0.1898  1.5698
  948MOL0     H27971   8.712   0.765   6.210  0.7955 -0.6371  0.3197
  948MOL0     H27972   8.779   0.798   6.431  0.7899  0.2599 -0.5982
  948MOL0     H27973   8.622   0.734   6.495 -1.5230  3.5199  1.2043
  948MOL0     H27974   8.651   0.963   6.552  1.0933  0.7639 -0.4811
  948MOL0     H27975   8.515   0.929   6.459 -0.0631 -0.3489 -0.7863
  948MOL0     H27976   8.616   1.149   6.407  0.3815 -0.0510  0.3626
  948MOL0     H27977   8.630   1.031   6.264  0.1651 -2.1418 -0.1745
  948MOL0     H27978   9.036   1.095   6.325 -0.0778  2.8943  1.2006
  948MOL0     H27979   8.301   0.849   6.081  2.0931  0.0950 -0.3248
  948MOL0     H27980   8.063   0.786   6.134  1.5921  3.5160 -1.3199
  949MOL0     O27981  10.969   2.320  10.998 -0.4661  0.6432 -0.0984
  949MOL0     C27982  11.058   2.238  10.970 -0.2233  0.8517  0.5182
  949MOL0     O27983  11.068   2.162  10.860  0.8166 -0.8850 -0.2391
  949MOL0     C27984  10.963   2.161  10.776  0.7218 -0.5388 -0.3184
  949MOL0     C27985  10.950   2.248  10.668  0.4425  0.3701 -0.7123
  949MOL0     C27986  10.844   2.235  10.577  0.1352  0.0652  0.3430
  949MOL0     C27987  10.750   2.134  10.597 -0.5760  0.4548 -0.5197
  949MOL0     O27988  10.667   2.109  10.492  0.4033  0.1679 -0.1284
  949MOL0     C27989  10.663   1.976  10.444  0.2168  0.2163  0.9545
  949MOL0     C27990  10.641   1.959  10.291  0.5910  1.6607 -0.1842
  949MOL0     C27991  10.497   1.983  10.236 -0.2884 -1.2547  0.1798
  949MOL0     C27992  10.479   2.136  10.211  0.5586  0.3505  0.2911
  949MOL0     C27993  10.339   2.181  10.164  1.3773 -0.3861  0.5458
  949MOL0     C27994  10.223   2.146  10.268 -0.0850 -0.1465 -0.4980
  949MOL0     C27995  10.106   2.228  10.242  0.3460  0.0704 -0.5238
  949MOL0     C27996  10.019   2.191  10.122  0.2323 -0.1594  0.0615
  949MOL0     N27997   9.884   2.134  10.145 -0.7794 -0.4079  0.6896
  949MOL0     C27998   9.844   2.070  10.262 -0.4150  0.4047  0.2052
  949MOL0     C27999   9.709   2.039  10.242 -0.9045 -0.4008 -0.4784
  949MOL0     C28000   9.610   1.965  10.322 -0.7787  0.4861 -1.0231
  949MOL0     C28001   9.574   2.049  10.443 -0.3746 -0.4705 -0.6172
  949MOL0     C28002   9.491   1.978  10.544  0.2319 -0.0317 -0.9142
  949MOL0     C28003   9.464   2.073  10.667 -0.0276 -0.1042 -0.1153
  949MOL0     O28004   9.368   2.177  10.628  0.5048 -0.0257  0.2891
  949MOL0     C28005   9.290   2.242  10.721 -0.4749  0.1977 -0.0754
  949MOL0     C28006   9.330   2.269  10.854  0.5073  0.3046 -0.0684
  949MOL0     C28007   9.240   2.331  10.949 -0.1246  0.0037 -0.4058
  949MOL0     C28008   9.284   2.348  11.092  0.0502 -0.7141 -0.2416
  949MOL0     C28009   9.107   2.370  10.901 -0.7151 -0.3300 -0.4978
  949MOL0     C28010   9.005   2.444  10.983  0.0977  0.4664 -0.2964
  949MOL0     O28011   8.904   2.505  10.911 -0.3290 -0.2058  0.5937
  949MOL0     C28012   8.806   2.568  10.982  0.1745  0.2316  0.6480
  949MOL0     C28013   8.714   2.498  11.060  0.5305 -0.2719  0.9810
  949MOL0     C28014   8.607   2.559  11.119  0.4248 -1.0661  0.4943
  949MOL0     C28015   8.598   2.699  11.106  0.3253 -0.4076 -1.0409
  949MOL0     O28016   8.502   2.775  11.175  0.1849 -0.1508  0.4097
  949MOL0     C28017   8.409   2.710  11.259  0.2671 -0.7771 -0.2067
  949MOL0     C28018   8.302   2.811  11.309 -0.0586  0.0218  0.3709
  949MOL0     C28019   8.199   2.836  11.199 -0.0107 -0.7515 -0.2834
  949MOL0     C28020   8.088   2.938  11.252 -0.4038  0.2761 -0.2855
  949MOL0     C28021   7.972   2.949  11.157 -0.2330 -0.3252  0.7233
  949MOL0     C28022   7.875   3.053  11.216  0.6320  0.1808  0.1920
  949MOL0     C28023   7.726   3.058  11.157 -0.5689  0.9467 -0.6587
  949MOL0     C28024   7.652   2.924  11.182  1.1659  0.5530 -0.6082
  949MOL0    Cl28025   7.613   2.943  11.359 -0.1968  0.0575  0.6231
  949MOL0     C28026   8.692   2.773  11.034  0.0120 -0.9195  0.4661
  949MOL0     C28027   8.796   2.708  10.975 -0.3465  0.3925  0.2018
  949MOL0     O28028   9.017   2.441  11.102  1.3098 -0.0434 -0.8101
  949MOL0     C28029   9.071   2.348  10.771  0.4877 -0.7526 -0.2917
  949MOL0     C28030   9.157   2.274  10.688  1.0337 -0.3504 -0.8220
  949MOL0     N28031   9.666   2.100  10.130  0.0645  0.6242  0.9745
  949MOL0     N28032   9.770   2.160  10.077  0.9167  0.4097  0.0926
  949MOL0     C28033  10.760   2.051  10.705 -0.1390 -0.0659  0.5363
  949MOL0     C28034  10.868   2.061  10.795  0.7030  0.1842 -0.0377
  949MOL0     C28035  11.171   2.225  11.062 -0.6178 -0.0477  0.0651
  949MOL0     C28036  11.272   2.121  11.050  0.0362 -0.1500  0.0221
  949MOL0     C28037  11.375   2.117  11.133 -0.7645  0.0831 -0.3725
  949MOL0     C28038  11.386   2.210  11.242  1.1412 -0.4918  0.8262
  949MOL0     O28039  11.479   2.221  11.333  0.1733 -0.7760 -0.1851
  949MOL0     C28040  11.587   2.128  11.344  0.5178  0.3068 -0.0243
  949MOL0     C28041  11.687   2.142  11.226  0.1241  0.0208  0.4121
  949MOL0     C28042  11.817   2.064  11.252  0.0230  0.0127  0.7965
  949MOL0     C28043  11.887   2.025  11.121 -0.1017  0.7293  0.1258
  949MOL0     C28044  12.017   1.956  11.151 -0.8165  0.8233 -0.0814
  949MOL0     C28045  12.125   1.902  11.179  0.3618  0.2589 -0.3634
  949MOL0     C28046  11.279   2.303  11.267 -0.4837  0.9853  0.3047
  949MOL0     C28047  11.173   2.312  11.173 -0.1157  0.0910  0.1082
  949MOL0     H28048  11.018   2.332  10.656  0.0396  0.5898 -1.5370
  949MOL0     H28049  10.826   2.311  10.501 -0.6000 -0.6075 -0.1661
  949MOL0     H28050  10.756   1.923  10.468  0.8575 -0.4339 -2.4736
  949MOL0     H28051  10.589   1.917  10.500 -0.0408 -0.9274 -0.5187
  949MOL0     H28052  10.713   2.016  10.231 -0.2184  1.1881 -1.6676
  949MOL0     H28053  10.655   1.852  10.272  0.0220  1.6722 -0.7022
  949MOL0     H28054  10.489   1.935  10.138  2.1478  0.7543 -1.1328
  949MOL0     H28055  10.412   1.954  10.298 -1.6097  1.0215 -0.4386
  949MOL0     H28056  10.498   2.203  10.296  0.2277  1.3924 -0.4419
  949MOL0     H28057  10.549   2.158  10.130 -1.6086  1.9468 -1.2631
  949MOL0     H28058  10.337   2.290  10.152 -1.6491 -0.5658 -1.6293
  949MOL0     H28059  10.315   2.142  10.064  0.9885  1.1922 -0.0062
  949MOL0     H28060  10.189   2.042  10.259  2.3451 -0.8835 -2.2512
  949MOL0     H28061  10.260   2.158  10.370  0.5594  0.0385 -0.7505
  949MOL0     H28062  10.036   2.236  10.326 -2.2064 -2.6166 -2.1988
  949MOL0     H28063  10.134   2.331  10.221 -1.1448  0.2335 -1.8507
  949MOL0     H28064  10.069   2.118  10.058  0.7829  1.4098 -1.3419
  949MOL0     H28065  10.007   2.278  10.057  3.7536 -0.7446 -1.6103
  949MOL0     H28066   9.906   2.035  10.344  0.3340 -1.9617 -1.2590
  949MOL0     H28067   9.525   1.941  10.258 -2.7829 -1.0015  1.9256
  949MOL0     H28068   9.653   1.871  10.361 -0.5277  1.2929  0.7649
  949MOL0     H28069   9.515   2.135  10.410 -2.5421 -1.6185  0.0189
  949MOL0     H28070   9.658   2.097  10.494 -0.3513  3.2143 -3.6727
  949MOL0     H28071   9.546   1.890  10.579  0.9119  0.4281 -0.8074
  949MOL0     H28072   9.389   1.948  10.520 -1.0214 -0.1968  3.6744
  949MOL0     H28073   9.555   2.119  10.708 -1.2377  0.3136  2.2764
  949MOL0     H28074   9.422   2.002  10.739  1.7727 -1.7706 -0.6023
  949MOL0     H28075   9.429   2.233  10.879  0.7664  0.2483 -1.1318
  949MOL0     H28076   9.313   2.449  11.122 -3.3881  0.8733 -1.6732
  949MOL0     H28077   9.206   2.312  11.160 -0.4732  1.5908  0.4605
  949MOL0     H28078   9.364   2.275  11.105 -0.3186 -1.2283 -0.8415
  949MOL0     H28079   8.731   2.391  11.069  0.5912 -0.4343 -0.7413
  949MOL0     H28080   8.532   2.504  11.175  1.1213 -2.6026 -0.0442
  949MOL0     H28081   8.361   2.621  11.216  1.5040 -1.1159 -0.9321
  949MOL0     H28082   8.467   2.684  11.348  0.3440  0.9942  0.3024
  949MOL0     H28083   8.245   2.780  11.397  0.5480  1.3218  1.2449
  949MOL0     H28084   8.353   2.905  11.330 -1.6105  1.7403 -2.7312
  949MOL0     H28085   8.153   2.742  11.167  3.5305 -2.6360 -0.3650
  949MOL0     H28086   8.250   2.873  11.109  2.0350 -4.8728 -1.0349
  949MOL0     H28087   8.044   2.910  11.348  1.9369 -3.3520 -0.0898
  949MOL0     H28088   8.135   3.034  11.276  1.9335 -1.1488  1.2322
  949MOL0     H28089   7.924   2.854  11.132  1.6664 -0.9498 -0.7717
  949MOL0     H28090   7.998   2.995  11.061 -2.1327  3.2673  1.7454
  949MOL0     H28091   7.870   3.037  11.324 -0.9966  0.6191  0.2188
  949MOL0     H28092   7.910   3.155  11.199 -1.0695  1.1380  2.0541
  949MOL0     H28093   7.728   3.069  11.048  3.9359 -1.0254 -1.0008
  949MOL0     H28094   7.672   3.143  11.200 -1.3122  0.8200 -1.3201
  949MOL0     H28095   7.712   2.834  11.165 -0.2930 -0.9996  1.8163
  949MOL0     H28096   7.561   2.919  11.122  1.0310  2.1364 -0.5773
  949MOL0     H28097   8.695   2.881  11.042 -0.1334 -0.9205  0.5459
  949MOL0     H28098   8.870   2.770  10.925 -1.1518 -0.2052 -1.8410
  949MOL0     H28099   8.978   2.370  10.721 -0.3367 -1.3837  0.9277
  949MOL0     H28100   9.111   2.253  10.592 -0.6777  0.8147 -0.3096
  949MOL0     H28101  10.682   1.975  10.708 -0.3360  0.0827 -0.3688
  949MOL0     H28102  10.875   1.993  10.879 -1.0297  0.2060  0.1634
  949MOL0     H28103  11.271   2.060  10.961  0.1032  0.1842 -0.2070
  949MOL0     H28104  11.456   2.048  11.116  0.0599  0.1839  2.6361
  949MOL0     H28105  11.644   2.144  11.436 -0.8713 -0.7380  1.0835
  949MOL0     H28106  11.541   2.029  11.336 -1.2018  1.1538 -1.3300
  949MOL0     H28107  11.708   2.248  11.209  0.6875 -0.1980 -0.3365
  949MOL0     H28108  11.654   2.107  11.127  0.4556 -0.6484  0.5325
  949MOL0     H28109  11.790   1.979  11.315 -2.7209 -0.9154 -1.4285
  949MOL0     H28110  11.880   2.122  11.319 -0.0764 -0.7283  1.5514
  949MOL0     H28111  11.917   2.114  11.065  3.1001  0.1812  0.7258
  949MOL0     H28112  11.831   1.957  11.057  3.6454 -2.1004 -0.5365
  949MOL0     H28113  12.213   1.854  11.218 -1.1320 -1.9417  0.5435
  949MOL0     H28114  11.281   2.368  11.353 -3.9407 -1.6881  2.6947
  949MOL0     H28115  11.096   2.387  11.188  1.2637  1.7070 -0.6005
  950MOL0     O28116   7.902  10.185   5.178  0.6539 -0.1209  0.1445
  950MOL0     C28117   7.895  10.280   5.259  0.8717  0.8884 -0.7460
  950MOL0     O28118   7.783  10.323   5.325  0.2795  0.6240 -0.2940
  950MOL0     C28119   7.650  10.296   5.291 -0.4614  0.3520  0.3362
  950MOL0     C28120   7.550  10.316   5.388 -0.6044  0.5719 -0.4321
  950MOL0     C28121   7.415  10.310   5.362 -0.6431  0.1701 -0.3896
  950MOL0     C28122   7.374  10.298   5.224  0.6970  0.6531 -0.1027
  950MOL0     O28123   7.243  10.292   5.191  0.2599 -0.3230 -0.0285
  950MOL0     C28124   7.144  10.362   5.278  1.3320 -0.3934  0.8764
  950MOL0     C28125   7.011  10.310   5.222 -0.7403 -0.1807  0.1672
  950MOL0     C28126   6.895  10.367   5.302  0.5531 -0.5800  0.4008
  950MOL0     C28127   6.756  10.315   5.252 -0.2148 -0.0421 -0.2398
  950MOL0     C28128   6.633  10.401   5.293  0.2663 -0.8918 -0.1167
  950MOL0     C28129   6.512  10.357   5.225  0.7699  0.4958  0.7901
  950MOL0     C28130   6.373  10.414   5.266 -0.2481 -0.1769  0.1792
  950MOL0     C28131   6.266  10.330   5.203  0.2236  0.0789  0.0277
  950MOL0     N28132   6.131  10.397   5.212 -0.3239 -0.7536  0.4031
  950MOL0     C28133   6.032  10.379   5.124 -0.7086 -0.1801  0.4641
  950MOL0     C28134   5.928  10.452   5.173 -0.0468 -0.0187  0.0694
  950MOL0     C28135   5.791  10.459   5.109  0.2700 -0.2531  0.7819
  950MOL0     C28136   5.675  10.537   5.180 -0.0616  0.3915  0.1753
  950MOL0     C28137   5.622  10.470   5.300 -0.2063  0.0523 -0.3329
  950MOL0     C28138   5.517  10.550   5.379  0.2968 -0.2781 -0.0430
  950MOL0     O28139   5.390  10.543   5.316  0.1572  0.6194 -0.6411
  950MOL0     C28140   5.291  10.625   5.355  1.3276  0.2030  0.4363
  950MOL0     C28141   5.295  10.730   5.447 -0.3502 -0.3614  0.4283
  950MOL0     C28142   5.182  10.812   5.481 -0.0478 -0.7376  0.6860
  950MOL0     C28143   5.213  10.944   5.547 -0.2397 -0.0677 -0.6388
  950MOL0     C28144   5.054  10.776   5.424 -0.4793  0.7572 -0.4768
  950MOL0     C28145   4.930  10.859   5.437  0.3906 -0.2129 -0.2897
  950MOL0     O28146   4.926  10.961   5.534 -0.1519  0.2037 -0.4536
  950MOL0     C28147   4.826  11.055   5.541 -0.3209  0.0109  0.1999
  950MOL0     C28148   4.688  11.016   5.533 -0.7415 -0.1447  0.0860
  950MOL0     C28149   4.589  11.110   5.538  0.5965 -0.0975  1.3335
  950MOL0     C28150   4.616  11.245   5.546  0.4380  0.6314  0.2673
  950MOL0     O28151   4.516  11.340   5.540  0.2124 -0.1182  0.0346
  950MOL0     C28152   4.382  11.311   5.590  0.1065 -0.6357 -0.4436
  950MOL0     C28153   4.295  11.448   5.597  0.1296  0.7635 -0.7901
  950MOL0     C28154   4.153  11.405   5.636  1.0661  0.4065 -0.8731
  950MOL0     C28155   4.057  11.519   5.621  0.0976  0.9619  0.3081
  950MOL0     C28156   3.921  11.462   5.647  0.0565 -0.0801 -0.6412
  950MOL0     C28157   3.819  11.569   5.694  0.1643 -0.1054  1.0702
  950MOL0     C28158   3.682  11.512   5.704  1.0785 -0.8723 -1.0302
  950MOL0     C28159   3.582  11.550   5.589 -0.7355  0.4440 -0.0323
  950MOL0    Cl28160   3.427  11.484   5.637 -0.4069  0.2827  0.2252
  950MOL0     C28161   4.751  11.279   5.558  0.9745  0.7721 -0.6106
  950MOL0     C28162   4.857  11.185   5.563  0.3344 -0.8348 -0.4608
  950MOL0     O28163   4.841  10.836   5.356  0.0104  0.1492  0.2745
  950MOL0     C28164   5.055  10.668   5.338 -0.3112  0.3412 -0.4527
  950MOL0     C28165   5.167  10.595   5.300  0.0835 -0.3643 -0.0671
  950MOL0     N28166   5.974  10.523   5.285  0.0688  0.1579  0.3724
  950MOL0     N28167   6.095  10.497   5.302 -0.3829  0.5666 -0.4358
  950MOL0     C28168   7.472  10.275   5.128  0.6521  0.5441 -0.0186
  950MOL0     C28169   7.606  10.268   5.156  0.2517 -0.2549 -0.2718
  950MOL0     C28170   8.026  10.338   5.296 -0.1429 -0.4963  0.1767
  950MOL0     C28171   8.144  10.278   5.248 -0.2445 -0.6083  0.3162
  950MOL0     C28172   8.269  10.328   5.275 -0.2170  0.0797  0.0306
  950MOL0     C28173   8.288  10.434   5.361  0.3947  0.2151  0.5188
  950MOL0     O28174   8.411  10.491   5.404  0.4572 -0.0428  0.1543
  950MOL0     C28175   8.531  10.423   5.389  0.5329 -0.2074  0.0692
  950MOL0     C28176   8.626  10.514   5.304 -0.1421 -0.2248 -0.5444
  950MOL0     C28177   8.778  10.472   5.310  0.6266  0.3534  0.0602
  950MOL0     C28178   8.880  10.562   5.230  0.0147 -0.5697 -0.1673
  950MOL0     C28179   8.894  10.692   5.297 -1.0466  0.4682  0.3490
  950MOL0     C28180   8.917  10.794   5.353  0.1763  0.5453 -0.1166
  950MOL0     C28181   8.173  10.484   5.409 -0.0523 -0.3262  0.2921
  950MOL0     C28182   8.037  10.443   5.388  0.3864  0.0681  0.1382
  950MOL0     H28183   7.571  10.349   5.489 -2.3276  2.3258 -0.5827
  950MOL0     H28184   7.350  10.311   5.450  1.6343 -1.1227  1.4236
  950MOL0     H28185   7.151  10.332   5.383 -0.1651  0.8790  1.3727
  950MOL0     H28186   7.158  10.469   5.261  1.0188 -0.5374 -0.3784
  950MOL0     H28187   6.992  10.328   5.116 -1.5697  0.1635  0.3704
  950MOL0     H28188   7.022  10.201   5.233  1.0675 -0.0636 -0.1098
  950MOL0     H28189   6.912  10.344   5.408  0.3185  0.3042  0.6356
  950MOL0     H28190   6.898  10.475   5.286  1.6191  0.0388  3.9060
  950MOL0     H28191   6.758  10.305   5.143 -1.1011  0.4031 -0.3085
  950MOL0     H28192   6.741  10.215   5.295  3.0279 -0.2303  0.6840
  950MOL0     H28193   6.628  10.396   5.402  0.2652 -1.0078 -0.1221
  950MOL0     H28194   6.644  10.507   5.270  0.6129 -0.6531  1.0967
  950MOL0     H28195   6.534  10.365   5.118 -1.0242  0.1530  0.3629
  950MOL0     H28196   6.503  10.254   5.259  1.1368  0.7247  1.6119
  950MOL0     H28197   6.376  10.414   5.375 -1.1638 -0.4321  0.2176
  950MOL0     H28198   6.355  10.516   5.233  1.0248 -0.1544 -0.4986
  950MOL0     H28199   6.262  10.229   5.244 -0.4279  0.0853  0.0016
  950MOL0     H28200   6.292  10.311   5.099 -0.8451 -1.0145 -0.0692
  950MOL0     H28201   6.031  10.320   5.034  1.0777  0.2750  0.1079
  950MOL0     H28202   5.820  10.483   5.007  3.1940 -0.3791  1.4847
  950MOL0     H28203   5.752  10.357   5.096  1.1054 -0.8428  2.5481
  950MOL0     H28204   5.596  10.526   5.105  0.5020  0.4143 -0.4261
  950MOL0     H28205   5.706  10.639   5.205  2.8190 -0.3853  0.1185
  950MOL0     H28206   5.713  10.464   5.360  0.8947 -2.4158 -2.0855
  950MOL0     H28207   5.581  10.372   5.273  1.2722 -0.9522  0.8948
  950MOL0     H28208   5.558  10.651   5.386  0.1209  0.3186 -4.6097
  950MOL0     H28209   5.508  10.503   5.478 -0.8321 -1.4696 -0.6736
  950MOL0     H28210   5.388  10.749   5.499  1.7392 -3.6449 -1.6933
  950MOL0     H28211   5.173  11.031   5.496 -1.0859 -1.3246 -2.2140
  950MOL0     H28212   5.174  10.949   5.649  0.5259 -0.0806 -0.3321
  950MOL0     H28213   5.322  10.953   5.552 -0.1434 -1.1713 -0.3925
  950MOL0     H28214   4.660  10.911   5.535 -4.5306  0.7347  1.5096
  950MOL0     H28215   4.487  11.076   5.525  1.5709 -2.5635 -0.9348
  950MOL0     H28216   4.324  11.241   5.529 -1.3663  0.5025 -0.4150
  950MOL0     H28217   4.393  11.257   5.684 -1.9070 -2.9873 -1.4704
  950MOL0     H28218   4.337  11.521   5.667  1.3033  0.1671 -0.8471
  950MOL0     H28219   4.292  11.485   5.495  1.1078 -2.5833 -2.1658
  950MOL0     H28220   4.151  11.356   5.734  0.9005 -1.0755 -1.5927
  950MOL0     H28221   4.122  11.331   5.562 -0.9575  0.7982 -0.4722
  950MOL0     H28222   4.076  11.599   5.692  0.2698 -0.5709  2.0675
  950MOL0     H28223   4.055  11.557   5.518 -2.3216  1.9616  0.6432
  950MOL0     H28224   3.925  11.387   5.727  1.1550  0.0157 -0.5988
  950MOL0     H28225   3.890  11.410   5.557  1.2689  1.3305 -1.9264
  950MOL0     H28226   3.851  11.606   5.792  1.6555 -0.8056  0.8791
  950MOL0     H28227   3.824  11.660   5.633  2.8827  0.2229  1.6538
  950MOL0     H28228   3.639  11.559   5.793  1.7868  1.2796 -1.7516
  950MOL0     H28229   3.688  11.403   5.717  0.5867 -0.8293 -0.3854
  950MOL0     H28230   3.617  11.501   5.498  0.0055  1.8088 -0.5062
  950MOL0     H28231   3.585  11.659   5.581  1.7794  0.6161  1.8163
  950MOL0     H28232   4.781  11.384   5.558 -0.1202  1.1015 -0.4842
  950MOL0     H28233   4.961  11.216   5.572  0.0147 -0.0736  0.8424
  950MOL0     H28234   4.958  10.640   5.297  0.0829  0.8009 -1.7480
  950MOL0     H28235   5.148  10.514   5.229 -0.6587 -2.2053  2.1165
  950MOL0     H28236   7.418  10.287   5.034 -1.6710 -0.7175  1.0638
  950MOL0     H28237   7.675  10.245   5.074 -0.6637 -0.6102 -0.9593
  950MOL0     H28238   8.133  10.190   5.186 -0.2809 -0.8760  0.6975
  950MOL0     H28239   8.356  10.286   5.225 -2.3794 -1.4479 -2.7296
  950MOL0     H28240   8.571  10.407   5.490  2.7882  0.5635 -0.6369
  950MOL0     H28241   8.524  10.322   5.347  4.9060 -0.5105 -0.4814
  950MOL0     H28242   8.613  10.618   5.336 -0.2399 -0.6498  0.8623
  950MOL0     H28243   8.584  10.518   5.203 -1.3047  1.2141 -0.0384
  950MOL0     H28244   8.792  10.367   5.282  0.9402  1.2011 -3.5083
  950MOL0     H28245   8.809  10.481   5.414  1.0656  2.7101 -0.2123
  950MOL0     H28246   8.861  10.561   5.122  1.1165 -0.5588 -0.3742
  950MOL0     H28247   8.981  10.521   5.243  1.9563  3.5197 -0.7220
  950MOL0     H28248   8.936  10.887   5.403 -1.6128 -0.5377  2.8694
  950MOL0     H28249   8.192  10.558   5.487  3.6874 -1.5235  0.7116
  950MOL0     H28250   7.954  10.483   5.446  2.1289 -0.8940  3.5460
  951MOL0     O28251   7.763   4.575   6.941 -0.1186 -0.2669 -0.2057
  951MOL0     C28252   7.787   4.457   6.968 -0.3576  0.1547 -0.2736
  951MOL0     O28253   7.713   4.350   6.926 -1.2982  0.3069 -0.4346
  951MOL0     C28254   7.600   4.364   6.843  0.4533 -0.3780  0.4003
  951MOL0     C28255   7.502   4.268   6.875 -0.5111  0.2341  0.5135
  951MOL0     C28256   7.375   4.284   6.817 -0.3040  0.0217 -0.4915
  951MOL0     C28257   7.342   4.384   6.722  0.5944  0.0868  0.4300
  951MOL0     O28258   7.217   4.388   6.654  0.0733 -0.0283  0.0031
  951MOL0     C28259   7.093   4.337   6.711 -0.7674 -0.1413  0.8853
  951MOL0     C28260   7.061   4.362   6.858 -0.2093 -0.5634 -0.7759
  951MOL0     C28261   6.912   4.358   6.886 -0.3152 -0.1903 -0.4157
  951MOL0     C28262   6.851   4.223   6.846  0.5642  0.4450  0.3179
  951MOL0     C28263   6.714   4.206   6.891 -0.3521 -0.1728  0.4306
  951MOL0     C28264   6.608   4.293   6.814 -0.1423 -0.4390 -0.1466
  951MOL0     C28265   6.477   4.235   6.830 -0.2444 -0.6624 -0.4700
  951MOL0     C28266   6.356   4.316   6.786 -0.3673  0.2644 -0.7626
  951MOL0     N28267   6.236   4.243   6.774  0.0499  0.1766  0.7731
  951MOL0     C28268   6.204   4.153   6.670 -0.5211  0.4439  0.4396
  951MOL0     C28269   6.077   4.108   6.696 -0.6569  0.1190 -0.0111
  951MOL0     C28270   6.003   4.013   6.605 -0.2749 -0.6780 -0.2269
  951MOL0     C28271   5.858   3.986   6.653 -0.4246 -0.0001 -0.1313
  951MOL0     C28272   5.777   4.121   6.673 -0.6005 -0.8431 -0.3189
  951MOL0     C28273   5.630   4.104   6.637 -0.3603  0.0843  0.3001
  951MOL0     O28274   5.559   4.216   6.684 -0.0514  0.5539  0.6945
  951MOL0     C28275   5.418   4.201   6.673  0.1610 -0.4462  0.7167
  951MOL0     C28276   5.347   4.323   6.696  0.0866  0.4407  0.5846
  951MOL0     C28277   5.209   4.328   6.689  0.6089  0.3388 -0.2304
  951MOL0     C28278   5.156   4.463   6.722 -0.2437 -0.5566 -0.1299
  951MOL0     C28279   5.124   4.220   6.654 -0.0260  0.1050  1.4881
  951MOL0     C28280   4.981   4.235   6.631  0.4788 -0.0667 -0.0647
  951MOL0     O28281   4.924   4.357   6.624  0.8253  0.0189  0.5798
  951MOL0     C28282   4.786   4.361   6.615  1.3272  0.0319 -0.9324
  951MOL0     C28283   4.725   4.404   6.732 -0.1830 -0.2120 -0.5128
  951MOL0     C28284   4.587   4.422   6.739 -0.0952 -0.3524  0.0218
  951MOL0     C28285   4.510   4.411   6.621 -1.1088 -0.0099 -0.4212
  951MOL0     O28286   4.377   4.457   6.621  0.6704  0.4087  0.4481
  951MOL0     C28287   4.348   4.578   6.699 -0.0348  0.4719  0.7218
  951MOL0     C28288   4.216   4.624   6.644 -0.7861 -0.1824 -0.5558
  951MOL0     C28289   4.201   4.604   6.494 -0.9081 -0.1791 -0.0066
  951MOL0     C28290   4.067   4.672   6.453 -0.7389  0.1862 -0.1755
  951MOL0     C28291   4.088   4.713   6.308  0.7481 -0.1620  0.2081
  951MOL0     C28292   4.061   4.602   6.206  0.3352  0.1499 -0.4958
  951MOL0     C28293   4.038   4.663   6.067  0.3397  0.1846 -0.6050
  951MOL0     C28294   4.160   4.731   6.002  0.1895 -0.7824  0.8118
  951MOL0    Cl28295   4.113   4.811   5.846 -0.5311  0.0406 -0.4822
  951MOL0     C28296   4.570   4.371   6.503  0.0738 -0.5136  0.3584
  951MOL0     C28297   4.703   4.328   6.505  0.0182 -0.3310 -0.4125
  951MOL0     O28298   4.921   4.131   6.621  0.2705  0.6889 -0.1172
  951MOL0     C28299   5.189   4.096   6.630  0.4581  0.1036  0.9575
  951MOL0     C28300   5.337   4.092   6.632  0.0581  0.0859 -0.2537
  951MOL0     N28301   6.040   4.157   6.817  0.1129 -0.6078  0.0652
  951MOL0     N28302   6.137   4.241   6.865  0.2194  0.3188 -0.3350
  951MOL0     C28303   7.447   4.470   6.686  0.6590  0.9428  0.5610
  951MOL0     C28304   7.574   4.462   6.739  0.0824  0.1460 -0.1206
  951MOL0     C28305   7.887   4.417   7.066 -0.4253 -0.3636  0.5876
  951MOL0     C28306   7.907   4.290   7.128  0.1298  0.5298 -0.0125
  951MOL0     C28307   8.027   4.281   7.207 -0.6685 -0.7244 -0.0797
  951MOL0     C28308   8.101   4.396   7.250  0.6069  0.1534 -0.6228
  951MOL0     O28309   8.197   4.369   7.336 -0.0894  1.4193  0.1984
  951MOL0     C28310   8.285   4.476   7.365  0.6315 -0.1219  0.3512
  951MOL0     C28311   8.395   4.417   7.448 -0.5063  0.1712  1.0753
  951MOL0     C28312   8.466   4.313   7.360 -0.7829  0.9522 -0.1399
  951MOL0     C28313   8.610   4.300   7.397 -0.4718  0.2905  0.3092
  951MOL0     C28314   8.639   4.176   7.466  0.2260  0.0698  1.0185
  951MOL0     C28315   8.677   4.091   7.539  0.2338 -0.1489  0.6378
  951MOL0     C28316   8.079   4.514   7.189 -0.0891  0.7673  0.3640
  951MOL0     C28317   7.974   4.526   7.105  0.2278  1.0504 -0.0318
  951MOL0     H28318   7.533   4.183   6.934  0.4680  1.8458  2.4414
  951MOL0     H28319   7.304   4.202   6.819  2.5157 -2.6023  0.9323
  951MOL0     H28320   7.015   4.387   6.652  0.6983  2.2840  0.8938
  951MOL0     H28321   7.085   4.232   6.681  1.0379  0.3946 -1.8891
  951MOL0     H28322   7.107   4.295   6.931 -0.9578  0.5716  0.7755
  951MOL0     H28323   7.083   4.466   6.881  0.1535 -0.4689 -1.5139
  951MOL0     H28324   6.910   4.371   6.994  3.9062 -0.2312 -0.1707
  951MOL0     H28325   6.858   4.439   6.836 -1.0446  0.3601  1.2284
  951MOL0     H28326   6.863   4.205   6.739  0.6491  0.8060  0.2665
  951MOL0     H28327   6.908   4.147   6.902  1.4508  1.2322  0.5081
  951MOL0     H28328   6.684   4.103   6.873  1.6728 -0.3416 -2.7141
  951MOL0     H28329   6.709   4.226   6.999 -0.0949 -0.1759  0.4433
  951MOL0     H28330   6.607   4.395   6.853  1.2496 -0.2781 -0.5012
  951MOL0     H28331   6.639   4.296   6.710 -0.8849  0.8667 -0.3578
  951MOL0     H28332   6.460   4.142   6.777 -3.0315 -0.2039 -0.5555
  951MOL0     H28333   6.465   4.209   6.936 -1.4236 -0.3727 -0.5131
  951MOL0     H28334   6.384   4.356   6.688 -0.2258  3.3491  0.4182
  951MOL0     H28335   6.343   4.400   6.856 -3.6782 -2.2654  2.0496
  951MOL0     H28336   6.271   4.125   6.590 -1.3543  1.7010 -0.7474
  951MOL0     H28337   6.013   4.061   6.507  1.0643  1.9671  1.0778
  951MOL0     H28338   6.064   3.922   6.600  0.9988  0.0059  1.5197
  951MOL0     H28339   5.869   3.948   6.755  1.5626  1.0639  0.0851
  951MOL0     H28340   5.804   3.918   6.586 -1.5158  0.2978  0.4186
  951MOL0     H28341   5.815   4.201   6.609 -1.1589 -1.1910 -1.1094
  951MOL0     H28342   5.783   4.141   6.780 -3.5295  0.1183 -0.2469
  951MOL0     H28343   5.590   4.020   6.695  0.5894 -0.4029  0.2794
  951MOL0     H28344   5.628   4.096   6.528  2.5652 -0.3254  0.1789
  951MOL0     H28345   5.408   4.410   6.716  3.2195 -1.8516  1.6489
  951MOL0     H28346   5.075   4.448   6.793  1.2530 -4.7841  0.9632
  951MOL0     H28347   5.232   4.526   6.770 -0.9633  0.3155 -0.0982
  951MOL0     H28348   5.117   4.515   6.634 -2.7621 -2.4563 -0.2237
  951MOL0     H28349   4.779   4.429   6.823 -1.0432  0.8062 -0.2655
  951MOL0     H28350   4.545   4.459   6.832 -1.5298 -0.7183 -0.4673
  951MOL0     H28351   4.334   4.562   6.806 -0.0874 -3.5915  0.2455
  951MOL0     H28352   4.425   4.655   6.683  1.5495 -1.2047 -0.0975
  951MOL0     H28353   4.137   4.578   6.704 -2.0490  3.3446  0.7493
  951MOL0     H28354   4.222   4.732   6.655 -0.7595 -0.2977  0.6634
  951MOL0     H28355   4.201   4.496   6.475 -0.5340 -0.4943  1.6524
  951MOL0     H28356   4.284   4.657   6.448  0.1035 -2.4280 -0.9371
  951MOL0     H28357   3.983   4.602   6.448 -1.0446  0.6311 -1.6078
  951MOL0     H28358   4.044   4.753   6.523  0.3255 -0.9742  1.6139
  951MOL0     H28359   4.182   4.766   6.288  0.0706  0.4483 -1.5750
  951MOL0     H28360   4.005   4.781   6.289 -0.1798 -1.7982 -2.0703
  951MOL0     H28361   4.148   4.537   6.210  1.1699  1.2202 -0.9342
  951MOL0     H28362   3.965   4.553   6.228 -1.1142  3.1750  0.5577
  951MOL0     H28363   3.958   4.738   6.068 -1.2419 -1.4358  0.2266
  951MOL0     H28364   4.003   4.584   5.999 -0.9407  0.8310 -0.7300
  951MOL0     H28365   4.244   4.663   5.984 -0.1981 -0.6772 -1.6994
  951MOL0     H28366   4.195   4.809   6.070 -1.8173 -0.7930  1.9278
  951MOL0     H28367   4.514   4.367   6.410  1.2902 -1.5515 -0.3557
  951MOL0     H28368   4.753   4.286   6.418 -1.2377 -0.2778 -1.1905
  951MOL0     H28369   5.132   4.006   6.606  1.9797 -0.4066 -1.0111
  951MOL0     H28370   5.388   3.997   6.620 -0.4188 -0.4536  1.5474
  951MOL0     H28371   7.424   4.551   6.618 -0.0147  0.5198  0.2777
  951MOL0     H28372   7.653   4.532   6.713  0.5365 -0.4534 -0.3680
  951MOL0     H28373   7.839   4.208   7.106  0.9941 -0.0847 -0.4384
  951MOL0     H28374   8.041   4.182   7.249  0.1134  0.1090  1.7524
  951MOL0     H28375   8.319   4.535   7.279  1.5760  0.0678  0.8344
  951MOL0     H28376   8.233   4.550   7.425 -2.5397  0.1763 -2.4509
  951MOL0     H28377   8.355   4.372   7.539  1.8020  0.4866  2.3260
  951MOL0     H28378   8.466   4.498   7.469 -0.9503  1.1504 -0.9340
  951MOL0     H28379   8.453   4.345   7.256 -1.1754  0.1984 -0.3266
  951MOL0     H28380   8.413   4.219   7.377  1.0460  0.0587  0.9812
  951MOL0     H28381   8.654   4.388   7.444  0.7568 -0.4946  0.6831
  951MOL0     H28382   8.669   4.300   7.304 -0.7153  1.0684  0.1534
  951MOL0     H28383   8.717   4.010   7.597 -0.1183 -0.4613  0.4480
  951MOL0     H28384   8.130   4.607   7.213 -0.3827  1.3929 -1.3077
  951MOL0     H28385   7.971   4.627   7.066 -0.2432  0.7082 -0.9110
  952MOL0     O28386   9.082   9.264   1.355 -0.2474 -0.9673  0.5693
  952MOL0     C28387   9.146   9.253   1.246  0.2454  0.1655 -0.5160
  952MOL0     O28388   9.106   9.304   1.122  0.3016  0.1929  0.3536
  952MOL0     C28389   8.995   9.381   1.109 -0.5778  0.7716  0.6818
  952MOL0     C28390   8.967   9.486   1.192  1.0263  0.6299  0.0263
  952MOL0     C28391   8.849   9.566   1.171 -0.3161  0.0680  0.7938
  952MOL0     C28392   8.763   9.535   1.063 -0.0895  0.2514  0.0735
  952MOL0     O28393   8.645   9.586   1.034  0.1220  0.2347 -0.0684
  952MOL0     C28394   8.598   9.689   1.126  0.1514  1.0865  0.7411
  952MOL0     C28395   8.455   9.757   1.092  0.4745 -0.2776 -1.5605
  952MOL0     C28396   8.400   9.840   1.216  0.0587  0.1743 -0.1070
  952MOL0     C28397   8.345   9.765   1.334 -0.2535  0.0647 -0.8071
  952MOL0     C28398   8.316   9.852   1.457 -0.0022  0.6988 -0.5658
  952MOL0     C28399   8.206   9.952   1.436 -0.2360  0.5987  0.5355
  952MOL0     C28400   8.170  10.021   1.573  0.5756 -0.0589 -0.6317
  952MOL0     C28401   8.050  10.116   1.550  1.3217  0.2108  0.3921
  952MOL0     N28402   7.926  10.048   1.598  0.5421  0.1365  0.8144
  952MOL0     C28403   7.891   9.915   1.581 -0.4693 -0.4678  0.2251
  952MOL0     C28404   7.791   9.899   1.666  0.3107  0.5881  0.1173
  952MOL0     C28405   7.722   9.773   1.696  0.7296  0.6484 -0.2215
  952MOL0     C28406   7.569   9.788   1.719  0.5709  0.2441 -0.1409
  952MOL0     C28407   7.510   9.659   1.787  0.4432  1.0169 -0.6448
  952MOL0     C28408   7.372   9.668   1.824  0.6993  0.2590 -0.0390
  952MOL0     O28409   7.290   9.683   1.704  0.3180  0.3683 -0.0698
  952MOL0     C28410   7.150   9.660   1.719  0.0043 -0.9408 -0.4678
  952MOL0     C28411   7.090   9.621   1.595 -0.0657 -0.2186 -0.3214
  952MOL0     C28412   6.954   9.582   1.601 -0.6587  0.1853 -0.5829
  952MOL0     C28413   6.908   9.540   1.468  0.9249  0.4621  0.5043
  952MOL0     C28414   6.877   9.587   1.722  0.5254  0.1150  0.2031
  952MOL0     C28415   6.737   9.545   1.737  0.3352  0.1962 -0.2794
  952MOL0     O28416   6.662   9.510   1.631  0.0385  0.0547 -0.2531
  952MOL0     C28417   6.521   9.496   1.648 -0.1016  0.4049 -0.0670
  952MOL0     C28418   6.472   9.374   1.706 -1.1299  0.2008 -0.5411
  952MOL0     C28419   6.338   9.360   1.733 -0.1635 -0.5308 -0.8941
  952MOL0     C28420   6.244   9.463   1.699  0.3498 -0.1357  0.2176
  952MOL0     O28421   6.109   9.460   1.723  0.7705  0.6179  0.0559
  952MOL0     C28422   6.053   9.340   1.775  0.0833  0.2199 -0.0301
  952MOL0     C28423   5.906   9.357   1.773  0.2380  0.0267 -0.4403
  952MOL0     C28424   5.834   9.251   1.860  0.1571 -0.1797  0.3980
  952MOL0     C28425   5.683   9.294   1.879 -0.7025  0.5577  1.4833
  952MOL0     C28426   5.630   9.223   2.006 -0.2120 -0.5303  0.6919
  952MOL0     C28427   5.494   9.282   2.039  0.3517 -0.7752  0.4640
  952MOL0     C28428   5.432   9.196   2.151  0.2618 -0.5879  0.0697
  952MOL0     C28429   5.283   9.221   2.155  0.3319 -0.3873 -0.1184
  952MOL0    Cl28430   5.249   9.392   2.227 -0.1732  0.0741 -0.0580
  952MOL0     C28431   6.293   9.574   1.626  0.4404 -1.0874 -0.8095
  952MOL0     C28432   6.433   9.596   1.598  1.5607  0.2545 -0.0856
  952MOL0     O28433   6.701   9.536   1.851  1.3358 -0.2155 -0.8302
  952MOL0     C28434   6.945   9.645   1.837  1.0769  0.6817  0.1149
  952MOL0     C28435   7.077   9.678   1.834 -0.6482  0.0344 -0.3142
  952MOL0     N28436   7.747  10.020   1.718  0.6018 -0.3288 -0.1974
  952MOL0     N28437   7.830  10.108   1.674  0.1987 -0.6227 -0.8456
  952MOL0     C28438   8.801   9.430   0.973  0.0574 -1.1384 -0.9798
  952MOL0     C28439   8.913   9.357   0.999 -0.2833  0.1765  0.3875
  952MOL0     C28440   9.270   9.166   1.259 -0.4039 -0.2418  0.2894
  952MOL0     C28441   9.362   9.145   1.147  0.0864 -0.3260  0.8744
  952MOL0     C28442   9.467   9.059   1.165  0.9104 -0.4391  0.7291
  952MOL0     C28443   9.491   8.985   1.279  0.0185 -0.7692  0.7590
  952MOL0     O28444   9.596   8.892   1.266  0.2514  0.1305  0.2612
  952MOL0     C28445   9.633   8.822   1.388  0.9611 -0.1893 -0.3024
  952MOL0     C28446   9.741   8.723   1.374  0.1543 -0.0911  0.9297
  952MOL0     C28447   9.877   8.787   1.324 -0.3067  0.1786 -0.7447
  952MOL0     C28448   9.971   8.678   1.253  0.6841 -0.5771 -0.0165
  952MOL0     C28449  10.005   8.575   1.359 -0.0048 -0.4769 -0.4266
  952MOL0     C28450  10.025   8.507   1.459 -0.1446 -0.2110  0.3214
  952MOL0     C28451   9.401   8.998   1.389 -0.0394  0.7004  0.1336
  952MOL0     C28452   9.296   9.092   1.378  0.3438 -0.7958  0.6606
  952MOL0     H28453   9.036   9.502   1.275 -1.3576  3.1126  1.7016
  952MOL0     H28454   8.824   9.647   1.239 -0.7958  0.3929  0.2412
  952MOL0     H28455   8.595   9.654   1.230  2.4478  0.1435  0.5525
  952MOL0     H28456   8.672   9.769   1.131  0.2976  1.1092 -1.3012
  952MOL0     H28457   8.476   9.819   1.004  0.4928  3.3327  0.7833
  952MOL0     H28458   8.379   9.686   1.059  0.6193 -0.7948 -0.8077
  952MOL0     H28459   8.491   9.886   1.254  1.0354 -2.6418  1.2212
  952MOL0     H28460   8.326   9.912   1.179  2.0945  2.5067  0.1863
  952MOL0     H28461   8.246   9.726   1.309 -2.4060  3.6769  1.2566
  952MOL0     H28462   8.404   9.678   1.365 -0.7807 -0.5731 -1.5329
  952MOL0     H28463   8.288   9.785   1.540 -1.2426  0.5014 -1.1217
  952MOL0     H28464   8.404   9.913   1.480  0.6278  0.3451 -1.9425
  952MOL0     H28465   8.248  10.030   1.373  0.3840  0.1857  0.4208
  952MOL0     H28466   8.119   9.904   1.390 -0.8947  1.4345  0.8725
  952MOL0     H28467   8.152   9.945   1.649 -0.3443 -0.1196 -0.8957
  952MOL0     H28468   8.249  10.087   1.610 -0.1456  0.5780 -0.1955
  952MOL0     H28469   8.049  10.148   1.445  2.0126 -2.4130 -0.4810
  952MOL0     H28470   8.064  10.204   1.614 -0.0411  0.2403  0.6853
  952MOL0     H28471   7.943   9.835   1.529 -0.1749 -1.0365  1.3559
  952MOL0     H28472   7.743   9.711   1.608  1.1475  0.0289  0.3002
  952MOL0     H28473   7.770   9.723   1.781 -0.4349  1.0343  0.6808
  952MOL0     H28474   7.533   9.796   1.616 -0.8596  0.2008  0.3366
  952MOL0     H28475   7.542   9.879   1.774  1.1600 -0.1145  0.7776
  952MOL0     H28476   7.573   9.647   1.875  1.1365 -0.8175 -1.3521
  952MOL0     H28477   7.518   9.565   1.732  1.0442  1.1960 -0.8796
  952MOL0     H28478   7.353   9.762   1.875 -1.2145 -0.0432 -0.0889
  952MOL0     H28479   7.334   9.587   1.888  0.7312  1.7467  1.9416
  952MOL0     H28480   7.154   9.612   1.509 -0.6285  2.3454 -1.0781
  952MOL0     H28481   6.984   9.541   1.390 -0.9422  0.5885 -1.4276
  952MOL0     H28482   6.879   9.435   1.477  0.0768  0.5758 -0.7063
  952MOL0     H28483   6.822   9.601   1.438  0.8829  0.5331  0.7629
  952MOL0     H28484   6.558   9.320   1.744  0.9903  2.3544 -1.9598
  952MOL0     H28485   6.305   9.279   1.798  2.1282 -1.2997 -0.6183
  952MOL0     H28486   6.074   9.255   1.709  1.0145  1.8084 -1.8437
  952MOL0     H28487   6.089   9.328   1.878 -0.9706  1.7874  0.5546
  952MOL0     H28488   5.899   9.454   1.823  4.2458  1.4116 -2.1987
  952MOL0     H28489   5.866   9.366   1.672 -0.4924  2.5448  0.0143
  952MOL0     H28490   5.886   9.250   1.957  3.0972 -0.8463 -1.0525
  952MOL0     H28491   5.839   9.149   1.819 -0.1255 -0.4952  1.1196
  952MOL0     H28492   5.679   9.402   1.895  2.2450  0.9438  0.2457
  952MOL0     H28493   5.631   9.254   1.792  1.1847 -0.5862  0.8388
  952MOL0     H28494   5.700   9.243   2.087  0.6907  1.6306 -0.5313
  952MOL0     H28495   5.624   9.115   1.988  3.8163 -0.8263  0.2962
  952MOL0     H28496   5.506   9.387   2.066 -0.1327 -1.0055  1.6725
  952MOL0     H28497   5.431   9.275   1.950 -1.0345  3.6969  0.8440
  952MOL0     H28498   5.481   9.222   2.245 -0.3457 -0.8652  0.4642
  952MOL0     H28499   5.443   9.089   2.129  2.6856 -0.5549  0.8326
  952MOL0     H28500   5.250   9.139   2.219  0.9450 -1.1836 -0.7973
  952MOL0     H28501   5.237   9.212   2.056  0.5790  1.8138 -0.4952
  952MOL0     H28502   6.225   9.653   1.596  1.6867  1.1529  1.7852
  952MOL0     H28503   6.461   9.677   1.531 -0.1446  1.0089  0.0721
  952MOL0     H28504   6.890   9.665   1.928 -1.1385  1.3150 -1.2766
  952MOL0     H28505   7.124   9.721   1.922  0.7496 -1.5545 -0.2321
  952MOL0     H28506   8.730   9.413   0.893 -1.7599  1.0336  0.0655
  952MOL0     H28507   8.952   9.280   0.934  0.1462  1.9757 -1.6304
  952MOL0     H28508   9.357   9.193   1.050  2.4245  0.1922  0.9417
  952MOL0     H28509   9.527   9.047   1.075 -0.7481  0.6654 -0.6044
  952MOL0     H28510   9.650   8.904   1.458  0.1928  1.2960 -1.7853
  952MOL0     H28511   9.547   8.767   1.427  0.2027 -0.1086 -1.8078
  952MOL0     H28512   9.708   8.644   1.305 -1.1061  0.5618  0.7553
  952MOL0     H28513   9.744   8.673   1.471 -4.0417 -1.1088  0.7155
  952MOL0     H28514   9.918   8.824   1.418 -1.8663 -3.7094  1.7320
  952MOL0     H28515   9.841   8.867   1.259 -2.3764  0.7964  1.0211
  952MOL0     H28516  10.063   8.719   1.212  0.2833 -0.1314 -0.4857
  952MOL0     H28517   9.905   8.639   1.176 -0.0606  0.5808 -0.0069
  952MOL0     H28518  10.046   8.433   1.534 -4.5057 -2.7900 -0.6476
  952MOL0     H28519   9.416   8.941   1.480 -0.0875 -1.7700 -1.3170
  952MOL0     H28520   9.231   9.111   1.463 -1.1156  2.3240 -0.9831
  953MOL0     O28521   7.810   7.057   8.581  0.1412 -0.1410  0.1974
  953MOL0     C28522   7.804   7.098   8.466 -0.0001 -0.3677  0.2845
  953MOL0     O28523   7.695   7.070   8.383 -0.4203  0.3716  0.6632
  953MOL0     C28524   7.588   7.004   8.428  0.5207 -0.0302 -0.3164
  953MOL0     C28525   7.539   6.978   8.565 -0.4155  0.1969 -0.0596
  953MOL0     C28526   7.409   6.931   8.580  0.5066 -0.3718  0.4856
  953MOL0     C28527   7.327   6.886   8.474 -0.6336  0.0667  0.2493
  953MOL0     O28528   7.208   6.816   8.487 -0.2150 -0.3911  0.0890
  953MOL0     C28529   7.133   6.819   8.604  0.6314 -0.8404  1.0500
  953MOL0     C28530   7.022   6.711   8.594 -0.5606 -0.5089  0.2287
  953MOL0     C28531   6.896   6.779   8.529  0.5175  0.0793  0.3271
  953MOL0     C28532   6.791   6.672   8.500 -0.3669 -0.0801 -0.0555
  953MOL0     C28533   6.659   6.742   8.503 -0.3445  0.3633 -0.7776
  953MOL0     C28534   6.545   6.643   8.536 -0.2030 -0.0727  0.7911
  953MOL0     C28535   6.400   6.702   8.504 -0.5039  0.1680 -0.0268
  953MOL0     C28536   6.300   6.618   8.582 -0.3086 -0.2225  1.2273
  953MOL0     N28537   6.182   6.572   8.503 -0.5810  0.4780  0.1809
  953MOL0     C28538   6.094   6.654   8.435 -0.8294  0.7088  0.0872
  953MOL0     C28539   5.993   6.572   8.400  0.0936 -0.2262 -0.2616
  953MOL0     C28540   5.869   6.594   8.329 -0.3785  0.5707  0.1522
  953MOL0     C28541   5.763   6.673   8.408 -0.1789 -0.0405 -0.2509
  953MOL0     C28542   5.715   6.609   8.542 -0.5345  0.1346  0.4653
  953MOL0     C28543   5.604   6.691   8.607 -0.7183 -0.4491  0.2823
  953MOL0     O28544   5.498   6.728   8.517  0.0722  0.2732  0.4324
  953MOL0     C28545   5.387   6.780   8.579  0.0440 -0.7082  0.7944
  953MOL0     C28546   5.286   6.819   8.488  0.3221  0.1938  0.9213
  953MOL0     C28547   5.174   6.893   8.530  0.6906 -0.9466  0.2836
  953MOL0     C28548   5.070   6.930   8.426 -0.7544 -0.1593  0.0310
  953MOL0     C28549   5.171   6.934   8.669  0.6360  1.1419 -0.5862
  953MOL0     C28550   5.066   7.021   8.728 -0.1471  0.5582  0.0535
  953MOL0     O28551   5.032   6.986   8.859  0.5086  0.2034 -0.5218
  953MOL0     C28552   4.909   7.027   8.907  0.4998  0.5560 -0.5079
  953MOL0     C28553   4.794   6.968   8.856  0.2092  0.3951  0.9538
  953MOL0     C28554   4.665   6.989   8.908  0.0855  0.4110 -0.1041
  953MOL0     C28555   4.644   7.086   9.002 -0.2792  0.5055 -0.3976
  953MOL0     O28556   4.523   7.126   9.053 -0.9780 -0.0933 -0.7263
  953MOL0     C28557   4.401   7.087   8.988  0.4602  0.4629  0.1414
  953MOL0     C28558   4.274   7.155   9.050  0.5065 -0.3073 -0.1730
  953MOL0     C28559   4.152   7.135   8.962 -0.1574 -0.1268  0.4405
  953MOL0     C28560   4.066   7.017   8.991  1.0177  0.0002 -0.2105
  953MOL0     C28561   3.927   7.058   8.923  0.2943 -0.8036 -0.5202
  953MOL0     C28562   3.932   7.073   8.773 -0.4643  0.4329 -0.3603
  953MOL0     C28563   3.795   7.110   8.728 -0.5873  0.8000  0.5491
  953MOL0     C28564   3.696   6.995   8.725 -0.3229  0.3879 -0.1351
  953MOL0    Cl28565   3.531   7.031   8.657  0.2358 -0.0239  0.0260
  953MOL0     C28566   4.755   7.152   9.051  0.8938  0.3302 -0.2892
  953MOL0     C28567   4.883   7.122   9.007  0.1758 -0.0515 -0.0274
  953MOL0     O28568   5.023   7.119   8.667 -0.3612  0.4916  0.5241
  953MOL0     C28569   5.271   6.886   8.752 -0.1513  0.1353 -0.4664
  953MOL0     C28570   5.371   6.810   8.712 -0.5882 -0.6714  0.2065
  953MOL0     N28571   6.030   6.436   8.428  0.8492  0.1679  0.1197
  953MOL0     N28572   6.143   6.439   8.484 -0.4935 -0.3601 -0.4850
  953MOL0     C28573   7.370   6.903   8.343  0.1346 -0.4259  0.0598
  953MOL0     C28574   7.492   6.966   8.328 -0.0382  0.0634 -0.2049
  953MOL0     C28575   7.899   7.193   8.408 -1.3822  0.0716 -0.2011
  953MOL0     C28576   8.038   7.186   8.443 -0.3598  0.9997  0.4234
  953MOL0     C28577   8.133   7.276   8.399 -0.5988  0.5996  0.5753
  953MOL0     C28578   8.101   7.378   8.311  0.0177 -0.5561  0.6226
  953MOL0     O28579   8.189   7.471   8.264  0.4848  0.9448  0.3309
  953MOL0     C28580   8.329   7.463   8.299 -0.0393 -0.1359 -0.2575
  953MOL0     C28581   8.400   7.577   8.231 -0.4361 -0.2100 -0.1673
  953MOL0     C28582   8.526   7.613   8.308 -0.6400  0.7891 -0.3458
  953MOL0     C28583   8.584   7.743   8.261 -0.6110 -0.2238  0.5872
  953MOL0     C28584   8.727   7.761   8.297  0.4877  0.5335 -0.1101
  953MOL0     C28585   8.839   7.789   8.335  0.4782 -0.4467 -0.1638
  953MOL0     C28586   7.959   7.395   8.277 -1.0682 -0.0700 -0.0127
  953MOL0     C28587   7.862   7.300   8.326  0.3674 -0.5348 -0.2200
  953MOL0     H28588   7.600   7.004   8.651 -0.0456  2.1813 -0.8567
  953MOL0     H28589   7.370   6.908   8.678  0.8613 -1.5351  0.3698
  953MOL0     H28590   7.194   6.789   8.690  1.5708 -1.3101  0.2386
  953MOL0     H28591   7.086   6.917   8.617  0.4118 -0.9942  1.4505
  953MOL0     H28592   7.049   6.628   8.528  4.1187  1.8693 -1.2313
  953MOL0     H28593   6.994   6.677   8.694 -0.1671  2.5571  1.4812
  953MOL0     H28594   6.852   6.851   8.598 -0.6571  1.3226 -1.6111
  953MOL0     H28595   6.915   6.843   8.442 -3.1265 -1.1425 -1.5766
  953MOL0     H28596   6.808   6.625   8.402  2.9999 -1.8084  1.2195
  953MOL0     H28597   6.799   6.594   8.576 -4.4985 -0.4450  0.2341
  953MOL0     H28598   6.660   6.817   8.583  0.5042  2.1881 -2.4125
  953MOL0     H28599   6.642   6.790   8.406 -0.1626 -1.1460 -1.5893
  953MOL0     H28600   6.569   6.557   8.473  1.4205  1.7443 -1.2295
  953MOL0     H28601   6.547   6.612   8.641 -2.8097 -2.8849  0.1415
  953MOL0     H28602   6.394   6.808   8.530  1.5165  0.1790  0.5807
  953MOL0     H28603   6.376   6.685   8.398 -2.9294 -2.0541  0.7581
  953MOL0     H28604   6.260   6.674   8.668 -0.7691 -1.2972  1.7440
  953MOL0     H28605   6.352   6.531   8.623  1.6524  0.5509  0.4703
  953MOL0     H28606   6.093   6.762   8.426  0.7857  0.8329  0.9023
  953MOL0     H28607   5.897   6.654   8.242  0.0466  1.3353  0.7928
  953MOL0     H28608   5.823   6.503   8.290 -0.3801  0.5757  0.1430
  953MOL0     H28609   5.670   6.675   8.350 -2.0089 -1.9709  2.3585
  953MOL0     H28610   5.804   6.772   8.432  1.4953 -0.2925 -1.8691
  953MOL0     H28611   5.797   6.607   8.614 -0.4630 -0.3067  0.3754
  953MOL0     H28612   5.683   6.511   8.505  1.5242 -0.6386  0.5845
  953MOL0     H28613   5.645   6.787   8.641 -3.4400  1.7671 -2.0689
  953MOL0     H28614   5.571   6.635   8.695 -0.3342 -0.2902  0.5335
  953MOL0     H28615   5.304   6.783   8.388  3.9832 -0.2916  1.6305
  953MOL0     H28616   5.091   6.866   8.340 -1.2722 -0.3883  0.0670
  953MOL0     H28617   4.966   6.922   8.459 -0.9505 -2.5066 -0.9366
  953MOL0     H28618   5.095   7.032   8.395  1.7028 -0.9437 -0.7742
  953MOL0     H28619   4.812   6.888   8.785 -1.1967 -1.1082  2.2096
  953MOL0     H28620   4.581   6.933   8.868  1.1623 -0.7818 -0.7517
  953MOL0     H28621   4.412   7.103   8.880  1.2579  2.1894  0.4456
  953MOL0     H28622   4.382   6.979   8.988 -2.2517  0.8832 -0.0253
  953MOL0     H28623   4.254   7.119   9.151  1.3233 -2.9128 -0.8600
  953MOL0     H28624   4.294   7.263   9.058 -0.6241 -0.0651 -0.5134
  953MOL0     H28625   4.186   7.143   8.858 -0.0893 -0.0124  0.4706
  953MOL0     H28626   4.086   7.221   8.976 -0.4059 -0.6403  2.8428
  953MOL0     H28627   4.102   6.928   8.939 -2.5356 -1.6442 -0.1188
  953MOL0     H28628   4.054   6.998   9.098  0.8997  1.6143  0.0923
  953MOL0     H28629   3.885   7.151   8.962  0.7158 -0.2494 -1.3502
  953MOL0     H28630   3.856   6.980   8.949  1.2220 -1.1890  0.9346
  953MOL0     H28631   4.004   7.149   8.743 -0.1024  0.7955  1.3206
  953MOL0     H28632   3.963   6.977   8.730  1.1218  0.0380  1.5329
  953MOL0     H28633   3.805   7.152   8.627  1.4006  0.4014  0.5512
  953MOL0     H28634   3.751   7.185   8.795 -0.3010  0.1855  1.4248
  953MOL0     H28635   3.686   6.965   8.830  3.5252  4.0756  1.5738
  953MOL0     H28636   3.741   6.911   8.671  1.0202 -1.2366  3.2483
  953MOL0     H28637   4.734   7.239   9.112  1.9811  0.1726  0.3395
  953MOL0     H28638   4.968   7.181   9.042  0.8046 -0.0351 -1.4935
  953MOL0     H28639   5.271   6.896   8.860 -2.2759  0.3788 -0.4522
  953MOL0     H28640   5.445   6.783   8.786  2.3118  3.2883 -0.9565
  953MOL0     H28641   7.307   6.868   8.262 -2.1869 -1.3232  2.0985
  953MOL0     H28642   7.509   6.984   8.222  0.0673 -2.2651 -0.6220
  953MOL0     H28643   8.075   7.114   8.515  1.8865  0.5379 -1.0986
  953MOL0     H28644   8.237   7.266   8.430 -0.2360  1.6520 -0.2396
  953MOL0     H28645   8.334   7.479   8.407 -0.2092 -0.7476 -0.1525
  953MOL0     H28646   8.374   7.367   8.272  1.1136  0.8382 -1.9890
  953MOL0     H28647   8.341   7.669   8.230 -1.7713 -1.0375  0.0472
  953MOL0     H28648   8.423   7.550   8.128  0.5792 -2.1835  0.5257
  953MOL0     H28649   8.599   7.532   8.299  0.2510  1.4117  0.9751
  953MOL0     H28650   8.492   7.628   8.410  1.2228 -0.9321  0.6074
  953MOL0     H28651   8.529   7.822   8.314  1.2662 -0.4746  3.1071
  953MOL0     H28652   8.582   7.760   8.153  3.5238  0.5398  0.4720
  953MOL0     H28653   8.938   7.820   8.360 -0.6240  2.4205  1.1040
  953MOL0     H28654   7.920   7.474   8.213  1.8666  0.0750 -1.7764
  953MOL0     H28655   7.757   7.321   8.307  0.2004 -0.4809  0.6966
  954MOL0     O28656   2.969   4.152   6.872  0.5343  0.2803 -0.0980
  954MOL0     C28657   3.001   4.256   6.933  0.3426  0.8953 -0.2798
  954MOL0     O28658   2.909   4.352   6.979 -0.7594 -0.5442  0.1387
  954MOL0     C28659   2.771   4.346   6.953  0.2243  0.7113  0.8145
  954MOL0     C28660   2.694   4.252   7.024 -0.3922 -0.3579 -0.6531
  954MOL0     C28661   2.556   4.251   7.016 -0.9140  0.1570  0.6165
  954MOL0     C28662   2.491   4.352   6.943 -0.1331 -0.4309 -0.4081
  954MOL0     O28663   2.358   4.367   6.965 -0.1862  0.5830  0.2421
  954MOL0     C28664   2.304   4.500   6.971  0.5400 -0.9617  0.4247
  954MOL0     C28665   2.174   4.488   7.039 -0.0545  0.4126  0.1303
  954MOL0     C28666   2.079   4.604   7.035  0.5682 -0.1170 -0.1485
  954MOL0     C28667   2.136   4.723   7.098 -0.0155 -0.3976 -0.1055
  954MOL0     C28668   2.042   4.845   7.087 -0.5950  0.3890 -0.7683
  954MOL0     C28669   2.114   4.971   7.141 -1.2987 -0.2838  0.1927
  954MOL0     C28670   2.229   5.031   7.039 -0.2239  0.3121  0.0573
  954MOL0     C28671   2.259   5.184   7.060 -0.3983 -0.3334  1.2500
  954MOL0     N28672   2.269   5.219   7.197 -0.5004 -0.9487  0.3163
  954MOL0     C28673   2.380   5.194   7.279  1.2758  0.5024  0.0005
  954MOL0     C28674   2.352   5.261   7.398 -0.2909 -0.1000 -1.1157
  954MOL0     C28675   2.432   5.273   7.528  0.2804 -0.7352 -0.0188
  954MOL0     C28676   2.563   5.201   7.521  1.1526 -0.2829 -0.0765
  954MOL0     C28677   2.625   5.193   7.662  0.1405  0.9025  0.5945
  954MOL0     C28678   2.778   5.153   7.658 -0.3997  0.3467 -0.5535
  954MOL0     O28679   2.793   5.037   7.588  0.3671  0.2830 -0.1537
  954MOL0     C28680   2.909   4.980   7.560  0.7556 -0.2557 -0.1912
  954MOL0     C28681   2.908   4.881   7.464  0.2271  0.3475  0.7132
  954MOL0     C28682   3.021   4.810   7.419 -1.5185 -0.2661  0.2856
  954MOL0     C28683   2.998   4.693   7.325 -0.2360  0.5958 -0.1354
  954MOL0     C28684   3.149   4.844   7.482  0.5388  0.4351  0.7223
  954MOL0     C28685   3.283   4.777   7.459  0.6765 -0.0502 -0.5650
  954MOL0     O28686   3.392   4.823   7.538  0.7441 -0.0545  0.2454
  954MOL0     C28687   3.513   4.763   7.503  0.2003  0.4424 -0.2400
  954MOL0     C28688   3.563   4.658   7.572 -0.0715  0.1808  0.3555
  954MOL0     C28689   3.693   4.608   7.545  0.4527  0.0272 -0.0802
  954MOL0     C28690   3.769   4.677   7.453  0.0511 -0.5166 -0.0207
  954MOL0     O28691   3.897   4.649   7.417  0.2591  0.8738 -0.0865
  954MOL0     C28692   3.969   4.553   7.496  0.0975  1.0116  0.4663
  954MOL0     C28693   3.949   4.405   7.446 -0.6645 -0.5986  0.0054
  954MOL0     C28694   3.973   4.401   7.290 -0.3325 -0.2281 -0.0351
  954MOL0     C28695   3.985   4.268   7.225  0.0877  0.9651  0.4043
  954MOL0     C28696   4.018   4.277   7.075  0.3617  0.5962  0.2196
  954MOL0     C28697   4.136   4.191   7.029 -0.2658  0.5169 -0.3691
  954MOL0     C28698   4.139   4.165   6.873  0.4162 -0.0602 -0.3106
  954MOL0     C28699   4.147   4.287   6.791 -0.5072 -1.3213 -0.5118
  954MOL0    Cl28700   3.996   4.370   6.775 -0.3350  0.0248 -0.0723
  954MOL0     C28701   3.713   4.787   7.376  0.4006 -0.8031 -0.6450
  954MOL0     C28702   3.583   4.826   7.403 -0.2186  0.5675  0.0760
  954MOL0     O28703   3.289   4.685   7.379  0.0748  0.1930 -0.0536
  954MOL0     C28704   3.150   4.946   7.584 -0.4012  0.4804  1.0589
  954MOL0     C28705   3.033   5.005   7.624  0.0796 -0.3823  1.3981
  954MOL0     N28706   2.230   5.324   7.383  0.0363 -0.0767 -0.0069
  954MOL0     N28707   2.183   5.295   7.269 -0.0470  1.0304  0.0267
  954MOL0     C28708   2.563   4.432   6.851 -0.7686 -0.7809 -0.3172
  954MOL0     C28709   2.707   4.431   6.864  0.5267 -0.5312 -0.0195
  954MOL0     C28710   3.135   4.296   6.979  0.5270 -0.5085  0.2710
  954MOL0     C28711   3.160   4.399   7.071 -0.3329 -0.0356 -1.0008
  954MOL0     C28712   3.290   4.430   7.107  0.0236  0.6605  0.2244
  954MOL0     C28713   3.400   4.358   7.058 -0.1776  0.1072 -0.3956
  954MOL0     O28714   3.529   4.375   7.092  0.0409 -0.8723  0.9266
  954MOL0     C28715   3.570   4.507   7.129  0.6038  0.9329 -0.6217
  954MOL0     C28716   3.693   4.542   7.037  0.6547 -0.1020 -0.1888
  954MOL0     C28717   3.661   4.546   6.883 -0.2210 -0.2470 -0.2956
  954MOL0     C28718   3.767   4.619   6.806 -0.7386  0.0492 -0.2466
  954MOL0     C28719   3.733   4.600   6.668  0.1531  0.0769  0.0104
  954MOL0     C28720   3.693   4.576   6.559 -0.5686  0.3725  0.3555
  954MOL0     C28721   3.376   4.251   6.978  0.8903  0.0668 -0.1678
  954MOL0     C28722   3.240   4.213   6.938 -0.6246  0.2924 -0.4124
  954MOL0     H28723   2.741   4.176   7.085  1.1633  0.4350 -0.8239
  954MOL0     H28724   2.504   4.170   7.065  4.6825 -3.9090  0.7778
  954MOL0     H28725   2.365   4.572   7.026  1.3347  0.1007 -1.7423
  954MOL0     H28726   2.288   4.534   6.868  0.3175 -0.7179  0.5386
  954MOL0     H28727   2.119   4.407   6.990 -0.4507  0.3154  0.7240
  954MOL0     H28728   2.180   4.455   7.143  4.1680  1.7619  0.4951
  954MOL0     H28729   2.045   4.634   6.935 -3.6876  1.4689  1.5198
  954MOL0     H28730   1.987   4.592   7.094 -0.8478  2.0525 -1.7585
  954MOL0     H28731   2.153   4.705   7.205  0.1863  0.0248 -0.0631
  954MOL0     H28732   2.234   4.753   7.059  0.3381  0.6283  1.4399
  954MOL0     H28733   2.012   4.836   6.982  0.5976 -0.6060 -1.0530
  954MOL0     H28734   1.952   4.832   7.149  0.5458  2.6770  1.5350
  954MOL0     H28735   2.039   5.051   7.138 -1.5234 -0.4981 -2.5446
  954MOL0     H28736   2.147   4.969   7.245 -0.0828 -0.2590 -0.1762
  954MOL0     H28737   2.321   4.977   7.059  0.5627  2.1106  1.6597
  954MOL0     H28738   2.197   5.017   6.936  2.9917 -0.1784 -0.9595
  954MOL0     H28739   2.182   5.240   7.005  3.4264  2.5120 -1.6986
  954MOL0     H28740   2.351   5.208   7.008 -0.7964  0.6834  0.9929
  954MOL0     H28741   2.473   5.142   7.260  1.5786  1.1648 -0.3831
  954MOL0     H28742   2.455   5.379   7.543 -2.9928  0.0884  0.0375
  954MOL0     H28743   2.371   5.241   7.613  0.8041  0.2388  0.7489
  954MOL0     H28744   2.632   5.251   7.452 -1.6876 -2.3367 -4.9428
  954MOL0     H28745   2.551   5.096   7.490  2.0202 -0.4976  0.2653
  954MOL0     H28746   2.583   5.110   7.719  3.5800 -0.1035  1.8971
  954MOL0     H28747   2.606   5.290   7.709 -1.0343  1.0163 -0.0597
  954MOL0     H28748   2.825   5.158   7.757 -2.2143  1.7243  0.3041
  954MOL0     H28749   2.832   5.226   7.597  1.7162 -2.2732 -2.0274
  954MOL0     H28750   2.819   4.842   7.417  1.5976 -1.9605 -0.1612
  954MOL0     H28751   2.908   4.710   7.265 -0.2661 -1.1769 -0.6495
  954MOL0     H28752   3.076   4.676   7.249  1.9299 -0.4023  2.1778
  954MOL0     H28753   2.988   4.600   7.382 -0.4119  1.1926  0.8145
  954MOL0     H28754   3.500   4.609   7.646 -0.9182 -2.1908 -1.7886
  954MOL0     H28755   3.722   4.527   7.610  0.6297  0.0096 -0.1832
  954MOL0     H28756   4.076   4.560   7.474 -0.3891  1.8889 -1.9044
  954MOL0     H28757   3.951   4.560   7.603  0.3994  1.9180  0.4635
  954MOL0     H28758   4.023   4.337   7.491 -0.8779 -1.6231 -1.1231
  954MOL0     H28759   3.849   4.367   7.467 -1.5184  2.5376  2.1882
  954MOL0     H28760   4.066   4.457   7.276  1.0066 -1.7834  2.0367
  954MOL0     H28761   3.886   4.447   7.242 -1.8654 -1.8273  1.0712
  954MOL0     H28762   4.073   4.225   7.274 -2.0628 -4.1159  0.4155
  954MOL0     H28763   3.908   4.194   7.247 -0.6719  0.9916 -1.8492
  954MOL0     H28764   4.033   4.383   7.051  1.1155  0.0520 -1.9170
  954MOL0     H28765   3.931   4.236   7.024 -0.6109  1.5194  1.0675
  954MOL0     H28766   4.230   4.236   7.063  1.1999 -0.5916 -2.6930
  954MOL0     H28767   4.125   4.097   7.083  1.9227  0.0483 -0.6572
  954MOL0     H28768   4.044   4.116   6.850  0.0588  1.3731 -2.1133
  954MOL0     H28769   4.220   4.095   6.853 -0.5254 -1.2272 -0.1662
  954MOL0     H28770   4.187   4.263   6.693 -0.8523  3.5943 -2.1654
  954MOL0     H28771   4.218   4.357   6.835 -1.2209 -0.1242 -1.2014
  954MOL0     H28772   3.778   4.837   7.305 -0.0463  0.8215  0.0530
  954MOL0     H28773   3.528   4.907   7.356 -1.5789 -0.1182  0.4294
  954MOL0     H28774   3.234   4.964   7.650 -1.5522 -2.9662  3.7835
  954MOL0     H28775   3.042   5.078   7.704  4.8845  1.5192 -0.4662
  954MOL0     H28776   2.511   4.492   6.778  1.3359 -0.8182 -1.9468
  954MOL0     H28777   2.762   4.494   6.795 -0.9053  1.2297  0.3846
  954MOL0     H28778   3.097   4.469   7.126 -0.0651 -1.1032  0.7496
  954MOL0     H28779   3.302   4.513   7.177  0.8031  2.7784 -2.2323
  954MOL0     H28780   3.496   4.587   7.115  2.0325  2.4029 -0.1498
  954MOL0     H28781   3.595   4.532   7.232  3.6333  1.8103 -1.4822
  954MOL0     H28782   3.774   4.470   7.054  1.3709  0.0805 -2.4773
  954MOL0     H28783   3.737   4.634   7.077  1.7327 -1.0786  0.9791
  954MOL0     H28784   3.569   4.601   6.860  2.6342  3.9408 -3.3276
  954MOL0     H28785   3.654   4.445   6.842 -2.2684 -0.5615  0.6607
  954MOL0     H28786   3.868   4.580   6.821 -1.3386 -1.2950  0.4760
  954MOL0     H28787   3.770   4.723   6.839  0.1334  0.7850 -2.4446
  954MOL0     H28788   3.653   4.562   6.461 -3.7691 -0.8927  1.7130
  954MOL0     H28789   3.457   4.191   6.937  0.3513 -0.3037 -0.7172
  954MOL0     H28790   3.229   4.128   6.870  0.9753  0.6129 -1.1343
  955MOL0     O28791   0.248   5.542   8.467  0.4657 -0.0926  0.0860
  955MOL0     C28792   0.314   5.476   8.550 -0.6586  0.2712  0.2762
  955MOL0     O28793   0.270   5.404   8.653  0.6658  0.1982 -0.7290
  955MOL0     C28794   0.135   5.402   8.678  0.0234  0.6712 -0.4792
  955MOL0     C28795   0.097   5.426   8.811  0.5694 -0.2210 -0.0068
  955MOL0     C28796  -0.039   5.403   8.846  0.3907  0.1739  0.2178
  955MOL0     C28797  -0.138   5.350   8.761 -0.5007 -0.5215 -0.0426
  955MOL0     O28798  -0.268   5.346   8.787  0.9890  0.8283  0.0627
  955MOL0     C28799  -0.347   5.233   8.733  0.3617  0.6439 -0.3452
  955MOL0     C28800  -0.478   5.202   8.801  0.9338  0.7174  0.0309
  955MOL0     C28801  -0.580   5.319   8.803 -0.7257  0.6112  1.1214
  955MOL0     C28802  -0.525   5.454   8.824 -0.5107 -0.6758 -0.0788
  955MOL0     C28803  -0.635   5.550   8.874  0.0425  0.6855  0.2350
  955MOL0     C28804  -0.753   5.573   8.783  0.5836 -0.3862  0.6826
  955MOL0     C28805  -0.859   5.657   8.851  1.7516  0.2421  0.3367
  955MOL0     C28806  -0.935   5.569   8.945  0.2196  0.2054 -0.6609
  955MOL0     N28807  -1.049   5.657   8.982  0.9295  0.2536  0.4752
  955MOL0     C28808  -1.060   5.736   9.096 -0.1679 -0.2299  0.5705
  955MOL0     C28809  -1.180   5.793   9.085 -0.6034 -0.3740  0.1941
  955MOL0     C28810  -1.254   5.896   9.169  0.1267  0.6418 -0.6115
  955MOL0     C28811  -1.271   5.850   9.320 -0.3266  0.7458 -0.8874
  955MOL0     C28812  -1.319   5.981   9.391 -0.2273  0.4999  0.5461
  955MOL0     C28813  -1.372   5.961   9.531 -0.6522 -0.5934  0.1785
  955MOL0     O28814  -1.460   5.853   9.549 -0.3210 -0.5684 -0.3742
  955MOL0     C28815  -1.593   5.869   9.505  0.3591  0.2096  0.4643
  955MOL0     C28816  -1.650   5.977   9.442  0.1729  0.2493  0.3639
  955MOL0     C28817  -1.784   5.987   9.408  0.0142 -0.6464  0.3209
  955MOL0     C28818  -1.835   6.126   9.353 -0.0736  0.6587 -0.3733
  955MOL0     C28819  -1.861   5.866   9.425  0.7755 -0.3177  0.1236
  955MOL0     C28820  -2.011   5.858   9.396 -0.2858 -0.3736  0.2067
  955MOL0     O28821  -2.078   5.750   9.438  0.0772 -0.4045 -0.2573
  955MOL0     C28822  -2.220   5.747   9.422 -0.4776  0.6605 -0.4643
  955MOL0     C28823  -2.291   5.741   9.534 -0.4097  0.0599  0.0078
  955MOL0     C28824  -2.428   5.728   9.537 -0.5495 -0.4181 -0.3772
  955MOL0     C28825  -2.497   5.702   9.420 -0.1079 -0.0547 -0.3833
  955MOL0     O28826  -2.632   5.665   9.423 -0.6063 -0.3061  0.1552
  955MOL0     C28827  -2.711   5.735   9.330  0.1228 -0.0006  0.4566
  955MOL0     C28828  -2.732   5.888   9.361 -0.0906  1.0372 -0.1643
  955MOL0     C28829  -2.842   5.958   9.284 -0.2484  0.3345  0.1622
  955MOL0     C28830  -2.821   6.108   9.296  0.3273  0.1761  1.2071
  955MOL0     C28831  -2.883   6.181   9.171 -0.3937 -0.0936  0.5438
  955MOL0     C28832  -3.042   6.168   9.166 -0.8453  0.3481 -0.3886
  955MOL0     C28833  -3.094   6.237   9.036 -0.2061 -0.4566 -1.1574
  955MOL0     C28834  -3.061   6.389   9.017  0.3669  0.3131 -0.4310
  955MOL0    Cl28835  -3.081   6.484   9.170 -0.5523  0.1724  0.5839
  955MOL0     C28836  -2.424   5.705   9.298  0.8784  0.7026 -0.1427
  955MOL0     C28837  -2.284   5.732   9.301 -0.0549  0.1514  0.3481
  955MOL0     O28838  -2.065   5.958   9.342 -0.0397 -0.8603  0.7078
  955MOL0     C28839  -1.804   5.745   9.484 -0.0971  0.1675  0.8600
  955MOL0     C28840  -1.675   5.757   9.526 -0.3834  0.4143 -0.0951
  955MOL0     N28841  -1.238   5.754   8.966  0.5608 -0.4610 -0.3421
  955MOL0     N28842  -1.161   5.664   8.908  0.6436  0.4100  0.2285
  955MOL0     C28843  -0.088   5.323   8.630 -0.2847 -0.0295 -0.6710
  955MOL0     C28844   0.041   5.356   8.583 -1.1072 -0.9268 -0.7894
  955MOL0     C28845   0.460   5.473   8.525  0.3780  0.6600  0.1416
  955MOL0     C28846   0.536   5.565   8.447 -0.4909  0.1167  0.4562
  955MOL0     C28847   0.675   5.551   8.438  0.4116 -0.8554 -0.3425
  955MOL0     C28848   0.746   5.473   8.530 -0.0444 -1.1815  0.0307
  955MOL0     O28849   0.884   5.494   8.524 -0.0017  0.4908  0.5604
  955MOL0     C28850   0.967   5.411   8.598 -0.4282  0.5828 -0.1834
  955MOL0     C28851   1.117   5.442   8.556  0.0097 -0.1243 -0.1556
  955MOL0     C28852   1.206   5.340   8.621 -0.1404 -0.2455  0.8757
  955MOL0     C28853   1.350   5.362   8.590 -0.2782  0.1599  0.4798
  955MOL0     C28854   1.437   5.256   8.647  0.3823 -0.1419 -0.2794
  955MOL0     C28855   1.521   5.185   8.705 -0.0516 -1.4763  0.6834
  955MOL0     C28856   0.672   5.377   8.601  0.7065 -0.2992 -0.3981
  955MOL0     C28857   0.531   5.374   8.599  0.2764  0.2237 -0.0643
  955MOL0     H28858   0.174   5.454   8.882  1.1175  0.0092 -0.6815
  955MOL0     H28859  -0.065   5.430   8.948  3.1556  0.0056  1.0481
  955MOL0     H28860  -0.381   5.249   8.631 -0.4994 -1.7336 -0.5092
  955MOL0     H28861  -0.287   5.141   8.734 -0.1948  0.2441  1.5555
  955MOL0     H28862  -0.521   5.113   8.754  0.5127  0.7474  0.3461
  955MOL0     H28863  -0.463   5.187   8.908  1.6199  3.5611  0.4089
  955MOL0     H28864  -0.618   5.322   8.700  0.9748  2.3399  0.4923
  955MOL0     H28865  -0.659   5.290   8.873  0.0978 -1.7371  1.1642
  955MOL0     H28866  -0.459   5.460   8.911  0.2586  1.6131 -0.7613
  955MOL0     H28867  -0.466   5.492   8.739 -3.1344  0.2768 -1.5965
  955MOL0     H28868  -0.672   5.514   8.970  0.2222 -0.3136 -0.0540
  955MOL0     H28869  -0.600   5.653   8.883  0.7942  0.5511 -0.9471
  955MOL0     H28870  -0.725   5.626   8.692  1.1265 -1.9266 -0.0689
  955MOL0     H28871  -0.798   5.479   8.750 -0.7752  0.2893  0.5393
  955MOL0     H28872  -0.813   5.740   8.905 -1.6455 -0.2515  4.5101
  955MOL0     H28873  -0.924   5.690   8.770  1.4486 -0.5453  0.2447
  955MOL0     H28874  -0.871   5.546   9.030  1.7565 -1.8280 -2.2622
  955MOL0     H28875  -0.957   5.471   8.901 -2.3422  0.6411 -0.5170
  955MOL0     H28876  -0.985   5.750   9.174 -0.0239 -0.8494  0.5474
  955MOL0     H28877  -1.185   5.980   9.165  1.7797 -0.6882 -1.2910
  955MOL0     H28878  -1.347   5.925   9.118  0.9767  2.9407 -0.9734
  955MOL0     H28879  -1.182   5.805   9.366 -1.6836 -2.4662 -1.1746
  955MOL0     H28880  -1.345   5.771   9.332  0.2749  0.2021 -0.7068
  955MOL0     H28881  -1.400   6.026   9.332 -0.7470 -0.4350  0.5193
  955MOL0     H28882  -1.234   6.048   9.403  0.2202 -0.4041  2.8332
  955MOL0     H28883  -1.413   6.053   9.572  0.8253 -0.0381  0.4633
  955MOL0     H28884  -1.285   5.934   9.592  1.7474 -0.3060 -2.8858
  955MOL0     H28885  -1.600   6.071   9.420 -2.0808  0.9460 -2.3418
  955MOL0     H28886  -1.921   6.161   9.411  0.9915  0.9555  1.0880
  955MOL0     H28887  -1.760   6.206   9.362  1.0763 -0.2960 -1.1397
  955MOL0     H28888  -1.870   6.115   9.250 -0.3880 -0.8210 -0.1320
  955MOL0     H28889  -2.232   5.746   9.625  1.3831 -2.2033 -0.9145
  955MOL0     H28890  -2.476   5.733   9.634  0.3147 -0.0097  0.0393
  955MOL0     H28891  -2.695   5.705   9.226 -1.0132 -2.3620  0.8790
  955MOL0     H28892  -2.811   5.691   9.343  0.1343  0.0451  0.7196
  955MOL0     H28893  -2.747   5.902   9.469 -0.6016 -0.2200 -0.0641
  955MOL0     H28894  -2.634   5.932   9.341 -0.0018  1.3926  0.9689
  955MOL0     H28895  -2.945   5.934   9.313 -0.9343  3.1553  0.3939
  955MOL0     H28896  -2.829   5.932   9.179 -1.9591  1.9638 -0.5246
  955MOL0     H28897  -2.860   6.150   9.389 -1.2943  1.8612 -0.1459
  955MOL0     H28898  -2.713   6.124   9.288  1.0788 -3.8040  1.6208
  955MOL0     H28899  -2.833   6.149   9.079  1.6596  0.1576  1.5363
  955MOL0     H28900  -2.873   6.289   9.182 -0.8904  0.2682 -1.8953
  955MOL0     H28901  -3.061   6.060   9.172  1.1515  0.0236  0.9037
  955MOL0     H28902  -3.077   6.223   9.254  0.1491  1.1082 -0.4484
  955MOL0     H28903  -3.202   6.225   9.046 -0.5010  2.8799  1.8593
  955MOL0     H28904  -3.057   6.186   8.947  1.3808 -1.2727 -0.0997
  955MOL0     H28905  -3.123   6.425   8.934 -1.3067  3.9083  2.0853
  955MOL0     H28906  -2.954   6.392   8.998  0.7996 -2.2259  1.0437
  955MOL0     H28907  -2.464   5.684   9.199  4.6604  0.6243 -1.8167
  955MOL0     H28908  -2.234   5.719   9.206  1.1357 -0.6770  1.0611
  955MOL0     H28909  -1.868   5.660   9.506 -0.2837 -0.1179 -0.6422
  955MOL0     H28910  -1.628   5.667   9.563  1.0452  0.9597 -0.5176
  955MOL0     H28911  -0.153   5.293   8.548 -0.3323  0.2950 -0.7503
  955MOL0     H28912   0.070   5.340   8.479 -0.2169  0.4763 -0.7872
  955MOL0     H28913   0.492   5.649   8.395  1.6183  3.0982  3.1132
  955MOL0     H28914   0.727   5.622   8.375 -1.1668 -0.6670 -1.5117
  955MOL0     H28915   0.951   5.434   8.703 -1.5244 -0.6288 -0.0558
  955MOL0     H28916   0.951   5.303   8.597  1.1241  0.3339 -0.5765
  955MOL0     H28917   1.140   5.543   8.591 -0.3033 -0.1164  0.0329
  955MOL0     H28918   1.133   5.431   8.448 -0.1690 -2.3833 -0.0017
  955MOL0     H28919   1.173   5.241   8.588 -0.7361 -0.1256  1.0912
  955MOL0     H28920   1.189   5.333   8.729 -3.6992 -0.0563  0.4438
  955MOL0     H28921   1.388   5.455   8.633  0.5360  0.0359  0.0552
  955MOL0     H28922   1.359   5.362   8.481 -1.8401  0.8205  0.3334
  955MOL0     H28923   1.603   5.158   8.768  0.6488 -0.9763  0.0041
  955MOL0     H28924   0.714   5.307   8.673  0.4510 -0.0999 -0.0549
  955MOL0     H28925   0.483   5.304   8.667  0.1438 -0.9492 -1.3383
  956MOL0     O28926   2.581  10.302   9.772 -0.1722  0.5024 -0.1858
  956MOL0     C28927   2.622  10.186   9.756 -0.1982 -0.0066 -0.3412
  956MOL0     O28928   2.580  10.092   9.661  1.0243 -0.3945  0.2237
  956MOL0     C28929   2.473  10.129   9.585  0.0985  0.0341 -0.8426
  956MOL0     C28930   2.347  10.131   9.656 -0.0490  0.6033  0.6709
  956MOL0     C28931   2.224  10.163   9.582 -0.3524 -0.1962  0.2675
  956MOL0     C28932   2.227  10.186   9.443  0.2211  0.8880 -0.0150
  956MOL0     O28933   2.106  10.225   9.382 -0.5604 -0.4467  0.3975
  956MOL0     C28934   2.118  10.279   9.251 -0.3912  0.2951 -0.5751
  956MOL0     C28935   2.088  10.166   9.153 -0.0235 -0.2609 -0.0599
  956MOL0     C28936   1.959  10.087   9.174  0.3850  0.4690 -0.0196
  956MOL0     C28937   1.835  10.170   9.137  0.3766 -0.6088  0.0208
  956MOL0     C28938   1.802  10.210   8.992 -0.4220 -0.7991 -0.3763
  956MOL0     C28939   1.767  10.096   8.909  0.1194  0.2325 -0.0198
  956MOL0     C28940   1.768  10.130   8.757  0.0244 -0.4258  0.3809
  956MOL0     C28941   1.769  10.018   8.645  0.1604  0.3337 -0.2741
  956MOL0     N28942   1.652   9.930   8.645  0.4588 -0.2040  0.2783
  956MOL0     C28943   1.527   9.981   8.684  0.1023 -0.0422  0.0605
  956MOL0     C28944   1.439   9.898   8.624  0.9034  0.9643  0.9853
  956MOL0     C28945   1.292   9.917   8.638  0.6799 -0.1476 -0.2376
  956MOL0     C28946   1.201   9.830   8.554 -0.1767  0.1352  0.1713
  956MOL0     C28947   1.061   9.883   8.537 -0.0588  0.2189  0.1843
  956MOL0     C28948   0.975   9.808   8.441 -0.1593 -0.1379 -0.1944
  956MOL0     O28949   0.841   9.858   8.452  0.3168 -0.4286 -0.1442
  956MOL0     C28950   0.784   9.962   8.372 -0.3636  0.0246  0.8058
  956MOL0     C28951   0.864  10.031   8.280  0.2824 -0.8356 -0.0952
  956MOL0     C28952   0.808  10.143   8.209 -0.3589 -0.9949 -0.5469
  956MOL0     C28953   0.899  10.203   8.096  0.3719  0.3084 -0.3530
  956MOL0     C28954   0.681  10.193   8.231  0.5660 -0.2930  0.2220
  956MOL0     C28955   0.617  10.309   8.157  0.2779 -0.0052 -0.2626
  956MOL0     O28956   0.706  10.394   8.091  0.2678  0.6161 -0.5805
  956MOL0     C28957   0.659  10.505   8.021 -0.3968 -1.0871  0.2084
  956MOL0     C28958   0.767  10.573   7.951  0.2026  0.1271  0.1706
  956MOL0     C28959   0.737  10.678   7.875  0.0072 -0.7175  0.4234
  956MOL0     C28960   0.607  10.747   7.871  0.7736  0.4666  0.0285
  956MOL0     O28961   0.568  10.862   7.800 -0.0080  0.5169  0.2467
  956MOL0     C28962   0.662  10.914   7.709  0.4784  0.2255 -0.4440
  956MOL0     C28963   0.602  11.024   7.630 -0.0728 -0.3110  0.3751
  956MOL0     C28964   0.491  10.985   7.545  0.6801  0.1390 -0.5581
  956MOL0     C28965   0.417  11.100   7.477  1.1397 -0.1070  0.2450
  956MOL0     C28966   0.280  11.047   7.419 -0.1730 -0.2182  0.8217
  956MOL0     C28967   0.189  11.166   7.376 -0.1518 -0.0097  0.1082
  956MOL0     C28968   0.229  11.246   7.243  0.3600  0.0936 -0.6383
  956MOL0     C28969   0.106  11.323   7.194  0.0742 -0.1040 -0.3469
  956MOL0    Cl28970   0.055  11.452   7.307 -0.1055  0.3237 -0.2600
  956MOL0     C28971   0.510  10.683   7.950  0.2732  0.3035 -0.1479
  956MOL0     C28972   0.531  10.562   8.017  0.0736 -0.4632 -0.0830
  956MOL0     O28973   0.497  10.314   8.159 -0.6456 -0.2053  0.0520
  956MOL0     C28974   0.602  10.120   8.321 -0.3818  0.0276 -0.6582
  956MOL0     C28975   0.655  10.010   8.393 -0.0845 -0.2999  1.0131
  956MOL0     N28976   1.511   9.806   8.546  0.0064  0.0988 -0.1072
  956MOL0     N28977   1.633   9.834   8.550  0.2957  0.0086  0.3318
  956MOL0     C28978   2.351  10.164   9.378 -0.0181 -0.8275  0.7465
  956MOL0     C28979   2.471  10.147   9.443 -0.0096  0.4630  0.1767
  956MOL0     C28980   2.734  10.152   9.849  0.5500 -0.2531  0.6984
  956MOL0     C28981   2.779  10.237   9.952  0.3230 -0.3369  0.2675
  956MOL0     C28982   2.877  10.187  10.046  0.4871  0.8855  0.3032
  956MOL0     C28983   2.935  10.063  10.032  0.2933  0.5390 -0.2066
  956MOL0     O28984   3.033  10.030  10.125  0.0186 -1.0849  0.0058
  956MOL0     C28985   3.097   9.902  10.106  0.5733  0.3559  0.0374
  956MOL0     C28986   3.174   9.869  10.233 -0.2670  0.1419  0.6180
  956MOL0     C28987   3.296   9.960  10.266  0.4353 -0.1559  0.0279
  956MOL0     C28988   3.350   9.931  10.406 -1.0369 -0.0641  1.1847
  956MOL0     C28989   3.455   9.827  10.393  0.7179 -0.1465  0.3034
  956MOL0     C28990   3.553   9.759  10.375 -0.2952  0.0031 -0.8394
  956MOL0     C28991   2.907   9.988   9.917  0.4050 -0.2029  0.5148
  956MOL0     C28992   2.802  10.028   9.828  0.2677 -0.3595  0.5639
  956MOL0     H28993   2.339  10.108   9.762  2.1234 -0.3086  0.6862
  956MOL0     H28994   2.125  10.180   9.622 -0.5726  0.1274 -0.3914
  956MOL0     H28995   2.047  10.362   9.253  0.1940  0.9201 -2.9191
  956MOL0     H28996   2.214  10.326   9.229  0.1159  0.7403  2.1899
  956MOL0     H28997   2.073  10.218   9.058  0.9788  1.3458  0.6261
  956MOL0     H28998   2.174  10.099   9.148  2.2038  2.2208  2.2912
  956MOL0     H28999   1.966   9.992   9.120 -0.8770  0.4017 -0.0957
  956MOL0     H29000   1.947  10.062   9.279  0.0239 -0.9424 -0.3719
  956MOL0     H29001   1.745  10.127   9.183 -0.5415  0.6135 -0.5947
  956MOL0     H29002   1.843  10.260   9.198 -0.4751 -1.9456  2.2655
  956MOL0     H29003   1.715  10.276   8.989  0.7601  0.8933  1.0910
  956MOL0     H29004   1.887  10.268   8.955  0.4225 -1.2684  0.7829
  956MOL0     H29005   1.827  10.009   8.937 -1.1853  0.1370  2.8764
  956MOL0     H29006   1.668  10.061   8.942  0.7038 -1.2107  0.2623
  956MOL0     H29007   1.692  10.204   8.729 -1.2136 -2.1618 -1.0909
  956MOL0     H29008   1.869  10.167   8.737  0.1794 -1.4234 -0.8045
  956MOL0     H29009   1.858   9.954   8.648 -0.8511 -1.1070  2.1760
  956MOL0     H29010   1.765  10.069   8.548  2.3910 -0.0197 -0.5946
  956MOL0     H29011   1.513  10.069   8.745  1.9817  0.6593 -0.4410
  956MOL0     H29012   1.267   9.918   8.744  1.0674  0.0034 -0.1492
  956MOL0     H29013   1.273  10.021   8.610 -0.6258  0.3414  2.1858
  956MOL0     H29014   1.182   9.735   8.605 -3.3718  0.3216 -0.4855
  956MOL0     H29015   1.244   9.823   8.454  0.3230  0.5191  0.3561
  956MOL0     H29016   1.054   9.989   8.512 -1.2608  0.2186  0.4577
  956MOL0     H29017   1.006   9.873   8.631 -1.2641  1.8674 -0.3177
  956MOL0     H29018   0.981   9.699   8.452  0.8654 -0.0943 -0.2270
  956MOL0     H29019   1.015   9.817   8.340 -0.8913  0.9395 -0.4068
  956MOL0     H29020   0.965   9.994   8.261  1.5386  0.8598  2.5624
  956MOL0     H29021   0.952  10.296   8.120  0.1170  0.6193 -0.9665
  956MOL0     H29022   0.967  10.126   8.058 -1.6497 -1.2554 -0.9691
  956MOL0     H29023   0.835  10.219   8.009  0.9981  2.4024 -0.4896
  956MOL0     H29024   0.868  10.534   7.952  0.1129 -0.1075  0.0927
  956MOL0     H29025   0.827  10.716   7.828  1.0284  0.1730  2.8986
  956MOL0     H29026   0.736  10.953   7.780 -0.0032  2.2236 -0.9820
  956MOL0     H29027   0.709  10.836   7.647  1.2018 -0.4944  0.9661
  956MOL0     H29028   0.576  11.111   7.690 -3.3305  0.0255 -1.3192
  956MOL0     H29029   0.683  11.058   7.565 -1.2359  0.2852 -0.8016
  956MOL0     H29030   0.416  10.935   7.606  0.0538  0.2538 -1.2111
  956MOL0     H29031   0.536  10.924   7.466  1.9299 -2.4121  2.0022
  956MOL0     H29032   0.393  11.173   7.556  0.9333  2.1194 -1.7461
  956MOL0     H29033   0.481  11.158   7.410 -0.9280  0.9860 -0.8606
  956MOL0     H29034   0.226  10.998   7.501  0.0619  1.4477  2.0113
  956MOL0     H29035   0.287  10.967   7.345  2.9983 -0.7408  1.5275
  956MOL0     H29036   0.096  11.113   7.354 -1.0672  1.6337 -0.1410
  956MOL0     H29037   0.157  11.238   7.453  0.5785  3.3087 -2.4314
  956MOL0     H29038   0.267  11.181   7.164  1.4290  1.1969 -1.0677
  956MOL0     H29039   0.299  11.328   7.262 -0.4235  0.9646 -1.4355
  956MOL0     H29040   0.026  11.250   7.181 -0.9618  1.1594 -1.3454
  956MOL0     H29041   0.119  11.373   7.097  0.5594 -0.8135 -0.6498
  956MOL0     H29042   0.415  10.733   7.970 -0.7432 -0.9777 -1.5291
  956MOL0     H29043   0.453  10.530   8.084  0.0803  1.7037  1.0558
  956MOL0     H29044   0.501  10.150   8.347  0.9030  2.1316  2.6283
  956MOL0     H29045   0.591   9.964   8.467 -1.4975  3.8763  2.7129
  956MOL0     H29046   2.361  10.180   9.271  0.0281  1.2399  1.0193
  956MOL0     H29047   2.559  10.130   9.382 -1.1067 -0.3875 -1.2292
  956MOL0     H29048   2.732  10.333   9.969  1.6272  0.1061  1.5957
  956MOL0     H29049   2.916  10.253  10.123  0.7691  2.5323 -1.1873
  956MOL0     H29050   3.023   9.823  10.086 -1.1758  1.4081  1.9781
  956MOL0     H29051   3.176   9.913  10.031  0.6384  0.3013  0.0977
  956MOL0     H29052   3.218   9.771  10.210  1.4084  0.0223  3.7962
  956MOL0     H29053   3.102   9.860  10.315 -0.8763 -1.4285 -0.0294
  956MOL0     H29054   3.259  10.063  10.261  0.2970 -0.2614 -1.4589
  956MOL0     H29055   3.372   9.959  10.188 -0.6462 -4.6028 -1.2223
  956MOL0     H29056   3.271   9.898  10.474 -0.8735 -3.8823 -0.2198
  956MOL0     H29057   3.404  10.021  10.435  0.9830 -0.5558 -0.7683
  956MOL0     H29058   3.641   9.706  10.345  0.5807  1.0426 -0.2126
  956MOL0     H29059   2.968   9.900   9.903 -1.0995 -1.0745 -0.9348
  956MOL0     H29060   2.783   9.951   9.754  0.4981 -1.7824  1.9300
  957MOL0     O29061   7.617  11.016   1.036 -0.3452 -0.5276 -0.7801
  957MOL0     C29062   7.699  11.074   0.967  0.7885  0.7104  0.4625
  957MOL0     O29063   7.683  11.177   0.882 -1.0728 -0.0619  0.0506
  957MOL0     C29064   7.558  11.243   0.872  0.0659 -0.0808 -0.8688
  957MOL0     C29065   7.442  11.213   0.945  0.1829  0.1333  0.2094
  957MOL0     C29066   7.330  11.300   0.955 -0.2366  1.2147 -0.5996
  957MOL0     C29067   7.341  11.422   0.901  0.6135 -0.0452  0.6935
  957MOL0     O29068   7.226  11.498   0.910  0.0753 -0.3359  0.3571
  957MOL0     C29069   7.230  11.637   0.863 -0.3500 -0.2722 -0.1258
  957MOL0     C29070   7.084  11.702   0.860 -0.8441 -0.0312  0.5663
  957MOL0     C29071   7.028  11.707   1.005  0.9633 -0.1039  0.0839
  957MOL0     C29072   6.918  11.815   1.024  0.0614 -0.2373  0.0969
  957MOL0     C29073   6.903  11.851   1.178  0.7270 -0.1259  0.4784
  957MOL0     C29074   6.766  11.910   1.212  0.0532  0.6719 -0.8762
  957MOL0     C29075   6.766  11.971   1.357  0.3962 -0.5313 -0.2819
  957MOL0     C29076   6.635  12.039   1.404 -0.3441  0.1021  0.2390
  957MOL0     N29077   6.638  12.076   1.545 -0.0120  0.4456  0.1643
  957MOL0     C29078   6.661  12.002   1.658 -0.3721 -0.0910 -0.2323
  957MOL0     C29079   6.667  12.087   1.766  0.4730 -0.3770  0.2088
  957MOL0     C29080   6.682  12.038   1.906 -0.8229 -0.4439  0.0557
  957MOL0     C29081   6.820  12.084   1.943 -0.8223 -0.1026 -0.4155
  957MOL0     C29082   6.931  11.969   1.922 -0.1086 -0.3802  0.0495
  957MOL0     C29083   7.076  12.027   1.946  1.0301  1.1486  0.2847
  957MOL0     O29084   7.166  11.935   1.878 -0.2280 -0.8975 -0.4547
  957MOL0     C29085   7.302  11.950   1.893 -0.6040 -0.2266 -0.7080
  957MOL0     C29086   7.356  12.053   1.966 -0.2967 -0.2876 -0.3270
  957MOL0     C29087   7.486  12.060   1.987 -0.6989  0.6338 -0.6837
  957MOL0     C29088   7.543  12.181   2.062  0.2107  0.1212 -0.8624
  957MOL0     C29089   7.578  11.955   1.949 -0.0988 -0.2163  0.2480
  957MOL0     C29090   7.726  11.950   1.962  0.5343  0.0080 -0.6724
  957MOL0     O29091   7.785  11.858   1.887  0.1015  0.5312 -0.3382
  957MOL0     C29092   7.921  11.874   1.864 -0.1451  0.3884  0.0566
  957MOL0     C29093   7.984  11.989   1.829 -0.1905 -1.2684 -0.1926
  957MOL0     C29094   8.121  11.986   1.816  0.3002  0.2766  0.2277
  957MOL0     C29095   8.197  11.863   1.824  0.6810 -0.2938 -0.0942
  957MOL0     O29096   8.324  11.841   1.781  0.2771 -0.8313 -0.0314
  957MOL0     C29097   8.403  11.961   1.785 -0.5006 -0.0934 -0.8786
  957MOL0     C29098   8.553  11.925   1.746  0.5084 -1.3214 -0.6594
  957MOL0     C29099   8.612  11.815   1.840  1.3553  0.0768  0.7848
  957MOL0     C29100   8.767  11.813   1.840  0.1271  0.4007 -0.1653
  957MOL0     C29101   8.825  11.749   1.718  0.2447  0.8423  0.5564
  957MOL0     C29102   8.972  11.720   1.738 -0.5381 -0.5515  0.1493
  957MOL0     C29103   9.058  11.844   1.741  0.1535 -0.0727 -0.1063
  957MOL0     C29104   9.209  11.831   1.743 -0.0898  0.1329  0.1466
  957MOL0    Cl29105   9.271  11.678   1.818  0.1222 -0.3663 -0.0363
  957MOL0     C29106   8.131  11.743   1.859  0.5058 -0.9100 -0.9275
  957MOL0     C29107   7.994  11.751   1.866 -0.2640  0.2535  0.2577
  957MOL0     O29108   7.788  12.028   2.037  0.2337  0.3127 -1.2669
  957MOL0     C29109   7.516  11.847   1.889 -0.1909  0.5161  0.3271
  957MOL0     C29110   7.380  11.843   1.861 -0.1494  0.3944  0.1533
  957MOL0     N29111   6.637  12.208   1.716 -0.2389 -0.7113 -0.2738
  957MOL0     N29112   6.619  12.205   1.586 -0.4922 -0.1903 -0.5313
  957MOL0     C29113   7.459  11.470   0.842  0.0356 -0.2332 -1.0969
  957MOL0     C29114   7.560  11.375   0.821 -0.5687 -0.2185  0.7585
  957MOL0     C29115   7.829  11.008   0.977  0.3519  0.2552 -0.5537
  957MOL0     C29116   7.846  10.877   1.026 -0.4213  0.5726  0.3344
  957MOL0     C29117   7.966  10.799   1.018 -0.1710 -0.4589 -0.1577
  957MOL0     C29118   8.079  10.862   0.975  0.2891  0.2553 -0.1546
  957MOL0     O29119   8.191  10.781   0.994 -0.7232  0.4158  0.0587
  957MOL0     C29120   8.313  10.849   0.990 -0.0600 -0.8777  0.5255
  957MOL0     C29121   8.417  10.744   1.046  0.2259 -0.5941 -0.5182
  957MOL0     C29122   8.460  10.630   0.944  0.7402 -0.0950 -0.0970
  957MOL0     C29123   8.522  10.671   0.811 -0.2797 -0.1991 -0.5820
  957MOL0     C29124   8.635  10.752   0.850 -0.0749 -0.4253 -0.2778
  957MOL0     C29125   8.740  10.819   0.876  0.4343  0.5692  0.1239
  957MOL0     C29126   8.072  10.999   0.934 -0.1345  0.1415  0.2755
  957MOL0     C29127   7.944  11.073   0.936  0.2486  1.0781  1.0129
  957MOL0     H29128   7.421  11.115   0.986 -0.3580 -0.5415 -1.5725
  957MOL0     H29129   7.241  11.270   1.010  0.4431 -0.0089 -0.1262
  957MOL0     H29130   7.293  11.695   0.931 -3.2569  3.2462 -0.1262
  957MOL0     H29131   7.268  11.650   0.762 -1.1809  1.7554 -0.2284
  957MOL0     H29132   7.101  11.802   0.821 -0.7786 -0.3929 -0.3493
  957MOL0     H29133   7.013  11.649   0.796 -0.2282  0.8276 -0.8766
  957MOL0     H29134   6.980  11.612   1.032  0.9291  0.1502  0.9654
  957MOL0     H29135   7.109  11.721   1.077  0.9515  2.5414 -0.3191
  957MOL0     H29136   6.938  11.895   0.953  0.0716 -0.5455 -0.2466
  957MOL0     H29137   6.822  11.781   0.986 -0.2819 -0.6408  1.2641
  957MOL0     H29138   6.910  11.758   1.236 -0.6803  1.0034  2.6007
  957MOL0     H29139   6.984  11.920   1.203 -1.0495  1.6914  1.4890
  957MOL0     H29140   6.739  11.987   1.139 -1.2270  0.2782 -0.8448
  957MOL0     H29141   6.690  11.831   1.214  0.7185  0.0411  1.2472
  957MOL0     H29142   6.789  11.894   1.431  4.4084  1.1799  0.4906
  957MOL0     H29143   6.838  12.053   1.365  1.5592 -1.5253 -0.2642
  957MOL0     H29144   6.557  11.963   1.391  0.0358 -0.1488 -0.6150
  957MOL0     H29145   6.613  12.117   1.330  1.3187  0.9941  0.6337
  957MOL0     H29146   6.672  11.894   1.666  0.5135  0.1172  2.5823
  957MOL0     H29147   6.611  12.096   1.966 -2.3027 -1.7491 -0.3814
  957MOL0     H29148   6.664  11.930   1.908 -0.7924 -0.4379  0.6696
  957MOL0     H29149   6.812  12.103   2.051  0.2248 -0.2725 -0.2975
  957MOL0     H29150   6.852  12.173   1.889 -0.7253  1.2827  1.7882
  957MOL0     H29151   6.921  11.934   1.819  1.7255 -0.0412 -0.2767
  957MOL0     H29152   6.909  11.892   1.996  1.0433  1.0633  2.0100
  957MOL0     H29153   7.087  12.037   2.054 -0.6019  0.3321  0.5636
  957MOL0     H29154   7.095  12.124   1.899  2.7017 -0.2448 -2.1062
  957MOL0     H29155   7.297  12.137   2.002  1.5063  1.1737 -0.6673
  957MOL0     H29156   7.618  12.233   2.001 -2.0054  1.7453 -2.3658
  957MOL0     H29157   7.478  12.265   2.089  0.1462 -0.3068  0.3888
  957MOL0     H29158   7.589  12.146   2.155  2.4485  1.0025 -1.5820
  957MOL0     H29159   7.925  12.080   1.828 -2.1653 -2.4392 -2.8701
  957MOL0     H29160   8.158  12.081   1.780 -2.8766  0.4706 -3.1373
  957MOL0     H29161   8.368  12.039   1.717 -0.2249  0.6760 -0.1542
  957MOL0     H29162   8.396  11.999   1.887 -1.2680  0.9958 -1.3214
  957MOL0     H29163   8.551  11.904   1.639  0.6040 -0.5902 -0.8091
  957MOL0     H29164   8.622  12.008   1.766 -0.9383 -0.5525  1.5140
  957MOL0     H29165   8.568  11.719   1.809  3.6814 -1.1115  0.9631
  957MOL0     H29166   8.569  11.834   1.939 -1.1754  0.8455 -0.3742
  957MOL0     H29167   8.805  11.914   1.854  3.3886 -0.5998 -0.9251
  957MOL0     H29168   8.788  11.765   1.936 -1.7905  0.8323  0.5166
  957MOL0     H29169   8.812  11.811   1.629  0.1918 -1.6418 -1.2709
  957MOL0     H29170   8.775  11.655   1.689 -2.5046  2.0692  0.9707
  957MOL0     H29171   8.972  11.668   1.834 -0.1026  0.0010  0.4520
  957MOL0     H29172   9.013  11.658   1.658 -0.3965 -0.1595 -0.0834
  957MOL0     H29173   9.031  11.895   1.833  0.4803 -1.1754  0.6177
  957MOL0     H29174   9.027  11.914   1.663 -0.2517  1.4303  1.3579
  957MOL0     H29175   9.264  11.915   1.787  0.5409 -1.2750  2.1731
  957MOL0     H29176   9.240  11.829   1.638 -1.0961 -2.4394 -0.1645
  957MOL0     H29177   8.188  11.650   1.859 -1.6696 -2.3415 -2.0393
  957MOL0     H29178   7.945  11.658   1.892 -0.8433  0.5306  0.1752
  957MOL0     H29179   7.572  11.760   1.855 -0.0178 -0.2393  2.3787
  957MOL0     H29180   7.343  11.747   1.827  0.5174 -0.9527  2.8965
  957MOL0     H29181   7.472  11.576   0.824 -0.1715  0.3521  1.7687
  957MOL0     H29182   7.653  11.401   0.771 -1.5910  0.9880 -0.6013
  957MOL0     H29183   7.758  10.825   1.063  0.7939 -2.3447 -0.5749
  957MOL0     H29184   7.975  10.704   1.069 -0.5352  0.8431  2.5465
  957MOL0     H29185   8.345  10.889   0.893  1.2037  0.7692  1.5819
  957MOL0     H29186   8.315  10.938   1.053  0.1973  0.2765 -1.0392
  957MOL0     H29187   8.372  10.697   1.134  1.1685 -1.9933 -0.7521
  957MOL0     H29188   8.503  10.796   1.089 -0.6403 -0.1229  0.6967
  957MOL0     H29189   8.376  10.565   0.917 -1.3834  2.1924  0.5932
  957MOL0     H29190   8.528  10.571   1.005  1.4372  1.3300  0.5666
  957MOL0     H29191   8.445  10.726   0.757  0.7478  3.8257  1.6843
  957MOL0     H29192   8.553  10.578   0.763  0.1081  0.3014 -1.3143
  957MOL0     H29193   8.835  10.856   0.907  1.5476 -2.2237  0.3666
  957MOL0     H29194   8.163  11.045   0.897 -1.2553 -0.0131 -3.0071
  957MOL0     H29195   7.932  11.177   0.907 -1.8408  0.1376 -2.1447
  958MOL0     O29196   5.334   6.363  10.877  0.4942 -0.3366 -0.1029
  958MOL0     C29197   5.403   6.375  10.981 -0.1001  0.5288 -0.3799
  958MOL0     O29198   5.369   6.341  11.106 -0.0129 -0.4449 -0.2391
  958MOL0     C29199   5.233   6.308  11.122 -0.3892 -0.5944 -0.3577
  958MOL0     C29200   5.129   6.394  11.071  0.1672  1.6590  0.1066
  958MOL0     C29201   4.990   6.355  11.081 -0.4303 -0.4260 -0.0920
  958MOL0     C29202   4.954   6.239  11.150  0.2312 -0.1602  0.8883
  958MOL0     O29203   4.815   6.213  11.169  0.5796  0.1612  0.0989
  958MOL0     C29204   4.776   6.176  11.301 -0.3166 -0.3416  0.0602
  958MOL0     C29205   4.616   6.166  11.299  1.3131 -0.0390  0.6952
  958MOL0     C29206   4.542   6.286  11.284  0.0931  0.3225 -0.1497
  958MOL0     C29207   4.395   6.259  11.253 -0.0854 -0.0513  0.4615
  958MOL0     C29208   4.315   6.391  11.262 -0.0887  0.2599 -0.1519
  958MOL0     C29209   4.167   6.355  11.249  0.9994  0.2004  0.2667
  958MOL0     C29210   4.089   6.473  11.317 -0.1732 -0.9515 -0.6417
  958MOL0     C29211   3.932   6.448  11.329 -0.3214 -0.1313 -0.9931
  958MOL0     N29212   3.865   6.573  11.357  0.9575 -0.6451  0.2516
  958MOL0     C29213   3.774   6.645  11.278 -0.5035  0.2723  1.0157
  958MOL0     C29214   3.745   6.755  11.352 -0.3817  0.0852  0.1265
  958MOL0     C29215   3.660   6.874  11.313  0.0039 -0.1453 -0.3539
  958MOL0     C29216   3.509   6.846  11.351 -0.1268 -0.6677  0.0501
  958MOL0     C29217   3.480   6.853  11.499 -0.0457  0.1540 -0.2440
  958MOL0     C29218   3.333   6.813  11.524 -0.9079 -0.1697  0.3279
  958MOL0     O29219   3.250   6.902  11.456 -0.3000  0.0072 -0.0211
  958MOL0     C29220   3.125   6.911  11.506  0.5238  0.4335  0.0021
  958MOL0     C29221   3.060   6.825  11.600 -0.2011 -0.6645 -0.1409
  958MOL0     C29222   2.925   6.847  11.638  0.4220  0.9547 -0.7665
  958MOL0     C29223   2.868   6.744  11.735  0.3535 -0.1131  0.4323
  958MOL0     C29224   2.858   6.960  11.593  0.3124  0.3280 -0.8474
  958MOL0     C29225   2.714   6.982  11.634  0.2133  0.2416  0.4957
  958MOL0     O29226   2.622   7.037  11.547 -0.1359  0.8678  0.5850
  958MOL0     C29227   2.506   7.088  11.594 -0.4173  0.4529  0.1413
  958MOL0     C29228   2.398   7.045  11.513  0.0581  0.4037  0.3228
  958MOL0     C29229   2.272   7.092  11.555 -0.2349  0.8357  0.9597
  958MOL0     C29230   2.254   7.182  11.656 -0.4147 -0.6062  0.1489
  958MOL0     O29231   2.131   7.218  11.696  0.0906  0.2457  0.0932
  958MOL0     C29232   2.071   7.296  11.595  0.1440 -0.3766 -0.5103
  958MOL0     C29233   1.939   7.351  11.645  0.9361  0.0956 -0.0345
  958MOL0     C29234   1.946   7.455  11.764 -0.1143 -0.9863 -0.9623
  958MOL0     C29235   1.813   7.530  11.776  0.3079 -0.5868 -0.3808
  958MOL0     C29236   1.804   7.597  11.914  0.9310  0.4840  0.5375
  958MOL0     C29237   1.664   7.603  11.984  0.3061  0.0357 -0.6879
  958MOL0     C29238   1.542   7.645  11.895  0.2011  0.1879 -0.3886
  958MOL0     C29239   1.409   7.656  11.973 -0.6562  0.6587 -0.5778
  958MOL0    Cl29240   1.280   7.676  11.842 -0.2839 -0.1183  0.4952
  958MOL0     C29241   2.367   7.224  11.727 -0.2985 -0.8571  0.2284
  958MOL0     C29242   2.493   7.177  11.699  0.1612 -0.2488  0.4821
  958MOL0     O29243   2.692   6.956  11.755  0.9906  0.6978 -0.0627
  958MOL0     C29244   2.922   7.051  11.511 -0.2514 -0.3861 -0.0643
  958MOL0     C29245   3.046   7.019  11.461  0.2717 -0.8690 -0.0538
  958MOL0     N29246   3.813   6.756  11.471 -0.2953 -0.2228  0.0773
  958MOL0     N29247   3.881   6.647  11.467 -0.0951  0.1564 -0.1493
  958MOL0     C29248   5.062   6.156  11.200  0.7559 -0.6718  0.6938
  958MOL0     C29249   5.200   6.194  11.199  0.6329  0.4660  0.4061
  958MOL0     C29250   5.522   6.466  10.984 -0.1606 -0.0801 -0.2770
  958MOL0     C29251   5.606   6.487  11.090  0.0630  0.3873  0.3383
  958MOL0     C29252   5.705   6.574  11.082  0.2953 -0.6281 -0.1938
  958MOL0     C29253   5.732   6.649  10.977  0.5150 -0.3642  0.2106
  958MOL0     O29254   5.832   6.749  10.963  0.7764 -0.2604 -0.2662
  958MOL0     C29255   5.903   6.780  11.087  0.4426 -0.2147 -0.5009
  958MOL0     C29256   6.021   6.872  11.056 -0.3082 -0.2262  0.3594
  958MOL0     C29257   6.142   6.832  10.960 -0.1431  0.9842  0.0234
  958MOL0     C29258   6.195   6.693  11.005  0.0266  0.4936  0.5200
  958MOL0     C29259   6.324   6.664  10.948  0.5596  0.3462  0.1186
  958MOL0     C29260   6.428   6.632  10.908  0.1248 -0.0427  0.0736
  958MOL0     C29261   5.661   6.625  10.868  0.6577  0.5274 -0.6939
  958MOL0     C29262   5.556   6.533  10.866 -0.2560 -0.5112 -0.4133
  958MOL0     H29263   5.160   6.482  11.016  0.3342  1.0076 -0.8746
  958MOL0     H29264   4.917   6.416  11.029  0.2687  0.0980 -0.4883
  958MOL0     H29265   4.820   6.080  11.329  0.9797 -0.2958 -1.6200
  958MOL0     H29266   4.815   6.247  11.373 -0.7967 -0.6771  0.6572
  958MOL0     H29267   4.577   6.088  11.233 -0.0315  0.5507  0.7456
  958MOL0     H29268   4.578   6.126  11.394 -0.8491 -1.5843 -0.7097
  958MOL0     H29269   4.552   6.353  11.370 -3.0467 -1.2397  1.6027
  958MOL0     H29270   4.584   6.338  11.198 -4.2137  1.0514 -2.0768
  958MOL0     H29271   4.396   6.231  11.147  1.2884 -0.8448  0.6631
  958MOL0     H29272   4.349   6.189  11.323 -1.4095  1.2293  0.9137
  958MOL0     H29273   4.328   6.430  11.364  1.9250  3.0233 -1.3423
  958MOL0     H29274   4.348   6.464  11.189  2.2897 -1.2370 -0.6847
  958MOL0     H29275   4.133   6.343  11.146 -0.6600 -2.1470  0.9974
  958MOL0     H29276   4.142   6.259  11.296 -1.6999  1.2133  1.1162
  958MOL0     H29277   4.125   6.498  11.417 -0.6729  1.3300 -0.9825
  958MOL0     H29278   4.108   6.559  11.251  0.4890  0.9495  1.8936
  958MOL0     H29279   3.904   6.386  11.415 -0.6775  0.5059 -0.6389
  958MOL0     H29280   3.892   6.413  11.233 -1.0974  0.0892 -0.7606
  958MOL0     H29281   3.746   6.624  11.175 -2.8070  1.0472  1.4220
  958MOL0     H29282   3.701   6.960  11.367 -0.2609 -0.7994  0.9309
  958MOL0     H29283   3.675   6.891  11.206 -0.2157  2.6839 -0.0276
  958MOL0     H29284   3.472   6.749  11.315 -0.3338 -0.2894 -0.7939
  958MOL0     H29285   3.454   6.926  11.300  2.5486  1.5331  0.3787
  958MOL0     H29286   3.501   6.947  11.551 -2.6851 -0.8407  2.9834
  958MOL0     H29287   3.529   6.770  11.552  0.1169 -0.0221 -0.6631
  958MOL0     H29288   3.319   6.803  11.632 -1.3623 -1.1334  0.1861
  958MOL0     H29289   3.313   6.712  11.487 -1.1305 -0.3916  1.0444
  958MOL0     H29290   3.115   6.736  11.627  1.0330 -0.2633 -1.2453
  958MOL0     H29291   2.773   6.699  11.705  1.4642 -3.1311  1.0508
  958MOL0     H29292   2.943   6.665  11.748  0.8722  0.3057  0.0206
  958MOL0     H29293   2.857   6.798  11.829 -2.6201  1.6524 -0.8157
  958MOL0     H29294   2.423   6.981  11.429  0.7447 -1.9907  2.2244
  958MOL0     H29295   2.188   7.065  11.491 -1.2020  4.2166  0.6288
  958MOL0     H29296   2.129   7.385  11.568 -0.1471  0.7697  2.2488
  958MOL0     H29297   2.052   7.240  11.504  1.7080 -0.0625 -1.0686
  958MOL0     H29298   1.897   7.402  11.558 -2.9364  0.2051  1.6948
  958MOL0     H29299   1.875   7.264  11.664 -1.7229  1.8131 -0.6148
  958MOL0     H29300   2.032   7.520  11.748  0.2894 -1.5012 -0.9387
  958MOL0     H29301   1.964   7.403  11.859 -0.4822  1.0667  0.2735
  958MOL0     H29302   1.804   7.608  11.699 -0.1579  1.5174  1.6832
  958MOL0     H29303   1.728   7.461  11.774 -1.0383  1.0257 -1.2323
  958MOL0     H29304   1.848   7.697  11.909 -0.3874  1.0567 -3.8841
  958MOL0     H29305   1.861   7.533  11.982 -1.2170 -2.6382 -0.3970
  958MOL0     H29306   1.652   7.503  12.026  2.1544  0.2788  0.5617
  958MOL0     H29307   1.670   7.671  12.069  2.9574  0.8519 -1.4331
  958MOL0     H29308   1.531   7.572  11.814  2.3376 -1.3281  0.6165
  958MOL0     H29309   1.560   7.735  11.835  0.1478  1.9228  2.0631
  958MOL0     H29310   1.405   7.731  12.053  0.6173 -0.2796  0.4015
  958MOL0     H29311   1.377   7.566  12.026 -0.8750  0.4849 -0.9992
  958MOL0     H29312   2.347   7.278  11.818  0.3441 -2.9945  1.7144
  958MOL0     H29313   2.563   7.206  11.776  0.6596 -2.2087  0.8203
  958MOL0     H29314   2.872   7.145  11.488  2.7332  1.6700  1.2337
  958MOL0     H29315   3.083   7.098  11.397  0.3312  0.5423  1.6479
  958MOL0     H29316   5.038   6.066  11.255  1.7260 -0.0251  2.2606
  958MOL0     H29317   5.276   6.135  11.248  0.1849 -3.0138 -2.6722
  958MOL0     H29318   5.608   6.425  11.179  1.3118 -3.8958 -2.3428
  958MOL0     H29319   5.763   6.587  11.174  1.4228 -1.3589 -0.7768
  958MOL0     H29320   5.831   6.827  11.155 -0.1667 -0.0229 -1.2578
  958MOL0     H29321   5.951   6.695  11.135  1.4767  0.7062  0.1517
  958MOL0     H29322   6.060   6.883  11.157  0.4808 -0.5744  0.0981
  958MOL0     H29323   5.980   6.969  11.024 -1.1574 -0.1874  1.4831
  958MOL0     H29324   6.218   6.911  10.971 -1.2010  1.7820  2.4660
  958MOL0     H29325   6.112   6.813  10.857  2.2426 -1.5940 -0.3284
  958MOL0     H29326   6.127   6.611  10.979  2.7100 -1.6584 -0.2235
  958MOL0     H29327   6.204   6.689  11.114  0.7095  1.7532  0.5275
  958MOL0     H29328   6.526   6.602  10.878  0.3125 -1.1475  1.6152
  958MOL0     H29329   5.687   6.671  10.774  0.4430  2.8662  0.3099
  958MOL0     H29330   5.496   6.511  10.778 -2.4784  0.4075  0.7863
  959MOL0     O29331   8.419   4.898   7.660  0.7466  0.4134  0.6373
  959MOL0     C29332   8.431   5.021   7.655  0.5042 -0.0141  0.9651
  959MOL0     O29333   8.326   5.103   7.608 -0.7237 -0.1023  0.1272
  959MOL0     C29334   8.217   5.050   7.539 -0.4136  0.6976  0.5384
  959MOL0     C29335   8.102   5.124   7.569 -0.5584  0.3914 -0.1665
  959MOL0     C29336   7.985   5.082   7.504 -0.0106 -0.7605 -0.0081
  959MOL0     C29337   7.970   4.974   7.422 -0.2518 -0.0465 -0.1629
  959MOL0     O29338   7.845   4.953   7.367 -0.4196  0.1183 -0.3075
  959MOL0     C29339   7.800   4.824   7.336 -0.8139 -0.3868 -0.8038
  959MOL0     C29340   7.676   4.818   7.258 -0.2719 -0.2303  0.8027
  959MOL0     C29341   7.635   4.678   7.221 -0.1601  1.0435 -0.6928
  959MOL0     C29342   7.519   4.677   7.129 -0.3087  0.1393  0.1997
  959MOL0     C29343   7.452   4.543   7.112  0.8000  0.3800  0.4394
  959MOL0     C29344   7.310   4.552   7.045  0.5285  0.1230  0.7010
  959MOL0     C29345   7.208   4.638   7.122 -0.6613 -0.6790 -0.1403
  959MOL0     C29346   7.195   4.599   7.275 -0.2088 -0.5076  0.6044
  959MOL0     N29347   7.073   4.654   7.327 -0.7713  0.6332 -0.6685
  959MOL0     C29348   6.950   4.599   7.305 -0.0073  0.1866 -0.4888
  959MOL0     C29349   6.861   4.688   7.341 -0.0129  0.2746 -0.1695
  959MOL0     C29350   6.713   4.671   7.307  0.5706 -0.8952 -0.9974
  959MOL0     C29351   6.693   4.613   7.154 -0.2495 -0.7024 -0.5536
  959MOL0     C29352   6.545   4.627   7.103 -0.5880 -0.3029 -0.0757
  959MOL0     C29353   6.464   4.522   7.182  0.5236 -1.1703  0.3553
  959MOL0     O29354   6.348   4.498   7.102  0.0916 -0.7500 -0.1448
  959MOL0     C29355   6.238   4.576   7.138 -0.3460  1.2163  0.6330
  959MOL0     C29356   6.118   4.540   7.073 -0.2397  0.3709 -0.5798
  959MOL0     C29357   5.999   4.604   7.089  0.0025  0.9923 -0.2456
  959MOL0     C29358   5.880   4.535   7.026  1.1943  0.3284  0.2670
  959MOL0     C29359   5.996   4.718   7.173 -0.5157  0.0272 -0.3601
  959MOL0     C29360   5.873   4.801   7.195  0.0830 -0.3676  0.8729
  959MOL0     O29361   5.745   4.741   7.177  0.5157  0.0982  0.1554
  959MOL0     C29362   5.637   4.829   7.179 -0.3612  0.1601  0.7019
  959MOL0     C29363   5.605   4.894   7.298 -0.1476 -0.4283  0.1023
  959MOL0     C29364   5.501   4.983   7.308  0.8027 -0.7842  1.1651
  959MOL0     C29365   5.426   5.021   7.185  0.3013  0.1050 -0.6444
  959MOL0     O29366   5.312   5.098   7.177  0.0950  0.1133 -0.3013
  959MOL0     C29367   5.316   5.212   7.262 -0.5051 -0.0084  0.5894
  959MOL0     C29368   5.215   5.317   7.226 -0.7001  0.2063 -0.1357
  959MOL0     C29369   5.071   5.266   7.205  0.4927  0.5004  0.0934
  959MOL0     C29370   4.979   5.379   7.163  0.0268  0.3249  0.2061
  959MOL0     C29371   4.839   5.341   7.161 -0.3887  0.0983 -0.2629
  959MOL0     C29372   4.759   5.452   7.088  0.1435  0.3367  1.1834
  959MOL0     C29373   4.612   5.446   7.126 -0.1305  0.4169 -0.4154
  959MOL0     C29374   4.527   5.320   7.081 -0.5704  0.5387 -0.0570
  959MOL0    Cl29375   4.546   5.307   6.902  0.0626 -0.2983  0.0686
  959MOL0     C29376   5.456   4.950   7.069 -1.1854 -0.5902 -0.2329
  959MOL0     C29377   5.567   4.862   7.065  0.9108 -0.7149 -0.1752
  959MOL0     O29378   5.888   4.920   7.222 -0.5616 -0.3536 -0.4391
  959MOL0     C29379   6.112   4.758   7.239 -0.4154  0.8619 -0.1233
  959MOL0     C29380   6.235   4.688   7.225 -0.5032 -0.6377  0.3178
  959MOL0     N29381   6.935   4.805   7.372  0.1867  0.2109  0.2366
  959MOL0     N29382   7.061   4.781   7.366 -0.1697  0.4375 -0.7926
  959MOL0     C29383   8.085   4.900   7.398 -0.1779  0.1528 -0.3343
  959MOL0     C29384   8.214   4.941   7.449  0.6237  0.4585  0.4288
  959MOL0     C29385   8.551   5.091   7.708 -0.2610 -0.0609  0.3706
  959MOL0     C29386   8.554   5.226   7.732 -0.3500  0.4055 -0.8409
  959MOL0     C29387   8.670   5.286   7.783 -0.6596 -0.5015  0.5326
  959MOL0     C29388   8.787   5.213   7.820 -0.5523  0.1584  0.4777
  959MOL0     O29389   8.892   5.293   7.860 -0.4203 -0.1201 -0.3490
  959MOL0     C29390   9.011   5.224   7.890  0.1766 -0.7128  0.2740
  959MOL0     C29391   9.109   5.328   7.950  0.5160  0.3814 -1.0367
  959MOL0     C29392   9.182   5.408   7.837 -0.0464  0.0043  0.0268
  959MOL0     C29393   9.242   5.542   7.879  0.0501 -0.2410  0.1853
  959MOL0     C29394   9.325   5.551   7.990 -0.0456  0.0366  0.2170
  959MOL0     C29395   9.398   5.559   8.084  0.1793 -0.1678 -0.8890
  959MOL0     C29396   8.777   5.068   7.794 -0.5859 -1.5096 -0.5491
  959MOL0     C29397   8.663   5.012   7.736  0.3282  0.4591  0.2381
  959MOL0     H29398   8.095   5.211   7.634 -0.8325  0.2653 -0.0294
  959MOL0     H29399   7.907   5.147   7.542 -0.5977 -1.7436  0.5000
  959MOL0     H29400   7.880   4.767   7.288  0.0999  1.2526 -1.3235
  959MOL0     H29401   7.787   4.781   7.436  3.1725 -2.2848 -0.8804
  959MOL0     H29402   7.597   4.875   7.308  0.5915  1.5092  0.2798
  959MOL0     H29403   7.689   4.874   7.165 -2.8205 -0.4739  0.2277
  959MOL0     H29404   7.708   4.619   7.166  0.4791  0.9947  0.1780
  959MOL0     H29405   7.606   4.642   7.320  0.0924  3.1577  0.2188
  959MOL0     H29406   7.445   4.751   7.163 -0.2421 -0.2826  1.2890
  959MOL0     H29407   7.555   4.713   7.032 -0.6257  0.2942  0.1364
  959MOL0     H29408   7.514   4.472   7.056 -1.7505 -0.3411 -1.7212
  959MOL0     H29409   7.442   4.504   7.214  1.8338  0.0913  0.4392
  959MOL0     H29410   7.307   4.595   6.944 -1.5792  0.7158  0.9751
  959MOL0     H29411   7.259   4.455   7.044  0.7996 -0.0334  1.4002
  959MOL0     H29412   7.237   4.743   7.115  0.7200 -1.1050 -1.3381
  959MOL0     H29413   7.114   4.606   7.074 -0.2559 -1.9433 -0.1322
  959MOL0     H29414   7.289   4.628   7.322 -0.7834  1.6285  0.5213
  959MOL0     H29415   7.178   4.491   7.282  1.3694 -1.2611 -3.8149
  959MOL0     H29416   6.938   4.495   7.278  0.5156 -0.2831  0.9537
  959MOL0     H29417   6.675   4.604   7.385 -1.8586  1.2406 -0.2003
  959MOL0     H29418   6.681   4.775   7.317  2.2251 -0.2671 -1.7660
  959MOL0     H29419   6.723   4.508   7.155  1.0202 -0.3857  1.4132
  959MOL0     H29420   6.773   4.667   7.102  2.5420 -0.0898  3.8188
  959MOL0     H29421   6.560   4.608   6.996  0.9820 -2.3752  0.4487
  959MOL0     H29422   6.514   4.732   7.115  4.2660  1.2918  0.7540
  959MOL0     H29423   6.427   4.564   7.276  1.5997  0.4568  0.0987
  959MOL0     H29424   6.524   4.431   7.183  2.6374  0.1276  0.3272
  959MOL0     H29425   6.113   4.455   7.007 -2.7623  0.8987 -1.1831
  959MOL0     H29426   5.805   4.508   7.102  3.0170  0.2190  2.1035
  959MOL0     H29427   5.829   4.612   6.968  0.7935 -1.8872 -2.5337
  959MOL0     H29428   5.907   4.456   6.955 -0.6352 -0.4405  0.3490
  959MOL0     H29429   5.682   4.885   7.374 -0.5147  1.6638  0.7913
  959MOL0     H29430   5.482   5.035   7.401  0.9823  0.7154  0.4015
  959MOL0     H29431   5.295   5.189   7.367 -1.5261 -1.6037  0.0686
  959MOL0     H29432   5.417   5.255   7.256 -0.2573 -0.7841 -1.8118
  959MOL0     H29433   5.224   5.393   7.304 -0.9131 -1.4288  1.5748
  959MOL0     H29434   5.241   5.366   7.132 -1.8532 -2.0817 -1.7512
  959MOL0     H29435   5.052   5.218   7.301 -0.1299  0.3788 -0.0880
  959MOL0     H29436   5.065   5.195   7.121 -1.4160 -1.2046  1.5622
  959MOL0     H29437   4.990   5.465   7.230  2.4233 -0.3245  0.7399
  959MOL0     H29438   5.002   5.398   7.058 -1.9679 -0.1954 -0.3829
  959MOL0     H29439   4.803   5.322   7.263  0.9597 -0.4993  0.1227
  959MOL0     H29440   4.824   5.245   7.109 -1.0215  0.3034 -0.4694
  959MOL0     H29441   4.793   5.550   7.123 -2.3180  0.9611  2.0624
  959MOL0     H29442   4.760   5.441   6.979 -0.4976 -0.3428  1.2359
  959MOL0     H29443   4.568   5.537   7.086  0.3840  0.3966 -1.0321
  959MOL0     H29444   4.609   5.448   7.236  2.0171 -2.0832 -0.2247
  959MOL0     H29445   4.425   5.340   7.114  0.2192 -0.3042  3.2732
  959MOL0     H29446   4.550   5.221   7.121 -3.1147  0.5990  1.8270
  959MOL0     H29447   5.406   4.972   6.975  1.1266 -2.6644 -2.0922
  959MOL0     H29448   5.601   4.828   6.967  1.6276 -2.0491  0.4991
  959MOL0     H29449   6.109   4.850   7.297 -0.7270  1.7418 -1.4936
  959MOL0     H29450   6.322   4.730   7.274  0.6822 -2.7235  0.1176
  959MOL0     H29451   8.082   4.811   7.336  0.5145 -0.6381  0.7236
  959MOL0     H29452   8.303   4.893   7.408  0.9812  1.2362  0.2864
  959MOL0     H29453   8.459   5.270   7.704 -1.9846 -1.5464  1.2850
  959MOL0     H29454   8.664   5.393   7.799  0.7197 -0.1932 -0.7507
  959MOL0     H29455   8.998   5.145   7.964  2.9540  0.2622  1.9696
  959MOL0     H29456   9.058   5.182   7.800 -2.0996 -3.0256  0.0316
  959MOL0     H29457   9.184   5.286   8.018  2.6010  2.6654 -1.8007
  959MOL0     H29458   9.049   5.395   8.012  0.6634  0.5691 -1.0957
  959MOL0     H29459   9.107   5.431   7.760 -1.2730 -2.4294  0.4154
  959MOL0     H29460   9.264   5.350   7.792 -0.1661  0.5987 -0.9987
  959MOL0     H29461   9.161   5.614   7.894  0.1966 -0.1729  0.6540
  959MOL0     H29462   9.297   5.580   7.793 -0.2781 -0.4533 -0.1242
  959MOL0     H29463   9.461   5.570   8.170  1.5928  2.8760 -2.1637
  959MOL0     H29464   8.856   5.003   7.832 -0.7975 -2.4305 -1.6211
  959MOL0     H29465   8.662   4.905   7.719 -3.9970  0.2237  0.8414
  960MOL0     O29466   5.380   1.754   3.154  0.3937  0.1712 -0.3872
  960MOL0     C29467   5.467   1.801   3.087  0.3136 -0.6936  0.5261
  960MOL0     O29468   5.445   1.871   2.972 -0.2657  0.1049 -0.1274
  960MOL0     C29469   5.326   1.869   2.910 -0.0374 -0.0591  0.1679
  960MOL0     C29470   5.269   1.984   2.859  0.0852  0.1957  0.7539
  960MOL0     C29471   5.152   1.981   2.782  0.5595  0.5125 -0.2738
  960MOL0     C29472   5.082   1.867   2.757  0.7373 -0.0870 -0.5719
  960MOL0     O29473   4.964   1.881   2.685  0.8189  0.3435 -0.5944
  960MOL0     C29474   4.876   1.774   2.688  0.4678 -0.4710 -0.1236
  960MOL0     C29475   4.747   1.828   2.622 -0.1993 -1.0134  0.5637
  960MOL0     C29476   4.630   1.732   2.600 -1.0844  0.4414  0.2853
  960MOL0     C29477   4.581   1.666   2.733  0.8519  0.1688  0.6681
  960MOL0     C29478   4.431   1.627   2.727  0.1732  0.2572  0.1348
  960MOL0     C29479   4.355   1.670   2.848  0.0703  0.1003  0.7622
  960MOL0     C29480   4.205   1.659   2.816 -0.0804 -0.0371  0.3905
  960MOL0     C29481   4.147   1.519   2.791 -0.8662  1.4045  0.0267
  960MOL0     N29482   4.002   1.524   2.795 -0.8855  0.0454 -0.1801
  960MOL0     C29483   3.926   1.471   2.895  1.2062 -0.6430 -0.2813
  960MOL0     C29484   3.798   1.502   2.867 -0.6009  0.2968 -0.3317
  960MOL0     C29485   3.672   1.467   2.940  0.3840  0.2071 -0.3704
  960MOL0     C29486   3.607   1.333   2.894  0.7041  0.7313  0.9554
  960MOL0     C29487   3.505   1.276   2.998  0.6168 -0.2603 -0.3271
  960MOL0     C29488   3.439   1.150   2.942  0.3782  0.1669  0.4296
  960MOL0     O29489   3.379   1.066   3.040 -0.7548  0.1298 -0.4244
  960MOL0     C29490   3.240   1.074   3.053  1.3997 -0.1761  0.1252
  960MOL0     C29491   3.163   1.184   3.010  1.1485  0.3002  0.5809
  960MOL0     C29492   3.014   1.173   3.011  0.5762 -0.8090  0.1328
  960MOL0     C29493   2.935   1.296   2.972  0.0425  0.2735  0.4988
  960MOL0     C29494   2.956   1.057   3.056 -0.3819 -0.3580 -0.0641
  960MOL0     C29495   2.809   1.025   3.041  0.4315  1.0286  0.5495
  960MOL0     O29496   2.748   0.944   3.130  0.0119 -0.0032 -0.1997
  960MOL0     C29497   2.608   0.949   3.126 -0.2323 -0.5978  0.2523
  960MOL0     C29498   2.532   1.070   3.139  0.0519  0.7679  0.2752
  960MOL0     C29499   2.395   1.059   3.157  0.7171 -0.1194 -0.1275
  960MOL0     C29500   2.337   0.936   3.160  0.5478 -0.2380 -0.3119
  960MOL0     O29501   2.204   0.910   3.183  0.0002  0.6964 -0.3191
  960MOL0     C29502   2.110   1.011   3.205  0.4596  0.0143 -0.1623
  960MOL0     C29503   1.964   0.963   3.215 -0.0428  0.7978 -0.2370
  960MOL0     C29504   1.932   0.883   3.342  0.2481 -0.0989 -0.1411
  960MOL0     C29505   1.924   0.966   3.468  0.0681 -0.3935 -0.2065
  960MOL0     C29506   1.914   0.886   3.601 -0.0985 -0.5364  1.2913
  960MOL0     C29507   1.893   0.969   3.724 -0.5026 -0.4680  1.3380
  960MOL0     C29508   1.936   0.895   3.858  0.2036  0.7162  0.5025
  960MOL0     C29509   1.890   0.968   3.987 -0.3604  0.3507  0.5441
  960MOL0    Cl29510   1.959   1.138   3.983 -0.4850 -0.2523  0.5848
  960MOL0     C29511   2.407   0.826   3.141  0.0634  0.3964 -0.5260
  960MOL0     C29512   2.541   0.827   3.123  0.3243 -0.2327  0.9662
  960MOL0     O29513   2.753   1.081   2.944 -0.1720  0.2113 -0.5053
  960MOL0     C29514   3.031   0.960   3.105 -0.9398 -0.3614 -0.4148
  960MOL0     C29515   3.171   0.975   3.109 -0.3922  0.3823 -0.5233
  960MOL0     N29516   3.803   1.552   2.738  0.0612 -0.5899 -0.3051
  960MOL0     N29517   3.923   1.574   2.703 -0.3368  0.2323  0.8783
  960MOL0     C29518   5.137   1.750   2.805  1.0418  0.0390 -0.6459
  960MOL0     C29519   5.256   1.748   2.883 -0.2073  0.8353 -0.4108
  960MOL0     C29520   5.604   1.806   3.149 -0.4432  0.2208 -1.0618
  960MOL0     C29521   5.618   1.771   3.283  0.2039  0.3980  1.0497
  960MOL0     C29522   5.741   1.772   3.347  0.2971 -0.5636 -0.2270
  960MOL0     C29523   5.851   1.791   3.263 -0.2755  0.2696  0.1832
  960MOL0     O29524   5.974   1.777   3.330 -0.0852  0.2329 -0.6050
  960MOL0     C29525   6.097   1.778   3.258 -0.5356 -0.3912 -0.7997
  960MOL0     C29526   6.210   1.750   3.359  0.0369 -0.1980 -0.1697
  960MOL0     C29527   6.235   1.867   3.449 -0.8915  0.2366  0.8642
  960MOL0     C29528   6.343   1.830   3.560 -0.2572  1.1497  0.3632
  960MOL0     C29529   6.289   1.738   3.665  0.1563 -0.8797 -0.5997
  960MOL0     C29530   6.228   1.672   3.752  0.0962  0.3340  0.1394
  960MOL0     C29531   5.844   1.817   3.126 -1.1656 -0.0444  0.4048
  960MOL0     C29532   5.719   1.829   3.070  0.6488  0.1883 -0.7376
  960MOL0     H29533   5.321   2.077   2.876  0.0563 -0.0600  2.4525
  960MOL0     H29534   5.102   2.074   2.755 -0.2503  1.0492  2.7488
  960MOL0     H29535   4.908   1.682   2.639 -0.4773 -1.3139  0.7889
  960MOL0     H29536   4.844   1.743   2.788  0.0386  0.5022  0.0585
  960MOL0     H29537   4.713   1.925   2.661  0.2260 -0.6364  0.0010
  960MOL0     H29538   4.782   1.855   2.522  1.7927  0.6950  1.6453
  960MOL0     H29539   4.548   1.788   2.553  0.2423  2.4068  0.1750
  960MOL0     H29540   4.666   1.651   2.535 -1.1259 -0.7047  1.6492
  960MOL0     H29541   4.632   1.569   2.743  1.0058 -0.1001 -1.9932
  960MOL0     H29542   4.587   1.744   2.809 -1.5271 -0.0163  1.0995
  960MOL0     H29543   4.386   1.682   2.644  1.6718 -1.3975 -1.8560
  960MOL0     H29544   4.419   1.519   2.715  3.4156 -0.0233 -1.5304
  960MOL0     H29545   4.387   1.615   2.938  2.9860  0.7679  0.2174
  960MOL0     H29546   4.386   1.774   2.865  0.4404  0.5469 -2.2444
  960MOL0     H29547   4.160   1.697   2.908 -2.1620 -1.4867  0.0406
  960MOL0     H29548   4.174   1.735   2.743 -2.4342  0.8260  2.1625
  960MOL0     H29549   4.172   1.443   2.866 -2.7025  1.3184  0.5894
  960MOL0     H29550   4.192   1.498   2.693  3.0700  2.8982  1.3351
  960MOL0     H29551   3.961   1.448   2.995 -0.8635 -0.1669  0.6164
  960MOL0     H29552   3.700   1.456   3.045  0.4394  1.2316 -0.2669
  960MOL0     H29553   3.612   1.558   2.932  0.9231  0.6049  0.0259
  960MOL0     H29554   3.679   1.252   2.890 -1.6897 -1.4772 -0.5738
  960MOL0     H29555   3.555   1.351   2.799  1.5012 -1.0264  0.1578
  960MOL0     H29556   3.425   1.344   3.028 -1.1516 -3.3357  2.7616
  960MOL0     H29557   3.568   1.255   3.086  2.5465  2.9694 -0.7733
  960MOL0     H29558   3.522   1.093   2.899 -0.3713  1.0587 -2.4186
  960MOL0     H29559   3.371   1.176   2.860  1.5316  1.8109 -0.0500
  960MOL0     H29560   3.211   1.271   2.966  0.1650  0.9512  0.7528
  960MOL0     H29561   2.907   1.286   2.867 -1.6626 -1.5759  1.0747
  960MOL0     H29562   2.853   1.305   3.044  0.1120 -1.2243  0.8042
  960MOL0     H29563   2.996   1.385   2.991  0.0742  0.9250 -2.2600
  960MOL0     H29564   2.587   1.163   3.132  0.0760  0.6835 -1.0099
  960MOL0     H29565   2.333   1.145   3.181  1.3890 -0.3152  2.5523
  960MOL0     H29566   2.136   1.059   3.300  0.6348  1.1484 -0.7648
  960MOL0     H29567   2.106   1.069   3.112 -3.6736 -0.0552 -0.2056
  960MOL0     H29568   1.891   1.045   3.210 -0.4647  0.5726  1.6186
  960MOL0     H29569   1.948   0.903   3.125 -1.1052  1.8112 -0.7613
  960MOL0     H29570   2.009   0.807   3.358 -0.8203 -1.0422  0.8000
  960MOL0     H29571   1.840   0.824   3.335 -0.0078  0.4235 -1.3253
  960MOL0     H29572   2.011   1.032   3.470 -1.3577  1.5255  0.2546
  960MOL0     H29573   1.842   1.038   3.463 -0.2416 -0.4131  2.5391
  960MOL0     H29574   2.013   0.839   3.605  0.8289  0.8722 -1.6908
  960MOL0     H29575   1.846   0.801   3.589  2.4688 -2.6555  0.6597
  960MOL0     H29576   1.949   1.063   3.718 -2.2597  0.5290 -0.9095
  960MOL0     H29577   1.786   0.992   3.724 -0.5972 -0.6394 -0.9960
  960MOL0     H29578   2.044   0.876   3.856  0.3949  1.6238 -2.4337
  960MOL0     H29579   1.877   0.804   3.868 -1.6946  1.7999 -0.3268
  960MOL0     H29580   1.926   0.910   4.072  1.3945  2.3949  1.2800
  960MOL0     H29581   1.781   0.976   3.984 -0.2275  3.0902  0.7803
  960MOL0     H29582   2.357   0.729   3.140 -0.1812  0.5082  0.4151
  960MOL0     H29583   2.597   0.735   3.110 -0.4785 -0.5271 -0.6458
  960MOL0     H29584   3.006   0.861   3.140  0.2488 -0.3155  0.6310
  960MOL0     H29585   3.240   0.894   3.128  1.2662  1.6823 -0.7650
  960MOL0     H29586   5.085   1.656   2.785  1.5033 -0.4561  0.4223
  960MOL0     H29587   5.282   1.652   2.925 -2.0745  0.6095  0.3160
  960MOL0     H29588   5.526   1.745   3.334  1.2778 -3.2199  1.4483
  960MOL0     H29589   5.738   1.761   3.455 -0.6441  0.6692 -0.0948
  960MOL0     H29590   6.085   1.698   3.184 -2.7051 -0.2528 -0.6718
  960MOL0     H29591   6.104   1.877   3.212  0.2291 -0.1567 -0.2070
  960MOL0     H29592   6.301   1.742   3.299  1.7405  2.0389  1.9086
  960MOL0     H29593   6.194   1.658   3.415  0.4498 -0.7287 -0.8925
  960MOL0     H29594   6.144   1.905   3.496 -1.1285 -0.3614  0.9029
  960MOL0     H29595   6.279   1.941   3.382  0.5021 -0.4483  0.9903
  960MOL0     H29596   6.380   1.925   3.601  0.5364  1.2024 -0.4541
  960MOL0     H29597   6.423   1.773   3.513  0.0099  1.1192  0.8545
  960MOL0     H29598   6.181   1.623   3.835 -2.2461 -0.5674 -1.6122
  960MOL0     H29599   5.930   1.827   3.061 -0.3025  0.5045  1.6081
  960MOL0     H29600   5.713   1.852   2.964 -0.5008 -0.9654 -0.9521
  961MOL0     O29601   7.538   0.919   5.095 -0.3309  0.0235  0.2815
  961MOL0     C29602   7.547   0.910   4.976  0.2320 -0.8694  0.4859
  961MOL0     O29603   7.444   0.901   4.888  0.2242  0.1890  0.2589
  961MOL0     C29604   7.312   0.888   4.917 -0.2426 -0.6909  0.1265
  961MOL0     C29605   7.257   0.899   5.041 -0.4644  0.5874 -0.1362
  961MOL0     C29606   7.126   0.877   5.058 -0.1733 -0.2216 -0.2214
  961MOL0     C29607   7.031   0.865   4.952  0.3278  0.0948  0.0048
  961MOL0     O29608   6.892   0.850   4.961 -0.6601  0.1445 -0.0290
  961MOL0     C29609   6.819   0.857   5.080 -0.2577 -0.0816  0.3214
  961MOL0     C29610   6.806   1.005   5.126  0.3994  0.0337  0.0361
  961MOL0     C29611   6.706   1.068   5.030 -0.0575 -0.1116 -0.5196
  961MOL0     C29612   6.673   1.216   5.065  0.0809  0.1848 -0.1344
  961MOL0     C29613   6.581   1.267   4.961 -0.5009  0.1258  0.6005
  961MOL0     C29614   6.442   1.256   5.008  0.1351 -0.2781  0.4409
  961MOL0     C29615   6.342   1.263   4.897 -0.1304  0.1653 -0.6242
  961MOL0     C29616   6.332   1.409   4.847  0.1272 -0.5679 -0.5782
  961MOL0     N29617   6.312   1.506   4.957 -0.0529  0.6021  0.1452
  961MOL0     C29618   6.379   1.626   4.960 -0.5170  0.0747 -0.5318
  961MOL0     C29619   6.320   1.691   5.061 -0.2665  0.0813  0.6109
  961MOL0     C29620   6.364   1.823   5.094 -0.2690  0.6097 -0.5792
  961MOL0     C29621   6.264   1.933   5.082  0.6773  0.1460  0.1543
  961MOL0     C29622   6.313   2.071   5.109  0.4558 -0.0242 -0.2007
  961MOL0     C29623   6.194   2.168   5.094 -0.6848 -0.1522  0.0683
  961MOL0     O29624   6.155   2.152   4.956 -0.4292 -1.3448 -0.9108
  961MOL0     C29625   6.021   2.194   4.930  0.5621 -0.5612  0.3577
  961MOL0     C29626   5.952   2.277   5.013 -0.1402  0.4741  0.5251
  961MOL0     C29627   5.820   2.311   4.975 -0.3985 -0.0034  0.7618
  961MOL0     C29628   5.754   2.398   5.083  0.1410  0.5146 -0.1839
  961MOL0     C29629   5.756   2.258   4.857 -0.2802 -1.0397 -0.2047
  961MOL0     C29630   5.614   2.268   4.839  0.5870  0.1525 -0.2506
  961MOL0     O29631   5.537   2.348   4.921  0.0656 -0.6026 -0.0014
  961MOL0     C29632   5.403   2.375   4.890  0.8714  0.7118 -0.1248
  961MOL0     C29633   5.346   2.496   4.938 -0.5546  0.5649 -0.3139
  961MOL0     C29634   5.213   2.539   4.908  0.6525 -0.9924  0.5066
  961MOL0     C29635   5.133   2.452   4.831  0.4733  0.1995  1.3795
  961MOL0     O29636   5.001   2.468   4.797  0.0489  0.3161  1.0791
  961MOL0     C29637   4.927   2.575   4.846  0.5886  0.2054  0.3543
  961MOL0     C29638   4.782   2.569   4.799  0.5691 -0.4118  0.3448
  961MOL0     C29639   4.740   2.424   4.787  0.4308 -0.5776 -0.4437
  961MOL0     C29640   4.592   2.415   4.746 -0.1192 -0.2109  0.0388
  961MOL0     C29641   4.521   2.293   4.785  0.2500 -0.3784  0.5655
  961MOL0     C29642   4.378   2.307   4.733  0.0255  0.0533 -0.5203
  961MOL0     C29643   4.288   2.201   4.783  0.6295  0.4940 -0.0923
  961MOL0     C29644   4.164   2.191   4.693  0.3764 -0.5899  0.2900
  961MOL0    Cl29645   4.057   2.071   4.763  0.5917  0.0009 -0.2109
  961MOL0     C29646   5.185   2.325   4.797  0.2872 -0.2448 -0.0347
  961MOL0     C29647   5.314   2.287   4.830  0.5968 -0.2670  0.5592
  961MOL0     O29648   5.583   2.222   4.729  0.0861  0.4077 -0.4795
  961MOL0     C29649   5.843   2.184   4.767 -0.0012 -0.2594 -0.8327
  961MOL0     C29650   5.974   2.154   4.806  0.2330  0.0224  0.2187
  961MOL0     N29651   6.219   1.615   5.117 -0.7740  0.3807  0.4254
  961MOL0     N29652   6.215   1.507   5.058 -0.7078 -0.3558 -0.1484
  961MOL0     C29653   7.088   0.864   4.827  0.4083 -1.1661  0.5982
  961MOL0     C29654   7.222   0.868   4.806  0.2880  0.1447  0.2772
  961MOL0     C29655   7.686   0.914   4.923 -0.5266 -0.5109 -0.6243
  961MOL0     C29656   7.800   0.918   5.005 -0.6774  0.3741 -0.4042
  961MOL0     C29657   7.935   0.920   4.957 -0.4997 -1.0445 -0.0483
  961MOL0     C29658   7.956   0.941   4.821 -0.0250  0.2478  0.3890
  961MOL0     O29659   8.080   0.957   4.772  0.3240  0.0097  0.0254
  961MOL0     C29660   8.111   1.095   4.747  1.4685  0.1300  0.5580
  961MOL0     C29661   8.255   1.122   4.716 -0.1008  0.6409 -0.4147
  961MOL0     C29662   8.269   1.264   4.665 -0.1031  0.0706 -0.0293
  961MOL0     C29663   8.377   1.290   4.561 -0.2471 -0.0922  1.1377
  961MOL0     C29664   8.506   1.276   4.613 -0.1366 -0.0779 -0.1031
  961MOL0     C29665   8.625   1.257   4.612  0.0200  0.2607  0.4941
  961MOL0     C29666   7.847   0.940   4.738 -0.5925  0.2852  0.0113
  961MOL0     C29667   7.714   0.928   4.781 -0.3780 -0.1233 -0.2457
  961MOL0     H29668   7.309   0.908   5.136  1.6110 -2.2161 -0.8628
  961MOL0     H29669   7.086   0.882   5.159  0.6209 -2.0800  0.2159
  961MOL0     H29670   6.719   0.816   5.065  0.7985 -2.4354 -0.8526
  961MOL0     H29671   6.866   0.793   5.156 -0.3093  0.0099  0.4315
  961MOL0     H29672   6.770   1.016   5.229  2.0688  1.8169  0.4770
  961MOL0     H29673   6.906   1.047   5.126  1.4169 -2.1322  2.2565
  961MOL0     H29674   6.748   1.064   4.929 -0.7128 -3.5253 -0.7719
  961MOL0     H29675   6.607   1.022   5.029 -1.5238  2.6200  2.2716
  961MOL0     H29676   6.634   1.216   5.167  2.1301 -0.2253  0.6997
  961MOL0     H29677   6.767   1.270   5.053 -0.0677  0.0231 -2.5463
  961MOL0     H29678   6.603   1.374   4.952 -0.6582  0.1734  0.7818
  961MOL0     H29679   6.597   1.206   4.872 -1.7937 -2.1605  1.8555
  961MOL0     H29680   6.431   1.157   5.054  0.5335 -0.4211  0.2328
  961MOL0     H29681   6.430   1.339   5.079  1.3814 -0.3385  0.7452
  961MOL0     H29682   6.363   1.202   4.809  0.6324  0.2751 -0.5226
  961MOL0     H29683   6.245   1.234   4.938  0.6472  0.1219  1.2683
  961MOL0     H29684   6.249   1.416   4.776 -0.4859  2.2490  0.2946
  961MOL0     H29685   6.425   1.438   4.797  0.9743  2.3537  2.3356
  961MOL0     H29686   6.461   1.663   4.899 -1.1409 -1.0155 -2.1034
  961MOL0     H29687   6.415   1.818   5.190  1.5100 -3.1584 -1.5252
  961MOL0     H29688   6.443   1.846   5.022 -1.2003 -1.9099 -2.5592
  961MOL0     H29689   6.180   1.906   5.147 -0.1584 -1.0283 -1.3334
  961MOL0     H29690   6.232   1.929   4.977 -0.9184  1.0444  0.5821
  961MOL0     H29691   6.403   2.089   5.049  0.1885  1.0412 -0.3134
  961MOL0     H29692   6.344   2.079   5.214  1.8010 -0.4326 -0.5458
  961MOL0     H29693   6.236   2.267   5.118 -0.1144  0.1286 -1.9239
  961MOL0     H29694   6.109   2.143   5.158 -0.6026  1.9856  1.1144
  961MOL0     H29695   5.986   2.321   5.107 -0.6992  0.9487  0.5120
  961MOL0     H29696   5.680   2.340   5.138  1.2375 -0.5507  0.2154
  961MOL0     H29697   5.825   2.436   5.157  0.0681 -1.4100  0.9281
  961MOL0     H29698   5.707   2.484   5.033  0.6266 -0.3470 -2.2373
  961MOL0     H29699   5.415   2.563   4.989  1.6598 -0.6184 -1.5955
  961MOL0     H29700   5.172   2.630   4.951 -0.1172 -1.8044  1.5373
  961MOL0     H29701   4.937   2.575   4.955  0.0171 -0.6022  0.4178
  961MOL0     H29702   4.975   2.668   4.815  1.0282  0.0441  0.5292
  961MOL0     H29703   4.735   2.629   4.878  0.5362  3.4256 -2.3035
  961MOL0     H29704   4.761   2.617   4.703 -2.5690 -1.4855  0.3841
  961MOL0     H29705   4.749   2.368   4.881  2.1250 -0.1847 -0.3387
  961MOL0     H29706   4.800   2.367   4.716  1.2178  1.2436 -1.2903
  961MOL0     H29707   4.540   2.492   4.803 -0.9281 -0.7247  0.0065
  961MOL0     H29708   4.579   2.440   4.640 -0.0786  1.2906  0.3619
  961MOL0     H29709   4.518   2.261   4.889 -3.4037 -2.1398  0.0782
  961MOL0     H29710   4.570   2.209   4.734 -0.2245 -1.7870  2.3487
  961MOL0     H29711   4.337   2.400   4.773  1.1193 -0.1098  1.0819
  961MOL0     H29712   4.369   2.307   4.624 -1.5838 -0.7482 -0.4173
  961MOL0     H29713   4.245   2.234   4.878  0.6302 -0.5740  0.2867
  961MOL0     H29714   4.340   2.108   4.807 -1.6437 -0.3438  1.9588
  961MOL0     H29715   4.191   2.166   4.590  0.0093 -1.3131  0.3659
  961MOL0     H29716   4.116   2.288   4.677  0.9139 -0.6245 -2.0043
  961MOL0     H29717   5.122   2.267   4.731  1.1535  1.1313 -2.1750
  961MOL0     H29718   5.342   2.193   4.784  0.4884 -0.6248  1.2252
  961MOL0     H29719   5.797   2.159   4.672 -0.3363  0.3066 -0.8214
  961MOL0     H29720   6.049   2.106   4.743  0.5444 -0.6540  1.0888
  961MOL0     H29721   7.025   0.858   4.739  2.0563  1.4248 -0.8853
  961MOL0     H29722   7.259   0.859   4.704  1.7945  0.2814  0.7828
  961MOL0     H29723   7.781   0.903   5.111  1.8928  2.9432  0.5273
  961MOL0     H29724   8.019   0.924   5.026 -0.5190  3.4975  0.0195
  961MOL0     H29725   8.054   1.120   4.658  0.6923 -0.7934  0.7766
  961MOL0     H29726   8.071   1.167   4.820  2.1941 -0.3234  1.4299
  961MOL0     H29727   8.295   1.043   4.651  0.0209 -0.0838  0.5213
  961MOL0     H29728   8.307   1.118   4.812 -0.6331 -0.5109 -0.1483
  961MOL0     H29729   8.289   1.325   4.754 -0.5771 -0.5912  0.5489
  961MOL0     H29730   8.180   1.299   4.614 -0.5198 -0.8118  0.0796
  961MOL0     H29731   8.371   1.392   4.521  0.9756 -1.2605 -2.3285
  961MOL0     H29732   8.358   1.220   4.480 -2.0451  0.1846  1.2625
  961MOL0     H29733   8.729   1.231   4.606 -0.8412 -3.7322  0.4803
  961MOL0     H29734   7.865   0.930   4.631  0.8057  1.3757  0.1130
  961MOL0     H29735   7.630   0.926   4.712 -1.0052  0.2671  0.4921
  962MOL0     O29736   5.474   4.351   8.670  0.0660  0.2263 -0.0966
  962MOL0     C29737   5.524   4.425   8.757  0.8569  0.2919  0.0903
  962MOL0     O29738   5.456   4.533   8.817 -0.0260 -0.3285  0.0574
  962MOL0     C29739   5.321   4.546   8.798  0.4400 -0.6726 -0.2536
  962MOL0     C29740   5.221   4.488   8.879  0.6845  0.3912  0.5951
  962MOL0     C29741   5.086   4.506   8.851  0.1358 -0.5117  0.3218
  962MOL0     C29742   5.050   4.577   8.733  0.1400 -0.2734 -0.6943
  962MOL0     O29743   4.924   4.596   8.685  0.4415  0.5240 -0.0570
  962MOL0     C29744   4.817   4.626   8.772 -0.3849 -0.1237 -1.1207
  962MOL0     C29745   4.704   4.704   8.695  0.4220 -0.7760  0.0134
  962MOL0     C29746   4.576   4.738   8.773 -1.3090  0.9527 -0.5379
  962MOL0     C29747   4.485   4.827   8.697  0.1315 -0.1592 -0.7102
  962MOL0     C29748   4.343   4.836   8.751 -0.0891 -0.0468 -0.5526
  962MOL0     C29749   4.262   4.709   8.745 -0.1487  0.5828  0.8096
  962MOL0     C29750   4.110   4.733   8.748  0.7982  0.5086  0.7400
  962MOL0     C29751   4.034   4.590   8.726 -0.0398 -0.3500 -1.3239
  962MOL0     N29752   3.886   4.609   8.741 -0.4894 -0.4672 -0.1168
  962MOL0     C29753   3.797   4.679   8.667 -0.0489  0.2736  0.1944
  962MOL0     C29754   3.689   4.684   8.748  0.2105 -0.3824  0.4121
  962MOL0     C29755   3.568   4.769   8.717 -0.2799  0.4541  0.1158
  962MOL0     C29756   3.433   4.695   8.729  0.2163  0.9062  0.9571
  962MOL0     C29757   3.366   4.680   8.868  0.8392  0.4547  0.5378
  962MOL0     C29758   3.228   4.617   8.865 -0.0494 -0.3895  0.8630
  962MOL0     O29759   3.171   4.629   8.997 -0.3171 -0.0223  0.6502
  962MOL0     C29760   3.050   4.576   9.023 -0.0922 -0.0577  0.4419
  962MOL0     C29761   2.990   4.587   9.147 -0.9151 -0.9444  0.2072
  962MOL0     C29762   2.856   4.551   9.181 -0.3523  0.3116 -0.3471
  962MOL0     C29763   2.831   4.575   9.328  0.3656 -0.1426  0.6229
  962MOL0     C29764   2.766   4.510   9.080 -0.1177  0.1443 -0.5111
  962MOL0     C29765   2.618   4.485   9.091  0.2299 -0.0272 -0.3547
  962MOL0     O29766   2.556   4.437   8.979  0.4522  0.5332  0.1568
  962MOL0     C29767   2.415   4.414   8.988 -1.0483 -0.4383 -0.1590
  962MOL0     C29768   2.357   4.292   8.988 -0.7330 -0.0533 -0.3495
  962MOL0     C29769   2.218   4.269   8.989  0.5717 -0.6118  0.6908
  962MOL0     C29770   2.129   4.379   8.990 -0.4701 -0.0252 -0.2902
  962MOL0     O29771   1.998   4.343   8.996 -0.0220 -0.1460  0.1414
  962MOL0     C29772   1.906   4.449   9.027  0.0676 -0.4673 -0.5787
  962MOL0     C29773   1.770   4.383   9.008 -0.0158  0.3927  0.6722
  962MOL0     C29774   1.665   4.445   9.102  0.1118 -0.1641  0.7290
  962MOL0     C29775   1.538   4.362   9.091 -0.2334  0.1356  0.0656
  962MOL0     C29776   1.436   4.421   9.190  0.2358 -0.2893 -0.8345
  962MOL0     C29777   1.298   4.374   9.168 -0.5946  0.8230  0.5361
  962MOL0     C29778   1.198   4.455   9.246  0.8815  0.1736 -0.9239
  962MOL0     C29779   1.075   4.383   9.287  0.3120  0.6664 -0.0716
  962MOL0    Cl29780   0.999   4.331   9.133  0.5015  0.2186  0.4377
  962MOL0     C29781   2.179   4.509   8.975 -0.3539  0.0595  0.1014
  962MOL0     C29782   2.325   4.522   8.968 -0.2702  0.3711  0.1389
  962MOL0     O29783   2.556   4.518   9.193 -0.0824  0.1399 -0.1986
  962MOL0     C29784   2.826   4.502   8.953 -0.0193  0.2512  0.0787
  962MOL0     C29785   2.961   4.535   8.925  0.5266  0.2098  0.3397
  962MOL0     N29786   3.705   4.607   8.862  0.0208 -0.6857  0.3760
  962MOL0     N29787   3.823   4.560   8.850 -0.3206 -0.6856 -0.3411
  962MOL0     C29788   5.149   4.633   8.655  0.5044  0.0612  0.0407
  962MOL0     C29789   5.285   4.627   8.697 -0.0197  0.5899  0.0263
  962MOL0     C29790   5.659   4.397   8.811  1.0208  0.4224  0.1441
  962MOL0     C29791   5.717   4.266   8.786  0.7088 -0.2624 -1.0183
  962MOL0     C29792   5.838   4.230   8.840 -0.5038 -0.1677  0.1412
  962MOL0     C29793   5.909   4.328   8.914  0.4432 -0.0862  0.0933
  962MOL0     O29794   6.038   4.287   8.951 -0.1711  0.1312  0.4353
  962MOL0     C29795   6.100   4.355   9.057  0.0646 -0.2936 -0.3569
  962MOL0     C29796   6.179   4.261   9.140  0.0150  0.7704  0.5106
  962MOL0     C29797   6.238   4.342   9.260 -0.5180 -0.1568  0.5127
  962MOL0     C29798   6.328   4.248   9.352 -0.3288 -0.5173  0.0104
  962MOL0     C29799   6.422   4.322   9.438 -0.3134  0.1300 -0.5531
  962MOL0     C29800   6.494   4.395   9.490 -1.7660 -0.7173 -0.9651
  962MOL0     C29801   5.856   4.455   8.946 -0.0431 -0.2086  0.2512
  962MOL0     C29802   5.732   4.490   8.896 -0.6100 -1.0547  0.7601
  962MOL0     H29803   5.246   4.415   8.955  1.9419  0.0987 -0.0711
  962MOL0     H29804   5.007   4.443   8.889 -0.4880 -1.6513 -2.5678
  962MOL0     H29805   4.773   4.539   8.822  0.9213 -1.2612 -1.8883
  962MOL0     H29806   4.860   4.682   8.856 -0.9644 -0.4518 -0.5892
  962MOL0     H29807   4.743   4.789   8.638 -0.7189 -0.5573 -0.4724
  962MOL0     H29808   4.669   4.639   8.613  2.6605 -2.9738  0.6487
  962MOL0     H29809   4.522   4.648   8.803 -0.7249  1.1325  1.1795
  962MOL0     H29810   4.612   4.781   8.867 -1.3417 -0.7637  0.2939
  962MOL0     H29811   4.538   4.922   8.703 -1.5245  0.7459  0.3733
  962MOL0     H29812   4.471   4.801   8.592 -1.5106 -1.9421 -0.1094
  962MOL0     H29813   4.341   4.877   8.853  0.7363 -4.0859  1.3070
  962MOL0     H29814   4.293   4.904   8.681  0.7815 -0.8309 -1.9883
  962MOL0     H29815   4.286   4.643   8.662 -1.2468  0.2923  0.7090
  962MOL0     H29816   4.274   4.655   8.840 -2.6888 -1.9655 -0.1748
  962MOL0     H29817   4.078   4.786   8.838 -1.0443  1.8886 -0.6420
  962MOL0     H29818   4.081   4.785   8.656  0.7599 -1.2283 -0.2794
  962MOL0     H29819   4.073   4.524   8.804  0.1683  1.0842 -0.1778
  962MOL0     H29820   4.046   4.552   8.624 -1.9458 -0.4071 -1.5547
  962MOL0     H29821   3.831   4.726   8.575 -4.3862  4.1223  0.2363
  962MOL0     H29822   3.566   4.860   8.779 -1.5637  1.6033 -1.5231
  962MOL0     H29823   3.573   4.800   8.613 -1.1046  2.9465  0.7393
  962MOL0     H29824   3.452   4.595   8.688 -1.7692  0.5881  0.7316
  962MOL0     H29825   3.365   4.738   8.655 -0.4049 -0.6720  0.5757
  962MOL0     H29826   3.368   4.783   8.905  1.7852 -0.0744  2.0643
  962MOL0     H29827   3.428   4.613   8.928  0.6103 -0.0677  0.1974
  962MOL0     H29828   3.231   4.509   8.848  0.5608 -0.1461 -0.6858
  962MOL0     H29829   3.171   4.640   8.774  1.3429 -1.9770 -0.4616
  962MOL0     H29830   3.042   4.638   9.227 -2.3525  0.0274  0.5717
  962MOL0     H29831   2.757   4.503   9.364 -1.4415  2.1280  1.7216
  962MOL0     H29832   2.919   4.551   9.388 -1.5309 -0.8556  3.2676
  962MOL0     H29833   2.792   4.675   9.347 -0.8025 -0.6323  0.8804
  962MOL0     H29834   2.434   4.216   8.994  0.7821  1.4883  0.7735
  962MOL0     H29835   2.185   4.166   8.997 -0.4064 -0.3364  0.4429
  962MOL0     H29836   1.921   4.487   9.129  0.6954  1.0588 -1.2219
  962MOL0     H29837   1.912   4.539   8.965 -0.1374 -0.2614 -0.3071
  962MOL0     H29838   1.741   4.401   8.904 -0.9390 -1.0972  0.6348
  962MOL0     H29839   1.783   4.277   9.034  3.7703  0.3242 -0.9029
  962MOL0     H29840   1.643   4.550   9.079  3.0941  1.2273  3.3909
  962MOL0     H29841   1.708   4.445   9.203  1.5671  0.1970  0.1429
  962MOL0     H29842   1.503   4.373   8.988  0.3047 -0.6450 -0.2131
  962MOL0     H29843   1.573   4.259   9.106 -1.8925 -0.3727  0.6740
  962MOL0     H29844   1.431   4.530   9.189 -0.4801 -0.2607 -3.7230
  962MOL0     H29845   1.461   4.392   9.293  0.2084 -0.0590 -0.7637
  962MOL0     H29846   1.282   4.380   9.060  3.0053 -1.3364 -0.3120
  962MOL0     H29847   1.281   4.270   9.197 -1.1203 -0.1305 -2.8081
  962MOL0     H29848   1.166   4.539   9.184  1.2741  2.0955  1.3328
  962MOL0     H29849   1.245   4.497   9.335 -0.9434  0.8280 -0.2410
  962MOL0     H29850   1.007   4.442   9.350  1.2314  0.7001  0.9163
  962MOL0     H29851   1.112   4.304   9.353 -1.7172 -0.0632  0.2765
  962MOL0     H29852   2.110   4.592   8.963 -2.9979 -2.1077 -0.3813
  962MOL0     H29853   2.343   4.626   8.941 -2.4211  1.1989  1.5311
  962MOL0     H29854   2.767   4.482   8.864  1.7131  0.4725 -1.1638
  962MOL0     H29855   3.002   4.525   8.825  0.5016 -0.1433  0.3637
  962MOL0     H29856   5.126   4.672   8.556 -2.6662  0.4134  0.8059
  962MOL0     H29857   5.362   4.665   8.630  0.4797 -4.7448 -3.0260
  962MOL0     H29858   5.665   4.192   8.727 -0.4551 -2.4107  2.3617
  962MOL0     H29859   5.890   4.139   8.812  0.4206  0.7317 -1.1434
  962MOL0     H29860   6.157   4.439   9.014 -3.0757  1.2987 -1.7207
  962MOL0     H29861   6.024   4.406   9.117  0.0649 -1.4967  0.7051
  962MOL0     H29862   6.267   4.231   9.082  1.7612  3.1151  1.7468
  962MOL0     H29863   6.117   4.175   9.168  0.9368  0.2224  0.9089
  962MOL0     H29864   6.156   4.376   9.324  0.0415 -0.8680  1.6329
  962MOL0     H29865   6.295   4.427   9.221 -0.8463 -0.2209 -0.1294
  962MOL0     H29866   6.383   4.188   9.278 -0.0368 -0.0539 -0.1593
  962MOL0     H29867   6.259   4.182   9.404 -1.1436  0.5626  0.3355
  962MOL0     H29868   6.565   4.457   9.541 -1.0084 -1.9000 -0.5324
  962MOL0     H29869   5.907   4.537   8.997  0.0997  1.1298 -1.9122
  962MOL0     H29870   5.693   4.587   8.926  0.4786  0.1769 -1.5164
  963MOL0     O29871   6.362   5.090   0.101 -0.2120  0.2518 -0.5085
  963MOL0     C29872   6.441   5.000   0.096 -0.4690 -0.1604 -0.3332
  963MOL0     O29873   6.425   4.882   0.034  0.7062  0.1753 -0.1187
  963MOL0     C29874   6.314   4.847  -0.034  0.4557 -1.2149  0.1742
  963MOL0     C29875   6.211   4.783   0.036 -0.2974 -0.2936 -0.5433
  963MOL0     C29876   6.088   4.758  -0.020  0.1378 -0.3378 -0.2155
  963MOL0     C29877   6.062   4.796  -0.154  0.3271 -0.1318 -0.2233
  963MOL0     O29878   5.950   4.769  -0.227  0.0014 -0.1236  0.4892
  963MOL0     C29879   5.824   4.797  -0.169 -0.1490 -0.6040 -0.2590
  963MOL0     C29880   5.772   4.936  -0.193  0.3918 -1.2695 -0.1575
  963MOL0     C29881   5.620   4.942  -0.176 -0.0556  0.7918  0.0222
  963MOL0     C29882   5.549   4.929  -0.321 -0.3055 -0.9720  0.3054
  963MOL0     C29883   5.402   4.903  -0.319  0.7536 -0.8708 -0.6574
  963MOL0     C29884   5.354   4.774  -0.250 -0.3271  0.9485 -0.2426
  963MOL0     C29885   5.203   4.765  -0.261  0.1861 -0.6557  0.2081
  963MOL0     C29886   5.150   4.629  -0.228 -0.4903 -0.0582  1.1731
  963MOL0     N29887   5.004   4.634  -0.226 -0.3355 -0.4197  0.3391
  963MOL0     C29888   4.923   4.580  -0.325 -0.0160  0.3108  0.0612
  963MOL0     C29889   4.801   4.631  -0.291 -0.2862  0.5526 -0.8052
  963MOL0     C29890   4.687   4.626  -0.390  0.1387  0.2841 -0.1189
  963MOL0     C29891   4.597   4.504  -0.399  0.9975  0.4721 -0.7434
  963MOL0     C29892   4.513   4.487  -0.273  0.7891 -0.0097 -0.5214
  963MOL0     C29893   4.414   4.367  -0.283 -1.0610 -0.5131 -0.9212
  963MOL0     O29894   4.337   4.372  -0.406 -0.6849 -0.6222  0.0173
  963MOL0     C29895   4.210   4.326  -0.403  0.4523  0.2974 -0.3632
  963MOL0     C29896   4.142   4.343  -0.516  0.7092 -0.2370  0.0515
  963MOL0     C29897   4.017   4.295  -0.541  0.4477  0.0926 -0.0137
  963MOL0     C29898   3.945   4.338  -0.665  0.0654 -1.0350 -0.8982
  963MOL0     C29899   3.941   4.222  -0.439 -0.1739 -0.2980  0.4149
  963MOL0     C29900   3.804   4.159  -0.454  1.1495  0.6568  0.0275
  963MOL0     O29901   3.765   4.077  -0.355  0.2307  0.3741 -0.2752
  963MOL0     C29902   3.649   4.001  -0.369  0.2928  0.1693  0.1521
  963MOL0     C29903   3.662   3.864  -0.357 -0.1332  0.7537 -0.8015
  963MOL0     C29904   3.548   3.782  -0.349  0.2387  0.5763 -0.8374
  963MOL0     C29905   3.419   3.823  -0.371  0.9574 -0.1196 -0.0265
  963MOL0     O29906   3.314   3.738  -0.390  0.4897 -0.5089 -0.2107
  963MOL0     C29907   3.178   3.789  -0.386  0.0867 -0.0015  0.5122
  963MOL0     C29908   3.094   3.666  -0.364  0.0341 -0.2482 -0.5221
  963MOL0     C29909   2.944   3.704  -0.375  0.2382  0.6843 -0.1195
  963MOL0     C29910   2.856   3.605  -0.289  0.1014  0.0652 -0.2960
  963MOL0     C29911   2.697   3.610  -0.277  0.1167 -0.3433 -0.6015
  963MOL0     C29912   2.624   3.572  -0.406 -0.0031 -0.3707 -0.3863
  963MOL0     C29913   2.477   3.579  -0.380 -1.1478 -0.0742  0.6926
  963MOL0     C29914   2.422   3.486  -0.282  1.1187  0.3271 -0.6143
  963MOL0    Cl29915   2.242   3.462  -0.312 -0.3357 -0.1184 -0.3921
  963MOL0     C29916   3.410   3.966  -0.368  0.1428  0.3880  0.1179
  963MOL0     C29917   3.515   4.052  -0.360 -0.1023  0.1856 -0.6532
  963MOL0     O29918   3.741   4.182  -0.552 -0.4884 -0.3088 -0.4925
  963MOL0     C29919   4.010   4.207  -0.315  0.1620  0.8736  0.1986
  963MOL0     C29920   4.145   4.249  -0.298 -0.7364 -0.6604  0.0282
  963MOL0     N29921   4.801   4.709  -0.178  0.1218 -0.0657 -0.6208
  963MOL0     N29922   4.922   4.698  -0.134  0.9629 -0.0778  0.3303
  963MOL0     C29923   6.160   4.853  -0.230 -0.0718  0.3238  0.8031
  963MOL0     C29924   6.286   4.889  -0.169 -0.3221  0.4856 -0.7646
  963MOL0     C29925   6.574   5.020   0.157  0.0492  0.2975  0.7652
  963MOL0     C29926   6.686   4.943   0.108  0.0281  0.3486 -0.7753
  963MOL0     C29927   6.817   4.960   0.158  0.0706 -0.4784  0.3671
  963MOL0     C29928   6.848   5.053   0.265  0.3523  0.2580  0.2752
  963MOL0     O29929   6.966   5.079   0.324 -0.0849  0.5444  0.3314
  963MOL0     C29930   7.064   4.986   0.308  0.7587 -0.1828  0.0651
  963MOL0     C29931   7.193   5.022   0.383  0.5758  0.3336 -0.1730
  963MOL0     C29932   7.281   5.120   0.300  0.4111  0.2682 -0.3016
  963MOL0     C29933   7.220   5.255   0.283  0.3413  0.1575  0.1408
  963MOL0     C29934   7.321   5.336   0.205 -0.9521 -0.7039 -0.4478
  963MOL0     C29935   7.417   5.392   0.148  0.5149 -0.0800 -0.7352
  963MOL0     C29936   6.735   5.126   0.312  0.6045  0.7783 -0.6907
  963MOL0     C29937   6.601   5.111   0.262  0.2370  0.3220 -1.2330
  963MOL0     H29938   6.236   4.754   0.137 -0.1858  0.6927 -0.2724
  963MOL0     H29939   6.005   4.700   0.020  0.6463 -1.6093 -0.9551
  963MOL0     H29940   5.751   4.734  -0.221 -2.7087  2.7238 -1.0152
  963MOL0     H29941   5.813   4.764  -0.065  0.3391 -0.5018 -0.1723
  963MOL0     H29942   5.823   5.006  -0.126 -1.9717 -0.1350  0.5613
  963MOL0     H29943   5.789   4.969  -0.296 -0.3060 -1.4964 -0.3456
  963MOL0     H29944   5.581   4.859  -0.117  0.7395  0.5108  0.1507
  963MOL0     H29945   5.596   5.036  -0.125  0.4418  2.0357 -1.9286
  963MOL0     H29946   5.569   5.021  -0.377 -0.7760 -0.2454  1.3190
  963MOL0     H29947   5.592   4.848  -0.381 -0.6980 -2.3630  1.8474
  963MOL0     H29948   5.350   4.978  -0.259  2.6322  0.4093 -0.5457
  963MOL0     H29949   5.360   4.917  -0.419 -1.1101  2.0500  0.3910
  963MOL0     H29950   5.402   4.680  -0.281  0.2765  1.0331  0.4035
  963MOL0     H29951   5.373   4.768  -0.142  0.2559 -1.9969 -0.4210
  963MOL0     H29952   5.163   4.837  -0.188 -1.3452 -2.0100  0.7863
  963MOL0     H29953   5.176   4.795  -0.362 -0.3800 -0.8779  0.2835
  963MOL0     H29954   5.176   4.599  -0.127 -0.7533 -0.9808  0.9790
  963MOL0     H29955   5.196   4.573  -0.310 -0.9009 -2.4104  2.4525
  963MOL0     H29956   4.953   4.517  -0.408 -1.3805  1.1801 -1.1429
  963MOL0     H29957   4.617   4.700  -0.349 -1.4349 -1.3477  0.2388
  963MOL0     H29958   4.705   4.657  -0.493  0.5853  0.3752 -0.0176
  963MOL0     H29959   4.658   4.415  -0.415  0.1187  0.0415 -1.8721
  963MOL0     H29960   4.536   4.515  -0.489  0.0477  0.2295 -0.1379
  963MOL0     H29961   4.462   4.579  -0.245  2.4945  0.4147  1.3972
  963MOL0     H29962   4.578   4.463  -0.189 -1.2270 -1.3420  0.7682
  963MOL0     H29963   4.344   4.355  -0.200 -0.2203 -3.7446 -0.5415
  963MOL0     H29964   4.479   4.279  -0.291 -1.0128 -1.1285  3.5237
  963MOL0     H29965   4.207   4.401  -0.582  0.1703 -1.8465 -2.0127
  963MOL0     H29966   3.899   4.263  -0.730 -1.3416 -1.4311  0.5119
  963MOL0     H29967   3.871   4.410  -0.630  2.3928  1.9045 -1.5355
  963MOL0     H29968   4.016   4.390  -0.731  1.8747 -1.7955  0.3773
  963MOL0     H29969   3.763   3.826  -0.343 -0.8575 -0.3020  2.7255
  963MOL0     H29970   3.556   3.675  -0.339  0.8880  0.8619  2.7555
  963MOL0     H29971   3.179   3.856  -0.299  1.4003  0.6047  0.0574
  963MOL0     H29972   3.142   3.853  -0.467 -0.1914  1.5751  1.8181
  963MOL0     H29973   3.101   3.582  -0.434 -1.0178 -1.6051  0.9253
  963MOL0     H29974   3.121   3.625  -0.266  0.2180 -0.8253 -0.8141
  963MOL0     H29975   2.911   3.673  -0.475  0.3372 -2.1194  0.6588
  963MOL0     H29976   2.918   3.804  -0.337  2.6223  1.5236 -0.4869
  963MOL0     H29977   2.892   3.505  -0.315  0.1979  0.0006  0.0726
  963MOL0     H29978   2.896   3.615  -0.188 -1.2637 -2.9442  0.6712
  963MOL0     H29979   2.654   3.706  -0.246 -1.4014 -1.1552 -0.0671
  963MOL0     H29980   2.669   3.534  -0.204 -0.0242  0.0103 -0.2808
  963MOL0     H29981   2.640   3.657  -0.473  0.0481  0.5010  0.6855
  963MOL0     H29982   2.654   3.473  -0.440  0.2018 -0.0499 -1.1449
  963MOL0     H29983   2.433   3.548  -0.475 -0.6993 -0.3161  0.5626
  963MOL0     H29984   2.454   3.679  -0.343  3.8182  1.1962  1.0320
  963MOL0     H29985   2.444   3.530  -0.184  2.1113 -0.6663 -0.3670
  963MOL0     H29986   2.468   3.388  -0.296 -1.3560 -0.7114 -2.1715
  963MOL0     H29987   3.312   4.009  -0.389 -0.2839 -1.1994 -1.3989
  963MOL0     H29988   3.501   4.160  -0.365  0.0387  0.2949  0.9648
  963MOL0     H29989   3.961   4.157  -0.232  1.8269  1.5361  1.6360
  963MOL0     H29990   4.204   4.211  -0.216  3.3161  2.0101 -1.2959
  963MOL0     H29991   6.152   4.873  -0.336  1.1971  3.4686  1.2025
  963MOL0     H29992   6.358   4.935  -0.236  1.1747 -0.6042  0.0164
  963MOL0     H29993   6.673   4.865   0.034 -3.0669  0.4192 -0.4278
  963MOL0     H29994   6.889   4.900   0.103  1.7676  1.5795  0.1911
  963MOL0     H29995   7.018   4.896   0.349  0.8197  0.0216  0.6011
  963MOL0     H29996   7.089   4.984   0.202 -0.6358 -2.5999 -0.2818
  963MOL0     H29997   7.242   4.925   0.383  0.1534  0.1142  0.2761
  963MOL0     H29998   7.169   5.045   0.488  1.5922 -1.0138  0.3883
  963MOL0     H29999   7.307   5.078   0.203  2.8625  0.2008  0.3067
  963MOL0     H30000   7.379   5.125   0.348 -0.0764  1.3893  0.6169
  963MOL0     H30001   7.193   5.311   0.373 -0.1560  0.4160 -0.1601
  963MOL0     H30002   7.134   5.237   0.218  0.6501  1.6535 -0.7599
  963MOL0     H30003   7.494   5.438   0.089  0.3495 -2.1904 -2.7322
  963MOL0     H30004   6.744   5.188   0.400 -1.3677  1.6948 -1.0913
  963MOL0     H30005   6.522   5.184   0.281 -0.5332 -0.8377  0.2133
  964MOL0     O30006   7.085   3.184   0.934  0.4188 -0.3335  0.4309
  964MOL0     C30007   7.125   3.274   1.007  0.9184 -0.0046 -0.3612
  964MOL0     O30008   7.052   3.375   1.052  0.4897 -0.0852  0.4936
  964MOL0     C30009   6.917   3.362   1.035  0.7883 -0.0656  0.7042
  964MOL0     C30010   6.838   3.276   1.112 -0.0463 -0.6354  0.4071
  964MOL0     C30011   6.703   3.265   1.074  0.5904 -0.3710 -0.5416
  964MOL0     C30012   6.649   3.335   0.972 -0.0082 -1.0166  0.2831
  964MOL0     O30013   6.521   3.351   0.932  0.8462 -0.2276 -0.2388
  964MOL0     C30014   6.418   3.311   1.025 -0.3113 -0.0558 -0.6990
  964MOL0     C30015   6.293   3.277   0.941  0.0124 -0.7689 -0.3299
  964MOL0     C30016   6.179   3.380   0.931 -0.3256  0.6298 -0.4465
  964MOL0     C30017   6.202   3.477   0.813  0.4438  0.0555 -0.4885
  964MOL0     C30018   6.083   3.559   0.789  0.2101  1.0889 -0.4403
  964MOL0     C30019   6.084   3.633   0.659 -0.0140  0.5271  0.6725
  964MOL0     C30020   5.984   3.751   0.660 -0.0371  0.0473  0.5870
  964MOL0     C30021   5.969   3.814   0.522 -0.0929  0.6264 -0.2064
  964MOL0     N30022   5.900   3.944   0.525 -0.0014 -0.2758 -0.3176
  964MOL0     C30023   5.773   3.961   0.485 -0.0721  0.5375 -0.4479
  964MOL0     C30024   5.737   4.081   0.524  0.3504  0.4785  0.2228
  964MOL0     C30025   5.604   4.149   0.495  0.1257 -0.5117 -0.3540
  964MOL0     C30026   5.556   4.149   0.349  0.1337  0.8557  0.0847
  964MOL0     C30027   5.459   4.042   0.310 -0.1700 -0.5295 -1.1520
  964MOL0     C30028   5.329   4.045   0.392 -0.1826 -0.7413  0.5320
  964MOL0     O30029   5.229   3.965   0.331  0.3564 -0.5222  0.3034
  964MOL0     C30030   5.110   3.968   0.400 -0.2323 -0.4319  0.0844
  964MOL0     C30031   5.027   4.081   0.408 -0.3186 -0.0990  0.0957
  964MOL0     C30032   4.898   4.077   0.468  0.0817  1.0404 -0.2858
  964MOL0     C30033   4.825   4.208   0.456  0.1088  0.1892 -0.2121
  964MOL0     C30034   4.862   3.959   0.551 -0.0524 -0.4864  0.1661
  964MOL0     C30035   4.730   3.938   0.613  0.3190 -0.8639  0.1778
  964MOL0     O30036   4.725   3.840   0.714 -0.2757 -0.1932 -0.4683
  964MOL0     C30037   4.597   3.816   0.763 -0.5828  0.1647 -0.6535
  964MOL0     C30038   4.525   3.716   0.716  0.2394  0.1687 -0.2371
  964MOL0     C30039   4.388   3.689   0.756  0.2288  0.3838  0.4916
  964MOL0     C30040   4.330   3.774   0.853  0.0500 -0.6703 -1.0963
  964MOL0     O30041   4.206   3.752   0.908  0.4863  0.4012  0.1145
  964MOL0     C30042   4.111   3.669   0.833 -0.0041 -0.3799  0.2476
  964MOL0     C30043   3.976   3.712   0.895  0.1397  0.6552  0.4238
  964MOL0     C30044   3.852   3.660   0.818  0.6096 -0.2845  0.3405
  964MOL0     C30045   3.727   3.666   0.905 -0.0039  0.2523  0.2168
  964MOL0     C30046   3.621   3.578   0.833  0.5369 -0.0949 -0.2056
  964MOL0     C30047   3.510   3.574   0.936  0.1598  0.1983  0.3067
  964MOL0     C30048   3.387   3.500   0.880  0.8859  0.6431  0.8817
  964MOL0     C30049   3.284   3.468   0.987 -0.5481 -0.0509 -0.5335
  964MOL0    Cl30050   3.356   3.331   1.095 -0.2000 -0.2155  0.2256
  964MOL0     C30051   4.405   3.878   0.908 -0.2857 -0.0303 -0.4253
  964MOL0     C30052   4.539   3.899   0.862 -0.5978  0.0467 -0.0453
  964MOL0     O30053   4.641   4.009   0.571 -0.2407 -0.2786 -0.2611
  964MOL0     C30054   4.963   3.855   0.556  0.6460 -0.5009 -0.2990
  964MOL0     C30055   5.080   3.857   0.483 -0.4160 -0.5796  0.7057
  964MOL0     N30056   5.841   4.132   0.598  0.1099  0.4807  0.0014
  964MOL0     N30057   5.942   4.055   0.586  0.4411 -0.1650 -0.3859
  964MOL0     C30058   6.731   3.420   0.903  0.2384 -0.1932  0.0013
  964MOL0     C30059   6.863   3.438   0.934  0.1409 -0.0499 -0.0652
  964MOL0     C30060   7.270   3.261   1.052  0.6405 -0.0084 -0.1188
  964MOL0     C30061   7.345   3.374   1.094  0.9248 -0.5317  0.7762
  964MOL0     C30062   7.480   3.364   1.119  0.5025 -0.3879  0.6430
  964MOL0     C30063   7.551   3.246   1.100  0.1627 -0.3979 -0.2918
  964MOL0     O30064   7.682   3.261   1.139  0.3217 -0.5925 -0.4472
  964MOL0     C30065   7.763   3.148   1.132  0.7099  0.8199 -0.0350
  964MOL0     C30066   7.820   3.125   0.993 -0.4856 -0.4339  0.3763
  964MOL0     C30067   7.942   3.019   1.001  0.7369 -0.6481  0.7268
  964MOL0     C30068   8.067   3.086   1.054 -0.7698  0.3230 -0.1801
  964MOL0     C30069   8.190   2.998   1.031  0.4707 -0.2340  0.3865
  964MOL0     C30070   8.277   2.918   1.010 -0.1508  0.5198 -1.1269
  964MOL0     C30071   7.475   3.140   1.061  0.6379 -0.3373 -0.0703
  964MOL0     C30072   7.339   3.141   1.041  0.0516 -0.0976  0.0077
  964MOL0     H30073   6.878   3.228   1.200  2.8628  2.9410  1.2954
  964MOL0     H30074   6.649   3.196   1.138 -2.5630  2.1757 -0.2021
  964MOL0     H30075   6.438   3.218   1.079  4.5590  2.5674  2.9019
  964MOL0     H30076   6.388   3.384   1.101  0.4331  0.3143 -0.7514
  964MOL0     H30077   6.312   3.219   0.850 -2.4108 -2.9647  0.4339
  964MOL0     H30078   6.234   3.208   1.002 -1.3304 -1.7090 -2.5378
  964MOL0     H30079   6.089   3.324   0.904  0.2329 -0.5453  0.0584
  964MOL0     H30080   6.165   3.429   1.028  3.1951 -2.3035  1.8023
  964MOL0     H30081   6.293   3.533   0.837 -0.1401  0.1907  1.5503
  964MOL0     H30082   6.215   3.415   0.724 -1.8256  0.5704 -1.2490
  964MOL0     H30083   5.989   3.505   0.807  0.4822  1.2042  1.6185
  964MOL0     H30084   6.087   3.641   0.862 -0.4846  0.3551  0.4574
  964MOL0     H30085   6.185   3.673   0.647  0.1313  1.1756  3.4023
  964MOL0     H30086   6.071   3.563   0.576  2.0168 -0.3332  1.0306
  964MOL0     H30087   5.885   3.730   0.703 -0.7421  1.4563 -0.2776
  964MOL0     H30088   6.030   3.832   0.716  0.9959  1.3427 -1.9775
  964MOL0     H30089   5.921   3.744   0.452 -2.5106  2.7362 -0.8242
  964MOL0     H30090   6.068   3.832   0.481 -1.3836  4.3566 -2.1128
  964MOL0     H30091   5.724   3.886   0.425  1.6830 -0.4613 -0.6859
  964MOL0     H30092   5.537   4.123   0.578  2.6348 -2.6150  1.1444
  964MOL0     H30093   5.615   4.256   0.518 -3.0896 -0.0114 -0.7029
  964MOL0     H30094   5.645   4.148   0.286  0.4247  0.2362  0.5066
  964MOL0     H30095   5.517   4.247   0.317 -4.3071 -0.4437  0.8124
  964MOL0     H30096   5.506   3.944   0.323  0.3878  0.1128  3.3461
  964MOL0     H30097   5.434   4.058   0.205  0.5320  0.5385 -1.1743
  964MOL0     H30098   5.285   4.145   0.397 -0.1837 -0.5641 -1.9161
  964MOL0     H30099   5.359   4.008   0.491  1.5161  1.5845  0.9879
  964MOL0     H30100   5.062   4.174   0.364  1.4859 -0.1381  1.3594
  964MOL0     H30101   4.904   4.282   0.448 -0.6472  0.8064 -3.0787
  964MOL0     H30102   4.754   4.221   0.374 -0.6080 -0.9970  0.1876
  964MOL0     H30103   4.767   4.221   0.549 -0.4396 -0.3731 -0.4664
  964MOL0     H30104   4.564   3.649   0.641  0.7082 -1.2891  1.2357
  964MOL0     H30105   4.340   3.608   0.703  0.9344  0.6421 -0.5831
  964MOL0     H30106   4.109   3.696   0.727 -3.3507 -2.3524 -0.3168
  964MOL0     H30107   4.123   3.561   0.840  1.2436 -0.3431 -0.9110
  964MOL0     H30108   3.973   3.668   0.996  0.7280 -2.7105 -0.8932
  964MOL0     H30109   3.969   3.819   0.914  3.1086  0.8995  0.5681
  964MOL0     H30110   3.880   3.559   0.787  3.0892  0.2796  0.5749
  964MOL0     H30111   3.848   3.726   0.730 -2.1599 -0.0697  0.5334
  964MOL0     H30112   3.746   3.620   1.003 -0.4675  2.3397  1.3627
  964MOL0     H30113   3.696   3.771   0.919 -3.4004 -0.6184  0.0597
  964MOL0     H30114   3.658   3.477   0.812  0.5603 -0.3579  1.0174
  964MOL0     H30115   3.588   3.612   0.734  1.0631 -0.8811 -0.6657
  964MOL0     H30116   3.542   3.516   1.022 -3.5514 -2.9094 -0.1083
  964MOL0     H30117   3.482   3.675   0.967 -0.3742 -0.1180  0.8844
  964MOL0     H30118   3.419   3.410   0.827 -1.4696  0.2156  0.0541
  964MOL0     H30119   3.341   3.566   0.805  0.5814 -1.8110 -1.2338
  964MOL0     H30120   3.198   3.421   0.938 -0.4539 -0.0503 -0.6994
  964MOL0     H30121   3.256   3.552   1.050  1.3134 -2.5299  4.0743
  964MOL0     H30122   4.364   3.944   0.984 -1.3662 -1.8896  0.6651
  964MOL0     H30123   4.600   3.981   0.896  0.7514 -1.5310  1.5665
  964MOL0     H30124   4.946   3.767   0.616  2.7996  0.4131  1.7923
  964MOL0     H30125   5.156   3.779   0.486  0.4081  0.2154  3.7235
  964MOL0     H30126   6.681   3.482   0.829  2.1062  0.2810 -0.9358
  964MOL0     H30127   6.931   3.500   0.876  1.0382 -1.2780 -0.3750
  964MOL0     H30128   7.297   3.471   1.101  1.2534 -0.2624 -0.5017
  964MOL0     H30129   7.536   3.455   1.140 -0.9106  1.4596 -2.7501
  964MOL0     H30130   7.828   3.189   1.210 -0.2678 -1.0987  1.8974
  964MOL0     H30131   7.711   3.058   1.166  0.6196  1.3829  1.3917
  964MOL0     H30132   7.861   3.215   0.946  2.8688 -3.5662 -3.4904
  964MOL0     H30133   7.737   3.087   0.932 -0.6221  2.2015 -1.2678
  964MOL0     H30134   7.963   2.991   0.897 -0.7719  2.1937 -0.4585
  964MOL0     H30135   7.916   2.928   1.056  1.8186 -0.3505  1.7790
  964MOL0     H30136   8.061   3.110   1.161 -0.3589 -1.6560  0.3138
  964MOL0     H30137   8.090   3.183   1.008  1.4259  0.4920  1.1206
  964MOL0     H30138   8.361   2.853   0.998  0.0476  0.4492  0.4412
  964MOL0     H30139   7.531   3.047   1.055  0.0278 -0.7046 -0.0748
  964MOL0     H30140   7.278   3.057   1.006 -2.2839  1.3439  0.4270
  965MOL0     O30141   1.551  10.483   5.997 -0.5642 -0.0620  0.3574
  965MOL0     C30142   1.597  10.559   6.086  0.3808 -0.2300 -0.3574
  965MOL0     O30143   1.518  10.623   6.187 -0.3704 -0.4183 -0.2581
  965MOL0     C30144   1.381  10.589   6.186  0.0691 -0.6858  0.2048
  965MOL0     C30145   1.333  10.493   6.272  0.6851 -0.6668  0.0362
  965MOL0     C30146   1.209  10.442   6.248 -0.5497  0.3859  0.0032
  965MOL0     C30147   1.130  10.484   6.143  0.4000 -0.4389  0.6863
  965MOL0     O30148   1.005  10.419   6.138  0.1170 -0.1568 -0.0587
  965MOL0     C30149   0.889  10.479   6.086  0.3465 -0.0477 -0.6564
  965MOL0     C30150   0.776  10.379   6.130  0.2564  0.5039 -0.5380
  965MOL0     C30151   0.639  10.440   6.109 -0.2657 -0.0867 -0.1358
  965MOL0     C30152   0.533  10.332   6.136  0.9964  0.1297  0.3251
  965MOL0     C30153   0.391  10.364   6.087 -0.9540  0.2958  0.2963
  965MOL0     C30154   0.336  10.495   6.141 -0.1514 -0.2087  0.2144
  965MOL0     C30155   0.177  10.509   6.116 -0.1509 -0.4751  0.6629
  965MOL0     C30156   0.132  10.628   6.190  0.1792 -0.1485 -0.0627
  965MOL0     N30157  -0.005  10.657   6.145  0.4703  0.0321  0.7827
  965MOL0     C30158  -0.117  10.570   6.156  0.0725 -0.0190 -0.6745
  965MOL0     C30159  -0.215  10.628   6.086  0.0467  0.5442 -0.7835
  965MOL0     C30160  -0.358  10.584   6.064 -0.3961 -0.1382  0.3796
  965MOL0     C30161  -0.458  10.700   6.049  0.2542  0.5157  0.8472
  965MOL0     C30162  -0.590  10.651   5.982  0.0742  0.3627 -0.9077
  965MOL0     C30163  -0.702  10.751   5.990 -0.5936  0.9403  0.7230
  965MOL0     O30164  -0.734  10.796   5.859  0.7572 -0.3151  0.5838
  965MOL0     C30165  -0.815  10.725   5.773  0.5411  0.1027 -0.2185
  965MOL0     C30166  -0.889  10.619   5.812  0.2191  0.7595 -0.0538
  965MOL0     C30167  -0.979  10.558   5.726 -0.1675  0.3898  0.5516
  965MOL0     C30168  -1.060  10.430   5.757  0.4121  0.0406 -0.6695
  965MOL0     C30169  -1.000  10.607   5.598 -0.3873 -0.2720  0.3710
  965MOL0     C30170  -1.114  10.562   5.516 -0.1838  0.6458  0.1003
  965MOL0     O30171  -1.245  10.592   5.537  0.2416  0.0985 -0.1754
  965MOL0     C30172  -1.337  10.518   5.462 -0.0802  0.2845 -0.4693
  965MOL0     C30173  -1.425  10.578   5.376 -0.1860 -0.6213 -0.4876
  965MOL0     C30174  -1.507  10.509   5.285  0.1194  1.1023 -0.5482
  965MOL0     C30175  -1.499  10.371   5.280 -0.3505  0.4652 -0.5950
  965MOL0     O30176  -1.568  10.286   5.198  0.0954 -0.3475  0.8939
  965MOL0     C30177  -1.627  10.343   5.076  0.2643  0.5030  0.2448
  965MOL0     C30178  -1.668  10.217   4.999  0.2160 -0.2800  0.3491
  965MOL0     C30179  -1.744  10.267   4.874  0.0628 -0.1128 -1.4721
  965MOL0     C30180  -1.781  10.147   4.793  0.3335 -0.0303  0.1090
  965MOL0     C30181  -1.841  10.025   4.857  0.2047 -0.1049 -0.1830
  965MOL0     C30182  -1.867   9.916   4.751  0.3940  0.2234 -0.9092
  965MOL0     C30183  -1.927   9.782   4.797 -0.1677 -0.0297 -0.1847
  965MOL0     C30184  -1.935   9.683   4.678  0.5533 -0.1097 -0.1204
  965MOL0    Cl30185  -1.992   9.534   4.748  0.1520 -0.1110  0.4041
  965MOL0     C30186  -1.399  10.305   5.354 -0.0939  0.1091 -0.9661
  965MOL0     C30187  -1.323  10.378   5.449  0.1801  0.0912  0.5404
  965MOL0     O30188  -1.073  10.492   5.420 -0.3257  0.3589 -0.0551
  965MOL0     C30189  -0.928  10.719   5.557  0.3294  0.5775 -0.5342
  965MOL0     C30190  -0.836  10.774   5.647  0.3801 -1.2381  0.5862
  965MOL0     N30191  -0.161  10.745   6.023 -0.2116 -0.4659 -0.2727
  965MOL0     N30192  -0.043  10.769   6.069 -0.2221 -0.0351  0.0736
  965MOL0     C30193   1.181  10.584   6.059  0.4498 -0.4386  0.3896
  965MOL0     C30194   1.306  10.631   6.070 -0.5126 -0.2108 -1.0475
  965MOL0     C30195   1.741  10.583   6.073  0.2491 -0.7801 -1.2314
  965MOL0     C30196   1.825  10.527   5.976  0.1532 -0.4287 -0.1191
  965MOL0     C30197   1.960  10.547   5.986  0.4103 -0.2981 -0.4710
  965MOL0     C30198   2.022  10.622   6.088 -0.7718 -0.0590  0.7228
  965MOL0     O30199   2.157  10.630   6.112 -0.0338 -0.3200 -0.3139
  965MOL0     C30200   2.244  10.609   6.004 -0.5781  0.3997  0.0766
  965MOL0     C30201   2.381  10.623   6.069 -0.1561 -0.1717 -0.2165
  965MOL0     C30202   2.503  10.596   5.981 -0.4815 -0.1296  0.8869
  965MOL0     C30203   2.633  10.563   6.065 -0.1586  0.2710 -0.0592
  965MOL0     C30204   2.702  10.678   6.122  0.4433 -0.8315 -0.0327
  965MOL0     C30205   2.770  10.777   6.154 -1.0554 -0.5498  0.0083
  965MOL0     C30206   1.932  10.677   6.175  0.1882 -0.3330 -0.5314
  965MOL0     C30207   1.798  10.658   6.175  0.2690  0.0990 -0.3636
  965MOL0     H30208   1.395  10.465   6.357  1.2133 -1.3422 -0.5569
  965MOL0     H30209   1.173  10.371   6.322  1.2438 -1.0492 -0.4275
  965MOL0     H30210   0.875  10.574   6.140  2.9367 -1.5766  3.0791
  965MOL0     H30211   0.886  10.483   5.977  2.1372 -0.9318 -0.7779
  965MOL0     H30212   0.780  10.296   6.060  0.5788  0.4478 -0.4579
  965MOL0     H30213   0.787  10.342   6.233 -2.4114  3.1490  0.8321
  965MOL0     H30214   0.627  10.539   6.155 -0.1288  1.2727 -2.8654
  965MOL0     H30215   0.641  10.459   6.002  1.1958 -0.1904 -0.1447
  965MOL0     H30216   0.558  10.229   6.108  1.8498 -0.1461  1.9441
  965MOL0     H30217   0.529  10.329   6.245 -0.4213  1.2299  0.3347
  965MOL0     H30218   0.393  10.370   5.977  1.2380 -1.4467  0.1693
  965MOL0     H30219   0.328  10.277   6.107 -1.3752  0.2833 -0.9872
  965MOL0     H30220   0.355  10.489   6.248  1.6141 -2.2400 -0.1567
  965MOL0     H30221   0.391  10.581   6.102 -0.0950 -0.1960  0.3218
  965MOL0     H30222   0.180  10.515   6.007  1.4363 -4.5371  0.3214
  965MOL0     H30223   0.118  10.423   6.150  1.8207 -1.5514  1.4988
  965MOL0     H30224   0.200  10.709   6.166  0.9489 -0.7464  0.0612
  965MOL0     H30225   0.128  10.621   6.299  1.4369  3.4351  0.3424
  965MOL0     H30226  -0.122  10.474   6.207 -0.9979  0.4328  0.0988
  965MOL0     H30227  -0.362  10.510   5.984  0.7023  1.6631 -1.4235
  965MOL0     H30228  -0.383  10.519   6.149  0.7946 -2.1633 -0.7286
  965MOL0     H30229  -0.414  10.782   5.991 -0.4049  0.2098 -0.1114
  965MOL0     H30230  -0.487  10.742   6.145  0.4155  0.0117  1.1157
  965MOL0     H30231  -0.625  10.562   6.034  2.2146 -0.4132 -0.6787
  965MOL0     H30232  -0.567  10.634   5.877  0.1231  1.5068 -1.0943
  965MOL0     H30233  -0.671  10.833   6.055 -0.0116 -2.1346  4.7138
  965MOL0     H30234  -0.782  10.715   6.055  0.2624 -0.7188  0.8985
  965MOL0     H30235  -0.884  10.588   5.916 -0.3217  3.2986  0.7880
  965MOL0     H30236  -1.019  10.351   5.693  0.9219 -0.9069  0.7834
  965MOL0     H30237  -1.051  10.395   5.860 -0.7179 -4.0691 -1.7654
  965MOL0     H30238  -1.166  10.455   5.744  0.6543  0.8556 -1.1415
  965MOL0     H30239  -1.443  10.685   5.377 -0.4168 -0.6220 -2.2563
  965MOL0     H30240  -1.580  10.551   5.217  0.5526  1.4242 -0.8260
  965MOL0     H30241  -1.717  10.398   5.107  1.1879  1.0150  2.1428
  965MOL0     H30242  -1.566  10.402   5.007 -3.9121  1.0058 -3.5244
  965MOL0     H30243  -1.578  10.162   4.970 -0.2828 -1.4854  0.9988
  965MOL0     H30244  -1.736  10.158   5.061 -2.9837  1.4736 -1.2378
  965MOL0     H30245  -1.699  10.344   4.810  1.1664  0.2309 -0.3295
  965MOL0     H30246  -1.836  10.318   4.904 -0.1766  0.0248 -2.3946
  965MOL0     H30247  -1.846  10.177   4.710 -1.7365  0.0629  1.6759
  965MOL0     H30248  -1.685  10.105   4.761  0.0659 -0.0608 -0.6773
  965MOL0     H30249  -1.923  10.067   4.916  1.6375  0.1504  1.7450
  965MOL0     H30250  -1.764   9.979   4.921 -0.1200  2.4797  2.2595
  965MOL0     H30251  -1.928   9.950   4.666 -1.6558 -1.2932 -0.1466
  965MOL0     H30252  -1.771   9.889   4.707  0.4155 -4.7896  1.5448
  965MOL0     H30253  -2.023   9.802   4.847  0.1313 -1.4912  1.0697
  965MOL0     H30254  -1.864   9.739   4.875  0.8261  0.3041 -0.7891
  965MOL0     H30255  -1.840   9.647   4.637  0.9413 -2.2462  2.3685
  965MOL0     H30256  -1.995   9.726   4.598  4.7299  1.5392 -2.7415
  965MOL0     H30257  -1.388  10.199   5.335  0.4670 -0.5054  2.2611
  965MOL0     H30258  -1.239  10.336   5.502  0.1719 -0.0610  0.4326
  965MOL0     H30259  -0.953  10.772   5.465  1.0919  2.4636  0.2740
  965MOL0     H30260  -0.772  10.857   5.620 -0.2200 -0.6537  0.9188
  965MOL0     H30261   1.116  10.612   5.977  1.9534 -1.8353 -1.3491
  965MOL0     H30262   1.341  10.706   5.999  2.5828 -0.1147  0.4344
  965MOL0     H30263   1.782  10.462   5.900 -1.3374 -0.8099  0.9816
  965MOL0     H30264   2.023  10.501   5.911 -0.7007 -2.4242 -0.1820
  965MOL0     H30265   2.239  10.505   5.968  4.2531 -2.2115  5.3119
  965MOL0     H30266   2.233  10.688   5.929 -1.0906  2.3580  2.1109
  965MOL0     H30267   2.388  10.549   6.149 -0.2912  0.3684  0.3037
  965MOL0     H30268   2.385  10.724   6.111 -2.8376  0.6466 -1.7146
  965MOL0     H30269   2.517  10.682   5.915 -0.5945 -1.9750 -1.7349
  965MOL0     H30270   2.487  10.513   5.911  3.1071 -1.1992  1.1332
  965MOL0     H30271   2.707  10.506   6.007  1.2511  0.8051  1.1596
  965MOL0     H30272   2.604  10.495   6.146  0.7084  0.6406  0.5823
  965MOL0     H30273   2.834  10.862   6.146  2.0071 -2.6926  0.1051
  965MOL0     H30274   1.977  10.724   6.262  2.3297 -0.8902 -1.2812
  965MOL0     H30275   1.739  10.702   6.255 -2.4475 -3.9211  0.1281
  966MOL0     O30276   9.228  10.101   1.120  0.8765  0.3120  0.4341
  966MOL0     C30277   9.224   9.978   1.116 -0.3809  0.2960  0.1730
  966MOL0     O30278   9.116   9.889   1.131  0.0525 -0.2002  0.3655
  966MOL0     C30279   8.987   9.949   1.140 -0.0907  0.6318 -0.2433
  966MOL0     C30280   8.930  10.028   1.042 -0.6158  0.4565 -0.9054
  966MOL0     C30281   8.804  10.084   1.058  1.0254  0.0771 -0.9184
  966MOL0     C30282   8.738  10.056   1.179 -0.5721  0.3567  0.3213
  966MOL0     O30283   8.618  10.114   1.218 -0.2044 -0.0990  0.1762
  966MOL0     C30284   8.524  10.164   1.114 -0.1472  0.1206 -0.8088
  966MOL0     C30285   8.426  10.253   1.182 -0.3994  0.2665  0.5312
  966MOL0     C30286   8.321  10.323   1.089  0.2832  0.6239 -0.4451
  966MOL0     C30287   8.214  10.226   1.045  0.1733 -0.5080 -0.3451
  966MOL0     C30288   8.098  10.298   0.964  0.2297 -0.2292 -0.5544
  966MOL0     C30289   8.150  10.350   0.831  0.3209 -0.2291  0.0455
  966MOL0     C30290   8.052  10.443   0.778 -0.2547 -0.0354  0.1706
  966MOL0     C30291   8.119  10.505   0.646  0.1402 -0.3668 -0.2784
  966MOL0     N30292   8.051  10.616   0.577  0.7352 -0.4269 -0.1518
  966MOL0     C30293   7.983  10.720   0.641 -0.9273  0.2898  0.2210
  966MOL0     C30294   7.922  10.794   0.537 -0.5196 -0.5012 -0.2321
  966MOL0     C30295   7.835  10.916   0.559  0.1272 -0.0478 -1.1138
  966MOL0     C30296   7.702  10.862   0.613 -0.1791  0.1854  0.3538
  966MOL0     C30297   7.593  10.965   0.617  0.1665  0.2061  0.8827
  966MOL0     C30298   7.511  10.969   0.478  0.5193 -0.6456  0.4352
  966MOL0     O30299   7.444  11.095   0.453 -0.2041  0.0179  0.0180
  966MOL0     C30300   7.350  11.155   0.529  0.2355 -0.0508  0.1520
  966MOL0     C30301   7.326  11.285   0.502  0.5419  0.4594  0.9979
  966MOL0     C30302   7.208  11.351   0.550 -0.0014 -0.1275 -0.7943
  966MOL0     C30303   7.197  11.501   0.515  0.7176  0.1395  0.0809
  966MOL0     C30304   7.128  11.286   0.639  0.2139  0.8816 -0.6803
  966MOL0     C30305   7.009  11.344   0.703  0.7357 -0.1392  0.6154
  966MOL0     O30306   6.959  11.266   0.803 -0.2427 -0.2069 -0.6757
  966MOL0     C30307   6.865  11.331   0.893 -0.1137 -0.6340  0.3603
  966MOL0     C30308   6.733  11.356   0.861  0.0307 -0.2836  0.2298
  966MOL0     C30309   6.643  11.388   0.968 -0.0051  0.0762  0.5759
  966MOL0     C30310   6.685  11.408   1.102  0.3280  0.3920 -0.2048
  966MOL0     O30311   6.583  11.430   1.193  0.1851  0.1791 -0.3651
  966MOL0     C30312   6.603  11.511   1.311 -1.2870 -0.4044  0.3430
  966MOL0     C30313   6.476  11.491   1.386  0.6221 -0.8895  0.8368
  966MOL0     C30314   6.465  11.588   1.502 -0.5986  0.1222 -0.2588
  966MOL0     C30315   6.361  11.709   1.500  0.0500 -0.7352  0.1867
  966MOL0     C30316   6.381  11.785   1.633  0.0432 -0.4327 -0.0405
  966MOL0     C30317   6.299  11.919   1.643 -0.1671 -0.6385 -0.3009
  966MOL0     C30318   6.316  11.997   1.773  0.3568 -0.5345  0.5368
  966MOL0     C30319   6.215  12.112   1.784  0.0952 -1.1231 -0.5996
  966MOL0    Cl30320   6.251  12.248   1.681  0.1151  0.0714  0.0949
  966MOL0     C30321   6.823  11.405   1.128 -0.5799 -0.4919  0.5891
  966MOL0     C30322   6.909  11.356   1.025  0.1170 -0.3001  0.4457
  966MOL0     O30323   6.965  11.447   0.659  0.2136 -0.1445 -0.5007
  966MOL0     C30324   7.156  11.142   0.671 -0.1267 -0.1217 -0.2426
  966MOL0     C30325   7.261  11.084   0.602  0.3468 -0.4283 -0.4236
  966MOL0     N30326   7.957  10.742   0.419 -0.0965  0.3633  0.0464
  966MOL0     N30327   8.039  10.638   0.447  0.4715  0.1780  0.5419
  966MOL0     C30328   8.801   9.973   1.270 -0.4391 -0.0957  0.5763
  966MOL0     C30329   8.926   9.920   1.256 -0.2371 -0.4227 -0.3886
  966MOL0     C30330   9.357   9.909   1.116  0.2908 -0.6733  0.1354
  966MOL0     C30331   9.475   9.972   1.094  0.2188 -0.4355 -0.0173
  966MOL0     C30332   9.599   9.906   1.095 -0.1340  0.6757  0.3038
  966MOL0     C30333   9.607   9.766   1.104  0.5706 -0.1465  0.0232
  966MOL0     O30334   9.720   9.682   1.100 -0.3771 -0.0581 -0.2615
  966MOL0     C30335   9.837   9.744   1.050 -0.1790 -0.0612  0.2755
  966MOL0     C30336   9.955   9.654   1.065  0.2753 -0.2816  0.4473
  966MOL0     C30337   9.948   9.543   0.961 -0.8682  0.2920  0.2804
  966MOL0     C30338  10.049   9.436   0.983 -0.5934  0.0158  0.1443
  966MOL0     C30339  10.103   9.386   0.856  0.4905  0.4573 -0.0942
  966MOL0     C30340  10.170   9.349   0.757 -0.1019  0.7622  0.5685
  966MOL0     C30341   9.490   9.701   1.123  0.1357  0.0351  0.5486
  966MOL0     C30342   9.366   9.773   1.124 -0.9677 -0.3795  0.1629
  966MOL0     H30343   8.997  10.051   0.960  0.1853  1.8491  0.1014
  966MOL0     H30344   8.759  10.144   0.980 -2.0809 -2.0100 -0.9183
  966MOL0     H30345   8.585  10.223   1.046 -1.0397  1.3947 -0.5335
  966MOL0     H30346   8.474  10.088   1.053 -0.8900  0.8050 -1.0564
  966MOL0     H30347   8.365  10.197   1.254  0.8875 -1.7650  0.1167
  966MOL0     H30348   8.479  10.334   1.234 -0.6138  0.9644 -0.2992
  966MOL0     H30349   8.266  10.408   1.129 -1.9847 -1.0968  0.3338
  966MOL0     H30350   8.376  10.346   0.998  1.1893 -4.6711 -1.5694
  966MOL0     H30351   8.235  10.139   0.982 -1.3651 -0.3529 -1.1216
  966MOL0     H30352   8.162  10.186   1.133 -1.7514 -1.4862 -1.8457
  966MOL0     H30353   8.026  10.218   0.942  1.1296 -0.7870 -1.5231
  966MOL0     H30354   8.053  10.381   1.020  2.0871  0.7245 -0.4314
  966MOL0     H30355   8.242  10.408   0.834  0.1863  0.2423 -2.4119
  966MOL0     H30356   8.168  10.276   0.753  3.0042  0.9369 -0.5615
  966MOL0     H30357   7.962  10.388   0.752  1.1041 -2.1021 -0.3889
  966MOL0     H30358   8.032  10.522   0.851 -0.0913 -1.3381  1.6741
  966MOL0     H30359   8.134  10.431   0.567 -0.5069  0.8462 -1.5779
  966MOL0     H30360   8.218  10.537   0.682 -0.4678 -1.1140  2.2912
  966MOL0     H30361   7.988  10.746   0.746 -0.4960 -2.0288  0.8265
  966MOL0     H30362   7.882  10.991   0.622  4.1312 -1.3222 -2.2906
  966MOL0     H30363   7.821  10.962   0.460  1.9140  1.2008 -0.8351
  966MOL0     H30364   7.710  10.821   0.714 -0.7375 -0.8187  0.0006
  966MOL0     H30365   7.683  10.778   0.545  3.4449 -0.5833  0.0456
  966MOL0     H30366   7.637  11.065   0.627 -1.2296  0.8549  0.7564
  966MOL0     H30367   7.532  10.952   0.707 -0.9243 -0.7303  0.0340
  966MOL0     H30368   7.448  10.880   0.473  1.0001 -1.0611  1.5041
  966MOL0     H30369   7.571  10.946   0.389 -0.0012 -0.9151  0.1486
  966MOL0     H30370   7.405  11.336   0.448  0.3681 -1.1215 -0.8616
  966MOL0     H30371   7.293  11.530   0.471  0.2567  1.4898 -0.1034
  966MOL0     H30372   7.116  11.513   0.443  0.9979 -0.1944 -0.2952
  966MOL0     H30373   7.173  11.558   0.606 -1.8445  0.7368 -0.8875
  966MOL0     H30374   6.687  11.346   0.763 -2.6655 -3.3354  1.6555
  966MOL0     H30375   6.540  11.412   0.942  0.6394  1.5921 -0.7377
  966MOL0     H30376   6.687  11.481   1.374 -0.9877  1.2539  0.7672
  966MOL0     H30377   6.615  11.617   1.286 -1.5214  0.3621  3.1147
  966MOL0     H30378   6.411  11.530   1.307  3.1499  1.9196 -0.0365
  966MOL0     H30379   6.454  11.385   1.404  2.2781 -1.4250 -0.1214
  966MOL0     H30380   6.564  11.624   1.533 -0.3273 -2.5718  2.6450
  966MOL0     H30381   6.433  11.530   1.590 -1.4266  2.7930  1.2996
  966MOL0     H30382   6.383  11.782   1.422  1.6026 -0.2808  0.9977
  966MOL0     H30383   6.258  11.672   1.495 -1.2895  2.6869 -0.1358
  966MOL0     H30384   6.487  11.806   1.647 -0.1156  0.3785 -0.0345
  966MOL0     H30385   6.351  11.714   1.711  1.3208  1.2822  2.1390
  966MOL0     H30386   6.333  11.980   1.559 -0.1502 -3.8366 -2.8272
  966MOL0     H30387   6.199  11.885   1.614  0.3838 -2.7398  0.0676
  966MOL0     H30388   6.412  12.048   1.787 -0.3831  0.9380  0.3438
  966MOL0     H30389   6.305  11.927   1.857 -1.6058 -0.0884  0.6877
  966MOL0     H30390   6.227  12.134   1.890  1.9509 -0.3810 -0.9272
  966MOL0     H30391   6.115  12.079   1.753  0.0124 -1.0626 -0.3988
  966MOL0     H30392   6.859  11.417   1.230 -2.2706  1.2878  1.0283
  966MOL0     H30393   7.015  11.341   1.047  0.7811 -2.2965 -3.2616
  966MOL0     H30394   7.083  11.080   0.720  1.2549 -1.2552  0.4525
  966MOL0     H30395   7.273  10.976   0.608 -0.4682 -0.6052 -1.7200
  966MOL0     H30396   8.753   9.972   1.368  1.0421  0.0741  1.3252
  966MOL0     H30397   8.974   9.851   1.324 -0.0023 -0.8294 -0.9585
  966MOL0     H30398   9.486  10.079   1.080  2.4262 -0.7048 -0.7783
  966MOL0     H30399   9.697   9.949   1.075 -0.0806 -0.3066 -1.7749
  966MOL0     H30400   9.818   9.762   0.944  1.5413 -2.2436 -0.4813
  966MOL0     H30401   9.859   9.834   1.108 -3.2894 -0.6522  2.6814
  966MOL0     H30402   9.962   9.623   1.170  2.5488  0.8349  0.6867
  966MOL0     H30403  10.043   9.712   1.035  1.6196 -2.2739  0.3801
  966MOL0     H30404   9.967   9.584   0.862  0.3028 -3.7796 -1.3720
  966MOL0     H30405   9.853   9.492   0.947 -0.3645 -0.3310 -1.0238
  966MOL0     H30406  10.000   9.359   1.043 -0.8706  0.9801  1.1800
  966MOL0     H30407  10.136   9.471   1.040 -0.5529 -1.4697  1.0369
  966MOL0     H30408  10.225   9.304   0.678  0.4143  2.6170 -0.1953
  966MOL0     H30409   9.488   9.593   1.132 -1.4088 -0.1635 -1.4235
  966MOL0     H30410   9.274   9.719   1.141 -3.1268  2.3259 -1.9643
  967MOL0     O30411   0.799   7.562   7.416 -0.5572  0.2128  0.1764
  967MOL0     C30412   0.803   7.653   7.500 -0.1468  0.3282  0.4380
  967MOL0     O30413   0.730   7.655   7.611  0.3992 -0.2883  0.1440
  967MOL0     C30414   0.631   7.561   7.637  1.3077 -0.1684  1.1707
  967MOL0     C30415   0.588   7.534   7.768 -0.2021 -0.3077 -0.1969
  967MOL0     C30416   0.476   7.462   7.806  0.2519 -0.7573 -0.0364
  967MOL0     C30417   0.404   7.394   7.711  0.2950  0.3581  0.1664
  967MOL0     O30418   0.299   7.323   7.733  0.3725 -0.2867 -0.0073
  967MOL0     C30419   0.173   7.363   7.688 -0.5082  0.3534  0.0610
  967MOL0     C30420   0.079   7.377   7.810 -0.7159 -0.1441 -0.3807
  967MOL0     C30421  -0.047   7.444   7.757 -0.7847  0.5535 -0.3172
  967MOL0     C30422  -0.153   7.388   7.840  1.0368 -1.0312 -0.7361
  967MOL0     C30423  -0.267   7.484   7.861 -0.0025  0.2467  0.3084
  967MOL0     C30424  -0.369   7.414   7.950 -0.0958 -0.4680  0.2924
  967MOL0     C30425  -0.490   7.502   7.987  0.3721  0.4498 -0.5977
  967MOL0     C30426  -0.586   7.427   8.076  0.5487 -0.0491 -0.1251
  967MOL0     N30427  -0.697   7.512   8.118  0.2182 -0.5175  1.2347
  967MOL0     C30428  -0.832   7.493   8.085  0.6573  0.4307 -0.9638
  967MOL0     C30429  -0.898   7.589   8.156  0.2790  0.0852  0.4505
  967MOL0     C30430  -1.042   7.628   8.140 -0.6788 -0.8772  0.4143
  967MOL0     C30431  -1.061   7.778   8.096 -0.0405  0.9776 -1.1932
  967MOL0     C30432  -1.208   7.815   8.073 -0.5846 -0.9885  0.2371
  967MOL0     C30433  -1.221   7.961   8.017 -0.1133 -0.1262  0.5902
  967MOL0     O30434  -1.183   8.055   8.121  0.3723 -0.4718  0.8452
  967MOL0     C30435  -1.279   8.113   8.197  0.9635 -0.6366 -1.2051
  967MOL0     C30436  -1.251   8.230   8.259 -0.6237 -0.1354  0.7651
  967MOL0     C30437  -1.338   8.302   8.351 -0.1494  0.0959  0.5294
  967MOL0     C30438  -1.281   8.422   8.427  0.0146  0.1434  1.3399
  967MOL0     C30439  -1.464   8.245   8.382 -0.1457  0.2606 -0.0652
  967MOL0     C30440  -1.566   8.295   8.468 -0.5735 -0.2716 -0.4893
  967MOL0     O30441  -1.671   8.211   8.497 -0.4097  0.0886  0.3244
  967MOL0     C30442  -1.793   8.263   8.534  0.6943  0.0917 -0.3049
  967MOL0     C30443  -1.830   8.278   8.676 -0.2613  0.2877 -0.5579
  967MOL0     C30444  -1.948   8.352   8.702 -1.3640 -0.0217 -0.6104
  967MOL0     C30445  -2.030   8.399   8.605 -0.4339  0.3512  0.5317
  967MOL0     O30446  -2.147   8.455   8.647  0.4051  0.7011  0.6307
  967MOL0     C30447  -2.244   8.480   8.542 -0.5562  0.4511  0.0068
  967MOL0     C30448  -2.371   8.543   8.588  0.5581 -0.1688 -0.2780
  967MOL0     C30449  -2.350   8.693   8.614  0.4508  0.0106  0.2548
  967MOL0     C30450  -2.475   8.781   8.622  0.1420 -0.8037  0.8520
  967MOL0     C30451  -2.433   8.922   8.658  0.5094 -0.2737 -0.6317
  967MOL0     C30452  -2.553   9.019   8.668  0.1331  1.7096  0.0473
  967MOL0     C30453  -2.512   9.159   8.702 -0.3869 -0.0128 -0.0412
  967MOL0     C30454  -2.604   9.244   8.793 -0.2641 -0.1508  0.2495
  967MOL0    Cl30455  -2.764   9.296   8.709 -0.5725  0.2326 -0.0513
  967MOL0     C30456  -1.996   8.374   8.475  0.3822  0.1938  0.5385
  967MOL0     C30457  -1.877   8.307   8.431  0.8227  1.0604  0.0778
  967MOL0     O30458  -1.559   8.406   8.508 -0.5829 -0.5814  0.5989
  967MOL0     C30459  -1.488   8.121   8.311 -0.5123  0.1647  0.2850
  967MOL0     C30460  -1.407   8.065   8.214 -0.5477  0.9244 -0.2259
  967MOL0     N30461  -0.809   7.655   8.229 -0.3673 -0.7846  0.0246
  967MOL0     N30462  -0.693   7.606   8.219 -0.0743 -0.3961 -0.1536
  967MOL0     C30463   0.449   7.405   7.578  0.5435 -0.0440  0.2283
  967MOL0     C30464   0.554   7.495   7.538  0.2432  0.5062  0.1064
  967MOL0     C30465   0.900   7.765   7.475 -0.0391  0.4349  0.1925
  967MOL0     C30466   0.911   7.865   7.574  0.4560 -0.1634 -0.3351
  967MOL0     C30467   0.992   7.977   7.544  0.0114 -0.8303 -0.3563
  967MOL0     C30468   1.050   7.982   7.419 -0.2884 -0.3772 -0.3124
  967MOL0     O30469   1.141   8.076   7.373 -0.4852  0.3519 -0.4411
  967MOL0     C30470   1.118   8.206   7.424 -0.5404  0.5812  0.7001
  967MOL0     C30471   1.146   8.300   7.306  0.2812 -0.2921  0.3599
  967MOL0     C30472   1.293   8.291   7.269  0.4270 -0.2800 -0.3919
  967MOL0     C30473   1.316   8.374   7.143 -0.4055 -0.1295 -0.0676
  967MOL0     C30474   1.462   8.374   7.120  0.5274 -0.0171 -0.8391
  967MOL0     C30475   1.580   8.390   7.110  0.0877 -0.7293 -0.6142
  967MOL0     C30476   1.037   7.891   7.328  0.1816  0.6782 -0.2221
  967MOL0     C30477   0.964   7.782   7.355 -0.3594 -0.0392 -0.7005
  967MOL0     H30478   0.647   7.583   7.845  0.3553  0.7010 -1.2346
  967MOL0     H30479   0.451   7.462   7.912  1.1542 -2.2248  0.2030
  967MOL0     H30480   0.173   7.457   7.632  0.0980 -0.3877 -1.2196
  967MOL0     H30481   0.130   7.290   7.618  0.8855 -0.9477  0.5030
  967MOL0     H30482   0.071   7.277   7.854  1.6236 -1.1191 -1.9536
  967MOL0     H30483   0.133   7.438   7.882 -0.1488 -2.8518  1.6416
  967MOL0     H30484  -0.032   7.550   7.780  3.2735  0.2215 -0.7111
  967MOL0     H30485  -0.060   7.429   7.649  0.8480 -2.0763 -0.2413
  967MOL0     H30486  -0.192   7.295   7.798  1.8462 -1.3194 -0.8823
  967MOL0     H30487  -0.114   7.357   7.938 -1.0629 -1.3273  0.0524
  967MOL0     H30488  -0.223   7.572   7.910 -0.1888  0.8013 -0.5028
  967MOL0     H30489  -0.317   7.523   7.773  1.3241 -1.8818 -1.4913
  967MOL0     H30490  -0.397   7.325   7.892 -0.6015 -0.6614  0.8221
  967MOL0     H30491  -0.325   7.383   8.045  0.5244  0.0155  0.1703
  967MOL0     H30492  -0.441   7.584   8.040  0.2397 -1.0775  2.0698
  967MOL0     H30493  -0.533   7.532   7.891  0.8236 -1.6897 -1.5294
  967MOL0     H30494  -0.530   7.411   8.169  1.0565  2.6949  0.1064
  967MOL0     H30495  -0.617   7.333   8.029 -0.2067 -0.9500  2.0340
  967MOL0     H30496  -0.876   7.415   8.024 -3.0521 -0.0690  1.9864
  967MOL0     H30497  -1.083   7.564   8.061  2.2497 -2.1974 -0.1746
  967MOL0     H30498  -1.083   7.615   8.240  1.3355 -1.1140  1.2584
  967MOL0     H30499  -1.007   7.801   8.004 -2.1619  0.6475 -2.5973
  967MOL0     H30500  -1.022   7.835   8.181  2.6248 -0.6286 -1.2275
  967MOL0     H30501  -1.270   7.806   8.163 -1.6925 -0.4685 -0.4474
  967MOL0     H30502  -1.243   7.757   7.987  1.1671 -1.4371 -0.1996
  967MOL0     H30503  -1.320   7.978   7.975 -0.3343 -1.8988  0.3107
  967MOL0     H30504  -1.152   7.974   7.933 -1.7816  2.4340 -0.4723
  967MOL0     H30505  -1.156   8.279   8.239 -0.1590  0.6126  4.0805
  967MOL0     H30506  -1.352   8.501   8.399  0.2605  0.0131  0.3030
  967MOL0     H30507  -1.272   8.404   8.535  0.1182 -0.5313  1.2234
  967MOL0     H30508  -1.184   8.451   8.386 -1.4802 -0.3993 -3.1869
  967MOL0     H30509  -1.762   8.251   8.755  0.4812  1.0996 -0.8981
  967MOL0     H30510  -1.963   8.381   8.806  0.4523 -0.4765 -0.1755
  967MOL0     H30511  -2.191   8.538   8.466 -0.1456  1.2918  0.9103
  967MOL0     H30512  -2.270   8.381   8.501 -1.2690  0.5481  0.2239
  967MOL0     H30513  -2.447   8.526   8.511 -1.0442 -2.0613  1.5851
  967MOL0     H30514  -2.415   8.489   8.672 -0.2327 -0.7397 -1.0327
  967MOL0     H30515  -2.285   8.738   8.539  1.2336  0.3018  1.0870
  967MOL0     H30516  -2.293   8.696   8.707 -0.0831 -1.6675  0.6746
  967MOL0     H30517  -2.510   8.792   8.519  0.6183 -2.0284  0.5524
  967MOL0     H30518  -2.561   8.750   8.683 -0.0122  3.4144  3.2449
  967MOL0     H30519  -2.366   8.956   8.580 -3.1839 -0.5499 -4.2754
  967MOL0     H30520  -2.380   8.926   8.754  0.5504  1.7387 -0.7024
  967MOL0     H30521  -2.616   9.012   8.579 -2.5130  1.2999  1.8327
  967MOL0     H30522  -2.624   8.987   8.745 -1.7809  0.3043 -2.1297
  967MOL0     H30523  -2.500   9.215   8.609 -1.0593  1.2611  0.6182
  967MOL0     H30524  -2.414   9.150   8.750  0.0329 -0.9866 -1.0364
  967MOL0     H30525  -2.554   9.337   8.823 -2.4000  0.7860  1.0732
  967MOL0     H30526  -2.619   9.191   8.887 -1.4414  0.3186  0.3362
  967MOL0     H30527  -2.062   8.398   8.393  3.1599  2.1054 -1.3260
  967MOL0     H30528  -1.848   8.307   8.326  1.4086  0.4404  0.2301
  967MOL0     H30529  -1.577   8.061   8.331 -0.1193 -0.4668  0.1813
  967MOL0     H30530  -1.429   7.965   8.176  1.5388 -0.5472  2.0903
  967MOL0     H30531   0.384   7.359   7.505 -1.3747  4.2491 -1.1201
  967MOL0     H30532   0.572   7.519   7.434  0.6391 -0.8191 -0.1507
  967MOL0     H30533   0.859   7.856   7.669 -1.3895 -2.3657 -1.4837
  967MOL0     H30534   1.001   8.062   7.609 -2.7672  0.9778 -2.1140
  967MOL0     H30535   1.016   8.221   7.458 -0.7540 -0.1180  0.3784
  967MOL0     H30536   1.193   8.221   7.503 -0.8145 -1.2200  1.3541
  967MOL0     H30537   1.127   8.401   7.343  0.0061 -0.9669  2.1402
  967MOL0     H30538   1.088   8.285   7.214  1.1379  1.1197 -0.4555
  967MOL0     H30539   1.316   8.187   7.244  0.5330 -0.5685  0.7974
  967MOL0     H30540   1.352   8.331   7.353 -0.7032  0.7003 -0.0520
  967MOL0     H30541   1.276   8.475   7.154  1.2562  0.6345 -0.7003
  967MOL0     H30542   1.259   8.318   7.068 -1.9283  0.2322  0.7817
  967MOL0     H30543   1.687   8.396   7.109  0.2466  1.5963  3.7560
  967MOL0     H30544   1.083   7.896   7.230  0.4296  1.6146 -0.0702
  967MOL0     H30545   0.951   7.709   7.275  1.3487  0.2630 -1.2859
  968MOL0     O30546   4.801   6.145  10.173  0.7913  0.3435 -0.7201
  968MOL0     C30547   4.844   6.100  10.063 -0.4796 -0.2459 -0.3705
  968MOL0     O30548   4.790   6.005   9.983 -0.3424 -0.8077 -0.2744
  968MOL0     C30549   4.670   5.949  10.010 -0.3798 -0.2709  0.5906
  968MOL0     C30550   4.585   5.894   9.903  0.3494  0.2594 -1.0729
  968MOL0     C30551   4.461   5.832   9.928 -0.0421  0.4490  0.0436
  968MOL0     C30552   4.409   5.825  10.062 -0.6422 -0.0073  0.3947
  968MOL0     O30553   4.291   5.773  10.103 -0.3958  0.3754 -0.4761
  968MOL0     C30554   4.194   5.718  10.014  0.2349  0.4794  0.3658
  968MOL0     C30555   4.068   5.684  10.101  0.7099 -0.0342  0.0964
  968MOL0     C30556   3.992   5.807  10.163 -0.3046 -0.1582  0.2646
  968MOL0     C30557   3.856   5.780  10.215 -0.6771 -0.4689 -0.1411
  968MOL0     C30558   3.787   5.907  10.251  0.1871  0.1361  0.0396
  968MOL0     C30559   3.697   5.904  10.376 -0.0197  0.3501  1.1187
  968MOL0     C30560   3.782   5.877  10.503  0.3077  0.4971  0.5171
  968MOL0     C30561   3.705   5.916  10.634  0.0950 -0.8276  0.0166
  968MOL0     N30562   3.795   5.969  10.740 -0.5686  0.1129 -0.0063
  968MOL0     C30563   3.844   5.922  10.862  0.3654 -0.5229  0.4146
  968MOL0     C30564   3.881   6.027  10.936  0.4188 -0.0479  0.8097
  968MOL0     C30565   3.924   6.003  11.074 -0.1703  0.6536 -0.4661
  968MOL0     C30566   3.804   6.037  11.170  0.1054 -0.2776  0.2707
  968MOL0     C30567   3.835   6.072  11.315 -0.5036 -0.5564 -0.3337
  968MOL0     C30568   3.722   6.145  11.382  0.3794  0.4016  0.8192
  968MOL0     O30569   3.601   6.066  11.371 -0.3756 -0.2690 -0.4537
  968MOL0     C30570   3.551   5.981  11.469 -0.1461  0.3415  0.2147
  968MOL0     C30571   3.607   5.925  11.582  0.0017 -0.7407  0.1248
  968MOL0     C30572   3.518   5.849  11.676 -0.7317  0.1334 -0.4053
  968MOL0     C30573   3.586   5.787  11.803  0.6665  0.4210  0.7274
  968MOL0     C30574   3.377   5.832  11.652  0.5712  0.1851 -1.1052
  968MOL0     C30575   3.276   5.767  11.748 -0.8188 -0.0286  0.2295
  968MOL0     O30576   3.169   5.705  11.692 -0.0748  0.4383  0.0355
  968MOL0     C30577   3.066   5.669  11.774  0.7681 -0.4814 -0.0499
  968MOL0     C30578   3.002   5.543  11.753 -1.0676 -0.4049  0.6935
  968MOL0     C30579   2.900   5.493  11.825  0.1914 -1.2241  0.0687
  968MOL0     C30580   2.845   5.569  11.926 -0.1705  0.0242 -0.1265
  968MOL0     O30581   2.728   5.539  11.989  0.5986  0.1258  0.1689
  968MOL0     C30582   2.653   5.428  11.926  0.6987 -0.6986  1.0551
  968MOL0     C30583   2.517   5.409  11.999  0.0831 -0.3746  0.3210
  968MOL0     C30584   2.492   5.265  12.050 -0.7526  0.0258  0.5117
  968MOL0     C30585   2.359   5.254  12.124  0.6091  0.1673 -0.0351
  968MOL0     C30586   2.359   5.121  12.189 -0.1858 -0.4574 -0.0897
  968MOL0     C30587   2.219   5.105  12.264 -0.6959 -0.3443  0.2468
  968MOL0     C30588   2.114   5.048  12.174  0.7641 -0.0186  0.8477
  968MOL0     C30589   1.976   5.047  12.239 -0.1914  0.3190  0.2918
  968MOL0    Cl30590   1.968   4.909  12.353  0.3473  0.0586  0.0688
  968MOL0     C30591   2.904   5.698  11.960 -0.0369  0.6183  0.7236
  968MOL0     C30592   3.016   5.745  11.883 -0.4471  0.0069  0.0640
  968MOL0     O30593   3.299   5.779  11.871  0.8913 -0.1335 -0.0715
  968MOL0     C30594   3.335   5.879  11.529 -0.0643 -0.1767 -0.2263
  968MOL0     C30595   3.414   5.951  11.446 -1.5593 -0.3280  0.1352
  968MOL0     N30596   3.857   6.137  10.865  0.2163 -0.5988  0.1879
  968MOL0     N30597   3.810   6.108  10.754  0.0238  0.1083  0.7941
  968MOL0     C30598   4.488   5.876  10.160  0.3855  0.2136 -0.3069
  968MOL0     C30599   4.604   5.945  10.133 -0.0940  0.4150 -0.7462
  968MOL0     C30600   4.982   6.157  10.028 -0.2025 -0.3425  0.2551
  968MOL0     C30601   5.058   6.106   9.917 -0.0848  0.6263  0.4821
  968MOL0     C30602   5.175   6.153   9.889 -0.4335  0.4327 -0.6831
  968MOL0     C30603   5.245   6.246   9.977 -0.2223  0.5915 -0.2712
  968MOL0     O30604   5.374   6.279   9.949 -0.1033 -0.7658  0.1579
  968MOL0     C30605   5.427   6.408   9.969  0.6998 -0.5659  0.4686
  968MOL0     C30606   5.573   6.411   9.918  0.4574  0.4260 -0.0315
  968MOL0     C30607   5.668   6.297   9.965  0.1274 -0.1827 -0.7798
  968MOL0     C30608   5.675   6.300  10.122  0.0277  0.5927 -0.3426
  968MOL0     C30609   5.766   6.196  10.159 -0.1669 -0.8067 -0.1722
  968MOL0     C30610   5.828   6.097  10.195  1.1793 -0.9916  0.2316
  968MOL0     C30611   5.175   6.300  10.085  0.8386 -0.3266  0.0461
  968MOL0     C30612   5.042   6.262  10.109  0.2879 -0.5783  0.2818
  968MOL0     H30613   4.611   5.904   9.798 -1.6863  2.7102 -1.4279
  968MOL0     H30614   4.395   5.801   9.848  2.6795 -0.0745 -2.1815
  968MOL0     H30615   4.171   5.774   9.924 -0.8436  0.1319  0.4120
  968MOL0     H30616   4.238   5.630   9.966  2.6510  3.4423 -3.4038
  968MOL0     H30617   3.997   5.625  10.041  0.9631  0.8504 -1.0950
  968MOL0     H30618   4.097   5.625  10.188 -1.1091 -0.1148  0.6932
  968MOL0     H30619   4.051   5.852  10.243  2.0605 -0.3911 -1.2709
  968MOL0     H30620   3.979   5.881  10.084  1.2241  1.4312  1.4405
  968MOL0     H30621   3.799   5.739  10.130 -1.7099  0.5199  0.0534
  968MOL0     H30622   3.861   5.712  10.300 -2.5037 -1.4738 -0.7715
  968MOL0     H30623   3.864   5.985  10.257  0.1570  0.1399  0.3708
  968MOL0     H30624   3.728   5.937  10.163  0.2647  4.2349  1.1777
  968MOL0     H30625   3.642   5.998  10.381 -0.3393  0.4344 -2.1165
  968MOL0     H30626   3.624   5.823  10.369 -0.0184  0.4668 -0.5248
  968MOL0     H30627   3.801   5.771  10.519 -2.6336  0.2172  3.2371
  968MOL0     H30628   3.875   5.934  10.489  1.0786 -0.3891  1.7909
  968MOL0     H30629   3.644   5.835  10.675 -1.0821  0.7469  1.5495
  968MOL0     H30630   3.632   5.991  10.603 -0.3216 -0.0649  2.5853
  968MOL0     H30631   3.855   5.816  10.880 -0.2000 -1.4307 -3.5701
  968MOL0     H30632   3.958   5.900  11.093  0.1577  0.9449  0.6121
  968MOL0     H30633   4.010   6.066  11.099 -0.1543  0.5596 -0.2798
  968MOL0     H30634   3.731   5.955  11.172 -1.0453  0.7352  1.2544
  968MOL0     H30635   3.738   6.110  11.123 -1.3713 -0.9851  1.1789
  968MOL0     H30636   3.928   6.130  11.322  0.8026 -2.5073 -0.5483
  968MOL0     H30637   3.853   5.980  11.371 -2.1556  0.2930  1.7094
  968MOL0     H30638   3.699   6.236  11.326 -0.4504 -0.8445 -0.9527
  968MOL0     H30639   3.733   6.171  11.488 -2.7853 -2.5908  2.0886
  968MOL0     H30640   3.713   5.943  11.598 -0.1651 -0.4880  0.9993
  968MOL0     H30641   3.545   5.826  11.897  0.2864 -2.0336  1.6317
  968MOL0     H30642   3.584   5.678  11.808 -3.9833  0.2724 -0.0566
  968MOL0     H30643   3.689   5.825  11.797  0.0400  2.0763 -0.3914
  968MOL0     H30644   3.028   5.492  11.661  0.0697  1.0641  0.1537
  968MOL0     H30645   2.863   5.400  11.783 -0.4366  0.4573 -3.4966
  968MOL0     H30646   2.637   5.447  11.819 -0.4845 -1.6963  1.0279
  968MOL0     H30647   2.710   5.335  11.934 -0.5991 -1.6494 -0.2149
  968MOL0     H30648   2.512   5.479  12.083 -2.7354  0.9057 -0.8156
  968MOL0     H30649   2.443   5.442  11.926 -0.8045 -0.6466  1.0808
  968MOL0     H30650   2.579   5.240  12.111 -2.1219 -2.8462  1.4908
  968MOL0     H30651   2.492   5.201  11.962  0.5967 -1.2402  1.3908
  968MOL0     H30652   2.351   5.336  12.195 -3.2844  1.0734 -1.3021
  968MOL0     H30653   2.276   5.276  12.056 -0.6583  0.4145  1.5334
  968MOL0     H30654   2.441   5.124  12.261  1.6311  1.8779 -2.0874
  968MOL0     H30655   2.375   5.041  12.116 -1.5843 -1.0863  0.2540
  968MOL0     H30656   2.235   5.039  12.349  1.1677 -1.1973 -0.7038
  968MOL0     H30657   2.188   5.201  12.306 -0.7315 -1.3390  2.6459
  968MOL0     H30658   2.147   4.945  12.162 -1.7610 -0.7660 -0.3237
  968MOL0     H30659   2.119   5.109  12.083 -0.7875  0.0549  0.7840
  968MOL0     H30660   1.905   5.036  12.156  1.6750  0.7705 -1.4365
  968MOL0     H30661   1.949   5.137  12.294  0.5139  1.8954 -1.8104
  968MOL0     H30662   2.857   5.754  12.040  1.0807  1.2114  0.9736
  968MOL0     H30663   3.071   5.829  11.925  1.7935 -1.2200 -0.3094
  968MOL0     H30664   3.230   5.867  11.504 -0.3461  0.4802  0.5886
  968MOL0     H30665   3.360   5.995  11.363 -0.4285  0.0239 -0.4321
  968MOL0     H30666   4.445   5.872  10.260 -1.5051  1.7303 -0.9905
  968MOL0     H30667   4.647   5.983  10.225 -0.8779 -1.1223  0.2963
  968MOL0     H30668   5.022   6.013   9.873  1.3496  0.2702 -0.0116
  968MOL0     H30669   5.227   6.103   9.808  0.1151  0.4047 -0.3113
  968MOL0     H30670   5.369   6.479   9.910  0.3116 -1.7593 -0.6146
  968MOL0     H30671   5.439   6.438  10.074  1.7137 -2.1697  0.8394
  968MOL0     H30672   5.608   6.505   9.961 -1.4689 -0.1435  3.1194
  968MOL0     H30673   5.577   6.420   9.809  0.2292 -0.6532 -0.1424
  968MOL0     H30674   5.769   6.319   9.928  0.7999 -0.2793  0.9180
  968MOL0     H30675   5.644   6.197   9.928  1.0023 -0.5752 -0.3270
  968MOL0     H30676   5.579   6.273  10.167 -0.2680 -1.6643 -2.1429
  968MOL0     H30677   5.707   6.399  10.156 -2.2538  1.4102 -0.4200
  968MOL0     H30678   5.874   6.001  10.209 -2.3471 -3.2063 -1.9058
  968MOL0     H30679   5.227   6.370  10.150 -0.8335  0.2893  0.7637
  968MOL0     H30680   4.988   6.314  10.187 -0.4508  0.7363 -1.0556
  969MOL0     O30681   4.306   7.313   9.496  0.5693 -0.1730 -0.3405
  969MOL0     C30682   4.362   7.205   9.507  0.1367  0.3632 -0.3160
  969MOL0     O30683   4.309   7.091   9.561  0.1773  0.0141  0.2530
  969MOL0     C30684   4.175   7.088   9.583 -0.2247 -0.0805  1.2357
  969MOL0     C30685   4.094   7.050   9.476 -0.7851  0.3927  0.7582
  969MOL0     C30686   3.960   7.046   9.486 -1.0812 -0.6770  0.4809
  969MOL0     C30687   3.901   7.071   9.610 -0.5932  0.2578  0.2637
  969MOL0     O30688   3.764   7.061   9.617 -0.2901  0.3435 -0.1987
  969MOL0     C30689   3.698   7.163   9.693  0.2282  0.9587  0.1216
  969MOL0     C30690   3.555   7.186   9.640 -0.1778  0.1500 -0.6109
  969MOL0     C30691   3.489   7.069   9.568 -0.5982 -0.7853  0.5789
  969MOL0     C30692   3.354   7.114   9.507  0.8743  0.5746  1.1439
  969MOL0     C30693   3.277   6.993   9.444 -0.6101 -0.3744 -0.0352
  969MOL0     C30694   3.138   7.028   9.387 -0.0277 -1.1350 -0.0193
  969MOL0     C30695   3.086   6.907   9.305  0.3817 -0.3822  0.1825
  969MOL0     C30696   3.042   6.791   9.396  0.4023 -0.3286 -0.2639
  969MOL0     N30697   2.970   6.692   9.314  0.5369  0.3868  0.1397
  969MOL0     C30698   3.010   6.562   9.285 -0.9691  0.1260 -0.5240
  969MOL0     C30699   2.897   6.512   9.240 -0.1428  0.4964 -0.0781
  969MOL0     C30700   2.873   6.373   9.198 -0.7198  0.0019 -0.3833
  969MOL0     C30701   2.781   6.297   9.297 -0.3488 -0.1179 -0.4748
  969MOL0     C30702   2.632   6.311   9.265  0.2548 -0.1461  0.1343
  969MOL0     C30703   2.536   6.316   9.389 -0.3820  0.3598 -0.2998
  969MOL0     O30704   2.567   6.206   9.480  0.3780 -0.0520 -0.2571
  969MOL0     C30705   2.508   6.083   9.460  0.6533  1.3295  0.5057
  969MOL0     C30706   2.399   6.048   9.380 -0.3329 -0.0691  0.3950
  969MOL0     C30707   2.358   5.918   9.346  0.7530  0.6822  0.4011
  969MOL0     C30708   2.234   5.913   9.258 -0.4828  0.4514  0.0458
  969MOL0     C30709   2.427   5.816   9.409  0.0107 -0.6296 -0.4270
  969MOL0     C30710   2.407   5.679   9.369 -0.5039  0.6886 -0.6557
  969MOL0     O30711   2.448   5.579   9.457 -0.0248  0.3234  0.1184
  969MOL0     C30712   2.423   5.450   9.425  0.5075 -0.1446 -0.2018
  969MOL0     C30713   2.298   5.397   9.462  0.0705  0.6127  0.0607
  969MOL0     C30714   2.274   5.254   9.459  0.0761 -0.2742  0.0115
  969MOL0     C30715   2.382   5.172   9.420 -0.4766  0.4250 -0.1617
  969MOL0     O30716   2.360   5.040   9.424 -0.8102 -0.1441  0.8529
  969MOL0     C30717   2.436   4.947   9.347  0.0746  0.6327 -0.8881
  969MOL0     C30718   2.435   4.959   9.190  0.0400 -0.9050 -0.4099
  969MOL0     C30719   2.533   4.870   9.137  0.0082  0.5667  0.3767
  969MOL0     C30720   2.569   4.905   8.988  0.2020 -0.4862 -0.3141
  969MOL0     C30721   2.712   4.943   8.954 -0.4213  0.1332  0.0234
  969MOL0     C30722   2.828   4.848   8.991 -0.1942 -0.1452 -0.0738
  969MOL0     C30723   2.959   4.918   8.976 -0.4722  0.5925 -0.1586
  969MOL0     C30724   2.995   4.922   8.828 -0.6169 -0.8519 -0.4671
  969MOL0    Cl30725   3.168   4.969   8.797  0.2033 -0.2189 -0.1229
  969MOL0     C30726   2.507   5.230   9.376  0.0651 -0.8662 -1.3349
  969MOL0     C30727   2.528   5.368   9.380 -0.1093  0.5179 -0.0379
  969MOL0     O30728   2.351   5.660   9.259  0.0798  0.5560  0.1767
  969MOL0     C30729   2.530   5.848   9.499 -0.6097 -0.3179 -0.5319
  969MOL0     C30730   2.561   5.978   9.525  0.5610 -0.3896 -0.0294
  969MOL0     N30731   2.792   6.600   9.241 -0.8615  0.5552 -0.4732
  969MOL0     N30732   2.836   6.706   9.286 -0.2319  0.7433 -0.3003
  969MOL0     C30733   3.982   7.087   9.721  0.2304  0.4977 -0.4616
  969MOL0     C30734   4.119   7.100   9.708  0.4690  0.4892 -0.8829
  969MOL0     C30735   4.501   7.201   9.463  0.0615  0.7434 -0.4434
  969MOL0     C30736   4.579   7.318   9.439  0.2048  0.4140 -0.4997
  969MOL0     C30737   4.712   7.305   9.404 -0.3221  0.1020 -0.8431
  969MOL0     C30738   4.782   7.191   9.391 -0.2105  1.0024  0.4412
  969MOL0     O30739   4.923   7.191   9.368 -0.2580  0.1377 -0.4122
  969MOL0     C30740   5.008   7.073   9.367  0.8496  0.2674  0.5809
  969MOL0     C30741   5.151   7.108   9.340 -0.3932  0.9188  0.6291
  969MOL0     C30742   5.228   7.133   9.467 -0.5315 -0.0497 -0.7005
  969MOL0     C30743   5.374   7.090   9.460 -0.0463 -0.4676  0.0702
  969MOL0     C30744   5.457   7.191   9.382 -0.5509  0.7365 -0.1330
  969MOL0     C30745   5.520   7.285   9.332  0.1749 -0.4235 -0.6959
  969MOL0     C30746   4.696   7.074   9.411  0.2118  0.4219  0.2782
  969MOL0     C30747   4.561   7.080   9.448  0.9445 -0.3212  0.5355
  969MOL0     H30748   4.148   7.024   9.385  0.6067  1.4266  1.2485
  969MOL0     H30749   3.900   7.023   9.398 -0.5421 -2.3310  0.5130
  969MOL0     H30750   3.689   7.130   9.797  1.5193 -0.0519 -0.0630
  969MOL0     H30751   3.763   7.250   9.686  1.1768  0.2941  0.4032
  969MOL0     H30752   3.497   7.214   9.729  0.5532  0.8332 -0.3349
  969MOL0     H30753   3.561   7.274   9.576 -1.8763  0.5437 -0.2718
  969MOL0     H30754   3.547   7.037   9.481 -0.1120  1.4207  0.0254
  969MOL0     H30755   3.479   6.982   9.633 -0.1866 -0.9613  0.4100
  969MOL0     H30756   3.292   7.167   9.580 -0.8614  2.8169 -1.7673
  969MOL0     H30757   3.372   7.191   9.431  1.0738 -0.2811  0.3000
  969MOL0     H30758   3.337   6.961   9.358  2.5275 -0.0146  1.8810
  969MOL0     H30759   3.277   6.905   9.508 -1.5466 -0.6046 -0.3416
  969MOL0     H30760   3.065   7.057   9.463 -1.9388 -0.4991 -2.0014
  969MOL0     H30761   3.128   7.111   9.318 -3.6851 -0.4429  1.1314
  969MOL0     H30762   2.998   6.938   9.247  2.2853  1.6809 -1.7841
  969MOL0     H30763   3.160   6.856   9.242  0.5512 -3.5133  2.6621
  969MOL0     H30764   2.983   6.830   9.479 -0.3447  0.2132 -1.0314
  969MOL0     H30765   3.125   6.753   9.456  0.8313  2.9992  1.5500
  969MOL0     H30766   3.109   6.518   9.292 -0.8242  0.4565 -0.4469
  969MOL0     H30767   2.841   6.363   9.094  0.2745  0.6548 -0.7625
  969MOL0     H30768   2.967   6.317   9.201  0.3923  1.8094  1.1196
  969MOL0     H30769   2.798   6.339   9.397 -0.1643  0.5621 -0.7837
  969MOL0     H30770   2.817   6.194   9.289 -2.6745 -0.9422 -1.2246
  969MOL0     H30771   2.595   6.226   9.207 -1.4236  0.3459  0.4234
  969MOL0     H30772   2.604   6.398   9.205 -0.2212  0.8542  1.7316
  969MOL0     H30773   2.435   6.333   9.352  0.2221  1.3797 -1.5761
  969MOL0     H30774   2.557   6.407   9.446  0.6466 -0.8013  1.2728
  969MOL0     H30775   2.353   6.133   9.330 -0.2589  0.3742  1.0592
  969MOL0     H30776   2.266   5.904   9.153 -1.0031  1.2395 -0.1903
  969MOL0     H30777   2.171   5.826   9.278  1.4639 -0.6016  1.9180
  969MOL0     H30778   2.175   6.005   9.265 -0.1726  0.9588 -2.6040
  969MOL0     H30779   2.221   5.468   9.488 -0.2947  0.7111 -1.2203
  969MOL0     H30780   2.181   5.210   9.495  0.3819 -0.3841  0.6912
  969MOL0     H30781   2.539   4.958   9.384 -0.9519 -0.4300  2.6519
  969MOL0     H30782   2.411   4.847   9.383  2.2760  0.5948  0.7693
  969MOL0     H30783   2.333   4.931   9.162 -0.0809 -2.9828  1.7525
  969MOL0     H30784   2.448   5.065   9.168  1.3088 -1.1452 -0.8923
  969MOL0     H30785   2.493   4.771   9.158 -0.6772  1.0859  1.6533
  969MOL0     H30786   2.630   4.870   9.189 -0.5690 -4.6035  2.0275
  969MOL0     H30787   2.555   4.808   8.940 -0.1085 -1.2818  1.3071
  969MOL0     H30788   2.498   4.975   8.942  0.3073 -1.5580 -2.1800
  969MOL0     H30789   2.723   5.049   8.977 -1.9849  0.1777  0.6694
  969MOL0     H30790   2.715   4.948   8.845  0.9969  1.6156  0.0811
  969MOL0     H30791   2.819   4.821   9.097  0.4988 -0.0951  0.0047
  969MOL0     H30792   2.823   4.761   8.926 -0.2044  1.6595 -2.6252
  969MOL0     H30793   3.037   4.866   9.032  1.3754  1.3062 -1.9521
  969MOL0     H30794   2.960   5.023   9.007 -0.2740  0.1690  1.3529
  969MOL0     H30795   2.931   4.993   8.774 -0.5887 -1.4754 -1.3297
  969MOL0     H30796   2.985   4.823   8.782  0.7488 -0.1505 -2.3964
  969MOL0     H30797   2.592   5.165   9.356  0.5536 -0.9479  0.7791
  969MOL0     H30798   2.617   5.423   9.350  0.0945  0.1420 -0.1229
  969MOL0     H30799   2.585   5.778   9.562  1.0202  0.7702 -0.6845
  969MOL0     H30800   2.643   5.973   9.596 -2.0726 -3.9225  3.1522
  969MOL0     H30801   3.933   7.101   9.817 -1.2503 -0.1127 -1.0961
  969MOL0     H30802   4.185   7.117   9.792  1.0963  4.4202 -2.0066
  969MOL0     H30803   4.527   7.413   9.435  0.2330  0.4123 -1.0521
  969MOL0     H30804   4.778   7.390   9.386  1.2523 -0.7845  0.4539
  969MOL0     H30805   4.993   7.011   9.456  0.3310  0.4830  0.6473
  969MOL0     H30806   4.977   7.012   9.281  1.8044  0.6884 -0.0725
  969MOL0     H30807   5.159   7.200   9.281  1.8335  1.0286  1.0037
  969MOL0     H30808   5.197   7.026   9.285 -1.5374  0.3269  0.5174
  969MOL0     H30809   5.181   7.074   9.546 -1.0905  2.6475  1.1108
  969MOL0     H30810   5.224   7.237   9.499 -0.2348 -0.7274  1.7867
  969MOL0     H30811   5.379   6.991   9.414  1.6012 -0.3697 -0.0404
  969MOL0     H30812   5.417   7.083   9.561  1.1331 -0.1863 -0.3990
  969MOL0     H30813   5.544   7.384   9.298  0.8316 -0.8342 -1.4485
  969MOL0     H30814   4.739   6.974   9.411  0.2595  0.4237  1.4824
  969MOL0     H30815   4.516   6.981   9.447 -2.6448  1.0372  3.5527
  970MOL0     O30816  10.428   7.002   6.743  0.5263  0.7187 -0.0883
  970MOL0     C30817  10.370   7.039   6.642 -0.0036 -0.2614 -0.1371
  970MOL0     O30818  10.241   7.073   6.628 -0.7164 -0.0559  0.2079
  970MOL0     C30819  10.147   7.055   6.722 -0.1970 -0.3002 -0.3539
  970MOL0     C30820  10.142   6.957   6.828  0.1365 -1.3213  0.3851
  970MOL0     C30821  10.042   6.965   6.925  0.3495  0.1223  0.3275
  970MOL0     C30822   9.957   7.080   6.934 -0.4619  0.3769 -0.4116
  970MOL0     O30823   9.867   7.095   7.037  0.9022  0.1701  0.0760
  970MOL0     C30824   9.829   6.980   7.120 -0.1792  0.5039 -0.0513
  970MOL0     C30825   9.732   7.026   7.221  0.0098 -0.1305  0.1548
  970MOL0     C30826   9.601   7.096   7.167 -0.2746  0.2687  0.4099
  970MOL0     C30827   9.511   6.988   7.098  0.0387 -0.5558  0.2626
  970MOL0     C30828   9.375   7.042   7.045 -0.1134 -0.2026 -0.1925
  970MOL0     C30829   9.290   6.931   7.003  0.8011 -0.2021  0.6002
  970MOL0     C30830   9.141   6.968   6.978  0.3587  0.2707 -0.5347
  970MOL0     C30831   9.052   6.840   6.944 -0.1233 -0.3833  0.6810
  970MOL0     N30832   8.909   6.884   6.909 -0.8452 -0.2584 -0.4967
  970MOL0     C30833   8.797   6.813   6.937 -0.0455 -0.2235 -0.2272
  970MOL0     C30834   8.695   6.892   6.904  0.5702  0.0155  0.8918
  970MOL0     C30835   8.551   6.859   6.901 -0.0775  0.4111  0.8483
  970MOL0     C30836   8.495   6.777   7.014 -0.0124 -0.0577 -0.0814
  970MOL0     C30837   8.347   6.768   7.018  0.5763  0.3802  0.6098
  970MOL0     C30838   8.283   6.737   6.883  0.2011 -1.1301 -0.4258
  970MOL0     O30839   8.242   6.860   6.821  0.3051  0.0194 -0.0804
  970MOL0     C30840   8.112   6.889   6.814  0.7967 -0.2846  0.1095
  970MOL0     C30841   8.020   6.861   6.910  0.2522 -0.1167  0.1603
  970MOL0     C30842   7.881   6.883   6.893  0.2397  0.0906 -0.2747
  970MOL0     C30843   7.796   6.846   7.006 -0.1758  0.2511 -0.8733
  970MOL0     C30844   7.843   6.955   6.784 -0.0921 -1.0053 -0.6396
  970MOL0     C30845   7.699   6.993   6.756  0.7142  0.5300 -0.2194
  970MOL0     O30846   7.615   7.015   6.854  0.2045  0.4326  0.0179
  970MOL0     C30847   7.481   7.023   6.823 -0.9840 -0.1040  0.2062
  970MOL0     C30848   7.424   7.147   6.812 -0.2503 -0.5474 -0.4039
  970MOL0     C30849   7.285   7.156   6.810 -0.2475  0.0584  0.4214
  970MOL0     C30850   7.203   7.041   6.789  0.4699 -0.5789 -0.8530
  970MOL0     O30851   7.069   7.044   6.773 -0.4065 -1.2596  0.2634
  970MOL0     C30852   7.019   7.162   6.699 -0.3060  1.0296  0.7075
  970MOL0     C30853   6.888   7.121   6.636  0.5099  0.3078 -0.0558
  970MOL0     C30854   6.775   7.108   6.741  0.6048  0.3126 -0.1167
  970MOL0     C30855   6.651   7.032   6.682  0.1165 -0.6232 -0.3753
  970MOL0     C30856   6.542   7.048   6.790  0.1432  0.4370  0.6591
  970MOL0     C30857   6.404   6.998   6.738  0.7021 -0.8001  0.3713
  970MOL0     C30858   6.315   6.969   6.862  0.4759  0.3446  0.2600
  970MOL0     C30859   6.165   6.938   6.832 -0.3035 -0.0488  0.8104
  970MOL0    Cl30860   6.093   7.043   6.714 -0.2975  0.2389  0.0552
  970MOL0     C30861   7.269   6.919   6.783  0.3301  0.6254 -0.1259
  970MOL0     C30862   7.403   6.912   6.817  0.4037  0.3473 -0.1617
  970MOL0     O30863   7.666   6.990   6.638  0.1846 -0.1116 -0.2491
  970MOL0     C30864   7.937   6.986   6.680  0.7798  0.6695 -0.2854
  970MOL0     C30865   8.072   6.951   6.699 -0.1432  0.0984  0.7369
  970MOL0     N30866   8.747   7.006   6.846 -0.7738 -0.1441  0.5183
  970MOL0     N30867   8.878   6.998   6.838  0.3188  0.2979  0.1496
  970MOL0     C30868   9.965   7.172   6.832  0.5793 -0.8284 -0.0984
  970MOL0     C30869  10.059   7.161   6.732 -0.2132 -0.3264 -0.5853
  970MOL0     C30870  10.454   7.068   6.528  0.6161 -0.4937 -0.4608
  970MOL0     C30871  10.414   7.136   6.409  0.4276  0.3080  0.4027
  970MOL0     C30872  10.498   7.156   6.295  0.5493  1.0555  0.0362
  970MOL0     C30873  10.630   7.109   6.301 -0.7437  0.3302 -0.6010
  970MOL0     O30874  10.713   7.135   6.199  0.0713  0.5611  0.3378
  970MOL0     C30875  10.831   7.061   6.185 -1.0820 -0.0663  1.0622
  970MOL0     C30876  10.866   7.058   6.029 -0.1443 -0.1937  0.5644
  970MOL0     C30877  11.008   7.003   6.000  0.7171 -0.8572  1.3675
  970MOL0     C30878  11.034   7.036   5.850 -0.3438  0.9972  0.7597
  970MOL0     C30879  11.181   7.025   5.826 -0.2376  0.3092 -0.2802
  970MOL0     C30880  11.303   7.005   5.797 -0.4108 -0.2472 -0.1536
  970MOL0     C30881  10.676   7.054   6.423 -0.4683 -0.2612  0.7444
  970MOL0     C30882  10.589   7.046   6.534 -1.2385  0.8654  0.6794
  970MOL0     H30883  10.203   6.867   6.827  0.9338 -0.8160 -1.6037
  970MOL0     H30884  10.046   6.882   6.995  1.0027  0.5551  0.8199
  970MOL0     H30885   9.774   6.907   7.060 -1.3629 -1.4884  3.1773
  970MOL0     H30886   9.917   6.932   7.162  0.9362  0.1594 -2.6089
  970MOL0     H30887   9.704   6.956   7.300 -1.2582  1.6265  1.3618
  970MOL0     H30888   9.784   7.102   7.280 -1.8386 -0.4969  2.4142
  970MOL0     H30889   9.542   7.142   7.247 -2.2180  0.4561 -1.0411
  970MOL0     H30890   9.620   7.174   7.093  1.6614  0.2014  0.7893
  970MOL0     H30891   9.564   6.928   7.024  1.2116 -0.2939  0.8794
  970MOL0     H30892   9.483   6.918   7.177 -3.2258  2.3849  2.0018
  970MOL0     H30893   9.334   7.106   7.124  1.1461 -0.8146  0.9981
  970MOL0     H30894   9.387   7.114   6.963 -0.7083  0.6717  0.4691
  970MOL0     H30895   9.334   6.885   6.914  3.1288  0.3059  1.4151
  970MOL0     H30896   9.294   6.857   7.083 -2.9106 -0.7352  0.4423
  970MOL0     H30897   9.102   7.020   7.066  2.4959  2.2043 -0.6025
  970MOL0     H30898   9.133   7.046   6.901 -0.1099  0.0288 -0.7366
  970MOL0     H30899   9.049   6.778   7.034 -1.1803 -1.9848 -0.3966
  970MOL0     H30900   9.099   6.794   6.856 -0.3168  2.8092 -1.2626
  970MOL0     H30901   8.788   6.711   6.973 -2.2216 -0.1024 -0.2745
  970MOL0     H30902   8.495   6.950   6.879  2.9057  2.3516  0.5653
  970MOL0     H30903   8.534   6.796   6.814 -1.1400  0.2342  1.1686
  970MOL0     H30904   8.528   6.815   7.111 -3.3217  0.3820  1.0047
  970MOL0     H30905   8.540   6.678   7.012  0.5193  0.1521 -3.1058
  970MOL0     H30906   8.301   6.859   7.060  3.1560  0.1417  4.5320
  970MOL0     H30907   8.317   6.689   7.088 -0.5927  0.5281  0.2995
  970MOL0     H30908   8.198   6.670   6.901 -1.6716  1.1462 -0.4502
  970MOL0     H30909   8.347   6.688   6.809  2.5318 -1.8738  1.9365
  970MOL0     H30910   8.052   6.811   7.000 -1.1721 -0.1505  0.6847
  970MOL0     H30911   7.714   6.913   7.032  0.2168  0.2620  0.4163
  970MOL0     H30912   7.742   6.753   6.985 -2.6171  1.5364 -0.6906
  970MOL0     H30913   7.851   6.829   7.099 -2.0613  0.5765  0.3544
  970MOL0     H30914   7.475   7.243   6.810  1.4565 -1.4172 -1.0187
  970MOL0     H30915   7.240   7.255   6.819  0.7068  0.6184 -0.6259
  970MOL0     H30916   7.000   7.241   6.772  3.1009  0.9201  1.8943
  970MOL0     H30917   7.092   7.194   6.624  0.2524 -1.8034 -0.0728
  970MOL0     H30918   6.844   7.189   6.563 -3.0794 -1.5984  0.1294
  970MOL0     H30919   6.899   7.025   6.585 -0.1563  1.5399 -2.6443
  970MOL0     H30920   6.747   7.211   6.765 -2.7244 -0.6878  0.7320
  970MOL0     H30921   6.813   7.067   6.835  0.8532 -1.0720 -0.7975
  970MOL0     H30922   6.616   7.058   6.581 -1.2785 -1.6019 -0.1649
  970MOL0     H30923   6.682   6.927   6.681 -1.5595 -1.1580  0.3498
  970MOL0     H30924   6.525   7.155   6.806 -0.5612  0.6183 -1.0904
  970MOL0     H30925   6.577   6.994   6.878  1.9578  0.4705 -0.0058
  970MOL0     H30926   6.359   7.081   6.683 -1.7257 -0.6024  2.4862
  970MOL0     H30927   6.418   6.915   6.668 -0.6187  1.0395 -2.2418
  970MOL0     H30928   6.318   7.059   6.924 -3.5500  1.8714 -1.4269
  970MOL0     H30929   6.361   6.896   6.930 -0.2199  2.4807  3.2703
  970MOL0     H30930   6.117   6.941   6.929 -2.2368 -0.9856 -0.0691
  970MOL0     H30931   6.167   6.836   6.792 -0.1347 -0.2551  1.3363
  970MOL0     H30932   7.211   6.830   6.760  0.4837  0.4750  0.0676
  970MOL0     H30933   7.452   6.815   6.825 -0.1569  0.1744  1.9331
  970MOL0     H30934   7.907   7.039   6.591  2.2078  0.1110 -1.1373
  970MOL0     H30935   8.148   6.975   6.626 -1.8230 -1.9781 -1.8660
  970MOL0     H30936   9.916   7.269   6.835  2.1394  0.0169 -0.7697
  970MOL0     H30937  10.069   7.249   6.669 -1.3716 -0.2117 -0.6251
  970MOL0     H30938  10.308   7.158   6.396  0.1796 -0.3527  1.2329
  970MOL0     H30939  10.454   7.205   6.209 -4.3695  0.3751  1.8352
  970MOL0     H30940  10.910   7.112   6.241  2.0481 -3.2508 -0.0562
  970MOL0     H30941  10.821   6.958   6.221  1.6357 -0.8357 -0.1345
  970MOL0     H30942  10.858   7.160   5.991  0.1902  0.4061  2.0331
  970MOL0     H30943  10.789   7.003   5.974  0.0834  0.5159 -0.4819
  970MOL0     H30944  11.007   6.894   6.004 -1.8851 -1.2361 -3.2168
  970MOL0     H30945  11.088   7.036   6.068  2.2315 -1.5015 -0.0345
  970MOL0     H30946  10.998   7.134   5.820 -0.2547  0.0548 -2.8255
  970MOL0     H30947  10.983   6.962   5.788  1.2985  1.6401 -1.4975
  970MOL0     H30948  11.404   6.976   5.779 -1.2481 -1.7481 -3.0202
  970MOL0     H30949  10.780   7.028   6.438  0.5293  0.5410 -3.3215
  970MOL0     H30950  10.636   7.003   6.622 -2.2146  1.9555  1.7649
  971MOL0     O30951   4.713   1.818  11.037 -0.2356  0.4372 -0.7649
  971MOL0     C30952   4.747   1.893  10.944 -0.2960  0.7706  0.4778
  971MOL0     O30953   4.665   1.943  10.844 -0.4665 -0.3401 -0.0147
  971MOL0     C30954   4.536   1.903  10.831  0.0623  0.0236 -0.5139
  971MOL0     C30955   4.449   1.915  10.938 -0.0814 -0.1557  0.5862
  971MOL0     C30956   4.314   1.895  10.917  0.6409 -0.7431  0.3855
  971MOL0     C30957   4.265   1.856  10.803 -0.1118  0.0590  0.8030
  971MOL0     O30958   4.132   1.829  10.782 -0.3257 -0.4432  0.3742
  971MOL0     C30959   4.047   1.778  10.883 -0.1419  0.5672  0.5017
  971MOL0     C30960   3.940   1.699  10.822  0.6445 -0.6298 -0.0404
  971MOL0     C30961   3.888   1.758  10.699  0.0489  0.4289 -0.0061
  971MOL0     C30962   3.767   1.685  10.652 -0.0412 -0.2930 -0.2275
  971MOL0     C30963   3.696   1.777  10.549 -0.0976  0.4192 -0.2606
  971MOL0     C30964   3.597   1.878  10.611  0.4257  0.7691 -0.5194
  971MOL0     C30965   3.492   1.915  10.508 -0.1927 -0.0165  0.4702
  971MOL0     C30966   3.400   2.013  10.567  0.3135 -0.2803 -0.8188
  971MOL0     N30967   3.327   2.094  10.475  0.3953 -0.0398 -0.1327
  971MOL0     C30968   3.252   2.057  10.367 -0.0850  0.1817 -0.0434
  971MOL0     C30969   3.184   2.163  10.330 -0.5541 -0.0444  0.8768
  971MOL0     C30970   3.110   2.161  10.198  0.6974 -0.6160  0.3404
  971MOL0     C30971   2.965   2.229  10.210  0.3975 -0.2573 -0.0531
  971MOL0     C30972   2.879   2.143  10.305  0.2147 -0.8910 -0.5835
  971MOL0     C30973   2.848   2.001  10.252  0.4565  0.0228 -0.4632
  971MOL0     O30974   2.733   1.949  10.322 -0.8889 -0.8858 -0.1018
  971MOL0     C30975   2.611   1.972  10.281 -0.3918  0.3541  0.7759
  971MOL0     C30976   2.570   2.058  10.169 -0.4774  0.7083  0.4910
  971MOL0     C30977   2.438   2.065  10.123  0.3592  0.4316 -0.5974
  971MOL0     C30978   2.403   2.159  10.010 -1.1848  0.0422  0.3229
  971MOL0     C30979   2.337   1.990  10.180  0.7249  0.1488  0.5695
  971MOL0     C30980   2.189   1.997  10.157 -0.2437 -0.4456 -0.8178
  971MOL0     O30981   2.109   1.922  10.242 -0.5154 -0.0238 -0.1517
  971MOL0     C30982   1.978   1.907  10.214  0.2467  0.7831 -0.2566
  971MOL0     C30983   1.894   2.016  10.223  0.7322 -0.6196  0.0978
  971MOL0     C30984   1.762   2.004  10.193 -0.2373 -0.3552  0.5474
  971MOL0     C30985   1.710   1.874  10.155  0.9161 -1.1089 -0.1472
  971MOL0     O30986   1.573   1.848  10.128 -0.0709  0.5845  0.2676
  971MOL0     C30987   1.484   1.956  10.171 -0.4751  0.5161  0.2862
  971MOL0     C30988   1.343   1.918  10.149 -0.5630  0.3409  0.1556
  971MOL0     C30989   1.257   2.009  10.236 -0.0895  0.6164  0.0457
  971MOL0     C30990   1.113   1.980  10.207  0.1489  0.2439  0.3916
  971MOL0     C30991   1.040   2.060  10.316  1.2703  0.7674 -0.1568
  971MOL0     C30992   0.885   2.038  10.291 -0.9738 -0.9324  0.3434
  971MOL0     C30993   0.801   2.084  10.406 -0.4802 -0.7285  0.1491
  971MOL0     C30994   0.671   2.173  10.366 -0.0185  0.4332 -1.1796
  971MOL0    Cl30995   0.712   2.319  10.278  0.2557 -0.3907  0.1225
  971MOL0     C30996   1.793   1.769  10.148 -0.6286 -0.0238 -0.0701
  971MOL0     C30997   1.933   1.783  10.176  0.9437  0.0069  0.0322
  971MOL0     O30998   2.146   2.048  10.057  0.8838 -0.0194  0.5309
  971MOL0     C30999   2.376   1.895  10.278 -0.4928  0.7229  0.2347
  971MOL0     C31000   2.507   1.889  10.326 -0.7996 -0.3284  0.2666
  971MOL0     N31001   3.213   2.272  10.404  0.6948 -0.4956 -0.1696
  971MOL0     N31002   3.301   2.229  10.489  0.0858 -0.4301  0.2100
  971MOL0     C31003   4.350   1.834  10.690  0.7658  0.9243 -1.1273
  971MOL0     C31004   4.488   1.852  10.711  0.0547 -0.3325  0.7587
  971MOL0     C31005   4.881   1.949  10.945  0.4441  0.5197  0.9498
  971MOL0     C31006   4.980   1.903  11.035 -0.5269  0.3502  0.2940
  971MOL0     C31007   5.108   1.963  11.042 -0.8554  0.2152 -0.2260
  971MOL0     C31008   5.137   2.078  10.967  0.1011  0.0517  0.4213
  971MOL0     O31009   5.267   2.131  10.969  0.3831  0.3604  0.0798
  971MOL0     C31010   5.376   2.081  11.053 -0.5158  0.1777 -0.0878
  971MOL0     C31011   5.513   2.155  11.022 -0.3768 -0.0348  0.5606
  971MOL0     C31012   5.649   2.093  11.056 -0.2747 -0.3445  0.0085
  971MOL0     C31013   5.753   2.159  10.975  0.1617 -0.3464  0.3082
  971MOL0     C31014   5.883   2.121  11.024 -0.3325  0.9789  0.2943
  971MOL0     C31015   5.997   2.101  11.058 -0.6967 -0.4572 -0.5306
  971MOL0     C31016   5.039   2.122  10.879  0.0087  0.1979 -0.0059
  971MOL0     C31017   4.915   2.056  10.856  0.2071  0.5203 -0.6075
  971MOL0     H31018   4.494   1.949  11.030 -1.7221 -0.6779  1.6286
  971MOL0     H31019   4.251   1.914  11.004  1.0811  0.4007  0.4714
  971MOL0     H31020   4.104   1.709  10.946  1.6711  1.9247  0.4270
  971MOL0     H31021   4.018   1.861  10.948 -1.9070  0.4945 -0.1348
  971MOL0     H31022   3.981   1.600  10.799 -0.7205 -1.3338  0.4772
  971MOL0     H31023   3.861   1.694  10.897  2.8199  2.4478  2.7446
  971MOL0     H31024   3.859   1.858  10.731  1.0655  0.7224  0.0276
  971MOL0     H31025   3.967   1.766  10.624  0.1127  2.2380  0.2192
  971MOL0     H31026   3.792   1.586  10.614 -2.5079 -0.8245 -0.6294
  971MOL0     H31027   3.699   1.668  10.736  1.7505  1.2304  1.6415
  971MOL0     H31028   3.775   1.838  10.503  0.3671 -0.3903 -0.5530
  971MOL0     H31029   3.645   1.708  10.481  2.9556 -1.7849 -0.5452
  971MOL0     H31030   3.542   1.834  10.695  1.7697 -1.3352 -0.6764
  971MOL0     H31031   3.652   1.959  10.661  1.5023  0.5266 -1.2918
  971MOL0     H31032   3.546   1.964  10.426 -0.0171  2.6010  2.0277
  971MOL0     H31033   3.440   1.828  10.468  0.3074  0.6520 -1.8433
  971MOL0     H31034   3.460   2.079  10.630 -1.3834 -0.7037  1.3722
  971MOL0     H31035   3.338   1.962  10.641 -0.9402  1.4029 -0.6495
  971MOL0     H31036   3.246   1.960  10.319 -0.8686  0.2810 -0.1627
  971MOL0     H31037   3.156   2.229  10.126  2.2476 -1.5683  0.3786
  971MOL0     H31038   3.099   2.060  10.157  0.6012  0.0629 -1.4141
  971MOL0     H31039   2.916   2.231  10.112  0.1514 -1.3275  0.0352
  971MOL0     H31040   2.963   2.333  10.242  0.0108 -0.2332 -0.1544
  971MOL0     H31041   2.786   2.198  10.322 -0.2178  0.0187 -4.9432
  971MOL0     H31042   2.918   2.140  10.408 -2.3069 -1.5004  0.4312
  971MOL0     H31043   2.939   1.945  10.276  1.1005  1.3577  0.3549
  971MOL0     H31044   2.852   2.000  10.143  1.4547  3.6224 -0.5920
  971MOL0     H31045   2.645   2.120  10.120  2.4189 -1.7006  1.5826
  971MOL0     H31046   2.374   2.099   9.923  0.7499  0.7778 -0.9074
  971MOL0     H31047   2.327   2.235  10.028  0.4922  1.6360  0.9909
  971MOL0     H31048   2.492   2.212   9.973 -1.4222 -0.0414 -0.3763
  971MOL0     H31049   1.937   2.114  10.239  1.5543 -1.0445  0.5478
  971MOL0     H31050   1.707   2.098  10.197  0.2115  0.0143 -1.0097
  971MOL0     H31051   1.497   1.966  10.279 -1.1556  1.2936  0.3036
  971MOL0     H31052   1.508   2.049  10.118  1.3725 -1.0214 -1.7832
  971MOL0     H31053   1.309   1.928  10.045  0.1870  2.7013  0.0575
  971MOL0     H31054   1.325   1.816  10.182  3.0605 -0.1931  0.9458
  971MOL0     H31055   1.279   2.115  10.217  0.8145  0.8577  2.1246
  971MOL0     H31056   1.274   1.984  10.341  0.0197 -2.7811 -0.6750
  971MOL0     H31057   1.086   2.020  10.109 -1.5993  1.1713  1.2140
  971MOL0     H31058   1.085   1.874  10.207 -0.6639  0.4482 -0.2275
  971MOL0     H31059   1.079   2.162  10.327  0.8159  1.3894 -3.2780
  971MOL0     H31060   1.051   2.014  10.414 -3.3392  0.9273  0.6846
  971MOL0     H31061   0.866   2.097  10.201  4.3145 -0.0112 -0.4837
  971MOL0     H31062   0.869   1.932  10.266 -1.5813 -0.6657 -0.4718
  971MOL0     H31063   0.871   2.139  10.469 -1.6827  0.4054  0.5276
  971MOL0     H31064   0.766   2.000  10.467  3.4246 -1.8715  1.1523
  971MOL0     H31065   0.625   2.202  10.461  1.2873  1.3989 -0.8226
  971MOL0     H31066   0.609   2.103  10.309 -1.2472  0.7712 -0.3171
  971MOL0     H31067   1.764   1.667  10.128  0.5405 -0.3213 -0.3594
  971MOL0     H31068   1.990   1.691  10.181 -0.5590 -0.8882  3.9055
  971MOL0     H31069   2.310   1.825  10.329 -1.0536 -0.5304 -2.0804
  971MOL0     H31070   2.519   1.838  10.421  0.0995  2.3048  1.6719
  971MOL0     H31071   4.305   1.811  10.595 -2.2821  0.9575  0.2086
  971MOL0     H31072   4.552   1.839  10.624  2.2606 -0.3962  2.3184
  971MOL0     H31073   4.958   1.827  11.109  2.5297  1.0807  2.1392
  971MOL0     H31074   5.177   1.935  11.120 -1.5307  4.1340  2.0181
  971MOL0     H31075   5.363   2.084  11.162  0.3899 -0.2560  0.0385
  971MOL0     H31076   5.396   1.976  11.027  0.8110  0.5676 -0.6765
  971MOL0     H31077   5.498   2.257  11.059  2.8195  1.5655 -1.9586
  971MOL0     H31078   5.513   2.157  10.912 -1.1833 -2.2641  0.4739
  971MOL0     H31079   5.645   1.985  11.037  0.4769 -0.3637 -0.0800
  971MOL0     H31080   5.675   2.105  11.161  0.7064  0.1895 -0.2753
  971MOL0     H31081   5.738   2.267  10.975 -1.1089 -0.5151  0.6306
  971MOL0     H31082   5.742   2.121  10.873  1.8695 -1.6948  0.5748
  971MOL0     H31083   6.098   2.084  11.090 -0.8668  1.3952  1.1696
  971MOL0     H31084   5.060   2.210  10.818 -0.2052 -0.3003 -0.8205
  971MOL0     H31085   4.842   2.093  10.785 -1.2132 -2.9161 -1.1248
  972MOL0     O31086   9.768   6.873   0.067  0.2459  0.3282 -0.8167
  972MOL0     C31087   9.854   6.844   0.146  0.1050 -0.0540 -0.4758
  972MOL0     O31088   9.832   6.828   0.278 -0.4037  0.0146 -0.5551
  972MOL0     C31089   9.704   6.833   0.332  0.1253 -0.8409  0.3042
  972MOL0     C31090   9.601   6.927   0.304 -0.3443 -0.4451  0.6620
  972MOL0     C31091   9.475   6.922   0.374  0.0582  0.2980  0.2336
  972MOL0     C31092   9.454   6.825   0.478  0.6561 -1.3611  0.6442
  972MOL0     O31093   9.338   6.820   0.544  0.3645  0.1210 -0.1801
  972MOL0     C31094   9.214   6.872   0.492 -0.0736 -0.5266 -0.1959
  972MOL0     C31095   9.112   6.861   0.605 -0.0969  0.2868  0.0816
  972MOL0     C31096   8.966   6.885   0.556  0.9162 -0.0321 -0.4055
  972MOL0     C31097   8.866   6.844   0.667 -0.0772 -0.0222 -0.3270
  972MOL0     C31098   8.725   6.882   0.623 -0.4048  0.1922 -0.6501
  972MOL0     C31099   8.625   6.831   0.731  0.0389  0.9098  0.7163
  972MOL0     C31100   8.483   6.848   0.685 -0.4337 -0.0834  1.5283
  972MOL0     C31101   8.448   6.777   0.557 -0.1451 -0.4334  0.5727
  972MOL0     N31102   8.307   6.743   0.553 -0.2519 -0.4391  0.6092
  972MOL0     C31103   8.205   6.831   0.522 -0.6516  0.2323  0.9704
  972MOL0     C31104   8.095   6.757   0.520  0.1334  0.1466 -0.2608
  972MOL0     C31105   7.959   6.801   0.477  0.6716 -0.1526 -0.2593
  972MOL0     C31106   7.881   6.853   0.596 -0.4909  0.0501  0.1858
  972MOL0     C31107   7.738   6.884   0.560 -0.9487 -0.0017 -0.7876
  972MOL0     C31108   7.711   7.003   0.456  0.4036 -1.1986 -0.0543
  972MOL0     O31109   7.571   7.026   0.460  0.0932 -0.3599  0.2123
  972MOL0     C31110   7.525   7.143   0.403 -1.1734  0.1952 -0.7439
  972MOL0     C31111   7.605   7.250   0.367 -0.2543 -0.0793  0.8233
  972MOL0     C31112   7.550   7.380   0.334 -1.1115  0.5593  1.0756
  972MOL0     C31113   7.647   7.498   0.324  0.1247 -0.5311 -0.9271
  972MOL0     C31114   7.405   7.393   0.319  0.1485  0.0562 -0.9674
  972MOL0     C31115   7.342   7.523   0.289 -0.5197 -0.4127  0.1256
  972MOL0     O31116   7.247   7.515   0.191  0.8620 -0.3456 -0.3453
  972MOL0     C31117   7.160   7.621   0.188  0.3356 -0.7865  0.0911
  972MOL0     C31118   7.147   7.699   0.079  0.3605 -0.3966  0.3090
  972MOL0     C31119   7.050   7.797   0.076  0.2244  0.0396 -0.1383
  972MOL0     C31120   6.958   7.816   0.180  0.0009  0.1637  0.6457
  972MOL0     O31121   6.849   7.910   0.169  0.5662  0.0694  0.7393
  972MOL0     C31122   6.828   7.970   0.044 -0.3944  0.2286  0.5467
  972MOL0     C31123   6.688   8.023   0.038 -0.2431 -0.3818  0.0486
  972MOL0     C31124   6.664   8.154   0.124  0.1895  1.2695 -0.5423
  972MOL0     C31125   6.514   8.184   0.126  0.6486 -0.0860  0.3267
  972MOL0     C31126   6.487   8.318   0.195  0.8272 -0.0517 -0.1632
  972MOL0     C31127   6.333   8.355   0.215  0.6358  0.1827  0.2583
  972MOL0     C31128   6.272   8.275   0.328  0.1204  0.3810  0.1088
  972MOL0     C31129   6.127   8.316   0.381 -0.7403 -0.4666  0.1723
  972MOL0    Cl31130   6.011   8.310   0.252 -0.1058  0.0177 -0.6192
  972MOL0     C31131   6.962   7.727   0.286 -0.6798 -0.7556 -0.5306
  972MOL0     C31132   7.069   7.635   0.289  0.1577  0.3129  0.1294
  972MOL0     O31133   7.375   7.619   0.363 -0.6118  0.0480 -0.1632
  972MOL0     C31134   7.328   7.270   0.328  0.4433  0.3983  0.3007
  972MOL0     C31135   7.386   7.151   0.377  0.1536 -0.7321 -0.0466
  972MOL0     N31136   8.127   6.624   0.545 -0.3168  0.0536  0.3987
  972MOL0     N31137   8.259   6.617   0.568 -0.7750  0.0338 -0.3663
  972MOL0     C31138   9.557   6.737   0.499 -0.1405  0.4482 -0.0275
  972MOL0     C31139   9.678   6.744   0.436 -0.5043  0.1905  1.0596
  972MOL0     C31140   9.986   6.819   0.096  0.1464  0.3565 -0.1992
  972MOL0     C31141  10.071   6.744   0.177 -0.0138  0.2083  0.5594
  972MOL0     C31142  10.200   6.715   0.128 -0.3751  1.2881  0.7266
  972MOL0     C31143  10.229   6.737  -0.008  1.2493  0.3400  0.0902
  972MOL0     O31144  10.347   6.691  -0.058 -0.5084  0.1675  0.2309
  972MOL0     C31145  10.432   6.786  -0.123  0.6623 -0.3036  0.1259
  972MOL0     C31146  10.584   6.776  -0.072 -0.7064 -0.1791 -0.4766
  972MOL0     C31147  10.670   6.845  -0.177  0.1133 -0.2685 -0.0508
  972MOL0     C31148  10.818   6.822  -0.163  0.2184 -0.0007 -0.9915
  972MOL0     C31149  10.845   6.679  -0.161 -0.5351 -0.8794 -1.0740
  972MOL0     C31150  10.870   6.560  -0.174  0.0732 -0.4373 -0.0200
  972MOL0     C31151  10.143   6.804  -0.088 -0.3619 -0.2047  0.0190
  972MOL0     C31152  10.023   6.849  -0.037  0.4125 -0.2495  0.0619
  972MOL0     H31153   9.616   7.014   0.241 -0.4647 -0.4609  0.6112
  972MOL0     H31154   9.402   7.000   0.354  0.4821  1.5738  3.1574
  972MOL0     H31155   9.227   6.975   0.458 -0.6106 -0.1330  0.7629
  972MOL0     H31156   9.177   6.814   0.406  0.2718 -0.0643 -0.6639
  972MOL0     H31157   9.109   6.769   0.664 -0.8690  1.5277  2.0864
  972MOL0     H31158   9.144   6.942   0.671 -0.7909  1.9565 -1.5562
  972MOL0     H31159   8.944   6.990   0.535 -2.4376 -0.6320 -0.4556
  972MOL0     H31160   8.951   6.837   0.459  0.2467  2.6878 -1.7443
  972MOL0     H31161   8.868   6.734   0.672  0.3160 -0.0790 -1.4305
  972MOL0     H31162   8.891   6.894   0.762 -0.8599  0.0493 -0.1572
  972MOL0     H31163   8.716   6.991   0.624  1.5905  0.3765  0.3432
  972MOL0     H31164   8.694   6.843   0.525 -3.9042  1.3399 -0.1704
  972MOL0     H31165   8.635   6.723   0.745  0.9706  1.0749  1.3930
  972MOL0     H31166   8.646   6.873   0.830  1.8749 -1.1486  1.2642
  972MOL0     H31167   8.422   6.799   0.761  0.5347 -3.0747  0.5383
  972MOL0     H31168   8.450   6.952   0.672 -0.8487 -0.5254 -1.6407
  972MOL0     H31169   8.503   6.683   0.548  0.2333 -0.1090 -0.5808
  972MOL0     H31170   8.467   6.839   0.469  0.3517 -1.2429  0.0941
  972MOL0     H31171   8.209   6.938   0.504 -0.5827  0.3835  1.8443
  972MOL0     H31172   7.969   6.883   0.405 -0.3349  1.0657  0.9198
  972MOL0     H31173   7.908   6.716   0.430 -0.6602  0.4012  0.1319
  972MOL0     H31174   7.923   6.941   0.644 -1.0391  1.4947 -1.8567
  972MOL0     H31175   7.874   6.763   0.658  0.6299 -0.2742 -0.1347
  972MOL0     H31176   7.698   6.923   0.655 -0.0698 -0.9385 -0.0083
  972MOL0     H31177   7.689   6.787   0.546  2.0019 -2.3270  2.8640
  972MOL0     H31178   7.743   6.958   0.361 -2.7806 -2.0951 -0.8237
  972MOL0     H31179   7.779   7.083   0.486  1.6069 -1.0532 -2.8302
  972MOL0     H31180   7.713   7.245   0.377 -0.0104  1.8677 -0.3690
  972MOL0     H31181   7.625   7.568   0.405 -0.5133 -1.7202 -0.0417
  972MOL0     H31182   7.751   7.467   0.337 -0.1568 -1.0666  0.0806
  972MOL0     H31183   7.633   7.550   0.229 -2.1848 -1.1804 -1.0134
  972MOL0     H31184   7.221   7.687   0.000  0.9046 -2.0962  1.0389
  972MOL0     H31185   7.045   7.856  -0.015  0.1939 -0.1138 -0.2357
  972MOL0     H31186   6.898   8.053   0.030  0.4151 -0.5773 -0.2963
  972MOL0     H31187   6.857   7.904  -0.039  4.3126  0.2082  1.9330
  972MOL0     H31188   6.667   8.056  -0.064 -1.6761 -2.4036 -0.3822
  972MOL0     H31189   6.626   7.938   0.067  1.4422 -1.7540 -0.2642
  972MOL0     H31190   6.714   8.234   0.069  0.3077  2.8136  1.6880
  972MOL0     H31191   6.703   8.149   0.226 -0.2031  1.3590 -0.3861
  972MOL0     H31192   6.482   8.195   0.021 -2.4816  1.5905  1.3104
  972MOL0     H31193   6.453   8.101   0.161  0.0344  0.3061  0.2069
  972MOL0     H31194   6.528   8.404   0.142 -0.3708  0.1066 -0.8755
  972MOL0     H31195   6.532   8.317   0.295 -0.0010  1.4077  0.2576
  972MOL0     H31196   6.329   8.461   0.241  0.0584 -0.1290  1.5055
  972MOL0     H31197   6.277   8.338   0.123  1.5305  0.3839 -0.3410
  972MOL0     H31198   6.341   8.288   0.412  0.1624 -1.9079  0.4840
  972MOL0     H31199   6.266   8.169   0.300 -1.7328 -0.2193  2.5214
  972MOL0     H31200   6.134   8.418   0.420  0.3385 -0.4253 -0.1019
  972MOL0     H31201   6.095   8.250   0.462 -4.0283  0.4060 -0.2830
  972MOL0     H31202   6.899   7.716   0.373  1.2073 -3.4581  0.6552
  972MOL0     H31203   7.085   7.567   0.372 -0.0138  0.0706 -0.0375
  972MOL0     H31204   7.220   7.268   0.318  0.4448  1.1787  0.0506
  972MOL0     H31205   7.328   7.064   0.406 -1.2171 -0.4635 -1.8363
  972MOL0     H31206   9.552   6.670   0.584  2.1175 -0.9310 -0.8786
  972MOL0     H31207   9.759   6.677   0.463  0.6910  1.0270 -0.2984
  972MOL0     H31208  10.051   6.727   0.282 -0.9654 -1.4356  0.1501
  972MOL0     H31209  10.269   6.667   0.197 -0.7633  0.6123  0.6535
  972MOL0     H31210  10.408   6.781  -0.229  1.3943 -1.6493 -0.0069
  972MOL0     H31211  10.408   6.888  -0.093  2.2846  1.5834 -4.2605
  972MOL0     H31212  10.612   6.670  -0.072 -1.2016 -0.3433 -2.3248
  972MOL0     H31213  10.601   6.812   0.030  0.0040  0.1394 -0.6986
  972MOL0     H31214  10.651   6.952  -0.175 -1.2497 -0.4958  0.2950
  972MOL0     H31215  10.634   6.826  -0.279  0.5695  1.5490 -0.5770
  972MOL0     H31216  10.859   6.863  -0.070 -0.4300 -1.5794  0.0250
  972MOL0     H31217  10.868   6.879  -0.242  1.4554  0.4069  0.0473
  972MOL0     H31218  10.893   6.459  -0.198  3.5608 -0.0333  0.9637
  972MOL0     H31219  10.177   6.814  -0.191  2.4369 -3.5882  0.4525
  972MOL0     H31220   9.954   6.903  -0.101  0.0727  1.6690  1.9144
  973MOL0     O31221   3.455   2.789   3.201 -0.2970  0.4060 -0.7012
  973MOL0     C31222   3.457   2.882   3.118 -0.2333  0.4340 -0.8780
  973MOL0     O31223   3.348   2.946   3.075 -0.4965  0.0093 -0.3535
  973MOL0     C31224   3.224   2.914   3.127 -0.5956  0.2697 -0.4108
  973MOL0     C31225   3.162   2.999   3.213  0.7246  0.7400  0.6559
  973MOL0     C31226   3.033   2.970   3.258  0.0686  0.1692 -0.1918
  973MOL0     C31227   2.958   2.863   3.215 -0.1645  0.5562 -0.2973
  973MOL0     O31228   2.839   2.826   3.277  0.3700  0.1128  0.4895
  973MOL0     C31229   2.743   2.921   3.324 -1.3705 -0.8861 -0.6627
  973MOL0     C31230   2.633   2.860   3.409 -0.2171 -0.1845 -0.1680
  973MOL0     C31231   2.531   2.966   3.442 -0.1187 -0.5175 -0.4313
  973MOL0     C31232   2.417   2.889   3.518  0.5666 -0.1428  0.5992
  973MOL0     C31233   2.292   2.978   3.545  0.6511 -0.5887  0.5836
  973MOL0     C31234   2.304   3.070   3.673 -0.1130  0.0170 -0.0065
  973MOL0     C31235   2.188   3.160   3.700  0.0305  0.0768 -0.2412
  973MOL0     C31236   2.223   3.275   3.788 -0.1639 -0.2718 -0.8851
  973MOL0     N31237   2.093   3.339   3.823  0.3393 -0.5468 -1.2546
  973MOL0     C31238   1.992   3.302   3.912  0.2167  0.2557  0.1629
  973MOL0     C31239   1.898   3.396   3.907 -0.6311 -0.5680 -0.7190
  973MOL0     C31240   1.774   3.403   3.997  1.1322 -0.0389  0.0363
  973MOL0     C31241   1.702   3.268   4.005 -0.2843  0.4491  0.8547
  973MOL0     C31242   1.564   3.286   4.061 -0.0592 -0.6661 -0.6860
  973MOL0     C31243   1.480   3.162   4.068  0.3437 -0.4487 -0.4171
  973MOL0     O31244   1.422   3.131   3.939  0.5370  0.4413 -0.2999
  973MOL0     C31245   1.352   3.015   3.916 -0.0458  0.9867 -0.3426
  973MOL0     C31246   1.362   2.966   3.788  0.1327  0.2568 -0.0299
  973MOL0     C31247   1.294   2.847   3.752 -0.4974 -0.1871 -0.1336
  973MOL0     C31248   1.319   2.794   3.614  0.1683 -0.6026  0.4860
  973MOL0     C31249   1.215   2.786   3.849  0.7603 -1.1191 -0.3133
  973MOL0     C31250   1.129   2.666   3.819  0.3171 -0.3963 -0.9460
  973MOL0     O31251   1.034   2.638   3.911  0.0073 -0.6085  0.2592
  973MOL0     C31252   0.928   2.559   3.888 -0.3759 -0.3987  0.1876
  973MOL0     C31253   0.809   2.598   3.948 -0.3134  0.1130 -0.4316
  973MOL0     C31254   0.689   2.534   3.911  0.1690  0.4796  0.1684
  973MOL0     C31255   0.688   2.429   3.811 -0.2035  0.2531 -0.4220
  973MOL0     O31256   0.580   2.362   3.758  0.4484 -0.2039  0.4963
  973MOL0     C31257   0.449   2.409   3.796  0.3192 -0.4188 -0.5477
  973MOL0     C31258   0.342   2.326   3.730  0.4326 -0.3153  0.3624
  973MOL0     C31259   0.368   2.322   3.582  0.2042  0.4343 -0.0277
  973MOL0     C31260   0.260   2.261   3.497 -0.0582 -0.6819 -0.2328
  973MOL0     C31261   0.217   2.127   3.548  0.3729 -0.7867 -0.1967
  973MOL0     C31262   0.112   2.060   3.453  1.0515  0.5274  0.1803
  973MOL0     C31263  -0.032   2.110   3.473 -0.0318  0.1770 -0.4179
  973MOL0     C31264  -0.119   2.035   3.375  0.7821  0.3142 -0.2877
  973MOL0    Cl31265  -0.288   2.090   3.382  0.2180  0.2969 -0.3636
  973MOL0     C31266   0.811   2.387   3.763 -0.4945 -1.1635  0.2943
  973MOL0     C31267   0.931   2.451   3.801  0.3634 -0.2295  0.6372
  973MOL0     O31268   1.144   2.606   3.718  0.2134  0.1067  0.3302
  973MOL0     C31269   1.207   2.841   3.980  0.7898 -0.6151 -0.0345
  973MOL0     C31270   1.271   2.957   4.013 -0.3036  0.2978  0.3928
  973MOL0     N31271   1.948   3.492   3.823 -0.3638  0.4329  0.6378
  973MOL0     N31272   2.066   3.467   3.784  0.2202  0.3236  0.2766
  973MOL0     C31273   3.017   2.769   3.131 -0.8996  0.6355  0.1083
  973MOL0     C31274   3.149   2.809   3.081  0.5033  0.4057 -0.1736
  973MOL0     C31275   3.593   2.903   3.056  0.5404 -0.7179 -0.3821
  973MOL0     C31276   3.695   2.811   3.071 -0.3505 -0.4902  1.2365
  973MOL0     C31277   3.820   2.817   3.010  0.0598 -0.6762  0.1901
  973MOL0     C31278   3.850   2.937   2.932  0.5316  0.0258  0.5220
  973MOL0     O31279   3.969   2.966   2.867 -0.7489  0.0319  0.3154
  973MOL0     C31280   4.072   2.865   2.856  0.5982  0.2693  0.4047
  973MOL0     C31281   4.034   2.771   2.736  0.7117  0.1984 -0.2514
  973MOL0     C31282   4.161   2.698   2.693 -0.0428 -0.1014  0.5728
  973MOL0     C31283   4.215   2.582   2.781 -0.2575 -1.1398  0.0279
  973MOL0     C31284   4.352   2.558   2.747  0.5446  0.7565 -0.1483
  973MOL0     C31285   4.473   2.540   2.728  0.7348 -0.6008 -0.1935
  973MOL0     C31286   3.755   3.032   2.926 -0.2632 -0.7855 -0.0863
  973MOL0     C31287   3.632   3.020   2.986  0.4249  0.9071  0.5966
  973MOL0     H31288   3.216   3.080   3.262  0.9948 -0.4162  2.3678
  973MOL0     H31289   2.992   3.036   3.334 -0.1532 -1.5911  1.2668
  973MOL0     H31290   2.785   2.997   3.392 -2.5817 -0.2022 -0.6412
  973MOL0     H31291   2.703   2.986   3.246  1.1992  1.0372 -0.5161
  973MOL0     H31292   2.580   2.791   3.343 -2.3571  0.9856  0.2355
  973MOL0     H31293   2.681   2.819   3.498 -0.9989  2.6678  1.6871
  973MOL0     H31294   2.569   3.053   3.498 -2.1435  1.9834 -2.6771
  973MOL0     H31295   2.486   3.021   3.359 -0.5966  1.1422  0.8625
  973MOL0     H31296   2.388   2.808   3.452  1.2363  0.5037 -0.5229
  973MOL0     H31297   2.453   2.850   3.614  2.8341 -4.4291 -1.6916
  973MOL0     H31298   2.279   3.049   3.463  0.0226  0.4950  1.5875
  973MOL0     H31299   2.204   2.913   3.549 -2.0536  2.7713 -0.4298
  973MOL0     H31300   2.330   3.011   3.761  0.9057  0.2708 -0.1279
  973MOL0     H31301   2.388   3.137   3.652  0.5907 -0.8382  0.0523
  973MOL0     H31302   2.137   3.200   3.612 -4.7546 -1.4205  1.5134
  973MOL0     H31303   2.109   3.092   3.733 -1.3108  1.3336 -0.7803
  973MOL0     H31304   2.293   3.331   3.725  1.8018 -1.3684  0.2463
  973MOL0     H31305   2.282   3.255   3.878 -1.9971 -1.9867  0.0007
  973MOL0     H31306   1.975   3.218   3.979  0.1212  0.8345  0.8843
  973MOL0     H31307   1.791   3.433   4.101  1.8776 -2.7606  0.7924
  973MOL0     H31308   1.703   3.470   3.947  1.1961  0.1716  0.2273
  973MOL0     H31309   1.764   3.205   4.069 -0.4493  0.9655  1.5322
  973MOL0     H31310   1.695   3.239   3.900 -1.3538  2.7302  0.2489
  973MOL0     H31311   1.513   3.357   3.995  1.1321  0.9442  0.0484
  973MOL0     H31312   1.567   3.329   4.162  3.0778 -2.8448  0.2955
  973MOL0     H31313   1.398   3.174   4.140 -0.1425 -1.1573 -0.8410
  973MOL0     H31314   1.532   3.072   4.103 -0.9846 -1.1335 -0.1161
  973MOL0     H31315   1.433   3.006   3.717  2.0545 -3.0783 -0.1881
  973MOL0     H31316   1.232   2.758   3.559  2.6964 -0.9771 -3.6997
  973MOL0     H31317   1.354   2.873   3.547  0.6938 -2.2088 -1.1942
  973MOL0     H31318   1.398   2.718   3.611  2.2131  1.4117 -0.0452
  973MOL0     H31319   0.808   2.683   4.016  2.0180 -0.7376  0.7797
  973MOL0     H31320   0.601   2.576   3.958 -0.0638 -1.4916  1.5885
  973MOL0     H31321   0.428   2.410   3.904  1.2658  1.1112 -0.3402
  973MOL0     H31322   0.431   2.510   3.758  1.4766 -0.2017 -0.5631
  973MOL0     H31323   0.355   2.232   3.784  0.7067 -0.3688  0.2052
  973MOL0     H31324   0.239   2.359   3.749 -0.1141 -0.0811 -2.6148
  973MOL0     H31325   0.456   2.259   3.572 -1.2910 -1.5983 -1.2290
  973MOL0     H31326   0.395   2.420   3.540 -1.1144  1.7355  1.9630
  973MOL0     H31327   0.174   2.328   3.499  0.1238 -0.4073  2.1657
  973MOL0     H31328   0.306   2.243   3.400  0.9772 -0.1994  0.1490
  973MOL0     H31329   0.187   2.130   3.653  0.1177 -0.4618 -0.2786
  973MOL0     H31330   0.305   2.062   3.548  0.2582 -1.0638  2.5917
  973MOL0     H31331   0.146   2.064   3.349  1.4735 -0.6471  0.2584
  973MOL0     H31332   0.116   1.955   3.483  1.2617  0.7967  1.1365
  973MOL0     H31333  -0.054   2.209   3.432 -1.9589 -0.0443 -0.0466
  973MOL0     H31334  -0.070   2.097   3.575  1.8723 -4.1950 -0.0415
  973MOL0     H31335  -0.124   1.927   3.396  0.5089  0.0668 -1.5783
  973MOL0     H31336  -0.073   2.054   3.278  1.8063  0.5027  0.2290
  973MOL0     H31337   0.819   2.310   3.687  0.4462 -0.6885 -0.0987
  973MOL0     H31338   1.021   2.415   3.751 -0.2949 -0.9030 -0.0802
  973MOL0     H31339   1.131   2.809   4.051 -1.6875  1.2520 -1.6773
  973MOL0     H31340   1.259   3.005   4.110 -1.0935  2.4317 -0.6919
  973MOL0     H31341   2.966   2.686   3.082  3.7791 -1.9155 -1.0600
  973MOL0     H31342   3.186   2.737   3.008 -1.7140 -0.5637 -0.4406
  973MOL0     H31343   3.675   2.718   3.124  1.9998 -1.0121  1.2898
  973MOL0     H31344   3.887   2.734   3.029  1.4716  0.2552 -0.5690
  973MOL0     H31345   4.163   2.917   2.826  1.5621 -0.6310  1.6507
  973MOL0     H31346   4.085   2.813   2.951  1.4017 -3.4099 -1.5307
  973MOL0     H31347   3.994   2.830   2.654  3.5447  1.4586 -0.8606
  973MOL0     H31348   3.955   2.699   2.761 -1.7808  3.5067  2.3370
  973MOL0     H31349   4.236   2.776   2.676  0.3780 -0.3961  1.0495
  973MOL0     H31350   4.142   2.661   2.592  1.1800 -1.4640  0.8250
  973MOL0     H31351   4.155   2.490   2.775 -1.7776 -0.1693 -0.3575
  973MOL0     H31352   4.207   2.605   2.888  1.7138  1.8301 -0.3522
  973MOL0     H31353   4.578   2.525   2.711  0.5653 -0.5397 -1.3856
  973MOL0     H31354   3.785   3.118   2.867  0.2167 -0.5809  0.4508
  973MOL0     H31355   3.563   3.102   2.966 -0.5081  0.1474  0.6114
  974MOL0     O31356   7.065   4.796   9.578  0.0139 -0.0237 -0.4020
  974MOL0     C31357   7.155   4.758   9.652 -0.8081  0.2788 -0.2171
  974MOL0     O31358   7.193   4.624   9.679  0.8985  0.1646  0.1306
  974MOL0     C31359   7.110   4.525   9.629  0.7213 -0.1082 -0.3744
  974MOL0     C31360   6.972   4.523   9.639  0.1287 -0.6743 -0.9506
  974MOL0     C31361   6.886   4.415   9.616 -0.7024 -0.2077 -0.7710
  974MOL0     C31362   6.943   4.295   9.570 -0.1638 -0.0786  0.3139
  974MOL0     O31363   6.864   4.188   9.547 -0.4343  0.8387  0.4754
  974MOL0     C31364   6.747   4.163   9.627 -0.5133 -0.3282  0.5299
  974MOL0     C31365   6.685   4.028   9.601 -0.3496 -0.4526 -0.1811
  974MOL0     C31366   6.554   3.999   9.682 -0.6855 -0.5518  0.7558
  974MOL0     C31367   6.520   3.847   9.676 -0.7618 -0.1052 -0.5078
  974MOL0     C31368   6.391   3.818   9.741  0.1379  0.5880 -1.0618
  974MOL0     C31369   6.272   3.847   9.647  0.3531  0.6564 -0.8463
  974MOL0     C31370   6.143   3.774   9.704 -0.9648 -0.5821  0.1482
  974MOL0     C31371   6.014   3.845   9.674 -0.4140 -0.2373 -0.0755
  974MOL0     N31372   5.998   3.882   9.531 -0.4668 -0.1102  0.0960
  974MOL0     C31373   5.944   3.810   9.426 -0.7882 -0.6274 -0.3139
  974MOL0     C31374   5.951   3.893   9.319  0.6219  0.5186  0.1606
  974MOL0     C31375   5.906   3.851   9.178  0.0047 -0.0856  0.2222
  974MOL0     C31376   5.803   3.937   9.125  0.1430 -0.7217 -0.4972
  974MOL0     C31377   5.734   3.863   9.012  0.8381 -0.2653 -0.5614
  974MOL0     C31378   5.614   3.953   8.980  0.4603  0.0351  0.4783
  974MOL0     O31379   5.509   3.928   9.073  0.4031  0.7852 -0.4759
  974MOL0     C31380   5.392   3.986   9.063  0.6010 -0.3203  0.1187
  974MOL0     C31381   5.306   3.965   9.176  0.1379 -0.1899  0.3740
  974MOL0     C31382   5.176   3.999   9.175 -0.5334 -0.4640  0.7117
  974MOL0     C31383   5.110   3.961   9.304  0.2526 -0.2138 -0.3006
  974MOL0     C31384   5.115   4.053   9.059  0.3007  1.0043  0.0085
  974MOL0     C31385   4.967   4.077   9.054 -0.2009  0.1322  0.6561
  974MOL0     O31386   4.928   4.164   8.958 -0.2076  0.9192  0.6203
  974MOL0     C31387   4.799   4.145   8.906  0.3107 -0.4683  0.5965
  974MOL0     C31388   4.773   4.030   8.835 -0.1845 -0.4167  0.0604
  974MOL0     C31389   4.646   4.008   8.792  0.3259  1.1168  0.1685
  974MOL0     C31390   4.542   4.095   8.805 -0.0764  0.8476 -0.7437
  974MOL0     O31391   4.420   4.058   8.744 -0.2952  0.0395 -1.1161
  974MOL0     C31392   4.335   4.169   8.716 -0.5196  0.0946 -0.0561
  974MOL0     C31393   4.205   4.112   8.679 -0.4610  0.8521 -0.0747
  974MOL0     C31394   4.111   4.223   8.630 -0.2637 -0.4519 -0.3057
  974MOL0     C31395   3.972   4.172   8.602  0.5741  0.0263 -0.7433
  974MOL0     C31396   3.876   4.286   8.555 -1.0442 -0.0107  0.8410
  974MOL0     C31397   3.732   4.237   8.561  0.1104  0.3827  0.6941
  974MOL0     C31398   3.647   4.351   8.512  0.4126 -0.3945  0.3440
  974MOL0     C31399   3.501   4.308   8.491  1.1612  0.3209 -0.7807
  974MOL0    Cl31400   3.430   4.431   8.398 -0.0730 -0.1996 -0.1606
  974MOL0     C31401   4.573   4.221   8.858  0.0157 -0.7026 -0.5683
  974MOL0     C31402   4.699   4.247   8.910 -0.1409  0.1526  0.4353
  974MOL0     O31403   4.889   4.000   9.112  0.6803  0.3902  0.1356
  974MOL0     C31404   5.203   4.092   8.955  0.4131 -0.5308  0.7595
  974MOL0     C31405   5.341   4.059   8.953  0.3898 -0.8503 -0.3407
  974MOL0     N31406   6.015   4.012   9.357  0.6586 -0.3402 -0.5612
  974MOL0     N31407   6.032   4.006   9.488  0.6925  0.0469  0.0194
  974MOL0     C31408   7.085   4.290   9.559 -0.6930 -0.6285  0.2283
  974MOL0     C31409   7.161   4.403   9.595  0.1042  0.1613 -0.0355
  974MOL0     C31410   7.248   4.862   9.691 -0.5067 -0.2725 -0.1839
  974MOL0     C31411   7.281   4.975   9.616  0.4555 -0.6949  1.1996
  974MOL0     C31412   7.379   5.066   9.656  0.1034 -0.0067  0.2037
  974MOL0     C31413   7.443   5.046   9.780 -0.2049 -0.5321 -0.2510
  974MOL0     O31414   7.532   5.136   9.834  0.6383 -0.5752 -0.1045
  974MOL0     C31415   7.600   5.232   9.751 -0.9135  0.2651  0.8002
  974MOL0     C31416   7.741   5.255   9.787 -0.1981  1.1131  0.6264
  974MOL0     C31417   7.831   5.129   9.748 -0.8598 -0.0942  0.8690
  974MOL0     C31418   7.949   5.116   9.844 -0.3159  0.2126  0.6050
  974MOL0     C31419   8.038   5.231   9.848  1.1869  0.0109  1.1076
  974MOL0     C31420   8.106   5.331   9.862  0.2340  0.5746  0.2495
  974MOL0     C31421   7.396   4.939   9.862  0.1296 -0.3070  0.2917
  974MOL0     C31422   7.302   4.855   9.823 -0.0800  0.5961 -0.4864
  974MOL0     H31423   6.925   4.610   9.683 -2.4913 -2.8729  0.9197
  974MOL0     H31424   6.782   4.421   9.645 -0.3716 -3.2422  1.5565
  974MOL0     H31425   6.766   4.173   9.734 -1.8405 -2.7466  1.0747
  974MOL0     H31426   6.671   4.238   9.605 -0.7009 -0.6841 -0.0795
  974MOL0     H31427   6.666   4.009   9.495  1.2109 -1.7571 -0.2638
  974MOL0     H31428   6.750   3.946   9.633  0.7659 -0.1521 -1.6219
  974MOL0     H31429   6.574   4.028   9.785 -0.9215 -2.4632  1.3854
  974MOL0     H31430   6.471   4.063   9.651  0.9298  0.7292 -1.1858
  974MOL0     H31431   6.525   3.819   9.570  1.1158  3.9182 -1.6889
  974MOL0     H31432   6.593   3.789   9.733 -1.2305  0.5563  0.7850
  974MOL0     H31433   6.390   3.710   9.757 -0.6194  0.7821  0.3548
  974MOL0     H31434   6.383   3.878   9.832  0.1432  2.0311 -1.9814
  974MOL0     H31435   6.274   3.955   9.632  3.8451  1.1302  1.7533
  974MOL0     H31436   6.292   3.807   9.547 -0.8466  0.9333 -1.2119
  974MOL0     H31437   6.141   3.674   9.662  1.1296  0.5924 -3.1575
  974MOL0     H31438   6.159   3.758   9.811 -0.9078  1.0874  0.4228
  974MOL0     H31439   6.019   3.932   9.739  0.5118 -2.0628  2.4265
  974MOL0     H31440   5.933   3.776   9.699 -1.2199 -0.0282 -1.9438
  974MOL0     H31441   5.888   3.718   9.428  0.6085 -1.5049  0.2564
  974MOL0     H31442   6.001   3.858   9.125 -0.1015  1.4976  0.1983
  974MOL0     H31443   5.869   3.748   9.179  0.0111 -0.1010  1.5345
  974MOL0     H31444   5.841   4.028   9.076  1.6915 -0.8342  0.4522
  974MOL0     H31445   5.732   3.954   9.207  0.4298 -1.1745 -0.1571
  974MOL0     H31446   5.695   3.767   9.046  0.9499 -0.0912  0.0652
  974MOL0     H31447   5.797   3.858   8.922  0.1160 -2.0882 -1.0015
  974MOL0     H31448   5.579   3.932   8.878 -0.7857 -1.1076  1.0942
  974MOL0     H31449   5.641   4.059   8.984  0.5103 -0.0128  1.6020
  974MOL0     H31450   5.350   3.918   9.263 -2.8650 -2.7260  0.6535
  974MOL0     H31451   5.036   4.038   9.327  0.4787 -0.0308 -0.1916
  974MOL0     H31452   5.052   3.870   9.286  0.4864 -0.4003 -0.0994
  974MOL0     H31453   5.185   3.960   9.382  0.0808  4.3523  0.2050
  974MOL0     H31454   4.841   3.946   8.843 -2.9550 -2.7263  1.4729
  974MOL0     H31455   4.618   3.912   8.749 -2.1077  2.7079 -2.1701
  974MOL0     H31456   4.311   4.226   8.805 -1.1820  0.3615 -0.4036
  974MOL0     H31457   4.381   4.233   8.640  1.4937 -1.5119 -0.2979
  974MOL0     H31458   4.216   4.038   8.600 -2.2007  0.9592 -0.4676
  974MOL0     H31459   4.160   4.057   8.762 -1.4303  1.1803 -0.3595
  974MOL0     H31460   4.153   4.274   8.543  2.5875  3.1675  2.8164
  974MOL0     H31461   4.108   4.295   8.712  0.6500 -3.1830  2.3347
  974MOL0     H31462   3.999   4.110   8.516  2.6279  0.6215 -0.5819
  974MOL0     H31463   3.920   4.113   8.678 -0.4542  0.6082 -0.9749
  974MOL0     H31464   3.912   4.328   8.461 -2.1993  1.4724  1.0298
  974MOL0     H31465   3.893   4.371   8.621 -1.2493 -0.1729  1.1074
  974MOL0     H31466   3.716   4.152   8.493 -0.3520  0.4062  0.7678
  974MOL0     H31467   3.711   4.206   8.664  1.1656 -0.2072  0.7410
  974MOL0     H31468   3.683   4.385   8.414  0.7953  2.1155  1.2833
  974MOL0     H31469   3.674   4.433   8.580  1.2882  0.3650 -0.8791
  974MOL0     H31470   3.462   4.305   8.593 -0.5962  1.6859 -1.3483
  974MOL0     H31471   3.480   4.218   8.432 -0.6691  0.3590 -0.2663
  974MOL0     H31472   4.502   4.302   8.848  1.6724  0.7676 -1.1299
  974MOL0     H31473   4.733   4.343   8.947  1.0696 -0.5753  1.2744
  974MOL0     H31474   5.176   4.155   8.871 -2.2168  0.7377  2.4266
  974MOL0     H31475   5.404   4.065   8.865  1.9746 -1.7662  0.6873
  974MOL0     H31476   7.140   4.198   9.544 -0.6042 -0.6694  0.7905
  974MOL0     H31477   7.269   4.396   9.603  0.0074 -0.5915  0.7791
  974MOL0     H31478   7.224   4.984   9.524 -0.7946 -3.4446  1.6145
  974MOL0     H31479   7.387   5.156   9.595 -1.5792 -0.4894 -0.7896
  974MOL0     H31480   7.592   5.199   9.647  2.0361 -0.6240  0.7722
  974MOL0     H31481   7.544   5.326   9.757  0.6534  1.3585 -0.7234
  974MOL0     H31482   7.742   5.258   9.897  3.5513 -1.9023  0.8649
  974MOL0     H31483   7.781   5.350   9.751 -0.9562  1.7982  1.5387
  974MOL0     H31484   7.871   5.141   9.647 -0.9233 -0.6499  0.7754
  974MOL0     H31485   7.765   5.041   9.754 -3.4490  1.6444 -0.0618
  974MOL0     H31486   8.023   5.043   9.809  1.1395  1.9136 -0.0121
  974MOL0     H31487   7.906   5.091   9.941 -0.8348 -1.1559  0.0467
  974MOL0     H31488   8.148   5.429   9.879 -3.0738  1.8776  1.5701
  974MOL0     H31489   7.429   4.922   9.964 -1.0242  0.9402  0.9140
  974MOL0     H31490   7.276   4.772   9.889 -0.7505 -1.1197 -2.7732
  975MOL0     O31491   4.478   3.696   9.357 -0.7909 -0.6356  0.2167
  975MOL0     C31492   4.580   3.688   9.282  0.2658 -0.2323  0.2227
  975MOL0     O31493   4.564   3.669   9.147 -0.5397 -0.2138  0.4010
  975MOL0     C31494   4.439   3.666   9.093 -0.2591 -0.2392 -0.3513
  975MOL0     C31495   4.421   3.731   8.968 -1.1297 -0.2128 -0.9113
  975MOL0     C31496   4.296   3.721   8.905  0.3554  0.6179 -0.5347
  975MOL0     C31497   4.188   3.642   8.953 -0.6418 -0.0833 -0.4732
  975MOL0     O31498   4.084   3.637   8.865  0.5498 -0.6584 -0.0489
  975MOL0     C31499   3.968   3.569   8.903  0.5499  0.5592  0.4000
  975MOL0     C31500   3.861   3.661   8.962  0.5960 -0.4655  0.4710
  975MOL0     C31501   3.789   3.747   8.857 -0.5105 -0.6707 -0.0310
  975MOL0     C31502   3.659   3.800   8.915 -0.1242 -1.3931  0.7047
  975MOL0     C31503   3.602   3.903   8.803 -0.2093 -0.0925  0.2225
  975MOL0     C31504   3.453   3.920   8.831  1.1323  0.6137 -0.3978
  975MOL0     C31505   3.402   4.037   8.744 -0.2595 -0.2402 -0.0619
  975MOL0     C31506   3.253   4.036   8.760 -0.5832 -0.7406  0.5138
  975MOL0     N31507   3.203   4.145   8.674 -0.3019 -0.0193 -0.0124
  975MOL0     C31508   3.151   4.132   8.546 -1.1854 -0.4546  0.5668
  975MOL0     C31509   3.112   4.258   8.509  0.0643  0.7944  0.3299
  975MOL0     C31510   3.059   4.285   8.360  0.1066  0.0890 -0.0939
  975MOL0     C31511   2.919   4.220   8.324  0.3627 -0.8571  0.8668
  975MOL0     C31512   2.929   4.071   8.304  0.1111  0.5398  0.3137
  975MOL0     C31513   2.827   4.011   8.216  0.2040  0.6230  0.1645
  975MOL0     O31514   2.696   4.052   8.259  0.0166 -0.3892 -0.0643
  975MOL0     C31515   2.599   4.063   8.160 -0.3733  0.0642 -0.9112
  975MOL0     C31516   2.598   4.009   8.031  0.1707  0.3273 -0.0218
  975MOL0     C31517   2.484   4.025   7.949  0.3044  0.3555  1.1393
  975MOL0     C31518   2.488   3.965   7.808  0.1341 -0.0602  0.5145
  975MOL0     C31519   2.360   4.079   8.009  0.4946  0.1849 -0.2226
  975MOL0     C31520   2.229   4.083   7.943 -0.3535 -0.8597 -0.9138
  975MOL0     O31521   2.129   4.158   8.001 -0.0945 -0.3358 -0.0426
  975MOL0     C31522   2.007   4.169   7.946  0.1754 -1.0194  0.6233
  975MOL0     C31523   1.897   4.165   8.025 -0.4107  0.5941  0.2700
  975MOL0     C31524   1.771   4.176   7.962 -0.2272 -0.2022  0.5018
  975MOL0     C31525   1.750   4.201   7.827 -0.2057 -0.4801 -0.3438
  975MOL0     O31526   1.622   4.209   7.784  0.2613  0.3361 -0.3378
  975MOL0     C31527   1.607   4.203   7.641 -0.3269 -0.3253  0.9957
  975MOL0     C31528   1.472   4.249   7.586 -1.0305  0.6652  0.2925
  975MOL0     C31529   1.355   4.165   7.633 -0.9088  0.1146 -0.4638
  975MOL0     C31530   1.225   4.215   7.577  0.0395 -0.2074  0.5685
  975MOL0     C31531   1.094   4.155   7.633 -1.0938  0.3712 -0.0632
  975MOL0     C31532   0.976   4.240   7.583  0.0913 -0.3412 -0.1795
  975MOL0     C31533   0.849   4.195   7.659  0.1279  0.1644  1.0730
  975MOL0     C31534   0.734   4.291   7.652 -0.2643 -0.3200 -0.0281
  975MOL0    Cl31535   0.703   4.338   7.479 -0.1333 -0.1707  0.2322
  975MOL0     C31536   1.870   4.221   7.755  0.1851  0.0113  0.6919
  975MOL0     C31537   1.999   4.199   7.812  0.0746  0.0477 -0.5281
  975MOL0     O31538   2.220   4.027   7.839 -0.1026 -0.1842 -0.7093
  975MOL0     C31539   2.368   4.152   8.127  0.4266  0.1905  0.3921
  975MOL0     C31540   2.492   4.147   8.198 -0.4892 -0.2012 -0.8714
  975MOL0     N31541   3.134   4.340   8.621 -0.0743  0.0516 -0.0841
  975MOL0     N31542   3.180   4.269   8.719  0.2605  0.1224 -0.0337
  975MOL0     C31543   4.208   3.582   9.081 -0.0963  0.4498  0.3593
  975MOL0     C31544   4.333   3.589   9.142  0.2763 -1.1564 -0.4784
  975MOL0     C31545   4.713   3.675   9.347  0.4182 -0.6067  0.7536
  975MOL0     C31546   4.822   3.649   9.267  0.2561 -0.0402  0.3152
  975MOL0     C31547   4.944   3.628   9.326 -0.7098 -0.4594 -0.0990
  975MOL0     C31548   4.957   3.648   9.465 -0.6838 -0.7453  0.6811
  975MOL0     O31549   5.076   3.644   9.534  0.2644 -0.0077  0.5973
  975MOL0     C31550   5.191   3.591   9.461 -0.1125  0.1725  0.2898
  975MOL0     C31551   5.312   3.598   9.544  0.1547  0.2871  0.2616
  975MOL0     C31552   5.307   3.503   9.665 -0.3800 -0.1113  0.0485
  975MOL0     C31553   5.449   3.440   9.692  0.0771  0.1435  0.0866
  975MOL0     C31554   5.558   3.538   9.696  0.0755 -0.5063 -0.1703
  975MOL0     C31555   5.645   3.631   9.704 -0.2952  0.2075 -0.6217
  975MOL0     C31556   4.845   3.679   9.541  0.1291  0.6288 -0.0393
  975MOL0     C31557   4.725   3.700   9.483  0.1936 -0.0818  0.0377
  975MOL0     H31558   4.509   3.768   8.917 -0.8626 -1.5825 -1.4801
  975MOL0     H31559   4.289   3.769   8.808  2.1375 -2.1176 -2.1328
  975MOL0     H31560   3.935   3.524   8.809  0.5599  1.4390 -0.0351
  975MOL0     H31561   3.990   3.485   8.969  1.5633  0.6851  0.2403
  975MOL0     H31562   3.784   3.605   9.016  1.1326 -3.3673 -1.4962
  975MOL0     H31563   3.908   3.731   9.031 -0.4655  2.1813 -1.3142
  975MOL0     H31564   3.848   3.835   8.827 -2.9511  1.5431  1.2351
  975MOL0     H31565   3.751   3.693   8.770 -1.7178  0.6857 -0.3773
  975MOL0     H31566   3.593   3.715   8.935 -1.0598 -0.7956  0.2385
  975MOL0     H31567   3.665   3.850   9.012 -0.4970 -1.7031  0.8904
  975MOL0     H31568   3.656   3.998   8.798  0.1455 -0.1619  1.9005
  975MOL0     H31569   3.605   3.856   8.704  0.0015 -0.7003  0.5107
  975MOL0     H31570   3.392   3.832   8.811 -2.3208  3.3088 -2.9604
  975MOL0     H31571   3.446   3.950   8.937  1.4662  2.1371 -0.7765
  975MOL0     H31572   3.450   4.134   8.757  1.8968 -0.9253 -2.1236
  975MOL0     H31573   3.427   4.016   8.640 -2.0230  1.3732 -0.8593
  975MOL0     H31574   3.221   4.054   8.863 -3.0785 -3.5974  0.3913
  975MOL0     H31575   3.212   3.938   8.731 -0.8063 -1.5379  3.2370
  975MOL0     H31576   3.157   4.041   8.487  1.9015 -1.1955  1.8264
  975MOL0     H31577   3.049   4.394   8.355  2.1564  0.6201  3.6784
  975MOL0     H31578   3.132   4.260   8.282 -2.6215 -0.3372 -2.7245
  975MOL0     H31579   2.888   4.270   8.232 -1.6530 -2.0831  0.8161
  975MOL0     H31580   2.847   4.251   8.400 -1.3436  0.9741 -1.3700
  975MOL0     H31581   2.937   4.017   8.399 -0.4048 -0.6359 -0.3009
  975MOL0     H31582   3.022   4.057   8.248  1.5386 -1.5756  2.9430
  975MOL0     H31583   2.822   3.902   8.202 -1.1945  0.5944  0.7493
  975MOL0     H31584   2.840   4.051   8.115  0.9158 -0.8861 -0.3740
  975MOL0     H31585   2.682   3.958   7.984 -0.7633 -1.9995  0.7158
  975MOL0     H31586   2.450   4.039   7.737  1.1418  0.5231  0.5729
  975MOL0     H31587   2.587   3.932   7.776  0.5551  0.0913  1.6275
  975MOL0     H31588   2.418   3.880   7.815 -1.9287  1.5775  0.7012
  975MOL0     H31589   1.915   4.146   8.130 -0.3989  0.4226  0.2380
  975MOL0     H31590   1.689   4.163   8.032 -0.7405 -0.8242 -0.1989
  975MOL0     H31591   1.671   4.276   7.590 -0.8553 -0.9470 -0.6434
  975MOL0     H31592   1.639   4.104   7.606 -1.9881  0.0490 -1.8965
  975MOL0     H31593   1.462   4.350   7.625 -0.8752  1.3184 -1.2927
  975MOL0     H31594   1.477   4.252   7.477 -1.7758  0.5804  0.2510
  975MOL0     H31595   1.346   4.170   7.742 -1.4386  1.1541 -0.5416
  975MOL0     H31596   1.360   4.064   7.592 -2.3506  0.5453 -1.7675
  975MOL0     H31597   1.228   4.324   7.591  1.7975 -0.2707  0.8876
  975MOL0     H31598   1.230   4.193   7.470  1.6927 -1.9539  0.9554
  975MOL0     H31599   1.088   4.151   7.742 -0.7043 -2.6183 -0.0796
  975MOL0     H31600   1.085   4.051   7.599 -1.7812 -0.0438  1.3149
  975MOL0     H31601   0.992   4.345   7.609 -3.1085 -0.0109  0.7919
  975MOL0     H31602   0.956   4.227   7.477 -0.0146  2.4793 -0.5746
  975MOL0     H31603   0.873   4.170   7.763 -2.6766 -1.6085  1.3959
  975MOL0     H31604   0.824   4.097   7.616  1.0032  1.2479 -2.2293
  975MOL0     H31605   0.758   4.380   7.710  0.8126 -1.2596  1.0216
  975MOL0     H31606   0.651   4.238   7.699  1.8524 -3.2989  0.6551
  975MOL0     H31607   1.862   4.249   7.650 -2.0670  1.5075  1.1863
  975MOL0     H31608   2.086   4.209   7.748 -1.1293  1.5259 -2.0102
  975MOL0     H31609   2.282   4.205   8.165 -1.0316 -2.1540  0.5485
  975MOL0     H31610   2.502   4.203   8.291 -1.1697  0.2872 -1.0875
  975MOL0     H31611   4.137   3.514   9.127  2.1864 -1.3365  1.4225
  975MOL0     H31612   4.351   3.532   9.232 -0.5334 -3.0685 -1.4679
  975MOL0     H31613   4.805   3.614   9.166 -0.8153 -2.4137  1.2290
  975MOL0     H31614   5.029   3.609   9.260 -1.0231 -1.8501 -0.1193
  975MOL0     H31615   5.163   3.493   9.423 -0.3321  0.6796 -0.9138
  975MOL0     H31616   5.206   3.652   9.371 -2.2185  0.6903  0.2266
  975MOL0     H31617   5.335   3.700   9.579  2.7522  0.2653 -1.1128
  975MOL0     H31618   5.389   3.583   9.468 -1.8283  1.4732 -2.1247
  975MOL0     H31619   5.235   3.424   9.642  1.6468 -2.2789  0.7934
  975MOL0     H31620   5.277   3.561   9.753  0.0725  0.0886  0.0756
  975MOL0     H31621   5.474   3.370   9.612 -2.0957  0.2624 -0.7831
  975MOL0     H31622   5.439   3.390   9.788  2.1727  1.3639  1.0097
  975MOL0     H31623   5.721   3.705   9.712  1.0598 -1.1980  0.1143
  975MOL0     H31624   4.865   3.697   9.646  0.0024 -0.8542  0.2567
  975MOL0     H31625   4.634   3.734   9.533 -0.8709  0.3400 -2.0847
  976MOL0     O31626  10.229   4.421  10.787 -0.6827  0.2766 -0.0285
  976MOL0     C31627  10.327   4.452  10.858 -0.2499  0.0811 -0.7388
  976MOL0     O31628  10.339   4.561  10.949  0.1632  0.5189 -0.2141
  976MOL0     C31629  10.220   4.628  10.969 -0.4526  0.6329  0.1594
  976MOL0     C31630  10.170   4.611  11.096  0.7189 -0.8324 -1.5120
  976MOL0     C31631  10.051   4.685  11.129 -0.5943  0.4365  0.2082
  976MOL0     C31632   9.989   4.763  11.026  0.3551  0.1130 -0.6736
  976MOL0     O31633   9.875   4.832  11.058 -0.1806 -0.6197 -0.1824
  976MOL0     C31634   9.777   4.877  10.961  0.2426 -0.3819  1.3032
  976MOL0     C31635   9.648   4.929  11.032 -0.0595  0.1189  0.4958
  976MOL0     C31636   9.533   4.922  10.932  0.5515  0.1037 -0.0774
  976MOL0     C31637   9.399   4.955  11.005 -0.1657 -0.0814 -0.4336
  976MOL0     C31638   9.298   4.999  10.897 -0.3500  0.7105 -0.4220
  976MOL0     C31639   9.156   5.015  10.952  0.3228 -0.4478  0.5764
  976MOL0     C31640   9.044   5.041  10.844  0.7080 -0.0844 -0.3348
  976MOL0     C31641   8.933   5.113  10.911  0.1230 -0.0120 -0.7509
  976MOL0     N31642   8.804   5.119  10.830 -0.0358  0.6003  0.3470
  976MOL0     C31643   8.793   5.167  10.699 -0.1053  0.0790  0.0687
  976MOL0     C31644   8.656   5.181  10.688  0.4376  0.1728  0.4723
  976MOL0     C31645   8.585   5.240  10.570  0.4941  0.6976 -0.1323
  976MOL0     C31646   8.557   5.117  10.480  0.4532 -0.0442 -0.2062
  976MOL0     C31647   8.454   5.012  10.525  0.0819 -0.0097  0.0390
  976MOL0     C31648   8.309   5.065  10.534  0.2116  0.1118  0.8744
  976MOL0     O31649   8.253   5.144  10.431  0.0177 -0.2029  0.0754
  976MOL0     C31650   8.203   5.071  10.324  0.2458  0.2813  0.1166
  976MOL0     C31651   8.270   5.057  10.201  0.0634  0.5457 -0.2878
  976MOL0     C31652   8.217   4.977  10.096  0.9812 -0.6358 -0.3933
  976MOL0     C31653   8.289   4.973   9.962 -0.2430 -1.2671 -0.1778
  976MOL0     C31654   8.078   4.928  10.123 -0.3194  0.0753  0.8054
  976MOL0     C31655   8.007   4.838  10.026  0.9835  0.4740  0.4044
  976MOL0     O31656   7.872   4.820  10.046  0.5727 -0.0883  0.5289
  976MOL0     C31657   7.809   4.728   9.958  0.2982 -0.1171  0.3504
  976MOL0     C31658   7.704   4.784   9.877 -0.8088  0.0360 -0.4938
  976MOL0     C31659   7.655   4.710   9.770  1.2096 -0.0478 -1.0620
  976MOL0     C31660   7.680   4.573   9.755 -0.4054  0.1294  0.0891
  976MOL0     O31661   7.607   4.507   9.654 -0.4083  0.1779 -0.3938
  976MOL0     C31662   7.641   4.374   9.610  0.8561  0.1550  0.0558
  976MOL0     C31663   7.595   4.362   9.461 -0.2778  0.4577  0.2190
  976MOL0     C31664   7.674   4.460   9.370  0.0503 -0.2463  0.7589
  976MOL0     C31665   7.825   4.437   9.393  0.6460  0.1684  0.2522
  976MOL0     C31666   7.910   4.481   9.274 -0.9233 -0.1828 -0.0856
  976MOL0     C31667   8.056   4.432   9.296 -0.9580  0.4626  0.1319
  976MOL0     C31668   8.147   4.499   9.187 -1.0627 -0.2991 -0.3822
  976MOL0     C31669   8.277   4.408   9.179  1.0147  0.5379  0.1865
  976MOL0    Cl31670   8.354   4.393   9.340 -0.0869  0.3388  0.3048
  976MOL0     C31671   7.781   4.521   9.836  0.1328  0.9600 -0.1832
  976MOL0     C31672   7.845   4.596   9.930 -0.2572 -0.1763 -0.3029
  976MOL0     O31673   8.074   4.782   9.939  0.1238  0.3903 -0.3973
  976MOL0     C31674   8.019   4.960  10.241  0.0800  0.0691  0.3755
  976MOL0     C31675   8.077   5.025  10.346  0.8210  0.0316  0.2276
  976MOL0     N31676   8.602   5.152  10.812  0.9038  0.2806  0.6721
  976MOL0     N31677   8.687   5.110  10.896  0.4271  0.8533  0.7037
  976MOL0     C31678  10.047   4.769  10.895  0.4194 -0.1306 -0.2584
  976MOL0     C31679  10.165   4.707  10.866  0.2148  0.8219 -0.4231
  976MOL0     C31680  10.458   4.381  10.831  0.4366 -0.6719  0.2823
  976MOL0     C31681  10.450   4.283  10.729 -0.3256  1.2196  0.6005
  976MOL0     C31682  10.559   4.197  10.707 -0.7773 -1.0878  0.2728
  976MOL0     C31683  10.678   4.214  10.779 -0.0493  0.2902 -0.4974
  976MOL0     O31684  10.777   4.132  10.745  0.5501 -0.4413  0.0842
  976MOL0     C31685  10.905   4.150  10.808 -0.1305  0.5868 -0.4436
  976MOL0     C31686  10.996   4.030  10.805 -0.0699  0.0629  0.8537
  976MOL0     C31687  11.135   4.064  10.851 -0.2947  0.7550 -0.3719
  976MOL0     C31688  11.234   3.963  10.806  0.0720  0.2123 -0.9821
  976MOL0     C31689  11.359   3.980  10.882  0.4824  0.5420  0.4433
  976MOL0     C31690  11.472   3.988  10.915  0.0164  1.0925 -0.9500
  976MOL0     C31691  10.682   4.316  10.878 -0.0352 -0.1395  0.8028
  976MOL0     C31692  10.577   4.401  10.903 -0.2407  1.3423 -0.8674
  976MOL0     H31693  10.209   4.552  11.178 -1.3915  0.4975  0.5787
  976MOL0     H31694  10.005   4.667  11.226 -2.5094  0.7481 -0.6033
  976MOL0     H31695   9.818   4.963  10.907 -0.5856  0.4118  1.9044
  976MOL0     H31696   9.755   4.805  10.882  2.6556 -0.8838  1.0277
  976MOL0     H31697   9.634   4.855  11.111  3.1834 -1.6866 -0.4201
  976MOL0     H31698   9.657   5.033  11.063 -0.1285  0.9241 -1.9325
  976MOL0     H31699   9.550   5.005  10.864  1.8432  1.0446  1.3290
  976MOL0     H31700   9.524   4.823  10.886  0.6730 -0.0336  0.1886
  976MOL0     H31701   9.372   4.858  11.048  2.3671 -0.7848 -0.2555
  976MOL0     H31702   9.406   5.033  11.080  2.5748  0.2085 -0.8694
  976MOL0     H31703   9.334   5.096  10.863 -0.6315  1.4237  1.2033
  976MOL0     H31704   9.303   4.929  10.813 -2.2698  0.1454 -0.1040
  976MOL0     H31705   9.136   4.934  11.023 -0.1370 -0.9171 -0.0699
  976MOL0     H31706   9.162   5.102  11.017  0.4847  0.5712 -0.7624
  976MOL0     H31707   9.087   5.102  10.764  1.2360 -2.3049 -1.8478
  976MOL0     H31708   9.010   4.944  10.805 -0.5352 -0.2267  1.0189
  976MOL0     H31709   8.979   5.209  10.934  2.6240 -1.4225  0.5531
  976MOL0     H31710   8.914   5.070  11.009  3.2196  0.2511  0.0876
  976MOL0     H31711   8.875   5.185  10.631 -1.1045 -0.5422 -1.3703
  976MOL0     H31712   8.498   5.304  10.590  1.8213  2.8978 -1.0012
  976MOL0     H31713   8.661   5.302  10.521 -0.9216  1.9463 -0.8397
  976MOL0     H31714   8.650   5.066  10.455  0.5559 -1.5658  2.8588
  976MOL0     H31715   8.511   5.151  10.386 -2.1496 -2.2523  0.1218
  976MOL0     H31716   8.496   4.962  10.613  0.9790  0.8338  0.1110
  976MOL0     H31717   8.463   4.940  10.443  0.4599  0.3155 -0.2041
  976MOL0     H31718   8.320   5.139  10.614  4.1998  0.4856  0.1873
  976MOL0     H31719   8.245   4.981  10.563  0.0800 -1.1962 -2.7032
  976MOL0     H31720   8.368   5.104  10.192  0.7878 -0.6530  1.0670
  976MOL0     H31721   8.378   5.031   9.988 -1.1843 -0.9827  2.8580
  976MOL0     H31722   8.312   4.867   9.952  0.2271 -1.2241  0.4276
  976MOL0     H31723   8.231   5.008   9.876 -2.1315 -2.0079  0.7244
  976MOL0     H31724   7.664   4.882   9.899  2.9359  1.6090  0.0383
  976MOL0     H31725   7.577   4.760   9.715 -1.2186 -1.2079  1.1300
  976MOL0     H31726   7.750   4.364   9.613  1.0761  1.3778 -1.9495
  976MOL0     H31727   7.584   4.293   9.657 -0.9947  1.0936 -0.5032
  976MOL0     H31728   7.603   4.263   9.416  1.6340  1.0405 -0.8610
  976MOL0     H31729   7.489   4.389   9.453  0.1867  1.8112 -4.0942
  976MOL0     H31730   7.649   4.561   9.403 -0.0626 -0.1267  0.3153
  976MOL0     H31731   7.648   4.453   9.264 -2.7452 -0.3035  1.3729
  976MOL0     H31732   7.865   4.489   9.481 -2.1433  1.3370  0.9505
  976MOL0     H31733   7.840   4.330   9.410  2.2143  0.0378 -1.5791
  976MOL0     H31734   7.915   4.591   9.274  1.5324 -0.2177  1.4683
  976MOL0     H31735   7.866   4.449   9.179 -1.7735  0.1679  0.1866
  976MOL0     H31736   8.086   4.454   9.398  0.7381 -1.0734  0.0034
  976MOL0     H31737   8.053   4.324   9.282 -1.7886  0.4294  0.4903
  976MOL0     H31738   8.189   4.595   9.218  0.5823 -1.1310  0.0564
  976MOL0     H31739   8.093   4.512   9.093 -2.3098 -0.7274  0.2490
  976MOL0     H31740   8.340   4.446   9.097 -1.1710  0.5609 -1.5858
  976MOL0     H31741   8.247   4.308   9.146  2.5017 -0.7579  2.4727
  976MOL0     H31742   7.807   4.419   9.810 -0.8306  0.5865  0.2757
  976MOL0     H31743   7.927   4.538   9.971 -0.4671 -2.9898 -3.4876
  976MOL0     H31744   7.918   4.922  10.250  0.7568 -1.8821  0.2685
  976MOL0     H31745   8.021   5.035  10.438 -0.1469 -0.4338 -0.2826
  976MOL0     H31746  10.000   4.838  10.825  1.6311  1.1150  0.1182
  976MOL0     H31747  10.210   4.725  10.769  2.6828  2.3474  0.9069
  976MOL0     H31748  10.359   4.257  10.676  0.0435  0.0551  0.5282
  976MOL0     H31749  10.569   4.125  10.626 -1.0296  0.6829 -1.3979
  976MOL0     H31750  10.955   4.228  10.749 -0.6175  0.9638 -0.3672
  976MOL0     H31751  10.898   4.180  10.913 -2.3134 -0.9842 -0.0861
  976MOL0     H31752  11.007   3.998  10.701 -3.2154  0.8025  0.1887
  976MOL0     H31753  10.943   3.946  10.851 -1.3498  0.7511  0.6681
  976MOL0     H31754  11.131   4.070  10.961  2.8465  3.5655 -0.2590
  976MOL0     H31755  11.159   4.166  10.819 -0.3722  0.8290 -0.2009
  976MOL0     H31756  11.256   3.943  10.700  3.0667 -1.5849 -0.1564
  976MOL0     H31757  11.198   3.865  10.836 -1.9575  1.2596  0.2361
  976MOL0     H31758  11.576   3.998  10.940 -0.1139 -0.3797  0.3454
  976MOL0     H31759  10.768   4.326  10.944 -0.0255 -3.3293  1.3893
  976MOL0     H31760  10.581   4.484  10.974 -1.7069  0.1756  0.6518
  977MOL0     O31761  11.044   3.441  10.012  0.0515 -0.3036 -0.3204
  977MOL0     C31762  11.101   3.347   9.956  0.2656  0.4070 -0.0727
  977MOL0     O31763  11.037   3.237   9.904  0.1865  0.2088  0.5318
  977MOL0     C31764  10.907   3.201   9.922 -0.5149  0.2737  0.0698
  977MOL0     C31765  10.857   3.103   9.838  0.8876  0.6316  0.3037
  977MOL0     C31766  10.723   3.058   9.852  0.0759  0.4973 -0.2021
  977MOL0     C31767  10.643   3.112   9.954 -0.1919  0.3016 -0.2372
  977MOL0     O31768  10.513   3.072   9.970  0.2799 -0.4201 -0.1256
  977MOL0     C31769  10.421   3.151  10.046  0.6086 -0.3877 -0.1819
  977MOL0     C31770  10.283   3.083  10.041  0.1085  0.0274 -0.0759
  977MOL0     C31771  10.172   3.192  10.064  1.0609 -0.4610  0.4608
  977MOL0     C31772  10.031   3.122  10.067 -0.3567  1.0112 -0.2431
  977MOL0     C31773   9.920   3.220  10.111  0.0779  0.0699 -0.3195
  977MOL0     C31774   9.783   3.160  10.103 -0.3668  0.1829  0.3108
  977MOL0     C31775   9.668   3.253  10.137  0.1482 -0.3663 -1.0431
  977MOL0     C31776   9.526   3.184  10.104  0.6837 -0.0844  0.0081
  977MOL0     N31777   9.415   3.275  10.135  0.2685  0.1875 -0.2649
  977MOL0     C31778   9.319   3.258  10.233  0.6261  0.7446 -0.2142
  977MOL0     C31779   9.241   3.357  10.223 -0.3246  0.3213 -0.3482
  977MOL0     C31780   9.124   3.373  10.309 -0.1680 -0.2842 -0.7753
  977MOL0     C31781   9.003   3.316  10.237 -0.3275 -0.6093  0.6178
  977MOL0     C31782   8.896   3.290  10.340  0.1307 -0.2413  0.3663
  977MOL0     C31783   8.769   3.257  10.264 -0.0992  0.6098  0.3692
  977MOL0     O31784   8.665   3.228  10.355 -0.0996  0.6630 -0.3614
  977MOL0     C31785   8.536   3.248  10.313  0.4060  0.0539  0.8243
  977MOL0     C31786   8.431   3.218  10.402 -0.1223  1.0182  0.1856
  977MOL0     C31787   8.297   3.242  10.378 -0.5344 -0.6162  0.3647
  977MOL0     C31788   8.192   3.203  10.482 -0.0761 -0.7992 -0.1078
  977MOL0     C31789   8.260   3.306  10.253 -1.2011 -0.1816  0.2359
  977MOL0     C31790   8.132   3.363  10.210  0.0420 -0.5901 -0.0220
  977MOL0     O31791   8.102   3.334  10.083  1.0147  0.5620 -0.5671
  977MOL0     C31792   7.975   3.365  10.040 -0.7754  0.3954  0.6499
  977MOL0     C31793   7.856   3.314  10.092  0.4513 -0.0464  0.3685
  977MOL0     C31794   7.731   3.333  10.036  0.6145 -0.4249  0.0366
  977MOL0     C31795   7.728   3.416   9.919 -0.7731  0.7382 -0.3545
  977MOL0     O31796   7.614   3.449   9.858  0.0433  0.2581 -0.0503
  977MOL0     C31797   7.533   3.343   9.801  0.0359  0.4742  0.0562
  977MOL0     C31798   7.400   3.403   9.757 -0.1575 -0.1065 -0.7824
  977MOL0     C31799   7.311   3.300   9.687  0.1682 -0.2676 -0.5000
  977MOL0     C31800   7.168   3.343   9.670  0.0658 -0.4503 -0.8541
  977MOL0     C31801   7.083   3.256   9.582  0.9300 -0.2639 -0.1979
  977MOL0     C31802   7.026   3.151   9.682 -0.0372 -0.0894 -0.8130
  977MOL0     C31803   6.935   3.053   9.616  0.1697  0.2168  0.2797
  977MOL0     C31804   6.844   2.983   9.723 -0.8144 -0.0062  0.1810
  977MOL0    Cl31805   6.740   2.853   9.637  0.2742 -0.0948  0.1513
  977MOL0     C31806   7.847   3.470   9.869 -0.4355 -0.2830 -0.3786
  977MOL0     C31807   7.973   3.440   9.922 -0.3332 -0.0013 -0.2730
  977MOL0     O31808   8.055   3.405  10.296  0.0941 -0.3904 -0.6402
  977MOL0     C31809   8.358   3.316  10.152 -0.2997 -0.6777  1.0120
  977MOL0     C31810   8.494   3.284  10.183  0.1204 -0.2528 -0.2410
  977MOL0     N31811   9.275   3.430  10.109 -0.0145  0.7991  0.4885
  977MOL0     N31812   9.386   3.375  10.063  0.4389 -0.2350  0.6436
  977MOL0     C31813  10.699   3.205  10.044 -0.4936 -0.1218 -0.7091
  977MOL0     C31814  10.830   3.251  10.026 -0.5903  0.2734  0.0707
  977MOL0     C31815  11.246   3.346   9.943  0.8290 -0.7573 -0.3568
  977MOL0     C31816  11.316   3.462   9.978  0.0432 -0.8498  0.3790
  977MOL0     C31817  11.459   3.460   9.965  1.0709 -0.2811 -0.7785
  977MOL0     C31818  11.524   3.343   9.934 -0.1924 -0.0793 -0.6212
  977MOL0     O31819  11.663   3.341   9.919  0.3155  0.2592 -0.1066
  977MOL0     C31820  11.747   3.447   9.963 -0.8424  0.3986 -0.3353
  977MOL0     C31821  11.903   3.405   9.939 -0.0011  0.0033 -0.1979
  977MOL0     C31822  11.989   3.525   9.984  0.9720 -0.4930  0.2212
  977MOL0     C31823  12.144   3.514   9.953  0.5133 -0.3155 -0.2167
  977MOL0     C31824  12.207   3.644   9.948  0.2928 -0.6500  0.5432
  977MOL0     C31825  12.260   3.756   9.941  0.6040 -1.0500 -0.0374
  977MOL0     C31826  11.454   3.226   9.908 -0.9445  0.6847  0.5316
  977MOL0     C31827  11.315   3.221   9.912  0.0852 -0.5805  0.0142
  977MOL0     H31828  10.900   3.060   9.748 -4.3009 -3.4822 -0.7494
  977MOL0     H31829  10.674   2.989   9.784  3.2526 -0.6129 -1.5699
  977MOL0     H31830  10.448   3.157  10.152  0.7353  0.2413 -0.2476
  977MOL0     H31831  10.414   3.250  10.000  0.8771 -0.7026 -0.9126
  977MOL0     H31832  10.265   3.039   9.942  0.6431 -2.9925  1.0748
  977MOL0     H31833  10.274   3.000  10.112  3.6564 -1.0609 -0.7043
  977MOL0     H31834  10.194   3.249  10.155 -0.8584 -1.2483  1.4873
  977MOL0     H31835  10.175   3.268   9.985  0.1745 -0.4527  0.4184
  977MOL0     H31836  10.016   3.073   9.970  3.0183 -1.3351  0.2631
  977MOL0     H31837  10.028   3.040  10.139 -1.8040 -2.3238 -3.6988
  977MOL0     H31838   9.930   3.252  10.215  2.1254 -1.0347 -0.1354
  977MOL0     H31839   9.919   3.309  10.047 -1.1328  0.6657  0.4975
  977MOL0     H31840   9.768   3.126  10.001 -1.0877  0.0073  0.4675
  977MOL0     H31841   9.791   3.073  10.169 -4.9760 -2.5328 -2.2171
  977MOL0     H31842   9.674   3.281  10.242 -0.5737  1.6966 -1.5127
  977MOL0     H31843   9.679   3.348  10.085 -1.0432  1.4166  1.7485
  977MOL0     H31844   9.512   3.093  10.162 -0.2254 -0.2870 -0.5125
  977MOL0     H31845   9.509   3.166   9.997  0.5504 -0.2299  0.0535
  977MOL0     H31846   9.304   3.171  10.297 -1.6680  0.6032 -0.8583
  977MOL0     H31847   9.146   3.313  10.398  0.8000  1.4017  0.1649
  977MOL0     H31848   9.115   3.479  10.332 -0.1368 -0.3348 -0.5257
  977MOL0     H31849   9.020   3.227  10.177  0.5223 -0.1136  0.0987
  977MOL0     H31850   8.973   3.391  10.163  0.1670 -2.7285 -1.8770
  977MOL0     H31851   8.881   3.382  10.397 -0.1433  0.7225 -1.1851
  977MOL0     H31852   8.921   3.211  10.411 -0.9312 -2.6265 -1.7365
  977MOL0     H31853   8.778   3.166  10.205 -0.6518  0.3999  0.6034
  977MOL0     H31854   8.742   3.342  10.200 -2.1165 -0.4355 -0.2475
  977MOL0     H31855   8.450   3.175  10.500  1.9556 -1.7370 -1.2667
  977MOL0     H31856   8.239   3.126  10.543  1.6436 -0.3251 -0.7694
  977MOL0     H31857   8.162   3.291  10.539  0.6760 -1.5662  1.5357
  977MOL0     H31858   8.104   3.153  10.440 -1.2660  1.9816 -1.1516
  977MOL0     H31859   7.862   3.262  10.187  1.3509 -5.9253 -2.4066
  977MOL0     H31860   7.637   3.304  10.081  1.3084 -1.0383  1.1632
  977MOL0     H31861   7.589   3.295   9.720  0.2294 -1.0154  1.0430
  977MOL0     H31862   7.511   3.272   9.881 -2.9937 -0.6330 -1.6156
  977MOL0     H31863   7.357   3.439   9.851  1.5460  0.2071 -0.0921
  977MOL0     H31864   7.423   3.489   9.694  3.6029  1.4766  2.3058
  977MOL0     H31865   7.303   3.207   9.744 -0.2021  0.6001  0.9207
  977MOL0     H31866   7.356   3.269   9.593  1.5051 -2.0997  0.6647
  977MOL0     H31867   7.126   3.347   9.771 -0.5002 -0.2054 -1.0916
  977MOL0     H31868   7.161   3.446   9.632 -1.4695 -0.1058  0.2452
  977MOL0     H31869   7.131   3.209   9.495  0.9975 -1.4264  0.4489
  977MOL0     H31870   6.998   3.317   9.550  1.2982  2.0555  2.8400
  977MOL0     H31871   7.105   3.101   9.739 -0.6293  0.6394  0.7002
  977MOL0     H31872   6.971   3.212   9.755  1.5255  0.5462 -0.1237
  977MOL0     H31873   6.992   2.986   9.551 -1.9877  0.4249 -1.9692
  977MOL0     H31874   6.879   3.095   9.532  2.2244  3.2522  0.2752
  977MOL0     H31875   6.783   3.053   9.781 -0.2235  0.1740  0.6043
  977MOL0     H31876   6.908   2.939   9.801  1.2354 -0.2606 -1.5378
  977MOL0     H31877   7.823   3.525   9.779 -0.1236 -1.0303 -0.9285
  977MOL0     H31878   8.066   3.475   9.878 -0.6123  0.9504 -0.1348
  977MOL0     H31879   8.342   3.350  10.051 -1.4712 -0.9329  1.0930
  977MOL0     H31880   8.563   3.281  10.099 -1.2674 -0.3107 -1.4169
  977MOL0     H31881  10.639   3.242  10.126  0.7175  1.9240 -0.6770
  977MOL0     H31882  10.860   3.325  10.099  1.5113 -0.0534 -0.3932
  977MOL0     H31883  11.259   3.553   9.995  3.2548  1.3128  0.5231
  977MOL0     H31884  11.515   3.551   9.984  0.8712  0.1385 -2.0904
  977MOL0     H31885  11.728   3.545   9.918 -1.4432 -0.0365 -1.0368
  977MOL0     H31886  11.733   3.458  10.071 -2.0772  1.5149 -0.5787
  977MOL0     H31887  11.906   3.381   9.832 -2.8146  0.0022 -0.3666
  977MOL0     H31888  11.920   3.314   9.997  0.2338 -0.5678 -1.1262
  977MOL0     H31889  11.964   3.553  10.087 -2.0594 -0.1349 -0.5385
  977MOL0     H31890  11.949   3.606   9.922  2.2168 -1.8889 -2.5654
  977MOL0     H31891  12.152   3.465   9.855 -0.8269  1.1410 -1.1167
  977MOL0     H31892  12.190   3.451  10.029  2.5628 -2.9271 -3.3305
  977MOL0     H31893  12.296   3.857   9.939 -3.8217  0.8152  2.1084
  977MOL0     H31894  11.508   3.133   9.896 -1.8019  0.0879  1.2102
  977MOL0     H31895  11.266   3.128   9.885 -0.6763 -1.0009  2.5828
  978MOL0     O31896   8.613   1.630   9.516 -0.2359 -0.2287 -0.3511
  978MOL0     C31897   8.701   1.653   9.602  0.0966 -0.1719 -0.4457
  978MOL0     O31898   8.686   1.734   9.719 -1.1036 -0.0604 -0.7488
  978MOL0     C31899   8.574   1.806   9.726 -0.2256 -0.2611  0.8309
  978MOL0     C31900   8.590   1.945   9.753  0.5753  0.7168 -0.1997
  978MOL0     C31901   8.472   2.013   9.789 -0.6105 -0.3699  0.2051
  978MOL0     C31902   8.345   1.961   9.799 -0.3556  0.5484  0.7352
  978MOL0     O31903   8.243   2.052   9.826  0.3892 -0.1292  0.4023
  978MOL0     C31904   8.134   1.991   9.882  0.7248  0.1653 -0.3823
  978MOL0     C31905   8.031   2.101   9.922 -0.2506 -0.5999  0.0622
  978MOL0     C31906   7.884   2.057   9.927  0.3581  0.0185 -0.2196
  978MOL0     C31907   7.814   2.023   9.797 -0.4905 -0.1922  1.5013
  978MOL0     C31908   7.661   1.982   9.820 -0.2226 -0.4694 -0.3358
  978MOL0     C31909   7.649   1.865   9.917  0.8096  0.5133  0.6078
  978MOL0     C31910   7.511   1.793   9.889 -0.3969  0.0913  0.2556
  978MOL0     C31911   7.395   1.887   9.878 -0.2809 -0.3315  0.0121
  978MOL0     N31912   7.274   1.808   9.869  0.5194 -0.0537 -0.3787
  978MOL0     C31913   7.225   1.747   9.754  0.5394 -0.2812 -0.3860
  978MOL0     C31914   7.138   1.652   9.798 -0.7097 -0.7330  0.7428
  978MOL0     C31915   7.067   1.564   9.696 -0.2711 -0.1228  0.1454
  978MOL0     C31916   6.930   1.616   9.658 -0.3734 -0.1594  0.2419
  978MOL0     C31917   6.857   1.670   9.776 -0.0094  0.1730  0.3300
  978MOL0     C31918   6.709   1.675   9.738  0.1371 -0.0427  0.4999
  978MOL0     O31919   6.645   1.544   9.736  0.2362  0.1366 -0.3587
  978MOL0     C31920   6.506   1.535   9.698  0.2526  0.3589 -0.1151
  978MOL0     C31921   6.419   1.644   9.672 -0.0143 -0.4375  0.4488
  978MOL0     C31922   6.284   1.630   9.651 -0.3323  0.3497 -0.3957
  978MOL0     C31923   6.200   1.747   9.610 -0.2642 -0.0034  0.5637
  978MOL0     C31924   6.232   1.498   9.661  1.3613  0.8764 -0.6269
  978MOL0     C31925   6.086   1.464   9.650  0.3569  0.2668 -0.0358
  978MOL0     O31926   6.067   1.344   9.583  0.8483  0.2604 -0.4101
  978MOL0     C31927   5.935   1.330   9.534 -0.6723 -0.1846 -0.8212
  978MOL0     C31928   5.916   1.316   9.396  0.5785 -0.2656  0.0484
  978MOL0     C31929   5.799   1.259   9.341  0.3528  0.1599 -0.9072
  978MOL0     C31930   5.705   1.202   9.432  0.6252 -0.1962  0.0327
  978MOL0     O31931   5.600   1.134   9.395  0.4890 -0.2176  0.3381
  978MOL0     C31932   5.566   1.123   9.249 -0.5143  0.0974  0.0404
  978MOL0     C31933   5.421   1.084   9.233  0.7766  0.4768  0.3608
  978MOL0     C31934   5.329   1.199   9.221 -0.4814 -0.5919 -0.2822
  978MOL0     C31935   5.218   1.193   9.322  0.7650  0.2337 -0.5082
  978MOL0     C31936   5.125   1.327   9.305 -0.0563  0.2413 -0.2807
  978MOL0     C31937   5.011   1.334   9.408 -0.2715  0.5521 -1.0552
  978MOL0     C31938   4.907   1.224   9.399 -0.0007  0.2794 -0.0052
  978MOL0     C31939   4.799   1.262   9.488  0.3126  0.1603 -0.5294
  978MOL0    Cl31940   4.693   1.386   9.415  0.1512  0.1891 -0.5288
  978MOL0     C31941   5.728   1.226   9.571 -0.0377  0.1865 -0.1863
  978MOL0     C31942   5.841   1.284   9.616 -0.4123 -0.0803 -0.1457
  978MOL0     O31943   6.001   1.546   9.673  0.3745  0.4852 -0.4713
  978MOL0     C31944   6.327   1.392   9.679 -0.1179 -0.8957  0.4683
  978MOL0     C31945   6.459   1.408   9.708 -0.1877  0.0119  0.8600
  978MOL0     N31946   7.125   1.670   9.938 -0.4728 -0.4046 -0.2703
  978MOL0     N31947   7.205   1.763   9.976  0.5071  0.4742  0.0416
  978MOL0     C31948   8.332   1.824   9.767 -0.0058 -0.1251 -0.0242
  978MOL0     C31949   8.448   1.747   9.732  0.9294  0.0479 -0.0378
  978MOL0     C31950   8.823   1.587   9.571 -0.1849  0.3776  0.7227
  978MOL0     C31951   8.940   1.655   9.589 -0.6859 -0.2231  0.4151
  978MOL0     C31952   9.069   1.595   9.578 -0.2364  0.2674 -0.1624
  978MOL0     C31953   9.077   1.458   9.537 -1.1308 -0.3580  0.8333
  978MOL0     O31954   9.197   1.398   9.497  0.5879  0.1199  0.5131
  978MOL0     C31955   9.314   1.459   9.555 -0.1595  0.0782 -0.7189
  978MOL0     C31956   9.434   1.365   9.532  0.4813  0.4229  0.9622
  978MOL0     C31957   9.564   1.413   9.598  0.0959 -0.0147 -0.4861
  978MOL0     C31958   9.617   1.301   9.687 -0.0494 -0.0813  0.2845
  978MOL0     C31959   9.544   1.306   9.814 -0.6287 -0.2017  0.2617
  978MOL0     C31960   9.489   1.319   9.920 -0.4733 -0.1061  0.4906
  978MOL0     C31961   8.957   1.393   9.506  0.4235  0.0164  0.6035
  978MOL0     C31962   8.828   1.449   9.536  0.0568  0.7799  0.0279
  978MOL0     H31963   8.690   1.988   9.758  0.2135  1.9113 -2.0978
  978MOL0     H31964   8.483   2.118   9.817  1.0379  0.0096 -1.6573
  978MOL0     H31965   8.082   1.927   9.811 -1.2533  3.4445 -2.1421
  978MOL0     H31966   8.164   1.940   9.974 -0.3894 -0.1200 -0.1618
  978MOL0     H31967   8.059   2.152  10.015 -0.8120 -1.4014  0.6819
  978MOL0     H31968   8.034   2.183   9.849 -2.6407 -0.9689 -0.5618
  978MOL0     H31969   7.883   1.982  10.007 -0.2827 -0.0882 -0.3302
  978MOL0     H31970   7.835   2.144   9.972  3.8911  0.7684  2.7036
  978MOL0     H31971   7.810   2.113   9.736  2.7151  0.1434  1.6483
  978MOL0     H31972   7.856   1.942   9.736 -3.3183  0.3491 -1.4819
  978MOL0     H31973   7.602   2.070   9.846 -0.6988 -0.7976 -0.2824
  978MOL0     H31974   7.634   1.955   9.717  0.8795  0.5093 -0.9103
  978MOL0     H31975   7.733   1.796   9.919  1.6634  1.4756  3.6855
  978MOL0     H31976   7.659   1.906  10.018 -0.7113 -0.6583  1.2839
  978MOL0     H31977   7.510   1.742   9.792 -1.6160 -0.7667  0.7038
  978MOL0     H31978   7.504   1.712   9.961  1.7879 -0.8322 -0.4818
  978MOL0     H31979   7.399   1.966   9.803  1.2252  2.6025  2.9324
  978MOL0     H31980   7.404   1.935   9.976  0.1879 -1.5518  0.5986
  978MOL0     H31981   7.251   1.772   9.651 -4.0621  3.2668 -0.9857
  978MOL0     H31982   7.121   1.559   9.601 -0.2363  0.0093  0.1574
  978MOL0     H31983   7.052   1.468   9.747  1.6439 -0.9359 -0.7428
  978MOL0     H31984   6.880   1.531   9.611 -1.0876 -0.7671  2.0314
  978MOL0     H31985   6.960   1.690   9.582  2.0525 -2.3214 -1.0766
  978MOL0     H31986   6.883   1.774   9.797  1.1938  0.0315 -0.3581
  978MOL0     H31987   6.880   1.611   9.865  0.9821 -2.9792 -1.8448
  978MOL0     H31988   6.694   1.723   9.641  2.5493  0.2553  0.2226
  978MOL0     H31989   6.650   1.739   9.804 -1.8943 -1.6550  0.3786
  978MOL0     H31990   6.465   1.743   9.668 -2.4877  0.7639 -0.5029
  978MOL0     H31991   6.128   1.769   9.690 -0.9859 -0.3429  0.0199
  978MOL0     H31992   6.260   1.838   9.601 -0.8612  0.2017 -2.0212
  978MOL0     H31993   6.154   1.726   9.513  0.6571 -1.1135  0.3419
  978MOL0     H31994   5.998   1.350   9.333  1.8575  0.6658  2.0973
  978MOL0     H31995   5.787   1.267   9.234 -1.6825 -1.9055 -0.9054
  978MOL0     H31996   5.572   1.225   9.209 -0.1147  0.5891  1.3080
  978MOL0     H31997   5.633   1.050   9.203 -0.1352 -0.9357  2.1100
  978MOL0     H31998   5.401   1.032   9.139  0.9237  0.5358  0.2957
  978MOL0     H31999   5.398   1.016   9.315  0.6215 -0.3526 -0.3593
  978MOL0     H32000   5.275   1.195   9.126  0.2598 -0.2935 -0.7208
  978MOL0     H32001   5.372   1.299   9.230 -0.3874 -0.4680 -1.8023
  978MOL0     H32002   5.162   1.099   9.311 -2.5507  1.8799  0.8810
  978MOL0     H32003   5.267   1.205   9.419  0.7281  0.3903 -0.5081
  978MOL0     H32004   5.077   1.339   9.208 -1.6170  1.0277  0.5441
  978MOL0     H32005   5.185   1.415   9.328 -0.0120  0.2466 -0.4219
  978MOL0     H32006   5.057   1.337   9.507  0.3721  2.3063 -1.3634
  978MOL0     H32007   4.962   1.431   9.420 -0.3422  0.1428  4.3924
  978MOL0     H32008   4.951   1.133   9.439 -0.5585  0.9215  2.2143
  978MOL0     H32009   4.871   1.200   9.298 -0.5973  0.9748  0.0271
  978MOL0     H32010   4.827   1.310   9.582 -1.5134  0.0393  0.1187
  978MOL0     H32011   4.735   1.177   9.512 -0.9739  0.3955 -2.8554
  978MOL0     H32012   5.652   1.191   9.640 -2.9621 -0.4657 -3.4218
  978MOL0     H32013   5.863   1.280   9.723 -2.9333 -3.4123  0.4157
  978MOL0     H32014   6.301   1.287   9.688  1.7393 -1.6066 -1.5883
  978MOL0     H32015   6.533   1.329   9.718  1.5418  1.4641  0.1827
  978MOL0     H32016   8.240   1.768   9.787  0.1228 -0.3331 -0.0049
  978MOL0     H32017   8.453   1.638   9.740  0.4859  0.1456  2.0272
  978MOL0     H32018   8.928   1.762   9.606 -3.1009 -0.2308 -0.7381
  978MOL0     H32019   9.165   1.643   9.596  0.8298 -1.6473 -0.4333
  978MOL0     H32020   9.335   1.555   9.507  2.0173  1.1618  2.1178
  978MOL0     H32021   9.304   1.475   9.662  2.3374 -2.1835 -0.0432
  978MOL0     H32022   9.462   1.377   9.426  0.8372  1.5431  1.1701
  978MOL0     H32023   9.409   1.260   9.549  0.0871  0.2024 -0.7213
  978MOL0     H32024   9.547   1.502   9.659  0.9760 -1.2514  1.7079
  978MOL0     H32025   9.635   1.452   9.524  2.0084  2.3835  2.3551
  978MOL0     H32026   9.721   1.327   9.706 -0.1165  0.9744 -0.6555
  978MOL0     H32027   9.609   1.201   9.644 -1.9538 -0.1202  0.6165
  978MOL0     H32028   9.460   1.320  10.023  0.3321 -0.9776  0.7328
  978MOL0     H32029   8.968   1.297   9.457  0.6081  0.7368 -0.8278
  978MOL0     H32030   8.734   1.399   9.517  1.0572 -0.1409 -3.2171
  979MOL0     O32031   3.744   7.966  10.526 -0.4902  0.4045  0.3179
  979MOL0     C32032   3.825   7.928  10.614  0.1460 -0.7005 -0.1396
  979MOL0     O32033   3.785   7.862  10.726 -0.2576  0.2936  0.4984
  979MOL0     C32034   3.643   7.836  10.738 -0.7182  0.6031  0.4388
  979MOL0     C32035   3.576   7.734  10.660 -0.8072  0.5016 -0.5795
  979MOL0     C32036   3.447   7.700  10.685 -0.4506 -0.4010 -0.0734
  979MOL0     C32037   3.372   7.766  10.777  1.4916 -0.8490 -0.8796
  979MOL0     O32038   3.242   7.724  10.801 -0.3340  0.0608  0.4588
  979MOL0     C32039   3.138   7.820  10.820 -0.3757 -0.5286  0.3599
  979MOL0     C32040   3.009   7.782  10.756 -0.5182  0.4888  0.1816
  979MOL0     C32041   2.890   7.879  10.786 -1.1722  0.1379  0.0980
  979MOL0     C32042   2.773   7.855  10.693 -0.0139  0.2117 -0.3378
  979MOL0     C32043   2.654   7.933  10.713  0.1227  0.4424  0.3823
  979MOL0     C32044   2.607   7.957  10.855 -0.4026  0.2926 -0.1850
  979MOL0     C32045   2.481   8.044  10.851  0.0259 -0.1087  0.1212
  979MOL0     C32046   2.451   8.097  10.983 -0.0093  0.0034  0.9026
  979MOL0     N32047   2.323   8.170  10.972  0.3523  0.1025 -0.5576
  979MOL0     C32048   2.298   8.292  10.903 -0.7303 -0.1936 -0.4130
  979MOL0     C32049   2.173   8.324  10.945  0.0606 -0.4290  0.3554
  979MOL0     C32050   2.095   8.441  10.888  0.5877 -0.6647  0.4165
  979MOL0     C32051   1.960   8.396  10.833  0.3065  0.6489 -0.6004
  979MOL0     C32052   1.890   8.488  10.740  0.3737  0.6789 -0.4132
  979MOL0     C32053   1.744   8.448  10.719  0.3214 -0.5670  0.5552
  979MOL0     O32054   1.665   8.454  10.835 -0.0721 -0.6716  0.2104
  979MOL0     C32055   1.525   8.467  10.820  0.1527 -0.5193  0.5694
  979MOL0     C32056   1.456   8.467  10.939 -0.4710 -0.6164  0.3787
  979MOL0     C32057   1.319   8.490  10.939  0.8583 -0.0597 -0.3916
  979MOL0     C32058   1.256   8.496  11.076  0.2348  0.5449 -0.0954
  979MOL0     C32059   1.248   8.511  10.813 -0.4764 -0.1052 -0.2448
  979MOL0     C32060   1.104   8.518  10.807 -0.3198 -0.4050 -0.2517
  979MOL0     O32061   1.022   8.511  10.912 -0.8103  0.9622 -0.0569
  979MOL0     C32062   0.884   8.509  10.910 -0.2397  0.7362  0.1783
  979MOL0     C32063   0.814   8.560  11.027  0.1230  0.1670  0.6069
  979MOL0     C32064   0.671   8.544  11.044  0.1270  0.5110 -0.6152
  979MOL0     C32065   0.596   8.485  10.944  0.1626  0.8891 -0.5955
  979MOL0     O32066   0.462   8.465  10.968 -0.5186 -0.9732 -0.0178
  979MOL0     C32067   0.381   8.417  10.861 -1.2088  0.1594 -0.1810
  979MOL0     C32068   0.239   8.419  10.914  0.2293 -0.1547 -0.0563
  979MOL0     C32069   0.142   8.393  10.801 -0.3107 -0.0380 -0.4441
  979MOL0     C32070   0.003   8.396  10.864 -0.5770  0.0075 -0.1865
  979MOL0     C32071  -0.097   8.361  10.759 -0.5539 -0.4490 -0.2704
  979MOL0     C32072  -0.209   8.272  10.803 -0.7910  0.1394  0.2545
  979MOL0     C32073  -0.284   8.222  10.681 -0.7305 -1.0698 -0.0155
  979MOL0     C32074  -0.395   8.131  10.722  0.0810  0.5772  0.0925
  979MOL0    Cl32075  -0.495   8.105  10.573 -0.2273  0.4287  0.4824
  979MOL0     C32076   0.662   8.438  10.831  0.7735 -0.7975 -0.3203
  979MOL0     C32077   0.798   8.448  10.811 -0.0172 -0.2679 -1.4179
  979MOL0     O32078   1.058   8.536  10.696  0.5461 -0.0092  0.2554
  979MOL0     C32079   1.321   8.504  10.697 -1.4155 -0.5523 -0.5411
  979MOL0     C32080   1.462   8.482  10.702  0.4320 -0.1155  0.0402
  979MOL0     N32081   2.124   8.236  11.035 -0.1477  0.1526  0.0711
  979MOL0     N32082   2.204   8.137  11.042  0.0853  0.1638  0.4834
  979MOL0     C32083   3.425   7.869  10.851 -0.0676  0.0497  0.4172
  979MOL0     C32084   3.559   7.906  10.831  0.8903 -0.4970 -0.1354
  979MOL0     C32085   3.964   7.946  10.599 -0.4257 -0.0979  0.4148
  979MOL0     C32086   4.064   7.926  10.699  0.3917  0.1270  0.9537
  979MOL0     C32087   4.196   7.938  10.676 -0.1841 -0.3105  0.8208
  979MOL0     C32088   4.243   7.979  10.548 -0.6831  0.3107  0.3781
  979MOL0     O32089   4.370   8.000  10.510 -1.0276 -0.4131  0.1693
  979MOL0     C32090   4.480   7.974  10.606  0.4472 -0.7115  0.0256
  979MOL0     C32091   4.609   7.995  10.535 -0.4104  1.1791  0.1430
  979MOL0     C32092   4.613   7.897  10.424 -0.2443 -0.1408  0.2555
  979MOL0     C32093   4.738   7.903  10.324  0.4648  0.0135 -0.3521
  979MOL0     C32094   4.793   8.038  10.292  0.5797  0.6694  0.6622
  979MOL0     C32095   4.852   8.141  10.266  0.7524 -0.8147 -0.1110
  979MOL0     C32096   4.142   8.009  10.451 -0.6221  0.3489  0.4795
  979MOL0     C32097   4.009   7.990  10.473  0.4233 -0.7511 -0.0587
  979MOL0     H32098   3.640   7.675  10.594  0.6208  0.8638  0.4157
  979MOL0     H32099   3.397   7.632  10.617 -0.6626  0.9454 -1.3234
  979MOL0     H32100   3.124   7.841  10.926 -1.4002 -0.1225  0.1561
  979MOL0     H32101   3.156   7.914  10.767 -0.0514 -0.6449  0.2598
  979MOL0     H32102   3.020   7.777  10.647  1.7166  0.8898  0.3350
  979MOL0     H32103   2.984   7.682  10.792  0.1841 -0.0215 -0.7039
  979MOL0     H32104   2.862   7.865  10.891 -2.4962  3.4783  0.3339
  979MOL0     H32105   2.925   7.983  10.778  0.6101 -0.4990 -0.7895
  979MOL0     H32106   2.810   7.858  10.590  1.5734  1.1997  0.2173
  979MOL0     H32107   2.749   7.751  10.717 -0.3663  0.7806  2.0732
  979MOL0     H32108   2.672   8.033  10.674 -0.7233  0.7644  0.7796
  979MOL0     H32109   2.570   7.881  10.665  1.2512 -0.0550 -1.1125
  979MOL0     H32110   2.588   7.862  10.905 -0.3809  1.2931  1.8120
  979MOL0     H32111   2.690   7.997  10.912 -0.9338  1.8470 -0.4429
  979MOL0     H32112   2.494   8.129  10.784 -0.8196 -1.3520 -1.6946
  979MOL0     H32113   2.395   7.995  10.805  0.1473  0.6643 -0.9612
  979MOL0     H32114   2.533   8.158  11.021  0.2696 -0.2499  0.7091
  979MOL0     H32115   2.448   8.008  11.046  0.2116 -0.9227 -0.3585
  979MOL0     H32116   2.347   8.358  10.832 -3.9523  0.8545 -1.8694
  979MOL0     H32117   2.085   8.521  10.962  1.1886 -0.0323 -0.1816
  979MOL0     H32118   2.146   8.481  10.800  0.2556 -1.0603  0.0387
  979MOL0     H32119   1.892   8.378  10.917  2.0755 -0.6340  0.6221
  979MOL0     H32120   1.966   8.300  10.782 -2.0775  0.4204 -0.5664
  979MOL0     H32121   1.933   8.495  10.640  1.8176  1.1911  0.2173
  979MOL0     H32122   1.899   8.591  10.777  0.5599  2.0321 -3.8403
  979MOL0     H32123   1.746   8.346  10.679  0.5233  0.6000 -2.6672
  979MOL0     H32124   1.711   8.509  10.635 -0.2160 -2.3260 -0.5680
  979MOL0     H32125   1.516   8.454  11.028  1.2850 -0.9105 -0.8030
  979MOL0     H32126   1.179   8.419  11.068 -0.9653  1.8306 -1.6598
  979MOL0     H32127   1.324   8.469  11.157  0.2755  0.0113 -0.3046
  979MOL0     H32128   1.211   8.596  11.087  1.5880  1.1353  0.2786
  979MOL0     H32129   0.875   8.605  11.105 -0.5959  0.8621  0.7835
  979MOL0     H32130   0.630   8.580  11.138  2.3499 -0.4375  0.7839
  979MOL0     H32131   0.390   8.482  10.774  0.2861  0.2962  0.0542
  979MOL0     H32132   0.414   8.317  10.833  4.3226  1.5395  0.2389
  979MOL0     H32133   0.221   8.361  11.006  0.1581  1.7388  1.1881
  979MOL0     H32134   0.227   8.525  10.938  3.7891  0.4764 -0.5070
  979MOL0     H32135   0.153   8.294  10.756  0.8769 -0.0071 -0.2508
  979MOL0     H32136   0.153   8.476  10.729  3.4053 -0.5215 -0.6716
  979MOL0     H32137  -0.000   8.317  10.940 -1.4699  1.2541  1.1139
  979MOL0     H32138  -0.019   8.489  10.917  1.8985  0.5509  0.0184
  979MOL0     H32139  -0.044   8.314  10.675 -1.9725 -0.9180 -0.9382
  979MOL0     H32140  -0.139   8.452  10.713 -0.1495 -1.1773 -2.1716
  979MOL0     H32141  -0.169   8.186  10.857 -0.9445  1.1533  2.0403
  979MOL0     H32142  -0.280   8.316  10.874 -1.2318 -0.1222 -0.0160
  979MOL0     H32143  -0.214   8.172  10.614 -2.3481 -2.1381 -0.9823
  979MOL0     H32144  -0.325   8.303  10.620 -0.1518 -0.4379  0.4201
  979MOL0     H32145  -0.462   8.175  10.797  1.4980 -0.1964  1.8835
  979MOL0     H32146  -0.353   8.044  10.772  0.8079  2.0915  2.2571
  979MOL0     H32147   0.606   8.378  10.759 -0.0159  0.9793 -1.2363
  979MOL0     H32148   0.845   8.399  10.726  1.3058 -1.2728 -0.1651
  979MOL0     H32149   1.268   8.504  10.602 -3.0109  0.3127  0.3088
  979MOL0     H32150   1.509   8.465  10.605  0.8042 -1.7625  0.4780
  979MOL0     H32151   3.371   7.923  10.929  1.4363  1.8885  0.2664
  979MOL0     H32152   3.595   7.977  10.905 -0.0928 -0.2862  0.1553
  979MOL0     H32153   4.045   7.914  10.805  2.2580  2.8469  1.7032
  979MOL0     H32154   4.264   7.918  10.759  0.3376  0.6218  0.6390
  979MOL0     H32155   4.474   8.051  10.683  2.2842  0.1655 -0.6439
  979MOL0     H32156   4.465   7.878  10.656 -2.3244 -0.3758 -0.0371
  979MOL0     H32157   4.692   7.998  10.606  0.1594  1.0549 -0.5054
  979MOL0     H32158   4.609   8.092  10.483  1.6094 -0.1416 -2.5726
  979MOL0     H32159   4.530   7.903  10.352  2.9032  0.5491 -3.6945
  979MOL0     H32160   4.605   7.793  10.455 -5.2332 -0.4476 -1.1091
  979MOL0     H32161   4.717   7.844  10.234 -1.5330 -0.2340  0.2232
  979MOL0     H32162   4.819   7.845  10.368  1.6657  2.8688  1.4974
  979MOL0     H32163   4.891   8.239  10.250 -1.3817  0.4394  1.7499
  979MOL0     H32164   4.169   8.040  10.351  0.3675 -0.4642  0.4767
  979MOL0     H32165   3.935   8.022  10.400  0.0058  3.0876  1.7418
  980MOL0     O32166   6.636   7.197   1.346 -0.0343  0.1215  0.0346
  980MOL0     C32167   6.600   7.296   1.401  0.1231  0.0526 -0.2149
  980MOL0     O32168   6.469   7.321   1.435 -0.0219 -0.2688 -0.6986
  980MOL0     C32169   6.366   7.273   1.366  0.4649 -0.0129  0.0193
  980MOL0     C32170   6.249   7.260   1.444 -0.3746  0.3236  0.6708
  980MOL0     C32171   6.131   7.221   1.385  0.1287 -1.0748 -1.0051
  980MOL0     C32172   6.133   7.182   1.249 -0.0864  0.2697 -0.0044
  980MOL0     O32173   6.032   7.131   1.178 -0.2651  0.6111 -0.2299
  980MOL0     C32174   5.896   7.173   1.210  0.4666  0.3169 -0.5131
  980MOL0     C32175   5.806   7.058   1.178 -0.6943  0.3606  0.0844
  980MOL0     C32176   5.791   7.032   1.029 -0.3188 -0.1678  0.4448
  980MOL0     C32177   5.710   6.909   1.003  0.9367  0.3372 -0.2719
  980MOL0     C32178   5.677   6.883   0.863 -0.4688  0.3648  0.9365
  980MOL0     C32179   5.579   6.991   0.803  0.4253  0.2424  0.4517
  980MOL0     C32180   5.452   7.013   0.897 -0.0998 -0.5772  1.0731
  980MOL0     C32181   5.369   6.892   0.921 -0.2571  0.7837 -0.1462
  980MOL0     N32182   5.237   6.944   0.959  0.2488  0.9167 -0.7129
  980MOL0     C32183   5.132   6.969   0.875 -0.6532  0.2715  0.7369
  980MOL0     C32184   5.042   7.030   0.959 -0.4802  0.2234 -0.1234
  980MOL0     C32185   4.902   7.059   0.919  0.7670  0.3655 -0.2316
  980MOL0     C32186   4.862   7.205   0.956  0.3111 -0.7862  0.4911
  980MOL0     C32187   4.722   7.238   0.910  0.0366  0.5664 -0.6783
  980MOL0     C32188   4.615   7.177   0.992 -0.1624 -0.1567  0.2757
  980MOL0     O32189   4.492   7.187   0.925  0.2065 -0.5363  0.4099
  980MOL0     C32190   4.372   7.141   0.993  0.0965  0.0450 -0.1213
  980MOL0     C32191   4.366   7.101   1.131 -0.0217  0.1611  0.0948
  980MOL0     C32192   4.247   7.061   1.189  0.7619  0.2778 -0.7733
  980MOL0     C32193   4.253   6.992   1.323  1.1898 -0.2274 -0.8022
  980MOL0     C32194   4.124   7.055   1.110  0.0184  0.3224 -0.3587
  980MOL0     C32195   3.989   7.020   1.159  0.1247 -0.4372 -0.4978
  980MOL0     O32196   3.908   6.944   1.075 -1.1031 -0.2312 -0.0577
  980MOL0     C32197   3.785   6.909   1.127  0.6412  0.5704 -0.0084
  980MOL0     C32198   3.675   6.987   1.084 -0.5958 -0.1641 -0.0815
  980MOL0     C32199   3.548   6.943   1.101 -0.9933 -0.0954  0.1682
  980MOL0     C32200   3.527   6.827   1.185  0.0817  0.3283  0.2063
  980MOL0     O32201   3.399   6.786   1.202  0.9750 -0.3615  0.1092
  980MOL0     C32202   3.364   6.695   1.087  0.4277 -0.3579 -0.9370
  980MOL0     C32203   3.257   6.588   1.129  0.1097 -0.5294 -0.4893
  980MOL0     C32204   3.125   6.633   1.172 -0.3962 -0.0184 -0.2128
  980MOL0     C32205   3.022   6.520   1.174  0.1603  0.7746 -0.3717
  980MOL0     C32206   2.886   6.565   1.228 -0.2891  0.1864  0.3442
  980MOL0     C32207   2.785   6.452   1.222 -0.8240  0.0606 -0.4466
  980MOL0     C32208   2.640   6.505   1.244  0.0448  0.0629 -0.5753
  980MOL0     C32209   2.540   6.397   1.201  0.5082  0.0435 -0.5044
  980MOL0    Cl32210   2.386   6.481   1.174  0.4290 -0.2584  0.0484
  980MOL0     C32211   3.637   6.764   1.245 -0.1392 -0.2247 -0.5708
  980MOL0     C32212   3.770   6.801   1.211 -0.0285  0.6370  0.5292
  980MOL0     O32213   3.956   7.052   1.273 -0.2390  0.0588 -0.0254
  980MOL0     C32214   4.135   7.090   0.979 -0.0997  0.7778  0.0806
  980MOL0     C32215   4.255   7.129   0.919  0.2525 -0.0975 -0.3058
  980MOL0     N32216   5.100   7.049   1.086 -0.6549 -0.0721 -0.0372
  980MOL0     N32217   5.212   6.995   1.085  0.5554 -0.3729  0.3232
  980MOL0     C32218   6.254   7.181   1.176  0.0648  0.0331 -0.1032
  980MOL0     C32219   6.364   7.236   1.237 -0.9469 -0.7574 -0.2921
  980MOL0     C32220   6.699   7.397   1.435  0.2160 -0.6172  0.2008
  980MOL0     C32221   6.684   7.455   1.566 -0.0496 -0.4884 -0.0559
  980MOL0     C32222   6.791   7.535   1.609  0.5199 -0.3707 -0.4793
  980MOL0     C32223   6.908   7.557   1.541  0.0370  0.3066 -0.2750
  980MOL0     O32224   6.999   7.646   1.596  0.3652  0.0759  0.1258
  980MOL0     C32225   7.123   7.665   1.519  0.5385  0.3355  0.5158
  980MOL0     C32226   7.231   7.732   1.584 -0.5983 -0.1161 -0.7182
  980MOL0     C32227   7.199   7.862   1.671  0.5422  0.5586  0.3934
  980MOL0     C32228   7.214   7.990   1.592  0.1124  0.0042  0.0663
  980MOL0     C32229   7.356   8.013   1.581 -0.5320 -0.0955  1.2885
  980MOL0     C32230   7.472   8.048   1.549 -0.2489  0.0005 -0.3259
  980MOL0     C32231   6.923   7.491   1.414  0.2912 -0.0021  0.3405
  980MOL0     C32232   6.814   7.423   1.351 -0.3090  0.1146  0.1899
  980MOL0     H32233   6.238   7.285   1.549 -0.8592 -3.7027  1.7780
  980MOL0     H32234   6.035   7.221   1.436  0.0853  2.0868 -0.9425
  980MOL0     H32235   5.878   7.175   1.318  0.9009 -1.5823 -0.3613
  980MOL0     H32236   5.871   7.264   1.156  0.1198 -0.0961 -1.0603
  980MOL0     H32237   5.850   6.974   1.233 -0.4051  0.4347 -0.0309
  980MOL0     H32238   5.707   7.082   1.217 -1.0881  0.8680 -1.1767
  980MOL0     H32239   5.736   7.112   0.978 -0.9187 -1.6833 -1.3904
  980MOL0     H32240   5.891   7.027   0.986 -1.1006 -1.0997 -1.3676
  980MOL0     H32241   5.769   6.828   1.047 -0.2108 -0.8302 -0.7850
  980MOL0     H32242   5.625   6.911   1.072  4.2410  1.4622  4.2713
  980MOL0     H32243   5.771   6.873   0.810  0.5763  2.2612  2.2881
  980MOL0     H32244   5.616   6.792   0.859  0.1256  0.0209 -0.8006
  980MOL0     H32245   5.623   7.088   0.776 -1.0860  0.5962 -0.8858
  980MOL0     H32246   5.549   6.951   0.706 -1.8637 -1.5538  1.8034
  980MOL0     H32247   5.480   7.068   0.988  1.1629  1.1075 -0.2615
  980MOL0     H32248   5.386   7.077   0.837 -0.1500  1.1862  2.8881
  980MOL0     H32249   5.419   6.831   0.996 -0.8286 -1.0202 -1.1748
  980MOL0     H32250   5.348   6.844   0.825  1.3448 -1.0435  0.3737
  980MOL0     H32251   5.117   6.934   0.774  0.4834  0.3692  0.5235
  980MOL0     H32252   4.882   7.034   0.814 -1.1542 -2.8795  0.7913
  980MOL0     H32253   4.841   6.989   0.976 -0.9393  0.3049 -2.0258
  980MOL0     H32254   4.927   7.274   0.902 -2.6216  1.0927 -0.8657
  980MOL0     H32255   4.871   7.229   1.063 -0.8891 -2.0119  0.9009
  980MOL0     H32256   4.720   7.199   0.808  1.5455  1.8405 -1.2344
  980MOL0     H32257   4.703   7.345   0.920 -1.0250  0.2241  2.3660
  980MOL0     H32258   4.599   7.235   1.084  0.9421  1.3641 -0.4435
  980MOL0     H32259   4.630   7.075   1.030  1.4016 -1.2081 -2.7962
  980MOL0     H32260   4.457   7.095   1.190 -0.3377  0.1813  0.5934
  980MOL0     H32261   4.356   6.991   1.361  1.7374  0.6338 -2.2047
  980MOL0     H32262   4.186   7.052   1.385 -0.7980 -1.5544 -1.5383
  980MOL0     H32263   4.210   6.892   1.310 -0.2891  0.3127 -0.2221
  980MOL0     H32264   3.697   7.086   1.045  2.6182 -1.1271 -1.0068
  980MOL0     H32265   3.470   7.005   1.057  1.2125  2.0301 -0.9287
  980MOL0     H32266   3.326   6.760   1.008  1.7573  1.3880 -0.2192
  980MOL0     H32267   3.454   6.641   1.056  0.2516 -0.6919 -0.8626
  980MOL0     H32268   3.250   6.508   1.055  1.0280  0.0072 -1.1791
  980MOL0     H32269   3.305   6.531   1.210  0.1695 -0.5945 -0.5693
  980MOL0     H32270   3.088   6.710   1.103 -2.3603 -1.0151 -0.3413
  980MOL0     H32271   3.134   6.682   1.269  1.1484 -2.0651  0.7532
  980MOL0     H32272   3.013   6.479   1.072  1.4660  2.2060 -1.0930
  980MOL0     H32273   3.060   6.439   1.237  1.3969  0.8916 -0.9485
  980MOL0     H32274   2.845   6.645   1.166  2.4765  2.3881  1.1537
  980MOL0     H32275   2.885   6.607   1.329 -1.5388  0.4890  0.2187
  980MOL0     H32276   2.795   6.393   1.131  1.0296 -0.5669  0.1209
  980MOL0     H32277   2.798   6.380   1.304  0.3029 -1.2078 -1.6970
  980MOL0     H32278   2.622   6.593   1.180 -0.0951  0.0003 -0.6211
  980MOL0     H32279   2.623   6.528   1.349 -0.1151 -2.8950  0.1121
  980MOL0     H32280   2.527   6.329   1.285 -0.5912  0.5417 -0.2577
  980MOL0     H32281   2.568   6.341   1.111 -3.6868  0.5711 -2.3516
  980MOL0     H32282   3.615   6.679   1.310  1.9598 -0.7945 -0.5493
  980MOL0     H32283   3.863   6.757   1.245  1.2892  1.0224 -2.3293
  980MOL0     H32284   4.058   7.111   0.905 -0.7440  2.3329  1.1269
  980MOL0     H32285   4.253   7.165   0.816 -2.8803  0.9986  0.0122
  980MOL0     H32286   6.261   7.133   1.079  0.2289  0.2262 -0.1882
  980MOL0     H32287   6.462   7.247   1.190 -0.1554  0.4454  1.5094
  980MOL0     H32288   6.601   7.445   1.636 -0.5415 -2.2149 -0.8501
  980MOL0     H32289   6.759   7.587   1.699  0.7463 -1.8028  0.4631
  980MOL0     H32290   7.157   7.570   1.475  0.6341  1.3525 -1.7360
  980MOL0     H32291   7.088   7.718   1.429 -2.8328  0.4149  1.7415
  980MOL0     H32292   7.303   7.761   1.507 -0.5150 -0.2203 -0.6792
  980MOL0     H32293   7.278   7.660   1.651  0.4658 -0.0148 -1.3452
  980MOL0     H32294   7.272   7.860   1.753  0.0614 -2.1515  0.8749
  980MOL0     H32295   7.100   7.860   1.717  0.4124  4.5508  0.6513
  980MOL0     H32296   7.163   8.075   1.636  0.3370  0.7606 -1.0927
  980MOL0     H32297   7.171   7.974   1.493  1.1150 -2.6959 -0.0279
  980MOL0     H32298   7.571   8.080   1.525  0.6049 -0.1519  2.5649
  980MOL0     H32299   7.012   7.507   1.355 -0.2089  0.9764 -0.1746
  980MOL0     H32300   6.822   7.376   1.254  2.1823 -2.2548  1.4021
  981MOL0     O32301   8.638   7.315   5.457 -0.8959  0.2288  0.0969
  981MOL0     C32302   8.700   7.359   5.361 -0.1618  0.5197 -0.3109
  981MOL0     O32303   8.646   7.413   5.249 -0.6492  0.4223 -0.3515
  981MOL0     C32304   8.504   7.405   5.240 -0.8916  0.6301 -0.3437
  981MOL0     C32305   8.423   7.293   5.282 -0.7367 -0.0719 -0.4211
  981MOL0     C32306   8.289   7.305   5.270  0.5317 -0.0682  0.4645
  981MOL0     C32307   8.226   7.408   5.197 -0.2249 -0.4980 -0.8369
  981MOL0     O32308   8.090   7.404   5.189 -0.1615 -0.3845  0.1111
  981MOL0     C32309   8.022   7.534   5.191  0.1903 -1.1076  0.2077
  981MOL0     C32310   7.882   7.516   5.241  0.7515 -0.1099 -0.5275
  981MOL0     C32311   7.797   7.442   5.141 -0.2196  0.0268  0.6405
  981MOL0     C32312   7.661   7.415   5.196  0.4705  0.7632  1.2192
  981MOL0     C32313   7.574   7.367   5.075  0.1051 -0.8394  0.3694
  981MOL0     C32314   7.431   7.357   5.128 -0.0476  1.0099  0.7880
  981MOL0     C32315   7.332   7.304   5.022  0.3153  0.1902 -0.6197
  981MOL0     C32316   7.200   7.287   5.100  0.7904  0.6934  0.2259
  981MOL0     N32317   7.084   7.258   5.007 -0.1524 -0.8651  0.2904
  981MOL0     C32318   7.063   7.139   4.946  0.0735  0.4671 -0.3173
  981MOL0     C32319   6.963   7.164   4.872  0.5362 -0.0309 -0.1587
  981MOL0     C32320   6.919   7.064   4.773 -0.0485 -0.0742  0.1548
  981MOL0     C32321   6.763   7.033   4.779  0.5045  0.1237  0.1673
  981MOL0     C32322   6.741   6.881   4.787 -0.0892 -0.0175 -0.5019
  981MOL0     C32323   6.600   6.834   4.833  0.1585  0.0712 -0.7617
  981MOL0     O32324   6.503   6.881   4.740  0.3447 -0.0110 -0.0731
  981MOL0     C32325   6.370   6.863   4.762  0.0452  0.7576  0.0362
  981MOL0     C32326   6.282   6.927   4.675 -0.3601  0.1904 -0.1543
  981MOL0     C32327   6.147   6.931   4.678 -0.0970 -0.3284 -0.1185
  981MOL0     C32328   6.072   7.032   4.599  0.4165 -0.3588  0.4266
  981MOL0     C32329   6.092   6.849   4.783  0.7781  0.2138  0.2146
  981MOL0     C32330   5.944   6.831   4.800 -0.7016 -0.0542  0.3403
  981MOL0     O32331   5.870   6.832   4.688 -0.3266  0.2586 -0.2398
  981MOL0     C32332   5.747   6.775   4.685  0.2809 -0.6560  0.4942
  981MOL0     C32333   5.721   6.695   4.570 -0.2206 -0.2500  0.0993
  981MOL0     C32334   5.602   6.633   4.551  0.4780 -0.4015 -0.2029
  981MOL0     C32335   5.501   6.640   4.643 -0.1956  0.4326 -0.1206
  981MOL0     O32336   5.371   6.596   4.627 -0.6905  0.2661 -0.0941
  981MOL0     C32337   5.353   6.457   4.600  0.2735  0.6651 -0.1523
  981MOL0     C32338   5.213   6.418   4.659 -0.0415  0.3604 -0.1967
  981MOL0     C32339   5.092   6.487   4.587  1.1048 -0.4629 -0.1974
  981MOL0     C32340   5.046   6.604   4.681 -0.3697 -0.1561  0.5037
  981MOL0     C32341   4.949   6.697   4.603 -0.5763  0.1227  0.2581
  981MOL0     C32342   4.811   6.632   4.572 -0.4352  0.1067  0.9526
  981MOL0     C32343   4.703   6.736   4.572 -1.0867 -0.7379 -0.1973
  981MOL0     C32344   4.569   6.673   4.541  0.4704 -0.9929 -0.0291
  981MOL0    Cl32345   4.557   6.569   4.396  0.3779  0.5218 -0.0411
  981MOL0     C32346   5.522   6.718   4.759  0.0238 -0.0148 -0.0576
  981MOL0     C32347   5.645   6.785   4.779  0.0224  0.5278  0.1443
  981MOL0     O32348   5.911   6.805   4.918  0.6870 -0.5563 -0.0868
  981MOL0     C32349   6.173   6.778   4.884 -0.2530  0.6739 -0.5398
  981MOL0     C32350   6.313   6.782   4.869  0.5372  0.0319 -0.3012
  981MOL0     N32351   6.917   7.296   4.888  0.5601 -0.8317  0.7315
  981MOL0     N32352   7.000   7.355   4.967 -0.4914 -0.3298 -0.5080
  981MOL0     C32353   8.312   7.511   5.162  0.2412 -0.4612 -0.4826
  981MOL0     C32354   8.448   7.510   5.184 -0.0724 -0.0458  0.0344
  981MOL0     C32355   8.845   7.355   5.375 -0.0231  0.1933  0.2627
  981MOL0     C32356   8.919   7.356   5.256  0.6675  0.0466 -0.7560
  981MOL0     C32357   9.057   7.343   5.265 -0.5779 -0.4696  0.3266
  981MOL0     C32358   9.126   7.336   5.386 -0.2884  0.5855 -0.0735
  981MOL0     O32359   9.255   7.303   5.389 -0.3183  0.5554  0.1511
  981MOL0     C32360   9.327   7.284   5.503  0.1714  0.0638 -0.4451
  981MOL0     C32361   9.472   7.258   5.482  0.0594  0.6315  0.4747
  981MOL0     C32362   9.543   7.391   5.453 -0.9430  1.0919 -0.0603
  981MOL0     C32363   9.691   7.361   5.459 -0.1986  0.0080  0.0432
  981MOL0     C32364   9.766   7.473   5.406  0.6718  0.1750 -1.3032
  981MOL0     C32365   9.838   7.560   5.373 -0.8525  0.1194 -0.0240
  981MOL0     C32366   9.052   7.342   5.500  0.4202 -0.2082  0.4908
  981MOL0     C32367   8.914   7.355   5.495  0.3741 -0.8926 -0.2453
  981MOL0     H32368   8.448   7.202   5.336 -1.1803  0.8488  1.4208
  981MOL0     H32369   8.228   7.234   5.325 -2.0296  2.7976  1.6325
  981MOL0     H32370   8.071   7.607   5.257  2.3184 -0.8367 -1.5399
  981MOL0     H32371   8.016   7.583   5.093  0.6151  0.2446  0.8324
  981MOL0     H32372   7.900   7.453   5.329 -0.6721 -2.5358 -1.8661
  981MOL0     H32373   7.844   7.615   5.269  0.7070  0.0018 -0.9816
  981MOL0     H32374   7.784   7.510   5.056  1.2914 -1.3482 -0.7537
  981MOL0     H32375   7.844   7.348   5.111 -1.6822 -1.3489  2.4303
  981MOL0     H32376   7.665   7.337   5.273 -1.4643  1.1896  1.8064
  981MOL0     H32377   7.614   7.509   5.228  0.5265  1.0967  0.3614
  981MOL0     H32378   7.564   7.454   5.009 -2.2499 -0.0894  1.5789
  981MOL0     H32379   7.611   7.276   5.026  0.3379 -1.2708  1.3219
  981MOL0     H32380   7.418   7.306   5.224 -0.3683  1.3379  0.9186
  981MOL0     H32381   7.395   7.458   5.150  0.0055  1.2415 -0.1564
  981MOL0     H32382   7.310   7.364   4.933 -0.2005 -2.7564 -2.6678
  981MOL0     H32383   7.359   7.201   4.996  0.1159  0.2782 -1.1857
  981MOL0     H32384   7.169   7.381   5.147 -3.6743  0.5236 -1.8792
  981MOL0     H32385   7.199   7.216   5.183  1.7301 -2.6919 -2.4098
  981MOL0     H32386   7.132   7.056   4.954  1.5287  1.1886 -3.4766
  981MOL0     H32387   6.944   7.103   4.673 -0.9556 -1.0917 -0.4850
  981MOL0     H32388   6.979   6.974   4.786  0.3029  0.1195 -0.0923
  981MOL0     H32389   6.716   7.080   4.692  0.0635  1.3520  1.0392
  981MOL0     H32390   6.719   7.072   4.871  2.2333 -0.6107  1.3601
  981MOL0     H32391   6.818   6.847   4.857 -1.5139 -3.3072 -0.3505
  981MOL0     H32392   6.772   6.831   4.696 -0.0633  0.1572 -0.5888
  981MOL0     H32393   6.575   6.878   4.930  1.8850  0.2016 -0.3348
  981MOL0     H32394   6.596   6.726   4.849  2.1186 -0.0508 -0.7928
  981MOL0     H32395   6.334   7.000   4.614  1.8180  0.2280  1.6487
  981MOL0     H32396   6.002   7.090   4.659 -0.2468  0.6443 -1.2497
  981MOL0     H32397   6.132   7.114   4.560 -0.0181 -0.6161 -0.8584
  981MOL0     H32398   6.021   6.983   4.514  0.6788  1.9943 -1.1701
  981MOL0     H32399   5.792   6.704   4.489 -1.3650  1.3743 -0.7696
  981MOL0     H32400   5.585   6.574   4.461 -0.3293  0.1893 -0.4568
  981MOL0     H32401   5.352   6.437   4.492  0.4997  0.7433 -0.1707
  981MOL0     H32402   5.433   6.402   4.651  2.0231  2.3147 -0.9921
  981MOL0     H32403   5.187   6.312   4.656 -0.8575  0.5750 -1.4719
  981MOL0     H32404   5.211   6.437   4.767  0.2264 -1.7345  0.2192
  981MOL0     H32405   5.008   6.418   4.577  1.1512 -0.3598 -1.4455
  981MOL0     H32406   5.123   6.520   4.488  2.0054  2.2905  0.9156
  981MOL0     H32407   4.998   6.570   4.772  0.8648  3.4348  2.6958
  981MOL0     H32408   5.131   6.664   4.716 -0.3125 -0.6822  1.2934
  981MOL0     H32409   5.003   6.726   4.512  2.7636  1.0044  2.3208
  981MOL0     H32410   4.936   6.779   4.675  0.1127 -1.3175  2.1061
  981MOL0     H32411   4.825   6.587   4.474  1.0152 -1.9042  2.0049
  981MOL0     H32412   4.792   6.550   4.642 -0.4907 -0.4207  0.3299
  981MOL0     H32413   4.725   6.826   4.514 -0.0459 -0.6721  0.2774
  981MOL0     H32414   4.704   6.769   4.676 -1.7027  1.6258 -0.8857
  981MOL0     H32415   4.496   6.753   4.525 -0.2915 -1.6340  0.2529
  981MOL0     H32416   4.543   6.613   4.628 -1.1937  0.0130  0.2145
  981MOL0     H32417   5.435   6.742   4.819  0.5373  4.4241 -0.7337
  981MOL0     H32418   5.667   6.840   4.870 -0.9404 -2.2558  2.1998
  981MOL0     H32419   6.135   6.721   4.968  2.5364  1.7352  1.5961
  981MOL0     H32420   6.377   6.727   4.938  1.2413  0.6536 -0.4493
  981MOL0     H32421   8.267   7.601   5.121  2.2040  0.9382  0.2796
  981MOL0     H32422   8.506   7.598   5.159  0.7305 -0.8091 -0.8479
  981MOL0     H32423   8.863   7.352   5.163 -0.4495 -0.3119 -0.0891
  981MOL0     H32424   9.115   7.344   5.173  0.5284  0.9615  0.9984
  981MOL0     H32425   9.320   7.372   5.567 -1.1672 -0.8985  0.7938
  981MOL0     H32426   9.289   7.202   5.565  0.0315  1.2809  1.1470
  981MOL0     H32427   9.483   7.190   5.397 -1.1784  1.3770 -0.3136
  981MOL0     H32428   9.513   7.205   5.569 -1.3758 -1.1926  0.1009
  981MOL0     H32429   9.530   7.478   5.518  0.9473  0.5883  1.0782
  981MOL0     H32430   9.522   7.413   5.348 -0.0373  0.5793 -0.3571
  981MOL0     H32431   9.722   7.270   5.407  1.4044 -0.2439  1.3380
  981MOL0     H32432   9.718   7.346   5.564 -0.8175 -0.3032  0.1622
  981MOL0     H32433   9.921   7.624   5.353 -1.4499  1.0984  0.5612
  981MOL0     H32434   9.095   7.314   5.596 -0.4558 -2.0083  0.4035
  981MOL0     H32435   8.846   7.350   5.579 -2.9558  1.1059 -2.5701
  982MOL0     O32436   0.872   5.587   9.510 -0.0916  0.2126 -0.2016
  982MOL0     C32437   0.975   5.528   9.482  0.4081  0.3507 -0.1867
  982MOL0     O32438   0.972   5.400   9.430 -1.2213 -0.0541 -0.2706
  982MOL0     C32439   0.875   5.308   9.462  1.3666  0.6886  0.1999
  982MOL0     C32440   0.903   5.182   9.515 -0.3819 -0.0824 -0.1292
  982MOL0     C32441   0.799   5.091   9.538 -0.1044 -0.4361  0.7621
  982MOL0     C32442   0.666   5.124   9.513 -0.1545 -0.0397 -0.1179
  982MOL0     O32443   0.581   5.023   9.533  0.2630  0.4188 -0.0660
  982MOL0     C32444   0.441   5.048   9.565 -0.5998  0.3153  0.6128
  982MOL0     C32445   0.391   4.906   9.606  0.4165  0.1350 -0.0190
  982MOL0     C32446   0.239   4.920   9.620 -0.6628 -0.2776 -0.3212
  982MOL0     C32447   0.175   4.785   9.656 -1.0674  0.1237  0.5033
  982MOL0     C32448   0.161   4.691   9.535 -0.8510 -0.8023  0.2629
  982MOL0     C32449   0.090   4.557   9.570  0.1879 -0.1535  0.7856
  982MOL0     C32450  -0.059   4.576   9.606  0.0839  0.1982  0.0354
  982MOL0     C32451  -0.134   4.446   9.639  0.2235  0.1290  0.2904
  982MOL0     N32452  -0.275   4.462   9.685 -0.9596  0.4791 -0.0355
  982MOL0     C32453  -0.358   4.365   9.742 -0.6612 -0.1290 -1.0063
  982MOL0     C32454  -0.476   4.413   9.733 -0.0184  0.3319 -0.3385
  982MOL0     C32455  -0.606   4.356   9.780  0.0652  0.0333  0.5416
  982MOL0     C32456  -0.713   4.447   9.837 -0.3097 -0.5271  0.2328
  982MOL0     C32457  -0.818   4.374   9.913  0.1366 -0.0913 -0.3116
  982MOL0     C32458  -0.933   4.479   9.931  0.2512 -0.1156 -0.4588
  982MOL0     O32459  -1.022   4.475   9.816 -0.3107  0.3914  0.3259
  982MOL0     C32460  -1.122   4.563   9.809 -0.1111 -0.1667 -0.4080
  982MOL0     C32461  -1.153   4.667   9.900 -0.4198  0.7236  0.1107
  982MOL0     C32462  -1.259   4.747   9.887 -0.1020  0.7757  0.8878
  982MOL0     C32463  -1.287   4.855   9.988 -0.9314  0.6179  0.6006
  982MOL0     C32464  -1.339   4.730   9.771 -0.7109 -0.7968 -0.4551
  982MOL0     C32465  -1.465   4.808   9.746 -0.9672 -0.1816 -0.2232
  982MOL0     O32466  -1.474   4.931   9.800  0.5819 -0.3167  0.2056
  982MOL0     C32467  -1.591   4.999   9.810  0.1262 -0.2042 -0.9224
  982MOL0     C32468  -1.624   5.057   9.931  0.3905 -1.1705 -0.3649
  982MOL0     C32469  -1.750   5.109   9.967 -0.5747 -0.7415  0.6569
  982MOL0     C32470  -1.848   5.115   9.862 -0.4532  0.2388 -0.4273
  982MOL0     O32471  -1.977   5.159   9.883  0.3228  0.3320  0.2605
  982MOL0     C32472  -2.022   5.190  10.024 -0.0119 -0.3016  0.1623
  982MOL0     C32473  -2.166   5.246   9.998  0.5803 -0.3117 -0.1419
  982MOL0     C32474  -2.168   5.388   9.942 -0.7363  0.1265 -0.7312
  982MOL0     C32475  -2.310   5.430   9.961 -0.5584 -0.1874  0.6886
  982MOL0     C32476  -2.315   5.581   9.971  0.4669  0.3890 -0.1123
  982MOL0     C32477  -2.459   5.621   9.971  0.0391  0.7758  0.3225
  982MOL0     C32478  -2.488   5.764  10.018 -0.4260 -0.4107 -0.2187
  982MOL0     C32479  -2.404   5.874   9.961  0.4356  0.3996  0.7069
  982MOL0    Cl32480  -2.490   6.034  10.000 -0.3531  0.0598 -0.0911
  982MOL0     C32481  -1.815   5.076   9.736 -0.2596  0.6496  1.1086
  982MOL0     C32482  -1.686   5.019   9.705  0.4252  0.0193 -0.0927
  982MOL0     O32483  -1.549   4.756   9.674  0.4260 -0.3279  0.0420
  982MOL0     C32484  -1.320   4.625   9.679  0.4426  0.6742 -0.7140
  982MOL0     C32485  -1.210   4.539   9.704  0.7040  1.0318  0.5938
  982MOL0     N32486  -0.484   4.532   9.671  0.3078 -0.0407 -0.1517
  982MOL0     N32487  -0.359   4.558   9.628 -0.1150 -0.5652 -0.3979
  982MOL0     C32488   0.630   5.248   9.472  0.2184 -0.3364  0.2782
  982MOL0     C32489   0.735   5.337   9.444 -0.5807 -0.1030  0.3325
  982MOL0     C32490   1.106   5.591   9.501 -0.9695 -0.4044  0.4762
  982MOL0     C32491   1.220   5.512   9.506  0.0949 -1.3342  0.2046
  982MOL0     C32492   1.347   5.574   9.522 -0.4405 -0.5552  1.0245
  982MOL0     C32493   1.361   5.716   9.509 -0.0672  0.5623 -0.1586
  982MOL0     O32494   1.482   5.758   9.545  0.3797  0.0675  0.0196
  982MOL0     C32495   1.498   5.904   9.534 -1.2130 -0.2315  0.9356
  982MOL0     C32496   1.646   5.935   9.508  0.4102 -0.4542 -0.6838
  982MOL0     C32497   1.710   5.852   9.397 -0.6738  0.3999 -0.2962
  982MOL0     C32498   1.758   5.714   9.445 -0.5816 -0.1538 -0.2309
  982MOL0     C32499   1.877   5.674   9.374 -0.4217  0.1898 -0.7953
  982MOL0     C32500   1.981   5.633   9.326  0.1221 -0.5794 -0.0198
  982MOL0     C32501   1.242   5.791   9.493  0.3599  0.1884 -0.6089
  982MOL0     C32502   1.114   5.728   9.497  0.1597 -0.2273 -0.4125
  982MOL0     H32503   1.006   5.152   9.533 -0.5754 -1.4691 -1.1189
  982MOL0     H32504   0.832   4.999   9.586  1.3791  0.2467  1.1101
  982MOL0     H32505   0.427   5.120   9.646 -0.2575  0.2698  0.7118
  982MOL0     H32506   0.389   5.085   9.476  1.5273 -0.2238 -0.9122
  982MOL0     H32507   0.415   4.844   9.519 -0.1467  0.1283 -0.1758
  982MOL0     H32508   0.438   4.862   9.695 -0.8985  0.1315  0.7051
  982MOL0     H32509   0.216   4.989   9.701 -2.0640 -1.4242  0.2911
  982MOL0     H32510   0.193   4.966   9.532 -0.2482  3.4243  1.1974
  982MOL0     H32511   0.242   4.734   9.726  0.7401  1.6473 -0.0381
  982MOL0     H32512   0.079   4.798   9.705 -1.4051  0.0085 -0.1237
  982MOL0     H32513   0.096   4.739   9.462 -0.1736  0.8567  0.7115
  982MOL0     H32514   0.260   4.678   9.490 -1.0522  0.1473 -0.4748
  982MOL0     H32515   0.112   4.500   9.479  0.4058  0.7005  0.2918
  982MOL0     H32516   0.141   4.501   9.650  2.6122  0.8124  0.0062
  982MOL0     H32517  -0.082   4.650   9.683  1.0915 -0.5281  1.0561
  982MOL0     H32518  -0.100   4.618   9.514  2.8185  2.1109 -0.4571
  982MOL0     H32519  -0.065   4.400   9.711  1.0367 -0.7612 -0.9972
  982MOL0     H32520  -0.137   4.386   9.548 -1.4060 -1.2942  1.2172
  982MOL0     H32521  -0.327   4.269   9.781 -2.6236 -0.3557  0.1297
  982MOL0     H32522  -0.647   4.312   9.688  2.5523 -1.9347  0.2804
  982MOL0     H32523  -0.582   4.274   9.849 -2.6085 -1.0281  0.3476
  982MOL0     H32524  -0.759   4.500   9.753  1.7569  0.3878 -0.3952
  982MOL0     H32525  -0.673   4.532   9.894  1.3113 -0.1675 -1.3563
  982MOL0     H32526  -0.794   4.352  10.017 -0.4541  0.2766 -0.0926
  982MOL0     H32527  -0.857   4.285   9.862 -0.6387 -0.6115  1.1114
  982MOL0     H32528  -0.888   4.578   9.943 -0.4253  0.0777  0.5735
  982MOL0     H32529  -0.986   4.447  10.021  1.4437  3.1448  1.5685
  982MOL0     H32530  -1.085   4.676   9.984  1.0908 -1.2372 -0.8131
  982MOL0     H32531  -1.232   4.838  10.082  2.1100 -0.0735 -1.1783
  982MOL0     H32532  -1.268   4.953   9.944  0.0718 -0.8015 -2.3330
  982MOL0     H32533  -1.393   4.853  10.017 -0.7624  1.3946  1.3132
  982MOL0     H32534  -1.561   5.067  10.018  0.0457  2.6580 -0.4230
  982MOL0     H32535  -1.767   5.147  10.067 -3.0896 -1.2019  0.4800
  982MOL0     H32536  -2.021   5.095  10.079  1.6893 -0.1731  0.4088
  982MOL0     H32537  -1.960   5.264  10.076 -0.4549 -0.5834  1.1102
  982MOL0     H32538  -2.227   5.180   9.935  0.1535  0.0915 -0.1557
  982MOL0     H32539  -2.219   5.235  10.093 -0.4058 -2.0057 -0.8326
  982MOL0     H32540  -2.128   5.404   9.841 -2.7393  0.0016 -1.5960
  982MOL0     H32541  -2.104   5.454  10.001 -0.5637  0.8192 -1.6486
  982MOL0     H32542  -2.366   5.393   9.874 -0.5816  3.8286 -1.2386
  982MOL0     H32543  -2.344   5.399  10.060  1.8983  1.6383  2.2366
  982MOL0     H32544  -2.270   5.631   9.885 -0.1536  2.1532  0.5360
  982MOL0     H32545  -2.258   5.607  10.061  2.6776 -1.4448 -0.8859
  982MOL0     H32546  -2.490   5.605   9.868  1.9732 -2.6485  0.1189
  982MOL0     H32547  -2.511   5.546  10.032  0.9854  0.3124  0.5844
  982MOL0     H32548  -2.487   5.773  10.127 -3.6683  2.0173 -0.2264
  982MOL0     H32549  -2.594   5.786  10.000 -0.6682 -2.2750 -1.3123
  982MOL0     H32550  -2.394   5.863   9.853  1.2706 -0.5060  0.8654
  982MOL0     H32551  -2.312   5.856  10.017 -0.4078 -1.6237  1.5524
  982MOL0     H32552  -1.898   5.072   9.667  0.7882 -0.4709 -0.1350
  982MOL0     H32553  -1.665   4.987   9.603  0.2919  0.4991 -0.2742
  982MOL0     H32554  -1.378   4.612   9.588  2.0903  1.1195 -1.8620
  982MOL0     H32555  -1.194   4.446   9.651 -1.7124 -0.7063  2.7032
  982MOL0     H32556   0.523   5.262   9.462  0.0035 -0.1906  2.3105
  982MOL0     H32557   0.709   5.434   9.404  1.4768 -0.1516 -1.3204
  982MOL0     H32558   1.204   5.405   9.506 -2.6152 -0.9843  0.1260
  982MOL0     H32559   1.434   5.511   9.537  0.8290  0.9583  0.2511
  982MOL0     H32560   1.439   5.957   9.458  0.5945  0.7102  0.1245
  982MOL0     H32561   1.458   5.950   9.625 -3.1268 -1.8593  0.9637
  982MOL0     H32562   1.702   5.930   9.602 -0.5497  1.3798  0.0440
  982MOL0     H32563   1.666   6.036   9.472  0.3246  0.4219  1.5275
  982MOL0     H32564   1.786   5.905   9.339 -1.9369  2.2056 -0.3953
  982MOL0     H32565   1.634   5.828   9.322 -0.1381  0.1838 -0.7707
  982MOL0     H32566   1.684   5.639   9.415  0.2072 -1.5076  1.0788
  982MOL0     H32567   1.764   5.715   9.554 -1.9139  0.8813 -0.1444
  982MOL0     H32568   2.068   5.599   9.274  0.9187 -0.3427  1.1176
  982MOL0     H32569   1.250   5.900   9.497  2.0076  0.1151 -1.0903
  982MOL0     H32570   1.019   5.781   9.492 -1.0533 -1.9867  1.8634
  983MOL0     O32571   1.308   5.193   2.858 -0.4857 -0.6697 -0.4724
  983MOL0     C32572   1.413   5.256   2.835 -0.0959 -0.8370  0.0066
  983MOL0     O32573   1.434   5.387   2.871  0.7799 -0.3241  0.6197
  983MOL0     C32574   1.329   5.459   2.933  1.0548 -0.0081 -0.0535
  983MOL0     C32575   1.261   5.420   3.051 -0.9381 -0.5260  0.2737
  983MOL0     C32576   1.151   5.495   3.093 -0.1725 -0.7136  0.1523
  983MOL0     C32577   1.115   5.619   3.024 -0.1814  0.1004  0.7486
  983MOL0     O32578   1.001   5.694   3.051  0.8292 -0.3214  0.0081
  983MOL0     C32579   0.945   5.696   3.194 -0.4386 -0.4196 -0.0695
  983MOL0     C32580   0.802   5.668   3.182 -0.0147  0.1059 -0.2223
  983MOL0     C32581   0.734   5.662   3.322  0.9367 -0.3852  0.4498
  983MOL0     C32582   0.586   5.698   3.324 -0.4683 -0.2091 -0.6466
  983MOL0     C32583   0.547   5.799   3.437  0.2563  0.0852  1.0565
  983MOL0     C32584   0.401   5.833   3.414  0.3405 -0.4522 -1.2278
  983MOL0     C32585   0.347   5.903   3.543 -0.6831 -0.4516  0.1026
  983MOL0     C32586   0.226   5.997   3.510 -0.7675  0.0964 -0.6029
  983MOL0     N32587   0.183   6.075   3.630  0.0658  0.4835  0.7864
  983MOL0     C32588   0.079   6.038   3.712  0.9396  0.4343  0.4675
  983MOL0     C32589   0.041   6.156   3.775  0.1209  0.8188  0.3103
  983MOL0     C32590  -0.072   6.160   3.886  0.0376  0.0906 -0.3432
  983MOL0     C32591  -0.214   6.186   3.823  1.0663  0.3655 -0.6958
  983MOL0     C32592  -0.325   6.196   3.924 -0.7214  0.1604 -0.5874
  983MOL0     C32593  -0.458   6.238   3.874  0.2412 -0.0075 -0.0993
  983MOL0     O32594  -0.550   6.229   3.976  0.3206  0.2760  0.4905
  983MOL0     C32595  -0.680   6.268   3.957  0.4703  1.0182 -0.5417
  983MOL0     C32596  -0.729   6.367   3.872 -1.0446 -0.2801  0.4877
  983MOL0     C32597  -0.860   6.413   3.868  0.1452  0.3737 -0.4830
  983MOL0     C32598  -0.886   6.526   3.771  0.5008  0.2781 -0.4506
  983MOL0     C32599  -0.955   6.350   3.948 -0.8821 -0.3266 -0.1215
  983MOL0     C32600  -1.104   6.379   3.948 -0.0672  0.3397  0.0296
  983MOL0     O32601  -1.184   6.300   4.022  0.4470 -0.3323  0.3080
  983MOL0     C32602  -1.328   6.314   4.005 -0.6282 -0.2283  0.0122
  983MOL0     C32603  -1.395   6.405   4.085  0.0002  0.3539 -0.0827
  983MOL0     C32604  -1.534   6.416   4.080  0.6088  0.5646  1.1906
  983MOL0     C32605  -1.609   6.326   4.014 -0.4139  0.3380 -0.8190
  983MOL0     O32606  -1.740   6.313   4.044 -0.4986  0.2847  0.5844
  983MOL0     C32607  -1.802   6.412   4.125 -0.2523 -0.9275  0.2645
  983MOL0     C32608  -1.955   6.409   4.117  0.2984  0.4828  0.6693
  983MOL0     C32609  -2.008   6.454   3.982  0.2521  0.0026 -0.2173
  983MOL0     C32610  -2.159   6.433   3.970 -1.2097  0.2827 -0.3830
  983MOL0     C32611  -2.183   6.400   3.826 -0.3532  0.3111  0.7834
  983MOL0     C32612  -2.333   6.380   3.815  0.2711 -0.2107  0.6115
  983MOL0     C32613  -2.374   6.311   3.683  0.2065  0.0312  0.3571
  983MOL0     C32614  -2.517   6.263   3.689 -0.0990 -0.8108  0.0085
  983MOL0    Cl32615  -2.509   6.117   3.800 -0.0232  0.2393 -0.2581
  983MOL0     C32616  -1.543   6.229   3.945 -0.6011  0.5923 -0.5129
  983MOL0     C32617  -1.398   6.222   3.935 -0.0676 -0.2068  0.2809
  983MOL0     O32618  -1.141   6.464   3.873  0.1516  0.3105  0.9635
  983MOL0     C32619  -0.912   6.238   4.026 -0.5060  0.3026 -0.6537
  983MOL0     C32620  -0.774   6.202   4.035  0.5369  0.1023 -0.4654
  983MOL0     N32621   0.113   6.261   3.724 -0.4100  0.6159 -0.6794
  983MOL0     N32622   0.202   6.214   3.639  0.1794 -0.3127  0.7176
  983MOL0     C32623   1.200   5.669   2.923 -1.0517  0.1634 -0.1951
  983MOL0     C32624   1.307   5.591   2.882 -0.6365  1.0649  0.2367
  983MOL0     C32625   1.532   5.197   2.780  0.4242  1.6055  1.0956
  983MOL0     C32626   1.661   5.242   2.798 -0.0766 -0.0888  0.1302
  983MOL0     C32627   1.778   5.173   2.744  0.9216  0.0950 -0.4529
  983MOL0     C32628   1.763   5.053   2.671  0.0532  0.5948  0.1808
  983MOL0     O32629   1.862   4.983   2.605  0.4469 -0.1095  0.9382
  983MOL0     C32630   1.993   5.040   2.609 -0.6148  0.1231  0.5396
  983MOL0     C32631   2.008   5.151   2.516 -0.5692 -0.1597 -0.4198
  983MOL0     C32632   1.953   5.134   2.378  1.0905  0.1802 -0.5645
  983MOL0     C32633   2.023   5.239   2.284  1.1589  0.2414 -0.1739
  983MOL0     C32634   1.967   5.246   2.151  0.4173  0.2348  0.6718
  983MOL0     C32635   1.936   5.245   2.031  0.6600 -0.2805 -0.0366
  983MOL0     C32636   1.630   5.007   2.656 -0.2423 -0.5175 -0.7947
  983MOL0     C32637   1.518   5.077   2.707  0.7381 -0.0914  0.1228
  983MOL0     H32638   1.289   5.324   3.093  0.0983 -0.7533 -0.8752
  983MOL0     H32639   1.088   5.456   3.172 -0.5461 -0.2868  0.0724
  983MOL0     H32640   0.998   5.624   3.257  3.1728  0.5608 -1.7568
  983MOL0     H32641   0.953   5.793   3.242  1.3424 -0.7169  0.2866
  983MOL0     H32642   0.759   5.742   3.113 -1.6518 -1.3222 -0.7989
  983MOL0     H32643   0.783   5.572   3.133 -2.2313  0.0061  0.7041
  983MOL0     H32644   0.743   5.561   3.364 -0.9037 -1.0628 -0.6268
  983MOL0     H32645   0.789   5.726   3.391  0.7965 -0.6536  0.8150
  983MOL0     H32646   0.560   5.751   3.232 -2.3831 -2.6358 -1.6187
  983MOL0     H32647   0.527   5.605   3.325 -1.0687  0.1657 -0.3883
  983MOL0     H32648   0.570   5.747   3.530  2.1726 -0.9018  0.0925
  983MOL0     H32649   0.605   5.892   3.426  1.4829 -0.7849 -0.2416
  983MOL0     H32650   0.387   5.912   3.340  1.5060  0.0374 -0.9366
  983MOL0     H32651   0.347   5.742   3.384  1.5262 -1.1440 -1.3075
  983MOL0     H32652   0.312   5.831   3.619 -0.2520 -0.6410  0.1271
  983MOL0     H32653   0.430   5.948   3.597 -0.8604 -1.0849  0.9319
  983MOL0     H32654   0.146   5.930   3.480 -1.5690  0.7118  0.0877
  983MOL0     H32655   0.265   6.059   3.429  3.2863 -2.7588 -1.1593
  983MOL0     H32656   0.042   5.937   3.724  1.6527 -0.1190 -1.5347
  983MOL0     H32657  -0.053   6.066   3.939  0.6538  0.2060 -0.3547
  983MOL0     H32658  -0.047   6.241   3.956 -0.5045 -0.0364  0.0028
  983MOL0     H32659  -0.226   6.099   3.758  1.8094 -1.0160  0.9411
  983MOL0     H32660  -0.218   6.270   3.752 -1.8267 -2.0141 -3.6652
  983MOL0     H32661  -0.297   6.268   4.001 -0.9551 -1.1323  0.7664
  983MOL0     H32662  -0.337   6.095   3.966  1.0268 -0.1007 -0.6381
  983MOL0     H32663  -0.493   6.169   3.798 -1.2266 -0.7621  1.2040
  983MOL0     H32664  -0.451   6.342   3.842  0.1020  0.6359  1.8100
  983MOL0     H32665  -0.654   6.420   3.813 -1.8441 -0.2248 -0.5034
  983MOL0     H32666  -0.950   6.602   3.818 -0.9531 -0.7338 -0.7150
  983MOL0     H32667  -0.793   6.574   3.740  0.7474 -0.7376 -1.3238
  983MOL0     H32668  -0.916   6.484   3.675 -0.1748  0.0513 -0.1540
  983MOL0     H32669  -1.342   6.482   4.142 -1.3340  0.9112  0.4552
  983MOL0     H32670  -1.573   6.483   4.157  0.3384 -1.9483  3.4104
  983MOL0     H32671  -1.762   6.411   4.227 -1.5539  0.0446  0.8118
  983MOL0     H32672  -1.782   6.514   4.090 -0.2850 -0.2404  2.1105
  983MOL0     H32673  -1.985   6.305   4.133 -0.1410 -0.0743 -2.8625
  983MOL0     H32674  -1.994   6.470   4.199  2.5579 -0.2263  2.3730
  983MOL0     H32675  -1.966   6.393   3.901  1.7961  1.7869 -0.8243
  983MOL0     H32676  -1.974   6.557   3.973 -0.7455  0.1857 -2.8365
  983MOL0     H32677  -2.181   6.346   4.033 -1.0760 -0.4415 -1.2947
  983MOL0     H32678  -2.212   6.527   3.985 -1.5220  0.3645 -1.8399
  983MOL0     H32679  -2.135   6.306   3.797 -1.6428  0.9600 -4.4866
  983MOL0     H32680  -2.151   6.478   3.755 -0.0154 -0.9379 -0.4754
  983MOL0     H32681  -2.371   6.320   3.899  1.6194 -1.1277  0.6043
  983MOL0     H32682  -2.374   6.481   3.823 -3.8113 -1.5530 -0.7590
  983MOL0     H32683  -2.308   6.227   3.660 -0.5760 -0.1456 -1.3703
  983MOL0     H32684  -2.371   6.385   3.602  0.9998 -0.3575  0.0217
  983MOL0     H32685  -2.553   6.234   3.590  1.0867  2.5936 -1.5703
  983MOL0     H32686  -2.583   6.343   3.723 -0.1481 -1.0149  0.3952
  983MOL0     H32687  -1.605   6.155   3.897  0.0180  0.9147 -1.8773
  983MOL0     H32688  -1.339   6.151   3.878  0.1234 -1.1325  1.5598
  983MOL0     H32689  -0.985   6.182   4.083  1.4669 -0.5565  1.1557
  983MOL0     H32690  -0.755   6.126   4.110 -0.5142  1.6951  1.5034
  983MOL0     H32691   1.194   5.761   2.865  1.9115  1.2002  0.9159
  983MOL0     H32692   1.377   5.621   2.805 -2.2597 -2.5387 -3.0184
  983MOL0     H32693   1.675   5.324   2.867  3.1179 -0.5816  0.1888
  983MOL0     H32694   1.876   5.204   2.777 -0.2708  0.2018  3.5645
  983MOL0     H32695   2.018   5.064   2.713 -0.0783 -0.0261  0.4446
  983MOL0     H32696   2.065   4.965   2.577  2.2435  2.1560  1.8293
  983MOL0     H32697   2.116   5.166   2.520 -0.3395 -1.9142  1.3975
  983MOL0     H32698   1.964   5.237   2.569 -0.4041 -0.5353  0.3415
  983MOL0     H32699   1.845   5.149   2.380  0.8467 -1.4678 -0.3361
  983MOL0     H32700   1.976   5.033   2.343 -0.5075 -0.2897 -0.3409
  983MOL0     H32701   2.132   5.224   2.279  0.9202 -1.5732 -0.2753
  983MOL0     H32702   1.999   5.336   2.329 -0.6658  0.2178 -1.0309
  983MOL0     H32703   1.905   5.258   1.930  1.5616 -0.7703 -0.3847
  983MOL0     H32704   1.605   4.918   2.598 -0.1380  0.7582 -2.8915
  983MOL0     H32705   1.422   5.029   2.695  0.6039  0.1235  0.2995
  984MOL0     O32706   2.244   4.363   3.291  0.5591  0.6522  0.3769
  984MOL0     C32707   2.299   4.329   3.185  1.1116  0.0164  0.0210
  984MOL0     O32708   2.256   4.347   3.056  0.5117 -0.1191 -0.6036
  984MOL0     C32709   2.124   4.377   3.041  0.1136 -0.7778 -1.2163
  984MOL0     C32710   2.027   4.280   3.079  0.2716 -0.5118  0.3041
  984MOL0     C32711   1.896   4.297   3.045  0.8240 -1.2117 -0.6544
  984MOL0     C32712   1.849   4.412   2.983 -0.8063 -0.0549 -0.0960
  984MOL0     O32713   1.713   4.420   2.944 -0.9079  0.5057 -0.4551
  984MOL0     C32714   1.663   4.527   2.870 -0.2172  0.3432 -0.4723
  984MOL0     C32715   1.607   4.647   2.951 -0.0609 -0.4098 -0.5134
  984MOL0     C32716   1.462   4.679   2.912  0.4660  0.5433 -0.3325
  984MOL0     C32717   1.413   4.794   2.997 -0.0176  0.3495 -0.1556
  984MOL0     C32718   1.265   4.798   3.019 -0.6212  0.0994  0.2430
  984MOL0     C32719   1.193   4.814   2.886  0.7573 -0.6875 -0.7092
  984MOL0     C32720   1.051   4.788   2.910  0.5956 -0.4575  0.1894
  984MOL0     C32721   0.965   4.900   2.966  0.2689  0.3740 -0.5575
  984MOL0     N32722   0.879   4.836   3.068 -0.1930 -0.6374  0.7338
  984MOL0     C32723   0.740   4.833   3.060  0.0789  0.3725  0.0173
  984MOL0     C32724   0.701   4.808   3.184 -0.0001  0.0045  0.3825
  984MOL0     C32725   0.557   4.797   3.216 -0.5859  0.3214  1.0028
  984MOL0     C32726   0.541   4.648   3.257  0.0089 -0.3746  0.1683
  984MOL0     C32727   0.395   4.608   3.304 -1.4704  0.3031 -0.1003
  984MOL0     C32728   0.302   4.611   3.180 -0.7350 -0.0882 -1.1116
  984MOL0     O32729   0.185   4.529   3.209  1.1772 -0.3255 -0.2837
  984MOL0     C32730   0.053   4.577   3.225  1.1338 -0.5900 -0.2220
  984MOL0     C32731   0.010   4.711   3.242 -0.1933  0.2487  0.8474
  984MOL0     C32732  -0.125   4.745   3.266 -0.6310  0.7434 -0.2819
  984MOL0     C32733  -0.144   4.900   3.268  0.1710  0.2187 -0.6217
  984MOL0     C32734  -0.227   4.646   3.263 -0.4237  0.2615  0.1105
  984MOL0     C32735  -0.372   4.672   3.254 -0.1059  0.1368 -0.9339
  984MOL0     O32736  -0.449   4.553   3.228 -0.6570  0.1008 -0.5622
  984MOL0     C32737  -0.584   4.576   3.230 -0.2132  0.3257  0.1209
  984MOL0     C32738  -0.661   4.513   3.323  0.5071 -0.1247  0.3131
  984MOL0     C32739  -0.796   4.525   3.318  0.1606 -0.6909 -0.9423
  984MOL0     C32740  -0.858   4.600   3.220 -0.0899 -0.1190  0.1651
  984MOL0     O32741  -0.995   4.611   3.227  0.6927 -0.1269 -0.3130
  984MOL0     C32742  -1.059   4.706   3.143 -1.2706 -0.7585 -0.6592
  984MOL0     C32743  -1.200   4.709   3.182  0.2481 -0.2201 -0.1042
  984MOL0     C32744  -1.293   4.796   3.095 -0.4134 -0.0017 -0.4859
  984MOL0     C32745  -1.434   4.759   3.129  0.1372 -0.7271  0.3565
  984MOL0     C32746  -1.524   4.804   3.017 -0.2657 -0.2554 -0.0402
  984MOL0     C32747  -1.668   4.745   3.052  0.4875  0.3003 -0.2829
  984MOL0     C32748  -1.788   4.806   2.966 -0.1864  0.2224 -0.4954
  984MOL0     C32749  -1.848   4.918   3.051  0.0347 -0.0842 -0.1917
  984MOL0    Cl32750  -1.992   4.976   2.951 -0.3760  0.2885 -0.1269
  984MOL0     C32751  -0.781   4.665   3.123 -0.6447 -0.1123 -0.9097
  984MOL0     C32752  -0.645   4.652   3.128  0.1867 -0.4165  0.1626
  984MOL0     O32753  -0.420   4.784   3.290 -0.5875  0.1462 -0.3964
  984MOL0     C32754  -0.178   4.512   3.249  0.6288 -0.4724  0.1894
  984MOL0     C32755  -0.048   4.475   3.223  0.9296 -0.1732 -0.1403
  984MOL0     N32756   0.812   4.787   3.265 -0.9241 -0.0738 -0.2613
  984MOL0     N32757   0.923   4.811   3.195 -0.4884  0.3098  0.4117
  984MOL0     C32758   1.941   4.520   2.958 -0.4118 -0.6780  0.0732
  984MOL0     C32759   2.081   4.491   2.982  0.0007 -0.2973 -0.1588
  984MOL0     C32760   2.426   4.256   3.208 -0.4870 -0.7384 -0.4130
  984MOL0     C32761   2.473   4.226   3.335 -0.1488 -0.8761  0.3297
  984MOL0     C32762   2.600   4.172   3.343  0.6380 -0.6997 -0.2729
  984MOL0     C32763   2.681   4.142   3.235  0.7828 -0.5075  0.7466
  984MOL0     O32764   2.812   4.105   3.263  0.4283  0.4273 -0.5994
  984MOL0     C32765   2.907   4.075   3.159 -0.3335  0.3347  0.0929
  984MOL0     C32766   2.887   3.942   3.091  0.2184  0.3653 -0.3097
  984MOL0     C32767   2.929   3.831   3.193 -0.7754 -0.2881 -0.8096
  984MOL0     C32768   2.895   3.690   3.135  0.8835 -0.0337  0.4182
  984MOL0     C32769   2.958   3.571   3.200  0.8957 -0.5322  0.2770
  984MOL0     C32770   3.010   3.471   3.246 -0.0759  0.1755 -0.5753
  984MOL0     C32771   2.621   4.160   3.111  0.4927  0.6193  0.0896
  984MOL0     C32772   2.490   4.208   3.097 -0.0844 -0.8331 -0.4123
  984MOL0     H32773   2.057   4.190   3.131 -1.3886 -1.1709  0.1962
  984MOL0     H32774   1.819   4.222   3.061 -1.8239  0.6700 -3.3271
  984MOL0     H32775   1.738   4.568   2.802 -1.3675  2.5843 -0.4642
  984MOL0     H32776   1.583   4.475   2.816  0.2015 -0.6648 -0.1481
  984MOL0     H32777   1.600   4.617   3.056  1.4621 -1.9264 -0.8062
  984MOL0     H32778   1.682   4.726   2.953 -0.2567 -0.2081  2.2416
  984MOL0     H32779   1.439   4.704   2.808  2.1370 -0.3233 -0.9374
  984MOL0     H32780   1.407   4.586   2.927 -0.2600  0.4914 -2.8036
  984MOL0     H32781   1.456   4.788   3.097 -1.9382 -2.0583  0.6292
  984MOL0     H32782   1.441   4.893   2.958  2.7493  0.8019  2.6708
  984MOL0     H32783   1.244   4.702   3.067 -1.5131 -0.5480 -1.3625
  984MOL0     H32784   1.243   4.879   3.090 -0.4685  1.5211 -1.2619
  984MOL0     H32785   1.202   4.916   2.850 -2.3959  1.2848  3.2257
  984MOL0     H32786   1.220   4.739   2.811  1.1152 -1.7755  0.4765
  984MOL0     H32787   0.991   4.759   2.824  1.1253 -2.3841  0.4122
  984MOL0     H32788   1.051   4.695   2.967 -0.2439 -1.8902 -2.0392
  984MOL0     H32789   0.908   4.951   2.888  0.1956  1.8967  0.4530
  984MOL0     H32790   1.034   4.970   3.012  2.3339 -1.1912 -1.1321
  984MOL0     H32791   0.673   4.856   2.978  0.1776 -0.5669 -0.3378
  984MOL0     H32792   0.535   4.865   3.298  0.9267  3.6948 -1.1958
  984MOL0     H32793   0.489   4.832   3.138  0.1458 -1.7762 -0.6777
  984MOL0     H32794   0.611   4.631   3.340 -0.4996  0.2981  0.7441
  984MOL0     H32795   0.559   4.580   3.173  0.4667  0.7781 -0.6852
  984MOL0     H32796   0.364   4.677   3.383 -2.4627 -0.1172 -0.1049
  984MOL0     H32797   0.403   4.506   3.343  0.4234  0.2353 -0.5813
  984MOL0     H32798   0.362   4.567   3.100 -0.0047  0.8811 -1.1156
  984MOL0     H32799   0.273   4.714   3.156 -1.0907  0.0690 -0.1012
  984MOL0     H32800   0.090   4.783   3.226 -0.0807 -0.2050 -0.7893
  984MOL0     H32801  -0.225   4.929   3.200 -1.4091 -0.1919  1.0374
  984MOL0     H32802  -0.166   4.944   3.365 -2.9442  0.3134 -1.2640
  984MOL0     H32803  -0.056   4.952   3.228 -0.6567  2.7018  0.5705
  984MOL0     H32804  -0.616   4.441   3.390 -0.8100 -0.5753  0.7633
  984MOL0     H32805  -0.853   4.487   3.401  1.1739 -1.2980 -0.5030
  984MOL0     H32806  -1.010   4.798   3.178  1.2531 -1.0748 -3.0259
  984MOL0     H32807  -1.043   4.691   3.036 -0.2920  0.1065 -0.6525
  984MOL0     H32808  -1.232   4.606   3.163 -1.7029 -0.4263  3.4319
  984MOL0     H32809  -1.232   4.727   3.285  1.2877 -2.8752  0.7706
  984MOL0     H32810  -1.279   4.780   2.988 -1.4284 -0.5878 -0.5420
  984MOL0     H32811  -1.266   4.900   3.115 -2.5390  0.8398 -1.6747
  984MOL0     H32812  -1.448   4.651   3.141  0.0399 -0.6075  1.4531
  984MOL0     H32813  -1.471   4.798   3.224 -4.1363  0.4734 -1.5888
  984MOL0     H32814  -1.491   4.770   2.919  1.5931  1.2266  0.0140
  984MOL0     H32815  -1.532   4.913   3.015 -2.0473 -0.3495  0.2913
  984MOL0     H32816  -1.662   4.641   3.019 -0.0079  0.4610 -0.8863
  984MOL0     H32817  -1.685   4.763   3.159  1.1302 -2.2996  0.3370
  984MOL0     H32818  -1.868   4.737   2.940  0.9206 -0.8320 -1.1950
  984MOL0     H32819  -1.745   4.846   2.874 -0.0610 -0.7122 -0.8565
  984MOL0     H32820  -1.785   5.006   3.066 -1.4236  0.8525  0.6545
  984MOL0     H32821  -1.886   4.887   3.149  3.0986 -2.1315  0.4924
  984MOL0     H32822  -0.823   4.741   3.059  0.1745  2.7048  1.6583
  984MOL0     H32823  -0.586   4.709   3.056 -1.7247  1.0322 -0.3370
  984MOL0     H32824  -0.248   4.429   3.249 -0.9462  0.7779 -0.5702
  984MOL0     H32825  -0.015   4.373   3.206  0.6556 -0.2686 -0.1168
  984MOL0     H32826   1.919   4.623   2.931  1.6139 -0.0043  0.8252
  984MOL0     H32827   2.150   4.568   2.948 -1.6808  1.3072 -0.1105
  984MOL0     H32828   2.416   4.240   3.427  3.0362  1.7086  2.1351
  984MOL0     H32829   2.633   4.138   3.440  2.1146 -1.8466 -1.1394
  984MOL0     H32830   2.914   4.159   3.089  1.4869  1.7302  1.8150
  984MOL0     H32831   3.009   4.068   3.199  0.0882 -2.7465 -1.2553
  984MOL0     H32832   2.946   3.933   2.999  0.8324  1.7029 -0.0721
  984MOL0     H32833   2.783   3.918   3.066 -0.0038 -0.7295  1.4547
  984MOL0     H32834   2.878   3.838   3.290  1.7669 -5.1304  1.2301
  984MOL0     H32835   3.036   3.835   3.215 -1.0016 -1.5408  0.7315
  984MOL0     H32836   2.927   3.681   3.030  0.2254  0.3350  0.1776
  984MOL0     H32837   2.786   3.692   3.125  0.7110  1.2901  2.1581
  984MOL0     H32838   3.052   3.381   3.286  1.5325  0.9250 -0.5013
  984MOL0     H32839   2.674   4.121   3.024 -2.8951 -2.0420 -0.9971
  984MOL0     H32840   2.454   4.205   2.995  3.2166 -3.1191 -1.6842
  985MOL0     O32841   5.564   2.117   5.298  0.2302 -0.6673  0.6194
  985MOL0     C32842   5.584   2.210   5.376 -0.5573  0.3960 -0.1059
  985MOL0     O32843   5.487   2.292   5.431  0.0921 -0.1152  0.3979
  985MOL0     C32844   5.356   2.297   5.380  0.0248  0.3123 -0.7036
  985MOL0     C32845   5.328   2.287   5.242 -0.5292  0.4427 -0.4166
  985MOL0     C32846   5.203   2.305   5.191  0.7839 -0.0545 -0.7933
  985MOL0     C32847   5.086   2.336   5.279 -0.4372 -0.8600  0.4251
  985MOL0     O32848   4.972   2.378   5.219 -0.4826 -0.2695  0.0022
  985MOL0     C32849   4.849   2.404   5.296 -0.4259  0.0038  0.3877
  985MOL0     C32850   4.722   2.416   5.206  0.4593 -0.7227 -0.4307
  985MOL0     C32851   4.582   2.447   5.281  0.2015  0.1005  1.2350
  985MOL0     C32852   4.459   2.427   5.185 -0.1185  0.5463  0.7305
  985MOL0     C32853   4.326   2.442   5.261 -0.7766 -0.3241  0.4993
  985MOL0     C32854   4.195   2.430   5.179 -0.8160  0.1641 -1.5107
  985MOL0     C32855   4.179   2.554   5.086 -0.2274  0.4270 -0.4430
  985MOL0     C32856   4.036   2.578   5.042  0.1352  0.1975  1.3226
  985MOL0     N32857   3.965   2.487   4.947  0.4246  0.4938  0.4477
  985MOL0     C32858   3.943   2.359   4.970  0.3051  0.0580  0.4575
  985MOL0     C32859   3.831   2.328   4.903 -0.3420 -0.4112 -0.1759
  985MOL0     C32860   3.762   2.188   4.887  0.5126 -0.5369 -0.0193
  985MOL0     C32861   3.614   2.208   4.861 -0.8288 -0.3362  0.4460
  985MOL0     C32862   3.557   2.239   4.993 -0.0445  0.0332  0.9738
  985MOL0     C32863   3.403   2.235   4.970 -0.3287 -0.2205  0.3662
  985MOL0     O32864   3.341   2.115   4.928 -0.3240 -0.7242 -0.0637
  985MOL0     C32865   3.205   2.117   4.930  0.4045  0.0449  0.0746
  985MOL0     C32866   3.127   2.006   4.911 -0.6036 -0.9030 -0.1792
  985MOL0     C32867   2.990   1.987   4.925  0.1736 -0.7388 -0.4054
  985MOL0     C32868   2.921   1.849   4.916  0.0650  0.0597  0.4501
  985MOL0     C32869   2.912   2.113   4.932  1.2618 -0.7509 -0.0047
  985MOL0     C32870   2.770   2.119   4.945  0.6865 -0.0348 -0.2863
  985MOL0     O32871   2.694   2.031   4.877  0.3772 -0.1208 -0.3145
  985MOL0     C32872   2.563   2.030   4.896  0.6311  0.3827  0.0753
  985MOL0     C32873   2.507   1.997   5.024 -0.8875  0.2543 -0.3063
  985MOL0     C32874   2.370   2.004   5.044  0.3768 -0.5014  0.2274
  985MOL0     C32875   2.297   2.063   4.942 -1.2075 -0.0479 -1.1070
  985MOL0     O32876   2.164   2.084   4.952 -0.0173  0.2011 -0.3360
  985MOL0     C32877   2.105   2.069   5.085 -0.1768  0.4028  0.2762
  985MOL0     C32878   1.952   2.095   5.081  0.0882  0.3926  0.4186
  985MOL0     C32879   1.883   2.025   5.200  0.7532 -0.2801  0.0426
  985MOL0     C32880   1.736   2.036   5.190  0.4164 -0.4065 -0.6571
  985MOL0     C32881   1.656   2.165   5.188 -0.4901  0.5133 -0.1091
  985MOL0     C32882   1.712   2.262   5.292 -0.5375 -0.1094 -0.0042
  985MOL0     C32883   1.662   2.218   5.427 -0.6920  0.1370 -0.9115
  985MOL0     C32884   1.671   2.323   5.536 -0.1635 -0.3440 -0.8921
  985MOL0    Cl32885   1.611   2.254   5.685  0.0610 -0.2640  0.4722
  985MOL0     C32886   2.345   2.095   4.816 -0.2171 -0.7076 -0.4711
  985MOL0     C32887   2.480   2.067   4.797  0.4069  0.6343  0.5782
  985MOL0     O32888   2.732   2.200   5.036  0.2623  0.1586 -0.4581
  985MOL0     C32889   2.985   2.235   4.950  0.6968  0.5341 -0.4965
  985MOL0     C32890   3.121   2.232   4.955 -0.6089 -0.7908  0.4311
  985MOL0     N32891   3.796   2.432   4.819  0.1946 -1.5905  0.2762
  985MOL0     N32892   3.872   2.527   4.855 -0.1513 -0.7482 -0.1242
  985MOL0     C32893   5.114   2.350   5.413  0.6092  1.1938 -0.3404
  985MOL0     C32894   5.241   2.328   5.467  0.4019 -0.5981  0.5253
  985MOL0     C32895   5.728   2.239   5.413  0.3768  0.1743  0.2186
  985MOL0     C32896   5.836   2.172   5.351 -1.1669 -0.0691  0.0899
  985MOL0     C32897   5.965   2.197   5.393  0.3861 -0.6374  0.6989
  985MOL0     C32898   5.995   2.310   5.467 -0.1607 -0.0785  0.4485
  985MOL0     O32899   6.124   2.354   5.477 -0.2200 -0.3240  0.0645
  985MOL0     C32900   6.179   2.376   5.614  0.2355 -0.2387 -0.4400
  985MOL0     C32901   6.336   2.366   5.631  1.2076  0.0799  1.0326
  985MOL0     C32902   6.394   2.326   5.765 -0.4439 -0.1180 -0.0247
  985MOL0     C32903   6.400   2.443   5.864  0.0881  0.4100 -0.1699
  985MOL0     C32904   6.267   2.488   5.897  0.4440  0.4948  0.4392
  985MOL0     C32905   6.155   2.527   5.929  0.2396 -0.2350 -0.0107
  985MOL0     C32906   5.887   2.385   5.516 -0.1664 -0.5993  0.5770
  985MOL0     C32907   5.757   2.342   5.502  0.9542 -0.3193  0.1785
  985MOL0     H32908   5.408   2.261   5.173 -0.6667 -2.3865  0.3655
  985MOL0     H32909   5.191   2.290   5.085 -2.2155 -2.2379 -0.2950
  985MOL0     H32910   4.831   2.323   5.368 -1.4430 -0.0891  0.0450
  985MOL0     H32911   4.855   2.496   5.355 -1.1405 -0.6104  1.4517
  985MOL0     H32912   4.732   2.494   5.130 -0.3233  2.8282  2.7847
  985MOL0     H32913   4.719   2.335   5.134  0.9799  2.0774 -3.8892
  985MOL0     H32914   4.576   2.372   5.360 -1.0114 -0.2448  0.8289
  985MOL0     H32915   4.583   2.548   5.323 -1.5547  0.4985  0.3866
  985MOL0     H32916   4.464   2.498   5.102 -0.0739  1.7787  1.7620
  985MOL0     H32917   4.464   2.325   5.145 -0.1816  0.1384  1.7280
  985MOL0     H32918   4.330   2.354   5.325 -1.0985  0.3909  1.5338
  985MOL0     H32919   4.325   2.532   5.323 -1.2186 -0.7867  1.1856
  985MOL0     H32920   4.187   2.337   5.122 -1.4317  1.2713 -3.3264
  985MOL0     H32921   4.110   2.424   5.248 -0.5812 -0.5314 -1.2730
  985MOL0     H32922   4.197   2.642   5.148  1.3950  0.4169 -0.8636
  985MOL0     H32923   4.255   2.553   5.007  3.1275  0.4648  2.5092
  985MOL0     H32924   4.021   2.674   4.992 -1.9460 -1.2868 -1.1189
  985MOL0     H32925   3.974   2.579   5.132 -0.9472  1.4146  0.5823
  985MOL0     H32926   3.987   2.283   5.033  0.6072 -0.6109 -0.5370
  985MOL0     H32927   3.805   2.136   4.801  0.2420  2.2176 -1.9549
  985MOL0     H32928   3.778   2.119   4.970  0.3697 -1.0466 -0.4119
  985MOL0     H32929   3.577   2.115   4.818  0.8015 -0.0739 -1.6971
  985MOL0     H32930   3.595   2.289   4.789 -0.2909 -0.5405  0.0699
  985MOL0     H32931   3.597   2.333   5.033  0.3694 -0.2596  1.2503
  985MOL0     H32932   3.560   2.159   5.067 -5.5674  0.1993  1.7897
  985MOL0     H32933   3.379   2.309   4.893 -0.0499 -2.1558 -1.6794
  985MOL0     H32934   3.363   2.265   5.067 -2.4089 -1.9294  0.1056
  985MOL0     H32935   3.198   1.930   4.880  1.7680  0.5814  1.3312
  985MOL0     H32936   2.998   1.784   4.958 -2.1572 -1.8798  1.8008
  985MOL0     H32937   2.834   1.839   4.981 -0.4454  1.1860 -0.0350
  985MOL0     H32938   2.891   1.817   4.815  0.3840 -1.3864  0.7858
  985MOL0     H32939   2.577   1.975   5.104 -0.5451  0.3478 -0.5758
  985MOL0     H32940   2.322   1.978   5.138  2.1686  1.7602  1.8896
  985MOL0     H32941   2.110   1.965   5.119 -2.5531  0.5051  1.0914
  985MOL0     H32942   2.157   2.124   5.163  1.8942 -0.4865 -0.4180
  985MOL0     H32943   1.931   2.202   5.079 -0.0723  0.3718  0.7969
  985MOL0     H32944   1.910   2.047   4.992 -2.9482  0.6262  1.5942
  985MOL0     H32945   1.929   2.069   5.290  2.3546  2.4810 -1.9371
  985MOL0     H32946   1.911   1.920   5.205 -2.4206 -1.1988  0.3959
  985MOL0     H32947   1.721   1.967   5.106  3.2642  0.1441 -1.7339
  985MOL0     H32948   1.694   1.990   5.279  0.0834 -0.3287 -0.7710
  985MOL0     H32949   1.552   2.133   5.185 -0.2943 -0.2335  0.5867
  985MOL0     H32950   1.666   2.225   5.097 -1.1906  2.7385  1.2109
  985MOL0     H32951   1.820   2.267   5.280 -0.3066  1.6041  2.2044
  985MOL0     H32952   1.674   2.362   5.271 -1.4530 -0.5243 -0.3908
  985MOL0     H32953   1.723   2.132   5.457 -2.4677 -1.3338 -1.3650
  985MOL0     H32954   1.559   2.183   5.425 -0.3105 -1.2443  0.8261
  985MOL0     H32955   1.622   2.414   5.500  0.2517 -0.1302 -0.9264
  985MOL0     H32956   1.767   2.368   5.564 -1.1558  1.5172 -0.2950
  985MOL0     H32957   2.278   2.135   4.741  0.8441 -1.4285 -1.8542
  985MOL0     H32958   2.520   2.086   4.697 -0.2485  0.8353  0.3495
  985MOL0     H32959   2.938   2.332   4.960 -1.8250 -0.7975  1.5392
  985MOL0     H32960   3.169   2.327   4.976 -0.9955 -0.1235 -1.4780
  985MOL0     H32961   5.044   2.371   5.493  0.5763 -1.0849  0.3044
  985MOL0     H32962   5.253   2.337   5.574 -0.6490  3.8786  0.4250
  985MOL0     H32963   5.827   2.082   5.290  0.1384 -1.3259  1.6556
  985MOL0     H32964   6.045   2.142   5.344  0.5548 -0.7721  1.1264
  985MOL0     H32965   6.138   2.470   5.651  0.2615 -0.6897  0.7681
  985MOL0     H32966   6.144   2.291   5.674  2.2937 -1.8177 -1.3320
  985MOL0     H32967   6.379   2.463   5.605  0.6286 -0.4894 -2.5422
  985MOL0     H32968   6.370   2.292   5.558 -0.1670 -0.9039  1.3295
  985MOL0     H32969   6.496   2.287   5.774 -0.7532 -0.4996  2.3268
  985MOL0     H32970   6.345   2.236   5.803  0.7233 -1.4374 -1.5214
  985MOL0     H32971   6.463   2.523   5.821  2.2033 -1.2673 -0.3730
  985MOL0     H32972   6.456   2.406   5.951  2.3091 -2.6491 -2.6940
  985MOL0     H32973   6.053   2.554   5.947  0.2167 -0.9935  1.0448
  985MOL0     H32974   5.908   2.478   5.566 -0.6476 -0.0060 -0.2952
  985MOL0     H32975   5.672   2.395   5.544 -1.3117 -2.0309 -1.9756
  986MOL0     O32976   3.459   7.866   4.899 -0.7870 -0.0278  0.1302
  986MOL0     C32977   3.496   7.920   4.999 -0.8910  0.1966  0.1132
  986MOL0     O32978   3.414   7.980   5.085  0.1519 -0.4952 -0.0996
  986MOL0     C32979   3.278   7.984   5.075  0.5831 -0.9195 -0.3772
  986MOL0     C32980   3.228   8.116   5.049  0.1470  0.5413 -0.5645
  986MOL0     C32981   3.090   8.136   5.037 -0.2275 -0.0968 -0.6295
  986MOL0     C32982   2.998   8.027   5.035 -0.2254  0.1860 -0.2018
  986MOL0     O32983   2.865   8.060   5.010 -0.3318  0.6629  0.7125
  986MOL0     C32984   2.774   7.953   4.994 -0.4876 -0.0346 -0.4382
  986MOL0     C32985   2.639   8.028   4.981 -0.8427  0.6136 -1.0620
  986MOL0     C32986   2.529   7.938   4.910  0.1294  0.5803 -0.6991
  986MOL0     C32987   2.403   8.022   4.905  1.0476  0.3963  0.5884
  986MOL0     C32988   2.296   7.944   4.824  0.0140 -0.0958  0.4637
  986MOL0     C32989   2.159   8.014   4.800 -0.4292 -0.2034 -0.2260
  986MOL0     C32990   2.071   7.937   4.703  0.7651  0.1171  0.3012
  986MOL0     C32991   1.936   8.009   4.689  0.2497  0.9218  0.0161
  986MOL0     N32992   1.842   7.946   4.602  0.3382 -0.2179  0.3165
  986MOL0     C32993   1.699   7.959   4.618  0.1614  0.5450  0.0693
  986MOL0     C32994   1.638   7.912   4.506 -0.5333 -0.3971 -0.3668
  986MOL0     C32995   1.499   7.904   4.451  0.2853  1.0307  0.2849
  986MOL0     C32996   1.432   8.044   4.446 -0.1637  1.6259 -0.3071
  986MOL0     C32997   1.280   8.029   4.439 -0.0468  0.2879  0.1604
  986MOL0     C32998   1.213   8.168   4.450 -1.0632 -0.9501  0.3628
  986MOL0     O32999   1.064   8.180   4.449 -0.3103  0.3487  0.0552
  986MOL0     C33000   0.991   8.135   4.556  0.0624 -0.0693  0.3087
  986MOL0     C33001   1.049   8.109   4.681  0.0201 -0.5691 -0.4843
  986MOL0     C33002   0.979   8.066   4.789  0.4625  0.3651  0.0191
  986MOL0     C33003   1.059   8.044   4.920  0.3158 -0.2167  0.0067
  986MOL0     C33004   0.839   8.035   4.774  0.8196  0.0487  0.1394
  986MOL0     C33005   0.748   7.990   4.881 -0.3614 -0.4381  0.5078
  986MOL0     O33006   0.800   7.962   5.002  0.0327  0.3805 -0.0801
  986MOL0     C33007   0.714   7.964   5.113 -0.2709 -0.7188  0.4508
  986MOL0     C33008   0.680   8.088   5.164  0.7266  1.2749  0.6865
  986MOL0     C33009   0.589   8.103   5.267 -0.2393 -1.1712 -0.2204
  986MOL0     C33010   0.521   7.994   5.313 -0.4048  0.0679 -0.6033
  986MOL0     O33011   0.429   7.998   5.416 -0.1514  0.3807 -0.1754
  986MOL0     C33012   0.374   8.131   5.453  0.2982 -0.9561  0.8822
  986MOL0     C33013   0.275   8.111   5.562 -0.2572  0.6183  0.0992
  986MOL0     C33014   0.225   8.244   5.609  0.0683 -0.2370 -0.0319
  986MOL0     C33015   0.100   8.224   5.688  0.8770 -0.5936 -0.0411
  986MOL0     C33016   0.040   8.362   5.733 -0.6460  0.4850 -0.2364
  986MOL0     C33017  -0.090   8.344   5.816 -0.6976 -0.4627 -0.6429
  986MOL0     C33018  -0.215   8.294   5.740  0.0615  0.1855 -0.3376
  986MOL0     C33019  -0.262   8.163   5.804 -0.2414 -0.1416  0.3506
  986MOL0    Cl33020  -0.402   8.106   5.715  0.0127  0.1160  0.7192
  986MOL0     C33021   0.561   7.864   5.257  0.1410 -0.4048 -0.1673
  986MOL0     C33022   0.662   7.851   5.169 -0.3800 -0.3934  0.4565
  986MOL0     O33023   0.633   7.970   4.861  0.6448  0.5240  0.4754
  986MOL0     C33024   0.782   8.043   4.642 -0.3789  0.9781  0.1425
  986MOL0     C33025   0.858   8.091   4.539  0.4314 -0.4426  0.3334
  986MOL0     N33026   1.741   7.883   4.416  0.5435 -0.7164 -0.4292
  986MOL0     N33027   1.858   7.899   4.473 -0.2265 -0.1501  0.4111
  986MOL0     C33028   3.047   7.895   5.064 -0.2198 -0.4307 -0.7561
  986MOL0     C33029   3.189   7.879   5.086 -0.0911 -0.0031  0.2251
  986MOL0     C33030   3.632   7.915   5.042 -0.8271 -0.3335 -0.4470
  986MOL0     C33031   3.693   8.022   5.108 -0.1364 -1.0919 -0.2827
  986MOL0     C33032   3.832   8.012   5.154 -0.6082  0.1783  0.0769
  986MOL0     C33033   3.909   7.900   5.108  0.0175 -0.7260 -0.2593
  986MOL0     O33034   4.046   7.884   5.125  0.1790 -0.8520  0.3624
  986MOL0     C33035   4.122   7.953   5.220  0.2367 -0.2454 -0.0300
  986MOL0     C33036   4.185   8.087   5.160 -0.4192 -0.1682  0.0710
  986MOL0     C33037   4.311   8.082   5.073 -0.1014 -0.2821 -0.2592
  986MOL0     C33038   4.303   7.989   4.954 -0.2571  0.4194 -0.0276
  986MOL0     C33039   4.442   7.974   4.906  0.0603  0.4837  0.5516
  986MOL0     C33040   4.553   7.967   4.860 -0.1783  0.2248 -0.6022
  986MOL0     C33041   3.847   7.804   5.043  0.0356  0.2719 -0.4829
  986MOL0     C33042   3.710   7.805   5.012  0.1834 -0.5650  0.3759
  986MOL0     H33043   3.313   8.180   5.026  0.5779 -0.2922 -1.3697
  986MOL0     H33044   3.054   8.235   5.009  1.3938  0.4568 -0.8199
  986MOL0     H33045   2.804   7.889   4.910 -0.3166 -1.0787  0.3955
  986MOL0     H33046   2.759   7.891   5.083  0.7587 -1.1539 -0.9787
  986MOL0     H33047   2.613   8.050   5.085 -0.0559  0.2160 -0.7788
  986MOL0     H33048   2.661   8.119   4.924  0.1400  1.3286  0.4078
  986MOL0     H33049   2.557   7.891   4.815  1.5834  0.3036 -0.1503
  986MOL0     H33050   2.497   7.853   4.970 -0.2747  0.0839 -1.5919
  986MOL0     H33051   2.377   8.037   5.011  1.7969  0.8416  0.7119
  986MOL0     H33052   2.408   8.123   4.865  1.2664  0.8246  1.6640
  986MOL0     H33053   2.330   7.919   4.723  2.6256  1.8965  0.7269
  986MOL0     H33054   2.276   7.850   4.877 -1.0801 -1.2579 -1.8562
  986MOL0     H33055   2.109   8.039   4.894  1.1926  1.2595  0.2918
  986MOL0     H33056   2.177   8.110   4.752 -1.0834 -1.1735 -2.5734
  986MOL0     H33057   2.114   7.919   4.604 -0.7254  1.8736 -0.7259
  986MOL0     H33058   2.045   7.837   4.741  0.4062 -0.7839 -2.1752
  986MOL0     H33059   1.946   8.114   4.659 -0.4903  1.0253  0.0927
  986MOL0     H33060   1.883   8.022   4.784 -1.6640  2.5949 -1.2033
  986MOL0     H33061   1.647   8.003   4.702  2.9847  1.6697  1.3825
  986MOL0     H33062   1.506   7.850   4.356 -0.8234 -2.5010  2.0254
  986MOL0     H33063   1.447   7.839   4.522 -0.3937  1.9722  0.6704
  986MOL0     H33064   1.469   8.110   4.367  0.4420  3.5674  1.4804
  986MOL0     H33065   1.440   8.094   4.544 -2.0665  2.0642 -0.3298
  986MOL0     H33066   1.247   7.963   4.519 -0.0575 -0.0198 -0.0955
  986MOL0     H33067   1.259   7.971   4.348 -0.1623 -1.0499  1.0038
  986MOL0     H33068   1.253   8.216   4.360  1.0118 -0.4503  1.5009
  986MOL0     H33069   1.261   8.232   4.524  0.2962  0.7784 -1.9014
  986MOL0     H33070   1.153   8.134   4.698 -0.0481 -0.2327 -0.5674
  986MOL0     H33071   1.160   8.087   4.918  0.9016 -1.3503  1.7211
  986MOL0     H33072   1.004   8.099   4.996 -0.3303 -1.0057  0.1221
  986MOL0     H33073   1.083   7.941   4.949  1.6469 -1.5815 -5.0197
  986MOL0     H33074   0.729   8.174   5.120 -0.4803  0.7016 -1.9130
  986MOL0     H33075   0.579   8.204   5.305  3.7988 -0.7134  0.0660
  986MOL0     H33076   0.453   8.197   5.491 -0.3395 -0.5340  1.5083
  986MOL0     H33077   0.316   8.168   5.368  0.0347 -3.2206  0.0163
  986MOL0     H33078   0.192   8.050   5.522 -0.7475  1.8150 -0.7561
  986MOL0     H33079   0.328   8.054   5.639  1.6227  1.8946 -0.1929
  986MOL0     H33080   0.202   8.312   5.526  2.2313 -0.3553 -0.7825
  986MOL0     H33081   0.295   8.302   5.670 -1.9301  2.5513 -0.1794
  986MOL0     H33082   0.023   8.175   5.627  0.9566 -0.2351 -0.4307
  986MOL0     H33083   0.125   8.182   5.786  1.4537 -1.3490 -0.5056
  986MOL0     H33084   0.020   8.422   5.644  0.2582 -1.7394 -2.0352
  986MOL0     H33085   0.114   8.412   5.797 -1.5937  0.0293  1.2838
  986MOL0     H33086  -0.058   8.291   5.905  1.9124 -1.1005 -1.8512
  986MOL0     H33087  -0.117   8.445   5.849 -2.2181 -0.4981 -1.6690
  986MOL0     H33088  -0.201   8.292   5.631 -1.5766 -0.9991 -0.5700
  986MOL0     H33089  -0.297   8.365   5.752 -2.3225 -2.3327 -0.7634
  986MOL0     H33090  -0.295   8.180   5.907 -0.9350  1.0609 -0.0428
  986MOL0     H33091  -0.192   8.079   5.806 -1.6832 -1.3940  2.4920
  986MOL0     H33092   0.516   7.771   5.291 -1.2501 -0.1820 -1.2817
  986MOL0     H33093   0.683   7.753   5.125  0.8137 -1.1805  2.6547
  986MOL0     H33094   0.682   8.006   4.622  0.3653 -0.2806 -1.5337
  986MOL0     H33095   0.840   8.110   4.434  4.0713  0.0615 -0.3303
  986MOL0     H33096   2.978   7.814   5.087 -0.1304 -0.2675  0.1192
  986MOL0     H33097   3.211   7.777   5.117 -2.0038 -1.0062 -1.4771
  986MOL0     H33098   3.640   8.108   5.149 -0.6736 -2.3452  1.8157
  986MOL0     H33099   3.871   8.092   5.216  1.6898 -1.4494  0.8921
  986MOL0     H33100   4.058   7.982   5.304 -0.2740 -2.2705  0.3296
  986MOL0     H33101   4.195   7.878   5.251 -0.6708 -0.2358  2.3534
  986MOL0     H33102   4.216   8.153   5.242  0.5433  1.6563 -1.6813
  986MOL0     H33103   4.102   8.129   5.104  0.6193 -0.0719 -1.4488
  986MOL0     H33104   4.388   8.061   5.147 -2.5409  0.9651  2.8686
  986MOL0     H33105   4.324   8.184   5.038 -1.6341 -0.6234 -2.0006
  986MOL0     H33106   4.248   8.035   4.872 -2.6052 -0.1029  1.1625
  986MOL0     H33107   4.262   7.893   4.986  0.6550  0.1351  0.3496
  986MOL0     H33108   4.657   7.973   4.835  0.4888 -0.6871  1.6788
  986MOL0     H33109   3.904   7.715   5.019  1.3353  0.4805  1.6233
  986MOL0     H33110   3.667   7.712   4.977 -0.5797  0.4626 -1.5290
  987MOL0     O33111   8.594  10.497   0.501 -0.0636 -0.0530  0.8364
  987MOL0     C33112   8.682  10.563   0.452 -0.1990 -0.3948 -0.0130
  987MOL0     O33113   8.677  10.705   0.454 -0.1542 -0.0060 -0.2628
  987MOL0     C33114   8.572  10.791   0.475 -0.4220  0.3103 -0.4355
  987MOL0     C33115   8.600  10.917   0.529 -0.3259  0.0252 -0.0655
  987MOL0     C33116   8.504  11.007   0.561 -0.2684  0.6015 -0.0628
  987MOL0     C33117   8.371  10.969   0.553  0.6385  0.0725  0.7754
  987MOL0     O33118   8.275  11.060   0.585  0.2674  0.2288  0.2853
  987MOL0     C33119   8.281  11.189   0.515  0.5054 -0.0072  0.0541
  987MOL0     C33120   8.146  11.249   0.488  0.7507 -0.9353 -0.5072
  987MOL0     C33121   8.070  11.278   0.619  0.3052 -0.5290  0.2691
  987MOL0     C33122   7.936  11.353   0.614 -0.2164 -0.3513 -0.2481
  987MOL0     C33123   7.949  11.510   0.588  0.2053 -0.8037 -0.8266
  987MOL0     C33124   8.001  11.593   0.702 -0.2626  0.5747 -0.2282
  987MOL0     C33125   8.026  11.735   0.655  0.1497 -0.7556 -0.6232
  987MOL0     C33126   7.904  11.821   0.614 -0.6299  0.0558  0.1427
  987MOL0     N33127   7.787  11.823   0.704 -0.0171  0.5078 -0.0793
  987MOL0     C33128   7.768  11.931   0.788 -0.3022 -0.4210  0.4515
  987MOL0     C33129   7.659  11.901   0.854 -0.3890 -0.3835  0.1759
  987MOL0     C33130   7.595  11.986   0.956 -0.4051 -0.4771 -0.6462
  987MOL0     C33131   7.448  12.007   0.959 -0.3752 -0.4188  1.3599
  987MOL0     C33132   7.403  12.116   1.050 -0.3035 -0.0719  0.0853
  987MOL0     C33133   7.258  12.118   1.077 -0.1625  0.3374 -0.1682
  987MOL0     O33134   7.198  12.167   0.958 -0.2372 -0.9417 -0.1091
  987MOL0     C33135   7.064  12.180   0.965 -0.7485 -0.0792  0.5847
  987MOL0     C33136   6.997  12.130   0.859 -0.6511  0.1512  0.4791
  987MOL0     C33137   6.855  12.136   0.849  0.0079  0.4429  0.2413
  987MOL0     C33138   6.796  12.059   0.736  0.4956  0.2012  0.2698
  987MOL0     C33139   6.788  12.211   0.951 -0.2635  0.0301 -0.3713
  987MOL0     C33140   6.630  12.221   0.960 -0.3908  0.3505  0.1700
  987MOL0     O33141   6.555  12.207   0.848  0.2542 -0.5475  0.6241
  987MOL0     C33142   6.420  12.192   0.858 -0.2723  0.4022 -0.1639
  987MOL0     C33143   6.336  12.282   0.926 -0.2263  0.0876  0.0182
  987MOL0     C33144   6.195  12.268   0.935  0.7572  0.1388  0.0626
  987MOL0     C33145   6.135  12.150   0.881  0.0185  0.1521 -1.2281
  987MOL0     O33146   5.997  12.136   0.904  0.4138  0.2594 -0.5587
  987MOL0     C33147   5.949  12.025   0.979  0.1100  0.1773  0.6197
  987MOL0     C33148   6.027  11.996   1.104  0.8006  0.5862  0.1384
  987MOL0     C33149   5.963  11.879   1.178 -1.1089 -0.5098  0.0673
  987MOL0     C33150   6.032  11.745   1.106  0.5174 -1.1508 -1.4561
  987MOL0     C33151   5.961  11.623   1.157  0.8236  0.2466 -0.0947
  987MOL0     C33152   6.010  11.492   1.084  0.0769 -0.1591 -0.4289
  987MOL0     C33153   5.904  11.381   1.106  0.1480 -0.3765  0.6005
  987MOL0     C33154   5.971  11.244   1.117  0.0141  0.2857 -0.4231
  987MOL0    Cl33155   5.846  11.115   1.155  0.1280  0.2640  0.2932
  987MOL0     C33156   6.212  12.055   0.811 -0.0078 -1.1023  0.5813
  987MOL0     C33157   6.356  12.077   0.805  0.0274  0.1692  0.7339
  987MOL0     O33158   6.585  12.251   1.074 -0.1511 -0.3097 -0.2488
  987MOL0     C33159   6.860  12.258   1.066 -0.0118 -0.8545  0.0281
  987MOL0     C33160   6.991  12.236   1.071  0.1154  0.5659 -0.4102
  987MOL0     N33161   7.613  11.778   0.813 -0.5021 -0.5263 -0.8488
  987MOL0     N33162   7.679  11.747   0.712  0.4837  0.7144  0.2031
  987MOL0     C33163   8.333  10.848   0.503  0.0098  1.4926  0.7049
  987MOL0     C33164   8.434  10.756   0.463  0.0478 -0.2652 -0.5081
  987MOL0     C33165   8.799  10.508   0.396 -1.0591 -0.1304 -0.3163
  987MOL0     C33166   8.917  10.580   0.400  0.0147 -0.2888 -0.1424
  987MOL0     C33167   9.036  10.525   0.353 -0.5910 -0.9085 -0.4180
  987MOL0     C33168   9.045  10.386   0.326  0.6536  0.0809 -0.1797
  987MOL0     O33169   9.169  10.335   0.288  0.4304 -0.2277  0.5824
  987MOL0     C33170   9.190  10.233   0.187  0.0638  1.1568  0.8855
  987MOL0     C33171   9.173  10.268   0.046 -0.0181 -0.2280 -0.4170
  987MOL0     C33172   9.293  10.339  -0.015  0.1669  0.1377 -0.0344
  987MOL0     C33173   9.239  10.445  -0.124 -0.1399  0.2753 -0.1927
  987MOL0     C33174   9.220  10.379  -0.254  0.9535  0.8155  0.7385
  987MOL0     C33175   9.176  10.340  -0.365  0.8523 -0.2026  0.1607
  987MOL0     C33176   8.926  10.314   0.314 -0.7772 -0.1180 -0.8873
  987MOL0     C33177   8.805  10.378   0.340 -0.3126  0.3199 -0.5776
  987MOL0     H33178   8.704  10.948   0.540 -0.3916  1.7439 -3.2021
  987MOL0     H33179   8.541  11.103   0.595  2.5904  0.2584 -1.8349
  987MOL0     H33180   8.325  11.267   0.578  1.4208 -0.9944  0.6733
  987MOL0     H33181   8.335  11.175   0.421 -1.0510  0.0009 -0.8803
  987MOL0     H33182   8.161  11.344   0.437  1.0605 -2.3410 -3.1737
  987MOL0     H33183   8.083  11.185   0.426 -0.8661  0.4847 -0.4308
  987MOL0     H33184   8.041  11.180   0.659 -2.9234  0.3294  0.3022
  987MOL0     H33185   8.137  11.318   0.696 -0.6429  0.0821  0.8005
  987MOL0     H33186   7.877  11.306   0.536 -1.7178  1.8151 -0.5008
  987MOL0     H33187   7.878  11.326   0.702  2.3017 -1.7513  1.1206
  987MOL0     H33188   8.003  11.523   0.494  1.4524 -1.5813 -0.2462
  987MOL0     H33189   7.853  11.560   0.572  1.8123  2.5443 -1.0295
  987MOL0     H33190   7.926  11.594   0.782  0.1704  2.9692  0.2227
  987MOL0     H33191   8.091  11.547   0.744  2.2474  2.2108 -3.3448
  987MOL0     H33192   8.060  11.785   0.746  0.4373  0.8099 -1.5501
  987MOL0     H33193   8.107  11.750   0.582  0.6649 -0.0602  0.0779
  987MOL0     H33194   7.877  11.778   0.517  0.2856 -0.7946  0.2417
  987MOL0     H33195   7.943  11.922   0.595 -1.3643  0.8363  2.5356
  987MOL0     H33196   7.832  12.018   0.790  0.7398 -1.0754 -1.7915
  987MOL0     H33197   7.622  11.946   1.054  1.6859  0.1315 -0.9298
  987MOL0     H33198   7.647  12.080   0.934 -2.8843  0.6292 -2.2673
  987MOL0     H33199   7.407  11.909   0.986 -1.2014 -0.3563  0.4092
  987MOL0     H33200   7.418  12.034   0.857  0.6725  0.2828  1.2295
  987MOL0     H33201   7.437  12.208   1.001  0.2941 -1.3385 -2.0108
  987MOL0     H33202   7.456  12.107   1.145 -1.3725 -4.9147  0.4347
  987MOL0     H33203   7.232  12.185   1.159  0.1212 -2.8610  2.7620
  987MOL0     H33204   7.219  12.020   1.107 -2.1753  0.5479 -1.7951
  987MOL0     H33205   7.052  12.087   0.776 -1.0853  0.2171  0.1500
  987MOL0     H33206   6.849  11.965   0.720 -0.8298 -1.1409  3.1389
  987MOL0     H33207   6.695  12.026   0.762  0.4827  0.7429  0.9423
  987MOL0     H33208   6.775  12.121   0.648  0.7577 -1.9056 -1.3398
  987MOL0     H33209   6.387  12.365   0.974 -0.8159 -0.2488  1.2701
  987MOL0     H33210   6.128  12.342   0.977 -0.4745  0.8430 -2.9066
  987MOL0     H33211   5.852  12.062   1.011  0.0696  2.3605 -1.7190
  987MOL0     H33212   5.946  11.938   0.913 -0.1837  1.6621 -1.4232
  987MOL0     H33213   6.128  11.974   1.071  0.2849 -1.4875 -0.2458
  987MOL0     H33214   6.025  12.081   1.173 -0.9997  0.1453  0.7083
  987MOL0     H33215   5.854  11.889   1.173 -1.0772  1.7465  2.1217
  987MOL0     H33216   5.994  11.869   1.283 -1.9067 -2.1937  0.1783
  987MOL0     H33217   6.017  11.767   1.000 -1.5532  1.5655 -0.7171
  987MOL0     H33218   6.140  11.733   1.117  0.9827  3.1547  1.7968
  987MOL0     H33219   5.853  11.632   1.146  0.5398  2.5928  3.1353
  987MOL0     H33220   5.959  11.619   1.267 -0.0618 -0.7568 -0.1274
  987MOL0     H33221   6.014  11.499   0.975  0.6819 -0.8008 -0.4564
  987MOL0     H33222   6.102  11.459   1.135 -0.9159 -0.0734  1.4983
  987MOL0     H33223   5.819  11.382   1.037  0.6859 -2.0450 -0.1434
  987MOL0     H33224   5.865  11.400   1.206  0.1437 -1.4276  0.8145
  987MOL0     H33225   6.048  11.242   1.195 -0.5763 -4.2356  0.2886
  987MOL0     H33226   6.021  11.232   1.020  1.6237  2.0494  0.1102
  987MOL0     H33227   6.166  11.965   0.772 -0.5991 -1.8753  2.9264
  987MOL0     H33228   6.424  12.004   0.762 -0.3690 -1.5454  2.8479
  987MOL0     H33229   6.815  12.315   1.147  0.4564  0.1595 -0.4252
  987MOL0     H33230   7.047  12.278   1.154  0.2184  0.0846 -0.2358
  987MOL0     H33231   8.228  10.824   0.515  1.1697 -3.7564  3.1722
  987MOL0     H33232   8.404  10.662   0.417  1.4312 -1.3418  0.6964
  987MOL0     H33233   8.913  10.684   0.429 -3.0552 -0.9882  2.4945
  987MOL0     H33234   9.125  10.587   0.349 -0.0751 -1.6033 -0.0546
  987MOL0     H33235   9.288  10.183   0.194 -0.7403 -0.5499  0.5392
  987MOL0     H33236   9.116  10.153   0.195  0.8468  0.0215 -1.9380
  987MOL0     H33237   9.082  10.329   0.039  0.8255  1.1257  0.0230
  987MOL0     H33238   9.158  10.184  -0.023  3.0518 -0.8828 -0.4354
  987MOL0     H33239   9.361  10.266  -0.059 -1.3131 -1.1683 -0.2490
  987MOL0     H33240   9.343  10.391   0.068 -0.6156 -1.3863  1.4463
  987MOL0     H33241   9.310  10.526  -0.144  0.5647 -0.0959  0.7809
  987MOL0     H33242   9.148  10.499  -0.094  0.0116 -0.4624  1.6869
  987MOL0     H33243   9.119  10.297  -0.446 -3.3727 -0.0731  2.7538
  987MOL0     H33244   8.923  10.208   0.291 -0.4746 -0.2846 -0.2046
  987MOL0     H33245   8.716  10.319   0.322  1.0228 -2.4461  1.2665
  988MOL0     O33246  10.630   4.366   4.628 -0.0640 -0.8737 -0.1958
  988MOL0     C33247  10.691   4.456   4.566  0.4764  0.9867  0.5947
  988MOL0     O33248  10.625   4.559   4.499  0.4433  1.1620 -0.0560
  988MOL0     C33249  10.495   4.576   4.467 -0.7227  0.9420  0.2757
  988MOL0     C33250  10.465   4.710   4.431 -0.1267  0.0392  0.3483
  988MOL0     C33251  10.335   4.759   4.423 -0.4350 -0.0979  0.3559
  988MOL0     C33252  10.231   4.668   4.424  0.2714 -0.2395 -0.0362
  988MOL0     O33253  10.104   4.723   4.418  0.0484 -0.0617  0.2533
  988MOL0     C33254   9.991   4.640   4.435  0.9503  0.6057 -0.1123
  988MOL0     C33255   9.885   4.745   4.469  0.4716  0.2481  0.2250
  988MOL0     C33256   9.750   4.667   4.500 -0.4890  0.6077  0.0292
  988MOL0     C33257   9.646   4.771   4.509  0.8165  0.6992  0.8867
  988MOL0     C33258   9.502   4.708   4.526 -0.4109  0.0749 -0.1082
  988MOL0     C33259   9.405   4.804   4.595 -0.1634 -0.4948  0.0508
  988MOL0     C33260   9.265   4.754   4.593 -0.3958  0.4306  0.2813
  988MOL0     C33261   9.223   4.656   4.707  0.1828 -0.2119 -0.1384
  988MOL0     N33262   9.084   4.603   4.697  0.4337 -0.2948  0.3336
  988MOL0     C33263   9.056   4.492   4.630 -0.6940 -0.1309 -0.0213
  988MOL0     C33264   8.931   4.458   4.664 -0.7753 -0.1829 -0.1558
  988MOL0     C33265   8.851   4.344   4.607  0.4549 -0.0835 -0.2350
  988MOL0     C33266   8.735   4.391   4.528  0.0838 -0.0765  0.0593
  988MOL0     C33267   8.629   4.281   4.499 -0.1055  0.4078 -0.0438
  988MOL0     C33268   8.491   4.339   4.465  0.5449 -0.0792  0.1638
  988MOL0     O33269   8.401   4.230   4.451 -0.6236  0.5683 -0.0828
  988MOL0     C33270   8.271   4.261   4.457  0.5400  1.3503 -0.0569
  988MOL0     C33271   8.211   4.385   4.422 -0.5490 -0.4040  0.0030
  988MOL0     C33272   8.075   4.412   4.443 -0.0407  0.0572  0.3279
  988MOL0     C33273   8.025   4.541   4.392 -0.2162  0.0250  0.7284
  988MOL0     C33274   7.986   4.316   4.488 -0.4711  0.6303 -0.1576
  988MOL0     C33275   7.844   4.339   4.505 -0.0972 -0.7157 -0.0119
  988MOL0     O33276   7.762   4.278   4.414 -0.6232 -0.6693 -0.3921
  988MOL0     C33277   7.630   4.276   4.439 -0.3259  0.0377  0.1418
  988MOL0     C33278   7.593   4.192   4.547 -0.0712 -0.2744 -1.0763
  988MOL0     C33279   7.457   4.183   4.577  0.5900  0.5631 -0.1523
  988MOL0     C33280   7.363   4.249   4.489  0.0499  0.5588 -0.3144
  988MOL0     O33281   7.236   4.211   4.521  0.4604 -0.1921  0.4654
  988MOL0     C33282   7.127   4.308   4.529 -0.6260 -0.1125 -0.7861
  988MOL0     C33283   7.059   4.301   4.392 -0.3509 -0.5140 -1.3421
  988MOL0     C33284   6.959   4.191   4.385 -0.4981  0.6013 -0.3323
  988MOL0     C33285   6.884   4.186   4.249  0.2545  0.2286 -0.2913
  988MOL0     C33286   6.779   4.070   4.242 -1.1514  0.1297 -0.4277
  988MOL0     C33287   6.698   4.073   4.112 -0.1657 -0.0978  0.8860
  988MOL0     C33288   6.622   3.941   4.080  0.0142  1.1713 -0.5731
  988MOL0     C33289   6.475   3.937   4.133 -0.2256  0.1711  0.3637
  988MOL0    Cl33290   6.384   4.069   4.055 -0.1427  0.2477  0.3716
  988MOL0     C33291   7.408   4.329   4.389 -0.1903 -0.5414  0.1212
  988MOL0     C33292   7.546   4.342   4.354 -0.4739 -0.2680  0.2723
  988MOL0     O33293   7.811   4.408   4.602  0.2593  0.3187 -0.6711
  988MOL0     C33294   8.043   4.193   4.521 -0.4848 -0.6801 -0.2052
  988MOL0     C33295   8.180   4.168   4.495 -0.6420 -0.6378  0.0524
  988MOL0     N33296   8.889   4.545   4.762 -0.9000 -0.5880  0.2269
  988MOL0     N33297   8.979   4.640   4.777 -0.0247 -1.0786  0.0227
  988MOL0     C33298  10.260   4.527   4.440 -0.3820 -0.8552  0.0794
  988MOL0     C33299  10.388   4.484   4.464  0.1756  0.8633 -0.6215
  988MOL0     C33300  10.834   4.451   4.574 -0.5557  0.6936 -0.1980
  988MOL0     C33301  10.899   4.348   4.655  0.3431 -0.1677  0.6823
  988MOL0     C33302  11.042   4.350   4.665  0.4366 -0.2937 -0.3312
  988MOL0     C33303  11.123   4.441   4.593  0.4988  0.7064  0.4459
  988MOL0     O33304  11.259   4.433   4.596 -0.0048 -0.0499 -0.1137
  988MOL0     C33305  11.334   4.344   4.683  0.3783  0.0485  0.6124
  988MOL0     C33306  11.487   4.359   4.654 -0.3721  0.4372  0.5177
  988MOL0     C33307  11.524   4.267   4.537  0.0258  0.0673  0.3570
  988MOL0     C33308  11.679   4.265   4.517  0.5801 -0.4168  0.6229
  988MOL0     C33309  11.749   4.394   4.529 -0.4933  0.6001  0.3612
  988MOL0     C33310  11.807   4.495   4.557 -0.0528 -0.1263 -0.3177
  988MOL0     C33311  11.056   4.525   4.499 -0.5090 -0.0864 -1.1307
  988MOL0     C33312  10.919   4.529   4.484  0.7840  0.3325  0.4637
  988MOL0     H33313  10.542   4.786   4.431 -1.4886  1.4724 -0.1217
  988MOL0     H33314  10.325   4.866   4.407 -1.7056 -0.3782 -0.8401
  988MOL0     H33315   9.970   4.588   4.341 -1.7084  0.3393  0.5437
  988MOL0     H33316   9.996   4.568   4.518 -1.0202 -1.0186 -1.3063
  988MOL0     H33317   9.912   4.809   4.554  2.1326  3.3568 -2.4117
  988MOL0     H33318   9.875   4.801   4.375  0.0941  1.0025  0.7009
  988MOL0     H33319   9.736   4.593   4.420  2.1567  0.7263 -0.6439
  988MOL0     H33320   9.746   4.610   4.593  0.3832  0.9092  0.2603
  988MOL0     H33321   9.666   4.844   4.588  1.4682  0.2349  1.1558
  988MOL0     H33322   9.644   4.823   4.413  2.3349 -1.2690 -0.2741
  988MOL0     H33323   9.462   4.671   4.431  2.2719 -0.9586 -0.9592
  988MOL0     H33324   9.509   4.620   4.591 -0.8430 -0.2347 -0.4812
  988MOL0     H33325   9.438   4.837   4.694 -0.8314 -1.5997  0.6598
  988MOL0     H33326   9.414   4.898   4.540 -1.7748 -0.8187 -0.8322
  988MOL0     H33327   9.199   4.839   4.613  2.1727  2.8873 -0.9774
  988MOL0     H33328   9.234   4.710   4.498 -1.6335 -0.8149  1.2144
  988MOL0     H33329   9.235   4.705   4.804  1.0471 -0.7788  0.0527
  988MOL0     H33330   9.283   4.565   4.693 -0.1156 -0.1638 -2.0222
  988MOL0     H33331   9.108   4.439   4.550  0.6707 -0.9088  1.3266
  988MOL0     H33332   8.916   4.288   4.540 -0.1185 -0.0253 -0.8555
  988MOL0     H33333   8.826   4.280   4.692 -0.5222  0.6048  0.0203
  988MOL0     H33334   8.767   4.430   4.431 -3.5307  1.0620 -0.8236
  988MOL0     H33335   8.689   4.477   4.578  1.7201 -0.3416  2.1676
  988MOL0     H33336   8.624   4.212   4.584  0.2213  0.5591  0.1003
  988MOL0     H33337   8.662   4.224   4.411 -2.7630  1.6931 -2.0222
  988MOL0     H33338   8.497   4.390   4.368 -2.2922 -0.2545 -0.1921
  988MOL0     H33339   8.456   4.407   4.543  0.3696  0.5121 -0.4145
  988MOL0     H33340   8.278   4.455   4.373 -1.2328  1.0592  1.0671
  988MOL0     H33341   8.088   4.594   4.321 -0.3376 -0.2142  0.4403
  988MOL0     H33342   7.933   4.526   4.334  1.6737 -0.2515 -2.4397
  988MOL0     H33343   8.000   4.609   4.474  0.5023  0.2045  0.8061
  988MOL0     H33344   7.666   4.166   4.622 -3.2130 -0.2904  2.2050
  988MOL0     H33345   7.425   4.128   4.665  0.3102  1.6018  0.4144
  988MOL0     H33346   7.056   4.305   4.613 -1.2841 -0.8253 -1.3605
  988MOL0     H33347   7.172   4.407   4.517  2.6527 -1.4710 -0.7218
  988MOL0     H33348   7.006   4.396   4.382 -1.0532 -0.8235 -0.6855
  988MOL0     H33349   7.128   4.292   4.308  0.1048  0.0485 -1.0326
  988MOL0     H33350   6.890   4.205   4.469  0.9551  0.7564  0.8820
  988MOL0     H33351   7.019   4.101   4.401  0.9242  1.7787  1.4228
  988MOL0     H33352   6.835   4.279   4.218 -0.4359  0.5832  1.7240
  988MOL0     H33353   6.957   4.168   4.169 -0.8291  1.0494 -1.5052
  988MOL0     H33354   6.714   4.087   4.328 -2.8042 -0.0790 -1.5918
  988MOL0     H33355   6.835   3.978   4.259 -1.4310 -0.3599 -1.9626
  988MOL0     H33356   6.632   4.160   4.118 -1.8007 -1.1822 -0.4546
  988MOL0     H33357   6.771   4.081   4.031 -1.4237  0.5468 -0.2004
  988MOL0     H33358   6.677   3.856   4.123  3.2165  2.2446 -2.1638
  988MOL0     H33359   6.631   3.930   3.971 -1.5609 -0.5327 -0.5719
  988MOL0     H33360   6.475   3.952   4.241  0.4347  1.6664  0.1868
  988MOL0     H33361   6.425   3.843   4.109  0.5147 -0.2532  0.4413
  988MOL0     H33362   7.334   4.385   4.333  0.5303 -0.9035 -1.2502
  988MOL0     H33363   7.576   4.411   4.276 -1.0386 -0.6083 -0.2638
  988MOL0     H33364   7.981   4.109   4.548 -2.4746  0.5012 -0.8785
  988MOL0     H33365   8.215   4.066   4.507 -0.3925 -1.4070 -5.1356
  988MOL0     H33366  10.185   4.450   4.422  0.4546 -1.7470  0.2974
  988MOL0     H33367  10.399   4.379   4.489 -1.0243  0.6984 -0.7250
  988MOL0     H33368  10.842   4.278   4.716 -0.3061 -0.6444 -0.4523
  988MOL0     H33369  11.093   4.283   4.733 -0.5495 -1.4062 -0.6441
  988MOL0     H33370  11.309   4.360   4.788 -1.1614 -0.3624  0.3434
  988MOL0     H33371  11.295   4.242   4.678 -2.3599  0.7721  3.5504
  988MOL0     H33372  11.538   4.317   4.741  1.3906  0.4950 -0.4421
  988MOL0     H33373  11.519   4.464   4.648 -1.0560  0.6750  0.9107
  988MOL0     H33374  11.473   4.295   4.444  0.7572 -1.8614 -0.6705
  988MOL0     H33375  11.497   4.164   4.558  1.6206 -0.8249 -1.5883
  988MOL0     H33376  11.700   4.224   4.418 -2.6996  0.8999 -0.7650
  988MOL0     H33377  11.713   4.200   4.598 -2.3059 -0.3243  2.0327
  988MOL0     H33378  11.874   4.577   4.575  0.6695  0.0016 -3.1111
  988MOL0     H33379  11.100   4.596   4.430 -0.3127  0.7050 -0.2175
  988MOL0     H33380  10.864   4.604   4.428 -0.9041 -0.7621  0.5804
  989MOL0     O33381   1.028   4.804   9.942  0.3309  0.6536  0.1861
  989MOL0     C33382   0.957   4.901   9.904  0.5815  0.7461 -1.0722
  989MOL0     O33383   1.005   5.020   9.854  0.1155  0.0642  0.0915
  989MOL0     C33384   1.131   5.037   9.803  0.2458  0.5864  0.8034
  989MOL0     C33385   1.237   4.941   9.782  0.1654  0.4562  0.1143
  989MOL0     C33386   1.356   4.992   9.736 -0.8191  0.3757  0.0453
  989MOL0     C33387   1.384   5.129   9.727  0.3438  0.0717  0.5347
  989MOL0     O33388   1.502   5.186   9.686 -0.1611 -0.2466 -0.2636
  989MOL0     C33389   1.619   5.102   9.664  0.8853 -0.6414  0.2222
  989MOL0     C33390   1.727   5.180   9.592 -0.5320  0.0146  0.9095
  989MOL0     C33391   1.787   5.301   9.664  0.5347  1.1625 -0.3101
  989MOL0     C33392   1.907   5.360   9.585 -0.1471  0.5497  0.9490
  989MOL0     C33393   1.970   5.478   9.665 -0.1382  0.2536  0.7744
  989MOL0     C33394   2.010   5.450   9.810  0.2084 -0.0211 -0.0961
  989MOL0     C33395   2.090   5.562   9.867 -0.2876 -0.0828  0.3956
  989MOL0     C33396   2.011   5.696   9.877  0.1021  0.3460  0.6107
  989MOL0     N33397   1.895   5.687   9.960  1.5431  0.7735 -0.9127
  989MOL0     C33398   1.764   5.700   9.916 -0.0234 -0.3158  0.8685
  989MOL0     C33399   1.686   5.712  10.027  0.2518 -0.0356 -0.0207
  989MOL0     C33400   1.539   5.736  10.048  0.2755 -0.1214 -0.3385
  989MOL0     C33401   1.447   5.638   9.983 -1.0387  0.0336  0.1147
  989MOL0     C33402   1.347   5.716   9.893  0.6574 -0.2198  0.4285
  989MOL0     C33403   1.217   5.636   9.867  0.0853  0.1649 -0.4784
  989MOL0     O33404   1.134   5.659   9.982 -0.7836 -0.1148 -0.2569
  989MOL0     C33405   1.000   5.630   9.973 -0.2179  0.7187 -0.1748
  989MOL0     C33406   0.919   5.670  10.072  0.6121  0.4568  0.2638
  989MOL0     C33407   0.782   5.638  10.075  0.4839  0.7496  0.7208
  989MOL0     C33408   0.694   5.696  10.182  0.1497 -0.2657  0.0675
  989MOL0     C33409   0.727   5.542   9.974 -0.0309 -1.2980  0.9126
  989MOL0     C33410   0.588   5.515   9.959 -0.2090  0.0214 -0.0401
  989MOL0     O33411   0.566   5.405   9.879 -0.5541  0.5708  0.2470
  989MOL0     C33412   0.437   5.387   9.834  0.2396 -0.4211 -0.6735
  989MOL0     C33413   0.415   5.389   9.698 -0.3313  0.3179  0.8769
  989MOL0     C33414   0.291   5.353   9.651  0.3406  0.0316  0.3702
  989MOL0     C33415   0.187   5.306   9.728  0.6789  0.2171 -0.4402
  989MOL0     O33416   0.063   5.263   9.677  0.1206  0.1290 -0.5902
  989MOL0     C33417   0.019   5.304   9.547  0.3267 -0.2989 -0.0848
  989MOL0     C33418  -0.113   5.239   9.514  0.2895  0.5226  0.4703
  989MOL0     C33419  -0.238   5.297   9.587  0.4001  0.7778  0.0784
  989MOL0     C33420  -0.362   5.266   9.511  0.4560  0.1554  0.3054
  989MOL0     C33421  -0.491   5.278   9.600 -0.4941 -0.0824 -0.0644
  989MOL0     C33422  -0.616   5.225   9.529 -0.9879 -0.2171 -0.3134
  989MOL0     C33423  -0.737   5.231   9.623  0.0642 -0.2324  0.3881
  989MOL0     C33424  -0.862   5.219   9.538  0.2098  0.4827  0.4454
  989MOL0    Cl33425  -1.000   5.189   9.648  0.5343  0.3464  0.8105
  989MOL0     C33426   0.206   5.303   9.867 -0.2710 -0.3904 -0.4771
  989MOL0     C33427   0.332   5.353   9.918 -0.0219  0.0040  0.1283
  989MOL0     O33428   0.501   5.590  10.001 -0.1059  0.2651  0.0787
  989MOL0     C33429   0.823   5.489   9.880 -0.3287 -0.3858 -0.3652
  989MOL0     C33430   0.957   5.532   9.883  0.0093  0.4648 -0.0304
  989MOL0     N33431   1.765   5.712  10.140  0.4905  0.3273  0.3250
  989MOL0     N33432   1.889   5.685  10.099  0.3269 -0.1653  1.0892
  989MOL0     C33433   1.274   5.218   9.754 -0.5918 -0.1488  0.1331
  989MOL0     C33434   1.150   5.174   9.783  0.7714 -0.5363 -0.1097
  989MOL0     C33435   0.807   4.903   9.930 -1.2651  0.0981 -0.6489
  989MOL0     C33436   0.750   4.791   9.992 -0.1266  0.2800  1.0321
  989MOL0     C33437   0.609   4.778  10.010  0.0078  0.1341  0.3597
  989MOL0     C33438   0.526   4.888   9.966 -0.6248 -0.4880 -0.1205
  989MOL0     O33439   0.397   4.905   9.977  0.9772  0.5670  0.0011
  989MOL0     C33440   0.328   4.812  10.062  0.4644 -0.4324 -0.1063
  989MOL0     C33441   0.182   4.858  10.108 -0.4074 -0.3702  0.4157
  989MOL0     C33442   0.085   4.887   9.992 -1.2917 -0.7320  0.2466
  989MOL0     C33443  -0.027   4.973  10.046 -0.7461  0.1611 -0.7194
  989MOL0     C33444  -0.126   4.980   9.941  0.4986  0.1533 -0.2434
  989MOL0     C33445  -0.217   4.980   9.856  0.2788 -0.6113 -0.3661
  989MOL0     C33446   0.589   5.000   9.898 -0.3754 -0.3261 -0.2083
  989MOL0     C33447   0.728   5.008   9.886 -0.2157 -0.5779  0.0756
  989MOL0     H33448   1.205   4.838   9.792 -2.6698  1.2094 -0.2577
  989MOL0     H33449   1.430   4.914   9.718  0.6027  1.0296  2.5469
  989MOL0     H33450   1.663   5.064   9.757 -0.6130 -1.9973  0.4193
  989MOL0     H33451   1.590   5.017   9.601 -1.6027 -0.0478  0.4622
  989MOL0     H33452   1.802   5.105   9.567 -0.1813  0.8542 -0.6477
  989MOL0     H33453   1.682   5.208   9.497  0.5525 -0.6997  0.1676
  989MOL0     H33454   1.706   5.366   9.697 -2.4232 -1.6658 -1.4278
  989MOL0     H33455   1.817   5.255   9.759  0.0119  1.0658 -0.1890
  989MOL0     H33456   1.985   5.286   9.564 -2.3567 -1.0815 -2.4114
  989MOL0     H33457   1.874   5.392   9.486  0.4989  1.6135  1.0656
  989MOL0     H33458   2.060   5.506   9.610 -0.2101 -1.2464 -0.1473
  989MOL0     H33459   1.897   5.559   9.665  0.5863  0.9205  1.1050
  989MOL0     H33460   1.921   5.428   9.871 -0.1382 -0.7361 -0.8413
  989MOL0     H33461   2.080   5.366   9.817 -2.0538 -2.0059  0.3202
  989MOL0     H33462   2.114   5.527   9.968 -1.9414 -1.9579  0.2104
  989MOL0     H33463   2.176   5.582   9.803 -1.5698  1.5047 -0.9323
  989MOL0     H33464   1.984   5.740   9.781  0.8156  3.0921  1.5957
  989MOL0     H33465   2.071   5.779   9.915  1.6677 -0.0905 -0.7689
  989MOL0     H33466   1.728   5.699   9.814  1.6428 -0.5740  0.2648
  989MOL0     H33467   1.512   5.733  10.154 -0.1296  2.2283 -0.3191
  989MOL0     H33468   1.520   5.841  10.024  0.7205 -0.7443 -3.9581
  989MOL0     H33469   1.386   5.585  10.056 -0.0263 -0.3400  0.7009
  989MOL0     H33470   1.497   5.564   9.920 -0.6519  0.3761  0.0126
  989MOL0     H33471   1.393   5.741   9.797  1.3716  0.2008  0.8691
  989MOL0     H33472   1.313   5.807   9.943  0.7209 -1.0163  2.0111
  989MOL0     H33473   1.232   5.528   9.868  0.2810  0.1431 -2.2929
  989MOL0     H33474   1.155   5.658   9.780 -1.1204 -1.5392 -0.1091
  989MOL0     H33475   0.955   5.732  10.153  0.9822 -0.6883  0.9978
  989MOL0     H33476   0.622   5.765  10.136  0.5185 -0.7811 -1.3451
  989MOL0     H33477   0.643   5.618  10.240 -1.3479 -2.0376 -3.3578
  989MOL0     H33478   0.754   5.762  10.245 -1.5862  1.6988 -0.2261
  989MOL0     H33479   0.498   5.413   9.632  0.4092  0.7175  1.9323
  989MOL0     H33480   0.277   5.354   9.543 -0.0786  1.0470  0.4197
  989MOL0     H33481   0.010   5.413   9.551 -1.1544 -0.2968 -1.9749
  989MOL0     H33482   0.091   5.284   9.467 -1.9247 -0.0182 -2.3139
  989MOL0     H33483  -0.135   5.253   9.407  2.1662  2.4268  0.2596
  989MOL0     H33484  -0.115   5.135   9.549  0.9775  0.6176  0.8019
  989MOL0     H33485  -0.224   5.404   9.604 -0.9244  1.4306 -2.5114
  989MOL0     H33486  -0.248   5.251   9.686 -0.7469  0.6593 -0.0724
  989MOL0     H33487  -0.363   5.332   9.424  0.5262 -0.0536  0.1435
  989MOL0     H33488  -0.357   5.163   9.475  2.2203  0.1825  0.3952
  989MOL0     H33489  -0.507   5.378   9.641 -3.4168 -0.5688  0.2117
  989MOL0     H33490  -0.475   5.218   9.690 -0.2175 -0.6013 -0.4580
  989MOL0     H33491  -0.630   5.278   9.434 -0.4081  0.9889  0.2520
  989MOL0     H33492  -0.606   5.117   9.516 -2.9265 -0.2032 -2.5840
  989MOL0     H33493  -0.745   5.327   9.675  0.3793  0.2198 -0.3773
  989MOL0     H33494  -0.730   5.157   9.702 -0.0483 -2.1042 -1.2762
  989MOL0     H33495  -0.857   5.139   9.463 -1.2396  0.9318 -0.1562
  989MOL0     H33496  -0.879   5.315   9.488  2.3897  1.2638  1.0882
  989MOL0     H33497   0.133   5.271   9.940  1.2321  2.2489  2.4030
  989MOL0     H33498   0.357   5.360  10.023  0.2782 -0.1509  0.0681
  989MOL0     H33499   0.793   5.429   9.795  1.0612  0.3842 -1.4404
  989MOL0     H33500   1.034   5.492   9.819  1.4254  2.6292  0.1936
  989MOL0     H33501   1.298   5.324   9.758  1.2547 -0.5792  1.8067
  989MOL0     H33502   1.069   5.244   9.795 -0.7760 -1.4465 -3.9219
  989MOL0     H33503   0.819   4.716  10.029  1.4206  0.3003 -1.5704
  989MOL0     H33504   0.581   4.690  10.068  3.4395  0.0942  2.1942
  989MOL0     H33505   0.308   4.720  10.007 -1.4613 -0.1622  0.0775
  989MOL0     H33506   0.389   4.790  10.150  0.3767  1.0880  0.3531
  989MOL0     H33507   0.190   4.942  10.178  0.2840  0.9128 -1.1435
  989MOL0     H33508   0.143   4.782  10.175 -1.1478 -1.4435 -1.1774
  989MOL0     H33509   0.046   4.791   9.957 -1.6087 -0.3576 -0.4700
  989MOL0     H33510   0.141   4.940   9.914 -0.9584  2.2177  2.3247
  989MOL0     H33511   0.011   5.071  10.075 -1.2860  0.4796 -1.0920
  989MOL0     H33512  -0.053   4.930  10.143 -0.0232 -0.1058 -0.6389
  989MOL0     H33513  -0.299   4.992   9.787 -1.2102  0.7646  1.5323
  989MOL0     H33514   0.539   5.090   9.863 -1.9870 -2.2382 -3.2554
  989MOL0     H33515   0.771   5.099   9.846  1.0220 -0.3927  1.7345
  990MOL0     O33516   0.235   3.422   0.989  0.1938  0.2505  0.0168
  990MOL0     C33517   0.189   3.365   0.894 -0.4939  0.4764 -0.2402
  990MOL0     O33518   0.060   3.340   0.866 -0.7034 -0.5800  0.3802
  990MOL0     C33519  -0.046   3.410   0.924  0.0690  0.0448 -0.4685
  990MOL0     C33520  -0.032   3.524   0.998  0.3252  0.8170 -0.3991
  990MOL0     C33521  -0.148   3.587   1.057  0.5569  0.8103 -0.1892
  990MOL0     C33522  -0.277   3.531   1.036  0.0052  0.1536  1.2164
  990MOL0     O33523  -0.383   3.608   1.084 -0.1947 -0.5194  0.0263
  990MOL0     C33524  -0.518   3.560   1.075  0.1309  0.3268  0.5887
  990MOL0     C33525  -0.621   3.675   1.102 -0.1415  0.0996 -0.0374
  990MOL0     C33526  -0.662   3.697   1.253  0.0568  0.3014 -0.4366
  990MOL0     C33527  -0.810   3.763   1.268 -0.8960  0.8256 -0.0979
  990MOL0     C33528  -0.837   3.820   1.405 -0.1157  0.1700  0.5036
  990MOL0     C33529  -0.982   3.875   1.398 -1.2779  0.3625 -0.9575
  990MOL0     C33530  -1.020   3.948   1.528 -0.8232  0.4840  0.7632
  990MOL0     C33531  -1.147   3.906   1.590 -0.0515 -1.2954  0.5914
  990MOL0     N33532  -1.265   3.943   1.508  0.3451  0.1956 -0.2243
  990MOL0     C33533  -1.354   4.048   1.539 -0.1301  0.7071  0.2555
  990MOL0     C33534  -1.438   4.067   1.433 -0.6470  0.0331 -0.1821
  990MOL0     C33535  -1.549   4.171   1.419  0.3754  0.2574 -0.4635
  990MOL0     C33536  -1.657   4.173   1.526 -0.3271 -0.9765 -0.0279
  990MOL0     C33537  -1.749   4.305   1.500  0.4830  0.2129  0.9238
  990MOL0     C33538  -1.864   4.306   1.595 -0.1909 -0.4315  0.0321
  990MOL0     O33539  -1.933   4.423   1.565  0.0672  0.1072  0.1728
  990MOL0     C33540  -2.060   4.444   1.619 -0.8519 -0.4749 -0.4984
  990MOL0     C33541  -2.147   4.353   1.667  0.5111 -0.4265  0.2236
  990MOL0     C33542  -2.271   4.395   1.725  0.3626  0.3422  0.5372
  990MOL0     C33543  -2.356   4.300   1.792  0.5023  0.4179 -0.0059
  990MOL0     C33544  -2.302   4.532   1.734  0.3454 -0.0294  0.4412
  990MOL0     C33545  -2.431   4.590   1.760  0.3794  0.9497  0.0928
  990MOL0     O33546  -2.535   4.519   1.696 -0.5260 -0.1421 -0.0758
  990MOL0     C33547  -2.660   4.575   1.702  0.5508 -0.1135 -0.0762
  990MOL0     C33548  -2.705   4.686   1.624  0.4813  1.2502  0.2401
  990MOL0     C33549  -2.830   4.744   1.646  0.2260  0.3759  0.4889
  990MOL0     C33550  -2.916   4.696   1.739  0.4169  0.7517 -0.7975
  990MOL0     O33551  -3.043   4.729   1.774 -0.1446 -0.3073  0.5286
  990MOL0     C33552  -3.116   4.816   1.690 -0.5072 -0.0287  0.1189
  990MOL0     C33553  -3.254   4.852   1.739  0.7024 -0.2927 -0.1564
  990MOL0     C33554  -3.336   4.956   1.658 -0.7439  1.1356 -0.3378
  990MOL0     C33555  -3.416   5.055   1.745 -0.1368  0.6977 -1.4829
  990MOL0     C33556  -3.503   5.126   1.655 -0.5377  0.1087  0.8865
  990MOL0     C33557  -3.618   5.202   1.732 -0.6319  0.0952 -0.8230
  990MOL0     C33558  -3.696   5.305   1.655 -0.0486 -0.3182  0.4401
  990MOL0     C33559  -3.804   5.235   1.577  0.6885  0.3302  0.2203
  990MOL0    Cl33560  -3.939   5.181   1.685 -0.4892  0.1875 -0.4366
  990MOL0     C33561  -2.874   4.585   1.822 -0.8772 -0.7976 -0.2841
  990MOL0     C33562  -2.754   4.521   1.796 -0.6126 -1.3502 -0.0649
  990MOL0     O33563  -2.436   4.699   1.813  0.2734 -0.4877 -0.4176
  990MOL0     C33564  -2.208   4.620   1.688  0.0227 -0.7376  0.1214
  990MOL0     C33565  -2.091   4.578   1.624  0.4733  0.3892 -0.4647
  990MOL0     N33566  -1.383   3.989   1.328  1.3479 -0.0596 -0.1430
  990MOL0     N33567  -1.289   3.914   1.379  0.0754  0.3421 -0.4527
  990MOL0     C33568  -0.285   3.411   0.959  0.0963  0.1852 -0.1295
  990MOL0     C33569  -0.168   3.359   0.907  0.5732  0.8875 -0.7868
  990MOL0     C33570   0.293   3.314   0.795 -0.2729  0.4862  0.1041
  990MOL0     C33571   0.270   3.218   0.694  0.0117  0.8209  0.1122
  990MOL0     C33572   0.371   3.177   0.597 -0.0235  0.6038 -0.4434
  990MOL0     C33573   0.506   3.224   0.609  0.0573 -0.2811  0.6095
  990MOL0     O33574   0.613   3.202   0.514 -0.2718  0.1830 -0.5916
  990MOL0     C33575   0.598   3.081   0.443 -0.7302  0.2898  0.6482
  990MOL0     C33576   0.711   3.095   0.337  0.1941  0.5119  0.2959
  990MOL0     C33577   0.846   3.096   0.397 -0.7592 -0.4918 -0.5279
  990MOL0     C33578   0.957   3.064   0.283 -0.1688 -0.7675 -0.0467
  990MOL0     C33579   0.960   2.925   0.243 -0.7918  0.1002  0.3698
  990MOL0     C33580   0.955   2.805   0.221  0.1710 -0.5933 -0.7394
  990MOL0     C33581   0.530   3.309   0.716 -0.4340  0.3283 -0.4675
  990MOL0     C33582   0.427   3.344   0.805 -0.0686  0.6815 -0.0272
  990MOL0     H33583   0.063   3.574   1.012  0.6754 -0.1746  0.9855
  990MOL0     H33584  -0.137   3.677   1.116 -1.3809  0.8388  0.1850
  990MOL0     H33585  -0.533   3.534   0.970 -2.8199  1.4120  0.6510
  990MOL0     H33586  -0.537   3.472   1.136 -3.5292 -0.4482 -1.4019
  990MOL0     H33587  -0.585   3.775   1.076 -0.1237  1.1072  3.3731
  990MOL0     H33588  -0.710   3.666   1.038 -1.6353 -0.0355  1.9611
  990MOL0     H33589  -0.663   3.605   1.312  0.5363  2.0755  2.5830
  990MOL0     H33590  -0.592   3.764   1.303 -1.1122 -0.3082  2.2216
  990MOL0     H33591  -0.807   3.847   1.198  3.1731  0.8174 -0.1784
  990MOL0     H33592  -0.879   3.684   1.238  0.3529  0.6908 -2.9179
  990MOL0     H33593  -0.835   3.744   1.483  0.1189  0.1850  0.5130
  990MOL0     H33594  -0.762   3.899   1.421 -1.6032  1.3767  1.7956
  990MOL0     H33595  -0.990   3.946   1.316  1.2918  2.4233  0.4325
  990MOL0     H33596  -1.047   3.789   1.379 -0.9546 -0.2373  0.5273
  990MOL0     H33597  -0.949   3.926   1.608 -2.0850  1.8287  2.3194
  990MOL0     H33598  -1.020   4.056   1.512 -2.3746  0.2213 -1.4927
  990MOL0     H33599  -1.150   3.959   1.686  1.0575 -2.4705  1.3102
  990MOL0     H33600  -1.147   3.798   1.606 -5.3253 -1.6931 -0.3554
  990MOL0     H33601  -1.372   4.105   1.630  0.0968  0.4234  0.4810
  990MOL0     H33602  -1.508   4.272   1.422 -1.1610  0.9442 -1.2190
  990MOL0     H33603  -1.600   4.148   1.325 -1.9561 -0.6766  0.9554
  990MOL0     H33604  -1.609   4.183   1.624  1.0463  0.0705 -0.7649
  990MOL0     H33605  -1.718   4.084   1.511 -1.6755  0.0094 -0.6916
  990MOL0     H33606  -1.793   4.300   1.400 -0.2713 -0.9456  1.2981
  990MOL0     H33607  -1.697   4.402   1.503 -2.5457  1.9718  0.3012
  990MOL0     H33608  -1.826   4.310   1.698 -3.3080  0.0436  1.2630
  990MOL0     H33609  -1.916   4.211   1.582  2.6845 -2.4430  1.8553
  990MOL0     H33610  -2.134   4.245   1.669 -3.1660 -1.0217 -0.8267
  990MOL0     H33611  -2.384   4.347   1.886 -1.7395 -0.3792 -0.2215
  990MOL0     H33612  -2.441   4.281   1.726  0.5995 -1.1204  0.2575
  990MOL0     H33613  -2.303   4.204   1.800  1.0009  0.8131  2.2190
  990MOL0     H33614  -2.635   4.731   1.555 -1.3821  0.7990 -2.0437
  990MOL0     H33615  -2.863   4.826   1.583  0.8675 -1.4447 -2.4112
  990MOL0     H33616  -3.053   4.902   1.665  1.8963 -1.2278  1.7199
  990MOL0     H33617  -3.128   4.759   1.598 -1.7412 -0.1319  0.3270
  990MOL0     H33618  -3.313   4.760   1.732  0.4636 -0.0717 -1.1519
  990MOL0     H33619  -3.254   4.880   1.845 -0.8436 -0.8719  0.0237
  990MOL0     H33620  -3.408   4.892   1.606  1.3621 -1.3213 -0.4244
  990MOL0     H33621  -3.268   5.006   1.589 -0.1404  0.4146 -0.2862
  990MOL0     H33622  -3.475   5.010   1.825  1.0098  2.1798  0.2966
  990MOL0     H33623  -3.356   5.123   1.806 -2.2661  0.4792  1.0319
  990MOL0     H33624  -3.546   5.057   1.582 -1.5119 -0.2965  1.8192
  990MOL0     H33625  -3.441   5.188   1.589  0.2311 -0.6114  0.9159
  990MOL0     H33626  -3.692   5.129   1.767 -0.0551  0.5889  1.6368
  990MOL0     H33627  -3.568   5.254   1.814  0.2415 -2.1917  0.1875
  990MOL0     H33628  -3.624   5.352   1.587 -0.2978 -0.6224 -0.0391
  990MOL0     H33629  -3.737   5.379   1.725  0.7987 -1.5525  2.3000
  990MOL0     H33630  -3.764   5.142   1.537  0.1311 -3.3191  6.7187
  990MOL0     H33631  -3.832   5.296   1.491  4.3133 -2.0199 -2.9765
  990MOL0     H33632  -2.939   4.541   1.897 -1.5576 -2.7974 -1.9458
  990MOL0     H33633  -2.707   4.445   1.857  3.1895  0.2809 -0.6221
  990MOL0     H33634  -2.227   4.726   1.679 -1.8568 -0.7312  2.8427
  990MOL0     H33635  -2.025   4.650   1.575 -1.6063  1.7470 -1.4046
  990MOL0     H33636  -0.379   3.359   0.942 -0.6018  1.3066  0.2070
  990MOL0     H33637  -0.169   3.268   0.848  0.7472 -1.7609  2.9762
  990MOL0     H33638   0.170   3.181   0.677 -0.2455  2.6079 -3.1704
  990MOL0     H33639   0.349   3.114   0.511  2.0353 -0.8387  0.0170
  990MOL0     H33640   0.601   2.999   0.515 -3.3830  1.2164  1.9536
  990MOL0     H33641   0.505   3.067   0.387  0.3095  0.2129 -1.1305
  990MOL0     H33642   0.699   3.186   0.279 -2.0924 -0.5063 -0.9257
  990MOL0     H33643   0.699   3.016   0.263 -0.9272  0.8207  0.1269
  990MOL0     H33644   0.861   3.043   0.491 -2.9235  3.9123  2.7114
  990MOL0     H33645   0.862   3.199   0.431 -1.3770 -0.5841  0.0639
  990MOL0     H33646   1.046   3.108   0.329 -1.3468  3.2027 -1.1461
  990MOL0     H33647   0.936   3.130   0.198  1.5597  1.6272  1.2557
  990MOL0     H33648   0.943   2.700   0.202 -0.6527 -0.3281 -1.7771
  990MOL0     H33649   0.631   3.345   0.730 -1.1158  1.3408  2.5114
  990MOL0     H33650   0.461   3.407   0.886  2.0299 -0.3009 -0.0865
  991MOL0     O33651  10.938   4.073   3.887 -0.4187  0.2838 -0.4311
  991MOL0     C33652  10.978   3.987   3.970  0.3269 -0.3103  0.6586
  991MOL0     O33653  10.901   3.931   4.066  0.1143  0.1563  0.0309
  991MOL0     C33654  10.772   3.964   4.070  0.5103 -0.4077 -0.1663
  991MOL0     C33655  10.665   3.867   4.077  0.4697  0.7498  0.0125
  991MOL0     C33656  10.529   3.897   4.076 -0.0324 -0.2226 -0.1921
  991MOL0     C33657  10.495   4.030   4.084  0.2137  0.3316 -0.0870
  991MOL0     O33658  10.358   4.054   4.079  0.0790 -0.3072  0.0826
  991MOL0     C33659  10.312   4.191   4.092 -0.3040  0.4342  0.0439
  991MOL0     C33660  10.166   4.177   4.131  0.7426 -0.2189 -0.1419
  991MOL0     C33661  10.107   4.315   4.132 -0.1009  0.0938  0.6569
  991MOL0     C33662   9.954   4.318   4.153 -0.4398 -0.7510  0.3677
  991MOL0     C33663   9.891   4.226   4.256 -0.7104 -0.4256 -0.7654
  991MOL0     C33664   9.750   4.269   4.314 -0.5947 -0.3963 -0.2165
  991MOL0     C33665   9.743   4.207   4.454 -0.0630 -1.1152  0.1601
  991MOL0     C33666   9.621   4.247   4.525  0.0670 -0.8587  0.1135
  991MOL0     N33667   9.496   4.227   4.453 -0.6214 -0.0828 -0.6125
  991MOL0     C33668   9.458   4.116   4.374  0.4563  0.5969  0.1759
  991MOL0     C33669   9.322   4.123   4.373  0.2971 -0.0655  0.3303
  991MOL0     C33670   9.221   4.038   4.295 -0.7517  0.4837 -0.3200
  991MOL0     C33671   9.079   4.059   4.351  0.3505  0.6449  0.5497
  991MOL0     C33672   8.981   3.944   4.332  0.5023 -0.3581 -0.4039
  991MOL0     C33673   8.840   3.965   4.409 -0.0246 -0.2374 -0.0001
  991MOL0     O33674   8.747   3.979   4.300 -0.3416 -0.1873  0.4775
  991MOL0     C33675   8.622   3.922   4.319  0.1221 -0.2889  0.3341
  991MOL0     C33676   8.558   3.887   4.202  0.1226 -0.1474 -0.4845
  991MOL0     C33677   8.429   3.836   4.190 -0.2773 -0.7964  0.0574
  991MOL0     C33678   8.379   3.797   4.057 -0.7743 -0.2137 -0.3040
  991MOL0     C33679   8.365   3.825   4.317  0.0062 -0.1728 -0.3423
  991MOL0     C33680   8.221   3.774   4.325  0.7477 -0.2466 -0.1351
  991MOL0     O33681   8.144   3.839   4.411  0.4419  0.2258  0.5975
  991MOL0     C33682   8.013   3.824   4.410  1.1095 -0.9878  0.2097
  991MOL0     C33683   7.943   3.755   4.514  0.8169 -0.1246 -0.8501
  991MOL0     C33684   7.804   3.762   4.527  1.1286 -0.2481  0.3412
  991MOL0     C33685   7.729   3.828   4.423  0.1503 -0.3403 -1.0088
  991MOL0     O33686   7.591   3.834   4.418 -0.9586  0.2306 -0.5001
  991MOL0     C33687   7.521   3.833   4.295 -0.3292 -0.3825 -0.4872
  991MOL0     C33688   7.431   3.946   4.274  0.0233 -0.3925  0.9445
  991MOL0     C33689   7.369   3.934   4.136  0.5285 -0.4948 -0.6145
  991MOL0     C33690   7.255   4.035   4.123  0.1328 -0.9073  0.6345
  991MOL0     C33691   7.179   4.026   3.988  0.0536 -0.3548 -0.3073
  991MOL0     C33692   7.069   3.915   3.979 -1.5514  0.0872  0.6019
  991MOL0     C33693   6.978   3.911   3.855  0.1692  0.3804 -0.8100
  991MOL0     C33694   6.858   3.811   3.855 -0.3471  0.0509  0.4800
  991MOL0    Cl33695   6.769   3.862   3.708 -0.4923 -0.0732 -0.6245
  991MOL0     C33696   7.805   3.900   4.328  0.9508 -0.2610 -0.1603
  991MOL0     C33697   7.942   3.891   4.317 -0.6718 -0.5573 -1.0017
  991MOL0     O33698   8.194   3.664   4.270 -0.3415  0.8655  0.5649
  991MOL0     C33699   8.420   3.876   4.438  1.1197  0.3590  0.2592
  991MOL0     C33700   8.548   3.913   4.436  0.0636 -0.2266 -0.2641
  991MOL0     N33701   9.289   4.232   4.453 -0.5930 -0.4154 -0.2834
  991MOL0     N33702   9.389   4.296   4.499 -0.7808 -0.4262  0.3696
  991MOL0     C33703  10.593   4.136   4.105 -1.0162  0.4113  1.0784
  991MOL0     C33704  10.730   4.099   4.080  0.0787 -0.2289 -1.1713
  991MOL0     C33705  11.111   3.930   3.962  0.3024 -0.2300  0.6143
  991MOL0     C33706  11.173   3.935   3.836 -0.6291  0.3843  0.1978
  991MOL0     C33707  11.305   3.888   3.817 -0.2139 -0.2031 -0.3613
  991MOL0     C33708  11.371   3.827   3.931 -0.3706 -0.2710 -0.3251
  991MOL0     O33709  11.499   3.779   3.932 -0.6490  0.2943  0.1483
  991MOL0     C33710  11.609   3.870   3.914  0.4877 -0.1502 -0.0864
  991MOL0     C33711  11.740   3.787   3.913  0.9091  1.1460 -0.2443
  991MOL0     C33712  11.862   3.878   3.915  0.0289 -0.1353 -0.4470
  991MOL0     C33713  11.990   3.795   3.940  0.9733  0.1783  0.9589
  991MOL0     C33714  12.119   3.865   3.924  0.6982 -0.3737  0.1758
  991MOL0     C33715  12.225   3.920   3.914 -0.1276  0.4743  0.2820
  991MOL0     C33716  11.307   3.811   4.053 -0.2239  0.7124 -0.7605
  991MOL0     C33717  11.174   3.865   4.073 -0.4477  0.8117 -0.3815
  991MOL0     H33718  10.692   3.762   4.066  0.0865  0.5723  0.7056
  991MOL0     H33719  10.455   3.819   4.062  0.3818 -1.2704  2.7809
  991MOL0     H33720  10.369   4.248   4.166 -1.0694 -0.3874  1.2961
  991MOL0     H33721  10.333   4.255   4.006  0.1566  0.7182  0.3645
  991MOL0     H33722  10.105   4.118   4.062 -1.4785  0.9917  0.7003
  991MOL0     H33723  10.158   4.139   4.234 -1.2866  0.9923  0.2005
  991MOL0     H33724  10.152   4.384   4.204 -0.4851 -0.2264  1.2142
  991MOL0     H33725  10.120   4.365   4.036  0.2288 -0.9615  0.1414
  991MOL0     H33726   9.927   4.421   4.179 -1.4524 -0.6326 -1.0577
  991MOL0     H33727   9.902   4.292   4.060  1.0829  1.3641 -1.1761
  991MOL0     H33728   9.875   4.127   4.213 -0.2171 -1.9019  2.1381
  991MOL0     H33729   9.961   4.223   4.341 -1.2968 -0.1734 -0.2673
  991MOL0     H33730   9.735   4.377   4.320  2.5030  0.2891 -2.5844
  991MOL0     H33731   9.677   4.220   4.248  0.6579 -3.0409  0.2438
  991MOL0     H33732   9.746   4.098   4.448  1.4941 -1.0506 -1.0363
  991MOL0     H33733   9.828   4.250   4.507 -2.0580 -0.0520  2.6684
  991MOL0     H33734   9.632   4.352   4.554 -0.5430  0.4714 -3.8638
  991MOL0     H33735   9.604   4.181   4.610 -1.8740 -3.8679 -2.4109
  991MOL0     H33736   9.509   4.036   4.324 -3.0259 -2.3326  0.8453
  991MOL0     H33737   9.236   4.076   4.193  2.3109 -0.8731 -0.4881
  991MOL0     H33738   9.254   3.934   4.287  1.0511  1.0658 -0.8565
  991MOL0     H33739   9.035   4.147   4.303 -1.1104 -1.5405 -2.3948
  991MOL0     H33740   9.069   4.070   4.459  1.2679  2.2370  0.4997
  991MOL0     H33741   9.021   3.854   4.379 -0.9528 -1.5370 -1.3241
  991MOL0     H33742   8.965   3.922   4.226 -2.5535  1.1196 -0.3682
  991MOL0     H33743   8.854   4.051   4.475  0.4721 -2.9448  3.7173
  991MOL0     H33744   8.809   3.884   4.475 -1.9578 -0.4154 -1.0665
  991MOL0     H33745   8.614   3.900   4.110  0.9621 -1.2814 -0.1709
  991MOL0     H33746   8.278   3.836   4.043 -0.9529 -1.3539 -2.6580
  991MOL0     H33747   8.439   3.850   3.983 -0.0165 -0.0014  0.4466
  991MOL0     H33748   8.374   3.688   4.053  0.0453 -0.2234 -3.5486
  991MOL0     H33749   8.006   3.703   4.585  0.3727  1.5627  0.8486
  991MOL0     H33750   7.738   3.713   4.599 -2.5773  1.4044 -1.6299
  991MOL0     H33751   7.592   3.821   4.212  2.0037  2.3108  0.9384
  991MOL0     H33752   7.455   3.746   4.300 -1.9409  0.8036 -0.5666
  991MOL0     H33753   7.349   3.942   4.347 -1.4860  1.0815 -0.6068
  991MOL0     H33754   7.486   4.039   4.289  1.3487 -1.1685  1.1331
  991MOL0     H33755   7.328   3.833   4.128  1.5369 -1.0194  0.4888
  991MOL0     H33756   7.447   3.951   4.061  1.3264  1.3192  0.5470
  991MOL0     H33757   7.182   4.027   4.204 -2.0978  1.1372 -1.0134
  991MOL0     H33758   7.296   4.136   4.130  1.4752 -1.1316 -2.5199
  991MOL0     H33759   7.254   3.994   3.916 -1.9060 -3.0076 -1.3192
  991MOL0     H33760   7.140   4.126   3.963 -0.8449 -0.0240  2.0823
  991MOL0     H33761   7.106   3.816   4.006 -1.0493  0.0760 -0.0971
  991MOL0     H33762   6.999   3.929   4.062  1.2678 -3.1405  3.8709
  991MOL0     H33763   7.036   3.873   3.770 -0.7014 -1.1618 -0.7460
  991MOL0     H33764   6.934   4.011   3.845 -0.5778  0.3828  1.7750
  991MOL0     H33765   6.797   3.807   3.946  0.4951 -1.0831  0.9997
  991MOL0     H33766   6.895   3.710   3.836  0.4476  0.6977 -1.6853
  991MOL0     H33767   7.745   3.947   4.251 -0.6678  0.0526  1.2382
  991MOL0     H33768   8.001   3.944   4.243  1.2687  2.2388  2.2626
  991MOL0     H33769   8.375   3.872   4.537 -1.8427  2.3725 -0.8739
  991MOL0     H33770   8.618   3.948   4.512  1.1500 -2.8777  0.0780
  991MOL0     H33771  10.568   4.241   4.092  0.5960  0.6063 -0.9846
  991MOL0     H33772  10.804   4.179   4.074  0.5273 -0.6588 -1.3887
  991MOL0     H33773  11.129   3.980   3.748 -0.4541  0.5517  0.1938
  991MOL0     H33774  11.360   3.894   3.724 -0.8340  0.0971 -0.7125
  991MOL0     H33775  11.586   3.928   3.823 -1.5213  1.0571  1.1061
  991MOL0     H33776  11.598   3.935   4.001  1.6218  0.9640 -0.7382
  991MOL0     H33777  11.746   3.709   3.837  1.3255  0.7585  0.1755
  991MOL0     H33778  11.737   3.731   4.007 -1.9650  0.6601 -0.5564
  991MOL0     H33779  11.842   3.952   3.993  0.7802 -1.6071  1.2091
  991MOL0     H33780  11.870   3.932   3.821 -0.1378  0.8733  0.0978
  991MOL0     H33781  11.987   3.702   3.882 -1.0964 -0.8677  2.5748
  991MOL0     H33782  11.989   3.766   4.046 -1.9311  0.9099  1.2196
  991MOL0     H33783  12.310   3.983   3.894 -0.9852  0.9088 -2.4402
  991MOL0     H33784  11.353   3.750   4.130  0.3196  0.0244 -1.6151
  991MOL0     H33785  11.117   3.852   4.164  0.4544 -0.2915  0.0490
  992MOL0     O33786   1.728   6.519   5.038  0.4092 -0.5334 -0.1190
  992MOL0     C33787   1.713   6.440   5.126  0.0042  0.0289  0.7966
  992MOL0     O33788   1.596   6.414   5.195  0.1374  0.2782 -0.5906
  992MOL0     C33789   1.470   6.459   5.159  0.5317  0.3425  0.3469
  992MOL0     C33790   1.431   6.515   5.031 -1.3717  0.3443 -0.1106
  992MOL0     C33791   1.301   6.551   4.999  0.0352 -0.8204 -0.2678
  992MOL0     C33792   1.201   6.547   5.096  0.1849 -0.5492  0.3278
  992MOL0     O33793   1.072   6.581   5.061 -0.3226  0.3755  0.1661
  992MOL0     C33794   0.974   6.576   5.161  0.2951  0.3291  0.2437
  992MOL0     C33795   0.834   6.596   5.096 -0.5406 -0.1613  0.4618
  992MOL0     C33796   0.719   6.599   5.198 -0.0219  0.0117 -0.6448
  992MOL0     C33797   0.594   6.581   5.119 -0.1652  0.2288  0.0171
  992MOL0     C33798   0.488   6.546   5.219 -0.4921  0.2206 -0.8879
  992MOL0     C33799   0.350   6.511   5.151  0.6085  0.0474  0.7505
  992MOL0     C33800   0.232   6.531   5.231  0.4336  0.0152  0.2260
  992MOL0     C33801   0.111   6.553   5.147  0.3064 -1.1218 -0.0456
  992MOL0     N33802  -0.007   6.567   5.235 -0.5062 -0.2044  0.8817
  992MOL0     C33803  -0.108   6.664   5.220 -0.4670 -0.1695 -0.4897
  992MOL0     C33804  -0.211   6.610   5.289 -0.5486  0.3988 -0.2252
  992MOL0     C33805  -0.351   6.658   5.292  0.7604 -0.1818 -0.3853
  992MOL0     C33806  -0.432   6.606   5.175 -0.5295 -0.8458 -0.2008
  992MOL0     C33807  -0.478   6.463   5.188  0.7204 -0.1047  0.2301
  992MOL0     C33808  -0.632   6.443   5.171 -0.0673  0.8102 -0.5611
  992MOL0     O33809  -0.654   6.302   5.189 -0.0159 -0.0401  0.3070
  992MOL0     C33810  -0.772   6.250   5.227  0.6220  0.2521  0.0801
  992MOL0     C33811  -0.887   6.312   5.270 -0.0753  0.1797 -0.1935
  992MOL0     C33812  -1.011   6.245   5.289 -0.5599  0.2981  0.1945
  992MOL0     C33813  -1.136   6.335   5.313 -0.4168 -0.0397  0.9381
  992MOL0     C33814  -1.017   6.108   5.242 -0.2372  0.0346 -0.1369
  992MOL0     C33815  -1.141   6.026   5.255 -0.0253 -0.6019 -0.2615
  992MOL0     O33816  -1.230   6.057   5.358  0.1093 -0.1348 -0.3266
  992MOL0     C33817  -1.351   5.989   5.374 -0.7810 -0.0579 -0.2615
  992MOL0     C33818  -1.466   6.054   5.431 -0.0315 -0.1736  0.1905
  992MOL0     C33819  -1.584   5.980   5.440  0.5373 -0.3531  0.1725
  992MOL0     C33820  -1.603   5.849   5.397 -0.0716 -0.6975 -0.0987
  992MOL0     O33821  -1.723   5.794   5.428 -0.3449  0.1771 -0.1539
  992MOL0     C33822  -1.750   5.666   5.376  0.4218  0.9170  0.1199
  992MOL0     C33823  -1.755   5.563   5.494  0.3316  0.6642 -0.7228
  992MOL0     C33824  -1.619   5.501   5.511  0.5767  0.0885  0.1480
  992MOL0     C33825  -1.635   5.377   5.603 -1.2014  0.1576 -0.1450
  992MOL0     C33826  -1.509   5.284   5.606  0.5837 -0.2608  0.7919
  992MOL0     C33827  -1.550   5.166   5.690  0.1255  0.3646 -0.0070
  992MOL0     C33828  -1.548   5.200   5.842  0.0145  0.2174  0.3577
  992MOL0     C33829  -1.554   5.074   5.930  0.2085 -0.2234  0.1553
  992MOL0    Cl33830  -1.726   5.032   5.930 -0.2271 -0.7290 -0.0680
  992MOL0     C33831  -1.486   5.782   5.355  0.7576 -0.0718  0.5469
  992MOL0     C33832  -1.361   5.849   5.337 -0.0527 -0.1471  0.1728
  992MOL0     O33833  -1.153   5.939   5.168  0.0612 -0.0559 -0.3317
  992MOL0     C33834  -0.903   6.038   5.203 -0.1030 -0.4576 -1.0626
  992MOL0     C33835  -0.786   6.111   5.192  0.2148 -0.2510  1.0221
  992MOL0     N33836  -0.172   6.484   5.334 -1.0498  0.1895  0.7964
  992MOL0     N33837  -0.051   6.456   5.296  0.6524 -0.4689 -0.3064
  992MOL0     C33838   1.240   6.517   5.222 -0.4741 -0.3597 -0.3333
  992MOL0     C33839   1.364   6.462   5.248 -0.2992 -0.5045  0.7257
  992MOL0     C33840   1.833   6.372   5.173  0.0674  0.1515 -0.5450
  992MOL0     C33841   1.820   6.292   5.284 -0.5042  0.2763 -0.2193
  992MOL0     C33842   1.926   6.229   5.341 -0.5070  0.0836 -0.0089
  992MOL0     C33843   2.058   6.235   5.287  0.0645  0.6242 -0.7183
  992MOL0     O33844   2.171   6.161   5.316 -0.1327 -0.1393 -0.8103
  992MOL0     C33845   2.184   6.111   5.455 -0.3363 -0.2339  1.0225
  992MOL0     C33846   2.333   6.106   5.486 -0.4575 -0.1660  0.1950
  992MOL0     C33847   2.366   6.069   5.628 -0.2630 -0.2797  0.4478
  992MOL0     C33848   2.519   6.075   5.670 -0.3803 -0.2839 -0.9398
  992MOL0     C33849   2.612   5.993   5.593  0.0050 -0.6038  0.3051
  992MOL0     C33850   2.687   5.919   5.538  0.0910  0.5588  0.2231
  992MOL0     C33851   2.072   6.316   5.170  0.0723  0.3732  0.2057
  992MOL0     C33852   1.960   6.379   5.118 -0.0305  0.0261 -0.7559
  992MOL0     H33853   1.506   6.519   4.952 -0.2131  1.7098  0.9990
  992MOL0     H33854   1.275   6.577   4.897 -2.8047 -0.5163  0.4434
  992MOL0     H33855   0.978   6.474   5.199 -1.3453 -0.6395 -1.9230
  992MOL0     H33856   0.990   6.650   5.239 -1.0632  2.4153 -1.3351
  992MOL0     H33857   0.839   6.689   5.038 -1.0563  0.9962  2.2088
  992MOL0     H33858   0.814   6.519   5.020 -0.6661  1.9980 -1.8169
  992MOL0     H33859   0.736   6.530   5.281  1.3904  1.8157  0.6525
  992MOL0     H33860   0.716   6.699   5.242 -0.8134 -1.2553  2.3950
  992MOL0     H33861   0.566   6.672   5.064 -3.4129 -1.5786 -1.6019
  992MOL0     H33862   0.611   6.499   5.050 -1.4050  1.2452 -1.5642
  992MOL0     H33863   0.521   6.459   5.275  1.6508  1.6742  0.2621
  992MOL0     H33864   0.483   6.638   5.278  2.5335  0.6545 -1.1622
  992MOL0     H33865   0.345   6.572   5.061 -2.7029  0.6718  1.2140
  992MOL0     H33866   0.355   6.404   5.131 -0.6266 -0.0977  1.1449
  992MOL0     H33867   0.212   6.437   5.283  0.0850  0.1131  0.2751
  992MOL0     H33868   0.237   6.614   5.303 -1.0967  3.2987 -3.0977
  992MOL0     H33869   0.084   6.470   5.081 -0.3775 -1.3449  0.5037
  992MOL0     H33870   0.121   6.644   5.087 -3.6394 -1.1306 -0.9856
  992MOL0     H33871  -0.105   6.759   5.168 -1.4189 -0.4792 -1.1235
  992MOL0     H33872  -0.407   6.641   5.384  0.2716  2.0521 -0.2108
  992MOL0     H33873  -0.355   6.767   5.281  1.5480 -0.0763  0.2724
  992MOL0     H33874  -0.360   6.607   5.092 -0.7292 -0.5877 -0.3736
  992MOL0     H33875  -0.513   6.672   5.143  1.7005  0.5245 -3.5173
  992MOL0     H33876  -0.456   6.435   5.291  1.1657 -0.7978 -0.0474
  992MOL0     H33877  -0.420   6.399   5.122  0.2964 -0.7487  0.4762
  992MOL0     H33878  -0.680   6.478   5.080 -1.3830  1.6827  0.4396
  992MOL0     H33879  -0.675   6.488   5.261 -0.6768  0.3391 -0.6076
  992MOL0     H33880  -0.883   6.417   5.297  0.3816  0.5330 -1.5630
  992MOL0     H33881  -1.158   6.309   5.417 -0.1856 -0.7865  0.8085
  992MOL0     H33882  -1.126   6.442   5.291 -1.3143 -0.3500 -1.2298
  992MOL0     H33883  -1.218   6.304   5.247  0.2137 -1.0176  0.5913
  992MOL0     H33884  -1.451   6.156   5.463 -0.2621  0.0213 -0.3062
  992MOL0     H33885  -1.676   6.017   5.483  2.0381  2.0142  1.5598
  992MOL0     H33886  -1.854   5.684   5.347  0.7705  1.2169 -1.0177
  992MOL0     H33887  -1.696   5.630   5.288 -0.5147 -0.3762  0.0607
  992MOL0     H33888  -1.786   5.612   5.586  1.7749 -0.1034  0.2025
  992MOL0     H33889  -1.820   5.481   5.462 -0.6161  0.8881  0.5640
  992MOL0     H33890  -1.552   5.575   5.556  0.1381  2.1902 -2.4087
  992MOL0     H33891  -1.566   5.479   5.418  2.5137  1.1645  0.9249
  992MOL0     H33892  -1.654   5.409   5.706  0.8821  4.4840 -0.8912
  992MOL0     H33893  -1.717   5.314   5.566 -0.8446 -0.2599 -0.2357
  992MOL0     H33894  -1.429   5.342   5.653 -0.7628 -0.0625  2.9620
  992MOL0     H33895  -1.490   5.260   5.501  0.3204  0.5469  0.5527
  992MOL0     H33896  -1.653   5.134   5.675 -0.6104  0.2729  4.0686
  992MOL0     H33897  -1.489   5.077   5.673 -1.9237 -1.4370  1.5336
  992MOL0     H33898  -1.633   5.266   5.862 -0.2590  1.4540 -3.9006
  992MOL0     H33899  -1.454   5.249   5.868  0.1309  0.0708  0.2146
  992MOL0     H33900  -1.521   5.099   6.031 -1.8271  0.4409  0.6985
  992MOL0     H33901  -1.485   4.999   5.889 -1.1653 -1.1403 -0.5415
  992MOL0     H33902  -1.496   5.678   5.326 -2.4200  0.8173 -2.1148
  992MOL0     H33903  -1.273   5.803   5.294  1.4431  1.7913  1.0234
  992MOL0     H33904  -0.909   5.931   5.189  1.0290 -0.4408 -1.7915
  992MOL0     H33905  -0.702   6.047   5.169 -0.8885 -0.8354 -1.8223
  992MOL0     H33906   1.177   6.526   5.310 -0.4242 -1.3218 -0.1906
  992MOL0     H33907   1.397   6.444   5.350 -0.3348 -1.6455  0.5457
  992MOL0     H33908   1.728   6.281   5.340 -0.3110  3.6689  0.9846
  992MOL0     H33909   1.917   6.168   5.431  0.1642  1.2272  0.8647
  992MOL0     H33910   2.143   6.179   5.531  0.8221  2.9903 -0.9996
  992MOL0     H33911   2.140   6.011   5.456  0.9585 -0.8803 -1.0962
  992MOL0     H33912   2.370   6.207   5.465  0.9733 -0.8916 -0.9419
  992MOL0     H33913   2.389   6.029   5.433 -1.4196 -0.3468 -0.5915
  992MOL0     H33914   2.322   5.972   5.651 -2.6376  0.2362 -1.5514
  992MOL0     H33915   2.309   6.137   5.691  1.5521  0.6187  1.2084
  992MOL0     H33916   2.529   6.042   5.773  1.2338  1.1173 -0.6036
  992MOL0     H33917   2.554   6.179   5.663  3.0042 -1.2872 -0.3461
  992MOL0     H33918   2.757   5.844   5.506 -1.5706 -0.7226 -0.5470
  992MOL0     H33919   2.167   6.328   5.119  1.0692 -0.8154  1.6952
  992MOL0     H33920   1.969   6.450   5.037 -1.5796  1.3032  0.1264
  993MOL0     O33921   9.417   7.455   3.324 -0.4197 -0.3656 -0.2258
  993MOL0     C33922   9.427   7.415   3.212 -0.1951  0.8815  0.2825
  993MOL0     O33923   9.330   7.409   3.116  0.7205 -0.1495 -0.6982
  993MOL0     C33924   9.200   7.447   3.129  0.5347 -0.3171 -0.2586
  993MOL0     C33925   9.161   7.546   3.227 -0.1271  0.6009 -0.4508
  993MOL0     C33926   9.025   7.571   3.238 -0.2258  0.6284  0.4091
  993MOL0     C33927   8.928   7.525   3.146  0.1660 -0.1636 -0.5927
  993MOL0     O33928   8.791   7.548   3.143 -0.3909  0.1342 -0.2630
  993MOL0     C33929   8.729   7.636   3.229  0.6628 -1.0958 -0.0614
  993MOL0     C33930   8.675   7.755   3.146  0.0804 -0.5336 -0.7377
  993MOL0     C33931   8.557   7.735   3.055  0.4996  0.1662 -0.1872
  993MOL0     C33932   8.418   7.731   3.120 -0.4219 -0.0351  0.0886
  993MOL0     C33933   8.309   7.728   3.014 -0.1033  0.2468 -0.5377
  993MOL0     C33934   8.177   7.713   3.074 -0.0109  0.4773  0.2285
  993MOL0     C33935   8.066   7.734   2.979  0.6340 -0.4226  0.5377
  993MOL0     C33936   8.072   7.649   2.854 -0.4420  0.3300  0.1058
  993MOL0     N33937   7.950   7.677   2.776 -0.5805  0.1878  0.5061
  993MOL0     C33938   7.928   7.766   2.666  0.4279  0.0891 -0.4101
  993MOL0     C33939   7.808   7.732   2.602  0.0954 -0.6893  0.3763
  993MOL0     C33940   7.731   7.803   2.493 -0.2602  0.1887  0.4502
  993MOL0     C33941   7.581   7.782   2.492  0.5754 -0.7257  0.0588
  993MOL0     C33942   7.525   7.865   2.610  1.2344 -0.9867 -0.1793
  993MOL0     C33943   7.369   7.888   2.597 -0.0018  0.0879 -0.8527
  993MOL0     O33944   7.299   7.767   2.608  0.0665  0.1652  0.0008
  993MOL0     C33945   7.167   7.765   2.590 -0.2787 -0.3467  1.0254
  993MOL0     C33946   7.092   7.866   2.540 -0.5595 -0.1851 -0.5010
  993MOL0     C33947   6.957   7.867   2.518  0.6965  0.0471  0.7764
  993MOL0     C33948   6.894   7.973   2.433  0.2227 -0.3297  1.1692
  993MOL0     C33949   6.883   7.758   2.569  0.3056  0.3086 -0.0760
  993MOL0     C33950   6.732   7.755   2.589  0.0540 -0.1402 -0.3445
  993MOL0     O33951   6.675   7.632   2.617  0.1702 -0.2255 -0.4101
  993MOL0     C33952   6.538   7.614   2.625  0.0508 -0.3048  0.1239
  993MOL0     C33953   6.437   7.706   2.665 -0.3025  0.7673  0.3838
  993MOL0     C33954   6.303   7.663   2.678  0.1681  0.2221 -0.4013
  993MOL0     C33955   6.262   7.536   2.667  0.0807  0.1713  0.5610
  993MOL0     O33956   6.128   7.541   2.669  0.4394  0.5029  0.5973
  993MOL0     C33957   6.066   7.423   2.623 -0.5292  0.4510 -0.2470
  993MOL0     C33958   5.916   7.440   2.614 -0.6156  0.1088  0.3316
  993MOL0     C33959   5.856   7.313   2.564  1.4078  0.3791  0.0958
  993MOL0     C33960   5.711   7.329   2.579  0.0960  0.9192 -0.6597
  993MOL0     C33961   5.666   7.286   2.714  0.4365 -0.1801 -0.9444
  993MOL0     C33962   5.516   7.343   2.742 -0.9636  0.1126 -0.4071
  993MOL0     C33963   5.453   7.269   2.856 -0.6316 -0.1099 -0.3296
  993MOL0     C33964   5.324   7.334   2.904 -0.5533 -0.1893  0.3266
  993MOL0    Cl33965   5.189   7.317   2.787 -0.2878  0.1282  0.0958
  993MOL0     C33966   6.359   7.449   2.632 -0.3572  0.5110 -0.4602
  993MOL0     C33967   6.496   7.484   2.612 -0.3028  1.4537 -0.1899
  993MOL0     O33968   6.670   7.859   2.562 -0.7838  0.1738  0.1316
  993MOL0     C33969   6.955   7.655   2.628  0.7436 -0.0050 -0.8400
  993MOL0     C33970   7.096   7.649   2.620  0.0651  0.3034 -0.1046
  993MOL0     N33971   7.757   7.622   2.674  0.4359 -0.3348 -0.0581
  993MOL0     N33972   7.841   7.589   2.775 -0.1434  0.4604  0.5194
  993MOL0     C33973   8.970   7.450   3.038  0.0868 -0.0338 -0.5498
  993MOL0     C33974   9.099   7.405   3.037  0.1578 -0.3326  0.1829
  993MOL0     C33975   9.558   7.357   3.175 -0.5969 -0.1165 -0.1897
  993MOL0     C33976   9.677   7.416   3.222  0.0519 -0.5847 -0.5144
  993MOL0     C33977   9.800   7.359   3.176  0.8069  1.4590  0.0545
  993MOL0     C33978   9.808   7.243   3.093 -0.4038 -1.3494 -0.6634
  993MOL0     O33979   9.918   7.183   3.057 -0.9022  0.1454 -0.4613
  993MOL0     C33980  10.050   7.228   3.107 -0.0569  0.1418  0.0203
  993MOL0     C33981  10.154   7.149   3.030  0.2722 -0.9293  0.1042
  993MOL0     C33982  10.176   7.214   2.895  0.4493  0.1277  0.4524
  993MOL0     C33983  10.286   7.125   2.818 -0.9203 -0.7744  1.1141
  993MOL0     C33984  10.338   7.213   2.708 -0.0230 -0.5223  0.0441
  993MOL0     C33985  10.346   7.274   2.601 -0.1689  0.1324 -0.2553
  993MOL0     C33986   9.686   7.184   3.065 -0.4154 -0.9035 -0.8546
  993MOL0     C33987   9.561   7.237   3.104  0.8078 -0.1866 -0.0301
  993MOL0     H33988   9.230   7.601   3.289  1.5768 -0.9468 -0.8764
  993MOL0     H33989   8.993   7.634   3.321  0.5384 -0.2899  1.4266
  993MOL0     H33990   8.646   7.578   3.272  0.9517 -1.6708 -0.2608
  993MOL0     H33991   8.792   7.682   3.305 -0.4568 -1.3117  1.0459
  993MOL0     H33992   8.654   7.828   3.224 -0.1300 -2.7312  1.3952
  993MOL0     H33993   8.765   7.785   3.092  0.4096  0.2162  0.2043
  993MOL0     H33994   8.545   7.816   2.982 -0.0020  0.1595 -0.1131
  993MOL0     H33995   8.572   7.638   3.005 -0.3733 -0.2994  0.4199
  993MOL0     H33996   8.398   7.648   3.188 -1.4287  1.8504  2.2401
  993MOL0     H33997   8.402   7.827   3.172 -1.5423  0.2106 -0.6780
  993MOL0     H33998   8.322   7.824   2.964 -0.9832  2.1688  2.6187
  993MOL0     H33999   8.327   7.655   2.934  0.0702 -1.7505  1.2202
  993MOL0     H34000   8.168   7.618   3.129  0.0579  0.2070 -0.2256
  993MOL0     H34001   8.156   7.780   3.158 -2.4943  1.0086 -0.7309
  993MOL0     H34002   7.978   7.697   3.032  0.5472 -1.6029 -0.3958
  993MOL0     H34003   8.051   7.841   2.959 -1.2720 -0.9022 -0.7842
  993MOL0     H34004   8.080   7.545   2.886 -0.8570 -0.2545 -1.6033
  993MOL0     H34005   8.161   7.673   2.796 -1.1763 -0.3861 -1.3622
  993MOL0     H34006   8.001   7.837   2.631 -0.8309  1.0806 -1.0941
  993MOL0     H34007   7.758   7.909   2.496 -1.7844  0.7275 -1.8679
  993MOL0     H34008   7.773   7.764   2.401  0.9281 -0.8862  1.4100
  993MOL0     H34009   7.564   7.674   2.490  1.1474 -0.8104 -1.1858
  993MOL0     H34010   7.553   7.822   2.395  2.0578  3.3451  1.1033
  993MOL0     H34011   7.579   7.960   2.598  2.2590 -1.7254 -1.8147
  993MOL0     H34012   7.546   7.820   2.708 -2.9966 -2.0095  0.4364
  993MOL0     H34013   7.344   7.946   2.507 -0.9775  0.0552 -0.6172
  993MOL0     H34014   7.323   7.951   2.674 -4.0102 -2.2464 -1.0807
  993MOL0     H34015   7.146   7.954   2.506 -1.4390  0.1473 -1.0693
  993MOL0     H34016   6.827   8.042   2.486 -0.8769  0.5821 -1.2570
  993MOL0     H34017   6.971   8.041   2.396  1.5555 -2.2679  0.2203
  993MOL0     H34018   6.838   7.934   2.347 -1.3601 -0.0383  2.0219
  993MOL0     H34019   6.472   7.807   2.684  0.2529  1.4840 -3.4828
  993MOL0     H34020   6.242   7.752   2.688  0.4106  0.5374 -1.5266
  993MOL0     H34021   6.103   7.400   2.523  2.7264 -2.2841  1.3956
  993MOL0     H34022   6.083   7.337   2.687 -2.0270 -0.9228 -1.6037
  993MOL0     H34023   5.884   7.473   2.714  0.3552  2.1008  0.0414
  993MOL0     H34024   5.901   7.521   2.542 -1.4074 -0.5290 -0.2347
  993MOL0     H34025   5.893   7.225   2.618 -0.2624 -0.3739  0.0770
  993MOL0     H34026   5.885   7.291   2.460 -2.6661 -0.7961 -0.9847
  993MOL0     H34027   5.678   7.433   2.574 -0.5058  0.9512  2.3164
  993MOL0     H34028   5.657   7.268   2.506 -0.7956 -1.7797  2.0164
  993MOL0     H34029   5.728   7.329   2.794 -0.2868  0.4978 -0.7389
  993MOL0     H34030   5.667   7.177   2.721 -4.5795 -0.3943 -0.5174
  993MOL0     H34031   5.511   7.450   2.759  0.5578  0.5837 -2.4780
  993MOL0     H34032   5.466   7.316   2.648  0.0045 -2.1314 -0.3510
  993MOL0     H34033   5.524   7.269   2.939 -0.2464  0.5104 -0.6490
  993MOL0     H34034   5.432   7.166   2.825  0.7582  0.6310 -4.3692
  993MOL0     H34035   5.339   7.441   2.922 -2.2604  0.4031 -1.4886
  993MOL0     H34036   5.294   7.289   2.999 -1.2700  3.3814  1.9775
  993MOL0     H34037   6.332   7.344   2.630 -1.6534  0.8342 -0.8521
  993MOL0     H34038   6.571   7.411   2.581  0.3973  1.9391  0.3262
  993MOL0     H34039   6.901   7.585   2.691 -1.7582  4.3144  2.4285
  993MOL0     H34040   7.159   7.564   2.647  1.1182  1.1435  0.1479
  993MOL0     H34041   8.896   7.420   2.964 -0.8584 -2.9159  1.4043
  993MOL0     H34042   9.120   7.332   2.960 -1.9247  0.9813 -1.7305
  993MOL0     H34043   9.670   7.494   3.297 -0.3052 -1.5820  0.5123
  993MOL0     H34044   9.884   7.419   3.206  1.7786  0.2752 -0.2102
  993MOL0     H34045  10.066   7.335   3.090  2.7033 -0.0403  0.9230
  993MOL0     H34046  10.061   7.207   3.214 -2.7307 -1.7318  0.0359
  993MOL0     H34047  10.120   7.046   3.019 -3.1851  0.1655 -0.5211
  993MOL0     H34048  10.248   7.154   3.085  0.2958 -2.2519  0.2111
  993MOL0     H34049  10.202   7.320   2.896 -0.3229  0.3276 -0.0623
  993MOL0     H34050  10.084   7.199   2.838  1.0015  1.0778 -0.7290
  993MOL0     H34051  10.241   7.032   2.782  0.1926 -0.2266 -1.9629
  993MOL0     H34052  10.363   7.102   2.892 -1.2310 -2.0199  1.0710
  993MOL0     H34053  10.354   7.322   2.505 -0.7267  0.6456 -0.0512
  993MOL0     H34054   9.678   7.093   3.008  0.3709  1.0043 -4.2687
  993MOL0     H34055   9.469   7.195   3.065  1.9357 -0.2247 -2.9016
  994MOL0     O34056   2.255   4.725   1.818  0.3112  1.1653  0.0663
  994MOL0     C34057   2.279   4.836   1.859 -0.0858 -0.1676 -0.2419
  994MOL0     O34058   2.187   4.937   1.898  0.2333  0.2717 -0.0761
  994MOL0     C34059   2.055   4.908   1.920 -0.6403  0.1299  0.4758
  994MOL0     C34060   2.010   4.895   2.055  0.4899  0.9278  0.3289
  994MOL0     C34061   1.874   4.863   2.073  0.5198  0.5098  0.3925
  994MOL0     C34062   1.782   4.840   1.967  0.5853  0.3697 -0.9874
  994MOL0     O34063   1.655   4.817   2.008  0.1274 -0.5793 -0.1551
  994MOL0     C34064   1.548   4.876   1.932  0.3257 -0.8921 -0.4315
  994MOL0     C34065   1.418   4.794   1.943  0.2374  0.4771  0.0717
  994MOL0     C34066   1.290   4.871   1.915 -0.3166 -0.1417 -0.4395
  994MOL0     C34067   1.171   4.782   1.938 -0.3946 -0.7864 -0.4309
  994MOL0     C34068   1.041   4.847   1.886 -1.1534 -0.2673 -0.2556
  994MOL0     C34069   0.917   4.766   1.903 -0.6670  0.4542  0.1389
  994MOL0     C34070   0.802   4.847   1.850  0.3612 -0.4553  0.5385
  994MOL0     C34071   0.666   4.790   1.886  0.1339 -0.7261  0.2117
  994MOL0     N34072   0.554   4.876   1.834  0.2130  0.5339 -0.3168
  994MOL0     C34073   0.487   4.974   1.898 -0.5452 -0.2237  0.2468
  994MOL0     C34074   0.392   5.015   1.805  0.0907 -0.0854 -0.1547
  994MOL0     C34075   0.296   5.129   1.833  1.1284 -0.4305  0.7852
  994MOL0     C34076   0.185   5.083   1.929 -0.4155  0.8745  0.3855
  994MOL0     C34077   0.117   5.212   1.978  0.0507  0.4692  0.1288
  994MOL0     C34078  -0.003   5.181   2.066 -0.6336 -0.3028  0.1577
  994MOL0     O34079  -0.041   5.309   2.117  0.4056  0.6605 -0.2665
  994MOL0     C34080  -0.170   5.352   2.092 -0.2569 -0.2440  1.2421
  994MOL0     C34081  -0.245   5.308   1.982 -0.0241 -0.9972  0.5682
  994MOL0     C34082  -0.378   5.352   1.962 -0.4171 -0.1082  0.1278
  994MOL0     C34083  -0.458   5.296   1.851  0.1386 -0.0586  0.1095
  994MOL0     C34084  -0.428   5.451   2.046  0.8540 -0.5984 -1.0569
  994MOL0     C34085  -0.561   5.507   2.032 -0.0525  0.6781  0.9683
  994MOL0     O34086  -0.606   5.525   1.901  0.7036  0.3754  0.9658
  994MOL0     C34087  -0.728   5.580   1.881  0.1533 -0.0980  0.4683
  994MOL0     C34088  -0.739   5.698   1.795 -0.2083  0.0364  1.1172
  994MOL0     C34089  -0.861   5.760   1.765 -0.4128 -0.3897  0.0351
  994MOL0     C34090  -0.976   5.711   1.822 -0.8679  0.0289 -0.3800
  994MOL0     O34091  -1.092   5.776   1.824  0.1580  0.5352 -0.2447
  994MOL0     C34092  -1.221   5.710   1.837  0.4105  0.4312  0.0137
  994MOL0     C34093  -1.331   5.795   1.771 -0.4328 -0.6219  0.2286
  994MOL0     C34094  -1.467   5.728   1.782 -0.2392  0.5257 -1.1030
  994MOL0     C34095  -1.583   5.815   1.733 -0.4747  0.1292  1.1247
  994MOL0     C34096  -1.714   5.732   1.741  0.3311  0.1170 -0.5913
  994MOL0     C34097  -1.817   5.804   1.647 -0.4958 -0.2001 -0.8952
  994MOL0     C34098  -1.960   5.781   1.696 -0.1624 -0.3355 -0.1249
  994MOL0     C34099  -2.051   5.876   1.613 -0.0832 -0.0908  0.2395
  994MOL0    Cl34100  -2.206   5.789   1.630 -0.4763 -0.2842  0.0749
  994MOL0     C34101  -0.964   5.587   1.895  0.2421  0.6739 -0.1647
  994MOL0     C34102  -0.843   5.523   1.933  1.0800 -0.5347 -0.0167
  994MOL0     O34103  -0.611   5.567   2.130  0.4341 -0.0945 -0.9581
  994MOL0     C34104  -0.349   5.510   2.146  0.0983  0.3283 -0.0122
  994MOL0     C34105  -0.223   5.465   2.168 -0.2437  0.1113  0.5983
  994MOL0     N34106   0.409   4.943   1.687 -0.2888  0.0608 -0.3739
  994MOL0     N34107   0.498   4.856   1.713  0.6676  0.1801  0.0818
  994MOL0     C34108   1.829   4.847   1.838  0.3993  0.4894 -0.0325
  994MOL0     C34109   1.964   4.879   1.813  0.1121 -0.1713 -0.6144
  994MOL0     C34110   2.417   4.872   1.849 -0.4945 -1.1291  0.5338
  994MOL0     C34111   2.456   4.998   1.804 -0.0225 -0.3182 -0.3384
  994MOL0     C34112   2.589   5.033   1.806 -0.8731  0.1981 -0.5826
  994MOL0     C34113   2.696   4.943   1.845  0.4986  0.6952 -0.0993
  994MOL0     O34114   2.824   4.977   1.856 -0.3187 -0.2455  0.1100
  994MOL0     C34115   2.878   5.102   1.810 -0.0522 -0.9241 -0.1364
  994MOL0     C34116   3.028   5.104   1.842 -0.1786  0.2929  0.4612
  994MOL0     C34117   3.063   5.094   1.988 -0.6718  0.0699  0.1852
  994MOL0     C34118   3.210   5.053   2.001 -0.4349  0.5214 -1.2739
  994MOL0     C34119   3.306   5.156   1.967 -0.1202  0.2995 -0.0560
  994MOL0     C34120   3.388   5.248   1.928  0.3247  0.5467  0.4739
  994MOL0     C34121   2.653   4.822   1.887  0.4491  0.2142  0.1137
  994MOL0     C34122   2.517   4.783   1.887 -0.0854 -0.4604  0.0100
  994MOL0     H34123   2.081   4.917   2.135 -1.6385 -0.0023  2.6005
  994MOL0     H34124   1.842   4.861   2.177 -0.5540 -1.9269  0.0881
  994MOL0     H34125   1.523   4.973   1.976  1.0219 -1.2100  0.6883
  994MOL0     H34126   1.574   4.891   1.827 -2.1473 -0.0621 -1.0101
  994MOL0     H34127   1.425   4.708   1.876  1.3970  1.1329 -0.6792
  994MOL0     H34128   1.417   4.758   2.046 -0.4338  1.1512  0.3156
  994MOL0     H34129   1.284   4.955   1.985 -0.2477  1.4418 -2.2541
  994MOL0     H34130   1.287   4.905   1.811 -1.2187 -0.6775 -0.5994
  994MOL0     H34131   1.195   4.691   1.883 -0.3104 -1.1916  0.2668
  994MOL0     H34132   1.170   4.761   2.045  0.3239  2.0871  0.2295
  994MOL0     H34133   1.030   4.951   1.916  0.3440 -0.2305  0.2733
  994MOL0     H34134   1.053   4.858   1.778  1.0663 -3.3631 -0.4592
  994MOL0     H34135   0.924   4.667   1.856 -1.0877  0.4998 -0.0259
  994MOL0     H34136   0.907   4.755   2.012  1.0187  0.8681  0.3607
  994MOL0     H34137   0.810   4.945   1.898  0.2039  0.5533 -1.3723
  994MOL0     H34138   0.799   4.856   1.741 -2.3716 -1.5844  0.4519
  994MOL0     H34139   0.650   4.786   1.994 -1.7752  1.9261  0.1411
  994MOL0     H34140   0.661   4.688   1.848 -0.8547 -0.7844  0.4662
  994MOL0     H34141   0.502   5.020   1.995  0.0102  1.7224 -0.6888
  994MOL0     H34142   0.349   5.217   1.870 -0.2026  1.0203 -0.6067
  994MOL0     H34143   0.257   5.165   1.737 -0.1610 -2.7367  0.3788
  994MOL0     H34144   0.225   5.030   2.016 -2.0299  0.4278  0.8817
  994MOL0     H34145   0.115   5.022   1.873  1.6672  0.2836 -1.7202
  994MOL0     H34146   0.082   5.272   1.893  0.3292 -0.8004 -0.9249
  994MOL0     H34147   0.192   5.265   2.037  1.2216  1.6194 -2.2401
  994MOL0     H34148   0.028   5.123   2.153  1.1639  0.7167  0.2479
  994MOL0     H34149  -0.075   5.111   2.024 -0.5356 -0.2799 -0.0519
  994MOL0     H34150  -0.213   5.223   1.923  1.6825 -0.7921  1.1341
  994MOL0     H34151  -0.562   5.279   1.883  0.5089  0.7976  1.8732
  994MOL0     H34152  -0.466   5.376   1.777  1.9112 -0.5355 -0.6443
  994MOL0     H34153  -0.414   5.204   1.812  0.8481 -1.6638  4.1898
  994MOL0     H34154  -0.641   5.726   1.759 -0.7946  1.0307  0.2623
  994MOL0     H34155  -0.876   5.858   1.720  2.3156  1.4500  2.7195
  994MOL0     H34156  -1.220   5.606   1.803 -2.6980 -0.1090  1.2896
  994MOL0     H34157  -1.244   5.713   1.943  1.2923 -1.2349  0.2882
  994MOL0     H34158  -1.332   5.891   1.824  1.5734 -0.6835  0.4696
  994MOL0     H34159  -1.310   5.816   1.666 -3.1229 -1.7434 -0.6225
  994MOL0     H34160  -1.495   5.713   1.886 -0.5675  3.4353 -0.6737
  994MOL0     H34161  -1.463   5.631   1.732 -2.1730 -0.0006 -0.3108
  994MOL0     H34162  -1.583   5.899   1.803 -1.8192  1.2800 -0.1727
  994MOL0     H34163  -1.552   5.848   1.633  2.8207  0.6172  2.1906
  994MOL0     H34164  -1.749   5.736   1.845  1.3513  2.1993 -0.2710
  994MOL0     H34165  -1.692   5.625   1.732  2.1718 -0.1350  4.0677
  994MOL0     H34166  -1.791   5.911   1.647 -2.6181  0.3681 -0.3776
  994MOL0     H34167  -1.804   5.773   1.543 -0.8314 -0.0797 -0.9749
  994MOL0     H34168  -1.978   5.796   1.803 -2.3317  0.2941 -0.5185
  994MOL0     H34169  -1.990   5.678   1.672 -0.0856 -0.4544  0.2704
  994MOL0     H34170  -2.019   5.870   1.509  0.1135 -0.8761  0.3379
  994MOL0     H34171  -2.040   5.977   1.653 -1.9505 -1.0933  3.7187
  994MOL0     H34172  -1.057   5.547   1.933 -0.3833  0.7456 -1.5544
  994MOL0     H34173  -0.849   5.433   1.994 -0.8013 -0.3860  0.0786
  994MOL0     H34174  -0.387   5.584   2.216 -1.5788  0.6915 -1.2331
  994MOL0     H34175  -0.157   5.496   2.248 -1.3076  1.9527  0.8181
  994MOL0     H34176   1.774   4.819   1.749 -0.0111 -0.9038  0.6417
  994MOL0     H34177   2.007   4.878   1.714  0.2242  1.8966 -0.6296
  994MOL0     H34178   2.379   5.061   1.760  1.5955 -0.0707 -2.9851
  994MOL0     H34179   2.617   5.127   1.760 -0.9739 -0.3881 -1.9075
  994MOL0     H34180   2.873   5.107   1.701  1.8102  0.3350 -0.1940
  994MOL0     H34181   2.834   5.187   1.864  0.8980  0.3927 -1.3800
  994MOL0     H34182   3.071   5.199   1.809  0.6469  0.5226  2.1068
  994MOL0     H34183   3.065   5.025   1.777 -3.0543  0.2893 -1.3392
  994MOL0     H34184   3.005   5.013   2.034 -0.4740  0.6777  1.5399
  994MOL0     H34185   3.040   5.188   2.040  0.6140  0.3417  0.2819
  994MOL0     H34186   3.239   4.963   1.947  0.5058  0.1618 -0.2000
  994MOL0     H34187   3.236   5.028   2.104  0.8866  3.6641 -0.7592
  994MOL0     H34188   3.463   5.322   1.908  1.6743  0.7676  5.1253
  994MOL0     H34189   2.726   4.746   1.913 -0.3590 -0.2319  1.1806
  994MOL0     H34190   2.484   4.685   1.920  0.3161 -1.0774 -1.3781
  995MOL0     O34191   7.204   3.508   3.148 -0.0802 -0.0465  0.4602
  995MOL0     C34192   7.271   3.529   3.048 -0.2791  0.3941 -0.6457
  995MOL0     O34193   7.258   3.460   2.928 -1.3272  0.9433  0.3875
  995MOL0     C34194   7.173   3.359   2.906  0.4214 -0.0054 -0.2299
  995MOL0     C34195   7.038   3.385   2.879  0.6657 -0.0219 -1.2297
  995MOL0     C34196   6.941   3.284   2.847  0.2679  0.4230  0.3015
  995MOL0     C34197   6.998   3.156   2.817 -0.0421  0.3991  0.1585
  995MOL0     O34198   6.929   3.054   2.757 -0.0816  0.5287 -0.6090
  995MOL0     C34199   6.788   3.061   2.735  0.2161 -0.3217 -0.1909
  995MOL0     C34200   6.710   2.929   2.704 -0.7658 -0.2763 -0.1303
  995MOL0     C34201   6.775   2.859   2.591 -0.2730 -0.2749 -0.3839
  995MOL0     C34202   6.700   2.737   2.544 -0.0879 -0.3256  0.4849
  995MOL0     C34203   6.771   2.673   2.426 -0.3241 -0.4057  0.0739
  995MOL0     C34204   6.895   2.587   2.466 -0.7758  0.0564  0.1858
  995MOL0     C34205   6.990   2.574   2.342  1.0730 -0.3787  0.5417
  995MOL0     C34206   7.101   2.468   2.347 -0.5064 -0.3886  0.4543
  995MOL0     N34207   7.186   2.512   2.458  0.9600  0.4271 -0.5396
  995MOL0     C34208   7.209   2.429   2.565 -0.0871 -0.4610  0.3479
  995MOL0     C34209   7.316   2.497   2.622 -0.0924  0.0136  0.1877
  995MOL0     C34210   7.370   2.458   2.753  0.5405 -0.5852 -0.5723
  995MOL0     C34211   7.520   2.427   2.755  0.1111 -0.4120 -0.6808
  995MOL0     C34212   7.536   2.288   2.698 -0.6252 -0.4709  0.3435
  995MOL0     C34213   7.675   2.242   2.719  0.0803  0.2158  0.2763
  995MOL0     O34214   7.771   2.326   2.643  0.6794  0.4656 -0.1719
  995MOL0     C34215   7.900   2.287   2.635  0.0246  0.5334 -0.2977
  995MOL0     C34216   7.958   2.198   2.725 -0.4158 -0.3034  0.3402
  995MOL0     C34217   8.084   2.142   2.705 -0.8611 -0.2121  0.0834
  995MOL0     C34218   8.147   2.046   2.802  0.5939  0.4404 -0.3321
  995MOL0     C34219   8.155   2.188   2.587  0.0745  0.1923 -0.5674
  995MOL0     C34220   8.283   2.126   2.547 -0.2601 -0.6208  0.6433
  995MOL0     O34221   8.387   2.212   2.563 -0.2348 -0.2762 -0.0101
  995MOL0     C34222   8.508   2.164   2.603  0.1287  0.0971 -1.2691
  995MOL0     C34223   8.618   2.251   2.599 -0.1429  0.1418  0.3693
  995MOL0     C34224   8.747   2.218   2.641 -0.5390 -0.1602  0.8382
  995MOL0     C34225   8.770   2.081   2.690 -0.6413 -1.2252  0.0708
  995MOL0     O34226   8.892   2.035   2.732  0.0334 -0.2627  0.4677
  995MOL0     C34227   8.942   1.905   2.682  0.0847  0.0495  0.0537
  995MOL0     C34228   9.073   1.877   2.759 -0.2053  0.2849 -0.1083
  995MOL0     C34229   9.177   1.986   2.748  0.6677 -0.5609  0.1898
  995MOL0     C34230   9.279   1.968   2.854 -0.3559  0.3347 -0.8243
  995MOL0     C34231   9.399   2.061   2.856 -0.0583 -0.8812  0.4039
  995MOL0     C34232   9.495   2.026   2.969  0.4619 -0.5941 -0.6414
  995MOL0     C34233   9.614   2.114   2.971  0.2310  0.1903  0.1585
  995MOL0     C34234   9.708   2.070   3.082 -0.1196  0.3278  0.2655
  995MOL0    Cl34235   9.795   1.921   3.036 -0.3228  0.3031  0.0744
  995MOL0     C34236   8.653   2.004   2.699  0.5462  0.8569  0.2476
  995MOL0     C34237   8.524   2.041   2.673  0.1201  0.9687  0.1704
  995MOL0     O34238   8.294   2.019   2.485  0.1301  0.1087  0.0886
  995MOL0     C34239   8.105   2.289   2.509  0.6455 -0.8691  0.2613
  995MOL0     C34240   7.977   2.333   2.535 -0.7830 -0.4557  0.2557
  995MOL0     N34241   7.357   2.603   2.547 -0.6058 -0.3451 -0.4236
  995MOL0     N34242   7.273   2.618   2.451  0.1544  1.2586  0.3372
  995MOL0     C34243   7.135   3.132   2.837  0.6497 -0.1087  0.4044
  995MOL0     C34244   7.221   3.235   2.881  0.2751 -0.0296 -0.5232
  995MOL0     C34245   7.386   3.612   3.073  0.4929 -0.0828  0.3307
  995MOL0     C34246   7.460   3.661   2.973 -0.0603 -0.4291  0.1885
  995MOL0     C34247   7.577   3.738   2.999  0.8328 -0.1102 -0.2560
  995MOL0     C34248   7.608   3.765   3.134  0.6391  0.0658  0.0383
  995MOL0     O34249   7.716   3.834   3.177 -0.1799  0.0409 -0.3179
  995MOL0     C34250   7.800   3.905   3.087  0.2574 -0.0162 -0.1801
  995MOL0     C34251   7.729   4.027   3.030 -0.2254  0.0084 -0.2027
  995MOL0     C34252   7.707   4.139   3.131 -0.3754 -0.3957  0.3488
  995MOL0     C34253   7.594   4.116   3.237  0.1575 -0.4678  0.3400
  995MOL0     C34254   7.458   4.121   3.175  0.2328  0.0858 -0.2269
  995MOL0     C34255   7.344   4.125   3.118 -0.0027  0.8157 -0.0083
  995MOL0     C34256   7.531   3.723   3.236  0.1882  0.8250  0.1157
  995MOL0     C34257   7.416   3.653   3.205  0.4248  1.3194  0.4392
  995MOL0     H34258   7.008   3.488   2.892 -2.7640 -0.6716 -2.8134
  995MOL0     H34259   6.839   3.318   2.828  0.7749  1.4464 -0.7219
  995MOL0     H34260   6.726   3.118   2.806 -2.3971 -3.1564 -0.0015
  995MOL0     H34261   6.793   3.127   2.648 -1.4271 -0.6783 -0.5855
  995MOL0     H34262   6.712   2.876   2.800  1.7535  1.6355  1.0255
  995MOL0     H34263   6.607   2.958   2.684 -1.6626 -1.5123  2.2814
  995MOL0     H34264   6.780   2.926   2.505 -0.5368  0.2148 -0.0255
  995MOL0     H34265   6.875   2.821   2.615  0.9054  1.0395 -2.7997
  995MOL0     H34266   6.686   2.667   2.627 -1.8407  1.2841  1.6572
  995MOL0     H34267   6.595   2.749   2.516 -0.2991 -1.8624  0.5698
  995MOL0     H34268   6.699   2.602   2.384  1.0031 -1.0361 -1.2010
  995MOL0     H34269   6.790   2.743   2.344 -0.0571 -0.5298  0.0283
  995MOL0     H34270   6.953   2.630   2.548 -0.3106  1.5177 -0.8457
  995MOL0     H34271   6.875   2.481   2.481  3.5085 -1.1175 -0.9056
  995MOL0     H34272   6.940   2.574   2.245  3.8056  2.0748 -1.0641
  995MOL0     H34273   7.039   2.672   2.335  1.8057 -0.8546 -1.9961
  995MOL0     H34274   7.152   2.470   2.250 -1.4454 -1.3457 -0.0843
  995MOL0     H34275   7.065   2.366   2.361  1.8022 -1.3815 -0.3936
  995MOL0     H34276   7.148   2.347   2.601 -0.3786 -0.5487 -0.3389
  995MOL0     H34277   7.354   2.541   2.823  1.5940 -1.5331  0.8688
  995MOL0     H34278   7.313   2.374   2.796  1.1467  0.1997  1.9526
  995MOL0     H34279   7.542   2.431   2.862 -0.3596 -1.0658 -0.5531
  995MOL0     H34280   7.570   2.506   2.699 -2.2488 -1.1860 -4.2314
  995MOL0     H34281   7.500   2.274   2.596 -1.5622 -0.3951  0.6550
  995MOL0     H34282   7.475   2.228   2.766  0.2097 -3.4293 -1.3463
  995MOL0     H34283   7.676   2.142   2.674 -0.1012  0.7328 -0.8897
  995MOL0     H34284   7.701   2.240   2.825 -3.4527  2.2082  1.3354
  995MOL0     H34285   7.895   2.166   2.807  1.0482 -1.5071  1.0470
  995MOL0     H34286   8.100   2.032   2.900  2.0838 -1.1660  0.1892
  995MOL0     H34287   8.177   1.957   2.746  1.5854  2.0415 -2.4828
  995MOL0     H34288   8.247   2.077   2.832  0.5270 -0.2438  0.6473
  995MOL0     H34289   8.606   2.356   2.574  0.1147 -0.0891 -0.7832
  995MOL0     H34290   8.831   2.284   2.624 -0.1956 -0.4351  1.4517
  995MOL0     H34291   8.870   1.828   2.710  0.5544 -0.1843  0.6289
  995MOL0     H34292   8.961   1.891   2.575 -0.4959 -3.1508  0.2859
  995MOL0     H34293   9.032   1.857   2.859  1.1348 -2.3351  0.0347
  995MOL0     H34294   9.112   1.784   2.717 -1.5964 -1.1364  1.5873
  995MOL0     H34295   9.131   2.084   2.735  0.2206 -0.8507 -0.4448
  995MOL0     H34296   9.226   1.985   2.650  2.1202  0.5916  0.8688
  995MOL0     H34297   9.234   1.965   2.954  3.1062  1.7119  0.9461
  995MOL0     H34298   9.325   1.869   2.846 -2.5606 -1.0646  1.9113
  995MOL0     H34299   9.364   2.164   2.847  1.6238 -0.2668  0.3990
  995MOL0     H34300   9.453   2.030   2.766 -0.0102 -1.7569  0.7306
  995MOL0     H34301   9.440   2.031   3.064  1.4594  0.6247 -0.1061
  995MOL0     H34302   9.532   1.923   2.964  0.3858 -0.6012 -1.1323
  995MOL0     H34303   9.580   2.217   2.988  1.4760  0.6150  0.1688
  995MOL0     H34304   9.655   2.108   2.870 -1.2315 -0.6521 -0.4214
  995MOL0     H34305   9.654   2.047   3.175  0.2042  0.6542  0.5397
  995MOL0     H34306   9.779   2.150   3.107 -3.3958  2.8553  2.3589
  995MOL0     H34307   8.660   1.907   2.747 -1.0074 -0.2258 -1.5872
  995MOL0     H34308   8.434   1.981   2.684  0.3732 -0.1567 -2.8998
  995MOL0     H34309   8.151   2.337   2.423  0.5501  0.7013  1.0426
  995MOL0     H34310   7.932   2.400   2.462 -1.8809  0.2397  1.5192
  995MOL0     H34311   7.170   3.035   2.804  0.5684 -0.3578  1.0446
  995MOL0     H34312   7.327   3.217   2.894  0.0783 -1.4069 -0.6497
  995MOL0     H34313   7.432   3.643   2.870 -3.9921  2.8619  0.4480
  995MOL0     H34314   7.628   3.783   2.914  1.2277  0.0874  0.0841
  995MOL0     H34315   7.885   3.948   3.140 -0.3766 -1.7710  2.4420
  995MOL0     H34316   7.847   3.845   3.008 -1.0205 -0.4498 -0.6302
  995MOL0     H34317   7.630   3.999   2.993  0.7635 -1.7704 -1.7093
  995MOL0     H34318   7.787   4.062   2.943  1.6197  0.6024  1.1930
  995MOL0     H34319   7.687   4.233   3.079 -0.5987  1.4100  3.4576
  995MOL0     H34320   7.805   4.155   3.177 -0.5655 -2.1175  1.4399
  995MOL0     H34321   7.598   4.192   3.315  0.9472 -1.3311  1.1795
  995MOL0     H34322   7.605   4.022   3.292 -1.4719 -2.3080 -2.2507
  995MOL0     H34323   7.245   4.126   3.077 -0.3211  1.8453  0.7483
  995MOL0     H34324   7.550   3.751   3.339  0.6830  1.2018 -0.0764
  995MOL0     H34325   7.358   3.625   3.293 -0.6378 -1.9338 -1.1422
  996MOL0     O34326   9.912  10.159   4.631  0.5930 -0.5901  0.1420
  996MOL0     C34327   9.957  10.247   4.555 -0.7109 -0.2265 -0.3939
  996MOL0     O34328   9.884  10.337   4.486 -0.0532  0.2763  0.2292
  996MOL0     C34329   9.753  10.322   4.461  0.0147  0.0180  0.3485
  996MOL0     C34330   9.699  10.242   4.359  0.4545  0.0907  0.3629
  996MOL0     C34331   9.558  10.227   4.350 -0.1561  0.6138 -0.4771
  996MOL0     C34332   9.475  10.311   4.425 -0.4232  0.0914 -0.2151
  996MOL0     O34333   9.342  10.317   4.411  0.2629  0.2162 -0.6331
  996MOL0     C34334   9.266  10.208   4.356 -0.1744  0.2488 -0.1013
  996MOL0     C34335   9.115  10.250   4.345  0.1457 -0.0296 -0.2048
  996MOL0     C34336   9.078  10.345   4.472  0.2375 -0.0180  0.5801
  996MOL0     C34337   8.929  10.384   4.471 -0.5625 -0.5390 -0.3051
  996MOL0     C34338   8.893  10.436   4.610 -0.6464  0.1612  0.1978
  996MOL0     C34339   8.760  10.507   4.600 -0.2378 -0.1425  0.4233
  996MOL0     C34340   8.734  10.580   4.730 -0.4634  0.2969 -0.7173
  996MOL0     C34341   8.716  10.497   4.858 -0.9513  0.2283 -0.3161
  996MOL0     N34342   8.605  10.403   4.837 -0.2572  0.1138  0.2514
  996MOL0     C34343   8.470  10.431   4.838  0.9869  0.1834  1.2820
  996MOL0     C34344   8.407  10.309   4.820 -0.4393 -0.4099 -0.3192
  996MOL0     C34345   8.251  10.286   4.799  0.0802  0.6927 -0.5192
  996MOL0     C34346   8.158  10.398   4.865 -0.6220  0.2804  1.3819
  996MOL0     C34347   8.016  10.367   4.836 -0.0731 -0.4798 -0.0083
  996MOL0     C34348   7.927  10.454   4.915 -0.0915 -0.5566  0.1248
  996MOL0     O34349   7.807  10.490   4.841  0.1192  0.4212 -0.5461
  996MOL0     C34350   7.701  10.541   4.914 -0.0571 -0.6283  0.6557
  996MOL0     C34351   7.696  10.569   5.052  0.1609 -0.3981 -0.1463
  996MOL0     C34352   7.589  10.625   5.122 -0.8970 -0.0854  0.0581
  996MOL0     C34353   7.602  10.634   5.268 -0.4655 -0.1370 -0.1965
  996MOL0     C34354   7.474  10.651   5.044 -0.1010 -0.6972  0.4931
  996MOL0     C34355   7.345  10.703   5.095 -0.0024  0.2081  0.0096
  996MOL0     O34356   7.245  10.731   5.001 -0.8323 -0.0674  0.1660
  996MOL0     C34357   7.126  10.767   5.044  0.7268 -1.0206 -0.8787
  996MOL0     C34358   7.100  10.903   5.038  0.6027  0.8961 -0.3678
  996MOL0     C34359   6.972  10.959   5.068  1.0755 -0.1928  0.4381
  996MOL0     C34360   6.868  10.869   5.095  0.2916 -0.4603 -0.0323
  996MOL0     O34361   6.746  10.916   5.133  0.1746 -0.2690  0.2530
  996MOL0     C34362   6.686  11.022   5.046 -0.3562 -0.8580 -0.5802
  996MOL0     C34363   6.561  11.082   5.113 -0.2862  0.2203 -0.0530
  996MOL0     C34364   6.457  10.970   5.140  1.0031 -0.1600  0.1654
  996MOL0     C34365   6.338  11.052   5.200  0.0268  0.8365  0.3545
  996MOL0     C34366   6.217  10.955   5.215 -0.2424  0.5235 -0.6008
  996MOL0     C34367   6.107  11.031   5.297  0.5615  0.2898  0.4547
  996MOL0     C34368   5.984  10.941   5.309  0.3126  0.0613 -0.5777
  996MOL0     C34369   5.860  10.997   5.378 -0.2091  0.2354 -0.9232
  996MOL0    Cl34370   5.729  10.877   5.379  0.3215 -0.1428 -0.1092
  996MOL0     C34371   6.895  10.727   5.094 -0.3267  0.6295 -0.0204
  996MOL0     C34372   7.019  10.677   5.065  0.0760  0.5029 -0.3700
  996MOL0     O34373   7.331  10.712   5.214  0.0361  0.3354 -0.0715
  996MOL0     C34374   7.480  10.642   4.906  0.1745  0.2370  0.5814
  996MOL0     C34375   7.594  10.589   4.841  0.6082 -0.2486 -0.3488
  996MOL0     N34376   8.504  10.214   4.806 -0.0990  1.1423  0.2278
  996MOL0     N34377   8.622  10.267   4.826 -0.2439  0.2097 -0.0776
  996MOL0     C34378   9.532  10.399   4.518  0.3957  0.2132 -0.4341
  996MOL0     C34379   9.670  10.400   4.542  0.5781 -1.0309  0.0535
  996MOL0     C34380  10.104  10.265   4.544  0.2463  0.0986  0.4714
  996MOL0     C34381  10.196  10.186   4.609 -1.4171  0.3331 -0.8562
  996MOL0     C34382  10.334  10.210   4.603 -0.8713 -0.0731  0.2895
  996MOL0     C34383  10.384  10.321   4.538  0.4490  0.1307  0.6677
  996MOL0     O34384  10.517  10.328   4.524 -0.3894 -0.3503 -0.1766
  996MOL0     C34385  10.565  10.461   4.494  0.6150  0.4132 -0.3227
  996MOL0     C34386  10.715  10.449   4.532  0.5476  1.6788 -0.2150
  996MOL0     C34387  10.777  10.589   4.510  0.1984 -0.5819  0.1601
  996MOL0     C34388  10.921  10.590   4.543 -1.0797 -0.1628 -0.2389
  996MOL0     C34389  11.000  10.492   4.467 -0.7400 -0.1605  0.3897
  996MOL0     C34390  11.062  10.424   4.388  0.3397 -0.0689  0.2012
  996MOL0     C34391  10.301  10.404   4.467  0.3215 -0.4129  0.4887
  996MOL0     C34392  10.159  10.375   4.473 -0.0646  0.2174 -0.1729
  996MOL0     H34393   9.760  10.174   4.300 -0.1020  0.4863 -0.6975
  996MOL0     H34394   9.531  10.142   4.288 -0.7339 -1.2187  2.0635
  996MOL0     H34395   9.302  10.186   4.255  0.8322 -0.3459  0.3794
  996MOL0     H34396   9.274  10.120   4.420 -1.1330  1.0432  1.1689
  996MOL0     H34397   9.093  10.302   4.251 -0.4211 -2.0414 -1.2391
  996MOL0     H34398   9.064  10.153   4.342  1.6307 -0.9141  1.3027
  996MOL0     H34399   9.106  10.282   4.557  5.0340  0.8526 -0.0665
  996MOL0     H34400   9.146  10.431   4.472  1.1617 -0.7003  1.9994
  996MOL0     H34401   8.930  10.469   4.401 -0.1318  0.0361  0.3820
  996MOL0     H34402   8.858  10.310   4.433  0.5376 -0.9147 -1.7262
  996MOL0     H34403   8.898  10.355   4.683 -2.6351 -1.9461 -1.8795
  996MOL0     H34404   8.963  10.519   4.626 -0.2117 -0.2569  0.5084
  996MOL0     H34405   8.752  10.578   4.518 -2.7266 -0.9449 -0.1132
  996MOL0     H34406   8.683  10.431   4.582  0.6972 -0.6118 -1.9681
  996MOL0     H34407   8.808  10.661   4.741  1.2232 -1.0200 -1.7756
  996MOL0     H34408   8.636  10.625   4.714 -1.4031 -1.2596  0.4069
  996MOL0     H34409   8.692  10.567   4.938 -0.0733  1.1100 -0.8020
  996MOL0     H34410   8.806  10.440   4.884 -0.4749  0.7843 -0.7140
  996MOL0     H34411   8.436  10.533   4.852  1.5060  0.1383  3.1161
  996MOL0     H34412   8.227  10.258   4.696  1.3142 -0.9505 -0.3899
  996MOL0     H34413   8.218  10.196   4.851 -0.4372 -0.1566 -2.2304
  996MOL0     H34414   8.186  10.487   4.809  0.3472 -1.6108 -1.3931
  996MOL0     H34415   8.179  10.409   4.972 -0.5977 -1.8271  1.6431
  996MOL0     H34416   7.987  10.262   4.842 -1.3272 -0.0729  1.8104
  996MOL0     H34417   7.994  10.397   4.733  1.2781  0.8077  0.0503
  996MOL0     H34418   7.971  10.548   4.949 -1.4123  0.1462 -0.0299
  996MOL0     H34419   7.918  10.397   5.008  2.2320 -1.2560 -0.0150
  996MOL0     H34420   7.777  10.535   5.116  0.4461 -1.0347 -0.8273
  996MOL0     H34421   7.689  10.582   5.307 -1.1364 -0.4505  0.9353
  996MOL0     H34422   7.626  10.735   5.304  1.0374 -0.8774  1.0059
  996MOL0     H34423   7.519  10.590   5.324  0.0830 -1.1052 -0.1152
  996MOL0     H34424   7.189  10.963   5.020  0.8073  0.8523  0.4268
  996MOL0     H34425   6.948  11.064   5.074 -3.4028 -0.7971 -2.3263
  996MOL0     H34426   6.753  11.107   5.044 -1.4994  0.3180  3.2577
  996MOL0     H34427   6.661  10.992   4.943 -1.7174 -1.9873  0.0460
  996MOL0     H34428   6.598  11.122   5.207 -0.8739  0.2041  0.1862
  996MOL0     H34429   6.522  11.163   5.051 -0.4829 -0.7560 -1.2515
  996MOL0     H34430   6.495  10.913   5.226 -0.4679  1.9145  2.3353
  996MOL0     H34431   6.427  10.918   5.049  0.1713  0.1328  0.2699
  996MOL0     H34432   6.370  11.090   5.297  1.7053 -3.0303  1.5185
  996MOL0     H34433   6.313  11.146   5.149 -1.2285  1.2854  1.7159
  996MOL0     H34434   6.244  10.861   5.262 -1.4228  0.4836  0.0061
  996MOL0     H34435   6.167  10.929   5.121 -1.1467  2.5483 -0.7321
  996MOL0     H34436   6.147  11.058   5.395  1.7908 -0.5382  0.2154
  996MOL0     H34437   6.083  11.119   5.236 -0.1916  0.5343  1.0834
  996MOL0     H34438   6.028  10.857   5.363  0.7682  0.9147  0.4288
  996MOL0     H34439   5.957  10.907   5.209  2.4231  2.9115 -2.2796
  996MOL0     H34440   5.824  11.088   5.329  3.1353  2.4969  0.4338
  996MOL0     H34441   5.899  11.021   5.477 -0.2919  3.9503 -1.6715
  996MOL0     H34442   6.812  10.666   5.128 -2.1570  3.0615  0.1879
  996MOL0     H34443   7.035  10.571   5.049 -0.5488  0.7848 -3.3801
  996MOL0     H34444   7.398  10.674   4.843  1.2524 -0.2290 -1.1039
  996MOL0     H34445   7.594  10.585   4.732  3.1266 -0.0655 -0.4217
  996MOL0     H34446   9.477  10.474   4.575  1.4547 -0.3489  1.4255
  996MOL0     H34447   9.735  10.455   4.609  0.5021 -1.1066  0.1907
  996MOL0     H34448  10.154  10.101   4.661  0.5658  0.9487  1.9452
  996MOL0     H34449  10.401  10.145   4.658 -0.4203  0.7035  0.6730
  996MOL0     H34450  10.548  10.502   4.394 -1.1459  1.7687  0.4709
  996MOL0     H34451  10.508  10.529   4.558 -2.3878 -2.3288  0.1958
  996MOL0     H34452  10.757  10.375   4.464 -0.3569  0.4296  0.5572
  996MOL0     H34453  10.718  10.426   4.639  0.8669 -0.0440 -0.5696
  996MOL0     H34454  10.723  10.660   4.574  1.6693  1.3564 -0.6356
  996MOL0     H34455  10.768  10.607   4.403 -1.0193 -1.4241  0.1023
  996MOL0     H34456  10.931  10.581   4.651  0.0659  0.3011 -0.2892
  996MOL0     H34457  10.953  10.695   4.543  1.0752 -0.7015  2.6554
  996MOL0     H34458  11.116  10.367   4.315  2.3242  0.2843  1.3124
  996MOL0     H34459  10.340  10.487   4.409  2.3086 -1.7408 -0.1969
  996MOL0     H34460  10.091  10.428   4.407  0.1629 -0.9115 -1.3550
  997MOL0     O34461   7.210  10.989   7.316  0.1678 -0.2236  0.9797
  997MOL0     C34462   7.216  11.084   7.396 -0.6759  0.5338 -0.2172
  997MOL0     O34463   7.298  11.088   7.510  0.8436 -0.2176 -0.7834
  997MOL0     C34464   7.413  11.014   7.495 -1.2206  0.3977 -0.2611
  997MOL0     C34465   7.497  11.010   7.382 -0.0887  0.5028  0.0810
  997MOL0     C34466   7.621  10.945   7.374  0.5966  0.3585 -1.2873
  997MOL0     C34467   7.665  10.874   7.489 -0.2051 -0.2576 -0.3879
  997MOL0     O34468   7.782  10.795   7.489  0.0833 -0.2729  0.5018
  997MOL0     C34469   7.881  10.812   7.378  1.1182  0.5122 -0.7196
  997MOL0     C34470   8.015  10.745   7.400 -0.3244  0.0074 -0.0249
  997MOL0     C34471   7.993  10.595   7.384  0.0481  0.1929  0.4853
  997MOL0     C34472   7.964  10.538   7.236 -0.4099 -0.1300  0.3129
  997MOL0     C34473   7.949  10.383   7.247 -0.0217 -0.0202  0.2386
  997MOL0     C34474   7.909  10.305   7.119 -0.6858 -1.1539 -0.4081
  997MOL0     C34475   7.784  10.363   7.056 -0.2952  1.1160 -0.7255
  997MOL0     C34476   7.764  10.286   6.919 -0.4240 -0.1269 -0.1309
  997MOL0     N34477   7.653  10.356   6.842 -0.2684  0.7729  0.4398
  997MOL0     C34478   7.630  10.492   6.821  0.3819  0.2557 -0.7791
  997MOL0     C34479   7.524  10.485   6.737  0.2586  0.5745 -0.2385
  997MOL0     C34480   7.468  10.612   6.687  0.2160 -0.2627 -0.2323
  997MOL0     C34481   7.347  10.593   6.592  0.4409 -0.7149  0.9501
  997MOL0     C34482   7.217  10.544   6.663  0.4847 -0.3081  0.3080
  997MOL0     C34483   7.097  10.577   6.581  0.3708  0.4825  0.0839
  997MOL0     O34484   7.082  10.721   6.574  0.3755 -0.5571 -0.7464
  997MOL0     C34485   6.955  10.775   6.582 -0.5347  0.1271 -0.4962
  997MOL0     C34486   6.906  10.869   6.489  0.5753  0.4021  0.4664
  997MOL0     C34487   6.774  10.923   6.505 -0.5451 -0.3146 -0.1415
  997MOL0     C34488   6.740  11.025   6.406  0.2009 -0.8855  0.1707
  997MOL0     C34489   6.690  10.881   6.613 -0.7198  0.4882  0.1023
  997MOL0     C34490   6.551  10.929   6.648  0.0891 -0.6786  0.1492
  997MOL0     O34491   6.479  10.870   6.747  0.1700 -0.4705  0.1837
  997MOL0     C34492   6.361  10.918   6.797 -0.0621 -0.0904  0.6034
  997MOL0     C34493   6.244  10.839   6.803 -0.2336  0.2269 -0.0417
  997MOL0     C34494   6.122  10.886   6.849 -0.8182  0.6067  0.4688
  997MOL0     C34495   6.108  11.020   6.898 -0.9038 -0.4535  0.1447
  997MOL0     O34496   5.998  11.087   6.940 -0.3938  0.5335  0.5449
  997MOL0     C34497   5.888  10.998   6.946  0.0629 -0.2391 -0.8949
  997MOL0     C34498   5.774  11.089   6.986  0.4604 -0.5089  0.1014
  997MOL0     C34499   5.632  11.031   6.972 -0.3423  0.2731 -0.6751
  997MOL0     C34500   5.536  11.140   6.940 -0.6997 -0.6054  0.2132
  997MOL0     C34501   5.397  11.084   6.915 -0.3545 -0.2470 -0.7513
  997MOL0     C34502   5.309  11.191   6.855 -0.1917  0.3136  0.0560
  997MOL0     C34503   5.198  11.102   6.782  0.2025 -0.2631  0.3701
  997MOL0     C34504   5.083  11.189   6.751  0.2225 -0.7888  0.5045
  997MOL0    Cl34505   5.132  11.310   6.620 -0.2281  0.1058  0.0769
  997MOL0     C34506   6.230  11.092   6.893  0.7718  0.0317  0.8456
  997MOL0     C34507   6.355  11.041   6.845 -0.0729  0.2288 -0.4451
  997MOL0     O34508   6.527  11.033   6.593 -0.1624 -0.5772  0.0443
  997MOL0     C34509   6.748  10.799   6.707 -0.3668 -0.6577 -0.7393
  997MOL0     C34510   6.877  10.744   6.697 -0.4833 -0.8786  0.4733
  997MOL0     N34511   7.489  10.356   6.700 -0.2209  0.8409  0.9093
  997MOL0     N34512   7.575  10.278   6.758  0.2803 -0.5886  0.0060
  997MOL0     C34513   7.586  10.878   7.606  1.0665  0.5719 -0.5438
  997MOL0     C34514   7.463  10.949   7.610 -0.8240 -0.3289 -0.4584
  997MOL0     C34515   7.140  11.197   7.363  0.3251 -0.2509 -0.6416
  997MOL0     C34516   7.093  11.220   7.233 -0.0204  0.1561 -0.4450
  997MOL0     C34517   7.026  11.335   7.197 -0.7641  0.4419  0.6643
  997MOL0     C34518   6.987  11.428   7.289  0.2868 -0.0931  0.0122
  997MOL0     O34519   6.909  11.530   7.257  0.7042 -0.7885  0.7512
  997MOL0     C34520   6.870  11.560   7.120  0.4090 -0.6732 -0.6626
  997MOL0     C34521   6.785  11.693   7.112 -0.5290  1.4502 -0.6784
  997MOL0     C34522   6.672  11.702   7.215 -0.0965  0.6476 -0.1225
  997MOL0     C34523   6.569  11.817   7.203  0.4573 -0.0615 -0.0119
  997MOL0     C34524   6.425  11.790   7.231 -0.1243  0.0561 -0.5530
  997MOL0     C34525   6.310  11.758   7.237  0.0161 -0.0153 -0.0070
  997MOL0     C34526   7.032  11.401   7.421  0.0574  0.6699 -0.7935
  997MOL0     C34527   7.108  11.286   7.462  0.1460  0.0974 -0.6214
  997MOL0     H34528   7.462  11.062   7.293 -1.6393  1.1054  1.0053
  997MOL0     H34529   7.659  10.943   7.273 -1.7139 -0.7906 -2.2207
  997MOL0     H34530   7.834  10.779   7.285 -0.0978  1.2366 -0.3863
  997MOL0     H34531   7.896  10.918   7.354 -3.9643  1.2595 -1.7762
  997MOL0     H34532   8.088  10.770   7.322  2.4840 -0.7740  2.1654
  997MOL0     H34533   8.052  10.757   7.502  1.1610 -3.2837 -0.0503
  997MOL0     H34534   8.085  10.540   7.403 -0.4188 -1.1168 -0.8696
  997MOL0     H34535   7.919  10.562   7.457  0.1115 -0.4856  0.2496
  997MOL0     H34536   7.885  10.598   7.190  1.6857  2.1215 -0.5289
  997MOL0     H34537   8.050  10.554   7.170 -0.7791  1.4608  0.1767
  997MOL0     H34538   8.040  10.337   7.285  1.1490  0.7091 -1.5559
  997MOL0     H34539   7.873  10.368   7.325 -1.1129  0.6238 -0.6682
  997MOL0     H34540   7.991  10.310   7.047  0.2089 -2.6712  0.4757
  997MOL0     H34541   7.894  10.198   7.132 -2.4293 -0.7327  1.6070
  997MOL0     H34542   7.698  10.335   7.118 -0.3859  0.3777 -1.1580
  997MOL0     H34543   7.788  10.472   7.051  2.1463  1.1050  0.0757
  997MOL0     H34544   7.748  10.177   6.917 -0.2461 -0.1910  1.1952
  997MOL0     H34545   7.855  10.306   6.862  0.0262 -2.2820 -0.2650
  997MOL0     H34546   7.676  10.585   6.854  1.5735 -0.3737 -0.6146
  997MOL0     H34547   7.446  10.684   6.766 -2.5666 -0.5709 -0.6139
  997MOL0     H34548   7.545  10.663   6.628 -0.7196 -1.8720 -3.0464
  997MOL0     H34549   7.376  10.527   6.509 -0.0072  1.8082 -1.3479
  997MOL0     H34550   7.315  10.686   6.546 -1.7136 -0.3953  2.8880
  997MOL0     H34551   7.208  10.595   6.759  1.4341  2.1285 -0.8098
  997MOL0     H34552   7.206  10.435   6.667  0.0266 -0.4582 -2.6661
  997MOL0     H34553   7.014  10.524   6.628  2.0092 -2.5723 -0.2529
  997MOL0     H34554   7.104  10.537   6.480  2.4175 -0.3588  0.5099
  997MOL0     H34555   6.979  10.902   6.416  0.6016  1.0930  0.8036
  997MOL0     H34556   6.798  11.021   6.314  0.7953 -1.3527  0.5508
  997MOL0     H34557   6.640  11.010   6.364  0.8834  1.6081 -2.7023
  997MOL0     H34558   6.741  11.127   6.445 -1.5800  0.0692 -2.0581
  997MOL0     H34559   6.261  10.741   6.760  1.4690  0.7937 -0.7492
  997MOL0     H34560   6.032  10.826   6.842 -1.3811  1.3235  1.2511
  997MOL0     H34561   5.871  10.965   6.843  0.6480  1.8773 -1.7227
  997MOL0     H34562   5.904  10.915   7.015  2.0149  1.6173  1.0323
  997MOL0     H34563   5.786  11.126   7.088  3.0156 -1.2750  0.1469
  997MOL0     H34564   5.778  11.174   6.918  1.0535 -1.7116 -1.4301
  997MOL0     H34565   5.611  10.974   7.062  1.3072  2.1858  1.0293
  997MOL0     H34566   5.642  10.954   6.895  0.4776  1.2425 -1.5686
  997MOL0     H34567   5.541  11.214   7.020  1.9888 -1.4237  0.9123
  997MOL0     H34568   5.571  11.183   6.846  0.4212 -0.7783  0.5262
  997MOL0     H34569   5.361  11.054   7.014 -1.1068  0.3884 -0.8252
  997MOL0     H34570   5.407  11.004   6.841 -0.0829  0.5631 -1.6168
  997MOL0     H34571   5.258  11.249   6.933 -2.3599 -1.0821 -0.2197
  997MOL0     H34572   5.362  11.256   6.786  1.9833 -1.0981  0.3089
  997MOL0     H34573   5.165  11.016   6.841  0.0411  1.0552  2.3066
  997MOL0     H34574   5.238  11.056   6.691  0.6772 -2.4970  1.6508
  997MOL0     H34575   5.035  11.239   6.835 -0.8303 -0.6462 -0.1643
  997MOL0     H34576   5.001  11.128   6.710  0.1008 -2.3440  2.8947
  997MOL0     H34577   6.213  11.198   6.906 -0.8845 -0.0816 -0.1412
  997MOL0     H34578   6.443  11.103   6.857  1.4323 -1.9642  0.6965
  997MOL0     H34579   6.693  10.763   6.793  2.2711  0.2172  1.4687
  997MOL0     H34580   6.919  10.679   6.774  2.3837  0.8100  0.4671
  997MOL0     H34581   7.622  10.829   7.696  2.1289  2.3728  0.0654
  997MOL0     H34582   7.408  10.944   7.704  1.7876 -0.0806  1.1931
  997MOL0     H34583   7.124  11.161   7.148  1.7663 -2.0737  1.6018
  997MOL0     H34584   6.990  11.336   7.095 -0.6363 -1.5603  0.5568
  997MOL0     H34585   6.958  11.565   7.056 -0.1808  0.4680 -1.4297
  997MOL0     H34586   6.809  11.481   7.076  0.6474 -0.9008 -0.5837
  997MOL0     H34587   6.744  11.695   7.010  0.0284 -1.6095 -1.0382
  997MOL0     H34588   6.850  11.781   7.121  0.1277  0.7305  3.4878
  997MOL0     H34589   6.719  11.707   7.313  2.9175 -1.2163 -1.3183
  997MOL0     H34590   6.620  11.606   7.204 -2.3970  1.8732 -0.6073
  997MOL0     H34591   6.567  11.845   7.097 -0.1301 -0.8407 -0.2192
  997MOL0     H34592   6.604  11.903   7.260 -0.1850 -0.9303  1.7773
  997MOL0     H34593   6.205  11.736   7.241 -0.0407  0.1006 -0.7746
  997MOL0     H34594   7.013  11.469   7.503 -0.6501  0.5139 -0.8220
  997MOL0     H34595   7.140  11.272   7.565 -1.9004  3.2346  0.6082
  998MOL0     O34596   7.528   4.579   3.334 -0.4716 -1.1767 -0.3401
  998MOL0     C34597   7.576   4.537   3.442 -1.0300 -0.3138  0.0073
  998MOL0     O34598   7.495   4.481   3.541 -0.1342 -0.5431 -0.4336
  998MOL0     C34599   7.364   4.468   3.500 -0.1613  0.6716 -0.9517
  998MOL0     C34600   7.314   4.358   3.418 -0.1886 -0.5838  0.5659
  998MOL0     C34601   7.179   4.365   3.369  0.1911  0.8777  0.7846
  998MOL0     C34602   7.088   4.454   3.420 -1.0478 -0.0747 -0.4032
  998MOL0     O34603   6.958   4.465   3.380  0.3623 -0.5071  0.7230
  998MOL0     C34604   6.854   4.500   3.476 -0.7748  0.4499  0.0001
  998MOL0     C34605   6.739   4.406   3.485  0.2658  0.9478  0.0554
  998MOL0     C34606   6.776   4.267   3.543 -0.4811 -0.4856  0.6710
  998MOL0     C34607   6.663   4.168   3.525  0.1175  0.5404 -0.7202
  998MOL0     C34608   6.544   4.194   3.626 -0.2260 -0.1897  0.7962
  998MOL0     C34609   6.431   4.102   3.587  0.5766  0.9386  0.4103
  998MOL0     C34610   6.380   4.102   3.442 -0.1340  0.1207  1.3644
  998MOL0     C34611   6.313   4.236   3.401 -0.7016  0.2514 -0.3267
  998MOL0     N34612   6.286   4.230   3.256 -1.0545  0.4153 -0.2203
  998MOL0     C34613   6.226   4.131   3.185  0.0650  0.0876 -0.6057
  998MOL0     C34614   6.221   4.169   3.058  0.0667  0.3680 -0.2699
  998MOL0     C34615   6.139   4.105   2.945  0.8636 -0.2649 -1.1243
  998MOL0     C34616   5.992   4.163   2.945 -0.6587  0.8495 -0.7791
  998MOL0     C34617   5.918   4.062   2.865 -0.2413 -0.1824  0.0151
  998MOL0     C34618   5.781   4.116   2.828 -0.1244 -0.3058  0.3641
  998MOL0     O34619   5.682   4.107   2.927 -0.0511  0.2636  0.2761
  998MOL0     C34620   5.555   4.152   2.913 -0.2801  0.0546  0.0345
  998MOL0     C34621   5.481   4.199   3.022 -1.1953 -0.0325 -0.8389
  998MOL0     C34622   5.354   4.255   3.025 -0.6533  0.3715  0.0933
  998MOL0     C34623   5.294   4.274   3.160  0.0607  0.1881  0.3379
  998MOL0     C34624   5.294   4.268   2.899 -0.2051 -0.2020 -0.3163
  998MOL0     C34625   5.149   4.301   2.872  0.5279 -0.1964  0.7126
  998MOL0     O34626   5.091   4.252   2.756 -0.8389  0.3500 -0.3760
  998MOL0     C34627   4.959   4.283   2.741 -1.0034  0.1292 -0.3028
  998MOL0     C34628   4.925   4.412   2.722 -0.3034 -0.4200 -0.1590
  998MOL0     C34629   4.797   4.464   2.715 -0.7313 -0.4888  0.4409
  998MOL0     C34630   4.693   4.374   2.704 -0.0199 -0.2481  0.0761
  998MOL0     O34631   4.567   4.426   2.709  0.1716  0.5034  0.5026
  998MOL0     C34632   4.450   4.348   2.689 -0.8713  1.4133 -0.4802
  998MOL0     C34633   4.330   4.444   2.693  0.4106  0.5301  0.4587
  998MOL0     C34634   4.307   4.493   2.830  0.1728 -0.5220 -0.5659
  998MOL0     C34635   4.221   4.626   2.831 -0.2373 -0.1807 -0.5520
  998MOL0     C34636   4.184   4.659   2.972  0.8879  0.4742 -0.8695
  998MOL0     C34637   4.153   4.813   2.992 -0.5956 -0.0502  0.2306
  998MOL0     C34638   4.046   4.868   2.895 -0.7924  0.6404 -0.2191
  998MOL0     C34639   3.992   5.014   2.923  0.1178  0.4970  0.9003
  998MOL0    Cl34640   4.124   5.114   2.883  0.0448 -0.6139  0.0198
  998MOL0     C34641   4.720   4.232   2.695 -0.5926  0.6070  0.0883
  998MOL0     C34642   4.853   4.189   2.714 -0.4871 -0.7689 -0.2950
  998MOL0     O34643   5.090   4.378   2.947 -0.4095  0.2145 -0.1274
  998MOL0     C34644   5.366   4.221   2.788 -0.7115 -0.1459  0.3201
  998MOL0     C34645   5.489   4.163   2.793 -0.2537 -0.8970  0.2010
  998MOL0     N34646   6.279   4.295   3.050  0.8070 -0.0399 -0.0697
  998MOL0     N34647   6.319   4.330   3.164 -1.4493 -0.2778  0.1711
  998MOL0     C34648   7.136   4.553   3.504 -0.5654  0.7027  0.1844
  998MOL0     C34649   7.269   4.557   3.546 -0.1464  0.0739 -0.3828
  998MOL0     C34650   7.721   4.549   3.485 -0.5081 -0.2011  0.1263
  998MOL0     C34651   7.823   4.567   3.395 -0.3409  0.4545  0.7030
  998MOL0     C34652   7.954   4.580   3.434 -0.8024  0.5162  0.5335
  998MOL0     C34653   7.996   4.547   3.566  1.4811  0.2604 -0.8432
  998MOL0     O34654   8.133   4.538   3.586 -0.2476  0.2903 -0.2809
  998MOL0     C34655   8.183   4.539   3.719  0.5577 -0.1381  0.1552
  998MOL0     C34656   8.311   4.619   3.732  0.1458  0.1161  0.6121
  998MOL0     C34657   8.278   4.757   3.689  0.1406  0.6057  1.3508
  998MOL0     C34658   8.382   4.847   3.762 -0.2637  0.8900  0.2981
  998MOL0     C34659   8.366   4.991   3.726 -0.4122  0.1682  0.3906
  998MOL0     C34660   8.347   5.114   3.701 -0.7179  0.0469  0.0745
  998MOL0     C34661   7.890   4.515   3.662  0.6126 -0.6360 -0.2959
  998MOL0     C34662   7.759   4.516   3.619 -0.6165 -0.7711 -0.2225
  998MOL0     H34663   7.386   4.290   3.374  0.3033  0.1627  0.1927
  998MOL0     H34664   7.155   4.290   3.294  2.5925  0.8877 -0.0906
  998MOL0     H34665   6.889   4.512   3.579 -0.4745 -0.5605  0.0220
  998MOL0     H34666   6.811   4.595   3.443 -2.9104 -0.7119 -0.7378
  998MOL0     H34667   6.657   4.455   3.539  0.0745 -0.6741  1.3507
  998MOL0     H34668   6.708   4.390   3.381 -0.2035  2.2740 -0.0208
  998MOL0     H34669   6.870   4.233   3.498 -0.5755 -1.1943  0.9934
  998MOL0     H34670   6.785   4.268   3.652 -3.0618 -2.2445  1.0058
  998MOL0     H34671   6.642   4.166   3.417 -0.8919 -5.5242 -0.7603
  998MOL0     H34672   6.702   4.067   3.541 -0.2146 -0.0289 -3.1017
  998MOL0     H34673   6.561   4.193   3.734  0.3887 -0.1915  0.7038
  998MOL0     H34674   6.499   4.290   3.599  0.2562 -0.3270 -0.6213
  998MOL0     H34675   6.468   4.001   3.603 -1.4421 -0.1403 -1.2824
  998MOL0     H34676   6.339   4.126   3.641 -0.5045 -1.6675 -0.1514
  998MOL0     H34677   6.457   4.073   3.371  0.7640  1.7042  1.6558
  998MOL0     H34678   6.303   4.024   3.439 -1.8065  1.7343 -1.1602
  998MOL0     H34679   6.383   4.318   3.419 -1.0826 -0.0008  2.8426
  998MOL0     H34680   6.220   4.263   3.450 -1.6169 -0.2741 -1.7216
  998MOL0     H34681   6.171   4.054   3.239 -1.9362  2.8141  1.4936
  998MOL0     H34682   6.196   4.126   2.854  0.9262  0.4647 -0.9244
  998MOL0     H34683   6.139   3.996   2.954  2.7389 -0.1815  0.7212
  998MOL0     H34684   5.983   4.261   2.897 -2.1017  0.3349 -1.6420
  998MOL0     H34685   5.952   4.160   3.046  1.3571 -1.5007  0.0354
  998MOL0     H34686   5.902   3.966   2.916 -0.0022 -0.5724 -0.6272
  998MOL0     H34687   5.968   4.040   2.770 -0.6842  0.1708 -0.3051
  998MOL0     H34688   5.743   4.059   2.743  3.3692 -0.3958 -1.3327
  998MOL0     H34689   5.792   4.220   2.796 -1.5034 -0.0871  0.5648
  998MOL0     H34690   5.518   4.178   3.122 -5.3222  1.1507  1.1650
  998MOL0     H34691   5.339   4.209   3.235  0.8501  1.0488  0.6212
  998MOL0     H34692   5.300   4.375   3.200 -0.3293  0.7751 -1.0585
  998MOL0     H34693   5.187   4.252   3.154 -0.4316  2.7526 -2.4832
  998MOL0     H34694   5.004   4.486   2.730 -1.2948  0.7665 -1.0179
  998MOL0     H34695   4.775   4.571   2.712  2.5857  0.2770 -1.8674
  998MOL0     H34696   4.456   4.286   2.599 -1.4287 -2.4262  1.9074
  998MOL0     H34697   4.448   4.276   2.770 -0.8259  0.6154 -1.1756
  998MOL0     H34698   4.343   4.522   2.617 -0.0218 -0.0742 -0.2510
  998MOL0     H34699   4.244   4.387   2.656 -0.0232  2.5125 -1.8130
  998MOL0     H34700   4.404   4.514   2.876 -0.7274  1.5799  0.5441
  998MOL0     H34701   4.260   4.414   2.889  1.8769 -2.0898 -1.2114
  998MOL0     H34702   4.291   4.704   2.797  0.4355  0.8920  2.8423
  998MOL0     H34703   4.130   4.613   2.772 -0.7472 -3.8193  0.7956
  998MOL0     H34704   4.264   4.643   3.044 -0.0664  2.0624  0.6527
  998MOL0     H34705   4.098   4.600   3.007  0.6680  0.4053 -1.5184
  998MOL0     H34706   4.113   4.819   3.094 -2.6274  0.4968 -0.5672
  998MOL0     H34707   4.249   4.865   3.001  1.2620 -3.2087  0.1139
  998MOL0     H34708   3.961   4.800   2.898  0.7018 -1.3091 -0.5087
  998MOL0     H34709   4.086   4.875   2.793 -2.7746 -0.0888 -1.1094
  998MOL0     H34710   3.971   5.016   3.030 -2.3321 -1.2923  0.5502
  998MOL0     H34711   3.900   5.040   2.870  0.6063 -0.4664 -0.4990
  998MOL0     H34712   4.644   4.155   2.685 -1.0874  1.1597 -0.4879
  998MOL0     H34713   4.875   4.082   2.715 -2.6487 -1.3183  2.8356
  998MOL0     H34714   5.313   4.223   2.693 -1.5864 -1.1155  0.7631
  998MOL0     H34715   5.537   4.136   2.699 -0.6458  0.8925 -0.5632
  998MOL0     H34716   7.070   4.625   3.552  0.0797 -0.5544  3.2292
  998MOL0     H34717   7.288   4.630   3.624 -0.2829  0.3384 -0.5983
  998MOL0     H34718   7.805   4.576   3.289  0.6065  0.1768  0.5047
  998MOL0     H34719   8.027   4.602   3.357  0.8752  0.5646  2.0698
  998MOL0     H34720   8.107   4.582   3.785  0.5779  0.2898 -0.0938
  998MOL0     H34721   8.200   4.437   3.754 -0.8781 -0.2604  0.5781
  998MOL0     H34722   8.390   4.577   3.669 -1.3242 -1.3699 -0.3289
  998MOL0     H34723   8.341   4.616   3.838 -0.6559  0.2597  0.8527
  998MOL0     H34724   8.175   4.771   3.720 -1.1796 -0.6808 -1.9272
  998MOL0     H34725   8.285   4.773   3.581 -1.6675 -3.7843  0.3579
  998MOL0     H34726   8.482   4.814   3.734  0.2487 -0.3137  3.2390
  998MOL0     H34727   8.375   4.834   3.870 -1.1356 -1.9813 -0.0155
  998MOL0     H34728   8.333   5.219   3.689 -3.8883 -0.5341 -2.6342
  998MOL0     H34729   7.917   4.475   3.759  1.5535 -1.2007 -0.7681
  998MOL0     H34730   7.688   4.493   3.697 -0.5931 -2.5211 -0.6621
  999MOL0     O34731   2.623   2.906   4.480 -0.2194  0.1265  0.1638
  999MOL0     C34732   2.729   2.937   4.536 -0.2977  0.2599 -0.3166
  999MOL0     O34733   2.736   3.007   4.656  0.4644 -0.0143  0.2874
  999MOL0     C34734   2.628   3.055   4.717  0.2890  0.0760  0.0438
  999MOL0     C34735   2.499   2.998   4.726  0.3485 -0.1197 -0.2864
  999MOL0     C34736   2.401   3.056   4.808 -0.2834  0.5801 -0.0389
  999MOL0     C34737   2.423   3.174   4.883 -0.0757  0.0729  0.4225
  999MOL0     O34738   2.326   3.234   4.961 -0.2518  0.2970  0.2934
  999MOL0     C34739   2.195   3.188   4.936 -0.1564 -0.4313 -0.0255
  999MOL0     C34740   2.105   3.284   5.001 -0.4511 -0.3653  0.0293
  999MOL0     C34741   2.076   3.414   4.909  0.3679  1.1310 -0.0869
  999MOL0     C34742   2.203   3.492   4.899 -0.1613 -0.0491  0.3197
  999MOL0     C34743   2.181   3.642   4.864  0.9008 -0.0506 -0.0140
  999MOL0     C34744   2.102   3.685   4.735  0.1331  0.4055  0.0111
  999MOL0     C34745   1.960   3.638   4.719 -0.8657  0.8919  0.0420
  999MOL0     C34746   1.879   3.714   4.621 -0.5932 -0.1908  0.5631
  999MOL0     N34747   1.899   3.668   4.486 -0.0930  0.2889 -0.1794
  999MOL0     C34748   2.002   3.712   4.401 -0.5137  0.3144  0.5178
  999MOL0     C34749   1.969   3.653   4.277  0.3857 -0.3166  0.3097
  999MOL0     C34750   2.037   3.659   4.141 -0.0454 -0.5690 -0.8936
  999MOL0     C34751   2.167   3.594   4.161 -0.2019  0.8294 -0.1982
  999MOL0     C34752   2.277   3.620   4.045 -0.5366  0.0586  0.2637
  999MOL0     C34753   2.320   3.769   4.033  1.0653 -0.2461  0.6384
  999MOL0     O34754   2.462   3.780   4.026  0.1164  0.7753  0.3618
  999MOL0     C34755   2.548   3.749   4.130  0.0264 -0.6053  0.4384
  999MOL0     C34756   2.511   3.735   4.263 -0.4510  0.0009 -0.0963
  999MOL0     C34757   2.608   3.720   4.366  0.2652 -0.6073  0.2948
  999MOL0     C34758   2.552   3.725   4.508 -0.8440  0.1527  0.5128
  999MOL0     C34759   2.750   3.708   4.335 -0.2373 -0.0273  1.0832
  999MOL0     C34760   2.868   3.673   4.417 -0.2635 -0.3734 -0.0472
  999MOL0     O34761   2.966   3.595   4.357 -0.1390  0.3822  0.2584
  999MOL0     C34762   3.094   3.596   4.412  0.7567 -0.1545  0.1097
  999MOL0     C34763   3.172   3.485   4.403 -0.0064 -0.4858  0.0619
  999MOL0     C34764   3.303   3.488   4.448  0.0549  0.1421 -0.1334
  999MOL0     C34765   3.359   3.601   4.501  0.4505 -1.3229 -0.7883
  999MOL0     O34766   3.490   3.619   4.539 -0.4120  0.0575  0.4372
  999MOL0     C34767   3.594   3.587   4.441 -1.1585  0.7785 -0.6492
  999MOL0     C34768   3.730   3.647   4.489 -0.7077 -0.3910 -0.3905
  999MOL0     C34769   3.856   3.628   4.403  0.4740  0.4308 -0.6078
  999MOL0     C34770   3.992   3.668   4.451 -0.6949 -0.6349  0.8330
  999MOL0     C34771   3.999   3.821   4.487 -0.0241 -0.3540  0.6130
  999MOL0     C34772   3.963   3.840   4.636 -0.2595 -0.3022  0.1420
  999MOL0     C34773   3.949   3.991   4.666 -0.8443  0.3114 -0.2315
  999MOL0     C34774   3.844   4.014   4.769  0.3257 -0.1143  1.1459
  999MOL0    Cl34775   3.873   4.177   4.850 -0.7832  0.2531  0.1858
  999MOL0     C34776   3.275   3.715   4.519 -0.0043 -0.4647  0.1722
  999MOL0     C34777   3.145   3.710   4.467 -0.8829 -0.1228  0.5339
  999MOL0     O34778   2.864   3.721   4.532 -0.0004 -0.1301 -0.4452
  999MOL0     C34779   2.782   3.709   4.195  0.0582  0.1589 -1.2477
  999MOL0     C34780   2.685   3.730   4.098 -0.3866 -0.1134 -0.3864
  999MOL0     N34781   1.851   3.593   4.291 -0.1458  0.8975  0.4595
  999MOL0     N34782   1.815   3.588   4.416  0.2471 -0.7034  0.4819
  999MOL0     C34783   2.547   3.228   4.873 -0.4879 -0.3504 -0.3454
  999MOL0     C34784   2.650   3.167   4.795 -0.1847  0.3143  0.1775
  999MOL0     C34785   2.855   2.921   4.459  0.3872 -0.1469  0.5437
  999MOL0     C34786   2.981   2.950   4.502  0.5914 -0.1289 -1.1019
  999MOL0     C34787   3.095   2.946   4.422  0.0900  0.0938 -0.3884
  999MOL0     C34788   3.085   2.910   4.290  0.0043  0.1461 -0.0000
  999MOL0     O34789   3.193   2.913   4.200 -0.1450  0.3059 -0.1746
  999MOL0     C34790   3.325   2.899   4.247  0.2623 -0.6187  0.5602
  999MOL0     C34791   3.413   2.896   4.115  0.6863  0.7625 -1.0169
  999MOL0     C34792   3.558   2.887   4.156 -0.4030  0.1448  0.1739
  999MOL0     C34793   3.650   2.902   4.030 -0.1887 -0.3215 -0.2112
  999MOL0     C34794   3.788   2.914   4.060  0.1524 -0.8654 -0.2106
  999MOL0     C34795   3.903   2.939   4.083 -0.2470 -0.0618 -0.3345
  999MOL0     C34796   2.957   2.877   4.247  0.2982  0.1333  0.3580
  999MOL0     C34797   2.842   2.888   4.325 -0.4157  0.2816  0.2089
  999MOL0     H34798   2.480   2.906   4.671  1.9267  0.4692 -1.8906
  999MOL0     H34799   2.305   3.004   4.804  0.8301 -1.5435 -1.8751
  999MOL0     H34800   2.171   3.176   4.830 -1.5058 -1.4808  0.3705
  999MOL0     H34801   2.184   3.090   4.985 -0.2995 -0.0303  0.7670
  999MOL0     H34802   2.005   3.239   5.004 -0.8462  0.4603 -0.4689
  999MOL0     H34803   2.145   3.313   5.099  1.3965 -4.1580  0.5680
  999MOL0     H34804   2.054   3.391   4.805  1.1698  1.2790 -0.2972
  999MOL0     H34805   1.999   3.474   4.958  1.4839  0.6303  2.4466
  999MOL0     H34806   2.264   3.480   4.990  2.6080 -0.4616 -1.4602
  999MOL0     H34807   2.263   3.444   4.821 -0.7550  1.0948 -0.8829
  999MOL0     H34808   2.128   3.691   4.947 -1.0344  1.2351 -1.8955
  999MOL0     H34809   2.284   3.678   4.852  1.1974 -0.8195  0.1812
  999MOL0     H34810   2.097   3.794   4.746 -2.9993  0.1441  2.7469
  999MOL0     H34811   2.161   3.644   4.653  0.3780  1.1499 -0.1950
  999MOL0     H34812   1.962   3.535   4.683  0.7964 -0.2129  2.9721
  999MOL0     H34813   1.914   3.648   4.817  2.4387 -0.0358  1.8522
  999MOL0     H34814   1.897   3.822   4.625  2.7573 -0.4936 -2.0347
  999MOL0     H34815   1.778   3.690   4.654 -0.9097  0.9897  0.5268
  999MOL0     H34816   2.084   3.779   4.425  0.2207 -0.2922 -0.2390
  999MOL0     H34817   1.985   3.617   4.055  0.8484 -3.7075 -0.0038
  999MOL0     H34818   2.053   3.766   4.122 -1.3842  0.0713  1.2350
  999MOL0     H34819   2.149   3.487   4.176  0.8737  0.7835  0.9383
  999MOL0     H34820   2.218   3.638   4.247  0.7773 -1.7476  0.6236
  999MOL0     H34821   2.232   3.589   3.951 -0.8015  1.1618  0.0125
  999MOL0     H34822   2.367   3.559   4.062 -1.2352 -0.8558  0.7636
  999MOL0     H34823   2.283   3.834   4.113  0.4551  0.7584 -0.4363
  999MOL0     H34824   2.266   3.801   3.944 -2.2097 -1.4709  2.0150
  999MOL0     H34825   2.408   3.750   4.292  0.1843  1.5156  1.5527
  999MOL0     H34826   2.636   3.723   4.579  1.5037 -0.4472 -2.1186
  999MOL0     H34827   2.491   3.815   4.515  1.6913  2.2159 -1.6448
  999MOL0     H34828   2.493   3.635   4.524 -0.3715  0.2579  3.5974
  999MOL0     H34829   3.130   3.395   4.358 -3.7747  1.1187  0.0077
  999MOL0     H34830   3.353   3.393   4.432 -2.2066 -1.2603  0.4911
  999MOL0     H34831   3.600   3.478   4.432 -0.3715  0.8841 -1.5019
  999MOL0     H34832   3.563   3.628   4.345 -1.1372  1.4660 -0.3648
  999MOL0     H34833   3.714   3.752   4.515  0.1958  0.0224 -1.4186
  999MOL0     H34834   3.759   3.593   4.579  1.9522  2.9815  1.0202
  999MOL0     H34835   3.833   3.682   4.310  1.2730 -1.4425 -1.9616
  999MOL0     H34836   3.862   3.524   4.371 -1.8825  0.9228 -3.1083
  999MOL0     H34837   4.024   3.608   4.537  2.8881 -0.6523 -0.3278
  999MOL0     H34838   4.057   3.652   4.364 -2.8368 -0.5498 -0.8590
  999MOL0     H34839   3.935   3.876   4.418  1.1625 -2.1080 -2.0402
  999MOL0     H34840   4.100   3.857   4.466  0.4074 -2.4432 -1.2597
  999MOL0     H34841   3.867   3.802   4.672 -0.1279  1.0098  2.0508
  999MOL0     H34842   4.040   3.794   4.699  0.1117  1.3424  0.9751
  999MOL0     H34843   3.929   4.054   4.579 -1.2364 -0.3241 -0.6109
  999MOL0     H34844   4.039   4.030   4.714 -0.6911 -0.5979  0.2408
  999MOL0     H34845   3.842   3.931   4.840 -2.0277 -2.1241 -1.0377
  999MOL0     H34846   3.754   4.014   4.707  1.8336 -1.3107 -1.1962
  999MOL0     H34847   3.331   3.794   4.566  2.4784 -2.7684  1.3742
  999MOL0     H34848   3.091   3.804   4.475 -2.7185 -1.2087  1.3924
  999MOL0     H34849   2.887   3.708   4.170  0.5666 -0.5741  0.7700
  999MOL0     H34850   2.729   3.752   4.001  1.3054  3.8948  1.0690
  999MOL0     H34851   2.572   3.322   4.921  0.9113 -0.4313 -0.8727
  999MOL0     H34852   2.752   3.201   4.806  0.4302 -0.5024 -2.2951
  999MOL0     H34853   2.986   2.982   4.605 -1.3967 -1.1709 -0.6180
  999MOL0     H34854   3.184   2.979   4.475 -0.5695  2.2011 -0.4767
  999MOL0     H34855   3.358   2.987   4.303 -0.1057  0.6051 -1.0586
  999MOL0     H34856   3.340   2.811   4.311 -1.7715 -1.2001  0.2940
  999MOL0     H34857   3.395   2.986   4.055  1.2628  2.0458  0.6496
  999MOL0     H34858   3.389   2.803   4.062  1.4023  0.3117 -0.5676
  999MOL0     H34859   3.572   2.800   4.221 -1.3643 -0.7264 -0.7444
  999MOL0     H34860   3.572   2.977   4.217  1.8452  0.8374 -1.2403
  999MOL0     H34861   3.621   2.998   3.987  5.1242  3.6513  3.8247
  999MOL0     H34862   3.637   2.811   3.969  0.3290 -1.1894  0.9481
  999MOL0     H34863   4.006   2.953   4.108 -0.8602  1.6131  1.5920
  999MOL0     H34864   2.947   2.845   4.144  0.8017  2.1043 -0.3382
  999MOL0     H34865   2.750   2.858   4.277  0.5078 -2.0526 -0.2381
 1000MOL0     O34866   8.888   2.181   0.612 -0.3721 -0.0263 -0.4173
 1000MOL0     C34867   8.950   2.094   0.680 -0.7409  0.8808 -0.1685
 1000MOL0     O34868   8.897   1.977   0.728  0.4007 -0.2234 -0.0304
 1000MOL0     C34869   8.760   1.975   0.723  0.2050 -0.4974  0.8473
 1000MOL0     C34870   8.689   1.999   0.833 -0.2422  0.2216 -0.5604
 1000MOL0     C34871   8.555   1.984   0.846  0.6562  0.0994  0.8664
 1000MOL0     C34872   8.482   1.935   0.735 -0.5211 -0.5017 -0.6238
 1000MOL0     O34873   8.345   1.929   0.765 -0.6683 -0.3681  0.3789
 1000MOL0     C34874   8.268   1.882   0.651  0.7526 -0.0540  1.0498
 1000MOL0     C34875   8.126   1.915   0.687 -0.3475  0.0464 -0.1671
 1000MOL0     C34876   8.042   1.920   0.561 -0.3930  1.1856 -0.2486
 1000MOL0     C34877   7.891   1.956   0.592  0.0142  0.1917 -0.3142
 1000MOL0     C34878   7.803   1.925   0.470 -0.4756 -0.5116 -0.2189
 1000MOL0     C34879   7.655   1.948   0.494  0.4462 -0.8439  0.6375
 1000MOL0     C34880   7.566   1.940   0.368 -0.0272  0.5643  0.3558
 1000MOL0     C34881   7.419   1.967   0.395  0.4154 -0.5781  0.8005
 1000MOL0     N34882   7.348   2.033   0.283 -0.4873  0.1943 -0.3444
 1000MOL0     C34883   7.215   2.026   0.249 -0.3328 -0.0830 -0.5690
 1000MOL0     C34884   7.206   2.110   0.139  0.3032 -0.2290 -0.6485
 1000MOL0     C34885   7.086   2.136   0.066 -0.1921  0.6024 -0.2049
 1000MOL0     C34886   6.958   2.086   0.137  0.1628 -0.6022 -0.6677
 1000MOL0     C34887   6.836   2.122   0.052 -0.1403 -0.1301  0.4341
 1000MOL0     C34888   6.706   2.094   0.127  0.4605 -0.3467  0.4511
 1000MOL0     O34889   6.678   1.955   0.140 -0.1252 -0.2308  0.8469
 1000MOL0     C34890   6.552   1.909   0.156  0.3129 -0.0874  0.3973
 1000MOL0     C34891   6.534   1.772   0.121  0.0232  0.2881  0.2391
 1000MOL0     C34892   6.407   1.712   0.117  1.3474 -0.5442 -0.4021
 1000MOL0     C34893   6.413   1.562   0.090 -0.1093  0.6366 -0.6173
 1000MOL0     C34894   6.294   1.793   0.146  0.3835  0.2062 -0.2120
 1000MOL0     C34895   6.156   1.747   0.136  1.1024  0.2736  0.8425
 1000MOL0     O34896   6.065   1.840   0.087 -0.3537  0.0014 -0.2641
 1000MOL0     C34897   5.939   1.834   0.118  0.0241 -0.4753 -0.4182
 1000MOL0     C34898   5.898   1.813   0.249  0.0888  0.3946 -0.3142
 1000MOL0     C34899   5.762   1.788   0.281  0.3687 -0.5649 -0.0919
 1000MOL0     C34900   5.665   1.805   0.183  0.7260  0.6169  0.1017
 1000MOL0     O34901   5.534   1.804   0.212 -0.0993 -0.2616 -0.2326
 1000MOL0     C34902   5.484   1.679   0.255  0.0659  0.0359 -0.1068
 1000MOL0     C34903   5.343   1.693   0.310  0.7532 -0.5249  0.3006
 1000MOL0     C34904   5.272   1.573   0.365 -0.3098  0.8851 -0.3587
 1000MOL0     C34905   5.157   1.617   0.461 -0.3030 -1.0420 -0.4519
 1000MOL0     C34906   5.044   1.516   0.472  0.7900  0.6077 -0.0718
 1000MOL0     C34907   4.930   1.585   0.553 -0.5331 -0.5530 -0.1077
 1000MOL0     C34908   4.810   1.485   0.547  0.2514  0.5242 -0.2620
 1000MOL0     C34909   4.718   1.508   0.660  0.2052  0.0636  0.0868
 1000MOL0    Cl34910   4.551   1.457   0.620 -0.1100 -0.2289 -0.3208
 1000MOL0     C34911   5.709   1.835   0.052 -0.1301 -0.8082  0.0128
 1000MOL0     C34912   5.843   1.842   0.025 -0.3025  0.2605  1.0508
 1000MOL0     O34913   6.130   1.634   0.172 -0.6629 -0.4131  0.9329
 1000MOL0     C34914   6.314   1.928   0.190  0.1171  0.8168 -0.0957
 1000MOL0     C34915   6.444   1.990   0.180  0.1188 -0.1256 -0.6268
 1000MOL0     N34916   7.329   2.170   0.118  1.2993  0.3772  0.0911
 1000MOL0     N34917   7.409   2.129   0.212  0.4215  0.1871 -0.4105
 1000MOL0     C34918   8.549   1.900   0.617 -0.0227 -0.1859 -0.2831
 1000MOL0     C34919   8.689   1.917   0.608  0.3514 -0.0317 -0.2514
 1000MOL0     C34920   9.095   2.122   0.713  0.7395  0.3770  0.1451
 1000MOL0     C34921   9.169   2.055   0.813  0.4004  0.5340 -0.2351
 1000MOL0     C34922   9.293   2.089   0.852  0.6062 -1.3092  0.3516
 1000MOL0     C34923   9.359   2.197   0.784  0.7549 -0.2437 -0.7126
 1000MOL0     O34924   9.482   2.243   0.802 -0.8123  0.1945 -0.5307
 1000MOL0     C34925   9.596   2.158   0.823 -0.1702 -0.3274 -0.0822
 1000MOL0     C34926   9.625   2.073   0.696  0.2375 -0.8526  0.7885
 1000MOL0     C34927   9.696   2.158   0.585 -0.2362  0.1745 -0.0014
 1000MOL0     C34928   9.705   2.085   0.445  0.4372 -0.3407 -0.2676
 1000MOL0     C34929   9.768   1.948   0.444 -0.2735 -0.4330 -0.3498
 1000MOL0     C34930   9.817   1.836   0.447  0.3170 -0.1647 -0.3395
 1000MOL0     C34931   9.289   2.262   0.686  0.6544 -0.1957  0.4181
 1000MOL0     C34932   9.157   2.233   0.648  0.1422  0.1136  0.9083
 1000MOL0     H34933   8.748   2.022   0.921 -0.0945 -1.6500 -0.1332
 1000MOL0     H34934   8.513   2.015   0.942  0.4179  0.5153  0.6335
 1000MOL0     H34935   8.287   1.930   0.554 -1.4548 -0.6973  0.2459
 1000MOL0     H34936   8.275   1.773   0.649 -3.2815 -0.4710 -1.4605
 1000MOL0     H34937   8.088   1.842   0.759  1.7955 -0.2340  0.7639
 1000MOL0     H34938   8.113   2.015   0.729 -2.8607  0.5336 -1.8837
 1000MOL0     H34939   8.093   1.990   0.493  0.0829  0.2870 -0.8379
 1000MOL0     H34940   8.050   1.819   0.518 -5.3851  0.1323  0.7511
 1000MOL0     H34941   7.860   1.898   0.678  2.1506  1.2579  1.2706
 1000MOL0     H34942   7.878   2.060   0.625 -2.4152 -0.8083  2.2213
 1000MOL0     H34943   7.839   1.990   0.389  2.4296 -0.9765  0.5726
 1000MOL0     H34944   7.823   1.826   0.428 -0.7505 -0.7509  0.2075
 1000MOL0     H34945   7.617   1.876   0.567 -1.1789 -2.3891 -1.6176
 1000MOL0     H34946   7.647   2.052   0.527 -2.3332 -1.1508  1.1191
 1000MOL0     H34947   7.612   2.020   0.310  3.4346 -0.8652  0.9077
 1000MOL0     H34948   7.587   1.838   0.336 -1.8533 -0.8000  3.0859
 1000MOL0     H34949   7.422   2.032   0.483 -0.0530  3.3576 -1.8711
 1000MOL0     H34950   7.374   1.869   0.413 -0.5428 -0.0838  1.1759
 1000MOL0     H34951   7.152   1.955   0.302  2.7765 -2.1926  0.6605
 1000MOL0     H34952   7.086   2.244   0.050  2.6659  0.6264 -0.5743
 1000MOL0     H34953   7.088   2.089  -0.033 -0.5965 -0.4986  0.2939
 1000MOL0     H34954   6.954   2.143   0.231 -2.2946  2.9036 -2.6410
 1000MOL0     H34955   6.965   1.979   0.157  0.4802 -0.3557  0.6869
 1000MOL0     H34956   6.837   2.077  -0.047 -0.6191  0.9040 -0.0624
 1000MOL0     H34957   6.838   2.231   0.044  0.0107  0.0046  2.0222
 1000MOL0     H34958   6.622   2.142   0.076 -1.4456 -2.7994  1.1111
 1000MOL0     H34959   6.707   2.150   0.222  1.7686 -1.0792  0.8820
 1000MOL0     H34960   6.623   1.715   0.097  0.3470  1.5265 -1.6696
 1000MOL0     H34961   6.476   1.515   0.167  1.3406  0.9112 -1.5949
 1000MOL0     H34962   6.317   1.510   0.090  0.2493 -0.0364 -1.0201
 1000MOL0     H34963   6.456   1.545  -0.009 -0.2253  0.1998 -0.5950
 1000MOL0     H34964   5.978   1.806   0.322 -0.8855 -0.2118  0.7225
 1000MOL0     H34965   5.728   1.762   0.380  1.9862 -2.3050  0.0891
 1000MOL0     H34966   5.490   1.607   0.174 -0.2771 -0.0551 -0.0509
 1000MOL0     H34967   5.547   1.646   0.339 -0.7852  1.2475  1.0495
 1000MOL0     H34968   5.340   1.773   0.384 -3.5280  0.4360 -0.6545
 1000MOL0     H34969   5.283   1.726   0.226 -1.4498 -1.7885  1.2937
 1000MOL0     H34970   5.340   1.506   0.418 -3.5093 -1.8192  0.7122
 1000MOL0     H34971   5.231   1.515   0.281  0.3053  1.9997 -1.4596
 1000MOL0     H34972   5.192   1.641   0.561  0.5403 -2.0188 -0.4969
 1000MOL0     H34973   5.108   1.710   0.429 -2.4487 -0.8202  2.9687
 1000MOL0     H34974   5.077   1.423   0.519 -2.7557 -0.9913 -0.4345
 1000MOL0     H34975   5.004   1.496   0.372  3.9726  0.2320 -1.4006
 1000MOL0     H34976   4.953   1.607   0.658 -0.5189  1.2574 -0.4657
 1000MOL0     H34977   4.890   1.674   0.503  0.2732 -0.0993  0.0395
 1000MOL0     H34978   4.845   1.381   0.541  2.6873  1.3582 -1.5435
 1000MOL0     H34979   4.755   1.502   0.454 -1.0871 -0.6661  0.2663
 1000MOL0     H34980   4.719   1.616   0.679  0.8962  0.0264  0.2662
 1000MOL0     H34981   4.749   1.455   0.751  1.4062 -2.1027 -1.5174
 1000MOL0     H34982   5.640   1.858  -0.028  1.3866 -1.7202 -1.6341
 1000MOL0     H34983   5.869   1.851  -0.080 -2.6559  2.3996  0.5513
 1000MOL0     H34984   6.232   1.991   0.224 -0.8608 -0.4489 -0.0477
 1000MOL0     H34985   6.468   2.094   0.204  0.1386 -0.0052 -1.1506
 1000MOL0     H34986   8.508   1.844   0.533 -0.3747 -0.1421 -0.1422
 1000MOL0     H34987   8.727   1.878   0.514 -1.2578 -0.2953 -0.8202
 1000MOL0     H34988   9.118   1.971   0.859 -1.0123  1.6385  0.2813
 1000MOL0     H34989   9.350   2.038   0.930  2.0187  0.2559  0.4020
 1000MOL0     H34990   9.681   2.221   0.852 -0.9089  2.6256 -3.6200
 1000MOL0     H34991   9.573   2.099   0.912  0.8854  0.2286  0.5720
 1000MOL0     H34992   9.531   2.033   0.657 -0.1123  0.1275  0.5941
 1000MOL0     H34993   9.680   1.983   0.724  2.9891  0.5552  0.2729
 1000MOL0     H34994   9.800   2.164   0.620  0.8627 -1.8864 -2.5496
 1000MOL0     H34995   9.650   2.255   0.569 -0.4608  0.0083 -0.3733
 1000MOL0     H34996   9.758   2.144   0.371  0.7695  0.7821  0.8249
 1000MOL0     H34997   9.599   2.079   0.419  0.2654  0.7206  0.1241
 1000MOL0     H34998   9.860   1.739   0.433  0.2922  0.0697 -2.3197
 1000MOL0     H34999   9.340   2.340   0.631  0.1172  1.2192  1.8349
 1000MOL0     H35000   9.104   2.281   0.567 -0.0672  0.5484  1.2972
 1001MOL0     O35001   2.746  10.436   0.275  0.3434  0.3027 -0.9373
 1001MOL0     C35002   2.790  10.338   0.340 -0.1198 -0.3379  0.0462
 1001MOL0     O35003   2.719  10.245   0.400 -0.1204  0.1316  0.2771
 1001MOL0     C35004   2.586  10.273   0.410  0.1426  0.6419  0.9695
 1001MOL0     C35005   2.490  10.200   0.335 -0.6548 -0.2317  0.1857
 1001MOL0     C35006   2.352  10.238   0.339 -0.1025  1.2335 -0.5420
 1001MOL0     C35007   2.313  10.341   0.417 -0.0914 -0.1367  1.1626
 1001MOL0     O35008   2.183  10.393   0.418 -0.1173  0.0759 -0.5799
 1001MOL0     C35009   2.083  10.316   0.339 -0.6762 -0.3428  0.5453
 1001MOL0     C35010   1.949  10.376   0.372  0.5314 -0.1795 -0.0692
 1001MOL0     C35011   1.837  10.293   0.301 -0.1687 -0.9120 -0.1520
 1001MOL0     C35012   1.705  10.357   0.320  0.5324  0.2821  0.1006
 1001MOL0     C35013   1.598  10.307   0.219  0.3814  0.6497 -0.2875
 1001MOL0     C35014   1.579  10.156   0.217 -1.0744  0.1534  0.1076
 1001MOL0     C35015   1.467  10.130   0.115  0.1545 -0.0949 -0.4192
 1001MOL0     C35016   1.448   9.982   0.089  0.3975  0.5199  0.1791
 1001MOL0     N35017   1.578   9.920   0.028  0.8158 -1.0314 -0.8438
 1001MOL0     C35018   1.639   9.813   0.088 -0.1048 -0.1779 -0.3293
 1001MOL0     C35019   1.752   9.791   0.014  0.6520 -0.2755 -0.7433
 1001MOL0     C35020   1.854   9.694   0.055 -0.4145 -0.2298 -0.1143
 1001MOL0     C35021   1.995   9.744   0.017  0.4269 -0.1656 -0.1387
 1001MOL0     C35022   2.058   9.845   0.109 -0.1614 -0.1868  0.1855
 1001MOL0     C35023   2.127   9.956   0.029 -0.5765 -0.1370  0.1311
 1001MOL0     O35024   2.201   9.908  -0.085 -0.2766 -0.1427  0.0966
 1001MOL0     C35025   2.314   9.833  -0.075  0.1668  0.8472  0.5756
 1001MOL0     C35026   2.414   9.848   0.013 -0.0284  0.1609  0.4127
 1001MOL0     C35027   2.528   9.764   0.016  0.2936 -0.3981 -0.4571
 1001MOL0     C35028   2.639   9.794   0.113 -0.1397  0.1509  0.3447
 1001MOL0     C35029   2.531   9.657  -0.077  0.1833  0.6556 -0.4867
 1001MOL0     C35030   2.648   9.571  -0.084 -0.6113 -0.1580  0.9765
 1001MOL0     O35031   2.689   9.491   0.018 -0.1777 -0.2099  0.7149
 1001MOL0     C35032   2.804   9.408   0.006  0.1747 -0.2024  0.7180
 1001MOL0     C35033   2.842   9.329  -0.099  0.0865 -0.0826 -0.1711
 1001MOL0     C35034   2.967   9.258  -0.092  0.2072  0.5328  0.1590
 1001MOL0     C35035   3.039   9.246   0.032 -1.2244 -0.0042 -0.2473
 1001MOL0     O35036   3.157   9.189   0.050 -0.1980  0.3790 -0.5088
 1001MOL0     C35037   3.215   9.104  -0.050 -0.5176 -0.3553  0.4913
 1001MOL0     C35038   3.349   9.052  -0.015 -0.2415  0.1659 -0.5584
 1001MOL0     C35039   3.346   8.948   0.096  0.0997  0.1473  0.5955
 1001MOL0     C35040   3.491   8.911   0.136 -0.1623 -0.1853  0.3500
 1001MOL0     C35041   3.561   8.828   0.030  0.0837 -0.1534 -1.2529
 1001MOL0     C35042   3.704   8.785   0.070  0.6660 -0.2426 -0.0538
 1001MOL0     C35043   3.763   8.708  -0.046  0.1210 -0.1732 -0.6648
 1001MOL0     C35044   3.911   8.683  -0.023  0.2763  0.5288  0.3771
 1001MOL0    Cl35045   3.972   8.581  -0.164  0.3740 -0.0594  0.1757
 1001MOL0     C35046   2.987   9.311   0.139  0.7083 -0.5940  0.9609
 1001MOL0     C35047   2.871   9.394   0.125  0.0929 -0.2331  0.0392
 1001MOL0     O35048   2.700   9.576  -0.198  0.0185 -0.6830 -0.4822
 1001MOL0     C35049   2.427   9.640  -0.177 -0.4802 -0.4502  0.0676
 1001MOL0     C35050   2.321   9.732  -0.169 -0.2194  0.5290  0.3127
 1001MOL0     N35051   1.772   9.893  -0.071  0.8528 -0.4788  0.1861
 1001MOL0     N35052   1.664   9.971  -0.062 -0.0441 -0.8438 -0.4469
 1001MOL0     C35053   2.402  10.403   0.495  0.2318  0.2339 -0.5162
 1001MOL0     C35054   2.535  10.369   0.496 -0.0248 -0.0982  0.1313
 1001MOL0     C35055   2.937  10.337   0.355 -0.1831 -0.9302  0.2858
 1001MOL0     C35056   3.009  10.458   0.356  0.3410  0.0558 -0.2448
 1001MOL0     C35057   3.149  10.447   0.360 -0.2597  0.2345 -0.0499
 1001MOL0     C35058   3.224  10.325   0.369 -0.4764  0.2830  0.3540
 1001MOL0     O35059   3.361  10.332   0.381  0.2531 -0.0951 -0.3062
 1001MOL0     C35060   3.436  10.212   0.421  1.1211  0.3289  0.3459
 1001MOL0     C35061   3.493  10.114   0.312  0.1956 -0.1708 -0.1419
 1001MOL0     C35062   3.619  10.044   0.369 -0.1963 -0.3277  0.2752
 1001MOL0     C35063   3.678   9.952   0.263 -0.5565  0.4035 -1.4790
 1001MOL0     C35064   3.795   9.890   0.315 -0.0534  0.5561 -0.6548
 1001MOL0     C35065   3.897   9.848   0.369  0.0511  0.2546 -0.3816
 1001MOL0     C35066   3.140  10.204   0.369  0.5467 -0.6394 -0.0158
 1001MOL0     C35067   3.002  10.213   0.365 -0.0855  0.7065  0.3402
 1001MOL0     H35068   2.520  10.115   0.275  0.6397  2.0785 -2.6778
 1001MOL0     H35069   2.284  10.178   0.279  0.5160  2.1518 -2.2245
 1001MOL0     H35070   2.106  10.332   0.233 -0.4592 -0.6356  0.5466
 1001MOL0     H35071   2.090  10.209   0.360  1.3887 -0.1746  0.9008
 1001MOL0     H35072   1.929  10.369   0.479  1.2909  1.1402  0.1802
 1001MOL0     H35073   1.942  10.478   0.333 -3.4130 -0.5304 -0.6292
 1001MOL0     H35074   1.870  10.279   0.198  1.0611  2.1391 -0.2736
 1001MOL0     H35075   1.849  10.190   0.334 -0.7177 -1.2268 -0.9165
 1001MOL0     H35076   1.673  10.334   0.422  0.1821 -0.3082 -0.1425
 1001MOL0     H35077   1.712  10.466   0.316  2.4489  0.3361  2.3720
 1001MOL0     H35078   1.503  10.357   0.240  0.4173  0.4610  0.3721
 1001MOL0     H35079   1.631  10.333   0.118 -0.3468  1.2161 -0.3879
 1001MOL0     H35080   1.680  10.120   0.195 -0.3251 -0.6730  4.0744
 1001MOL0     H35081   1.558  10.119   0.318 -1.9529  1.9194  0.6214
 1001MOL0     H35082   1.376  10.175   0.155 -0.0074 -0.8482  0.0728
 1001MOL0     H35083   1.498  10.192   0.030  1.1096 -2.3018 -1.7794
 1001MOL0     H35084   1.361   9.958   0.028 -0.6457  3.4446  0.4110
 1001MOL0     H35085   1.427   9.939   0.187 -0.6706 -0.0239 -0.2717
 1001MOL0     H35086   1.603   9.751   0.169  2.1989  0.0495  0.9649
 1001MOL0     H35087   1.854   9.675   0.162  0.4083  0.3695 -0.0013
 1001MOL0     H35088   1.832   9.600   0.003 -2.3531  0.7040 -1.1043
 1001MOL0     H35089   1.986   9.785  -0.084 -2.2107  0.4323  0.2504
 1001MOL0     H35090   2.060   9.657   0.007 -0.0866 -0.4184 -1.4921
 1001MOL0     H35091   2.126   9.797   0.180 -1.6395  0.1608  1.9322
 1001MOL0     H35092   1.983   9.901   0.166  0.2869  0.0500  0.5560
 1001MOL0     H35093   2.200  10.004   0.095  0.2143 -1.4562  0.2546
 1001MOL0     H35094   2.054  10.027  -0.011 -2.2200 -2.5530 -1.4887
 1001MOL0     H35095   2.401   9.925   0.089 -0.9984 -0.8728  1.3259
 1001MOL0     H35096   2.635   9.894   0.157  0.2518  0.4808 -0.3491
 1001MOL0     H35097   2.631   9.720   0.193  0.8523 -1.5139 -1.0201
 1001MOL0     H35098   2.732   9.781   0.057  0.7545  0.7649  1.6336
 1001MOL0     H35099   2.786   9.348  -0.190  1.6319  0.2845 -1.0932
 1001MOL0     H35100   3.007   9.203  -0.177 -1.0449 -0.2572  0.0585
 1001MOL0     H35101   3.153   9.016  -0.072 -1.7268  0.9269 -1.4598
 1001MOL0     H35102   3.232   9.163  -0.140  3.3956 -0.5959  0.9094
 1001MOL0     H35103   3.382   9.003  -0.107 -1.6758 -1.8336 -0.0767
 1001MOL0     H35104   3.410   9.137   0.017 -0.8391  0.4746 -0.2273
 1001MOL0     H35105   3.299   8.859   0.052 -4.8063  2.4525  0.4995
 1001MOL0     H35106   3.296   8.985   0.185 -2.1925  3.2588 -1.7738
 1001MOL0     H35107   3.558   8.995   0.159  1.6295 -1.1222 -1.1319
 1001MOL0     H35108   3.480   8.853   0.227 -0.3760  0.7230  0.9162
 1001MOL0     H35109   3.562   8.887  -0.063  0.3461  0.2786 -0.9775
 1001MOL0     H35110   3.502   8.736   0.019 -1.4109  0.5289  0.5808
 1001MOL0     H35111   3.769   8.871   0.090  3.1914 -1.7732 -1.1634
 1001MOL0     H35112   3.688   8.724   0.159  1.4158 -0.5472 -0.1153
 1001MOL0     H35113   3.764   8.763  -0.140  0.4489 -1.2137 -1.2890
 1001MOL0     H35114   3.715   8.610  -0.058 -1.0236  0.0879  1.3772
 1001MOL0     H35115   3.919   8.623   0.068 -0.7591  0.0635  0.1737
 1001MOL0     H35116   3.973   8.773  -0.019 -0.7118  1.2471  0.0494
 1001MOL0     H35117   3.034   9.310   0.236  1.9522 -1.6372  0.3727
 1001MOL0     H35118   2.828   9.440   0.213 -1.7426  1.1887 -1.5111
 1001MOL0     H35119   2.445   9.565  -0.254  1.2847  0.8590 -0.8681
 1001MOL0     H35120   2.258   9.749  -0.256  1.5663  0.5452 -1.0163
 1001MOL0     H35121   2.371  10.487   0.557  0.8881  1.2458 -1.5213
 1001MOL0     H35122   2.607  10.427   0.554  0.7938 -0.0747 -0.8640
 1001MOL0     H35123   2.963  10.555   0.338  1.1357  0.0697 -2.4382
 1001MOL0     H35124   3.211  10.536   0.355 -0.9298  0.6868 -0.5925
 1001MOL0     H35125   3.519  10.253   0.479  0.8256 -0.6693  1.5136
 1001MOL0     H35126   3.374  10.151   0.487 -1.6647  1.6321 -0.9153
 1001MOL0     H35127   3.523  10.175   0.227 -0.8908  0.9315  0.2418
 1001MOL0     H35128   3.423  10.037   0.279 -4.2638  3.5773 -0.3126
 1001MOL0     H35129   3.585   9.981   0.452 -1.3211 -0.7228 -0.4730
 1001MOL0     H35130   3.690  10.121   0.403 -1.2228 -0.0323  1.8635
 1001MOL0     H35131   3.720  10.002   0.176  0.8606  0.2098 -0.9451
 1001MOL0     H35132   3.602   9.881   0.229 -0.7563 -0.6803  0.9559
 1001MOL0     H35133   3.986   9.821   0.422 -0.0388  0.2148 -0.2463
 1001MOL0     H35134   3.186  10.106   0.374  1.0932 -0.3109  2.7137
 1001MOL0     H35135   2.946  10.122   0.384  1.6474  0.2632  4.3107
 1002MOL0     O35136   6.609   9.144   2.654 -0.4616  0.2594 -0.1238
 1002MOL0     C35137   6.651   9.032   2.675  0.0295 -0.3217 -0.4504
 1002MOL0     O35138   6.576   8.921   2.710  0.4876 -0.3399  0.0680
 1002MOL0     C35139   6.437   8.925   2.701  1.1086  0.3286  0.1457
 1002MOL0     C35140   6.370   8.960   2.583 -0.7186  0.6278  0.4137
 1002MOL0     C35141   6.232   8.940   2.574  0.5180  0.8668  0.3815
 1002MOL0     C35142   6.155   8.882   2.675 -0.1133  0.5640  0.5966
 1002MOL0     O35143   6.022   8.879   2.660 -0.6403  0.7544 -0.2513
 1002MOL0     C35144   5.974   8.743   2.657  0.6155  0.5453 -0.9681
 1002MOL0     C35145   5.819   8.746   2.656  0.2782 -0.0122 -0.5646
 1002MOL0     C35146   5.750   8.787   2.521  0.4301 -0.7261  0.1582
 1002MOL0     C35147   5.598   8.797   2.517  0.5631  0.2117 -0.1616
 1002MOL0     C35148   5.534   8.651   2.528  0.2847  0.3409  0.5991
 1002MOL0     C35149   5.386   8.666   2.500  0.6393  0.2629  0.1536
 1002MOL0     C35150   5.302   8.539   2.469  0.5775 -0.5488  1.3654
 1002MOL0     C35151   5.282   8.439   2.580  1.4026 -0.0871 -0.8733
 1002MOL0     N35152   5.184   8.334   2.536  0.5484 -0.5486  0.4571
 1002MOL0     C35153   5.045   8.351   2.521 -1.4757 -0.0763  0.1179
 1002MOL0     C35154   4.999   8.237   2.471 -0.7433 -0.4375 -0.3407
 1002MOL0     C35155   4.861   8.195   2.463 -0.7217  0.0475  0.1648
 1002MOL0     C35156   4.774   8.271   2.356  0.2877  0.2127 -0.5437
 1002MOL0     C35157   4.658   8.198   2.292  0.3737 -0.2499  0.1804
 1002MOL0     C35158   4.582   8.263   2.165 -0.0998  0.4102 -0.1074
 1002MOL0     O35159   4.507   8.386   2.196  0.3698  0.1219 -0.0202
 1002MOL0     C35160   4.372   8.367   2.233 -0.2850 -1.5968 -0.9804
 1002MOL0     C35161   4.271   8.369   2.135 -0.4131 -0.2894 -0.1307
 1002MOL0     C35162   4.133   8.372   2.158 -1.0164  0.1459 -0.4262
 1002MOL0     C35163   4.034   8.369   2.045  0.0581 -1.2621  0.6039
 1002MOL0     C35164   4.089   8.373   2.289  0.5777 -0.1313 -0.5687
 1002MOL0     C35165   3.947   8.391   2.322  0.5974 -0.2516 -0.1616
 1002MOL0     O35166   3.874   8.285   2.345  0.1997  0.3493 -0.2246
 1002MOL0     C35167   3.743   8.303   2.369 -0.1477 -0.1898 -0.9401
 1002MOL0     C35168   3.656   8.331   2.272 -0.0059  0.0239 -0.1647
 1002MOL0     C35169   3.517   8.341   2.292 -0.3490 -0.3628  0.1521
 1002MOL0     C35170   3.466   8.324   2.419  0.2156 -0.4663  0.4312
 1002MOL0     O35171   3.329   8.315   2.427  0.2909  0.2371  0.1524
 1002MOL0     C35172   3.263   8.330   2.550  0.3714  0.6169 -1.0732
 1002MOL0     C35173   3.136   8.249   2.520 -0.4515 -1.4615 -0.9400
 1002MOL0     C35174   3.039   8.259   2.636  0.3403 -0.4500 -0.7776
 1002MOL0     C35175   2.900   8.200   2.606  0.5747  0.1010  0.5738
 1002MOL0     C35176   2.833   8.268   2.487 -0.3595 -0.3054 -0.4209
 1002MOL0     C35177   2.686   8.221   2.468  0.4630 -0.6891 -0.0944
 1002MOL0     C35178   2.606   8.314   2.379 -0.5080  0.2859  0.2453
 1002MOL0     C35179   2.488   8.249   2.313 -0.6469 -1.1730 -0.3502
 1002MOL0    Cl35180   2.398   8.385   2.235  0.2418  0.4498 -0.2346
 1002MOL0     C35181   3.559   8.308   2.523  0.2604  0.2015  0.4156
 1002MOL0     C35182   3.695   8.298   2.505 -0.4719  0.1603 -0.0741
 1002MOL0     O35183   3.904   8.504   2.311 -0.5193  0.1573 -0.3077
 1002MOL0     C35184   4.183   8.383   2.390  0.8127  0.2861 -0.5108
 1002MOL0     C35185   4.323   8.367   2.367 -0.2307 -0.4419  0.0774
 1002MOL0     N35186   5.113   8.162   2.432  0.1738 -0.0739 -0.4701
 1002MOL0     N35187   5.220   8.217   2.472  0.0761  0.3941 -0.9957
 1002MOL0     C35188   6.224   8.846   2.791  0.0754  0.3771 -0.5591
 1002MOL0     C35189   6.362   8.857   2.803  0.2442  0.1920  0.0531
 1002MOL0     C35190   6.798   9.011   2.655  0.6463  0.5229 -0.2320
 1002MOL0     C35191   6.859   8.896   2.694  0.1482 -0.5851  0.9491
 1002MOL0     C35192   6.986   8.859   2.648  0.5409  0.1975 -0.3070
 1002MOL0     C35193   7.056   8.941   2.563  0.6165  0.3289 -0.4182
 1002MOL0     O35194   7.172   8.908   2.495 -0.1554 -0.3408 -0.2566
 1002MOL0     C35195   7.254   8.805   2.549  0.0832 -0.4237  0.0044
 1002MOL0     C35196   7.372   8.792   2.458  0.4579  0.0740 -0.0465
 1002MOL0     C35197   7.475   8.722   2.540  0.3332 -0.3460  0.0936
 1002MOL0     C35198   7.588   8.681   2.446  0.5208 -0.8423 -0.6932
 1002MOL0     C35199   7.684   8.605   2.525 -0.0493  0.0193  0.2543
 1002MOL0     C35200   7.764   8.557   2.596 -0.5061 -0.8623 -0.8098
 1002MOL0     C35201   7.000   9.061   2.523  0.5984 -0.4540  0.0612
 1002MOL0     C35202   6.872   9.094   2.570  0.3270  0.7841 -0.1095
 1002MOL0     H35203   6.429   9.012   2.508 -0.1406  0.5387  0.8053
 1002MOL0     H35204   6.174   8.958   2.484 -0.7468 -1.0755  0.7392
 1002MOL0     H35205   6.013   8.686   2.573  1.0617 -0.7056  0.0529
 1002MOL0     H35206   6.010   8.693   2.747  1.9732  0.8096 -1.3420
 1002MOL0     H35207   5.782   8.651   2.696 -0.1838  0.3003 -0.2383
 1002MOL0     H35208   5.783   8.818   2.730  0.4571 -0.0690 -0.4207
 1002MOL0     H35209   5.793   8.877   2.476  1.9757 -0.4377  2.0943
 1002MOL0     H35210   5.786   8.702   2.461  0.6761 -1.4713  1.3205
 1002MOL0     H35211   5.559   8.863   2.596  0.0761  1.1789 -1.1760
 1002MOL0     H35212   5.567   8.835   2.419  0.4876 -1.9793 -1.0372
 1002MOL0     H35213   5.580   8.591   2.449  2.2869  3.5488 -0.8638
 1002MOL0     H35214   5.548   8.602   2.625 -1.6659 -2.2625 -0.3167
 1002MOL0     H35215   5.328   8.726   2.571 -1.3887 -0.1197 -1.0817
 1002MOL0     H35216   5.387   8.722   2.407 -0.1436  2.1785  1.2288
 1002MOL0     H35217   5.205   8.568   2.426 -0.0289  0.0153  3.0504
 1002MOL0     H35218   5.354   8.488   2.387 -1.0031 -0.8295  0.4833
 1002MOL0     H35219   5.249   8.493   2.669 -2.6399 -3.2496 -0.1849
 1002MOL0     H35220   5.372   8.382   2.605 -0.6056 -2.3294  1.9379
 1002MOL0     H35221   4.985   8.440   2.536 -3.0145 -0.7907 -1.4269
 1002MOL0     H35222   4.856   8.089   2.436 -4.4944 -0.6548  2.7661
 1002MOL0     H35223   4.817   8.213   2.562 -1.2586  4.0293 -0.6498
 1002MOL0     H35224   4.841   8.298   2.273  1.5493  0.7808  0.6105
 1002MOL0     H35225   4.732   8.361   2.403  1.4327  1.3441 -1.5940
 1002MOL0     H35226   4.581   8.189   2.369 -1.5346  1.0961 -1.4544
 1002MOL0     H35227   4.685   8.099   2.255 -1.1975 -0.0406 -1.6622
 1002MOL0     H35228   4.520   8.190   2.113 -0.5290  1.4909 -1.1459
 1002MOL0     H35229   4.665   8.285   2.097 -1.4437  0.7048 -1.7142
 1002MOL0     H35230   4.301   8.381   2.031  0.9599 -3.2109 -0.1628
 1002MOL0     H35231   4.019   8.476   2.025 -1.1185 -1.1619  1.8412
 1002MOL0     H35232   4.072   8.323   1.954  0.0691  1.5551 -0.9325
 1002MOL0     H35233   3.937   8.322   2.067 -0.2993  0.5694  3.4295
 1002MOL0     H35234   3.684   8.320   2.168 -1.5218 -2.0458 -0.4029
 1002MOL0     H35235   3.454   8.343   2.203 -2.0627  1.2598  1.3157
 1002MOL0     H35236   3.314   8.283   2.634 -0.3189  1.7828  0.0319
 1002MOL0     H35237   3.248   8.436   2.573  0.3993  0.2772  0.5895
 1002MOL0     H35238   3.089   8.290   2.430 -2.5369 -2.3324 -0.3303
 1002MOL0     H35239   3.170   8.147   2.501 -1.6784 -2.5830  2.0868
 1002MOL0     H35240   3.022   8.361   2.670 -1.5903 -1.0633  0.2297
 1002MOL0     H35241   3.085   8.200   2.716  0.2479 -0.9917 -1.1169
 1002MOL0     H35242   2.913   8.095   2.579  2.3053  0.4879 -0.1725
 1002MOL0     H35243   2.838   8.201   2.697  2.2799 -0.5845  1.7927
 1002MOL0     H35244   2.894   8.248   2.398  1.0050 -3.4696  1.0567
 1002MOL0     H35245   2.825   8.377   2.493  1.6867 -0.0985 -0.5709
 1002MOL0     H35246   2.690   8.125   2.414 -2.0577 -1.2639  0.6332
 1002MOL0     H35247   2.645   8.206   2.568 -1.3930 -0.7390 -0.8207
 1002MOL0     H35248   2.669   8.354   2.300 -0.8841 -0.4529 -0.4449
 1002MOL0     H35249   2.583   8.400   2.442  2.2896  1.1492  0.2248
 1002MOL0     H35250   2.428   8.191   2.384  1.2654 -0.8246  1.6727
 1002MOL0     H35251   2.517   8.176   2.237  2.6014  0.6642 -1.0742
 1002MOL0     H35252   3.518   8.299   2.623  1.9778 -1.1958  1.0243
 1002MOL0     H35253   3.773   8.278   2.578 -2.1307  1.7442  2.2655
 1002MOL0     H35254   4.148   8.394   2.493  1.0824 -2.2775 -0.0762
 1002MOL0     H35255   4.388   8.366   2.454  2.0642 -0.1649 -1.5434
 1002MOL0     H35256   6.165   8.802   2.872  0.5702 -1.1057 -0.9747
 1002MOL0     H35257   6.419   8.818   2.886  2.8977  3.0314 -0.2444
 1002MOL0     H35258   6.793   8.828   2.747 -0.1133 -2.4876 -1.6030
 1002MOL0     H35259   7.019   8.759   2.675  2.0662  0.9337  0.7043
 1002MOL0     H35260   7.274   8.834   2.653 -0.2137 -1.9755  0.5299
 1002MOL0     H35261   7.205   8.707   2.549  1.2456 -1.0241  0.5029
 1002MOL0     H35262   7.411   8.893   2.444  0.5864  0.0606  0.2011
 1002MOL0     H35263   7.344   8.750   2.361  2.0802  0.1114 -0.5657
 1002MOL0     H35264   7.427   8.636   2.588 -4.3809  2.2907  0.7123
 1002MOL0     H35265   7.524   8.790   2.610  0.5293 -1.1551  0.7647
 1002MOL0     H35266   7.643   8.772   2.420 -1.5003  1.4645  2.4120
 1002MOL0     H35267   7.559   8.618   2.362 -0.1778 -0.9719 -0.3658
 1002MOL0     H35268   7.826   8.512   2.670  0.2874  0.2335 -0.7750
 1002MOL0     H35269   7.044   9.130   2.451 -3.5168  0.1659 -2.1804
 1002MOL0     H35270   6.821   9.186   2.544 -1.8003  0.1517  1.5557
 1003MOL0     O35271   8.001   7.978  11.272 -0.0823 -0.3373 -0.4317
 1003MOL0     C35272   8.084   8.048  11.217 -1.3876  0.7724 -0.1639
 1003MOL0     O35273   8.071   8.167  11.154  0.7838 -0.0881  0.2319
 1003MOL0     C35274   7.947   8.229  11.147 -0.5797  0.4405  0.2682
 1003MOL0     C35275   7.942   8.330  11.054  0.3553 -0.3602 -0.4330
 1003MOL0     C35276   7.832   8.412  11.045  0.1363  0.0436  0.3943
 1003MOL0     C35277   7.717   8.376  11.107  0.4209  0.0719  0.0467
 1003MOL0     O35278   7.620   8.469  11.076 -0.2478 -0.0852 -0.0299
 1003MOL0     C35279   7.487   8.431  11.099  0.0019  0.4775 -0.1737
 1003MOL0     C35280   7.401   8.557  11.073  0.7014  0.0342  0.0183
 1003MOL0     C35281   7.260   8.528  11.099  0.2839  0.0109 -0.8402
 1003MOL0     C35282   7.177   8.653  11.054  0.5091  0.1137 -0.5639
 1003MOL0     C35283   7.023   8.636  11.082  0.2021  0.0796 -0.8765
 1003MOL0     C35284   6.936   8.758  11.021  0.3753  0.1378  0.1735
 1003MOL0     C35285   6.810   8.709  10.958 -1.0387  0.2721 -0.0293
 1003MOL0     C35286   6.758   8.809  10.853 -0.3365  0.2030  0.6175
 1003MOL0     N35287   6.637   8.762  10.783 -0.2380  0.1946  0.6362
 1003MOL0     C35288   6.515   8.830  10.768  0.2789  0.4201  0.0515
 1003MOL0     C35289   6.426   8.745  10.698 -0.0782  0.1239 -0.2760
 1003MOL0     C35290   6.291   8.774  10.650 -0.1349 -0.2662 -0.8260
 1003MOL0     C35291   6.219   8.894  10.724 -0.5813  0.7644 -0.7360
 1003MOL0     C35292   6.191   8.837  10.863 -0.8727 -0.2994  1.5774
 1003MOL0     C35293   6.130   8.952  10.939  0.8875  0.0088  0.2710
 1003MOL0     O35294   6.194   8.978  11.065 -0.2056 -0.0484 -0.8930
 1003MOL0     C35295   6.162   9.099  11.123  0.2246 -0.3161 -0.9625
 1003MOL0     C35296   6.246   9.142  11.229  0.9208 -0.3657  0.0021
 1003MOL0     C35297   6.224   9.265  11.293  0.1581 -0.1970 -0.1686
 1003MOL0     C35298   6.328   9.317  11.394  0.3932 -0.0410  0.7769
 1003MOL0     C35299   6.108   9.346  11.266 -0.2846  0.2825  0.6100
 1003MOL0     C35300   6.058   9.469  11.330  0.1216  0.1380 -0.2075
 1003MOL0     O35301   5.930   9.500  11.287  0.1547  0.0313 -0.0621
 1003MOL0     C35302   5.853   9.604  11.333  0.0509  0.1286 -0.0754
 1003MOL0     C35303   5.746   9.643  11.252  0.0776 -0.2571 -0.0048
 1003MOL0     C35304   5.658   9.747  11.294  0.3062  0.4769  0.8632
 1003MOL0     C35305   5.678   9.816  11.411 -0.2393  0.4824 -0.3583
 1003MOL0     O35306   5.607   9.933  11.427 -0.4544  0.8243 -0.3142
 1003MOL0     C35307   5.645  10.026  11.526 -0.1923  0.1111 -0.3743
 1003MOL0     C35308   5.560  10.153  11.511 -0.1311  0.8625 -0.4165
 1003MOL0     C35309   5.415  10.133  11.538  0.0422  0.5048  0.1982
 1003MOL0     C35310   5.325  10.262  11.498 -0.2364 -0.0116 -0.4797
 1003MOL0     C35311   5.195  10.266  11.577  0.1160 -0.1379 -0.8343
 1003MOL0     C35312   5.113  10.389  11.534  0.0926  0.7599 -0.6339
 1003MOL0     C35313   4.978  10.406  11.594 -0.3336  0.5517  0.2874
 1003MOL0     C35314   4.883  10.292  11.586  0.2586  0.8715  0.1503
 1003MOL0    Cl35315   4.839  10.230  11.408  0.1844 -0.0784  0.1073
 1003MOL0     C35316   5.787   9.778  11.489  0.6689 -0.3378  0.3737
 1003MOL0     C35317   5.869   9.675  11.453  0.1814  0.9096 -0.1147
 1003MOL0     O35318   6.116   9.528  11.424 -0.0762  0.3273 -0.5372
 1003MOL0     C35319   6.029   9.294  11.161  0.2545  0.2244 -0.4076
 1003MOL0     C35320   6.048   9.170  11.097  0.1762 -0.5210 -0.4568
 1003MOL0     N35321   6.499   8.631  10.672  0.8296 -0.0016 -0.0526
 1003MOL0     N35322   6.624   8.642  10.719 -0.4234 -0.6631 -0.3893
 1003MOL0     C35323   7.713   8.281  11.205  0.3869 -0.2069 -0.1181
 1003MOL0     C35324   7.831   8.206  11.229  0.5341  0.6179 -0.0559
 1003MOL0     C35325   8.225   7.988  11.210  0.2406  0.1227 -0.3968
 1003MOL0     C35326   8.256   7.891  11.301  0.6438 -0.5131  0.4489
 1003MOL0     C35327   8.392   7.855  11.305  0.3182  0.0585  0.6183
 1003MOL0     C35328   8.498   7.900  11.231  0.3786 -0.3676  0.1345
 1003MOL0     O35329   8.631   7.854  11.252 -0.1269 -0.4177  0.6244
 1003MOL0     C35330   8.734   7.925  11.176 -0.2306 -0.0289  0.1145
 1003MOL0     C35331   8.871   7.893  11.227 -0.1208  0.9444  0.8328
 1003MOL0     C35332   8.907   7.749  11.171 -0.3221 -0.1006 -0.2991
 1003MOL0     C35333   9.057   7.718  11.210  0.1520  0.5612  0.0089
 1003MOL0     C35334   9.149   7.818  11.153 -0.4879  0.3681  0.9148
 1003MOL0     C35335   9.222   7.910  11.114 -0.4371  0.2541  0.1101
 1003MOL0     C35336   8.460   7.993  11.132 -0.1381  0.0242  0.0937
 1003MOL0     C35337   8.326   8.029  11.120 -0.1021 -0.0810  0.0377
 1003MOL0     H35338   8.033   8.348  10.997 -0.4363 -0.4874 -1.7873
 1003MOL0     H35339   7.839   8.476  10.957  0.0528 -2.6853 -1.7200
 1003MOL0     H35340   7.452   8.354  11.029 -0.9618  0.6430  0.1119
 1003MOL0     H35341   7.457   8.400  11.199 -2.7638  0.5283 -0.9114
 1003MOL0     H35342   7.434   8.630  11.148 -1.2513 -0.5879  1.5704
 1003MOL0     H35343   7.420   8.591  10.971 -0.8842 -0.0336 -0.3313
 1003MOL0     H35344   7.228   8.436  11.049 -2.2362  0.8607 -0.9314
 1003MOL0     H35345   7.226   8.508  11.201 -4.2595 -2.7139 -2.6095
 1003MOL0     H35346   7.214   8.748  11.094  4.5684 -1.2727 -0.5738
 1003MOL0     H35347   7.189   8.659  10.946  3.2968  1.1478 -0.2814
 1003MOL0     H35348   6.996   8.545  11.028  0.0329 -0.5892  0.3182
 1003MOL0     H35349   7.005   8.632  11.190  1.0182  2.8892 -0.5437
 1003MOL0     H35350   6.914   8.838  11.093  1.3570 -0.4348  1.1333
 1003MOL0     H35351   7.001   8.804  10.946 -1.7185  2.6304 -0.2763
 1003MOL0     H35352   6.831   8.615  10.906  0.4549  0.8516 -0.5190
 1003MOL0     H35353   6.734   8.688  11.034  0.5440 -0.2507  1.4574
 1003MOL0     H35354   6.838   8.846  10.788  1.1116 -0.9400  1.6698
 1003MOL0     H35355   6.729   8.902  10.902  0.9275  1.0712 -0.2170
 1003MOL0     H35356   6.490   8.927  10.808 -3.0740 -0.4654  0.4071
 1003MOL0     H35357   6.295   8.799  10.543  1.8729  0.0465 -0.7273
 1003MOL0     H35358   6.226   8.690  10.671 -2.9882  2.2020  1.0274
 1003MOL0     H35359   6.125   8.929  10.681 -1.2021  1.9762  1.4656
 1003MOL0     H35360   6.288   8.978  10.732 -2.8782  2.8736 -1.8191
 1003MOL0     H35361   6.284   8.809  10.915  1.2504  3.5954  0.2940
 1003MOL0     H35362   6.127   8.748  10.863  0.2570 -1.1622  0.1006
 1003MOL0     H35363   6.028   8.920  10.959  1.1740 -1.1684 -0.0669
 1003MOL0     H35364   6.133   9.045  10.881 -1.3912  0.9775  1.5985
 1003MOL0     H35365   6.315   9.069  11.271 -0.9510 -0.4562  3.2922
 1003MOL0     H35366   6.419   9.260  11.378 -0.6703 -1.2698 -1.2315
 1003MOL0     H35367   6.342   9.422  11.367 -3.2986  0.0496 -1.5122
 1003MOL0     H35368   6.289   9.299  11.495 -0.1334 -0.9385  0.4300
 1003MOL0     H35369   5.718   9.575  11.172  0.2674 -1.5487  0.9944
 1003MOL0     H35370   5.567   9.771  11.241  0.7701 -1.8241 -1.1472
 1003MOL0     H35371   5.627   9.989  11.627  0.1763 -0.5428 -0.5382
 1003MOL0     H35372   5.746  10.065  11.510  0.0924 -0.5017 -0.1143
 1003MOL0     H35373   5.599  10.233  11.575  1.5050 -0.5892  0.5010
 1003MOL0     H35374   5.578  10.191  11.410  2.5386 -0.5502 -0.5848
 1003MOL0     H35375   5.404  10.114  11.646  1.8298  0.3729  0.3853
 1003MOL0     H35376   5.373  10.042  11.492 -0.1228  2.4361 -3.8597
 1003MOL0     H35377   5.382  10.350  11.530  1.3159 -0.3975 -2.0348
 1003MOL0     H35378   5.306  10.256  11.390 -1.1392 -1.0263 -0.2766
 1003MOL0     H35379   5.222  10.285  11.681 -0.0267 -1.6593 -0.4925
 1003MOL0     H35380   5.142  10.170  11.581  0.1403 -0.1744  4.0725
 1003MOL0     H35381   5.169  10.478  11.565  1.7087 -0.6476  0.7067
 1003MOL0     H35382   5.110  10.383  11.425 -1.5522  0.4204 -0.5935
 1003MOL0     H35383   4.930  10.502  11.570  1.0640  1.8433  2.3221
 1003MOL0     H35384   4.993  10.410  11.702 -2.5567 -0.4352  0.7051
 1003MOL0     H35385   4.794  10.321  11.641  1.0788  0.9848  1.4611
 1003MOL0     H35386   4.928  10.212  11.646 -0.2329  0.0222 -0.5939
 1003MOL0     H35387   5.812   9.826  11.583  1.1703 -1.7739  0.9998
 1003MOL0     H35388   5.949   9.644  11.519  0.3258 -0.5322 -0.9299
 1003MOL0     H35389   5.943   9.352  11.130  0.0375 -0.3163 -0.8242
 1003MOL0     H35390   5.979   9.137  11.019 -0.2677 -2.9655  0.8634
 1003MOL0     H35391   7.622   8.284  11.264 -0.2151  4.4782 -0.9099
 1003MOL0     H35392   7.813   8.131  11.305  1.2913 -0.5190 -0.9732
 1003MOL0     H35393   8.177   7.848  11.361  1.3077 -2.2122  0.1413
 1003MOL0     H35394   8.425   7.775  11.370  0.7059 -1.4256 -1.2911
 1003MOL0     H35395   8.717   7.916  11.068 -1.2439  2.8463 -0.0559
 1003MOL0     H35396   8.725   8.028  11.210 -0.1442 -0.2768  0.9160
 1003MOL0     H35397   8.879   7.893  11.336 -2.2999 -1.1008  1.0695
 1003MOL0     H35398   8.937   7.969  11.184  0.2044  1.0497  1.5126
 1003MOL0     H35399   8.901   7.743  11.062  4.0388 -0.9188 -0.6940
 1003MOL0     H35400   8.837   7.671  11.203 -0.3237 -0.3209 -0.8151
 1003MOL0     H35401   9.092   7.621  11.175 -0.3021 -0.5344  2.3936
 1003MOL0     H35402   9.065   7.722  11.319 -1.0581  2.7778  0.0866
 1003MOL0     H35403   9.271   7.992  11.065  0.3602  0.5793  1.4203
 1003MOL0     H35404   8.543   8.034  11.075  0.7170  1.4513  2.2128
 1003MOL0     H35405   8.302   8.100  11.042  1.4718  0.3477 -0.0876
 1004MOL0     O35406   2.559   9.005   5.159  0.1206 -0.2403 -0.8186
 1004MOL0     C35407   2.558   9.073   5.057 -0.0243  0.2301  0.0708
 1004MOL0     O35408   2.667   9.134   5.001 -0.5810 -0.7156 -0.3655
 1004MOL0     C35409   2.775   9.144   5.088  0.1112  0.3422 -0.1225
 1004MOL0     C35410   2.866   9.043   5.080  0.7589  0.1534  0.3640
 1004MOL0     C35411   2.979   9.055   5.165  0.1299 -0.4350 -0.4195
 1004MOL0     C35412   3.007   9.168   5.242 -0.0403 -0.5354 -0.4687
 1004MOL0     O35413   3.123   9.160   5.312 -0.4987  0.1530 -0.4370
 1004MOL0     C35414   3.150   9.271   5.399  0.0292  0.6696  0.2789
 1004MOL0     C35415   3.276   9.225   5.477  0.0151  1.9903  1.0287
 1004MOL0     C35416   3.334   9.311   5.588 -0.3733  0.4653 -1.3419
 1004MOL0     C35417   3.440   9.243   5.676  0.7215 -1.0465  0.3379
 1004MOL0     C35418   3.490   9.334   5.788  0.1475 -0.0976 -0.4817
 1004MOL0     C35419   3.603   9.268   5.852  0.0479 -0.4047  0.0871
 1004MOL0     C35420   3.651   9.333   5.985  0.0829  0.2914 -0.5447
 1004MOL0     C35421   3.783   9.280   6.045  0.0961  0.3331 -0.6335
 1004MOL0     N35422   3.744   9.209   6.182  0.2472  0.3087  0.3734
 1004MOL0     C35423   3.672   9.089   6.197  0.0921  0.4301  0.5839
 1004MOL0     C35424   3.688   9.056   6.329 -0.7548 -0.1780 -0.1173
 1004MOL0     C35425   3.637   8.931   6.397 -0.1456 -1.1671  0.7186
 1004MOL0     C35426   3.487   8.940   6.412  0.6996 -0.4428  0.0885
 1004MOL0     C35427   3.454   9.055   6.511 -0.9073  0.6155  0.2839
 1004MOL0     C35428   3.309   9.082   6.524 -0.7879  0.2523  0.7499
 1004MOL0     O35429   3.243   9.098   6.400  0.1393 -0.2708  0.3542
 1004MOL0     C35430   3.113   9.130   6.411 -0.0611  0.1487 -0.3388
 1004MOL0     C35431   3.073   9.259   6.375  0.0793  0.7393  0.2530
 1004MOL0     C35432   2.941   9.299   6.378  0.3673 -0.0583 -0.5415
 1004MOL0     C35433   2.916   9.440   6.329 -0.2626  0.7865 -0.5988
 1004MOL0     C35434   2.843   9.207   6.434 -0.4992  0.4758 -0.4322
 1004MOL0     C35435   2.703   9.235   6.454  0.1794 -0.5969 -0.2195
 1004MOL0     O35436   2.626   9.159   6.528  0.5581  0.1163  0.4060
 1004MOL0     C35437   2.488   9.147   6.497 -0.8757  0.1223 -0.2889
 1004MOL0     C35438   2.391   9.155   6.597  0.5004 -0.5824 -0.1099
 1004MOL0     C35439   2.254   9.130   6.572  0.2019 -0.6808  0.7947
 1004MOL0     C35440   2.211   9.090   6.441 -0.0191  0.6159 -0.2866
 1004MOL0     O35441   2.083   9.051   6.428 -0.1700  0.3663  0.0872
 1004MOL0     C35442   2.045   8.997   6.303 -0.2124  0.0881  0.4737
 1004MOL0     C35443   1.898   8.966   6.302 -0.3684  0.0462 -0.5440
 1004MOL0     C35444   1.837   8.925   6.164 -0.7385 -1.4177 -0.3667
 1004MOL0     C35445   1.694   8.892   6.198 -0.0988 -0.3176 -1.2890
 1004MOL0     C35446   1.623   8.842   6.078 -0.6448  0.5651 -0.1354
 1004MOL0     C35447   1.489   8.771   6.104 -0.3428 -0.3338  0.4828
 1004MOL0     C35448   1.404   8.743   5.980 -0.5383 -1.3409 -0.0048
 1004MOL0     C35449   1.270   8.683   6.025  0.5808 -0.6031  0.5808
 1004MOL0    Cl35450   1.278   8.545   6.125 -0.0815 -0.4177 -0.0742
 1004MOL0     C35451   2.307   9.086   6.338 -0.7857 -0.1225  0.1106
 1004MOL0     C35452   2.440   9.123   6.360 -0.8427 -0.4337 -0.6396
 1004MOL0     O35453   2.658   9.335   6.388  0.2285  0.2723  0.8641
 1004MOL0     C35454   2.889   9.081   6.484 -0.5621 -0.9690 -0.1393
 1004MOL0     C35455   3.020   9.045   6.475  0.5480  0.1675  0.7295
 1004MOL0     N35456   3.754   9.168   6.389 -0.4085 -0.7432  0.4384
 1004MOL0     N35457   3.791   9.251   6.298 -0.2351  0.1726  0.1648
 1004MOL0     C35458   2.917   9.280   5.241  0.1042 -0.5252  0.3064
 1004MOL0     C35459   2.797   9.261   5.165  0.1172  0.3563  0.0313
 1004MOL0     C35460   2.419   9.099   4.992  0.1739  0.7021  0.1488
 1004MOL0     C35461   2.309   9.022   5.026  0.3889 -0.5048 -0.1913
 1004MOL0     C35462   2.193   9.030   4.946  0.2931  0.1195 -0.7502
 1004MOL0     C35463   2.179   9.102   4.827 -0.6751  0.2965 -0.2389
 1004MOL0     O35464   2.064   9.105   4.744  0.3943 -0.7659  0.6094
 1004MOL0     C35465   1.957   9.019   4.771 -0.3225 -0.1754  0.4801
 1004MOL0     C35466   1.832   9.042   4.678  0.7079  0.5212 -1.0126
 1004MOL0     C35467   1.700   8.973   4.737  0.7268 -0.3206  0.4250
 1004MOL0     C35468   1.564   9.012   4.670  0.8008  0.9451 -0.1972
 1004MOL0     C35469   1.449   8.915   4.691 -0.1933 -0.3565 -0.8946
 1004MOL0     C35470   1.359   8.846   4.706 -0.3203  0.0737 -0.3301
 1004MOL0     C35471   2.293   9.178   4.792 -1.2036 -0.7949 -0.7786
 1004MOL0     C35472   2.410   9.180   4.882  0.2748 -0.1924  1.0293
 1004MOL0     H35473   2.855   8.955   5.018 -0.7204  1.1900 -0.9006
 1004MOL0     H35474   3.048   8.973   5.147  1.5222  0.6003 -0.0741
 1004MOL0     H35475   3.164   9.370   5.357  2.5842  0.3806  0.2814
 1004MOL0     H35476   3.072   9.285   5.474  0.8291  0.0356  1.2734
 1004MOL0     H35477   3.258   9.125   5.518  0.2517  1.0788 -0.9880
 1004MOL0     H35478   3.355   9.222   5.401 -1.6491 -2.2799 -0.8583
 1004MOL0     H35479   3.383   9.396   5.540  1.9143 -1.0293 -1.7786
 1004MOL0     H35480   3.250   9.342   5.652 -0.6383  0.1247 -1.5201
 1004MOL0     H35481   3.390   9.155   5.717 -0.0907 -0.8616 -0.2412
 1004MOL0     H35482   3.524   9.214   5.612  0.7186 -2.3658  0.9001
 1004MOL0     H35483   3.514   9.433   5.747 -2.2091  0.5683 -0.4498
 1004MOL0     H35484   3.421   9.340   5.873  0.8527 -0.7587  0.1487
 1004MOL0     H35485   3.593   9.161   5.870  0.5832 -0.4321  0.2535
 1004MOL0     H35486   3.685   9.276   5.780 -2.6326  1.6502 -3.0067
 1004MOL0     H35487   3.658   9.440   5.963  1.7786  0.2232 -0.4859
 1004MOL0     H35488   3.569   9.315   6.055  0.6364  1.7809  0.5358
 1004MOL0     H35489   3.852   9.362   6.069  1.4934 -1.7865  3.4838
 1004MOL0     H35490   3.822   9.201   5.981 -2.3410 -1.5961  0.1242
 1004MOL0     H35491   3.621   9.025   6.126 -0.9478  1.5360  0.2957
 1004MOL0     H35492   3.662   8.853   6.325  0.7003  0.3772 -0.7308
 1004MOL0     H35493   3.676   8.909   6.497  0.7694 -3.3724 -0.0538
 1004MOL0     H35494   3.445   8.844   6.442  0.1888 -0.6297 -1.1808
 1004MOL0     H35495   3.446   8.954   6.312 -0.4284  0.5530  0.6581
 1004MOL0     H35496   3.514   9.142   6.484 -1.4223  0.5780 -1.0196
 1004MOL0     H35497   3.493   9.024   6.609  3.6048  2.1588 -0.7817
 1004MOL0     H35498   3.306   9.179   6.573  3.1014  1.4373 -0.9748
 1004MOL0     H35499   3.259   9.009   6.589 -0.6389 -0.8313 -0.3239
 1004MOL0     H35500   3.146   9.337   6.354  1.3288 -0.4158  0.1857
 1004MOL0     H35501   3.003   9.488   6.282  0.6436 -0.5629 -0.3596
 1004MOL0     H35502   2.843   9.439   6.248  1.6940  2.1818 -2.4912
 1004MOL0     H35503   2.887   9.512   6.407 -1.4015  0.3252 -0.5792
 1004MOL0     H35504   2.415   9.173   6.702 -1.3089 -0.1134  0.2569
 1004MOL0     H35505   2.176   9.128   6.647 -1.1870 -1.1349 -0.6107
 1004MOL0     H35506   2.056   9.077   6.231  0.2757 -1.2915 -1.0450
 1004MOL0     H35507   2.103   8.905   6.285 -1.5728 -0.4210 -1.5861
 1004MOL0     H35508   1.881   8.885   6.373  1.5945 -0.7517 -0.9360
 1004MOL0     H35509   1.855   9.057   6.345  0.7721 -0.4865  1.8560
 1004MOL0     H35510   1.889   8.836   6.127  1.8669 -0.8561  1.6688
 1004MOL0     H35511   1.850   9.005   6.091  0.1639 -1.3126 -0.1085
 1004MOL0     H35512   1.687   8.819   6.280 -0.2671 -0.2436 -1.2373
 1004MOL0     H35513   1.644   8.983   6.231  2.5788  1.7807 -2.7235
 1004MOL0     H35514   1.680   8.758   6.037 -5.2372 -1.5248 -3.0249
 1004MOL0     H35515   1.616   8.915   5.997 -1.1331  0.1851 -0.4360
 1004MOL0     H35516   1.498   8.678   6.161  0.7773  0.2353  1.2688
 1004MOL0     H35517   1.437   8.844   6.168 -0.4294 -1.1760  1.4147
 1004MOL0     H35518   1.451   8.663   5.922  0.9885 -1.5041  1.3680
 1004MOL0     H35519   1.399   8.829   5.912  2.2088 -1.4739 -0.5155
 1004MOL0     H35520   1.209   8.657   5.938 -1.7028 -0.5110  2.0867
 1004MOL0     H35521   1.209   8.758   6.076 -0.4223  0.5072 -2.0733
 1004MOL0     H35522   2.278   9.049   6.240 -1.7750  0.2092  0.2691
 1004MOL0     H35523   2.508   9.130   6.276 -0.1711 -1.9867 -0.2757
 1004MOL0     H35524   2.822   9.020   6.544 -0.5262  2.4229  3.8150
 1004MOL0     H35525   3.059   8.955   6.522 -0.3624 -0.8904 -0.4676
 1004MOL0     H35526   2.930   9.375   5.292 -4.1017  0.4325 -0.0406
 1004MOL0     H35527   2.729   9.345   5.161  0.6637  0.7488 -1.2812
 1004MOL0     H35528   2.299   8.963   5.116  2.7700  0.0120  0.4781
 1004MOL0     H35529   2.104   8.971   4.969 -0.2589  1.2105 -0.0292
 1004MOL0     H35530   1.992   8.920   4.743 -1.0188 -0.2799 -0.0412
 1004MOL0     H35531   1.936   9.019   4.879  3.0047 -4.0940  1.3628
 1004MOL0     H35532   1.856   8.992   4.584  2.8492 -1.0076  0.2446
 1004MOL0     H35533   1.821   9.150   4.665  3.7804  0.9760 -0.7151
 1004MOL0     H35534   1.687   8.990   4.845  0.9004 -0.1115  0.4139
 1004MOL0     H35535   1.714   8.865   4.732  0.2709 -0.3613 -0.0260
 1004MOL0     H35536   1.579   9.018   4.562  1.5647 -2.5725 -0.4074
 1004MOL0     H35537   1.523   9.107   4.705 -2.0020  0.1717 -1.1351
 1004MOL0     H35538   1.277   8.787   4.740 -0.8820  0.7624 -0.4574
 1004MOL0     H35539   2.298   9.224   4.694 -2.6841  1.1445 -0.0207
 1004MOL0     H35540   2.502   9.226   4.845  0.9698 -2.3186 -0.0691
 1005MOL0     O35541   1.943   1.895   6.768  0.0359 -0.2385 -0.0700
 1005MOL0     C35542   1.930   1.856   6.882  0.2827  0.2312 -0.4909
 1005MOL0     O35543   1.815   1.822   6.937 -0.0595 -0.7642 -0.3655
 1005MOL0     C35544   1.693   1.798   6.870 -0.5764  0.2659  0.9894
 1005MOL0     C35545   1.574   1.799   6.931  0.0779 -0.3409 -0.2133
 1005MOL0     C35546   1.458   1.757   6.876  0.8717  0.1111  0.1163
 1005MOL0     C35547   1.449   1.716   6.742 -0.3435  0.1857 -0.1150
 1005MOL0     O35548   1.349   1.643   6.684  0.3253  0.2848  0.4680
 1005MOL0     C35549   1.233   1.609   6.764  0.0916 -0.4522  0.5374
 1005MOL0     C35550   1.105   1.580   6.684  0.7437 -0.2672  0.6089
 1005MOL0     C35551   0.993   1.527   6.766 -0.4083  0.2854  0.3165
 1005MOL0     C35552   0.873   1.490   6.679 -0.7154  0.0413  0.2823
 1005MOL0     C35553   0.752   1.442   6.768  0.1881 -0.0831 -0.3962
 1005MOL0     C35554   0.768   1.307   6.849 -0.3730  0.0583  1.1889
 1005MOL0     C35555   0.666   1.297   6.958  0.5740 -0.1626 -0.7242
 1005MOL0     C35556   0.548   1.215   6.913  0.5182  0.0068 -0.3946
 1005MOL0     N35557   0.476   1.298   6.816 -0.4100  1.1055 -0.3433
 1005MOL0     C35558   0.469   1.273   6.680 -0.2751 -0.4089  1.1156
 1005MOL0     C35559   0.360   1.342   6.637 -0.7301 -0.0851  0.3594
 1005MOL0     C35560   0.312   1.347   6.491 -0.6058 -0.3712 -0.2651
 1005MOL0     C35561   0.177   1.287   6.474  0.1861  0.0044  0.9994
 1005MOL0     C35562   0.123   1.293   6.325  0.3025 -0.7817  0.0352
 1005MOL0     C35563  -0.024   1.235   6.320  0.7211  0.0430  0.4914
 1005MOL0     O35564  -0.060   1.235   6.183 -0.0296  0.2461  0.3770
 1005MOL0     C35565  -0.193   1.203   6.146 -0.4182  0.6872  0.2025
 1005MOL0     C35566  -0.283   1.144   6.235  0.4280  0.2249 -0.2104
 1005MOL0     C35567  -0.414   1.121   6.209  0.4973  0.0584 -0.0120
 1005MOL0     C35568  -0.494   1.075   6.325  0.2171  0.3057 -0.1935
 1005MOL0     C35569  -0.468   1.154   6.085 -0.1008  0.2454 -0.3645
 1005MOL0     C35570  -0.614   1.127   6.058  0.2108 -0.2994 -0.5474
 1005MOL0     O35571  -0.709   1.187   6.146 -0.7836 -0.3431  0.1101
 1005MOL0     C35572  -0.839   1.214   6.106  0.2694 -0.0205  0.6464
 1005MOL0     C35573  -0.927   1.227   6.213  0.0099 -0.3892  0.1360
 1005MOL0     C35574  -1.066   1.234   6.186  0.1886 -0.1502  0.1584
 1005MOL0     C35575  -1.115   1.244   6.055 -0.0992  0.7627 -0.1491
 1005MOL0     O35576  -1.252   1.250   6.040  0.1985 -0.7407  0.0843
 1005MOL0     C35577  -1.302   1.355   5.953  0.1808  0.3081  0.8162
 1005MOL0     C35578  -1.453   1.395   5.982  0.4274 -0.2692 -0.0068
 1005MOL0     C35579  -1.458   1.525   6.065 -0.0743  0.4764  0.0313
 1005MOL0     C35580  -1.409   1.501   6.209 -0.5444  0.9098  0.0390
 1005MOL0     C35581  -1.399   1.634   6.287  0.0783 -0.6022 -0.3334
 1005MOL0     C35582  -1.317   1.607   6.419  0.3052 -0.6993  0.5608
 1005MOL0     C35583  -1.306   1.735   6.504  0.3884 -0.3534 -0.5640
 1005MOL0     C35584  -1.180   1.745   6.591  0.1738 -0.1125 -0.1038
 1005MOL0    Cl35585  -1.177   1.903   6.687 -0.0034 -0.4441  0.0580
 1005MOL0     C35586  -1.022   1.235   5.949 -0.4994  0.5079 -0.4478
 1005MOL0     C35587  -0.892   1.227   5.975 -0.8382  0.1115 -0.3736
 1005MOL0     O35588  -0.644   1.049   5.973 -0.6901  0.5161  0.5669
 1005MOL0     C35589  -0.382   1.202   5.987 -0.0593  0.5484 -0.2697
 1005MOL0     C35590  -0.246   1.230   6.017  0.6414 -1.5516 -0.5916
 1005MOL0     N35591   0.309   1.403   6.749 -0.9812  0.5625  0.1710
 1005MOL0     N35592   0.373   1.371   6.857 -0.2755  0.4061 -0.0408
 1005MOL0     C35593   1.562   1.733   6.668 -0.2115  0.3027 -0.4766
 1005MOL0     C35594   1.683   1.766   6.726 -0.7073 -0.6936  0.3306
 1005MOL0     C35595   2.051   1.832   6.962  0.0692  0.1805  0.2380
 1005MOL0     C35596   2.178   1.869   6.900  0.0757  0.1900 -0.0801
 1005MOL0     C35597   2.298   1.861   6.967 -0.9119 -0.0019  0.2104
 1005MOL0     C35598   2.300   1.813   7.100 -0.5956  0.9843  0.4100
 1005MOL0     O35599   2.405   1.819   7.184 -0.3249  0.3419  0.1813
 1005MOL0     C35600   2.538   1.846   7.133  0.0213  0.2905  0.4989
 1005MOL0     C35601   2.649   1.789   7.218  0.7858  0.6448 -0.1128
 1005MOL0     C35602   2.787   1.827   7.164 -0.1706  0.6296  0.5072
 1005MOL0     C35603   2.902   1.741   7.231  0.1305  0.4662 -0.7434
 1005MOL0     C35604   3.031   1.808   7.256 -0.2313 -0.8376  0.3097
 1005MOL0     C35605   3.135   1.870   7.278 -0.7733  0.5747  0.3058
 1005MOL0     C35606   2.180   1.775   7.166 -0.0068 -0.1210  0.0739
 1005MOL0     C35607   2.054   1.779   7.090 -0.6929  0.7277 -0.2467
 1005MOL0     H35608   1.571   1.838   7.032  1.1888 -0.7625 -0.0035
 1005MOL0     H35609   1.371   1.755   6.940  2.6570  1.8470  2.8162
 1005MOL0     H35610   1.253   1.531   6.837 -2.3301  1.5746  3.6607
 1005MOL0     H35611   1.211   1.694   6.830 -0.8859 -0.0940 -0.2096
 1005MOL0     H35612   1.080   1.680   6.646  1.4124 -0.6335 -0.8793
 1005MOL0     H35613   1.132   1.513   6.602 -0.8460 -1.4288  1.0071
 1005MOL0     H35614   1.030   1.439   6.819  0.7923 -0.3410 -1.4970
 1005MOL0     H35615   0.958   1.609   6.830 -0.9326  1.4299 -1.3572
 1005MOL0     H35616   0.842   1.575   6.618  3.4071  1.5063 -0.0372
 1005MOL0     H35617   0.900   1.407   6.612 -0.6459  0.8551 -0.7262
 1005MOL0     H35618   0.727   1.520   6.842  1.0683 -0.3833  0.2407
 1005MOL0     H35619   0.662   1.438   6.705  0.9547 -0.9758 -1.4670
 1005MOL0     H35620   0.765   1.222   6.780  0.7601  0.2546  0.8825
 1005MOL0     H35621   0.866   1.293   6.895 -0.6957  0.5961  2.0610
 1005MOL0     H35622   0.709   1.245   7.044  1.0751 -1.7410 -1.8712
 1005MOL0     H35623   0.629   1.395   6.989 -0.9848 -0.4506 -1.5968
 1005MOL0     H35624   0.486   1.190   7.000 -0.5672  0.1121 -1.1118
 1005MOL0     H35625   0.580   1.127   6.857  2.0708  1.1940 -1.4449
 1005MOL0     H35626   0.532   1.206   6.622 -0.7027 -0.6928  0.9681
 1005MOL0     H35627   0.299   1.451   6.459 -0.9986 -0.2810  0.1744
 1005MOL0     H35628   0.390   1.304   6.428 -0.2644 -0.1864  0.0328
 1005MOL0     H35629   0.091   1.328   6.528 -0.7068 -4.3143  3.3412
 1005MOL0     H35630   0.188   1.182   6.503  1.2503  0.0251  0.7147
 1005MOL0     H35631   0.195   1.230   6.272 -0.1257 -2.2423  1.1104
 1005MOL0     H35632   0.135   1.394   6.284  5.0924 -2.3019 -3.2794
 1005MOL0     H35633  -0.087   1.304   6.377 -0.8198  1.0177 -2.2261
 1005MOL0     H35634  -0.019   1.136   6.366  1.4604  1.3768  3.5775
 1005MOL0     H35635  -0.243   1.115   6.331 -0.1699 -0.8084 -0.2549
 1005MOL0     H35636  -0.430   1.016   6.391 -1.2720 -1.8008 -0.5016
 1005MOL0     H35637  -0.536   1.162   6.376 -0.9926 -0.4220  0.0974
 1005MOL0     H35638  -0.573   1.005   6.294 -0.4461  1.8916 -2.3657
 1005MOL0     H35639  -0.909   1.222   6.320 -1.7290  0.3338  0.4882
 1005MOL0     H35640  -1.139   1.247   6.266 -1.2402  2.4947 -1.4194
 1005MOL0     H35641  -1.233   1.440   5.953  0.7719 -0.0902  3.0023
 1005MOL0     H35642  -1.308   1.317   5.851  0.3167  0.6938  0.6608
 1005MOL0     H35643  -1.506   1.412   5.887  1.8366  1.1027 -0.5957
 1005MOL0     H35644  -1.502   1.314   6.037  0.2858 -0.7986 -0.8764
 1005MOL0     H35645  -1.564   1.548   6.080 -0.2693 -1.1245  1.4933
 1005MOL0     H35646  -1.407   1.606   6.013  1.7021 -0.2873  0.5068
 1005MOL0     H35647  -1.479   1.436   6.262 -0.2713 -0.0234 -0.7267
 1005MOL0     H35648  -1.312   1.451   6.201 -1.3834 -1.1468  1.6885
 1005MOL0     H35649  -1.498   1.675   6.311 -0.1582 -1.3603  0.0300
 1005MOL0     H35650  -1.337   1.701   6.228  0.1619 -1.3309 -1.0920
 1005MOL0     H35651  -1.358   1.518   6.467 -1.4984 -1.1341 -1.5939
 1005MOL0     H35652  -1.219   1.578   6.380  0.6980  2.4940 -1.1985
 1005MOL0     H35653  -1.389   1.742   6.575  0.7735  1.3783 -0.2617
 1005MOL0     H35654  -1.313   1.826   6.444 -2.2024  1.9200  2.7875
 1005MOL0     H35655  -1.100   1.754   6.516 -0.4494  0.2963 -0.7374
 1005MOL0     H35656  -1.179   1.650   6.644  2.9187 -0.7366 -1.0879
 1005MOL0     H35657  -1.047   1.247   5.844 -0.7788  2.4470 -0.2080
 1005MOL0     H35658  -0.824   1.223   5.890 -0.7318  1.1586 -0.3502
 1005MOL0     H35659  -0.425   1.192   5.888  1.1028 -4.0691 -0.5482
 1005MOL0     H35660  -0.187   1.280   5.940  0.1734 -1.9536 -1.2180
 1005MOL0     H35661   1.568   1.709   6.562  1.7901 -1.8951  0.0395
 1005MOL0     H35662   1.772   1.755   6.665  0.8654  1.0302  2.1653
 1005MOL0     H35663   2.174   1.902   6.797 -0.7690  0.7682  0.1281
 1005MOL0     H35664   2.385   1.911   6.927 -1.5723 -0.2017 -1.5451
 1005MOL0     H35665   2.556   1.799   7.036 -1.1064  0.2428  0.2925
 1005MOL0     H35666   2.549   1.952   7.112  1.1377 -0.0654 -0.8275
 1005MOL0     H35667   2.623   1.683   7.214  0.1600  0.8112 -2.6062
 1005MOL0     H35668   2.648   1.826   7.321  1.1653  0.0553  0.1073
 1005MOL0     H35669   2.804   1.932   7.188 -0.3588  0.2852  2.2912
 1005MOL0     H35670   2.792   1.811   7.056 -0.8147  1.4969  0.3427
 1005MOL0     H35671   2.919   1.649   7.174  0.3240  1.2045 -1.9105
 1005MOL0     H35672   2.863   1.701   7.325 -1.0290 -0.6166 -1.6405
 1005MOL0     H35673   3.227   1.921   7.297 -0.3039 -1.0069  2.7508
 1005MOL0     H35674   2.158   1.738   7.266 -2.3792 -0.3462 -0.4513
 1005MOL0     H35675   1.963   1.754   7.144  0.3034 -1.2925  0.6000
 1006MOL0     O35676   7.138   6.401   4.677  0.1229  0.4196 -0.5000
 1006MOL0     C35677   7.168   6.475   4.588 -0.4601  0.0139  0.3048
 1006MOL0     O35678   7.086   6.530   4.496  0.1468  0.0560 -0.5987
 1006MOL0     C35679   6.950   6.509   4.518 -1.1615  0.0483  0.1250
 1006MOL0     C35680   6.874   6.623   4.526 -0.0815  0.1812 -0.8496
 1006MOL0     C35681   6.732   6.613   4.540 -0.6687  0.4188 -0.4817
 1006MOL0     C35682   6.668   6.483   4.547 -0.2569  0.3781  0.6559
 1006MOL0     O35683   6.524   6.469   4.540  0.0870 -0.6931 -0.3616
 1006MOL0     C35684   6.442   6.585   4.503  0.1604 -0.3429  0.2251
 1006MOL0     C35685   6.287   6.549   4.498  0.0189 -0.1524 -0.6878
 1006MOL0     C35686   6.255   6.418   4.583 -0.0769 -0.2445 -0.0323
 1006MOL0     C35687   6.271   6.295   4.484 -0.5241  0.6371 -0.0753
 1006MOL0     C35688   6.151   6.204   4.490 -0.4368  0.0520 -0.0110
 1006MOL0     C35689   6.025   6.271   4.429  0.2854 -0.0358  0.0185
 1006MOL0     C35690   5.899   6.194   4.458  0.4284 -0.8616 -0.6847
 1006MOL0     C35691   5.778   6.269   4.406  0.3840 -0.0895 -0.3256
 1006MOL0     N35692   5.656   6.194   4.408 -0.1239  0.3569 -0.1205
 1006MOL0     C35693   5.626   6.076   4.346 -0.1514  0.0903 -0.1635
 1006MOL0     C35694   5.490   6.065   4.346  0.1898  0.0169 -0.6404
 1006MOL0     C35695   5.417   5.934   4.311  0.0425  0.1531 -0.7559
 1006MOL0     C35696   5.266   5.945   4.257 -0.3240  0.5008 -0.2462
 1006MOL0     C35697   5.180   6.019   4.355  0.5868 -0.0958 -0.2479
 1006MOL0     C35698   5.035   6.005   4.314  0.1003 -0.6566  0.3619
 1006MOL0     O35699   4.962   6.110   4.390 -0.4587 -0.1586  0.6556
 1006MOL0     C35700   4.834   6.135   4.352  1.2818 -0.1539  0.2524
 1006MOL0     C35701   4.761   6.059   4.255 -0.1644 -0.3675  0.2801
 1006MOL0     C35702   4.623   6.077   4.232  0.2273  0.1470  0.0946
 1006MOL0     C35703   4.555   5.991   4.135  0.4514  0.2504 -0.0548
 1006MOL0     C35704   4.547   6.174   4.307  0.0539  0.2310 -0.6426
 1006MOL0     C35705   4.399   6.191   4.303 -0.7935 -0.0822  0.5649
 1006MOL0     O35706   4.343   6.212   4.426 -0.4235 -0.1457  0.4473
 1006MOL0     C35707   4.219   6.241   4.424  0.4519 -1.1838  0.4286
 1006MOL0     C35708   4.128   6.157   4.488 -0.0881  0.5561  0.3847
 1006MOL0     C35709   4.001   6.185   4.526  0.7959  0.2719  0.6515
 1006MOL0     C35710   3.944   6.311   4.480  0.0211 -0.1553 -0.4518
 1006MOL0     O35711   3.818   6.369   4.499  0.0907  0.4636  0.3066
 1006MOL0     C35712   3.727   6.290   4.570  0.0659 -0.0881 -0.0080
 1006MOL0     C35713   3.663   6.371   4.678  0.0632  0.2775  0.0346
 1006MOL0     C35714   3.538   6.304   4.736 -0.4221  0.5349  0.1726
 1006MOL0     C35715   3.438   6.414   4.773  0.0998 -0.9096  0.0481
 1006MOL0     C35716   3.318   6.339   4.834 -0.1130  0.2521 -0.7708
 1006MOL0     C35717   3.197   6.427   4.847 -0.4000 -0.5130 -0.8098
 1006MOL0     C35718   3.076   6.355   4.915 -0.0478 -0.7462  0.1784
 1006MOL0     C35719   2.944   6.425   4.900  0.3752 -0.8657 -0.2702
 1006MOL0    Cl35720   2.824   6.323   4.974 -0.0616 -0.1220  0.3711
 1006MOL0     C35721   4.032   6.392   4.404 -0.2809 -0.4327  0.3382
 1006MOL0     C35722   4.168   6.360   4.381 -0.2551  0.5902 -0.0283
 1006MOL0     O35723   4.334   6.180   4.197  0.0523 -0.9392  0.3389
 1006MOL0     C35724   4.623   6.248   4.401  0.0134 -0.4355  0.4786
 1006MOL0     C35725   4.761   6.235   4.413  0.2554 -0.3144  0.0203
 1006MOL0     N35726   5.445   6.183   4.411  0.3457  0.1306  0.4267
 1006MOL0     N35727   5.540   6.251   4.447 -1.0041  0.0574  0.4565
 1006MOL0     C35728   6.745   6.369   4.557 -0.6901 -0.3823  0.3098
 1006MOL0     C35729   6.885   6.384   4.542 -0.4344  0.6742  1.0312
 1006MOL0     C35730   7.307   6.534   4.587 -0.8219  0.3491  0.6236
 1006MOL0     C35731   7.334   6.644   4.501 -0.6527 -0.8187 -0.0320
 1006MOL0     C35732   7.471   6.671   4.475  0.5055  0.1314  0.1218
 1006MOL0     C35733   7.574   6.600   4.531 -0.2272 -0.0356 -0.7057
 1006MOL0     O35734   7.714   6.610   4.514  0.1643 -0.0476  0.1549
 1006MOL0     C35735   7.756   6.698   4.411  0.4193 -0.8002  0.3558
 1006MOL0     C35736   7.902   6.748   4.427 -0.8233  0.5814  0.0981
 1006MOL0     C35737   7.932   6.813   4.560  0.8407  0.5684 -1.4817
 1006MOL0     C35738   8.075   6.882   4.576 -0.0067  0.1057  0.1906
 1006MOL0     C35739   8.183   6.786   4.560 -0.8885  1.3353 -1.5024
 1006MOL0     C35740   8.277   6.709   4.549  0.4893  0.1063 -0.4241
 1006MOL0     C35741   7.542   6.486   4.605 -0.0343  0.0984  0.3519
 1006MOL0     C35742   7.412   6.460   4.638  0.1658  0.0223  0.4634
 1006MOL0     H35743   6.933   6.714   4.519 -0.0213  0.2658  0.4940
 1006MOL0     H35744   6.673   6.705   4.535 -0.2082  0.6995 -0.8764
 1006MOL0     H35745   6.463   6.667   4.571  0.0666  0.2848 -0.4893
 1006MOL0     H35746   6.460   6.610   4.398 -2.2290 -1.0300 -0.4254
 1006MOL0     H35747   6.221   6.629   4.535  1.3642  0.1311  1.3005
 1006MOL0     H35748   6.262   6.529   4.394  3.1155 -0.1076 -1.5494
 1006MOL0     H35749   6.322   6.402   4.668 -1.7115  0.5770  1.4594
 1006MOL0     H35750   6.159   6.419   4.634 -0.2010 -0.7621 -0.2471
 1006MOL0     H35751   6.288   6.335   4.384 -0.7860 -0.0943 -0.4230
 1006MOL0     H35752   6.354   6.230   4.511 -0.2669 -0.5688 -3.3074
 1006MOL0     H35753   6.160   6.118   4.423 -2.5331  0.6188 -1.1297
 1006MOL0     H35754   6.144   6.172   4.594 -0.5965 -0.2731 -0.1204
 1006MOL0     H35755   6.016   6.376   4.458  0.0349 -0.5427  1.8855
 1006MOL0     H35756   6.029   6.266   4.320 -2.2685  1.0761 -0.1805
 1006MOL0     H35757   5.905   6.100   4.402 -1.2464 -0.6944 -1.1990
 1006MOL0     H35758   5.889   6.161   4.562 -0.2947  3.1836  0.6922
 1006MOL0     H35759   5.793   6.288   4.299 -1.9626 -0.2177 -0.7317
 1006MOL0     H35760   5.773   6.365   4.458 -1.2899 -1.0073  1.3364
 1006MOL0     H35761   5.695   6.003   4.305 -1.8445 -0.1935 -2.7443
 1006MOL0     H35762   5.467   5.870   4.237  1.2007  0.1256  0.0326
 1006MOL0     H35763   5.417   5.871   4.400  0.0346 -0.1606 -0.9765
 1006MOL0     H35764   5.224   5.848   4.230  0.8453  0.4749 -2.2185
 1006MOL0     H35765   5.263   6.007   4.166  1.1917  0.9681 -0.0183
 1006MOL0     H35766   5.213   6.123   4.351  2.8320 -0.7711 -0.8245
 1006MOL0     H35767   5.185   5.974   4.455 -0.8751  1.0445  0.3672
 1006MOL0     H35768   4.977   5.917   4.345 -2.4732 -0.1154 -2.4588
 1006MOL0     H35769   5.036   6.010   4.205  0.8629 -1.4004  0.3229
 1006MOL0     H35770   4.819   5.983   4.203 -1.1934 -2.3543  1.8963
 1006MOL0     H35771   4.473   5.944   4.191  1.0363  1.2833  1.7575
 1006MOL0     H35772   4.517   6.051   4.052 -1.3422  0.8258  1.1060
 1006MOL0     H35773   4.620   5.911   4.099 -1.7900 -0.9457 -1.6656
 1006MOL0     H35774   4.161   6.060   4.524  0.7027  1.1023  1.1671
 1006MOL0     H35775   3.944   6.112   4.582 -0.7767 -0.3463 -1.6282
 1006MOL0     H35776   3.646   6.255   4.505 -0.7566  0.7234  0.5623
 1006MOL0     H35777   3.760   6.202   4.626 -1.5081  0.5442  2.0271
 1006MOL0     H35778   3.731   6.395   4.760  2.5178  0.1010 -1.8323
 1006MOL0     H35779   3.633   6.468   4.636  1.2874 -0.7483 -3.5830
 1006MOL0     H35780   3.565   6.240   4.821 -0.6849 -2.4591 -1.8297
 1006MOL0     H35781   3.498   6.235   4.661  3.0775  0.8642 -2.2799
 1006MOL0     H35782   3.474   6.502   4.827  2.5661 -1.9009  0.1308
 1006MOL0     H35783   3.395   6.458   4.682 -4.2722 -0.8700  1.8792
 1006MOL0     H35784   3.358   6.308   4.931  2.4180  0.4028 -1.6751
 1006MOL0     H35785   3.301   6.240   4.791  0.5105 -0.4678  0.5652
 1006MOL0     H35786   3.232   6.507   4.913  0.9050 -1.8676  0.2121
 1006MOL0     H35787   3.174   6.456   4.744 -1.7144 -0.9527 -0.6543
 1006MOL0     H35788   3.098   6.340   5.022  0.7325 -0.4308  0.0686
 1006MOL0     H35789   3.067   6.258   4.866  1.2301 -0.0739 -1.4714
 1006MOL0     H35790   2.910   6.439   4.797  1.1058 -1.2673 -0.5737
 1006MOL0     H35791   2.955   6.518   4.957 -0.2478 -0.6837 -0.4351
 1006MOL0     H35792   3.998   6.491   4.377 -3.0255 -1.8387 -1.8680
 1006MOL0     H35793   4.241   6.430   4.344 -0.0127  0.9304  1.0443
 1006MOL0     H35794   4.575   6.328   4.456  0.2284  1.5266 -1.9944
 1006MOL0     H35795   4.810   6.306   4.480 -1.8301  0.2716  0.9865
 1006MOL0     H35796   6.714   6.266   4.577  3.9553 -2.0083  0.3365
 1006MOL0     H35797   6.948   6.295   4.545  0.4723  1.3069  1.3777
 1006MOL0     H35798   7.262   6.695   4.437 -0.9152 -1.1650 -0.0181
 1006MOL0     H35799   7.491   6.751   4.404 -0.0812  0.3386  0.1829
 1006MOL0     H35800   7.749   6.648   4.314 -0.9636 -0.0298  0.0415
 1006MOL0     H35801   7.701   6.791   4.398  0.0334 -1.0949 -0.1587
 1006MOL0     H35802   7.912   6.827   4.353 -0.4474  0.7957  0.3758
 1006MOL0     H35803   7.967   6.665   4.397 -1.5081  0.7124 -1.8607
 1006MOL0     H35804   7.930   6.735   4.637 -0.9693  4.1640  2.4877
 1006MOL0     H35805   7.846   6.878   4.578 -1.9100 -2.9395 -0.9070
 1006MOL0     H35806   8.082   6.929   4.674 -0.4100 -2.1138  1.3551
 1006MOL0     H35807   8.073   6.955   4.494 -1.7384 -0.3051 -0.1675
 1006MOL0     H35808   8.372   6.664   4.530  0.5631  0.1767 -0.2260
 1006MOL0     H35809   7.623   6.427   4.646  1.6317  1.5218 -0.7417
 1006MOL0     H35810   7.391   6.375   4.701  1.1635 -1.0171 -0.5572
 1007MOL0     O35811   8.070   3.046   3.907  0.0665  0.1273  0.4996
 1007MOL0     C35812   8.071   3.118   4.008  0.1956  0.2348  0.8666
 1007MOL0     O35813   7.960   3.160   4.073  0.3149  0.2640  0.0986
 1007MOL0     C35814   7.836   3.114   4.035 -0.1356 -0.7483  0.2797
 1007MOL0     C35815   7.750   3.072   4.137 -0.0457  1.1089 -0.4698
 1007MOL0     C35816   7.611   3.040   4.110 -0.9089  0.3822 -0.4019
 1007MOL0     C35817   7.572   3.041   3.978  0.0275 -0.9046  0.0441
 1007MOL0     O35818   7.450   2.999   3.920  0.2237  0.6322 -0.2465
 1007MOL0     C35819   7.373   2.893   3.993 -0.4175  0.5018  0.3877
 1007MOL0     C35820   7.260   2.835   3.913  0.6785 -0.2168  0.0197
 1007MOL0     C35821   7.135   2.929   3.914 -0.3502 -0.4640  0.1476
 1007MOL0     C35822   7.055   2.889   3.795 -0.4491  1.3618 -0.0247
 1007MOL0     C35823   6.931   2.973   3.773 -0.0172  0.2675 -0.0860
 1007MOL0     C35824   6.844   2.936   3.648 -0.0356 -0.2939  0.7279
 1007MOL0     C35825   6.726   2.854   3.695 -0.2191 -0.2829 -0.6805
 1007MOL0     C35826   6.638   2.830   3.572  0.0949 -0.3017  0.1891
 1007MOL0     N35827   6.529   2.739   3.605  0.7324  0.2573  0.5059
 1007MOL0     C35828   6.421   2.769   3.687 -0.4574  0.0436  0.8994
 1007MOL0     C35829   6.333   2.668   3.669 -0.4041 -0.1281  0.7798
 1007MOL0     C35830   6.191   2.674   3.720 -0.3737  0.1700 -0.4631
 1007MOL0     C35831   6.095   2.620   3.616  0.6894 -0.9041  0.4043
 1007MOL0     C35832   5.951   2.675   3.634 -0.4672 -0.1625 -0.0209
 1007MOL0     C35833   5.864   2.665   3.506 -0.7853 -1.2027  1.1294
 1007MOL0     O35834   5.746   2.746   3.531 -0.3654 -0.4981 -0.0467
 1007MOL0     C35835   5.636   2.738   3.444 -0.1760  0.3525 -0.5172
 1007MOL0     C35836   5.514   2.793   3.475 -0.0465  0.6712 -0.6299
 1007MOL0     C35837   5.399   2.787   3.394 -0.2505 -0.5331  0.2437
 1007MOL0     C35838   5.275   2.857   3.442  0.3711 -0.3640 -0.1836
 1007MOL0     C35839   5.410   2.718   3.267 -0.0155 -0.3641 -0.6122
 1007MOL0     C35840   5.308   2.702   3.169 -0.6873 -1.1414  0.0238
 1007MOL0     O35841   5.181   2.741   3.200 -0.5146  0.6240  0.0337
 1007MOL0     C35842   5.091   2.765   3.105 -0.1740  0.2869  0.0852
 1007MOL0     C35843   5.033   2.890   3.104 -0.9111 -0.5512 -0.6546
 1007MOL0     C35844   4.965   2.933   2.990 -0.0751  0.0543  0.0125
 1007MOL0     C35845   4.942   2.848   2.887  0.0260  0.9845  0.4628
 1007MOL0     O35846   4.878   2.881   2.776 -0.1030  0.4483 -0.4885
 1007MOL0     C35847   4.740   2.905   2.789  1.0839  0.1465  0.0867
 1007MOL0     C35848   4.663   2.925   2.655 -0.2370  0.2262  0.2640
 1007MOL0     C35849   4.510   2.963   2.656  0.3204 -0.1151  0.3895
 1007MOL0     C35850   4.475   3.111   2.699  0.2413 -0.0673 -0.5822
 1007MOL0     C35851   4.330   3.141   2.677 -0.2738 -0.8484  0.2872
 1007MOL0     C35852   4.266   3.207   2.800 -0.7146  0.3396 -0.4853
 1007MOL0     C35853   4.129   3.264   2.772 -0.3044  0.3467  0.7213
 1007MOL0     C35854   4.070   3.344   2.892  0.2682 -0.0104 -0.3343
 1007MOL0    Cl35855   3.900   3.390   2.865  0.3697 -0.9526  0.2237
 1007MOL0     C35856   4.979   2.711   2.900  0.0859  0.1343 -0.5617
 1007MOL0     C35857   5.052   2.668   3.008  0.6167  0.3619 -1.7031
 1007MOL0     O35858   5.351   2.664   3.058 -0.3420 -0.0902 -0.3429
 1007MOL0     C35859   5.540   2.669   3.239 -0.3073  0.3593  0.1065
 1007MOL0     C35860   5.647   2.671   3.322  0.0559 -0.4616  0.0233
 1007MOL0     N35861   6.388   2.575   3.586  0.3530  0.4837  0.1159
 1007MOL0     N35862   6.501   2.619   3.548  0.3676  0.5812 -0.0948
 1007MOL0     C35863   7.655   3.096   3.882  0.5422 -0.2746  0.2318
 1007MOL0     C35864   7.781   3.142   3.908 -0.2785  0.4503 -0.0201
 1007MOL0     C35865   8.207   3.158   4.053  0.0301  0.3792 -0.2133
 1007MOL0     C35866   8.225   3.212   4.184 -0.1908 -0.4488  0.0498
 1007MOL0     C35867   8.358   3.240   4.226  1.3809  0.5295  0.0454
 1007MOL0     C35868   8.471   3.225   4.148  1.0795  0.2098 -0.0206
 1007MOL0     O35869   8.590   3.252   4.190  0.9857  0.4017 -1.4062
 1007MOL0     C35870   8.718   3.215   4.134  0.5323 -0.3896 -0.5444
 1007MOL0     C35871   8.769   3.312   4.025 -0.3394 -0.1598 -0.8191
 1007MOL0     C35872   8.878   3.237   3.940 -0.4211  0.2340  0.1130
 1007MOL0     C35873   8.943   3.330   3.835 -0.2522  0.1856  0.1138
 1007MOL0     C35874   9.065   3.270   3.780  1.2534  0.3438 -0.3943
 1007MOL0     C35875   9.164   3.212   3.734 -0.3378 -0.4824 -0.6490
 1007MOL0     C35876   8.442   3.175   4.020 -0.0789  0.0890  0.5918
 1007MOL0     C35877   8.318   3.139   3.973  0.0881  0.1799  0.0435
 1007MOL0     H35878   7.787   3.061   4.238 -0.0199  2.5301 -0.3059
 1007MOL0     H35879   7.549   2.998   4.188  1.0207 -0.7238  0.6157
 1007MOL0     H35880   7.450   2.820   4.019  0.2035  0.1861 -2.0953
 1007MOL0     H35881   7.332   2.935   4.086 -1.5040  1.8289 -0.6398
 1007MOL0     H35882   7.292   2.816   3.810 -2.4547  4.4588 -2.1907
 1007MOL0     H35883   7.228   2.740   3.957 -0.3119  0.7435  1.4715
 1007MOL0     H35884   7.079   2.928   4.008  0.5874  1.1232  0.7545
 1007MOL0     H35885   7.172   3.031   3.897  0.5599 -1.1946 -2.7958
 1007MOL0     H35886   7.119   2.908   3.709 -1.1305  2.5089 -0.2972
 1007MOL0     H35887   7.025   2.784   3.801  1.0890  0.9739  1.2025
 1007MOL0     H35888   6.873   2.969   3.866 -0.7423 -2.7903 -0.5328
 1007MOL0     H35889   6.967   3.076   3.765  3.4497 -0.9319 -2.4276
 1007MOL0     H35890   6.807   3.033   3.616  0.3923  0.2073  1.7210
 1007MOL0     H35891   6.895   2.875   3.573  1.7062 -1.1931  2.5427
 1007MOL0     H35892   6.764   2.764   3.744 -2.9073 -1.1206  0.0000
 1007MOL0     H35893   6.675   2.904   3.778 -1.9194 -2.0546 -0.5889
 1007MOL0     H35894   6.697   2.774   3.499  1.5840  0.1502  0.9978
 1007MOL0     H35895   6.614   2.925   3.524 -0.0960  0.2187  1.2817
 1007MOL0     H35896   6.406   2.858   3.748  0.9378 -0.4492  2.0296
 1007MOL0     H35897   6.173   2.615   3.810 -0.6793 -0.5958 -1.0224
 1007MOL0     H35898   6.171   2.780   3.742  2.8253  0.7564  0.1758
 1007MOL0     H35899   6.092   2.511   3.606 -2.2837 -0.6815 -2.7478
 1007MOL0     H35900   6.128   2.646   3.515  1.3128 -0.7650  0.6391
 1007MOL0     H35901   5.947   2.773   3.681 -3.1948 -0.7082  1.0493
 1007MOL0     H35902   5.904   2.614   3.712 -1.4896  1.3120  0.5492
 1007MOL0     H35903   5.842   2.560   3.487 -2.9287 -0.2428 -2.8504
 1007MOL0     H35904   5.911   2.711   3.418  0.8041  1.3754  3.1772
 1007MOL0     H35905   5.510   2.845   3.570  0.6611 -2.6156  1.3593
 1007MOL0     H35906   5.208   2.786   3.490  0.8274 -0.2702  0.6175
 1007MOL0     H35907   5.302   2.928   3.521 -0.7555  1.1876 -1.1324
 1007MOL0     H35908   5.215   2.910   3.368 -0.4213  0.2195  0.8403
 1007MOL0     H35909   5.058   2.965   3.178  0.6773 -2.0385  0.3861
 1007MOL0     H35910   4.925   3.033   3.003 -0.7774 -0.5097  2.8678
 1007MOL0     H35911   4.691   2.828   2.849 -1.0308  1.3824  0.0499
 1007MOL0     H35912   4.733   2.994   2.853  1.7721 -1.2405  2.2191
 1007MOL0     H35913   4.732   2.989   2.599  0.7305  0.6567  1.8877
 1007MOL0     H35914   4.665   2.838   2.588 -3.8506  0.4120 -0.2929
 1007MOL0     H35915   4.443   2.897   2.712 -0.6862 -1.4483 -2.2468
 1007MOL0     H35916   4.483   2.959   2.550 -1.0613  1.3412  0.6444
 1007MOL0     H35917   4.504   3.131   2.803  2.1240  2.8230 -1.5348
 1007MOL0     H35918   4.536   3.178   2.637 -0.2719 -0.0028 -1.0213
 1007MOL0     H35919   4.273   3.051   2.653  2.0281 -2.1324 -0.5652
 1007MOL0     H35920   4.325   3.210   2.592  0.9479 -0.6696  0.3491
 1007MOL0     H35921   4.268   3.136   2.884 -0.5516  0.4696 -0.3791
 1007MOL0     H35922   4.328   3.288   2.839 -0.6322 -0.1247  0.3848
 1007MOL0     H35923   4.054   3.185   2.763  0.1374 -0.1121  1.0124
 1007MOL0     H35924   4.128   3.325   2.681 -1.1329 -0.9233 -0.1504
 1007MOL0     H35925   4.136   3.430   2.907 -0.0918  0.4681 -1.4403
 1007MOL0     H35926   4.060   3.286   2.984 -0.6686 -0.3983 -0.6678
 1007MOL0     H35927   4.938   2.642   2.827 -2.3451 -0.1097  0.9168
 1007MOL0     H35928   5.087   2.566   3.019  1.0274  0.5479 -1.2165
 1007MOL0     H35929   5.549   2.619   3.143 -3.1003  1.8389 -1.0363
 1007MOL0     H35930   5.739   2.620   3.294  0.3180  0.7526 -1.4609
 1007MOL0     H35931   7.612   3.109   3.784  0.7516  0.1527  0.1947
 1007MOL0     H35932   7.849   3.173   3.828  0.4019  2.1090  1.1360
 1007MOL0     H35933   8.143   3.231   4.253  0.6203 -1.8551  1.4785
 1007MOL0     H35934   8.370   3.285   4.324  0.9237 -2.1899  1.4365
 1007MOL0     H35935   8.786   3.210   4.220  1.6417  0.2396 -1.3670
 1007MOL0     H35936   8.704   3.112   4.100  0.4994 -1.3837  2.1845
 1007MOL0     H35937   8.816   3.400   4.071 -2.4066 -1.0673  3.4993
 1007MOL0     H35938   8.679   3.334   3.968 -1.4032 -0.9123  0.5314
 1007MOL0     H35939   8.824   3.153   3.896 -0.8920 -0.9347  2.7277
 1007MOL0     H35940   8.955   3.196   4.007  0.4328  0.9341 -0.4158
 1007MOL0     H35941   8.972   3.427   3.877  0.5728 -0.2266  0.5165
 1007MOL0     H35942   8.871   3.344   3.753 -1.5392 -3.3656  0.4744
 1007MOL0     H35943   9.253   3.184   3.682 -0.7205 -2.9781 -0.0828
 1007MOL0     H35944   8.531   3.148   3.965 -1.5779 -4.0163 -0.1798
 1007MOL0     H35945   8.317   3.089   3.877 -0.5888 -1.9540  1.0884
 1008MOL0     O35946   6.367   4.250   1.165 -0.4317 -0.5262 -0.7568
 1008MOL0     C35947   6.396   4.354   1.225  0.5273  0.0883  0.3577
 1008MOL0     O35948   6.313   4.444   1.284  0.7957  0.4761 -0.3835
 1008MOL0     C35949   6.180   4.418   1.273 -0.6897  0.5721  0.6044
 1008MOL0     C35950   6.111   4.315   1.327  0.1405  0.4117  0.4424
 1008MOL0     C35951   5.971   4.315   1.319  0.3053  0.7235  0.5207
 1008MOL0     C35952   5.906   4.423   1.257  0.1116  0.0412 -0.7589
 1008MOL0     O35953   5.769   4.421   1.269  0.6607 -0.2160 -0.5202
 1008MOL0     C35954   5.707   4.553   1.290 -0.6346  1.0695  0.2996
 1008MOL0     C35955   5.556   4.542   1.332  0.5369 -0.2541 -0.3791
 1008MOL0     C35956   5.512   4.669   1.394 -0.2450  0.1966  0.1825
 1008MOL0     C35957   5.377   4.651   1.444  0.1488 -0.2757 -0.0405
 1008MOL0     C35958   5.333   4.782   1.511  0.2875  0.2710 -0.9965
 1008MOL0     C35959   5.183   4.793   1.519 -0.2359 -0.2681  0.5724
 1008MOL0     C35960   5.120   4.697   1.624 -0.3666  0.4693  0.5722
 1008MOL0     C35961   5.145   4.721   1.768 -0.1714  0.1833 -0.0504
 1008MOL0     N35962   5.044   4.636   1.842  0.4665  0.7611  0.3738
 1008MOL0     C35963   5.054   4.501   1.849 -0.1715  0.3039 -0.7133
 1008MOL0     C35964   4.964   4.456   1.937 -0.0418 -0.3253  0.1209
 1008MOL0     C35965   4.922   4.318   1.970 -0.4658 -0.0458 -0.0884
 1008MOL0     C35966   4.768   4.323   1.987  0.2468  0.2950 -0.2812
 1008MOL0     C35967   4.703   4.357   1.854 -0.0925  0.0861 -0.4805
 1008MOL0     C35968   4.546   4.386   1.858 -0.7107 -0.1859 -1.0070
 1008MOL0     O35969   4.527   4.517   1.923  0.6907  0.5461 -0.0765
 1008MOL0     C35970   4.397   4.566   1.952 -0.5355 -0.6607 -0.0008
 1008MOL0     C35971   4.389   4.683   2.031 -0.8844  0.1768 -0.3676
 1008MOL0     C35972   4.274   4.752   2.059 -0.0159  0.4445  0.4926
 1008MOL0     C35973   4.283   4.876   2.144 -0.1757 -0.3564 -0.1055
 1008MOL0     C35974   4.153   4.688   2.017  0.6907 -0.7638  0.3631
 1008MOL0     C35975   4.014   4.730   2.063  0.8402  0.4231 -0.6351
 1008MOL0     O35976   3.913   4.629   2.072  0.0260 -0.3184 -0.3822
 1008MOL0     C35977   3.789   4.661   2.122 -0.1386  0.3270  0.2089
 1008MOL0     C35978   3.716   4.768   2.069  0.5647 -0.7424 -0.5897
 1008MOL0     C35979   3.587   4.798   2.127  0.7787  0.3219 -0.2861
 1008MOL0     C35980   3.535   4.724   2.237  0.6142 -0.7842 -0.2494
 1008MOL0     O35981   3.418   4.762   2.301  0.3676  0.6561 -0.3133
 1008MOL0     C35982   3.299   4.722   2.226  0.0900 -0.5833  0.2056
 1008MOL0     C35983   3.186   4.756   2.318  0.3294 -0.3102 -0.7950
 1008MOL0     C35984   3.067   4.805   2.233 -0.3441 -0.7034  0.3294
 1008MOL0     C35985   2.950   4.833   2.326  0.4370  0.1590  0.1808
 1008MOL0     C35986   2.817   4.851   2.246 -0.9473  0.0876  0.3151
 1008MOL0     C35987   2.696   4.861   2.335  0.0745  0.1602 -0.5871
 1008MOL0     C35988   2.573   4.854   2.248 -0.3172 -0.6302  0.0642
 1008MOL0     C35989   2.526   4.985   2.193  0.1602  0.6154 -0.6373
 1008MOL0    Cl35990   2.351   4.952   2.168  0.0848  0.1126 -0.2010
 1008MOL0     C35991   3.614   4.625   2.287 -0.0505 -1.0402 -0.2912
 1008MOL0     C35992   3.741   4.590   2.233  0.0631 -1.4045  0.3114
 1008MOL0     O35993   4.003   4.842   2.109 -0.4541  0.2220  0.1751
 1008MOL0     C35994   4.157   4.569   1.946 -0.5579  0.1756  0.0357
 1008MOL0     C35995   4.278   4.514   1.913  0.7620  0.8005 -0.3981
 1008MOL0     N35996   4.904   4.574   1.988  0.6361  0.8060  0.0287
 1008MOL0     N35997   4.949   4.678   1.932  0.2652 -0.4957 -0.1428
 1008MOL0     C35998   5.977   4.527   1.194 -0.8651 -0.3486 -0.0633
 1008MOL0     C35999   6.120   4.520   1.206  0.6596 -0.8452 -1.1452
 1008MOL0     C36000   6.538   4.400   1.224  0.0292  0.1113  0.5421
 1008MOL0     C36001   6.596   4.501   1.293 -0.5231 -0.7211  0.0091
 1008MOL0     C36002   6.736   4.525   1.292 -0.4024  0.4965 -0.2709
 1008MOL0     C36003   6.820   4.443   1.220 -0.4957  0.3303  0.2487
 1008MOL0     O36004   6.957   4.472   1.213 -0.5995 -0.5201  0.0014
 1008MOL0     C36005   7.026   4.456   1.091  0.6474  0.1774  0.8400
 1008MOL0     C36006   7.171   4.508   1.104  0.0843 -0.5164  0.4910
 1008MOL0     C36007   7.257   4.411   1.187 -1.1375 -0.8130 -0.3839
 1008MOL0     C36008   7.404   4.461   1.200  0.3516 -0.1979  0.1522
 1008MOL0     C36009   7.489   4.417   1.092 -0.5499 -0.6664  0.2830
 1008MOL0     C36010   7.566   4.358   1.014  0.3684 -0.4482  0.0474
 1008MOL0     C36011   6.762   4.336   1.148 -0.2738  0.0813  0.4437
 1008MOL0     C36012   6.622   4.321   1.139 -0.1921  0.5162  0.4310
 1008MOL0     H36013   6.171   4.240   1.377  1.7077  2.3983  1.7126
 1008MOL0     H36014   5.917   4.239   1.374 -0.0861 -1.4133 -2.5599
 1008MOL0     H36015   5.770   4.603   1.364  0.4775 -1.2470  1.0133
 1008MOL0     H36016   5.710   4.606   1.194 -2.4472  2.4686  0.9631
 1008MOL0     H36017   5.492   4.518   1.246  0.8704 -1.3192 -0.3446
 1008MOL0     H36018   5.538   4.465   1.408 -3.0479  1.6024  0.9083
 1008MOL0     H36019   5.578   4.683   1.481  2.2275 -2.5262 -1.0675
 1008MOL0     H36020   5.522   4.752   1.324  0.3033  0.0529  0.0830
 1008MOL0     H36021   5.307   4.632   1.362  1.0327  0.9415 -1.1226
 1008MOL0     H36022   5.370   4.570   1.517  2.0907  1.5339  2.3313
 1008MOL0     H36023   5.373   4.790   1.613 -0.6179 -1.3474 -0.4813
 1008MOL0     H36024   5.376   4.869   1.461  0.0045  1.0767  0.1116
 1008MOL0     H36025   5.153   4.892   1.552 -5.0494 -2.1169  2.6897
 1008MOL0     H36026   5.132   4.789   1.422 -0.3361 -0.4308  0.6284
 1008MOL0     H36027   5.014   4.713   1.604  0.0640  0.8991 -1.7790
 1008MOL0     H36028   5.153   4.599   1.586  1.6576  1.8034 -1.4101
 1008MOL0     H36029   5.108   4.821   1.788 -1.4104 -0.7395  2.8465
 1008MOL0     H36030   5.246   4.697   1.803 -1.0272 -1.0521  1.7671
 1008MOL0     H36031   5.124   4.445   1.787  0.6816 -0.7122  1.0625
 1008MOL0     H36032   4.951   4.249   1.891 -3.3656 -2.7621  0.9845
 1008MOL0     H36033   4.969   4.284   2.063  2.0662  1.5493 -0.7014
 1008MOL0     H36034   4.748   4.395   2.067  0.8508  3.5295 -2.8620
 1008MOL0     H36035   4.730   4.226   2.020  1.2397  0.6978  2.3183
 1008MOL0     H36036   4.732   4.277   1.786  0.2282  0.8948 -1.3178
 1008MOL0     H36037   4.751   4.449   1.819  0.3726 -1.3011 -3.7722
 1008MOL0     H36038   4.501   4.310   1.923 -0.9369 -0.4903 -1.5125
 1008MOL0     H36039   4.499   4.374   1.760 -0.1669 -0.6680 -1.2187
 1008MOL0     H36040   4.483   4.711   2.079 -0.9588 -4.4062  3.1062
 1008MOL0     H36041   4.378   4.929   2.131 -0.0687  0.5764  3.4038
 1008MOL0     H36042   4.210   4.949   2.106  0.4812 -0.9830 -2.7507
 1008MOL0     H36043   4.259   4.846   2.246 -0.7224  0.8177  0.1318
 1008MOL0     H36044   3.765   4.827   1.992  1.1400 -0.2905  0.1085
 1008MOL0     H36045   3.524   4.877   2.087 -0.3275 -0.7010 -0.6231
 1008MOL0     H36046   3.280   4.785   2.138  1.8713  3.7533  2.5913
 1008MOL0     H36047   3.302   4.620   2.186 -1.3942 -0.2526 -0.8634
 1008MOL0     H36048   3.163   4.667   2.376  1.1196  0.2257  0.3901
 1008MOL0     H36049   3.219   4.837   2.385  0.8591 -0.2449 -1.1237
 1008MOL0     H36050   3.036   4.726   2.164 -2.6719 -0.3928  0.9522
 1008MOL0     H36051   3.091   4.896   2.178  0.8773  0.1250  2.1156
 1008MOL0     H36052   2.938   4.750   2.397  3.0067 -0.2450  0.2139
 1008MOL0     H36053   2.972   4.915   2.395  2.7991 -0.6880  0.5284
 1008MOL0     H36054   2.808   4.775   2.168 -0.7243  0.6292 -0.2472
 1008MOL0     H36055   2.823   4.943   2.187  1.6584 -0.8366 -1.0418
 1008MOL0     H36056   2.701   4.785   2.413  0.1363  0.6109 -0.1505
 1008MOL0     H36057   2.697   4.962   2.377  0.3165 -0.7833  1.7832
 1008MOL0     H36058   2.486   4.833   2.310 -0.8909  1.7968  0.1476
 1008MOL0     H36059   2.575   4.778   2.168  1.8533 -1.0504  0.4555
 1008MOL0     H36060   2.569   5.012   2.096 -0.5932 -0.6926 -1.3672
 1008MOL0     H36061   2.539   5.072   2.259  2.2695  2.4281 -3.2285
 1008MOL0     H36062   3.570   4.565   2.366 -1.5954  1.6073  0.9690
 1008MOL0     H36063   3.807   4.513   2.272 -1.1119 -2.2951  0.6245
 1008MOL0     H36064   4.065   4.513   1.930 -0.8126  0.2002  1.3021
 1008MOL0     H36065   4.280   4.418   1.860  0.7807  1.6465 -1.9975
 1008MOL0     H36066   5.937   4.613   1.141  3.0271  1.4771 -0.4613
 1008MOL0     H36067   6.174   4.604   1.164  1.4769 -0.8956 -0.2333
 1008MOL0     H36068   6.533   4.567   1.351 -1.5148 -1.1440 -0.5616
 1008MOL0     H36069   6.793   4.598   1.348  4.1916 -2.5020 -0.5650
 1008MOL0     H36070   7.037   4.353   1.054  2.3128  0.2963  0.9410
 1008MOL0     H36071   6.984   4.520   1.013  2.9632  2.4464  1.3419
 1008MOL0     H36072   7.174   4.605   1.156 -0.5581 -0.1246 -0.1719
 1008MOL0     H36073   7.216   4.516   1.005 -0.1980 -0.5656  0.3562
 1008MOL0     H36074   7.258   4.311   1.142 -1.4642 -1.1708  0.3911
 1008MOL0     H36075   7.207   4.400   1.283  1.6123  3.6838  1.8805
 1008MOL0     H36076   7.438   4.427   1.298 -3.3813 -1.6504  1.1110
 1008MOL0     H36077   7.410   4.570   1.207 -1.9698 -0.0614  0.6804
 1008MOL0     H36078   7.637   4.305   0.953  0.4737 -1.6840  1.2035
 1008MOL0     H36079   6.825   4.270   1.089  1.2186 -0.1207  2.1848
 1008MOL0     H36080   6.581   4.252   1.067  1.0382  1.1463 -0.9214
 1009MOL0     O36081   4.523   0.694  10.923  0.2018 -0.0812 -0.0416
 1009MOL0     C36082   4.549   0.573  10.948  0.4142 -0.2562  0.4913
 1009MOL0     O36083   4.457   0.480  10.976  0.0766  0.2424  0.2664
 1009MOL0     C36084   4.324   0.497  10.973 -0.2576 -0.6804  0.5982
 1009MOL0     C36085   4.270   0.564  10.864 -0.6480 -0.7311 -0.1600
 1009MOL0     C36086   4.131   0.594  10.875  1.5271 -0.2170  0.6493
 1009MOL0     C36087   4.049   0.542  10.978  0.7482 -0.5642 -0.1942
 1009MOL0     O36088   3.912   0.560  10.967  0.1836 -1.0102  0.3897
 1009MOL0     C36089   3.828   0.491  11.059 -0.3769 -0.3062  0.1353
 1009MOL0     C36090   3.687   0.488  11.009  0.0548  0.3578  0.0035
 1009MOL0     C36091   3.614   0.619  11.010 -0.0205 -1.4267 -0.1793
 1009MOL0     C36092   3.461   0.607  11.028  0.1763  0.0689  0.9285
 1009MOL0     C36093   3.378   0.735  10.986 -0.1579 -0.1403  0.3700
 1009MOL0     C36094   3.426   0.799  10.854  0.4122 -0.0030  0.2604
 1009MOL0     C36095   3.304   0.861  10.801  0.2676 -0.4310 -1.0952
 1009MOL0     C36096   3.337   0.926  10.661  0.3638 -0.5063 -0.0037
 1009MOL0     N36097   3.221   1.004  10.611 -0.4395 -0.0632 -0.2661
 1009MOL0     C36098   3.091   0.959  10.596  0.0273 -0.0121 -0.2782
 1009MOL0     C36099   3.018   1.073  10.579  0.0521  0.4749  0.8047
 1009MOL0     C36100   2.877   1.091  10.544  0.5989  0.0673 -0.2489
 1009MOL0     C36101   2.841   1.229  10.483  0.0804 -0.4208 -0.2247
 1009MOL0     C36102   2.689   1.253  10.470  0.8865  0.6024  0.1181
 1009MOL0     C36103   2.657   1.397  10.452 -0.2818 -0.0881  0.4701
 1009MOL0     O36104   2.515   1.424  10.424 -0.1469  0.1204  0.5281
 1009MOL0     C36105   2.465   1.485  10.310 -0.5236 -0.0728 -0.3197
 1009MOL0     C36106   2.550   1.543  10.209 -0.1108  0.2959  0.9827
 1009MOL0     C36107   2.497   1.596  10.092 -0.0864 -0.4502 -0.7813
 1009MOL0     C36108   2.601   1.668  10.008 -1.3411 -0.4341  0.0568
 1009MOL0     C36109   2.358   1.593  10.064 -0.0375 -0.1301  0.8684
 1009MOL0     C36110   2.295   1.650   9.942  1.0064 -0.5330 -0.8344
 1009MOL0     O36111   2.155   1.661   9.963 -0.2697  0.3994  0.3947
 1009MOL0     C36112   2.079   1.740   9.881  0.7038 -0.8622  0.4004
 1009MOL0     C36113   1.949   1.696   9.857 -0.2969  0.3783 -1.0487
 1009MOL0     C36114   1.858   1.765   9.781 -0.4453 -0.6577  0.0824
 1009MOL0     C36115   1.893   1.894   9.728  0.2468 -0.2634 -0.1780
 1009MOL0     O36116   1.801   1.970   9.659  0.7425  0.6783  0.4479
 1009MOL0     C36117   1.702   2.023   9.739 -0.2732 -0.0523 -0.8221
 1009MOL0     C36118   1.746   2.156   9.808  0.6313 -0.1540 -0.9712
 1009MOL0     C36119   1.649   2.230   9.901 -0.1334  0.1370  0.3480
 1009MOL0     C36120   1.508   2.224   9.849 -1.0126  0.0627  0.0257
 1009MOL0     C36121   1.420   2.322   9.925 -0.0287 -0.0790 -0.1748
 1009MOL0     C36122   1.286   2.331   9.877  0.1100  0.3976  0.0792
 1009MOL0     C36123   1.208   2.438   9.956 -0.1360 -0.0176  0.4325
 1009MOL0     C36124   1.065   2.446   9.919  0.3845  0.1680  1.3028
 1009MOL0    Cl36125   1.045   2.535   9.766 -0.1436 -0.2325  0.0124
 1009MOL0     C36126   2.025   1.937   9.744 -0.0256  0.0764  0.1909
 1009MOL0     C36127   2.110   1.867   9.832  0.2138  0.1813  0.6113
 1009MOL0     O36128   2.352   1.664   9.834 -0.0748 -0.2507 -0.0304
 1009MOL0     C36129   2.279   1.541  10.168  0.5198 -0.7693 -0.8139
 1009MOL0     C36130   2.329   1.480  10.284 -0.4019 -0.4136  0.0111
 1009MOL0     N36131   3.100   1.183  10.588 -1.1641 -0.8139  0.6949
 1009MOL0     N36132   3.227   1.136  10.618  0.2362  0.7439  0.3084
 1009MOL0     C36133   4.110   0.476  11.088  0.0936 -0.4836  0.2026
 1009MOL0     C36134   4.251   0.464  11.082 -0.4166  0.1145 -0.1131
 1009MOL0     C36135   4.683   0.533  10.960 -0.0058 -0.3723 -0.0964
 1009MOL0     C36136   4.789   0.629  10.950  0.3489 -0.6651 -0.1159
 1009MOL0     C36137   4.922   0.594  10.950 -0.2354 -0.7939 -0.1539
 1009MOL0     C36138   4.960   0.465  10.974 -0.7147  0.4431  0.0615
 1009MOL0     O36139   5.095   0.422  10.967 -0.1601 -0.4701  0.2941
 1009MOL0     C36140   5.197   0.529  10.954  0.1403  0.7449  0.8475
 1009MOL0     C36141   5.335   0.478  10.948  0.6471  0.0321  0.3532
 1009MOL0     C36142   5.388   0.377  11.052  0.1216  0.6561 -0.2940
 1009MOL0     C36143   5.344   0.231  11.008 -0.0749  0.1352  0.6240
 1009MOL0     C36144   5.421   0.130  11.081  0.2565  0.3748  0.6504
 1009MOL0     C36145   5.485   0.049  11.141  0.1982 -0.1897 -0.6848
 1009MOL0     C36146   4.859   0.370  10.991 -0.3933  0.1735 -0.4715
 1009MOL0     C36147   4.726   0.399  10.985  0.3113  0.0235  0.1098
 1009MOL0     H36148   4.330   0.587  10.776 -3.7181  1.5315 -1.8530
 1009MOL0     H36149   4.081   0.648  10.796  2.0425 -1.4787 -0.5787
 1009MOL0     H36150   3.859   0.387  11.071  0.3252  0.0506  1.7706
 1009MOL0     H36151   3.835   0.542  11.156 -0.8624  1.0167 -0.4982
 1009MOL0     H36152   3.688   0.445  10.908 -2.1953 -0.0558  0.1006
 1009MOL0     H36153   3.633   0.423  11.079  0.0810 -0.1227 -0.4172
 1009MOL0     H36154   3.640   0.678  11.099 -1.3997  0.1272 -0.7530
 1009MOL0     H36155   3.643   0.677  10.922 -1.1928 -0.5173  0.0053
 1009MOL0     H36156   3.438   0.519  10.967 -0.0658 -0.1962  1.4048
 1009MOL0     H36157   3.431   0.568  11.125 -2.3721 -3.7713 -1.1744
 1009MOL0     H36158   3.275   0.701  10.977  0.0102 -0.2443 -1.4733
 1009MOL0     H36159   3.376   0.811  11.065  1.2438  2.3785 -1.8757
 1009MOL0     H36160   3.504   0.875  10.869 -2.1658  2.3922  2.7968
 1009MOL0     H36161   3.471   0.729  10.783 -0.9056 -0.3902 -0.2179
 1009MOL0     H36162   3.234   0.782  10.773 -1.7551  0.1858  1.8316
 1009MOL0     H36163   3.257   0.926  10.875  0.4412 -0.8552 -0.6069
 1009MOL0     H36164   3.347   0.845  10.588  0.0767 -1.0292  0.5204
 1009MOL0     H36165   3.426   0.990  10.661  0.0840 -0.0946 -1.3459
 1009MOL0     H36166   3.053   0.859  10.612  1.0755  0.1136  4.5425
 1009MOL0     H36167   2.852   1.018  10.467 -0.6341  0.5682 -0.3409
 1009MOL0     H36168   2.817   1.069  10.633  1.0067 -1.5961 -0.3545
 1009MOL0     H36169   2.882   1.230  10.382 -0.0557 -4.3901 -0.4828
 1009MOL0     H36170   2.878   1.313  10.542 -1.7268  1.9565 -2.2835
 1009MOL0     H36171   2.640   1.225  10.564 -0.8763  1.2256 -0.5788
 1009MOL0     H36172   2.646   1.200  10.384 -0.1219 -1.4001  1.7566
 1009MOL0     H36173   2.719   1.431  10.369 -1.7693  2.2419  0.2154
 1009MOL0     H36174   2.684   1.457  10.540 -0.7320 -0.9298  1.1984
 1009MOL0     H36175   2.658   1.544  10.223  0.2490 -2.4318 -0.6959
 1009MOL0     H36176   2.555   1.759   9.969  1.3161  0.1686 -2.0202
 1009MOL0     H36177   2.693   1.698  10.058 -1.4038  1.1821 -0.7291
 1009MOL0     H36178   2.630   1.593   9.934  0.8658 -1.2409  1.6340
 1009MOL0     H36179   1.911   1.611   9.914  2.9467  1.2555  2.8664
 1009MOL0     H36180   1.756   1.731   9.772 -0.7597  0.5746 -1.6875
 1009MOL0     H36181   1.621   2.056   9.674  0.2514  2.3175 -0.3383
 1009MOL0     H36182   1.654   1.955   9.811 -0.0656 -2.1503 -2.5805
 1009MOL0     H36183   1.828   2.120   9.871  0.9528 -3.3273 -3.0029
 1009MOL0     H36184   1.800   2.227   9.744  3.8279 -0.3831  1.2049
 1009MOL0     H36185   1.684   2.333   9.893  1.8864 -0.6614 -2.7810
 1009MOL0     H36186   1.660   2.197  10.004  2.1037  2.0325  0.7863
 1009MOL0     H36187   1.511   2.254   9.744  1.8468  0.9512  0.2724
 1009MOL0     H36188   1.465   2.125   9.868 -0.4625  0.2104  2.4600
 1009MOL0     H36189   1.477   2.415   9.915 -0.1377  0.1899  1.3572
 1009MOL0     H36190   1.422   2.283  10.028  3.3932  1.4434  0.4688
 1009MOL0     H36191   1.285   2.371   9.775 -4.0144  2.9365  0.8593
 1009MOL0     H36192   1.243   2.233   9.900  0.6729  0.3535  0.9773
 1009MOL0     H36193   1.258   2.535   9.954 -0.3808  0.1795 -2.8382
 1009MOL0     H36194   1.224   2.394  10.055  1.9808 -2.9281 -1.0436
 1009MOL0     H36195   1.004   2.491   9.998 -1.4706 -1.2313  0.7384
 1009MOL0     H36196   1.028   2.344   9.908 -4.6028  1.6565  1.5608
 1009MOL0     H36197   2.056   2.025   9.688 -0.2628 -0.5303 -0.9297
 1009MOL0     H36198   2.202   1.914   9.865  0.0478  1.8839 -1.2210
 1009MOL0     H36199   2.171   1.540  10.157  0.3968 -1.1635  0.2982
 1009MOL0     H36200   2.260   1.430  10.351 -0.2211 -0.2032  0.3527
 1009MOL0     H36201   4.058   0.442  11.176  1.2470 -0.2591  0.9938
 1009MOL0     H36202   4.301   0.416  11.166 -4.5108 -1.1165  1.8750
 1009MOL0     H36203   4.770   0.735  10.938 -0.9094 -0.8484  0.1026
 1009MOL0     H36204   4.998   0.669  10.931 -0.5494 -0.0739  1.2938
 1009MOL0     H36205   5.177   0.584  10.862 -1.9411 -0.3996  0.5574
 1009MOL0     H36206   5.196   0.601  11.036  0.4202 -0.1914  1.6839
 1009MOL0     H36207   5.396   0.568  10.939 -1.4635  1.4859 -0.3863
 1009MOL0     H36208   5.341   0.432  10.850 -1.8799 -0.0833  0.1839
 1009MOL0     H36209   5.339   0.407  11.146 -0.2035  0.8210 -0.5160
 1009MOL0     H36210   5.497   0.382  11.062  0.1496 -0.5312  0.1666
 1009MOL0     H36211   5.377   0.222  10.904 -0.2308  0.4245  0.5478
 1009MOL0     H36212   5.237   0.207  11.014  0.2288 -2.4358 -1.7393
 1009MOL0     H36213   5.530  -0.028  11.200 -0.3898 -2.9577 -3.5629
 1009MOL0     H36214   4.880   0.263  10.993 -5.2717 -1.0286 -0.6966
 1009MOL0     H36215   4.649   0.324  10.992  1.5984 -1.4234 -0.6256
 1010MOL0     O36216   2.644   1.507  11.067 -0.0748 -0.2550 -0.4951
 1010MOL0     C36217   2.701   1.445  10.976 -1.1654 -0.0404  0.2752
 1010MOL0     O36218   2.652   1.433  10.849  0.0707  1.0248  0.2421
 1010MOL0     C36219   2.514   1.455  10.818 -0.1031  0.3272 -1.0236
 1010MOL0     C36220   2.492   1.569  10.742  0.2610 -0.1829 -0.7210
 1010MOL0     C36221   2.360   1.589  10.685 -0.2979 -0.1856  0.3426
 1010MOL0     C36222   2.255   1.492  10.708 -0.6454 -0.6095  0.3139
 1010MOL0     O36223   2.121   1.498  10.662  0.0769 -0.9054 -0.8357
 1010MOL0     C36224   2.085   1.615  10.590 -0.7785 -1.3675 -0.0674
 1010MOL0     C36225   1.953   1.617  10.533  0.0350 -0.6006  0.2315
 1010MOL0     C36226   1.931   1.503  10.437  0.1412  0.3438 -0.4373
 1010MOL0     C36227   1.783   1.483  10.403 -0.8207 -0.3330  0.4842
 1010MOL0     C36228   1.742   1.357  10.322 -0.1340  0.5125  0.5102
 1010MOL0     C36229   1.592   1.349  10.291  0.4046  0.8822 -0.2270
 1010MOL0     C36230   1.512   1.320  10.408 -0.6752  0.9417 -0.8597
 1010MOL0     C36231   1.363   1.313  10.371 -0.4263  0.3727 -0.4516
 1010MOL0     N36232   1.331   1.194  10.284  0.2020 -0.5506  0.3247
 1010MOL0     C36233   1.316   1.064  10.329 -0.1711  1.1901  0.1845
 1010MOL0     C36234   1.234   1.003  10.244 -0.5807 -0.0062 -0.4813
 1010MOL0     C36235   1.198   0.856  10.257  0.5124  0.2446 -0.3573
 1010MOL0     C36236   1.041   0.835  10.277  0.2974 -1.0904 -0.1828
 1010MOL0     C36237   1.022   0.686  10.304 -0.4052 -0.5932 -0.4797
 1010MOL0     C36238   0.877   0.650  10.343 -0.0229  0.0085  0.3964
 1010MOL0     O36239   0.787   0.684  10.236 -0.0379  0.1748  0.3821
 1010MOL0     C36240   0.653   0.674  10.265  0.2313 -0.0006 -0.2701
 1010MOL0     C36241   0.587   0.624  10.381 -0.1589  0.6124  0.3582
 1010MOL0     C36242   0.447   0.623  10.380  0.5344  0.2323 -0.4801
 1010MOL0     C36243   0.385   0.580  10.516  0.1700  0.2072  0.0151
 1010MOL0     C36244   0.368   0.656  10.262  0.2129  0.3522  0.2668
 1010MOL0     C36245   0.224   0.628  10.238  0.2244 -0.1222 -0.0731
 1010MOL0     O36246   0.156   0.697  10.141 -0.7424 -0.3741  0.4127
 1010MOL0     C36247   0.022   0.681  10.133  0.0650 -1.0202 -1.0101
 1010MOL0     C36248  -0.039   0.568  10.081 -0.2567  0.4102 -0.3414
 1010MOL0     C36249  -0.180   0.562  10.088 -0.0836  0.4501  0.7262
 1010MOL0     C36250  -0.252   0.669  10.134  0.1066 -0.4977  0.3074
 1010MOL0     O36251  -0.388   0.667  10.163  0.4418 -1.1160 -0.4927
 1010MOL0     C36252  -0.468   0.589  10.074  0.2739 -0.5793  0.5862
 1010MOL0     C36253  -0.549   0.494  10.165 -0.9102  0.7273  0.4911
 1010MOL0     C36254  -0.647   0.565  10.253  0.8819 -0.3513 -0.2851
 1010MOL0     C36255  -0.787   0.580  10.181  0.6211  0.3384  0.1366
 1010MOL0     C36256  -0.897   0.656  10.267  0.0405  0.2857 -0.1139
 1010MOL0     C36257  -1.039   0.647  10.210  0.0633 -0.3882  0.7839
 1010MOL0     C36258  -1.057   0.697  10.068 -0.9737 -0.3844 -0.9664
 1010MOL0     C36259  -1.016   0.848  10.051  1.2011  0.6413  0.1417
 1010MOL0    Cl36260  -0.970   0.874   9.874 -0.0629  0.0433 -0.0586
 1010MOL0     C36261  -0.189   0.786  10.167 -0.4511 -0.2643  0.2805
 1010MOL0     C36262  -0.052   0.793  10.172 -0.5095  0.9498 -0.0868
 1010MOL0     O36263   0.173   0.538  10.305  0.0850  0.4534 -0.7094
 1010MOL0     C36264   0.442   0.709  10.156  0.5985 -0.4933 -0.2517
 1010MOL0     C36265   0.579   0.713  10.159  0.2174 -0.3980  0.4217
 1010MOL0     N36266   1.208   1.097  10.143 -0.3680  0.2090 -0.4989
 1010MOL0     N36267   1.266   1.211  10.169 -0.4729 -0.3739 -0.3147
 1010MOL0     C36268   2.274   1.393  10.801 -0.7388 -0.5556  0.8748
 1010MOL0     C36269   2.402   1.374  10.854 -0.1171  0.2700  0.5733
 1010MOL0     C36270   2.821   1.372  11.004  0.3383 -0.2058  0.1845
 1010MOL0     C36271   2.872   1.366  11.131 -0.3546  0.0998 -0.5552
 1010MOL0     C36272   3.000   1.313  11.156 -0.7572 -0.9062  0.1542
 1010MOL0     C36273   3.072   1.253  11.059 -0.8925  0.8182 -0.5918
 1010MOL0     O36274   3.185   1.185  11.095  0.3635  1.2978  0.1899
 1010MOL0     C36275   3.310   1.248  11.087 -0.3477 -0.2535 -0.3358
 1010MOL0     C36276   3.353   1.248  11.240  0.1698 -0.1555 -0.0607
 1010MOL0     C36277   3.506   1.274  11.247  0.3096  0.3005  0.0742
 1010MOL0     C36278   3.546   1.284  11.391  0.4712  0.1359  0.2331
 1010MOL0     C36279   3.688   1.285  11.407  0.6676  0.0978 -0.0373
 1010MOL0     C36280   3.802   1.259  11.419 -0.4846 -0.1007  0.0257
 1010MOL0     C36281   3.014   1.240  10.933 -0.7509  0.2713  0.5618
 1010MOL0     C36282   2.892   1.300  10.903 -0.2976  0.4241  0.7299
 1010MOL0     H36283   2.581   1.626  10.718  0.9880 -0.6979  0.6234
 1010MOL0     H36284   2.350   1.672  10.616  3.2255 -0.6000 -0.8651
 1010MOL0     H36285   2.094   1.705  10.651  0.3022 -0.0313 -2.0912
 1010MOL0     H36286   2.149   1.648  10.508 -1.0654  0.2974  0.3393
 1010MOL0     H36287   1.872   1.624  10.607 -0.4378 -1.7160 -0.1568
 1010MOL0     H36288   1.939   1.707  10.472 -1.3117  1.1040  2.8790
 1010MOL0     H36289   1.980   1.534  10.345 -1.6320  2.4273 -0.7627
 1010MOL0     H36290   1.974   1.410  10.478 -1.0935  1.2793  3.4246
 1010MOL0     H36291   1.734   1.474  10.500 -2.1880  1.9794  0.0865
 1010MOL0     H36292   1.753   1.570  10.344  0.9572  1.5471  2.2150
 1010MOL0     H36293   1.798   1.356  10.228  0.9090 -3.4523  0.9787
 1010MOL0     H36294   1.781   1.265  10.365  0.6963  1.0038  0.8215
 1010MOL0     H36295   1.556   1.440  10.242  1.2721  1.3568  0.0031
 1010MOL0     H36296   1.588   1.269  10.216  1.3274  3.1672 -2.9032
 1010MOL0     H36297   1.538   1.222  10.449 -0.3465  0.2085 -2.7316
 1010MOL0     H36298   1.518   1.392  10.490 -1.3483  1.7756 -1.5187
 1010MOL0     H36299   1.340   1.411  10.328 -1.4119  1.8736  3.1237
 1010MOL0     H36300   1.298   1.307  10.459  2.6206  2.0637  2.1164
 1010MOL0     H36301   1.353   1.025  10.423  0.8859  0.7573 -0.3899
 1010MOL0     H36302   1.240   0.797  10.175 -1.5277  0.1626 -1.4151
 1010MOL0     H36303   1.235   0.823  10.354 -2.4752 -0.0301  0.7766
 1010MOL0     H36304   0.984   0.870  10.190  1.5901  2.0167  0.1032
 1010MOL0     H36305   1.004   0.891  10.364 -1.3745 -4.0833  1.2103
 1010MOL0     H36306   1.092   0.650  10.379  0.8841  1.4505 -0.6378
 1010MOL0     H36307   1.051   0.624  10.218  0.9684  0.8804 -1.1150
 1010MOL0     H36308   0.859   0.699  10.439  0.0626 -0.6161  0.7407
 1010MOL0     H36309   0.864   0.541  10.351 -1.1916  0.2053  1.5336
 1010MOL0     H36310   0.638   0.587  10.469 -0.5365 -0.0592  0.3026
 1010MOL0     H36311   0.456   0.605  10.596  1.1012  4.5881 -1.8977
 1010MOL0     H36312   0.292   0.633  10.537 -0.3252  0.2215 -2.0877
 1010MOL0     H36313   0.365   0.473  10.510 -1.1311  0.4125  0.4907
 1010MOL0     H36314   0.022   0.483  10.055 -1.8678 -0.1353 -2.6415
 1010MOL0     H36315  -0.225   0.465  10.069 -3.7379  1.7832  1.6913
 1010MOL0     H36316  -0.544   0.655  10.032  1.9982  0.6679 -0.6881
 1010MOL0     H36317  -0.418   0.541   9.990  2.0448 -3.7657  3.2137
 1010MOL0     H36318  -0.594   0.423  10.094  2.0048  1.5558 -2.4564
 1010MOL0     H36319  -0.480   0.431  10.222 -0.0214  0.1392 -1.1616
 1010MOL0     H36320  -0.615   0.667  10.278 -2.1282  0.8909 -1.0343
 1010MOL0     H36321  -0.663   0.514  10.348  0.1044 -1.5689 -1.0402
 1010MOL0     H36322  -0.766   0.649  10.100  1.8306  0.3463  0.4437
 1010MOL0     H36323  -0.827   0.492  10.131 -0.2930  1.2795 -0.8333
 1010MOL0     H36324  -0.864   0.760  10.279 -0.2549  0.2132  1.5770
 1010MOL0     H36325  -0.899   0.602  10.362  1.5788  0.6765  0.1687
 1010MOL0     H36326  -1.073   0.542  10.212  1.2516 -0.8251 -0.6041
 1010MOL0     H36327  -1.115   0.692  10.275 -1.2086 -2.2837  0.7073
 1010MOL0     H36328  -1.160   0.685  10.032 -1.0475  0.9904 -1.2634
 1010MOL0     H36329  -0.992   0.644   9.998  1.2044  0.7360  0.1308
 1010MOL0     H36330  -0.927   0.886  10.103  1.1899  2.0184 -0.8074
 1010MOL0     H36331  -1.097   0.910  10.090 -0.5309 -1.1986 -0.3711
 1010MOL0     H36332  -0.243   0.868  10.214 -1.9584 -1.8907  1.5287
 1010MOL0     H36333   0.006   0.877  10.209  1.3307  0.0504 -0.7948
 1010MOL0     H36334   0.381   0.737  10.070 -3.4852 -0.8219  2.2808
 1010MOL0     H36335   0.629   0.752  10.071  0.0687 -0.7757  0.1678
 1010MOL0     H36336   2.196   1.321  10.823 -1.4372 -0.0825  0.0432
 1010MOL0     H36337   2.415   1.286  10.917  1.2178 -0.6315 -0.8794
 1010MOL0     H36338   2.820   1.408  11.217  1.9677  0.5204  0.7318
 1010MOL0     H36339   3.037   1.314  11.258  0.7187  1.1407 -0.3309
 1010MOL0     H36340   3.381   1.186  11.031  0.0670 -0.6482  0.6019
 1010MOL0     H36341   3.297   1.348  11.045 -1.2000 -1.5075 -3.3222
 1010MOL0     H36342   3.327   1.152  11.285 -0.8833  1.1106  2.1981
 1010MOL0     H36343   3.294   1.325  11.290  0.6635  0.5837 -0.5913
 1010MOL0     H36344   3.534   1.370  11.201  3.4163 -0.1547  0.8147
 1010MOL0     H36345   3.568   1.200  11.197  0.6859  1.9582 -2.0630
 1010MOL0     H36346   3.514   1.192  11.441  0.3809 -0.7434 -1.3752
 1010MOL0     H36347   3.502   1.373  11.437 -2.9634 -0.5974 -1.3083
 1010MOL0     H36348   3.908   1.245  11.419 -0.0924  2.3565  1.2025
 1010MOL0     H36349   3.069   1.169  10.872  0.8530  1.7852  0.1830
 1010MOL0     H36350   2.837   1.292  10.810  0.0714 -1.2100  0.6094
 1011MOL0     O36351   7.340   8.972   8.844 -0.1124  0.3011 -0.6015
 1011MOL0     C36352   7.305   9.079   8.811  0.3169 -0.5539  0.2057
 1011MOL0     O36353   7.177   9.132   8.802 -0.0280 -0.1985  0.4890
 1011MOL0     C36354   7.068   9.073   8.855  0.3239  0.1341  0.3375
 1011MOL0     C36355   7.058   8.936   8.872 -0.5943 -0.8049  0.7407
 1011MOL0     C36356   6.949   8.881   8.930 -0.5100  0.1151  0.3392
 1011MOL0     C36357   6.833   8.959   8.967 -0.4185 -0.1603 -0.3420
 1011MOL0     O36358   6.724   8.891   9.017 -0.4127  0.0996 -0.2696
 1011MOL0     C36359   6.612   8.971   9.033 -0.9972 -0.1916  0.2504
 1011MOL0     C36360   6.479   8.885   9.028  0.6264 -0.5853 -0.4238
 1011MOL0     C36361   6.359   8.982   8.999  0.3121  0.3949 -0.7210
 1011MOL0     C36362   6.237   8.900   8.979  0.2017  0.8626  0.3643
 1011MOL0     C36363   6.114   8.995   8.958  0.7091  0.8364  0.5477
 1011MOL0     C36364   5.998   8.923   8.886  0.0206  0.0515 -0.7463
 1011MOL0     C36365   5.866   9.001   8.910  0.1492  0.9395 -0.0539
 1011MOL0     C36366   5.758   8.909   8.828 -0.1942 -0.1707  0.0034
 1011MOL0     N36367   5.629   8.980   8.818 -0.2136  0.9995 -0.0642
 1011MOL0     C36368   5.530   9.003   8.913 -0.0887 -0.4954 -0.7022
 1011MOL0     C36369   5.436   9.073   8.849  0.1211 -0.4116  0.1954
 1011MOL0     C36370   5.310   9.132   8.915 -0.3927  0.0822 -0.1393
 1011MOL0     C36371   5.177   9.071   8.855 -0.0485 -0.1243  0.5103
 1011MOL0     C36372   5.043   9.146   8.899 -0.6086  0.1570  0.9906
 1011MOL0     C36373   4.916   9.079   8.863  0.4268 -0.7411 -0.2057
 1011MOL0     O36374   4.879   9.070   8.725 -0.5525  0.3762  0.0908
 1011MOL0     C36375   4.750   9.036   8.682  0.0904  0.4863  0.4328
 1011MOL0     C36376   4.711   9.057   8.545 -0.1670 -0.1069 -0.3530
 1011MOL0     C36377   4.594   9.019   8.499 -0.5919 -0.1157 -0.3058
 1011MOL0     C36378   4.571   9.062   8.353  0.5322 -0.8349  0.5754
 1011MOL0     C36379   4.496   8.962   8.585  0.2991 -0.0069  0.6705
 1011MOL0     C36380   4.356   8.938   8.542  0.4307 -0.1043 -0.9281
 1011MOL0     O36381   4.258   8.917   8.643 -0.7645 -0.0440 -0.2846
 1011MOL0     C36382   4.135   8.889   8.602 -0.5418  0.0583  0.2519
 1011MOL0     C36383   4.099   8.765   8.554  0.1921  0.3027 -0.1960
 1011MOL0     C36384   3.969   8.740   8.511 -0.1287 -0.2142  0.2592
 1011MOL0     C36385   3.872   8.842   8.519 -0.2012  0.5981  0.3266
 1011MOL0     O36386   3.747   8.819   8.469  0.7758  0.5762 -0.0908
 1011MOL0     C36387   3.663   8.917   8.405 -0.0476  0.1487  0.1740
 1011MOL0     C36388   3.534   8.842   8.352  0.0466 -0.3138  0.2699
 1011MOL0     C36389   3.467   8.925   8.244 -0.0750 -0.1256 -0.1552
 1011MOL0     C36390   3.334   8.868   8.226  0.9838 -0.0702 -0.2577
 1011MOL0     C36391   3.248   8.951   8.133  0.2034 -0.8931 -0.1188
 1011MOL0     C36392   3.117   8.882   8.087 -0.3317  0.0699  0.6482
 1011MOL0     C36393   3.026   8.958   7.999 -0.5940  0.1274  0.8122
 1011MOL0     C36394   2.889   8.874   7.968 -0.1649  0.0261 -0.5077
 1011MOL0    Cl36395   2.790   8.965   7.849 -0.0995  0.1027  0.2328
 1011MOL0     C36396   3.908   8.965   8.568 -0.8861  0.1666 -0.2408
 1011MOL0     C36397   4.034   8.993   8.617 -0.3034  0.7197  0.5645
 1011MOL0     O36398   4.325   8.929   8.420  0.4412  0.4158 -0.7057
 1011MOL0     C36399   4.535   8.941   8.715  0.2069 -0.0062 -1.1543
 1011MOL0     C36400   4.655   8.983   8.768  0.5267 -0.2946  0.1774
 1011MOL0     N36401   5.476   9.098   8.718 -0.7727  0.8421 -0.3379
 1011MOL0     N36402   5.592   9.048   8.706 -0.9256  0.0089 -0.8055
 1011MOL0     C36403   6.852   9.096   8.960  0.0062 -0.8707 -0.4590
 1011MOL0     C36404   6.968   9.156   8.903  0.4242 -0.0585 -0.1345
 1011MOL0     C36405   7.418   9.170   8.771  0.6466  0.0125  0.0157
 1011MOL0     C36406   7.558   9.138   8.779  0.7002  0.5347 -0.3237
 1011MOL0     C36407   7.654   9.227   8.762  1.0844  0.0749 -0.0206
 1011MOL0     C36408   7.626   9.363   8.754  0.1761 -0.8442 -0.3539
 1011MOL0     O36409   7.723   9.466   8.750  0.3392 -0.2426  0.1632
 1011MOL0     C36410   7.859   9.427   8.723 -0.0419 -0.7844  0.9720
 1011MOL0     C36411   7.948   9.547   8.684  0.4582  0.4738  0.1915
 1011MOL0     C36412   7.993   9.644   8.794  0.0713 -0.0471  0.3483
 1011MOL0     C36413   8.105   9.732   8.738 -0.3172  0.5046  0.3716
 1011MOL0     C36414   8.135   9.838   8.837 -0.1536  0.8147  0.0463
 1011MOL0     C36415   8.150   9.940   8.898 -0.0216 -0.1286 -0.3596
 1011MOL0     C36416   7.489   9.396   8.740  0.9239  0.3401  0.0053
 1011MOL0     C36417   7.385   9.302   8.741  0.4521  1.1007  0.7371
 1011MOL0     H36418   7.133   8.867   8.835 -0.4876  0.0248 -0.6240
 1011MOL0     H36419   6.943   8.773   8.943  0.5809  0.3048  3.2544
 1011MOL0     H36420   6.622   9.022   9.130  2.6116  0.2445 -0.2246
 1011MOL0     H36421   6.609   9.046   8.954  1.2840  1.6610  1.7791
 1011MOL0     H36422   6.493   8.806   8.954  0.5800  1.9947 -3.4180
 1011MOL0     H36423   6.456   8.836   9.122  0.4694 -0.7159 -0.5302
 1011MOL0     H36424   6.348   9.050   9.084 -0.1246 -0.6462  0.0816
 1011MOL0     H36425   6.370   9.047   8.912 -2.2053 -0.0297 -1.4620
 1011MOL0     H36426   6.256   8.827   8.900 -1.6095  0.8362 -0.0814
 1011MOL0     H36427   6.218   8.836   9.066  0.1388  2.3407  1.4828
 1011MOL0     H36428   6.080   9.036   9.053 -2.1422 -0.3717  0.1444
 1011MOL0     H36429   6.139   9.077   8.890 -0.7878  0.2198 -0.8147
 1011MOL0     H36430   6.027   8.897   8.784 -1.1483 -2.8951 -0.4401
 1011MOL0     H36431   5.990   8.826   8.937 -0.0347  0.6391  0.3996
 1011MOL0     H36432   5.837   9.010   9.015 -1.0369 -1.0300 -0.1812
 1011MOL0     H36433   5.884   9.102   8.871  0.5454  0.9974  0.2750
 1011MOL0     H36434   5.748   8.808   8.869 -2.3405  0.3211  0.8362
 1011MOL0     H36435   5.783   8.900   8.722 -1.5467 -0.0333 -0.3510
 1011MOL0     H36436   5.523   8.988   9.020 -0.4919  0.8551 -0.5302
 1011MOL0     H36437   5.331   9.135   9.022  1.7302  3.4958 -0.4905
 1011MOL0     H36438   5.311   9.236   8.879  2.1427 -0.4239 -1.8192
 1011MOL0     H36439   5.167   8.966   8.885  0.9733 -0.2274  0.5119
 1011MOL0     H36440   5.199   9.072   8.748  1.5719  0.0097  0.8289
 1011MOL0     H36441   5.043   9.241   8.844  1.0408 -0.3416  0.0457
 1011MOL0     H36442   5.041   9.157   9.007  1.4865 -2.3053  1.3752
 1011MOL0     H36443   4.833   9.136   8.906 -1.0541 -1.6423 -1.7173
 1011MOL0     H36444   4.914   8.978   8.905  0.8391 -0.3137  0.8604
 1011MOL0     H36445   4.785   9.090   8.473 -1.5964  0.4713 -1.6275
 1011MOL0     H36446   4.651   9.122   8.310 -0.0839 -0.3228  0.1294
 1011MOL0     H36447   4.548   8.973   8.294 -0.0534 -1.3662  1.5792
 1011MOL0     H36448   4.482   9.125   8.348  0.0619 -1.5888 -2.4752
 1011MOL0     H36449   4.171   8.685   8.541  1.4455  1.3637  0.0021
 1011MOL0     H36450   3.941   8.642   8.474  1.6838 -0.5170 -0.4167
 1011MOL0     H36451   3.632   8.999   8.471  0.5274  2.7330 -2.5722
 1011MOL0     H36452   3.713   8.958   8.317  2.8893  1.8685  2.4094
 1011MOL0     H36453   3.563   8.744   8.312  1.2447  0.3922 -0.6751
 1011MOL0     H36454   3.459   8.823   8.429  0.0428  0.3693  0.4425
 1011MOL0     H36455   3.523   8.924   8.150  0.1302  1.3617 -0.0787
 1011MOL0     H36456   3.457   9.028   8.281  1.8734  0.2569 -0.5534
 1011MOL0     H36457   3.350   8.770   8.182 -1.8366 -0.9905  0.5616
 1011MOL0     H36458   3.275   8.858   8.317 -1.5928 -2.3725 -2.0498
 1011MOL0     H36459   3.297   8.970   8.037  0.1364  4.1402  0.5636
 1011MOL0     H36460   3.232   9.045   8.186  2.4414 -1.5766  1.9853
 1011MOL0     H36461   3.131   8.788   8.031 -0.0773  0.2673  0.3791
 1011MOL0     H36462   3.058   8.863   8.177 -2.6371  0.4891 -0.6941
 1011MOL0     H36463   3.079   8.986   7.907 -0.9386 -3.0518 -0.4687
 1011MOL0     H36464   2.988   9.041   8.059 -1.3308 -1.5572  2.7679
 1011MOL0     H36465   2.834   8.857   8.061  1.0624  0.3506  0.2921
 1011MOL0     H36466   2.904   8.775   7.924 -1.6717 -0.1280 -0.7328
 1011MOL0     H36467   3.844   9.052   8.556 -3.2061 -1.4537 -0.2514
 1011MOL0     H36468   4.059   9.095   8.643  2.5949  1.2297 -3.2367
 1011MOL0     H36469   4.460   8.898   8.781 -0.8495  0.0344 -2.2926
 1011MOL0     H36470   4.688   8.975   8.871  3.0636  0.8999 -0.4792
 1011MOL0     H36471   6.773   9.163   8.993 -2.2718 -3.5421 -0.1795
 1011MOL0     H36472   6.969   9.263   8.882  0.3788 -0.0677 -0.1814
 1011MOL0     H36473   7.592   9.038   8.805 -1.2672  0.3568  1.8932
 1011MOL0     H36474   7.758   9.199   8.773  0.7209 -1.3964 -0.0764
 1011MOL0     H36475   7.902   9.375   8.809  4.2776  1.0696  0.2062
 1011MOL0     H36476   7.853   9.365   8.633  0.4867 -0.7339  0.9021
 1011MOL0     H36477   7.903   9.594   8.596  3.3020 -1.7378 -2.6677
 1011MOL0     H36478   8.041   9.497   8.655  0.6219  0.2827  1.0262
 1011MOL0     H36479   8.035   9.591   8.880  1.2976  1.6570  0.8755
 1011MOL0     H36480   7.911   9.707   8.829  0.2184  0.2836  0.1090
 1011MOL0     H36481   8.068   9.782   8.649  0.2318  1.6494  0.7546
 1011MOL0     H36482   8.185   9.661   8.715 -1.1414 -0.0510 -0.8286
 1011MOL0     H36483   8.183  10.031   8.944 -0.0767 -0.1716 -0.2339
 1011MOL0     H36484   7.459   9.499   8.724  1.6167  0.3805 -1.1582
 1011MOL0     H36485   7.281   9.328   8.719  0.3037  1.1873  1.5310
 1012MOL0     O36486   8.817   9.881  10.740 -0.4182  0.3784  0.1309
 1012MOL0     C36487   8.804   9.996  10.693 -0.5175  0.9938  0.0699
 1012MOL0     O36488   8.683  10.063  10.682 -1.4596  0.4224 -0.7273
 1012MOL0     C36489   8.578  10.026  10.763 -0.1947 -0.9917  0.7388
 1012MOL0     C36490   8.457  10.072  10.706  0.3759  0.1637  0.4982
 1012MOL0     C36491   8.336  10.046  10.778  0.1428 -0.0658  0.7242
 1012MOL0     C36492   8.340   9.969  10.894 -0.0123 -0.4644  0.0162
 1012MOL0     O36493   8.218   9.945  10.956  0.1301  0.7973 -0.6985
 1012MOL0     C36494   8.211   9.848  11.067  0.7126  0.6645  0.0944
 1012MOL0     C36495   8.063   9.809  11.096  0.3572  0.0223  1.0457
 1012MOL0     C36496   8.007   9.897  11.205 -0.6943  0.1211  0.9330
 1012MOL0     C36497   7.858   9.857  11.232  0.4236  0.7065 -0.4370
 1012MOL0     C36498   7.780   9.953  11.311  0.4865  0.5213 -0.5781
 1012MOL0     C36499   7.775   9.936  11.462 -0.0804  0.2680 -0.8325
 1012MOL0     C36500   7.687  10.035  11.534  0.2744  0.6475 -0.4601
 1012MOL0     C36501   7.542   9.976  11.547 -0.6012  0.1217  0.7964
 1012MOL0     N36502   7.438  10.064  11.603 -0.1136  0.6473 -0.0634
 1012MOL0     C36503   7.456  10.176  11.678  0.6080 -0.6375 -0.0416
 1012MOL0     C36504   7.327  10.214  11.708 -0.7472 -0.5092  0.4969
 1012MOL0     C36505   7.291  10.332  11.796  0.0723 -0.0969  0.2950
 1012MOL0     C36506   7.146  10.306  11.849  0.7111  0.1948  0.2994
 1012MOL0     C36507   7.123  10.398  11.967 -0.3312 -1.0111  0.3278
 1012MOL0     C36508   6.983  10.408  12.021  0.2017 -0.5170  0.5193
 1012MOL0     O36509   6.892  10.421  11.906 -0.2813  0.3537  0.2974
 1012MOL0     C36510   6.764  10.467  11.938  0.0970 -0.3916  0.2946
 1012MOL0     C36511   6.684  10.519  11.831 -0.0231  0.0378 -0.2390
 1012MOL0     C36512   6.556  10.568  11.858  0.3948  0.5119 -0.2406
 1012MOL0     C36513   6.474  10.614  11.745  0.2340 -0.6036 -0.3921
 1012MOL0     C36514   6.504  10.567  11.989  0.1397 -0.4118 -0.1906
 1012MOL0     C36515   6.380  10.645  12.030  0.0107  0.5238  0.9581
 1012MOL0     O36516   6.290  10.563  12.097  0.3402 -0.0925 -0.2843
 1012MOL0     C36517   6.172  10.619  12.143  0.5843 -0.2286  0.5401
 1012MOL0     C36518   6.043  10.570  12.096 -0.5977 -0.5886 -0.3254
 1012MOL0     C36519   5.928  10.624  12.154  0.2745  0.0842 -0.0738
 1012MOL0     C36520   5.920  10.729  12.242 -0.3339 -0.4646 -1.2153
 1012MOL0     O36521   5.800  10.787  12.281 -0.2212  0.3684 -0.4030
 1012MOL0     C36522   5.704  10.688  12.336 -0.5111  0.4193  1.0148
 1012MOL0     C36523   5.594  10.769  12.395  0.5074 -0.0838 -0.3616
 1012MOL0     C36524   5.497  10.675  12.468 -0.4645 -0.3522  0.6061
 1012MOL0     C36525   5.390  10.747  12.545  0.6026 -0.7212 -0.0088
 1012MOL0     C36526   5.252  10.678  12.564  0.7208  0.6766 -0.1272
 1012MOL0     C36527   5.179  10.718  12.693 -0.3511  0.0184 -0.4621
 1012MOL0     C36528   5.041  10.654  12.715  0.6910 -0.1850 -0.3308
 1012MOL0     C36529   4.970  10.723  12.827 -0.0965  0.0366  0.2642
 1012MOL0    Cl36530   4.801  10.680  12.820 -0.1447  0.5718  0.3794
 1012MOL0     C36531   6.049  10.777  12.289  0.0327  0.0238 -0.1427
 1012MOL0     C36532   6.167  10.717  12.243 -0.8198  0.0022  0.1044
 1012MOL0     O36533   6.359  10.758  11.997  0.0025  0.1112  0.2198
 1012MOL0     C36534   6.580  10.502  12.080  0.0803  0.6547 -0.1473
 1012MOL0     C36535   6.704  10.455  12.062  0.2323  0.9234 -0.1026
 1012MOL0     N36536   7.236  10.133  11.647 -0.7788  1.1048 -0.2547
 1012MOL0     N36537   7.302  10.042  11.584 -0.2497 -0.3976  0.4845
 1012MOL0     C36538   8.460   9.916  10.944  1.0677 -0.4092  0.2153
 1012MOL0     C36539   8.579   9.954  10.880  0.2699  0.2197  0.5303
 1012MOL0     C36540   8.918  10.067  10.634  0.1514 -0.4800  1.0586
 1012MOL0     C36541   8.914  10.207  10.592 -0.0887 -0.9240  0.4542
 1012MOL0     C36542   9.032  10.274  10.554 -0.7313  0.0977 -0.6106
 1012MOL0     C36543   9.154  10.200  10.546  0.2166  0.6860 -0.5796
 1012MOL0     O36544   9.252  10.275  10.498  0.1687  0.1229 -0.1089
 1012MOL0     C36545   9.390  10.220  10.488  0.3488 -0.0581 -0.5432
 1012MOL0     C36546   9.494  10.333  10.460  0.0092 -0.4193  0.1021
 1012MOL0     C36547   9.488  10.396  10.318 -0.4120 -0.0576  0.1702
 1012MOL0     C36548   9.392  10.515  10.317 -0.4162 -0.4474 -0.4293
 1012MOL0     C36549   9.369  10.561  10.177  0.6233 -0.0121 -0.2842
 1012MOL0     C36550   9.354  10.606  10.064  0.0885 -0.0638 -0.0862
 1012MOL0     C36551   9.158  10.067  10.576 -0.9838 -0.7538  0.0216
 1012MOL0     C36552   9.043  10.001  10.623 -0.3111  0.4651  0.0563
 1012MOL0     H36553   8.460  10.135  10.618 -0.3691 -1.7069 -0.9550
 1012MOL0     H36554   8.239  10.077  10.742 -0.6473 -2.0876  0.9734
 1012MOL0     H36555   8.254   9.753  11.033 -1.5054 -1.0223  1.6492
 1012MOL0     H36556   8.262   9.874  11.160 -0.5572 -1.7351  1.5823
 1012MOL0     H36557   8.006   9.818  11.004  1.7548 -0.1910  0.1170
 1012MOL0     H36558   8.062   9.704  11.127  0.3028 -1.4529 -3.3238
 1012MOL0     H36559   8.076   9.886  11.289  2.5509  1.9104 -1.2904
 1012MOL0     H36560   8.019  10.001  11.176  1.0770 -0.8410 -2.2276
 1012MOL0     H36561   7.805   9.855  11.136  1.3132  1.8474 -0.9854
 1012MOL0     H36562   7.856   9.754  11.267  2.0467  0.8069  0.0735
 1012MOL0     H36563   7.830  10.048  11.290  3.1534  0.1170  3.0986
 1012MOL0     H36564   7.674   9.945  11.285 -0.0831  0.7914  1.4670
 1012MOL0     H36565   7.733   9.836  11.480 -2.5377  1.6865  2.3542
 1012MOL0     H36566   7.873   9.952  11.508 -2.3489  5.0064  3.3493
 1012MOL0     H36567   7.721  10.059  11.635  1.3758 -1.4859 -0.2587
 1012MOL0     H36568   7.676  10.128  11.478 -3.6148 -1.0663 -2.9868
 1012MOL0     H36569   7.552   9.891  11.615  2.3576  0.1789  0.5826
 1012MOL0     H36570   7.518   9.922  11.455  0.1941  0.8179  0.1605
 1012MOL0     H36571   7.546  10.221  11.720 -0.1688 -0.3004  1.3263
 1012MOL0     H36572   7.368  10.338  11.874 -1.4562 -0.9867  1.9537
 1012MOL0     H36573   7.293  10.427  11.743  3.6306 -0.3846 -0.2873
 1012MOL0     H36574   7.133  10.202  11.881 -1.4898  0.8224  1.6123
 1012MOL0     H36575   7.082  10.338  11.766 -0.5258  0.0726  1.1862
 1012MOL0     H36576   7.135  10.501  11.932 -1.1195 -1.2891 -0.8093
 1012MOL0     H36577   7.204  10.377  12.037 -0.7539  1.2494  1.5936
 1012MOL0     H36578   6.986  10.501  12.079  1.2559  0.4340 -1.0127
 1012MOL0     H36579   6.961  10.327  12.091  0.8335 -0.7714  0.4199
 1012MOL0     H36580   6.718  10.528  11.728  0.4276 -0.5255 -0.1447
 1012MOL0     H36581   6.369  10.624  11.776  0.5521  1.9632  0.0520
 1012MOL0     H36582   6.527  10.702  11.708  0.8884 -1.2287 -0.9585
 1012MOL0     H36583   6.470  10.545  11.661 -0.4272  0.3632 -1.1738
 1012MOL0     H36584   6.032  10.490  12.024 -0.1840  0.4840 -1.6273
 1012MOL0     H36585   5.831  10.591  12.117  0.4599 -0.2280 -0.2870
 1012MOL0     H36586   5.674  10.620  12.256  3.2111  0.0168 -0.2258
 1012MOL0     H36587   5.753  10.633  12.416  3.7321 -3.2039 -3.4258
 1012MOL0     H36588   5.626  10.848  12.464  2.5660 -1.6521  0.5878
 1012MOL0     H36589   5.544  10.821  12.313  2.0188  0.0766 -1.2127
 1012MOL0     H36590   5.550  10.606  12.534 -0.1774 -1.9645 -1.1975
 1012MOL0     H36591   5.464  10.608  12.387  2.6729  0.3533 -1.4171
 1012MOL0     H36592   5.425  10.758  12.648  1.1580  0.2153 -0.2882
 1012MOL0     H36593   5.377  10.849  12.507 -1.7578  0.5659  3.6514
 1012MOL0     H36594   5.260  10.569  12.568  0.7230  0.7098  1.2909
 1012MOL0     H36595   5.191  10.693  12.474  0.9512 -0.6210 -0.5143
 1012MOL0     H36596   5.240  10.676  12.774 -1.4383  0.4376  0.6041
 1012MOL0     H36597   5.179  10.827  12.705 -2.2877 -0.0719  0.7357
 1012MOL0     H36598   5.065  10.549  12.732  1.4252  0.1814  1.1103
 1012MOL0     H36599   4.987  10.663  12.621  1.0417 -1.2317 -0.6446
 1012MOL0     H36600   4.971  10.832  12.814  2.8619 -0.1424 -2.3761
 1012MOL0     H36601   5.019  10.701  12.923 -0.7234  0.2093  0.6258
 1012MOL0     H36602   6.052  10.866  12.351 -0.8431 -0.2868  0.3513
 1012MOL0     H36603   6.267  10.729  12.284 -0.3872 -5.6836  1.6096
 1012MOL0     H36604   6.551  10.498  12.184 -1.2870 -3.0675 -0.5101
 1012MOL0     H36605   6.758  10.406  12.143 -0.6257 -1.3999 -0.8451
 1012MOL0     H36606   8.459   9.850  11.030  1.6837 -1.9269 -0.8964
 1012MOL0     H36607   8.663   9.903  10.927  0.6058 -0.7391 -1.0444
 1012MOL0     H36608   8.825  10.267  10.610 -0.4134 -1.3175  0.2010
 1012MOL0     H36609   9.045  10.379  10.532 -0.9791  0.5361  1.1341
 1012MOL0     H36610   9.426  10.176  10.581 -0.0800  0.9662  0.1326
 1012MOL0     H36611   9.395  10.136  10.419 -1.3331 -1.8174  1.3311
 1012MOL0     H36612   9.585  10.273  10.476 -1.7634 -3.2649  0.2529
 1012MOL0     H36613   9.502  10.404  10.543 -0.1329  0.2421 -0.4477
 1012MOL0     H36614   9.458  10.320  10.246  1.0366  0.4181 -0.9839
 1012MOL0     H36615   9.591  10.423  10.294 -0.5147  0.8594  0.7158
 1012MOL0     H36616   9.427  10.593  10.386 -0.9193 -0.3539 -0.2770
 1012MOL0     H36617   9.291  10.490  10.351 -0.9129  0.9232 -0.8153
 1012MOL0     H36618   9.358  10.654   9.968  3.3940  0.5463  0.2344
 1012MOL0     H36619   9.251  10.013  10.563  0.4924  1.8515 -1.1306
 1012MOL0     H36620   9.051   9.896  10.651 -1.0219  0.3388 -0.1956
 1013MOL0     O36621   4.755   3.985   4.546  0.3332  0.6500  0.2060
 1013MOL0     C36622   4.758   4.088   4.613 -0.4492 -0.2244  0.0279
 1013MOL0     O36623   4.646   4.162   4.647 -0.3596  0.1451 -0.1432
 1013MOL0     C36624   4.528   4.134   4.584 -0.2541 -0.4653  0.4987
 1013MOL0     C36625   4.493   4.235   4.496 -0.2647 -0.0298  0.2076
 1013MOL0     C36626   4.377   4.226   4.413  0.7482  0.5350  0.0657
 1013MOL0     C36627   4.293   4.123   4.428  0.5666  0.6197  1.0435
 1013MOL0     O36628   4.171   4.102   4.357 -0.1223  0.2296  0.2723
 1013MOL0     C36629   4.134   4.193   4.244 -0.2824  0.0530 -0.1142
 1013MOL0     C36630   4.084   4.330   4.295  1.0203  0.6099  0.8604
 1013MOL0     C36631   3.986   4.301   4.416 -0.1221 -0.3591 -0.5686
 1013MOL0     C36632   3.902   4.426   4.438  0.6476 -0.3015  0.6961
 1013MOL0     C36633   3.818   4.423   4.566 -0.5802  0.2479  0.6920
 1013MOL0     C36634   3.732   4.297   4.591  1.0764 -0.0397 -0.0419
 1013MOL0     C36635   3.598   4.303   4.524  0.2298  0.1808  0.2747
 1013MOL0     C36636   3.512   4.191   4.575  0.1167 -1.0361  0.1927
 1013MOL0     N36637   3.386   4.174   4.493  0.2586  0.6555 -0.4764
 1013MOL0     C36638   3.291   4.270   4.480 -0.4382 -0.6304  0.1719
 1013MOL0     C36639   3.211   4.212   4.386 -1.1592  0.0205  0.4043
 1013MOL0     C36640   3.082   4.266   4.329  0.2559 -0.0255  0.3202
 1013MOL0     C36641   2.971   4.203   4.403  0.1537  0.6895 -0.1710
 1013MOL0     C36642   2.840   4.245   4.350  0.7560 -1.1636  0.8105
 1013MOL0     C36643   2.790   4.127   4.263  0.2956 -0.2631  0.7781
 1013MOL0     O36644   2.673   4.175   4.186 -0.5213  1.1724 -0.5867
 1013MOL0     C36645   2.552   4.149   4.243 -0.2620  0.5966 -0.2620
 1013MOL0     C36646   2.448   4.152   4.160 -0.4138  0.1611  1.4150
 1013MOL0     C36647   2.317   4.135   4.203 -0.2444 -0.3974  0.2332
 1013MOL0     C36648   2.208   4.127   4.095  0.6973  0.1114  0.0489
 1013MOL0     C36649   2.293   4.097   4.338 -0.2139 -0.4629  0.6349
 1013MOL0     C36650   2.155   4.073   4.399  0.2593 -0.4422  0.9608
 1013MOL0     O36651   2.041   4.115   4.334 -0.2103  0.0663  0.7871
 1013MOL0     C36652   1.916   4.083   4.385 -0.3042 -0.4856 -0.7626
 1013MOL0     C36653   1.840   3.989   4.326 -0.7354  0.1014 -0.9635
 1013MOL0     C36654   1.720   3.947   4.380  0.3251 -0.1100  0.9328
 1013MOL0     C36655   1.677   4.006   4.506  0.8761  0.2607  0.1147
 1013MOL0     O36656   1.569   3.960   4.567 -0.0926  0.2607 -0.3072
 1013MOL0     C36657   1.453   3.920   4.495  0.5099  0.7396  0.9487
 1013MOL0     C36658   1.326   3.996   4.538  0.2243 -0.9681  0.4103
 1013MOL0     C36659   1.292   3.991   4.692 -0.6783  0.5253  0.9229
 1013MOL0     C36660   1.232   3.854   4.725  0.1167  0.0075 -0.3600
 1013MOL0     C36661   1.181   3.859   4.871  0.2244 -0.4767  0.3417
 1013MOL0     C36662   1.027   3.899   4.886 -0.2502 -0.7642 -0.3087
 1013MOL0     C36663   0.962   3.848   5.017 -0.1111  0.0063  0.5654
 1013MOL0     C36664   0.814   3.872   5.011  0.2540  0.0688  0.4648
 1013MOL0    Cl36665   0.756   3.828   5.178  0.2995 -0.1740 -0.2985
 1013MOL0     C36666   1.743   4.109   4.560 -1.2151 -0.0108  0.5056
 1013MOL0     C36667   1.867   4.149   4.503 -0.6887 -0.3286 -0.7392
 1013MOL0     O36668   2.162   4.028   4.512  0.3999 -0.2446 -0.4513
 1013MOL0     C36669   2.403   4.087   4.421 -0.2447  0.1906 -0.1298
 1013MOL0     C36670   2.537   4.113   4.383  0.2924 -0.2498 -0.6991
 1013MOL0     N36671   3.250   4.087   4.349  0.0490  0.0102 -0.2709
 1013MOL0     N36672   3.355   4.062   4.418  0.1967 -0.3627  0.3371
 1013MOL0     C36673   4.330   4.020   4.522 -0.5273 -0.3327  0.2798
 1013MOL0     C36674   4.443   4.024   4.598 -0.3490 -0.3150 -0.1700
 1013MOL0     C36675   4.892   4.149   4.638 -0.1549 -0.4178  0.8278
 1013MOL0     C36676   5.008   4.091   4.588 -0.1195 -0.1866 -0.7811
 1013MOL0     C36677   5.136   4.140   4.613 -0.0805 -0.3679 -1.0610
 1013MOL0     C36678   5.147   4.251   4.693  0.8327  0.5073  0.4158
 1013MOL0     O36679   5.261   4.326   4.713 -0.4416 -0.0523 -0.3474
 1013MOL0     C36680   5.354   4.249   4.787  0.3895 -0.0688 -0.4821
 1013MOL0     C36681   5.472   4.331   4.836 -0.6542  0.4685  0.3636
 1013MOL0     C36682   5.428   4.441   4.934 -0.3144  0.0830  0.0962
 1013MOL0     C36683   5.527   4.546   4.977  0.4714  0.0156  0.8423
 1013MOL0     C36684   5.641   4.498   5.053  0.1112 -0.6362 -0.2352
 1013MOL0     C36685   5.722   4.459   5.131 -0.7111  0.2610  0.2381
 1013MOL0     C36686   5.033   4.312   4.753 -0.5993 -0.0982 -1.2945
 1013MOL0     C36687   4.909   4.265   4.715 -0.2552  0.8777 -0.0165
 1013MOL0     H36688   4.558   4.322   4.493 -0.3817  0.3106  3.4330
 1013MOL0     H36689   4.365   4.308   4.343  2.3807 -1.7273 -3.1334
 1013MOL0     H36690   4.221   4.215   4.182  0.5247 -0.2658  0.8685
 1013MOL0     H36691   4.046   4.153   4.194 -1.7198 -0.4269  2.5780
 1013MOL0     H36692   4.171   4.393   4.312  2.2663 -0.8118 -0.0333
 1013MOL0     H36693   4.025   4.384   4.220  0.2688 -0.3751  0.7166
 1013MOL0     H36694   3.919   4.223   4.377  0.9834  0.0471 -3.5347
 1013MOL0     H36695   4.045   4.274   4.504 -2.2934 -0.9237  0.8033
 1013MOL0     H36696   3.965   4.515   4.445  0.9730 -0.3180 -1.3433
 1013MOL0     H36697   3.832   4.441   4.355 -0.0872  0.2491  1.3967
 1013MOL0     H36698   3.882   4.426   4.654 -1.3375  0.5788  1.2448
 1013MOL0     H36699   3.754   4.510   4.579  0.4344  0.8042  2.2607
 1013MOL0     H36700   3.786   4.211   4.550  2.0430 -0.4686  2.0180
 1013MOL0     H36701   3.716   4.292   4.699 -1.5230  3.5168 -0.0827
 1013MOL0     H36702   3.560   4.399   4.560  0.0224  0.5086 -0.7861
 1013MOL0     H36703   3.611   4.313   4.416 -0.8166  2.2043  0.2844
 1013MOL0     H36704   3.482   4.228   4.674  0.2396  1.1668 -0.5263
 1013MOL0     H36705   3.570   4.099   4.569  0.9947 -0.5052  0.3567
 1013MOL0     H36706   3.271   4.362   4.534  1.5779  0.5319 -0.9158
 1013MOL0     H36707   3.082   4.375   4.328 -1.7639  0.0133 -0.5186
 1013MOL0     H36708   3.084   4.222   4.229 -0.7286 -0.6305  0.5477
 1013MOL0     H36709   2.975   4.236   4.508  1.8135  1.4841 -0.4497
 1013MOL0     H36710   2.981   4.094   4.399  2.5065  0.8977 -3.0261
 1013MOL0     H36711   2.858   4.333   4.288  0.5979 -0.7143  1.3927
 1013MOL0     H36712   2.765   4.280   4.421 -2.0342 -0.8078 -2.0516
 1013MOL0     H36713   2.774   4.035   4.321  0.4417 -1.3512 -0.8487
 1013MOL0     H36714   2.861   4.111   4.181  1.7741  4.7880  0.7592
 1013MOL0     H36715   2.469   4.168   4.055  1.9806 -2.1414  1.4375
 1013MOL0     H36716   2.160   4.028   4.100 -0.3760  0.5997 -0.2744
 1013MOL0     H36717   2.134   4.206   4.108  1.4972  0.9446 -0.3917
 1013MOL0     H36718   2.237   4.153   3.993 -0.1481  0.5272 -0.0958
 1013MOL0     H36719   1.884   3.946   4.237  0.5705 -0.1857 -0.2112
 1013MOL0     H36720   1.680   3.859   4.332  2.2673  0.6615 -2.4050
 1013MOL0     H36721   1.461   3.932   4.386 -3.2624 -3.2372 -0.0531
 1013MOL0     H36722   1.437   3.812   4.503  0.6088  0.7438  1.2235
 1013MOL0     H36723   1.346   4.102   4.518  0.5364 -1.2942 -1.1130
 1013MOL0     H36724   1.238   3.981   4.475  0.1575  1.1262 -0.0604
 1013MOL0     H36725   1.227   4.075   4.720 -0.4600  0.6574  1.0435
 1013MOL0     H36726   1.388   4.008   4.742  1.3250  1.3729 -2.8352
 1013MOL0     H36727   1.155   3.829   4.652  0.7524  2.6762 -2.0853
 1013MOL0     H36728   1.305   3.772   4.726  0.1741  0.0508  0.8252
 1013MOL0     H36729   1.238   3.925   4.937  0.6674 -0.7320  0.2189
 1013MOL0     H36730   1.185   3.758   4.913 -2.4607 -0.7085  0.1887
 1013MOL0     H36731   1.021   4.008   4.887  1.3707 -0.6273 -1.2430
 1013MOL0     H36732   0.975   3.857   4.799 -0.2658  0.5816 -0.9834
 1013MOL0     H36733   1.008   3.905   5.098 -0.4987  0.6822  0.3202
 1013MOL0     H36734   0.981   3.742   5.036  1.3536  0.2227  0.4736
 1013MOL0     H36735   0.778   3.804   4.934 -1.4581  2.2924 -0.8472
 1013MOL0     H36736   0.795   3.974   4.977 -0.6306  0.3482  1.7215
 1013MOL0     H36737   1.711   4.163   4.649  1.0156  3.6001 -0.6735
 1013MOL0     H36738   1.936   4.220   4.547 -1.3978 -0.2067  0.1942
 1013MOL0     H36739   2.402   4.044   4.520  0.7675  0.1105 -0.1430
 1013MOL0     H36740   2.614   4.086   4.454 -1.8040 -0.0520  1.8200
 1013MOL0     H36741   4.247   3.957   4.551 -2.2211  1.6492  0.0228
 1013MOL0     H36742   4.455   3.938   4.664  1.4986  1.1090  1.4885
 1013MOL0     H36743   5.003   3.990   4.549  0.2333 -0.3744 -0.3482
 1013MOL0     H36744   5.226   4.091   4.577  0.9225 -0.9097  1.8825
 1013MOL0     H36745   5.305   4.202   4.873 -0.7724  1.1773 -0.4265
 1013MOL0     H36746   5.386   4.163   4.727 -0.3765  1.6539 -3.5979
 1013MOL0     H36747   5.528   4.376   4.753 -0.4509 -0.7683 -0.1876
 1013MOL0     H36748   5.557   4.274   4.875 -0.3208 -0.7057 -1.9363
 1013MOL0     H36749   5.388   4.389   5.021  0.2940 -0.1975  0.2128
 1013MOL0     H36750   5.353   4.508   4.891  0.9489  2.1841  1.0474
 1013MOL0     H36751   5.472   4.616   5.040  0.1505 -0.9394  1.6473
 1013MOL0     H36752   5.552   4.611   4.893 -2.5287  2.1415  1.4235
 1013MOL0     H36753   5.796   4.419   5.197 -1.2243 -1.8348 -0.3593
 1013MOL0     H36754   5.036   4.388   4.830 -4.2012 -1.3705  0.3580
 1013MOL0     H36755   4.823   4.307   4.766 -0.6092 -2.3811  2.3878
 1014MOL0     O36756   7.634   1.407   0.220 -0.2239 -0.0065 -0.7259
 1014MOL0     C36757   7.729   1.489   0.200 -0.1636  0.3171 -0.0186
 1014MOL0     O36758   7.709   1.614   0.140 -0.8005  0.3140  0.5964
 1014MOL0     C36759   7.579   1.655   0.104 -0.5176  0.0276  0.4416
 1014MOL0     C36760   7.582   1.752   0.002  0.3138  0.1233  0.4100
 1014MOL0     C36761   7.466   1.805  -0.045 -0.1279 -0.3447 -0.0640
 1014MOL0     C36762   7.341   1.770   0.008 -0.2377  0.5465  0.7315
 1014MOL0     O36763   7.231   1.836  -0.044  0.1923 -0.0640 -0.2725
 1014MOL0     C36764   7.110   1.762  -0.028 -0.1719 -0.1089  0.7931
 1014MOL0     C36765   7.014   1.806  -0.137 -0.7460 -0.3996  0.7398
 1014MOL0     C36766   6.896   1.720  -0.148  1.2014  1.0824 -0.1793
 1014MOL0     C36767   6.795   1.765  -0.241 -0.0231  0.1230  0.9300
 1014MOL0     C36768   6.668   1.673  -0.252  0.4666  1.8867 -0.2685
 1014MOL0     C36769   6.562   1.711  -0.361  0.7258  0.1077  0.8441
 1014MOL0     C36770   6.498   1.852  -0.367  0.6106 -0.1330  0.3593
 1014MOL0     C36771   6.395   1.857  -0.253 -0.1613  1.3247 -0.4065
 1014MOL0     N36772   6.268   1.789  -0.290  0.1529  0.0162 -0.5326
 1014MOL0     C36773   6.179   1.809  -0.397 -0.1909 -1.1386 -0.3262
 1014MOL0     C36774   6.088   1.708  -0.395 -0.2874  0.2555  0.2567
 1014MOL0     C36775   5.971   1.686  -0.488 -0.1077  0.4450 -0.2800
 1014MOL0     C36776   5.829   1.703  -0.427  0.1008  1.1663  0.4512
 1014MOL0     C36777   5.779   1.571  -0.364  0.6700 -0.9728 -0.0414
 1014MOL0     C36778   5.740   1.588  -0.219  0.1032  0.2700 -0.2062
 1014MOL0     O36779   5.623   1.669  -0.191 -0.3920  0.1993  0.7598
 1014MOL0     C36780   5.503   1.608  -0.170  0.0905  0.1457  0.1961
 1014MOL0     C36781   5.462   1.481  -0.206  0.9923  0.9294  0.0496
 1014MOL0     C36782   5.329   1.426  -0.183 -0.6336 -0.7323 -0.6262
 1014MOL0     C36783   5.306   1.290  -0.255  0.9796  0.3310  0.4707
 1014MOL0     C36784   5.234   1.501  -0.110 -0.6960  0.0761  0.3427
 1014MOL0     C36785   5.092   1.464  -0.087  0.4685  0.7118 -0.1224
 1014MOL0     O36786   5.031   1.370  -0.163 -1.0468  0.5064 -0.3786
 1014MOL0     C36787   4.896   1.371  -0.170 -0.3632  0.8496 -0.6895
 1014MOL0     C36788   4.826   1.252  -0.180 -0.5806 -0.0701 -0.0506
 1014MOL0     C36789   4.689   1.248  -0.165  0.5727 -0.1274 -0.1709
 1014MOL0     C36790   4.611   1.361  -0.163 -0.3440 -0.1225 -0.0476
 1014MOL0     O36791   4.478   1.349  -0.165  0.2965 -0.0487 -0.0147
 1014MOL0     C36792   4.389   1.443  -0.099 -0.1449 -0.0698 -0.6095
 1014MOL0     C36793   4.250   1.383  -0.102  0.7998 -0.1795  0.8431
 1014MOL0     C36794   4.210   1.354  -0.248  0.1383  0.1309  0.0284
 1014MOL0     C36795   4.062   1.346  -0.262  0.7518 -0.4561  0.4932
 1014MOL0     C36796   4.033   1.283  -0.401  0.3745  0.7061 -0.3155
 1014MOL0     C36797   3.885   1.309  -0.450 -0.7575 -0.2948  0.1977
 1014MOL0     C36798   3.799   1.212  -0.373 -0.4804  0.5434 -0.3368
 1014MOL0     C36799   3.660   1.204  -0.438 -0.0008 -0.1664  0.0265
 1014MOL0    Cl36800   3.574   1.359  -0.444  0.2298  0.0503 -0.2214
 1014MOL0     C36801   4.678   1.480  -0.176 -0.3177  0.5624 -0.1512
 1014MOL0     C36802   4.819   1.490  -0.169 -0.2265  0.3327 -0.3679
 1014MOL0     O36803   5.036   1.529   0.003  0.1338 -0.0693  0.2186
 1014MOL0     C36804   5.282   1.630  -0.065 -0.8519 -0.3208 -0.0161
 1014MOL0     C36805   5.408   1.679  -0.095 -0.5084 -0.2040  0.6323
 1014MOL0     N36806   6.117   1.635  -0.286 -0.0446  0.5813 -0.1030
 1014MOL0     N36807   6.217   1.681  -0.224 -0.0338 -0.3886 -0.1613
 1014MOL0     C36808   7.343   1.684   0.119  0.0411 -0.2969 -0.9026
 1014MOL0     C36809   7.461   1.621   0.160 -0.5718 -0.2533 -0.2711
 1014MOL0     C36810   7.868   1.445   0.224  0.3983 -0.0568 -0.0894
 1014MOL0     C36811   7.978   1.518   0.173 -0.0833  0.4050 -0.1017
 1014MOL0     C36812   8.107   1.471   0.174 -0.7922  0.5882 -0.7751
 1014MOL0     C36813   8.140   1.342   0.225  0.8289  0.3090  0.3415
 1014MOL0     O36814   8.266   1.292   0.232  0.5289 -0.2336 -0.6605
 1014MOL0     C36815   8.358   1.309   0.123 -0.0633  0.9322  0.6662
 1014MOL0     C36816   8.416   1.171   0.087 -0.3109 -0.4144 -0.8250
 1014MOL0     C36817   8.500   1.159  -0.033  0.0779 -0.2225  0.8605
 1014MOL0     C36818   8.583   1.021  -0.042 -0.4026  0.0980 -0.8353
 1014MOL0     C36819   8.523   0.906  -0.108 -0.3382 -0.3132 -0.7472
 1014MOL0     C36820   8.462   0.818  -0.173 -0.8983 -0.0981 -0.6076
 1014MOL0     C36821   8.025   1.262   0.273  0.3633  0.3250  0.8730
 1014MOL0     C36822   7.893   1.306   0.267  0.2183 -0.6790 -0.3355
 1014MOL0     H36823   7.676   1.794  -0.032 -0.4033  0.6826 -0.9598
 1014MOL0     H36824   7.446   1.881  -0.120  1.7129 -1.2274 -1.5248
 1014MOL0     H36825   7.123   1.655  -0.042  2.0665  0.3120 -0.9756
 1014MOL0     H36826   7.071   1.792   0.070  0.5818  2.5201  0.3643
 1014MOL0     H36827   6.993   1.912  -0.116  0.8412  0.6460 -2.3550
 1014MOL0     H36828   7.066   1.806  -0.233 -1.6637 -0.1823  0.2322
 1014MOL0     H36829   6.937   1.620  -0.162  0.0580  0.2532  1.9057
 1014MOL0     H36830   6.849   1.718  -0.049  1.7525 -4.4578  0.2780
 1014MOL0     H36831   6.770   1.867  -0.208  2.7368  1.0017  0.5782
 1014MOL0     H36832   6.841   1.778  -0.339 -1.2239  0.0447  0.3374
 1014MOL0     H36833   6.705   1.571  -0.267 -2.3451  0.5684  0.9287
 1014MOL0     H36834   6.611   1.666  -0.159 -3.5344  1.0328 -2.5076
 1014MOL0     H36835   6.612   1.695  -0.456  0.0070  0.7485  0.3422
 1014MOL0     H36836   6.486   1.632  -0.354  1.8527 -0.9438  1.5818
 1014MOL0     H36837   6.579   1.925  -0.354  0.4293  0.8321 -2.9886
 1014MOL0     H36838   6.445   1.871  -0.461  0.4051  1.4547  0.7705
 1014MOL0     H36839   6.363   1.961  -0.253  0.6093  1.5679 -0.9290
 1014MOL0     H36840   6.434   1.818  -0.158 -1.0003  0.1517 -0.5233
 1014MOL0     H36841   6.194   1.894  -0.463  0.3461 -2.3192 -1.7937
 1014MOL0     H36842   5.971   1.753  -0.574 -2.0982  1.0027  0.1137
 1014MOL0     H36843   5.974   1.586  -0.532 -1.1594  1.0261 -1.7284
 1014MOL0     H36844   5.759   1.735  -0.506  0.7544  0.8328 -0.2755
 1014MOL0     H36845   5.842   1.777  -0.347 -0.9554  1.1956  0.6131
 1014MOL0     H36846   5.852   1.490  -0.362  1.4271 -0.3092  1.8726
 1014MOL0     H36847   5.696   1.532  -0.423  0.8725 -2.0833  0.3793
 1014MOL0     H36848   5.824   1.637  -0.169  1.2295  2.3324 -3.6914
 1014MOL0     H36849   5.727   1.490  -0.173  0.6830 -0.6351 -1.8852
 1014MOL0     H36850   5.547   1.422  -0.239 -0.1914 -2.2415  2.2121
 1014MOL0     H36851   5.233   1.283  -0.336  0.6444  0.0423  0.7988
 1014MOL0     H36852   5.401   1.263  -0.303  0.7642 -2.0318  1.2696
 1014MOL0     H36853   5.283   1.213  -0.181 -0.7172 -1.0072 -1.3472
 1014MOL0     H36854   4.882   1.159  -0.186 -2.8154 -1.4192 -1.6816
 1014MOL0     H36855   4.653   1.145  -0.158  0.3742 -0.1090 -0.8443
 1014MOL0     H36856   4.423   1.447   0.005  0.6853  0.2629 -0.8912
 1014MOL0     H36857   4.389   1.540  -0.148 -0.2114  0.7797  0.9794
 1014MOL0     H36858   4.259   1.286  -0.051  0.7559 -0.4101  0.4107
 1014MOL0     H36859   4.180   1.448  -0.049 -0.1345  1.1895 -1.9165
 1014MOL0     H36860   4.253   1.256  -0.273 -0.3142 -0.5668  1.8476
 1014MOL0     H36861   4.253   1.430  -0.315 -0.2505  0.4652  0.1547
 1014MOL0     H36862   4.028   1.278  -0.183 -3.6284  0.0637 -0.6609
 1014MOL0     H36863   4.033   1.451  -0.256  0.1266 -0.6886  1.8233
 1014MOL0     H36864   4.055   1.176  -0.412 -1.5050  0.0324  1.6885
 1014MOL0     H36865   4.094   1.326  -0.481  2.2457  0.5937  0.9918
 1014MOL0     H36866   3.858   1.415  -0.451 -1.1042 -0.3679  0.9183
 1014MOL0     H36867   3.890   1.279  -0.555  0.7377  0.8458 -0.0950
 1014MOL0     H36868   3.794   1.250  -0.270  2.9763  0.5332 -0.0599
 1014MOL0     H36869   3.830   1.108  -0.375  0.0663  0.6945  0.0542
 1014MOL0     H36870   3.604   1.127  -0.384  2.6443 -1.3188  1.3056
 1014MOL0     H36871   3.686   1.166  -0.537 -0.9252 -1.2274  0.1757
 1014MOL0     H36872   4.628   1.576  -0.190 -0.5393  1.3027  4.3334
 1014MOL0     H36873   4.871   1.585  -0.174  1.2664 -0.4210  0.2316
 1014MOL0     H36874   5.214   1.694  -0.010 -0.0212  2.0858 -1.5965
 1014MOL0     H36875   5.424   1.781  -0.062  1.5661 -0.8785  1.8651
 1014MOL0     H36876   7.249   1.667   0.170  0.4512  1.1138  0.4139
 1014MOL0     H36877   7.457   1.557   0.247 -0.5889  0.5729  0.3483
 1014MOL0     H36878   7.971   1.615   0.125  2.2745  0.2183 -0.9557
 1014MOL0     H36879   8.189   1.538   0.152  0.5108 -0.8094 -0.4259
 1014MOL0     H36880   8.321   1.356   0.032  1.9161 -1.0083 -1.2624
 1014MOL0     H36881   8.433   1.381   0.158 -0.6284  1.2503  1.2480
 1014MOL0     H36882   8.340   1.094   0.071 -0.4554 -0.1437 -1.4344
 1014MOL0     H36883   8.465   1.143   0.181 -0.0431 -3.6471 -1.7962
 1014MOL0     H36884   8.571   1.242  -0.040  0.0497 -0.3139 -1.4920
 1014MOL0     H36885   8.433   1.170  -0.119 -1.9737  0.1041  2.4507
 1014MOL0     H36886   8.598   0.987   0.061 -3.9676 -0.0082 -0.2112
 1014MOL0     H36887   8.677   1.036  -0.096  1.1215  1.5319  1.9839
 1014MOL0     H36888   8.405   0.755  -0.238  0.5096 -2.9434  0.7536
 1014MOL0     H36889   8.042   1.160   0.306  2.8224  0.0769 -0.8785
 1014MOL0     H36890   7.804   1.247   0.286 -1.7284  1.4643 -2.1256
 1015MOL0     O36891   3.596  10.743   8.310  0.3450 -0.2029  0.1743
 1015MOL0     C36892   3.617  10.657   8.229 -0.1889 -1.2367 -0.0508
 1015MOL0     O36893   3.567  10.657   8.103 -0.2079  0.4427 -0.4680
 1015MOL0     C36894   3.494  10.757   8.058 -0.2092  0.1441  0.0097
 1015MOL0     C36895   3.565  10.846   7.974 -0.6020 -0.8409 -0.5223
 1015MOL0     C36896   3.491  10.948   7.913  0.2584  0.1680 -0.3097
 1015MOL0     C36897   3.353  10.953   7.931  0.4454  0.2355  0.2419
 1015MOL0     O36898   3.291  11.058   7.866  0.8600  0.0580  0.4703
 1015MOL0     C36899   3.153  11.092   7.896 -0.0939  1.0158 -0.0206
 1015MOL0     C36900   3.122  11.224   7.830  0.1167 -0.8768  0.8319
 1015MOL0     C36901   2.980  11.277   7.863 -0.2764  0.2418  0.3675
 1015MOL0     C36902   2.951  11.404   7.792  0.1656  0.4006  0.1634
 1015MOL0     C36903   2.812  11.449   7.821  0.6014  0.1198  0.1021
 1015MOL0     C36904   2.766  11.538   7.703 -0.4185 -0.0829 -0.3616
 1015MOL0     C36905   2.612  11.516   7.702  0.2390  0.3216  0.0831
 1015MOL0     C36906   2.542  11.621   7.619 -0.8659 -0.8320 -0.0463
 1015MOL0     N36907   2.405  11.579   7.591 -0.1511 -0.0437  0.0767
 1015MOL0     C36908   2.352  11.558   7.467  0.0877  0.0018  0.8232
 1015MOL0     C36909   2.216  11.559   7.484 -0.4818 -0.5959  0.2443
 1015MOL0     C36910   2.119  11.512   7.378  0.3384  0.0586  0.3196
 1015MOL0     C36911   2.010  11.415   7.429 -0.0407 -0.0196  1.2489
 1015MOL0     C36912   2.055  11.267   7.408  0.5967  0.0836 -0.4951
 1015MOL0     C36913   1.945  11.157   7.392 -0.2997  0.4954 -0.2545
 1015MOL0     O36914   1.828  11.197   7.467  0.6491 -0.1221 -0.4027
 1015MOL0     C36915   1.702  11.162   7.424  0.8062  0.5044 -0.1996
 1015MOL0     C36916   1.601  11.261   7.393  0.2231  0.2913 -0.2831
 1015MOL0     C36917   1.471  11.227   7.346  0.2970  0.5655  0.8343
 1015MOL0     C36918   1.387  11.347   7.303  0.5923  0.0235  0.8735
 1015MOL0     C36919   1.444  11.088   7.333  0.7507 -0.1991 -0.4241
 1015MOL0     C36920   1.311  11.039   7.294  1.4889  0.1512 -0.2641
 1015MOL0     O36921   1.298  10.903   7.250  0.2346  1.0645 -0.4304
 1015MOL0     C36922   1.173  10.856   7.227 -0.2337  1.0668 -0.2817
 1015MOL0     C36923   1.135  10.796   7.095 -0.0774 -0.4329 -0.6686
 1015MOL0     C36924   1.007  10.741   7.077 -0.7410  0.0714 -0.7379
 1015MOL0     C36925   0.926  10.734   7.191 -0.3658 -0.4884 -0.1969
 1015MOL0     O36926   0.806  10.663   7.190  0.0626  0.0557 -0.2625
 1015MOL0     C36927   0.751  10.608   7.063 -0.3364  0.1038 -0.1722
 1015MOL0     C36928   0.616  10.549   7.082  0.3322 -0.1803 -0.3268
 1015MOL0     C36929   0.504  10.648   7.112 -0.9115 -0.1737  0.9370
 1015MOL0     C36930   0.378  10.593   7.168 -0.9470  0.2908  0.0742
 1015MOL0     C36931   0.266  10.691   7.165  0.2265  0.1554 -0.1135
 1015MOL0     C36932   0.131  10.630   7.205  0.2562 -0.5034  0.2140
 1015MOL0     C36933   0.006  10.718   7.170  0.1837  0.2934 -0.2067
 1015MOL0     C36934   0.015  10.856   7.244  0.5495 -0.5261  0.4559
 1015MOL0    Cl36935  -0.145  10.932   7.231 -0.0263  0.1508 -0.0761
 1015MOL0     C36936   0.963  10.791   7.313  0.1435  0.3789  0.6354
 1015MOL0     C36937   1.082  10.849   7.337  0.6988  0.4386  0.4323
 1015MOL0     O36938   1.214  11.115   7.310  0.3675  0.0632  0.2894
 1015MOL0     C36939   1.542  10.993   7.369  0.0260  0.4961  0.4673
 1015MOL0     C36940   1.671  11.035   7.404 -0.0903  0.0649  0.7008
 1015MOL0     N36941   2.188  11.592   7.618 -0.2274  0.4592 -0.5239
 1015MOL0     N36942   2.301  11.603   7.680 -1.1586  0.2250 -0.4800
 1015MOL0     C36943   3.281  10.857   8.005  0.1967 -0.0543 -0.0043
 1015MOL0     C36944   3.358  10.763   8.073 -0.7706  0.0994 -0.1405
 1015MOL0     C36945   3.710  10.546   8.261  1.1443  0.6004  0.1617
 1015MOL0     C36946   3.773  10.558   8.388 -0.2119  0.2686  0.7126
 1015MOL0     C36947   3.878  10.471   8.412  0.9703 -0.5135 -0.4206
 1015MOL0     C36948   3.917  10.378   8.313  0.7833 -0.4969 -0.5832
 1015MOL0     O36949   4.027  10.288   8.317 -0.1186 -0.0642  0.3053
 1015MOL0     C36950   4.136  10.302   8.406 -0.1556  0.5852 -0.3049
 1015MOL0     C36951   4.166  10.162   8.461 -0.0591 -0.4698 -0.2479
 1015MOL0     C36952   4.239  10.162   8.594  0.5153 -0.2853  0.2182
 1015MOL0     C36953   4.390  10.185   8.594  0.1433  0.2886  0.2696
 1015MOL0     C36954   4.469  10.110   8.492 -0.3904 -0.4511  0.8433
 1015MOL0     C36955   4.542  10.039   8.423  0.2911 -0.8975  0.0517
 1015MOL0     C36956   3.838  10.356   8.200 -0.3335  0.2564 -0.2248
 1015MOL0     C36957   3.728  10.439   8.172  0.5825 -0.5480  0.0049
 1015MOL0     H36958   3.670  10.833   7.949 -0.6644  0.4989 -1.6042
 1015MOL0     H36959   3.533  11.017   7.840  0.9530  0.4883  0.3879
 1015MOL0     H36960   3.075  11.023   7.864  0.3590  0.4334  0.1217
 1015MOL0     H36961   3.132  11.108   8.002 -0.1665  0.4114  0.0599
 1015MOL0     H36962   3.199  11.299   7.849  1.3735 -1.1777 -2.3600
 1015MOL0     H36963   3.118  11.205   7.722 -0.5779  1.6306  0.3542
 1015MOL0     H36964   2.903  11.202   7.840 -0.4294  0.0658  1.3943
 1015MOL0     H36965   2.972  11.295   7.970 -2.1259 -0.9825  0.4868
 1015MOL0     H36966   3.035  11.471   7.813  2.0696 -1.1663 -2.0243
 1015MOL0     H36967   2.958  11.388   7.684  2.0650 -2.6685  0.6397
 1015MOL0     H36968   2.752  11.358   7.832  1.0225  0.1659  3.9820
 1015MOL0     H36969   2.808  11.500   7.917  1.5952  0.4451 -0.0106
 1015MOL0     H36970   2.791  11.642   7.723  2.2085 -0.8197  0.7009
 1015MOL0     H36971   2.813  11.523   7.605 -1.0821  1.2066 -0.8955
 1015MOL0     H36972   2.601  11.418   7.654  3.6559 -0.5369  0.7854
 1015MOL0     H36973   2.553  11.504   7.794 -1.5730  2.7113 -0.6623
 1015MOL0     H36974   2.597  11.634   7.525  0.8678  1.8557  1.1884
 1015MOL0     H36975   2.555  11.714   7.676 -1.5915 -0.2235 -0.8506
 1015MOL0     H36976   2.403  11.535   7.374  1.6778  0.2105  1.6101
 1015MOL0     H36977   2.069  11.601   7.338 -1.4424 -1.1302 -0.2261
 1015MOL0     H36978   2.181  11.462   7.303  1.0230 -0.5759  1.2895
 1015MOL0     H36979   1.915  11.431   7.379  0.3738  0.9140  0.7414
 1015MOL0     H36980   1.994  11.433   7.536 -2.4069  3.6044  0.4412
 1015MOL0     H36981   2.123  11.235   7.488 -0.1535 -2.1962 -0.6719
 1015MOL0     H36982   2.117  11.268   7.319 -1.6514 -0.2239 -2.1533
 1015MOL0     H36983   1.986  11.060   7.422  0.7626  0.5574 -1.4206
 1015MOL0     H36984   1.928  11.134   7.286 -0.9983 -2.7639  0.4340
 1015MOL0     H36985   1.634  11.363   7.411  0.0695 -0.0081  1.9977
 1015MOL0     H36986   1.444  11.430   7.262  0.3391  0.3003  1.0767
 1015MOL0     H36987   1.306  11.320   7.234 -2.4202  2.7264  3.0244
 1015MOL0     H36988   1.341  11.380   7.397 -1.2988 -0.6471  0.2472
 1015MOL0     H36989   1.213  10.795   7.019  0.1355 -0.6664 -0.4457
 1015MOL0     H36990   0.990  10.694   6.981  1.7050  1.0950 -1.7466
 1015MOL0     H36991   0.743  10.682   6.984  0.3040  0.1464 -0.2016
 1015MOL0     H36992   0.819  10.528   7.033 -1.6868 -0.9137 -0.6310
 1015MOL0     H36993   0.587  10.477   7.005  0.0795 -2.2516  1.6181
 1015MOL0     H36994   0.624  10.480   7.166 -1.4680 -3.5305 -2.6768
 1015MOL0     H36995   0.492  10.692   7.012  4.0582 -1.4391 -0.5054
 1015MOL0     H36996   0.531  10.729   7.181  1.1549  0.4428 -0.4873
 1015MOL0     H36997   0.356  10.500   7.114  1.0171  0.4885 -1.1558
 1015MOL0     H36998   0.395  10.553   7.269  0.2523 -1.2020 -0.6776
 1015MOL0     H36999   0.269  10.715   7.059 -2.6400 -0.0673 -0.3119
 1015MOL0     H37000   0.295  10.787   7.208  1.4185 -0.7212  1.1637
 1015MOL0     H37001   0.116  10.530   7.163 -1.2155 -0.0230 -0.4643
 1015MOL0     H37002   0.130  10.621   7.314  0.3459 -0.7456  0.1953
 1015MOL0     H37003  -0.085  10.668   7.204  0.4041  0.3432  0.4597
 1015MOL0     H37004  -0.007  10.735   7.062  2.0592  0.1213 -0.4978
 1015MOL0     H37005   0.086  10.919   7.189 -1.3854  0.6196 -0.8457
 1015MOL0     H37006   0.042  10.848   7.350 -1.1869 -0.1795  0.9492
 1015MOL0     H37007   0.886  10.793   7.390 -0.6790 -0.8391 -0.1294
 1015MOL0     H37008   1.101  10.897   7.432  0.3782  0.1354  0.6514
 1015MOL0     H37009   1.522  10.886   7.361 -1.5858  0.5951  2.2710
 1015MOL0     H37010   1.748  10.962   7.426  1.2765  1.4359  0.5556
 1015MOL0     H37011   3.174  10.868   8.015 -0.0635 -2.4168  0.3298
 1015MOL0     H37012   3.311  10.681   8.127  1.8957 -0.8497  0.9059
 1015MOL0     H37013   3.748  10.634   8.462 -0.3516 -0.1755  1.1266
 1015MOL0     H37014   3.920  10.488   8.510  0.1349  0.3893 -0.2100
 1015MOL0     H37015   4.226  10.336   8.354 -0.6605  1.2043 -0.8007
 1015MOL0     H37016   4.119  10.373   8.487  1.9136  2.0395 -1.0358
 1015MOL0     H37017   4.218  10.102   8.386  0.7710 -0.7432  0.5175
 1015MOL0     H37018   4.069  10.115   8.482 -0.8364  0.3930 -1.7581
 1015MOL0     H37019   4.214  10.068   8.644  0.7431  1.0891  3.1418
 1015MOL0     H37020   4.201  10.245   8.654 -0.2411  1.2642 -2.2642
 1015MOL0     H37021   4.426  10.164   8.695 -1.2072  3.4024  1.5143
 1015MOL0     H37022   4.397  10.292   8.570  0.3136  0.4181  0.8897
 1015MOL0     H37023   4.596   9.978   8.354  2.9956  0.5835  0.7360
 1015MOL0     H37024   3.870  10.280   8.130  1.6451  0.1711  0.6964
 1015MOL0     H37025   3.676  10.433   8.077 -0.2539  0.2685  0.3988
 1016MOL0     O37026   8.361   0.554   6.696 -0.3864  0.5270  0.0604
 1016MOL0     C37027   8.458   0.475   6.667  0.9245  0.2858  0.5573
 1016MOL0     O37028   8.446   0.353   6.612  0.6997  0.2393  0.0738
 1016MOL0     C37029   8.315   0.307   6.606  0.1751 -0.1487  0.2757
 1016MOL0     C37030   8.246   0.324   6.485 -0.0468  0.7697 -0.1344
 1016MOL0     C37031   8.110   0.286   6.485  1.1347  0.1903 -0.1213
 1016MOL0     C37032   8.039   0.244   6.594  0.4340  0.4434 -0.5509
 1016MOL0     O37033   7.916   0.187   6.583 -0.8280  0.0645  0.0955
 1016MOL0     C37034   7.839   0.171   6.700 -0.0678 -1.2868 -0.6622
 1016MOL0     C37035   7.690   0.158   6.660 -0.4286  0.4990 -0.1948
 1016MOL0     C37036   7.667   0.021   6.603 -0.4072  0.9116 -0.2626
 1016MOL0     C37037   7.526   0.012   6.532  0.1313  0.0692 -0.3262
 1016MOL0     C37038   7.512  -0.118   6.453  0.1633 -0.6485  0.7975
 1016MOL0     C37039   7.394  -0.111   6.371  0.3886  0.0060  0.3722
 1016MOL0     C37040   7.378  -0.234   6.283 -0.0326 -0.6641 -0.0534
 1016MOL0     C37041   7.339  -0.357   6.362  0.3270 -0.2163 -0.0840
 1016MOL0     N37042   7.297  -0.470   6.273 -0.1737 -0.0311  0.4857
 1016MOL0     C37043   7.171  -0.484   6.230 -0.6538 -0.7184  0.3867
 1016MOL0     C37044   7.162  -0.601   6.167 -1.0409  0.7635  0.3702
 1016MOL0     C37045   7.049  -0.658   6.088 -0.6492 -1.0970  0.3612
 1016MOL0     C37046   6.947  -0.686   6.193  0.1076 -0.8358  0.2023
 1016MOL0     C37047   6.822  -0.769   6.136  0.3824  0.2034  0.1025
 1016MOL0     C37048   6.708  -0.763   6.234  0.7896 -0.0366 -0.5384
 1016MOL0     O37049   6.654  -0.631   6.208 -0.3033  0.2487  0.3115
 1016MOL0     C37050   6.544  -0.595   6.280 -0.2204 -0.1548  0.3258
 1016MOL0     C37051   6.471  -0.684   6.366 -0.1615 -0.6065  0.2118
 1016MOL0     C37052   6.352  -0.649   6.424  0.2262 -0.1867 -0.6225
 1016MOL0     C37053   6.281  -0.764   6.505 -0.1351  0.8057  1.0484
 1016MOL0     C37054   6.292  -0.520   6.393 -0.4131 -0.0594 -0.0351
 1016MOL0     C37055   6.148  -0.492   6.429 -0.0310 -0.7471 -0.5212
 1016MOL0     O37056   6.081  -0.396   6.353  0.4881  0.7469 -0.0963
 1016MOL0     C37057   5.960  -0.355   6.399  0.3016  0.3249 -0.7176
 1016MOL0     C37058   5.856  -0.368   6.309 -0.5005 -0.1193 -0.2508
 1016MOL0     C37059   5.747  -0.281   6.328 -0.1171  0.3721 -0.2413
 1016MOL0     C37060   5.723  -0.209   6.445 -0.5887 -0.5695 -0.6590
 1016MOL0     O37061   5.603  -0.138   6.474 -0.6550  0.2397 -0.4353
 1016MOL0     C37062   5.488  -0.185   6.417  0.3008 -0.6109  0.0416
 1016MOL0     C37063   5.458  -0.082   6.313 -0.4086  0.7543 -0.7165
 1016MOL0     C37064   5.408   0.051   6.367  0.3141 -0.5452  0.5368
 1016MOL0     C37065   5.279   0.102   6.301 -0.1522 -0.0673 -0.2468
 1016MOL0     C37066   5.304   0.145   6.158 -0.3149 -0.0288  0.6678
 1016MOL0     C37067   5.184   0.202   6.081  0.2088 -0.6680  0.8205
 1016MOL0     C37068   5.221   0.247   5.943  0.0402  0.0299  0.2002
 1016MOL0     C37069   5.277   0.139   5.851  0.2585 -0.2002 -0.4444
 1016MOL0    Cl37070   5.158  -0.003   5.837  0.0639 -0.5313  0.3688
 1016MOL0     C37071   5.817  -0.220   6.547 -0.1524 -0.3613  0.0970
 1016MOL0     C37072   5.937  -0.292   6.522 -0.1912 -0.3317  1.0414
 1016MOL0     O37073   6.097  -0.554   6.523  0.0345  0.1416  0.1098
 1016MOL0     C37074   6.366  -0.435   6.304  0.7211  0.6267  0.8648
 1016MOL0     C37075   6.488  -0.470   6.246 -0.1857 -0.3189  0.2247
 1016MOL0     N37076   7.285  -0.662   6.188  0.3262 -0.0218  0.0981
 1016MOL0     N37077   7.368  -0.574   6.234 -0.1864 -0.1697 -0.4080
 1016MOL0     C37078   8.116   0.222   6.711  0.0147  0.4531  0.8018
 1016MOL0     C37079   8.257   0.243   6.714 -0.7403  0.1829 -0.8214
 1016MOL0     C37080   8.590   0.532   6.677 -0.5858 -0.2390  0.1165
 1016MOL0     C37081   8.699   0.465   6.614  0.4093 -0.1434 -0.0285
 1016MOL0     C37082   8.824   0.523   6.606 -0.3535 -0.9041 -0.0636
 1016MOL0     C37083   8.846   0.651   6.668 -1.0039  0.4986 -0.3798
 1016MOL0     O37084   8.971   0.711   6.657 -0.6145  0.0653 -0.0935
 1016MOL0     C37085   9.080   0.645   6.595  0.6121 -0.5827  0.7110
 1016MOL0     C37086   9.208   0.723   6.602 -0.5017 -0.1926  0.2103
 1016MOL0     C37087   9.186   0.858   6.534  0.4642  0.2388 -0.6525
 1016MOL0     C37088   9.269   0.960   6.615 -0.2368 -0.9082  0.4262
 1016MOL0     C37089   9.280   1.076   6.535  0.8926 -0.7333 -0.0113
 1016MOL0     C37090   9.283   1.181   6.473 -0.7566 -0.1785  0.1527
 1016MOL0     C37091   8.743   0.709   6.735  0.1561  0.2503  0.0394
 1016MOL0     C37092   8.619   0.648   6.751  0.0485 -0.1945  0.6133
 1016MOL0     H37093   8.286   0.365   6.393 -2.6747 -0.6069 -2.0284
 1016MOL0     H37094   8.054   0.308   6.394  2.3517  1.6825 -0.5536
 1016MOL0     H37095   7.870   0.081   6.754 -1.1170 -1.7526 -0.8281
 1016MOL0     H37096   7.851   0.253   6.772 -0.8579 -1.1443 -0.6839
 1016MOL0     H37097   7.621   0.169   6.744  0.3145  1.5200  0.3066
 1016MOL0     H37098   7.655   0.239   6.595 -1.5506  0.9782  0.9557
 1016MOL0     H37099   7.744   0.001   6.528 -2.8323 -1.5904 -2.3089
 1016MOL0     H37100   7.676  -0.059   6.678 -2.6321 -1.1528 -2.0217
 1016MOL0     H37101   7.450   0.033   6.608 -1.1132  2.1510 -2.0495
 1016MOL0     H37102   7.517   0.087   6.453 -0.9573  1.0223  0.6725
 1016MOL0     H37103   7.594  -0.129   6.382 -0.2646 -0.3029  0.2470
 1016MOL0     H37104   7.511  -0.207   6.518  0.6032 -2.5335 -1.6307
 1016MOL0     H37105   7.309  -0.109   6.440 -1.9644  1.5014 -2.3371
 1016MOL0     H37106   7.393  -0.029   6.299  0.0208  0.7187  1.1661
 1016MOL0     H37107   7.297  -0.216   6.211 -2.3373 -0.4329  2.4464
 1016MOL0     H37108   7.477  -0.254   6.242 -0.3264  2.2323 -2.5091
 1016MOL0     H37109   7.255  -0.346   6.431  0.4809 -1.0996  0.2667
 1016MOL0     H37110   7.423  -0.399   6.418 -0.2525 -0.8731  0.3158
 1016MOL0     H37111   7.093  -0.408   6.227  0.4382  0.4113  0.1483
 1016MOL0     H37112   7.009  -0.579   6.022  2.0593  1.5123  1.6083
 1016MOL0     H37113   7.075  -0.734   6.014  2.0929 -0.8757  1.0019
 1016MOL0     H37114   6.915  -0.604   6.258  0.4682 -2.0118  1.9193
 1016MOL0     H37115   6.994  -0.749   6.269 -1.1035 -0.4213  1.3341
 1016MOL0     H37116   6.868  -0.867   6.118  0.3270 -0.0867  1.4101
 1016MOL0     H37117   6.794  -0.715   6.046 -0.9814  2.6697  1.9015
 1016MOL0     H37118   6.746  -0.763   6.337 -2.3468  1.6594  0.7595
 1016MOL0     H37119   6.632  -0.838   6.214  2.4122 -2.0426  0.4287
 1016MOL0     H37120   6.507  -0.784   6.392 -2.2129 -2.0573 -2.0905
 1016MOL0     H37121   6.234  -0.735   6.599 -2.7037 -1.8956  0.7550
 1016MOL0     H37122   6.191  -0.796   6.451  0.0233 -0.9318  1.7245
 1016MOL0     H37123   6.345  -0.853   6.515 -0.3628  0.8382  3.1566
 1016MOL0     H37124   5.869  -0.398   6.205 -2.1228 -0.5771 -0.3448
 1016MOL0     H37125   5.699  -0.258   6.234  0.0119  0.5800 -0.2575
 1016MOL0     H37126   5.501  -0.285   6.374 -1.5347 -0.1823 -1.7377
 1016MOL0     H37127   5.413  -0.191   6.496  1.5307 -0.5999  1.2361
 1016MOL0     H37128   5.546  -0.068   6.250  0.4511 -1.3034 -0.0612
 1016MOL0     H37129   5.377  -0.127   6.255  0.3562 -0.2696 -1.0286
 1016MOL0     H37130   5.485   0.129   6.374 -0.2191 -0.1527  2.4377
 1016MOL0     H37131   5.382   0.030   6.471 -0.2983  0.6088  0.6302
 1016MOL0     H37132   5.209   0.019   6.291  1.7914 -1.7347 -0.7418
 1016MOL0     H37133   5.234   0.179   6.365  2.2674  1.8964 -0.7029
 1016MOL0     H37134   5.353   0.061   6.108 -1.0784 -3.2607  4.8205
 1016MOL0     H37135   5.379   0.223   6.173  0.9063 -1.4258  2.1990
 1016MOL0     H37136   5.101   0.132   6.092  0.5690 -0.8388  3.0092
 1016MOL0     H37137   5.160   0.293   6.137  0.4022  0.4869 -0.9106
 1016MOL0     H37138   5.287   0.331   5.963 -2.7082  1.6258  3.5674
 1016MOL0     H37139   5.131   0.285   5.893 -0.2727 -1.9070 -0.8264
 1016MOL0     H37140   5.379   0.110   5.879  0.2338 -0.3119 -0.4689
 1016MOL0     H37141   5.286   0.187   5.754  2.9024 -1.2150 -0.7866
 1016MOL0     H37142   5.804  -0.157   6.634  2.2886  0.6568 -0.1851
 1016MOL0     H37143   6.017  -0.295   6.596  0.4364  2.3118  0.5425
 1016MOL0     H37144   6.333  -0.335   6.276  1.5759  0.6650 -0.0809
 1016MOL0     H37145   6.526  -0.398   6.174  1.9926 -1.7137 -0.1457
 1016MOL0     H37146   8.071   0.180   6.801  0.6785 -0.6237  0.6439
 1016MOL0     H37147   8.319   0.210   6.797 -0.1899 -1.2630 -1.7632
 1016MOL0     H37148   8.683   0.373   6.559 -1.3950 -0.8806  1.5929
 1016MOL0     H37149   8.902   0.474   6.549 -1.3261 -1.6525 -0.7942
 1016MOL0     H37150   9.098   0.541   6.622 -0.3098 -2.0846 -3.6991
 1016MOL0     H37151   9.043   0.648   6.492 -0.8746 -3.6325  1.0442
 1016MOL0     H37152   9.282   0.673   6.538  1.9093  4.1164 -0.7615
 1016MOL0     H37153   9.245   0.723   6.704 -1.7574 -1.9261  0.7058
 1016MOL0     H37154   9.078   0.875   6.529  0.0870 -0.8710  2.0979
 1016MOL0     H37155   9.216   0.852   6.429  3.7961  0.9208  0.1495
 1016MOL0     H37156   9.370   0.927   6.640  0.4702 -0.5177 -1.7088
 1016MOL0     H37157   9.217   0.982   6.709 -0.7677  2.2535 -0.4610
 1016MOL0     H37158   9.302   1.251   6.394  1.9568 -2.1955 -1.1543
 1016MOL0     H37159   8.759   0.806   6.780  0.2057  1.6624 -2.7756
 1016MOL0     H37160   8.549   0.690   6.822 -0.6715  0.0786 -0.2402
 1017MOL0     O37161   2.945   8.850   9.266 -0.0209 -0.5667  0.0245
 1017MOL0     C37162   3.039   8.893   9.197 -1.2742  0.0223 -0.1622
 1017MOL0     O37163   3.032   8.976   9.088 -0.2491 -0.2253  0.4213
 1017MOL0     C37164   2.912   8.991   9.023 -0.1487  0.3851  0.5327
 1017MOL0     C37165   2.875   9.118   8.984  0.0145 -0.2938  0.0468
 1017MOL0     C37166   2.748   9.143   8.941  0.2196  0.0752  0.2027
 1017MOL0     C37167   2.668   9.033   8.909  0.0561 -0.8377  0.3205
 1017MOL0     O37168   2.548   9.062   8.846  0.8301  0.4935  0.1101
 1017MOL0     C37169   2.551   9.072   8.704  1.2123 -0.1884  0.2563
 1017MOL0     C37170   2.496   8.947   8.642 -0.4886  0.3139  0.3725
 1017MOL0     C37171   2.491   8.955   8.494  1.2577 -0.0859  0.3405
 1017MOL0     C37172   2.411   8.840   8.439  0.8638  0.6111 -0.2906
 1017MOL0     C37173   2.402   8.866   8.294  0.4246 -0.1863  0.1921
 1017MOL0     C37174   2.336   8.757   8.207 -0.6940  0.2867 -0.6843
 1017MOL0     C37175   2.371   8.757   8.060  0.5468  0.5415  0.0200
 1017MOL0     C37176   2.331   8.890   7.988  0.1473 -0.4546  0.2919
 1017MOL0     N37177   2.339   8.861   7.840  0.8121 -0.3382 -0.1604
 1017MOL0     C37178   2.238   8.890   7.751 -0.5034 -0.2758  0.1404
 1017MOL0     C37179   2.289   8.871   7.628  0.2394  0.1009  0.3146
 1017MOL0     C37180   2.218   8.909   7.507 -0.3459 -0.6156  0.9351
 1017MOL0     C37181   2.090   8.829   7.500  0.9944 -0.3370  0.5907
 1017MOL0     C37182   1.996   8.906   7.400  0.0325  1.0526 -0.3965
 1017MOL0     C37183   1.863   8.838   7.397  0.0576 -0.1327 -0.5628
 1017MOL0     O37184   1.778   8.823   7.518 -0.0652  0.0658  0.9085
 1017MOL0     C37185   1.654   8.762   7.513  0.7251  0.8028  0.2469
 1017MOL0     C37186   1.567   8.776   7.625 -0.2054 -1.2584  0.2541
 1017MOL0     C37187   1.439   8.714   7.632 -0.6993  0.2746  0.9042
 1017MOL0     C37188   1.358   8.725   7.752 -0.2263 -0.2453 -0.4105
 1017MOL0     C37189   1.394   8.635   7.525 -0.6634 -0.4203 -0.3513
 1017MOL0     C37190   1.266   8.550   7.533 -0.0366 -0.7528  0.1873
 1017MOL0     O37191   1.155   8.613   7.491 -0.7500 -0.4585 -0.1827
 1017MOL0     C37192   1.034   8.567   7.515  0.4061  0.4235 -0.1065
 1017MOL0     C37193   0.987   8.489   7.625  0.9097 -0.6300 -0.4376
 1017MOL0     C37194   0.865   8.424   7.631  1.1943 -0.1714 -0.0002
 1017MOL0     C37195   0.772   8.435   7.523 -0.5301 -0.1387  0.4553
 1017MOL0     O37196   0.653   8.365   7.515  0.2996  0.3331  0.4721
 1017MOL0     C37197   0.551   8.440   7.594 -0.1377  0.0695  0.1261
 1017MOL0     C37198   0.422   8.369   7.578  0.0867  0.2392 -0.4677
 1017MOL0     C37199   0.303   8.415   7.663  0.4331  0.2288 -0.2515
 1017MOL0     C37200   0.177   8.343   7.621 -0.4374 -0.4039 -0.0882
 1017MOL0     C37201   0.047   8.360   7.703  0.5423  0.5327  0.0144
 1017MOL0     C37202  -0.056   8.257   7.678 -0.6760 -0.0102  0.0474
 1017MOL0     C37203  -0.185   8.316   7.730  0.3034 -0.2323  0.1680
 1017MOL0     C37204  -0.277   8.207   7.764  0.3207  0.7380 -0.2561
 1017MOL0    Cl37205  -0.439   8.263   7.822 -0.4791 -0.3469 -0.3173
 1017MOL0     C37206   0.813   8.517   7.411  0.9599 -0.6549 -0.1035
 1017MOL0     C37207   0.940   8.573   7.406  0.1323 -0.1276 -0.6198
 1017MOL0     O37208   1.268   8.437   7.566  0.0690 -0.4781  0.1796
 1017MOL0     C37209   1.476   8.626   7.413 -0.1818  0.1075  0.1461
 1017MOL0     C37210   1.596   8.699   7.397  0.5274  0.9355 -0.4203
 1017MOL0     N37211   2.407   8.816   7.648  0.5668 -0.8261  0.3076
 1017MOL0     N37212   2.434   8.798   7.774 -0.3149  0.4350 -0.3390
 1017MOL0     C37213   2.704   8.905   8.936 -0.6216  0.2758  0.2990
 1017MOL0     C37214   2.830   8.882   8.989  0.0729  0.0115  0.3663
 1017MOL0     C37215   3.178   8.846   9.227  0.2495 -0.6049 -0.6119
 1017MOL0     C37216   3.209   8.734   9.297 -0.0658 -0.0885 -0.6274
 1017MOL0     C37217   3.335   8.688   9.328 -0.0386  0.3635  0.3315
 1017MOL0     C37218   3.444   8.769   9.296 -0.0819  0.1206 -0.0673
 1017MOL0     O37219   3.567   8.719   9.326 -0.5024 -0.3604 -0.1057
 1017MOL0     C37220   3.684   8.788   9.289 -0.2969  0.5520  0.6178
 1017MOL0     C37221   3.805   8.725   9.351 -0.1562 -0.2077  0.3930
 1017MOL0     C37222   3.838   8.582   9.307  0.1616  0.1089 -0.3770
 1017MOL0     C37223   3.991   8.547   9.325 -0.8908 -1.0084  0.3775
 1017MOL0     C37224   4.029   8.529   9.469 -0.3209  0.2187 -0.6718
 1017MOL0     C37225   4.055   8.498   9.588  1.1570 -1.0130  0.0948
 1017MOL0     C37226   3.423   8.893   9.226 -0.3754  0.7363  0.6857
 1017MOL0     C37227   3.291   8.925   9.187  0.8496 -0.7856 -0.8521
 1017MOL0     H37228   2.952   9.194   8.977  0.7959 -1.1509 -0.9442
 1017MOL0     H37229   2.709   9.241   8.915  2.1764  1.0940  0.8947
 1017MOL0     H37230   2.487   9.149   8.659  2.4968 -0.3276 -1.9440
 1017MOL0     H37231   2.655   9.088   8.675  0.0304  1.2998 -3.7854
 1017MOL0     H37232   2.561   8.861   8.657  2.0185  1.2404 -3.6445
 1017MOL0     H37233   2.400   8.933   8.694  0.3887  0.6312  2.1785
 1017MOL0     H37234   2.442   9.050   8.467  0.5497 -0.2224  1.1026
 1017MOL0     H37235   2.591   8.957   8.449  0.5696 -0.0056 -1.2381
 1017MOL0     H37236   2.466   8.748   8.463 -1.1418 -1.1841 -2.1735
 1017MOL0     H37237   2.308   8.843   8.477  1.3846 -0.9548  1.3941
 1017MOL0     H37238   2.341   8.956   8.285 -1.6094 -1.3922  1.1348
 1017MOL0     H37239   2.500   8.881   8.247  2.1126 -4.1332  1.9572
 1017MOL0     H37240   2.376   8.663   8.246 -1.0447  0.5795  0.4256
 1017MOL0     H37241   2.227   8.761   8.205 -0.6720  0.7463 -0.9844
 1017MOL0     H37242   2.477   8.728   8.052 -0.1483 -1.6529 -2.7102
 1017MOL0     H37243   2.325   8.675   8.004 -1.0939  1.3211  0.1635
 1017MOL0     H37244   2.396   8.975   8.013  2.3243 -1.9798  0.1106
 1017MOL0     H37245   2.233   8.919   8.026  1.5886  1.8369  2.6054
 1017MOL0     H37246   2.152   8.953   7.769 -0.3931 -0.6985  2.3427
 1017MOL0     H37247   2.203   9.017   7.498 -2.8571 -1.0450 -1.7349
 1017MOL0     H37248   2.274   8.895   7.414  0.1170  3.3189  0.4581
 1017MOL0     H37249   2.048   8.815   7.600 -0.6845  0.0000 -0.0276
 1017MOL0     H37250   2.113   8.732   7.455  0.3467 -0.5879  0.7927
 1017MOL0     H37251   2.045   8.941   7.308  1.0167  3.1453  0.8432
 1017MOL0     H37252   1.984   9.002   7.451  0.5204  1.8645 -1.7524
 1017MOL0     H37253   1.887   8.747   7.340 -3.2011 -0.8091 -1.0877
 1017MOL0     H37254   1.809   8.905   7.329  0.0270 -1.9068 -2.4101
 1017MOL0     H37255   1.600   8.836   7.709  0.1725 -0.4805 -0.4384
 1017MOL0     H37256   1.423   8.735   7.839  0.9728  1.1995 -1.4023
 1017MOL0     H37257   1.303   8.820   7.742 -0.2260 -0.3879 -2.1364
 1017MOL0     H37258   1.286   8.646   7.774  0.1248 -0.2663  0.6944
 1017MOL0     H37259   1.047   8.474   7.714 -2.1782 -1.3333  1.6854
 1017MOL0     H37260   0.842   8.370   7.723  0.5129 -0.2346 -0.1992
 1017MOL0     H37261   0.576   8.456   7.700  0.5923 -0.3076  0.0213
 1017MOL0     H37262   0.531   8.537   7.549 -2.3302 -0.4754 -0.1793
 1017MOL0     H37263   0.392   8.365   7.473  2.3461  1.5582 -1.2159
 1017MOL0     H37264   0.441   8.267   7.613  0.6401  0.8047  0.9636
 1017MOL0     H37265   0.289   8.521   7.642 -0.6869 -0.3500 -2.8271
 1017MOL0     H37266   0.319   8.404   7.771  0.5946  0.5458 -0.2421
 1017MOL0     H37267   0.162   8.357   7.513 -2.5171  0.7716  0.2905
 1017MOL0     H37268   0.196   8.237   7.641  0.1390 -0.1824  0.5780
 1017MOL0     H37269   0.011   8.462   7.688  0.3930  1.0828  3.4179
 1017MOL0     H37270   0.075   8.358   7.808  1.0336  2.3474 -0.0486
 1017MOL0     H37271  -0.069   8.247   7.569  2.6975 -0.2545 -0.4546
 1017MOL0     H37272  -0.020   8.172   7.737 -1.2489  0.5707  1.2545
 1017MOL0     H37273  -0.217   8.398   7.665  2.5156  1.0402  0.5610
 1017MOL0     H37274  -0.162   8.368   7.824  1.7397  0.3858 -0.4816
 1017MOL0     H37275  -0.235   8.156   7.851  0.6627  1.4032 -0.0275
 1017MOL0     H37276  -0.302   8.137   7.683  2.5715 -0.2349 -0.1850
 1017MOL0     H37277   0.744   8.524   7.327  0.4655  1.4857  0.4374
 1017MOL0     H37278   0.966   8.627   7.315 -0.5248  0.4320 -0.4842
 1017MOL0     H37279   1.464   8.567   7.323  1.9613 -1.4619  0.8079
 1017MOL0     H37280   1.660   8.685   7.310  0.3385  0.2726 -0.4552
 1017MOL0     H37281   2.640   8.820   8.916  2.3162 -1.8575 -0.7645
 1017MOL0     H37282   2.860   8.779   9.005 -1.4087 -0.4751  0.1605
 1017MOL0     H37283   3.129   8.664   9.319  2.6168 -3.0619  0.3996
 1017MOL0     H37284   3.350   8.584   9.358 -0.1778  0.8628  2.3116
 1017MOL0     H37285   3.695   8.790   9.181 -2.3540  1.9045  0.3904
 1017MOL0     H37286   3.672   8.890   9.325 -2.6984  1.4226 -2.2986
 1017MOL0     H37287   3.799   8.722   9.460  4.2547 -0.3931  0.8188
 1017MOL0     H37288   3.887   8.791   9.319 -0.2194  0.3581  1.3682
 1017MOL0     H37289   3.814   8.568   9.201 -1.1825  0.2026 -0.1078
 1017MOL0     H37290   3.774   8.509   9.356  0.0622  0.5915  0.2266
 1017MOL0     H37291   4.050   8.629   9.282 -0.9087 -1.1343  0.1091
 1017MOL0     H37292   4.020   8.457   9.270  0.0232  1.1331 -2.9518
 1017MOL0     H37293   4.063   8.479   9.693  0.7115  0.4889  0.4283
 1017MOL0     H37294   3.505   8.955   9.192  2.8122 -2.0794  2.6355
 1017MOL0     H37295   3.270   9.013   9.126 -0.5201 -1.9453 -2.1508
 1018MOL0     O37296   7.438   0.820   5.608  0.8138  0.1714 -0.3051
 1018MOL0     C37297   7.435   0.780   5.489 -0.1903  0.3290 -0.0741
 1018MOL0     O37298   7.331   0.789   5.404 -0.5916 -0.5160 -0.3783
 1018MOL0     C37299   7.208   0.817   5.454  0.8405  0.5110  0.3140
 1018MOL0     C37300   7.143   0.711   5.529 -0.3715 -0.1774  0.0203
 1018MOL0     C37301   7.024   0.742   5.600 -0.0497  0.3226  0.1271
 1018MOL0     C37302   6.963   0.867   5.582  0.1138 -0.3596  0.0522
 1018MOL0     O37303   6.833   0.892   5.616 -0.2187 -0.7205 -0.2303
 1018MOL0     C37304   6.742   0.794   5.662 -0.8904  1.0234  0.7676
 1018MOL0     C37305   6.697   0.713   5.534  0.2369 -0.2344 -0.1472
 1018MOL0     C37306   6.614   0.788   5.425  0.5826  0.8835 -0.6793
 1018MOL0     C37307   6.482   0.835   5.476  0.4866  0.2768 -1.0160
 1018MOL0     C37308   6.367   0.862   5.386 -1.2486  0.4995 -0.6986
 1018MOL0     C37309   6.398   0.971   5.279 -0.2483  0.9121  0.1024
 1018MOL0     C37310   6.400   1.111   5.354 -0.1094  0.4945 -0.6528
 1018MOL0     C37311   6.276   1.141   5.445  0.3509 -0.6566 -0.7249
 1018MOL0     N37312   6.152   1.147   5.357  0.5087  0.8891 -0.6649
 1018MOL0     C37313   6.140   1.196   5.232  0.6712 -1.5032  0.2472
 1018MOL0     C37314   6.013   1.190   5.196  0.0208 -0.5013 -0.1145
 1018MOL0     C37315   5.951   1.237   5.067  0.0559  0.1360 -0.3395
 1018MOL0     C37316   5.869   1.364   5.088  0.0673 -0.0314  1.2207
 1018MOL0     C37317   5.806   1.401   4.947  0.1847  0.4616  0.6050
 1018MOL0     C37318   5.741   1.539   4.954 -0.0715  0.4857 -0.0739
 1018MOL0     O37319   5.629   1.532   5.041 -0.5924 -0.0170 -0.0593
 1018MOL0     C37320   5.500   1.521   4.989  0.3707  0.6983 -0.0663
 1018MOL0     C37321   5.395   1.511   5.087  0.1916  0.2439  0.1216
 1018MOL0     C37322   5.266   1.501   5.055  0.2581 -0.1191 -0.3320
 1018MOL0     C37323   5.165   1.493   5.169 -0.4565  0.7691  0.2601
 1018MOL0     C37324   5.223   1.482   4.920  0.3827  0.3722  0.2713
 1018MOL0     C37325   5.093   1.442   4.872 -0.3637  0.2777 -0.0214
 1018MOL0     O37326   5.084   1.392   4.746 -0.1665  0.0367 -0.0775
 1018MOL0     C37327   4.970   1.358   4.679 -0.2324  1.1189 -0.1662
 1018MOL0     C37328   4.968   1.348   4.537  0.4905 -0.5194  0.4724
 1018MOL0     C37329   4.852   1.313   4.468 -0.4372 -0.3785  0.4820
 1018MOL0     C37330   4.727   1.289   4.526  0.4147  0.5169 -0.3527
 1018MOL0     O37331   4.617   1.250   4.452 -0.1221 -0.7407  0.2361
 1018MOL0     C37332   4.509   1.181   4.519 -0.1169 -0.4266 -0.2993
 1018MOL0     C37333   4.417   1.106   4.424 -0.2437  0.4355  0.1764
 1018MOL0     C37334   4.284   1.066   4.487  0.2743  0.1604 -0.1494
 1018MOL0     C37335   4.179   1.175   4.497  0.7601 -0.0969  0.3958
 1018MOL0     C37336   4.045   1.120   4.552 -0.5283  0.3710  0.5678
 1018MOL0     C37337   3.940   1.227   4.571  0.7240 -1.1070 -0.5100
 1018MOL0     C37338   3.809   1.142   4.606 -0.4954 -0.6195  0.0772
 1018MOL0     C37339   3.697   1.239   4.647  0.2948  0.5590 -0.0379
 1018MOL0    Cl37340   3.661   1.324   4.505 -0.0961 -0.3222  0.0131
 1018MOL0     C37341   4.725   1.311   4.663 -0.6824  0.2554 -0.3150
 1018MOL0     C37342   4.840   1.340   4.743  0.6774  0.3251  0.0730
 1018MOL0     O37343   5.000   1.481   4.932 -0.4572 -0.7382  0.5856
 1018MOL0     C37344   5.326   1.499   4.818 -0.2247  0.5930 -0.5706
 1018MOL0     C37345   5.460   1.511   4.856  0.6755  0.0538 -0.1270
 1018MOL0     N37346   5.955   1.113   5.293 -0.1498  0.0773 -0.2279
 1018MOL0     N37347   6.034   1.096   5.396 -0.6363 -0.7259  0.0389
 1018MOL0     C37348   7.021   0.963   5.506  0.0764 -0.7781 -0.1801
 1018MOL0     C37349   7.152   0.939   5.450 -0.3435  0.0855  0.0913
 1018MOL0     C37350   7.565   0.746   5.433 -0.2609  0.9365 -0.6537
 1018MOL0     C37351   7.580   0.667   5.315  0.8146  0.6735 -0.0320
 1018MOL0     C37352   7.707   0.617   5.279  0.7021  0.4235  0.3758
 1018MOL0     C37353   7.819   0.640   5.360 -0.5950 -1.4142 -0.4594
 1018MOL0     O37354   7.933   0.580   5.313  0.1803  0.2223 -0.4187
 1018MOL0     C37355   8.035   0.556   5.414  0.2654  0.2790  0.4445
 1018MOL0     C37356   8.138   0.473   5.344  0.3035 -0.0913 -0.4045
 1018MOL0     C37357   8.267   0.464   5.428 -0.0762  0.0776 -0.0402
 1018MOL0     C37358   8.370   0.362   5.371  0.1120 -0.4049  0.2718
 1018MOL0     C37359   8.503   0.381   5.436 -0.1064  0.6761  0.3155
 1018MOL0     C37360   8.617   0.401   5.455  0.2640 -0.6017  0.1943
 1018MOL0     C37361   7.808   0.719   5.480  0.3634  0.2454 -0.3385
 1018MOL0     C37362   7.680   0.765   5.510  0.0550 -1.0498 -0.1539
 1018MOL0     H37363   7.195   0.617   5.539  2.7076  1.4846  1.2604
 1018MOL0     H37364   6.969   0.665   5.653  1.0761 -0.6439 -0.0552
 1018MOL0     H37365   6.778   0.725   5.739 -3.6805 -2.7596 -1.0417
 1018MOL0     H37366   6.657   0.848   5.704 -2.3879 -0.4661 -0.2226
 1018MOL0     H37367   6.788   0.684   5.480 -0.5065 -2.0543 -0.4880
 1018MOL0     H37368   6.652   0.617   5.564  1.6429 -1.1181 -0.7500
 1018MOL0     H37369   6.677   0.873   5.396  0.2832  2.0289  1.7653
 1018MOL0     H37370   6.602   0.718   5.342 -0.3437 -3.0157  2.4161
 1018MOL0     H37371   6.450   0.754   5.542  2.7035 -0.4247 -0.7219
 1018MOL0     H37372   6.499   0.916   5.548  2.3178 -2.0622  1.3851
 1018MOL0     H37373   6.351   0.772   5.325  3.4456  0.3836 -2.1725
 1018MOL0     H37374   6.280   0.894   5.443  0.6477  0.2841  2.5303
 1018MOL0     H37375   6.493   0.950   5.229 -0.1979  0.7011  0.2826
 1018MOL0     H37376   6.321   0.977   5.202  1.0378  0.9144 -1.2184
 1018MOL0     H37377   6.482   1.109   5.426  0.5340 -4.2240 -1.1803
 1018MOL0     H37378   6.432   1.189   5.283  1.8372  0.7660  0.4517
 1018MOL0     H37379   6.299   1.236   5.494  0.7433 -1.7140  1.2717
 1018MOL0     H37380   6.258   1.068   5.525 -0.8571 -1.4596 -1.6967
 1018MOL0     H37381   6.220   1.255   5.190 -2.6428  1.2754 -2.8817
 1018MOL0     H37382   6.025   1.259   4.990  0.5459 -0.1178  0.0518
 1018MOL0     H37383   5.884   1.163   5.022 -0.6530  0.1098  0.7045
 1018MOL0     H37384   5.935   1.444   5.122  1.2422 -1.5159  2.6097
 1018MOL0     H37385   5.791   1.341   5.161 -1.3835 -2.1045 -0.8305
 1018MOL0     H37386   5.736   1.330   4.902 -1.5554  0.7912  2.6782
 1018MOL0     H37387   5.894   1.387   4.883 -0.4043  0.0181 -0.1297
 1018MOL0     H37388   5.713   1.577   4.856  0.8175  3.9234  0.8479
 1018MOL0     H37389   5.815   1.615   4.981  1.4780 -1.2451  0.6962
 1018MOL0     H37390   5.437   1.526   5.186 -0.6266 -0.1580  0.5427
 1018MOL0     H37391   5.213   1.483   5.267  0.3027 -0.0993 -0.1788
 1018MOL0     H37392   5.109   1.587   5.168 -2.2209 -0.2235  0.1277
 1018MOL0     H37393   5.097   1.408   5.152  1.5086 -0.8139 -0.0913
 1018MOL0     H37394   5.056   1.362   4.475 -2.2058 -1.5032 -4.0590
 1018MOL0     H37395   4.868   1.309   4.361 -0.9076  0.0462  0.3961
 1018MOL0     H37396   4.545   1.114   4.597  0.0820  0.8633  0.7419
 1018MOL0     H37397   4.445   1.258   4.562 -0.0233 -1.1261  1.1577
 1018MOL0     H37398   4.389   1.177   4.345  0.9298 -0.0369 -0.6990
 1018MOL0     H37399   4.464   1.018   4.380 -0.9459  0.1654 -0.0576
 1018MOL0     H37400   4.301   1.029   4.588  1.5814  3.9852  1.2082
 1018MOL0     H37401   4.239   0.980   4.436  2.0061 -2.1804  2.0144
 1018MOL0     H37402   4.219   1.252   4.564  2.6064 -0.5430 -0.1405
 1018MOL0     H37403   4.157   1.222   4.401 -2.0402  0.4407  1.2301
 1018MOL0     H37404   4.057   1.079   4.653 -0.6373 -1.2047 -0.0307
 1018MOL0     H37405   4.009   1.038   4.489  0.0670 -0.9564  1.8923
 1018MOL0     H37406   3.973   1.287   4.656 -0.4759  0.7886 -1.3192
 1018MOL0     H37407   3.915   1.285   4.482 -2.1965  1.1675  1.6151
 1018MOL0     H37408   3.828   1.070   4.687 -3.1474  0.5142  1.8502
 1018MOL0     H37409   3.784   1.080   4.519 -2.2253 -2.7362  1.9569
 1018MOL0     H37410   3.732   1.301   4.729  0.2553 -2.0589  2.1082
 1018MOL0     H37411   3.602   1.190   4.668  0.2021  0.9074  0.3631
 1018MOL0     H37412   4.629   1.296   4.712 -0.5924  0.7181  0.0115
 1018MOL0     H37413   4.827   1.330   4.850 -0.5101 -2.4217 -0.2242
 1018MOL0     H37414   5.299   1.484   4.714 -5.5995  3.2432  0.1176
 1018MOL0     H37415   5.528   1.503   4.772  0.9087 -2.1258  0.1976
 1018MOL0     H37416   6.963   1.052   5.488  1.5669 -0.1682 -2.2704
 1018MOL0     H37417   7.210   1.018   5.404 -0.5279 -0.7561 -1.7028
 1018MOL0     H37418   7.495   0.639   5.253 -0.9169  0.9688  2.0573
 1018MOL0     H37419   7.714   0.576   5.178 -2.2215  2.9917 -1.0432
 1018MOL0     H37420   8.086   0.646   5.451  1.2272 -0.4364  0.8849
 1018MOL0     H37421   7.990   0.499   5.497  1.7261 -1.1525  0.2947
 1018MOL0     H37422   8.153   0.518   5.245 -0.8120  1.5320  0.1281
 1018MOL0     H37423   8.100   0.371   5.329 -1.2677  0.3353  0.4408
 1018MOL0     H37424   8.244   0.448   5.534  2.2927  0.2310  0.5333
 1018MOL0     H37425   8.305   0.566   5.427 -3.3338  1.4342  0.0700
 1018MOL0     H37426   8.375   0.384   5.263 -1.5319  0.4896  0.3307
 1018MOL0     H37427   8.330   0.261   5.380  1.4824 -0.9396  0.4727
 1018MOL0     H37428   8.721   0.425   5.455  0.3762 -0.9127  2.4558
 1018MOL0     H37429   7.891   0.738   5.547  1.4483  0.2009 -1.6088
 1018MOL0     H37430   7.672   0.828   5.598 -1.6055 -0.7280 -0.4930
 1019MOL0     O37431   2.358   3.046   7.894  0.2114 -0.0418  0.8093
 1019MOL0     C37432   2.337   3.093   7.784 -0.1980  0.3152  0.0434
 1019MOL0     O37433   2.228   3.149   7.754 -0.0247 -0.5667  0.0220
 1019MOL0     C37434   2.109   3.161   7.832 -0.4888  0.3908  0.5678
 1019MOL0     C37435   2.025   3.263   7.790 -0.7827 -0.4677  0.1474
 1019MOL0     C37436   1.902   3.286   7.846  0.4209  0.5409 -0.1746
 1019MOL0     C37437   1.865   3.209   7.958 -0.2256  0.0058 -0.2603
 1019MOL0     O37438   1.729   3.214   7.999 -0.1878  0.1269 -0.1046
 1019MOL0     C37439   1.664   3.335   7.983  0.4714 -0.0417 -0.7444
 1019MOL0     C37440   1.530   3.323   8.061 -0.7765 -0.0424  0.0137
 1019MOL0     C37441   1.396   3.350   7.982  0.8666 -0.1251  0.2096
 1019MOL0     C37442   1.280   3.326   8.073  0.2858 -0.0990 -0.1004
 1019MOL0     C37443   1.142   3.307   7.998 -0.3167  0.1744 -0.2627
 1019MOL0     C37444   1.037   3.292   8.106  0.4444  0.4415 -0.1594
 1019MOL0     C37445   0.894   3.271   8.052  0.4135 -0.0074 -0.2483
 1019MOL0     C37446   0.840   3.400   7.990 -0.0458 -0.1073 -0.2310
 1019MOL0     N37447   0.698   3.379   7.953  0.1866 -0.0650 -0.5662
 1019MOL0     C37448   0.664   3.317   7.835 -0.2522 -0.8075 -0.0958
 1019MOL0     C37449   0.537   3.284   7.849  0.2583 -0.1875  0.2246
 1019MOL0     C37450   0.452   3.207   7.743  0.1040  0.0316  0.3616
 1019MOL0     C37451   0.424   3.062   7.786  0.2692  0.1990 -0.2130
 1019MOL0     C37452   0.315   2.990   7.707  0.1545  0.6546  1.5140
 1019MOL0     C37453   0.188   2.949   7.788 -0.9722  0.4323  0.7333
 1019MOL0     O37454   0.103   3.064   7.813  0.3998 -0.3575  0.0497
 1019MOL0     C37455  -0.012   3.099   7.736 -0.2592  0.3948  0.2434
 1019MOL0     C37456  -0.023   3.223   7.674  0.3674 -0.3846 -0.2155
 1019MOL0     C37457  -0.144   3.267   7.606 -0.6430  0.2903 -0.2016
 1019MOL0     C37458  -0.146   3.401   7.548  0.1437 -0.1703  0.5208
 1019MOL0     C37459  -0.256   3.182   7.603  0.0483  0.0343  0.1692
 1019MOL0     C37460  -0.386   3.226   7.551 -0.1843  0.0702 -0.3824
 1019MOL0     O37461  -0.471   3.119   7.549  0.2177  0.0957  0.4520
 1019MOL0     C37462  -0.604   3.126   7.527  0.6188  0.1013  0.0434
 1019MOL0     C37463  -0.684   3.239   7.529 -0.1607  0.1765 -0.3129
 1019MOL0     C37464  -0.825   3.218   7.528 -1.0002  0.8769 -0.0352
 1019MOL0     C37465  -0.880   3.089   7.527  0.4109 -0.3868  0.2868
 1019MOL0     O37466  -1.013   3.069   7.546  0.3181 -0.1825 -0.0317
 1019MOL0     C37467  -1.079   3.017   7.426  0.9210 -0.1892 -0.1456
 1019MOL0     C37468  -1.214   2.949   7.456  0.0573  0.8432  0.6727
 1019MOL0     C37469  -1.324   3.041   7.508  0.0089  0.0146  0.4480
 1019MOL0     C37470  -1.467   2.966   7.504  0.3948  0.2872 -0.5915
 1019MOL0     C37471  -1.576   3.065   7.553 -0.0879  0.4422  0.1767
 1019MOL0     C37472  -1.709   2.991   7.535 -0.3305 -0.1578  0.2259
 1019MOL0     C37473  -1.830   3.073   7.582 -0.2710  0.1633  0.2536
 1019MOL0     C37474  -1.936   3.098   7.469 -0.7815 -0.2685 -0.0447
 1019MOL0    Cl37475  -1.855   3.138   7.310 -0.1359  0.0372  0.2196
 1019MOL0     C37476  -0.798   2.981   7.521  0.2353 -0.0646 -0.2232
 1019MOL0     C37477  -0.662   3.001   7.518 -0.6193  0.8432  0.2940
 1019MOL0     O37478  -0.418   3.335   7.509  0.5697 -0.3958  0.0110
 1019MOL0     C37479  -0.240   3.047   7.647 -0.4070 -0.0874  0.0591
 1019MOL0     C37480  -0.122   3.008   7.716  0.4142  0.0636 -0.7569
 1019MOL0     N37481   0.500   3.323   7.975  0.0491  0.2472  0.0907
 1019MOL0     N37482   0.592   3.389   8.038  0.1012  0.5318  0.3179
 1019MOL0     C37483   1.952   3.103   8.002  0.3392  0.1775  0.6872
 1019MOL0     C37484   2.074   3.079   7.944 -0.7712 -0.1003  0.0997
 1019MOL0     C37485   2.450   3.083   7.690 -0.3370 -0.0086  0.5614
 1019MOL0     C37486   2.572   3.014   7.718  0.1139  0.7674 -0.0982
 1019MOL0     C37487   2.673   2.997   7.627  0.1288 -0.2898  0.3619
 1019MOL0     C37488   2.648   3.045   7.495 -0.7472  0.0551  0.3977
 1019MOL0     O37489   2.731   3.032   7.385 -0.6085  0.1071 -0.1324
 1019MOL0     C37490   2.866   2.980   7.396  0.3114  0.0875  1.0833
 1019MOL0     C37491   2.968   3.060   7.481 -0.3135 -0.5627 -0.1007
 1019MOL0     C37492   3.112   3.019   7.455 -0.3497 -0.7749 -0.2619
 1019MOL0     C37493   3.149   2.871   7.472  0.2600 -0.2730 -0.9201
 1019MOL0     C37494   3.125   2.827   7.609 -0.4544 -0.4662  0.2683
 1019MOL0     C37495   3.102   2.776   7.716  0.1630  0.1611  1.4254
 1019MOL0     C37496   2.534   3.123   7.461 -0.1167 -0.2300 -0.4122
 1019MOL0     C37497   2.437   3.141   7.560  0.2121  0.1532  0.1383
 1019MOL0     H37498   2.058   3.327   7.708 -1.6764 -0.2168 -0.0237
 1019MOL0     H37499   1.842   3.365   7.801 -1.5209 -0.9341 -0.2778
 1019MOL0     H37500   1.736   3.409   8.022 -0.6490  1.2389 -1.0157
 1019MOL0     H37501   1.648   3.352   7.876 -2.0437  0.3942 -0.3591
 1019MOL0     H37502   1.523   3.224   8.108 -2.4008  0.1824  0.2988
 1019MOL0     H37503   1.526   3.408   8.131  0.7432 -0.5152  0.7269
 1019MOL0     H37504   1.385   3.450   7.938 -4.9594 -0.1565  0.8133
 1019MOL0     H37505   1.392   3.276   7.902 -0.5289 -2.9937  2.7469
 1019MOL0     H37506   1.300   3.237   8.133  0.5239  1.0278  1.5504
 1019MOL0     H37507   1.286   3.410   8.143  0.9289  1.3591 -1.8217
 1019MOL0     H37508   1.124   3.392   7.931 -0.7944 -0.6553 -1.2258
 1019MOL0     H37509   1.145   3.220   7.932  0.9596  0.1047 -0.1237
 1019MOL0     H37510   1.058   3.202   8.164 -1.3313  0.0081 -0.1317
 1019MOL0     H37511   1.033   3.384   8.166  5.3303  1.0366 -0.3674
 1019MOL0     H37512   0.894   3.185   7.984 -5.1240  0.7812 -1.7988
 1019MOL0     H37513   0.819   3.244   8.127  1.1007  2.9210  1.6917
 1019MOL0     H37514   0.902   3.437   7.908  2.5955  0.5075  1.8850
 1019MOL0     H37515   0.849   3.485   8.058 -0.3788  0.4805 -0.9167
 1019MOL0     H37516   0.732   3.290   7.755 -2.0810 -1.3481 -1.5515
 1019MOL0     H37517   0.358   3.263   7.748  0.9404  1.6160 -0.6700
 1019MOL0     H37518   0.503   3.215   7.646 -0.6639  1.0210  0.0257
 1019MOL0     H37519   0.397   3.060   7.892  3.4058  2.4310  0.7757
 1019MOL0     H37520   0.521   3.011   7.779  1.1042  1.1185  2.9485
 1019MOL0     H37521   0.357   2.899   7.664 -0.7623  2.1193 -3.0264
 1019MOL0     H37522   0.273   3.053   7.628 -0.6647 -1.7259 -0.0621
 1019MOL0     H37523   0.217   2.896   7.879 -2.0494  1.1451  1.5214
 1019MOL0     H37524   0.134   2.876   7.726 -2.5768  2.6645 -0.6655
 1019MOL0     H37525   0.064   3.287   7.679 -0.1803  0.4784 -1.3564
 1019MOL0     H37526  -0.046   3.442   7.566  0.5751 -2.4601  4.4052
 1019MOL0     H37527  -0.182   3.411   7.445 -4.1955  0.0210  1.8986
 1019MOL0     H37528  -0.209   3.468   7.606 -1.9450  1.0258 -2.8192
 1019MOL0     H37529  -0.637   3.337   7.536 -0.5859  0.4486 -1.1425
 1019MOL0     H37530  -0.879   3.311   7.540 -0.1311  1.4580 -0.5327
 1019MOL0     H37531  -1.081   3.098   7.353  2.4570  0.5950  0.6460
 1019MOL0     H37532  -1.023   2.939   7.375 -0.8684 -1.9439  0.4280
 1019MOL0     H37533  -1.237   2.892   7.366 -2.3022 -1.5324  2.6075
 1019MOL0     H37534  -1.197   2.882   7.540 -2.5627  1.5478  1.8723
 1019MOL0     H37535  -1.341   3.128   7.443 -2.4107 -0.8558 -0.1927
 1019MOL0     H37536  -1.293   3.074   7.608 -0.5266  0.7115  0.3991
 1019MOL0     H37537  -1.494   2.922   7.407 -2.9752  0.5341  0.1295
 1019MOL0     H37538  -1.460   2.889   7.581  3.8940  1.0769  0.0800
 1019MOL0     H37539  -1.583   3.156   7.491 -0.0375  0.0198 -0.4574
 1019MOL0     H37540  -1.557   3.094   7.656 -0.3172  0.1530  0.3017
 1019MOL0     H37541  -1.727   2.964   7.431  1.4608  1.4903 -0.5690
 1019MOL0     H37542  -1.708   2.907   7.606  2.1297  0.5485  1.1364
 1019MOL0     H37543  -1.787   3.171   7.606  2.1309 -0.5472 -0.8276
 1019MOL0     H37544  -1.879   3.022   7.666 -0.1736 -0.1221  0.1371
 1019MOL0     H37545  -2.002   3.181   7.498 -2.4509 -0.4125 -2.9931
 1019MOL0     H37546  -2.003   3.013   7.458 -0.2448 -0.5128 -1.7232
 1019MOL0     H37547  -0.837   2.880   7.525  1.8341 -0.6693  1.7509
 1019MOL0     H37548  -0.589   2.921   7.512 -0.8439  0.4687  2.1094
 1019MOL0     H37549  -0.322   2.977   7.645 -1.0837  0.7029 -2.0989
 1019MOL0     H37550  -0.125   2.911   7.766 -0.4963  0.4159 -0.1023
 1019MOL0     H37551   1.916   3.053   8.092  1.3812  0.4528  1.2719
 1019MOL0     H37552   2.140   3.004   7.986 -0.3524 -0.7630 -1.6691
 1019MOL0     H37553   2.596   2.970   7.814 -0.4030  3.0167  1.1151
 1019MOL0     H37554   2.764   2.950   7.660 -0.5982 -1.4342  0.7971
 1019MOL0     H37555   2.863   2.880   7.439 -1.5908  0.6835  2.4404
 1019MOL0     H37556   2.906   2.970   7.295 -0.0693 -1.6511  1.0886
 1019MOL0     H37557   2.951   3.060   7.589 -2.2087 -2.6409 -0.3264
 1019MOL0     H37558   2.963   3.161   7.440  0.1496 -0.8072 -0.7709
 1019MOL0     H37559   3.172   3.086   7.517 -3.6461  2.6043 -0.3448
 1019MOL0     H37560   3.114   3.043   7.349 -1.8721 -2.2626 -0.6745
 1019MOL0     H37561   3.253   2.839   7.463 -0.5063 -5.0449  2.9564
 1019MOL0     H37562   3.090   2.812   7.402  0.4618  0.7553 -1.9971
 1019MOL0     H37563   3.099   2.721   7.807 -0.0177  1.4568  2.2261
 1019MOL0     H37564   2.516   3.156   7.359 -1.4542  1.6289  0.3720
 1019MOL0     H37565   2.356   3.202   7.522  0.7768  0.4591 -0.5803
 1020MOL0     O37566  10.876   9.610   2.082 -0.1867 -0.0543  0.0532
 1020MOL0     C37567  10.929   9.629   1.973  1.1266 -0.7906 -0.1458
 1020MOL0     O37568  10.906   9.733   1.886 -0.2074  0.2407 -0.5878
 1020MOL0     C37569  10.841   9.845   1.907  0.0500  0.4810  1.2100
 1020MOL0     C37570  10.766   9.879   2.021 -0.4186 -0.7576 -0.1267
 1020MOL0     C37571  10.678   9.992   2.014 -0.5142 -0.2761  0.5498
 1020MOL0     C37572  10.667  10.067   1.896  0.8105  0.2536  0.3436
 1020MOL0     O37573  10.574  10.174   1.888 -0.2824 -0.0205  0.2406
 1020MOL0     C37574  10.442  10.118   1.860 -0.4344 -0.6540  0.0705
 1020MOL0     C37575  10.343  10.225   1.819  0.2517 -0.0728 -0.5822
 1020MOL0     C37576  10.191  10.188   1.854  0.2905 -0.6611  0.4056
 1020MOL0     C37577  10.105  10.219   1.739  0.1143 -0.1498  0.3882
 1020MOL0     C37578   9.955  10.257   1.777  0.1103  0.5274  0.4893
 1020MOL0     C37579   9.946  10.381   1.861 -0.0391  0.3978 -0.3615
 1020MOL0     C37580   9.803  10.441   1.883 -0.2413 -0.0456 -0.5033
 1020MOL0     C37581   9.723  10.455   1.754  0.1183 -0.1393 -0.0124
 1020MOL0     N37582   9.590  10.505   1.782 -0.3277 -0.0623 -0.0003
 1020MOL0     C37583   9.475  10.433   1.807 -0.1181  1.6640  0.0610
 1020MOL0     C37584   9.391  10.518   1.865  0.1062 -1.0842  0.6698
 1020MOL0     C37585   9.249  10.492   1.911 -0.2304 -0.0261  1.0743
 1020MOL0     C37586   9.156  10.596   1.840 -0.5577  0.1298  0.1888
 1020MOL0     C37587   9.117  10.554   1.696 -0.0992  0.5509  0.0409
 1020MOL0     C37588   9.031  10.670   1.633 -0.4457 -0.5102 -0.7362
 1020MOL0     O37589   8.899  10.647   1.691  0.1671  0.1797  0.5786
 1020MOL0     C37590   8.800  10.710   1.625  0.3184 -0.4876 -0.2454
 1020MOL0     C37591   8.811  10.812   1.536  0.0028  1.1130  0.8372
 1020MOL0     C37592   8.697  10.857   1.463 -0.8938 -0.6263  0.7728
 1020MOL0     C37593   8.747  10.957   1.371 -0.2425  0.4338  0.2330
 1020MOL0     C37594   8.567  10.807   1.494  0.8954 -0.4566  0.0916
 1020MOL0     C37595   8.439  10.870   1.457  0.6755  0.2365  0.4941
 1020MOL0     O37596   8.329  10.827   1.516  0.2827 -0.1739 -0.0644
 1020MOL0     C37597   8.207  10.880   1.489 -0.1047  0.8540 -0.2367
 1020MOL0     C37598   8.152  10.904   1.362  0.4778 -0.0425 -0.2172
 1020MOL0     C37599   8.024  10.969   1.348 -0.2096 -0.3792 -0.6673
 1020MOL0     C37600   7.958  11.001   1.470 -0.5085  1.3987 -0.2120
 1020MOL0     O37601   7.835  11.066   1.476  0.0500 -0.1398 -0.8638
 1020MOL0     C37602   7.770  11.105   1.356 -0.5730  0.0131  0.1427
 1020MOL0     C37603   7.625  11.145   1.379 -0.1324 -0.1556 -0.2825
 1020MOL0     C37604   7.541  11.034   1.456 -0.5639 -0.4824  0.1065
 1020MOL0     C37605   7.411  11.091   1.513  0.3089 -0.3584  0.1597
 1020MOL0     C37606   7.331  10.969   1.569  0.8262  0.5058 -0.0677
 1020MOL0     C37607   7.179  10.998   1.604 -0.1558  0.1344  0.1652
 1020MOL0     C37608   7.161  11.082   1.731 -0.6265  0.0470  0.9418
 1020MOL0     C37609   7.020  11.081   1.793 -0.3824 -0.7968  0.4344
 1020MOL0    Cl37610   6.997  11.212   1.914 -0.0636  0.0035 -0.0089
 1020MOL0     C37611   8.014  10.967   1.597 -0.6958 -0.4464  0.5559
 1020MOL0     C37612   8.137  10.916   1.606  0.0340  0.6154 -0.2547
 1020MOL0     O37613   8.438  10.957   1.375  0.8555 -0.1711 -0.6446
 1020MOL0     C37614   8.556  10.696   1.583  0.7916  0.0180  0.4772
 1020MOL0     C37615   8.673  10.649   1.645  0.9852 -0.0608 -0.0808
 1020MOL0     N37616   9.449  10.640   1.867 -0.8614  0.0518  0.4596
 1020MOL0     N37617   9.568  10.636   1.818  0.0736 -0.0370  0.3682
 1020MOL0     C37618  10.739  10.029   1.782 -0.0491  0.2646 -0.4394
 1020MOL0     C37619  10.822   9.920   1.793 -0.4516 -0.0127 -0.1167
 1020MOL0     C37620  11.032   9.528   1.938 -1.5018 -0.6958 -0.3497
 1020MOL0     C37621  11.085   9.514   1.809  1.1564 -0.0888 -0.2415
 1020MOL0     C37622  11.191   9.427   1.782 -0.5193 -0.4438  0.5408
 1020MOL0     C37623  11.247   9.352   1.883  0.0311 -0.4524  0.2428
 1020MOL0     O37624  11.354   9.265   1.847 -0.1982  0.1864  0.0399
 1020MOL0     C37625  11.473   9.279   1.925  0.0092 -0.5314 -0.4368
 1020MOL0     C37626  11.595   9.287   1.837  0.3057  0.3876  0.5366
 1020MOL0     C37627  11.616   9.435   1.797  0.4269 -0.5197 -0.5217
 1020MOL0     C37628  11.703   9.463   1.677 -1.0321  0.2708 -0.4029
 1020MOL0     C37629  11.756   9.605   1.680  0.7784  0.0625  0.0414
 1020MOL0     C37630  11.796   9.724   1.676  0.1714  0.7443  0.6946
 1020MOL0     C37631  11.192   9.351   2.007 -0.0571 -0.5949  0.2478
 1020MOL0     C37632  11.093   9.445   2.040  0.1528 -1.0051  0.5988
 1020MOL0     H37633  10.762   9.836   2.120 -1.8356  0.9630  0.6132
 1020MOL0     H37634  10.622  10.011   2.105  1.5471 -1.4219  2.1512
 1020MOL0     H37635  10.443  10.053   1.772 -2.3097 -1.7441  0.7902
 1020MOL0     H37636  10.411  10.064   1.950  2.8458  0.2523  1.8924
 1020MOL0     H37637  10.385  10.316   1.864  0.3088 -0.1900 -0.3963
 1020MOL0     H37638  10.344  10.245   1.712 -0.6633  1.6055 -0.3261
 1020MOL0     H37639  10.173  10.082   1.873 -3.3660  0.3150  3.5478
 1020MOL0     H37640  10.169  10.248   1.943 -0.7156 -1.3705  0.6573
 1020MOL0     H37641  10.138  10.294   1.666 -4.2504  0.3788 -1.3603
 1020MOL0     H37642  10.110  10.127   1.681  2.1572 -0.0051  0.2808
 1020MOL0     H37643   9.906  10.272   1.681  0.8317 -1.1841 -0.1977
 1020MOL0     H37644   9.905  10.172   1.825 -0.1787 -0.3550 -1.2996
 1020MOL0     H37645   9.986  10.372   1.963  1.3161 -2.4065 -1.0482
 1020MOL0     H37646  10.020  10.450   1.818  0.9566 -1.1633 -1.2500
 1020MOL0     H37647   9.747  10.375   1.950  0.1519 -0.7741 -0.8729
 1020MOL0     H37648   9.813  10.540   1.928  0.7335  0.2408 -1.2968
 1020MOL0     H37649   9.704  10.359   1.705 -3.6536  0.8947 -0.8775
 1020MOL0     H37650   9.775  10.523   1.686 -0.5560  0.4622  0.0617
 1020MOL0     H37651   9.448  10.330   1.786 -2.4830  1.7899  2.0420
 1020MOL0     H37652   9.217  10.390   1.886  1.3694 -0.1033 -1.0384
 1020MOL0     H37653   9.249  10.501   2.019 -2.1276  1.6151  0.9821
 1020MOL0     H37654   9.204  10.694   1.837 -2.0220  0.8466 -1.2248
 1020MOL0     H37655   9.064  10.614   1.896 -1.3729  3.6041 -1.9385
 1020MOL0     H37656   9.064  10.458   1.704  1.4467 -0.2666  1.1278
 1020MOL0     H37657   9.207  10.548   1.635  0.2472 -1.6591  0.6664
 1020MOL0     H37658   9.027  10.662   1.524  0.8019 -2.2918 -0.6820
 1020MOL0     H37659   9.061  10.774   1.653  0.3421 -0.5586 -1.6219
 1020MOL0     H37660   8.911  10.844   1.507 -0.5170  2.0700  0.0314
 1020MOL0     H37661   8.779  10.918   1.274  0.9735  1.1191  0.3273
 1020MOL0     H37662   8.669  11.029   1.345 -0.1606  0.7391  0.8279
 1020MOL0     H37663   8.833  11.009   1.416  2.7001 -2.6768 -1.2996
 1020MOL0     H37664   8.205  10.884   1.269  1.1803 -0.4177  0.2557
 1020MOL0     H37665   7.995  10.998   1.247  0.0010  0.9143 -0.3701
 1020MOL0     H37666   7.821  11.196   1.325  0.9009 -1.0129 -0.5282
 1020MOL0     H37667   7.756  11.018   1.291  0.3267 -0.3762  0.4579
 1020MOL0     H37668   7.629  11.239   1.435 -0.4437  0.7007 -1.6669
 1020MOL0     H37669   7.581  11.165   1.281  0.9804  0.7081 -0.6226
 1020MOL0     H37670   7.594  11.000   1.545 -0.3018 -1.5206 -0.4341
 1020MOL0     H37671   7.529  10.947   1.392 -2.3274  1.7861 -2.9319
 1020MOL0     H37672   7.437  11.160   1.593  2.3895  0.0382 -0.8104
 1020MOL0     H37673   7.356  11.149   1.438  2.8648 -1.8955 -3.1352
 1020MOL0     H37674   7.389  10.930   1.653  3.4896  0.5968 -1.7387
 1020MOL0     H37675   7.336  10.889   1.494  0.8667  1.4108 -1.0625
 1020MOL0     H37676   7.134  11.038   1.512  1.1657  0.9761 -0.1385
 1020MOL0     H37677   7.135  10.902   1.632  1.2899  0.6007  4.8369
 1020MOL0     H37678   7.178  11.184   1.694  0.0683 -0.5447 -0.4933
 1020MOL0     H37679   7.222  11.044   1.813 -2.7872 -2.7477  1.4241
 1020MOL0     H37680   7.010  10.980   1.833 -2.0997 -0.7549  0.2029
 1020MOL0     H37681   6.944  11.096   1.714  0.1766  1.0075  0.1961
 1020MOL0     H37682   7.958  10.993   1.686 -2.7146 -0.5625 -0.6174
 1020MOL0     H37683   8.169  10.889   1.707  1.4926 -2.3596 -1.3913
 1020MOL0     H37684   8.461  10.651   1.610 -0.4765  1.9933 -0.4449
 1020MOL0     H37685   8.668  10.567   1.716 -1.0156 -0.1417 -0.2420
 1020MOL0     H37686  10.730  10.093   1.695 -0.8535  1.3783  0.4282
 1020MOL0     H37687  10.878   9.889   1.706  1.1634  1.7104  0.2433
 1020MOL0     H37688  11.047   9.586   1.737  1.6638  0.3234 -0.1093
 1020MOL0     H37689  11.241   9.437   1.686  1.1642 -0.0629  1.4368
 1020MOL0     H37690  11.469   9.361   1.998  2.9533  0.2849 -1.0660
 1020MOL0     H37691  11.489   9.192   1.990 -3.6606  0.5184  2.2317
 1020MOL0     H37692  11.581   9.226   1.748  1.3784 -1.7357  1.7445
 1020MOL0     H37693  11.686   9.246   1.883 -1.2236 -0.3983  3.0923
 1020MOL0     H37694  11.663   9.489   1.881  1.9929 -1.5786 -0.6688
 1020MOL0     H37695  11.523   9.482   1.764  1.8367  2.3045 -0.8586
 1020MOL0     H37696  11.640   9.450   1.589 -1.2527 -0.7460 -0.1063
 1020MOL0     H37697  11.782   9.388   1.676 -1.5807 -0.4353  2.3612
 1020MOL0     H37698  11.834   9.824   1.669  1.8289  0.3174  2.6201
 1020MOL0     H37699  11.223   9.294   2.094  0.7497  2.2201  1.9138
 1020MOL0     H37700  11.065   9.463   2.143 -0.0412  1.6742  0.1514
 1021MOL0     O37701   1.873   9.686   8.770 -0.6370  0.4685 -0.4863
 1021MOL0     C37702   1.903   9.646   8.889  0.2264  0.5330  0.9333
 1021MOL0     O37703   1.822   9.576   8.972  0.3451  1.2121 -0.0847
 1021MOL0     C37704   1.697   9.542   8.931 -0.0644 -1.0375  0.7878
 1021MOL0     C37705   1.606   9.636   8.874  0.1919 -0.0220 -0.5221
 1021MOL0     C37706   1.471   9.599   8.858 -1.0155 -0.3731  0.0627
 1021MOL0     C37707   1.422   9.471   8.883 -0.6245  0.3534  0.1823
 1021MOL0     O37708   1.294   9.421   8.860 -0.4540 -0.4768  0.2675
 1021MOL0     C37709   1.201   9.514   8.806 -0.0758  0.4824 -0.3868
 1021MOL0     C37710   1.061   9.446   8.789 -0.5345  0.6125  0.3038
 1021MOL0     C37711   0.979   9.509   8.676 -0.3212  0.5250 -0.0883
 1021MOL0     C37712   0.849   9.435   8.643  0.8248  0.0827 -0.3726
 1021MOL0     C37713   0.745   9.527   8.584  0.3739  0.4217 -0.4657
 1021MOL0     C37714   0.615   9.442   8.545 -0.1397 -0.6489  0.6014
 1021MOL0     C37715   0.495   9.533   8.523  0.9166 -0.1063  0.1611
 1021MOL0     C37716   0.510   9.612   8.384  0.1935 -0.1713  0.2827
 1021MOL0     N37717   0.395   9.694   8.352  0.8718 -0.3925  0.4593
 1021MOL0     C37718   0.355   9.810   8.409 -0.3664 -0.2265  0.0063
 1021MOL0     C37719   0.261   9.865   8.326  0.1640  0.6854 -0.1565
 1021MOL0     C37720   0.187   9.996   8.344 -0.6846 -0.4109  0.4186
 1021MOL0     C37721   0.043   9.986   8.378  0.0110 -0.0019 -0.0121
 1021MOL0     C37722   0.028   9.925   8.517  0.4580 -0.5057 -0.1778
 1021MOL0     C37723  -0.124   9.920   8.561 -0.2449  0.1886  0.7818
 1021MOL0     O37724  -0.146  10.042   8.630  0.6453  0.1342  0.7095
 1021MOL0     C37725  -0.271  10.068   8.686 -0.2592  0.4723  0.2089
 1021MOL0     C37726  -0.287  10.165   8.783  0.3402  1.0816  0.2278
 1021MOL0     C37727  -0.417  10.194   8.840 -0.5751  0.2471  1.4344
 1021MOL0     C37728  -0.410  10.285   8.958  0.0603 -0.1345 -0.2310
 1021MOL0     C37729  -0.532  10.122   8.786  0.6519 -1.1923 -0.1731
 1021MOL0     C37730  -0.668  10.146   8.837  0.9303  0.1471 -0.1834
 1021MOL0     O37731  -0.762  10.057   8.791 -0.1866  0.3840 -0.3312
 1021MOL0     C37732  -0.900  10.074   8.816  0.6427 -0.6049 -0.0965
 1021MOL0     C37733  -0.978   9.968   8.767 -0.0716  0.0220  0.2738
 1021MOL0     C37734  -1.116   9.966   8.767  0.9815  0.1534 -0.5447
 1021MOL0     C37735  -1.180  10.070   8.831 -0.9552 -0.4722 -0.3217
 1021MOL0     O37736  -1.311  10.064   8.852  0.4546 -0.9547  0.0139
 1021MOL0     C37737  -1.401  10.020   8.743  0.0781  0.0064 -0.1212
 1021MOL0     C37738  -1.539   9.994   8.808  0.4366  0.0786 -0.0523
 1021MOL0     C37739  -1.657   9.957   8.712 -1.1733  0.1183  0.3849
 1021MOL0     C37740  -1.731  10.076   8.646 -0.3810  0.3417 -0.1159
 1021MOL0     C37741  -1.808  10.054   8.516 -0.2509 -0.2851  0.3155
 1021MOL0     C37742  -1.944   9.990   8.532 -0.3785  0.0881 -0.1248
 1021MOL0     C37743  -1.982   9.944   8.393 -0.0292  0.4484  0.0303
 1021MOL0     C37744  -2.102   9.856   8.400 -0.2311  0.4985 -0.3451
 1021MOL0    Cl37745  -2.245   9.941   8.458  0.1196 -0.3055  0.3228
 1021MOL0     C37746  -1.102  10.167   8.901  0.2398 -0.6291  0.9563
 1021MOL0     C37747  -0.965  10.180   8.878 -0.3342  0.1484 -0.5671
 1021MOL0     O37748  -0.691  10.229   8.923  0.0791  0.8911  0.8266
 1021MOL0     C37749  -0.510  10.031   8.683  0.4652 -0.2408  0.1474
 1021MOL0     C37750  -0.381   9.997   8.639  0.5406 -0.6703 -0.0071
 1021MOL0     N37751   0.247   9.772   8.223 -1.4742 -0.5978  0.0368
 1021MOL0     N37752   0.337   9.685   8.229 -0.1878  0.4700  0.7985
 1021MOL0     C37753   1.519   9.376   8.926 -0.0495 -0.4981  0.4439
 1021MOL0     C37754   1.652   9.415   8.954  0.6174 -1.0439  0.6968
 1021MOL0     C37755   2.030   9.681   8.957 -0.1989 -0.3199  0.7382
 1021MOL0     C37756   2.113   9.781   8.895 -0.4237  0.9144 -0.9764
 1021MOL0     C37757   2.237   9.826   8.945 -0.5902 -0.6038  0.8274
 1021MOL0     C37758   2.282   9.780   9.070 -0.6981  0.3113  0.2476
 1021MOL0     O37759   2.413   9.813   9.104  0.0143  0.4596 -0.8020
 1021MOL0     C37760   2.421   9.864   9.243 -0.2352  0.3738  0.3976
 1021MOL0     C37761   2.568   9.865   9.283  0.0846 -0.4759 -0.4710
 1021MOL0     C37762   2.664   9.946   9.188  0.1811  0.4013 -0.2588
 1021MOL0     C37763   2.809   9.937   9.232  0.3409 -0.2113 -1.1146
 1021MOL0     C37764   2.896   9.957   9.115  0.3707 -0.0268 -0.0761
 1021MOL0     C37765   2.969   9.969   9.024 -0.0080  0.1642 -0.2652
 1021MOL0     C37766   2.205   9.677   9.130 -0.3679  0.0404 -0.0641
 1021MOL0     C37767   2.082   9.630   9.080 -0.0185  0.0319  0.1646
 1021MOL0     H37768   1.636   9.740   8.875  2.3360 -0.5894  0.7416
 1021MOL0     H37769   1.408   9.681   8.824  0.3540  0.7737  0.1800
 1021MOL0     H37770   1.186   9.590   8.883  2.1583  0.6372 -0.0364
 1021MOL0     H37771   1.234   9.557   8.711  0.2488 -1.8596 -1.4289
 1021MOL0     H37772   1.082   9.342   8.763 -0.5773  0.6075  0.2925
 1021MOL0     H37773   1.015   9.453   8.888  2.3413  0.6454  1.7604
 1021MOL0     H37774   0.949   9.609   8.707  0.9633  0.7883  0.3546
 1021MOL0     H37775   1.037   9.501   8.583 -1.3148 -0.7736 -0.6413
 1021MOL0     H37776   0.880   9.358   8.572  1.3100  0.7272 -0.8834
 1021MOL0     H37777   0.806   9.386   8.730 -2.0103  1.4787 -0.8605
 1021MOL0     H37778   0.711   9.600   8.659 -2.6366 -0.3907 -0.8858
 1021MOL0     H37779   0.787   9.587   8.502  1.3664 -0.3187 -0.5000
 1021MOL0     H37780   0.622   9.386   8.451 -0.0446  0.1862  0.1039
 1021MOL0     H37781   0.594   9.374   8.628 -2.9468  0.3832  0.8608
 1021MOL0     H37782   0.406   9.469   8.522 -0.1942  1.3556  1.0015
 1021MOL0     H37783   0.489   9.600   8.609 -0.5155 -2.7184  2.2410
 1021MOL0     H37784   0.522   9.536   8.306 -3.2482 -1.1855  0.5575
 1021MOL0     H37785   0.597   9.678   8.386 -1.7208  2.4832  1.8411
 1021MOL0     H37786   0.406   9.856   8.493  1.8167 -1.4605 -0.5578
 1021MOL0     H37787   0.227  10.045   8.433  0.6620  1.3896 -1.0824
 1021MOL0     H37788   0.209  10.075   8.271 -0.1064  1.4251  2.4746
 1021MOL0     H37789  -0.010   9.915   8.315 -1.4276 -0.8548  2.0295
 1021MOL0     H37790   0.002  10.088   8.373  0.4350  0.1548 -0.2643
 1021MOL0     H37791   0.087   9.984   8.587  1.7323 -0.0404 -1.5888
 1021MOL0     H37792   0.062   9.821   8.511  0.9468 -0.4074  0.7755
 1021MOL0     H37793  -0.148   9.833   8.622  0.2749 -1.5473 -1.3385
 1021MOL0     H37794  -0.186   9.923   8.471 -0.7789 -0.9658  1.0918
 1021MOL0     H37795  -0.197  10.206   8.828  1.5171 -2.3202  1.2619
 1021MOL0     H37796  -0.306  10.297   8.991  0.3776 -0.4658 -1.0615
 1021MOL0     H37797  -0.462  10.381   8.951  1.3776  0.8938  2.7289
 1021MOL0     H37798  -0.458  10.234   9.042 -1.7100  1.9628  0.1233
 1021MOL0     H37799  -0.924   9.894   8.708  0.1242 -0.4612  1.0515
 1021MOL0     H37800  -1.168   9.885   8.718 -0.4764  1.5062 -1.3438
 1021MOL0     H37801  -1.394  10.094   8.662  2.7193  0.8383  0.7629
 1021MOL0     H37802  -1.371   9.927   8.694 -0.0037 -0.3847  0.5593
 1021MOL0     H37803  -1.533   9.918   8.887 -0.0443  1.8101  1.7352
 1021MOL0     H37804  -1.567  10.084   8.864  0.8036 -0.1532  0.5087
 1021MOL0     H37805  -1.738   9.905   8.762 -0.7533  1.3143  2.4178
 1021MOL0     H37806  -1.620   9.892   8.632 -0.9454  0.6864  0.0201
 1021MOL0     H37807  -1.796  10.131   8.715 -1.7097  0.9727 -1.8084
 1021MOL0     H37808  -1.648  10.142   8.618 -0.6725  0.1109 -1.5799
 1021MOL0     H37809  -1.740   9.990   8.458 -0.9547 -2.3918  1.6687
 1021MOL0     H37810  -1.821  10.146   8.460  3.8616 -0.3612 -1.0939
 1021MOL0     H37811  -1.948   9.911   8.607 -0.3083  0.6906  0.5195
 1021MOL0     H37812  -2.003  10.078   8.560  1.5894  0.9005  1.7010
 1021MOL0     H37813  -1.895   9.900   8.343  1.7586  1.7917  1.7796
 1021MOL0     H37814  -2.006  10.030   8.330 -0.2130  0.2366 -0.1922
 1021MOL0     H37815  -2.084   9.772   8.469 -0.8436 -2.2987 -3.3673
 1021MOL0     H37816  -2.127   9.804   8.308 -1.6171 -0.4489  0.5372
 1021MOL0     H37817  -1.152  10.246   8.955  0.3278  0.4054 -0.4363
 1021MOL0     H37818  -0.915  10.265   8.923 -1.0305  1.3054 -1.9070
 1021MOL0     H37819  -0.591   9.972   8.640 -1.0683  1.0696  1.1079
 1021MOL0     H37820  -0.373   9.926   8.557  0.7582 -0.1678 -0.4273
 1021MOL0     H37821   1.485   9.274   8.942  2.3880 -1.4102  0.2136
 1021MOL0     H37822   1.715   9.338   8.997 -1.4127 -2.1970  1.7145
 1021MOL0     H37823   2.081   9.816   8.797 -1.1186 -0.5276 -1.2987
 1021MOL0     H37824   2.291   9.886   8.874  2.0026 -4.1308 -0.4805
 1021MOL0     H37825   2.377   9.964   9.235  0.2518  0.5091 -0.8844
 1021MOL0     H37826   2.361   9.811   9.317 -1.8335 -1.2127 -1.9046
 1021MOL0     H37827   2.605   9.762   9.296  0.5430 -0.2689 -0.1045
 1021MOL0     H37828   2.579   9.915   9.380  1.0637 -1.7486  0.1143
 1021MOL0     H37829   2.628  10.050   9.188 -0.4017  0.2109 -1.4712
 1021MOL0     H37830   2.650   9.903   9.089 -0.8942 -0.2907  0.1824
 1021MOL0     H37831   2.835   9.843   9.282  2.0709  0.4867 -0.6626
 1021MOL0     H37832   2.838  10.013   9.305  1.5966  0.0979 -1.9135
 1021MOL0     H37833   3.043   9.959   8.947 -0.5470 -0.4739 -0.7172
 1021MOL0     H37834   2.257   9.622   9.208  0.9725  2.5551  0.9060
 1021MOL0     H37835   2.032   9.558   9.144 -0.0721 -0.3728 -0.3281
 1022MOL0     O37836   2.884   4.232   9.549  0.5455 -0.3637  0.8285
 1022MOL0     C37837   2.969   4.146   9.545  0.1783 -0.5350 -0.1304
 1022MOL0     O37838   2.941   4.017   9.543 -0.3923  0.4092  0.7693
 1022MOL0     C37839   2.823   3.980   9.602  0.8492  0.1549 -0.5166
 1022MOL0     C37840   2.810   3.995   9.740  0.6191  0.3587  0.1772
 1022MOL0     C37841   2.692   3.959   9.804  0.8437  0.5806 -0.5781
 1022MOL0     C37842   2.587   3.909   9.732  0.5505  0.8333 -1.1411
 1022MOL0     O37843   2.472   3.860   9.798  0.0751  0.5497 -0.2556
 1022MOL0     C37844   2.344   3.897   9.746  0.3631  1.3083 -0.0144
 1022MOL0     C37845   2.236   3.924   9.849 -0.3123  0.1111 -0.8535
 1022MOL0     C37846   2.278   4.004   9.974  0.0024 -0.3376 -0.3102
 1022MOL0     C37847   2.313   4.151   9.947  0.4670  0.5506  0.8631
 1022MOL0     C37848   2.354   4.222  10.073  0.5940 -0.0488  0.2201
 1022MOL0     C37849   2.369   4.376  10.042 -0.2124  0.3497 -0.0969
 1022MOL0     C37850   2.242   4.453  10.009  0.0494 -0.1749 -0.5047
 1022MOL0     C37851   2.194   4.541  10.130 -1.0283  1.2638  0.5982
 1022MOL0     N37852   2.141   4.473  10.249 -0.3113  1.1108  0.1449
 1022MOL0     C37853   2.020   4.410  10.267  0.5201  0.2972  0.5163
 1022MOL0     C37854   2.022   4.376  10.402 -0.3341  0.5286  0.5246
 1022MOL0     C37855   1.904   4.317  10.476 -1.0085  0.8916  0.3989
 1022MOL0     C37856   1.794   4.415  10.486 -0.3332 -0.1189  0.1113
 1022MOL0     C37857   1.656   4.343  10.502  0.5973  0.3069 -0.7537
 1022MOL0     C37858   1.536   4.433  10.533  1.0139  0.3582 -0.5854
 1022MOL0     O37859   1.414   4.351  10.531 -0.2236 -1.1593 -0.1760
 1022MOL0     C37860   1.308   4.414  10.588 -0.4864 -0.4575  0.3301
 1022MOL0     C37861   1.291   4.543  10.630  1.0214  0.1965  0.6080
 1022MOL0     C37862   1.175   4.591  10.705  0.0683 -0.0335 -0.9940
 1022MOL0     C37863   1.192   4.723  10.771  0.7520 -0.8538  0.8502
 1022MOL0     C37864   1.069   4.501  10.723 -0.5671  0.3839 -0.7611
 1022MOL0     C37865   0.940   4.548  10.778 -0.3114  0.2411  0.5618
 1022MOL0     O37866   0.848   4.450  10.826  0.5867  0.5867 -0.0816
 1022MOL0     C37867   0.723   4.492  10.868 -0.2380  0.2943 -1.1542
 1022MOL0     C37868   0.693   4.500  11.007 -0.2060  0.4326  0.7984
 1022MOL0     C37869   0.572   4.553  11.045  0.0745 -0.0191  0.8251
 1022MOL0     C37870   0.476   4.587  10.947  0.9480 -0.2234  0.9319
 1022MOL0     O37871   0.354   4.625  11.001 -0.1459  0.2831  0.4804
 1022MOL0     C37872   0.252   4.653  10.900  0.1127  0.6319  0.0070
 1022MOL0     C37873   0.131   4.714  10.986 -0.7137 -0.0232  0.0759
 1022MOL0     C37874   0.055   4.811  10.887 -0.0146 -0.3425 -0.1469
 1022MOL0     C37875  -0.074   4.868  10.968  0.0822  0.1375 -0.0963
 1022MOL0     C37876  -0.163   4.960  10.884 -0.0206 -0.0337  0.0329
 1022MOL0     C37877  -0.243   5.069  10.950 -0.9592  0.1419  0.3787
 1022MOL0     C37878  -0.333   5.029  11.070  0.7874  0.0069 -0.1630
 1022MOL0     C37879  -0.453   5.124  11.081 -0.1359  0.8308  0.7013
 1022MOL0    Cl37880  -0.397   5.284  11.130  0.1382  0.1439 -0.0392
 1022MOL0     C37881   0.502   4.562  10.805  0.8682  0.1177 -0.3259
 1022MOL0     C37882   0.630   4.519  10.764  0.3316 -0.4785  0.2427
 1022MOL0     O37883   0.919   4.665  10.777 -0.1559  0.1072 -0.0740
 1022MOL0     C37884   1.090   4.365  10.684  0.3857 -0.5574 -0.0483
 1022MOL0     C37885   1.209   4.325  10.621  0.3559  0.3300  0.4149
 1022MOL0     N37886   2.151   4.399  10.450  0.0628 -1.0741 -0.1855
 1022MOL0     N37887   2.220   4.464  10.361  0.5070 -0.6710 -0.6359
 1022MOL0     C37888   2.594   3.908   9.596  0.4326  0.0827 -0.3277
 1022MOL0     C37889   2.713   3.939   9.529  0.5630  0.4826 -0.2369
 1022MOL0     C37890   3.112   4.186   9.542 -0.8959 -0.0416 -0.3269
 1022MOL0     C37891   3.207   4.108   9.617  0.5675  0.1572 -0.2203
 1022MOL0     C37892   3.342   4.126   9.604 -0.1604 -0.1529 -0.7057
 1022MOL0     C37893   3.393   4.221   9.510  0.3991 -0.1247  0.2497
 1022MOL0     O37894   3.527   4.222   9.482  0.7511 -0.4541  0.9508
 1022MOL0     C37895   3.617   4.244   9.588  0.3497  0.3764 -0.3401
 1022MOL0     C37896   3.653   4.392   9.604 -0.5215 -0.2213  0.1626
 1022MOL0     C37897   3.730   4.458   9.483  0.4866  0.5967  0.0300
 1022MOL0     C37898   3.859   4.383   9.437  1.5278  0.0029 -0.0584
 1022MOL0     C37899   3.964   4.372   9.539 -0.4038 -0.2982  0.1545
 1022MOL0     C37900   4.052   4.369   9.625 -0.2705  0.0133  0.9228
 1022MOL0     C37901   3.310   4.307   9.449  0.4172 -0.8729 -0.9085
 1022MOL0     C37902   3.173   4.295   9.473 -0.0730 -0.2454  0.3856
 1022MOL0     H37903   2.894   4.033   9.797  0.7263  0.6297 -0.1524
 1022MOL0     H37904   2.686   3.968   9.913  1.6316  0.3561 -0.5170
 1022MOL0     H37905   2.356   3.993   9.693  0.0090 -0.5421 -3.8060
 1022MOL0     H37906   2.316   3.819   9.675  4.2901 -0.6489  0.3363
 1022MOL0     H37907   2.156   3.975   9.795  1.1192  1.8540 -1.4053
 1022MOL0     H37908   2.211   3.826   9.892  2.9804 -0.4746  0.0102
 1022MOL0     H37909   2.192   3.999  10.041 -1.5837 -0.9272 -2.2881
 1022MOL0     H37910   2.363   3.951  10.018 -0.1524 -1.5119 -1.3814
 1022MOL0     H37911   2.390   4.162   9.870 -1.2939 -0.4462 -1.1350
 1022MOL0     H37912   2.225   4.204   9.908  1.0821  1.2416  0.3879
 1022MOL0     H37913   2.272   4.221  10.146 -2.0385  1.2247 -2.5064
 1022MOL0     H37914   2.444   4.186  10.124 -0.0555  0.8941  2.1701
 1022MOL0     H37915   2.422   4.422  10.126 -2.4864  0.6166  1.2643
 1022MOL0     H37916   2.430   4.381   9.951 -1.6232 -0.1626 -1.1047
 1022MOL0     H37917   2.260   4.515   9.921  0.2888  1.9451  0.9636
 1022MOL0     H37918   2.159   4.384   9.993 -1.3437  0.5128  2.9177
 1022MOL0     H37919   2.111   4.599  10.089 -1.2147  0.7294  0.2068
 1022MOL0     H37920   2.284   4.599  10.151  0.2872  0.7323 -2.8452
 1022MOL0     H37921   1.952   4.401  10.183 -1.4541  1.0152  1.9569
 1022MOL0     H37922   1.867   4.228  10.425 -0.8877  0.8803  0.3309
 1022MOL0     H37923   1.937   4.291  10.576  1.6800 -0.3065 -0.7084
 1022MOL0     H37924   1.779   4.469  10.393 -2.6751 -0.0750  0.4335
 1022MOL0     H37925   1.815   4.482  10.570  3.6504 -0.7939 -0.1638
 1022MOL0     H37926   1.656   4.265  10.579 -1.1772  1.7553  0.8311
 1022MOL0     H37927   1.641   4.299  10.404  2.1647  0.4618 -1.0915
 1022MOL0     H37928   1.521   4.506  10.454 -1.9008 -1.7089 -2.1478
 1022MOL0     H37929   1.545   4.496  10.622  0.2030 -0.8265  0.3804
 1022MOL0     H37930   1.364   4.620  10.610 -1.4475  1.8346 -3.1468
 1022MOL0     H37931   1.148   4.809  10.720  1.8589  0.8397  2.6430
 1022MOL0     H37932   1.160   4.710  10.875  1.6926 -3.1193  0.9144
 1022MOL0     H37933   1.299   4.743  10.764  0.4132  0.5854 -1.0456
 1022MOL0     H37934   0.758   4.475  11.090 -1.4804  1.5436  2.2003
 1022MOL0     H37935   0.554   4.550  11.152  0.7570  1.1389  0.9950
 1022MOL0     H37936   0.299   4.712  10.821  2.5614 -2.6299 -1.2339
 1022MOL0     H37937   0.220   4.555  10.862 -1.5425  0.0263  2.6982
 1022MOL0     H37938   0.066   4.631  11.017  2.3473 -1.9320  1.8700
 1022MOL0     H37939   0.169   4.769  11.073 -0.9693  1.8763 -0.9516
 1022MOL0     H37940   0.023   4.771  10.790  0.1813  2.0877 -1.2888
 1022MOL0     H37941   0.124   4.891  10.858  1.5156 -1.5260  0.1252
 1022MOL0     H37942  -0.132   4.779  10.997  3.4135 -2.1586  0.0631
 1022MOL0     H37943  -0.050   4.922  11.060  1.3400 -0.3117 -0.1407
 1022MOL0     H37944  -0.233   4.901  10.824 -1.1337  2.4632 -1.2786
 1022MOL0     H37945  -0.100   5.004  10.806 -1.5541 -1.5843 -2.2359
 1022MOL0     H37946  -0.185   5.150  10.995 -0.2844  0.2911 -0.7226
 1022MOL0     H37947  -0.304   5.111  10.869 -0.9445 -0.5022  0.0239
 1022MOL0     H37948  -0.283   5.041  11.167 -0.4064 -1.8655  0.7415
 1022MOL0     H37949  -0.368   4.926  11.059 -2.8322  1.1115 -0.1989
 1022MOL0     H37950  -0.532   5.090  11.148 -2.6030  0.9487 -1.9898
 1022MOL0     H37951  -0.510   5.136  10.988 -0.3170 -0.0308  0.6916
 1022MOL0     H37952   0.436   4.601  10.728  1.9596  1.7820 -0.4597
 1022MOL0     H37953   0.653   4.512  10.658 -3.5021  1.4582 -0.8796
 1022MOL0     H37954   1.002   4.302  10.699 -1.3134  2.2656  3.2835
 1022MOL0     H37955   1.221   4.219  10.600  1.0673  0.5339 -0.2430
 1022MOL0     H37956   2.515   3.869   9.531  0.6975  0.1387 -0.6885
 1022MOL0     H37957   2.723   3.925   9.421  2.6940 -0.1162 -0.0230
 1022MOL0     H37958   3.181   4.027   9.684  2.0741  0.0887  0.3123
 1022MOL0     H37959   3.410   4.060   9.656 -0.0938  2.3912  2.8041
 1022MOL0     H37960   3.573   4.234   9.687  2.7663 -0.7712  0.6931
 1022MOL0     H37961   3.700   4.174   9.574 -1.0375 -1.8360  1.7999
 1022MOL0     H37962   3.717   4.404   9.691 -0.2056  2.7192 -0.3603
 1022MOL0     H37963   3.569   4.459   9.625  0.2632  1.2337 -1.1412
 1022MOL0     H37964   3.748   4.565   9.499 -1.3166  1.2272 -1.7723
 1022MOL0     H37965   3.664   4.443   9.397  0.9025 -1.6365  0.0579
 1022MOL0     H37966   3.904   4.450   9.364  0.8494  2.7331  1.8766
 1022MOL0     H37967   3.835   4.290   9.384  2.3102  0.2598 -0.8857
 1022MOL0     H37968   4.144   4.354   9.678 -0.7031 -2.2608  1.1236
 1022MOL0     H37969   3.360   4.372   9.379  0.9322 -1.6283 -1.2496
 1022MOL0     H37970   3.110   4.371   9.428 -0.5845 -0.6605  0.3939
 1023MOL0     O37971   5.590   5.656   6.541  0.0799  0.0599  0.5920
 1023MOL0     C37972   5.673   5.566   6.505  0.5699  0.2090  0.1812
 1023MOL0     O37973   5.654   5.439   6.468  0.3379  0.2263  0.2076
 1023MOL0     C37974   5.528   5.413   6.416 -0.4825 -0.6198  0.9161
 1023MOL0     C37975   5.450   5.333   6.491  0.1566  0.3943  1.0249
 1023MOL0     C37976   5.319   5.294   6.457 -0.8334 -0.0157  1.0249
 1023MOL0     C37977   5.258   5.343   6.342  0.0761 -0.2717 -0.3907
 1023MOL0     O37978   5.127   5.314   6.313  0.0094 -0.2154  0.1504
 1023MOL0     C37979   5.034   5.322   6.420  0.6928 -0.3465  0.5894
 1023MOL0     C37980   4.902   5.363   6.353 -0.4257 -0.0016 -0.3695
 1023MOL0     C37981   4.842   5.269   6.254  0.0142  0.4882  1.0803
 1023MOL0     C37982   4.697   5.307   6.215  0.8513 -0.0611 -0.0851
 1023MOL0     C37983   4.640   5.238   6.082 -0.8255 -0.3939  0.0381
 1023MOL0     C37984   4.528   5.319   6.015 -0.1999 -1.0045 -1.0004
 1023MOL0     C37985   4.481   5.272   5.882 -0.3874 -0.5780 -0.9427
 1023MOL0     C37986   4.376   5.163   5.903  0.3481  0.0883  0.0108
 1023MOL0     N37987   4.306   5.143   5.773 -0.2376 -0.2974 -0.2788
 1023MOL0     C37988   4.356   5.132   5.648 -0.9448  0.6868  0.4061
 1023MOL0     C37989   4.259   5.169   5.559  0.7458  0.1986  0.2457
 1023MOL0     C37990   4.272   5.188   5.409 -0.1174 -0.2929 -0.2613
 1023MOL0     C37991   4.137   5.243   5.353 -0.8741 -0.4164 -0.1339
 1023MOL0     C37992   4.136   5.261   5.197 -0.0467 -0.0806  1.1041
 1023MOL0     C37993   3.990   5.276   5.150  0.4314 -0.1361  0.0265
 1023MOL0     O37994   3.930   5.398   5.191  0.0244  0.0746  0.1569
 1023MOL0     C37995   3.800   5.404   5.172  0.5298 -0.4544  0.1370
 1023MOL0     C37996   3.740   5.437   5.052  0.5893 -0.1337 -0.0866
 1023MOL0     C37997   3.602   5.449   5.035 -0.9456 -0.6438  0.2076
 1023MOL0     C37998   3.555   5.444   4.896  0.1148  0.0956  0.0464
 1023MOL0     C37999   3.514   5.440   5.146 -0.9701 -0.1121 -0.1925
 1023MOL0     C38000   3.372   5.447   5.144  0.1769 -1.1621  0.1050
 1023MOL0     O38001   3.306   5.425   5.263  0.1842 -0.2022  0.5046
 1023MOL0     C38002   3.170   5.452   5.269 -0.4936 -0.5866 -0.5761
 1023MOL0     C38003   3.118   5.581   5.258  0.7022 -0.3029  0.2633
 1023MOL0     C38004   2.983   5.603   5.289  0.0983  0.4426  0.1516
 1023MOL0     C38005   2.898   5.492   5.317 -0.4128  0.1350  0.1489
 1023MOL0     O38006   2.771   5.529   5.360  0.1699 -0.3165 -0.2689
 1023MOL0     C38007   2.694   5.426   5.426  0.3189 -0.7013 -0.6336
 1023MOL0     C38008   2.584   5.473   5.516  0.2542  0.3175 -0.0806
 1023MOL0     C38009   2.461   5.539   5.452  0.9882  0.3669  0.6240
 1023MOL0     C38010   2.352   5.572   5.551 -0.7623 -0.3272 -0.1577
 1023MOL0     C38011   2.223   5.632   5.481 -1.0880  0.8040  0.2706
 1023MOL0     C38012   2.114   5.662   5.577 -0.1852  0.3284 -0.2466
 1023MOL0     C38013   1.977   5.698   5.506 -0.8141 -0.2168  0.1861
 1023MOL0     C38014   1.871   5.735   5.603  0.2302  0.5013  0.3884
 1023MOL0    Cl38015   1.724   5.802   5.525 -0.0805  0.4334 -0.1041
 1023MOL0     C38016   2.951   5.361   5.314  0.2800  0.2269 -0.0224
 1023MOL0     C38017   3.086   5.341   5.285  0.6096  0.4689 -0.5317
 1023MOL0     O38018   3.316   5.481   5.041 -0.0096  0.5509 -0.0448
 1023MOL0     C38019   3.578   5.417   5.275  0.2093  0.3011  0.1792
 1023MOL0     C38020   3.711   5.392   5.281 -0.8195 -0.4136 -0.1292
 1023MOL0     N38021   4.148   5.184   5.639  0.0393  0.2591  0.2792
 1023MOL0     N38022   4.174   5.164   5.763 -0.8882  0.3386  0.2812
 1023MOL0     C38023   5.339   5.427   6.260  0.6055 -0.2795  1.1072
 1023MOL0     C38024   5.478   5.456   6.291  0.9430  0.2103  0.0635
 1023MOL0     C38025   5.810   5.611   6.520  0.2298  0.1318 -0.3758
 1023MOL0     C38026   5.918   5.531   6.490 -0.3891 -0.2177  0.0064
 1023MOL0     C38027   6.049   5.572   6.497 -0.4110 -0.6813 -0.3145
 1023MOL0     C38028   6.082   5.706   6.539  0.7443 -0.1389  0.7207
 1023MOL0     O38029   6.214   5.728   6.558 -0.5163  0.2183 -0.7694
 1023MOL0     C38030   6.265   5.865   6.571  0.8732  0.2982 -0.5143
 1023MOL0     C38031   6.392   5.890   6.487 -0.4721  0.1769 -0.4543
 1023MOL0     C38032   6.507   5.797   6.527 -1.0687  0.3658 -0.5088
 1023MOL0     C38033   6.626   5.814   6.434 -0.3456  0.4436  1.2257
 1023MOL0     C38034   6.755   5.796   6.492 -0.0515 -0.3138  0.5802
 1023MOL0     C38035   6.859   5.785   6.548 -1.0146  0.1194 -0.5717
 1023MOL0     C38036   5.978   5.789   6.573 -0.0069  0.0137 -0.0419
 1023MOL0     C38037   5.843   5.736   6.569 -0.4307  0.3164 -0.5242
 1023MOL0     H38038   5.495   5.309   6.587 -1.1591  1.6718  2.0090
 1023MOL0     H38039   5.255   5.228   6.515 -0.1987 -0.2719  1.4433
 1023MOL0     H38040   5.016   5.228   6.474 -2.0846 -0.3044 -0.0892
 1023MOL0     H38041   5.058   5.404   6.488  0.1081  0.8439 -0.5884
 1023MOL0     H38042   4.825   5.396   6.424  0.8367  1.2950  0.4663
 1023MOL0     H38043   4.929   5.459   6.308 -0.1182  0.7668  1.3698
 1023MOL0     H38044   4.902   5.267   6.163  0.9792 -0.6204  1.7287
 1023MOL0     H38045   4.834   5.167   6.294 -0.7476  0.6456  1.3587
 1023MOL0     H38046   4.632   5.282   6.299  1.4544 -1.5249 -0.0126
 1023MOL0     H38047   4.703   5.415   6.200 -2.5469  0.3329  0.7497
 1023MOL0     H38048   4.724   5.215   6.015 -0.5446 -0.5602  0.4431
 1023MOL0     H38049   4.603   5.138   6.102 -2.9285  0.0365 -1.3678
 1023MOL0     H38050   4.449   5.321   6.090  0.3191 -0.0291 -0.4634
 1023MOL0     H38051   4.557   5.423   6.001 -2.4235 -0.2356 -0.3001
 1023MOL0     H38052   4.434   5.353   5.827  2.1025  1.3722 -0.3592
 1023MOL0     H38053   4.563   5.239   5.818  0.7866 -2.1986  1.2545
 1023MOL0     H38054   4.303   5.194   5.978  1.8043  1.0266  1.0726
 1023MOL0     H38055   4.419   5.065   5.928  0.2010  0.0526  0.1250
 1023MOL0     H38056   4.457   5.101   5.625 -0.9535  1.3477 -0.6255
 1023MOL0     H38057   4.349   5.263   5.394 -0.1332 -0.0854  0.6428
 1023MOL0     H38058   4.299   5.090   5.368 -1.5847 -0.4720 -0.8507
 1023MOL0     H38059   4.098   5.338   5.390 -0.4949  0.4669 -1.8943
 1023MOL0     H38060   4.071   5.163   5.389 -0.7708 -0.6485 -0.4603
 1023MOL0     H38061   4.166   5.167   5.150  3.3425  0.6070  1.6735
 1023MOL0     H38062   4.201   5.340   5.159  1.6838  0.0196  3.9903
 1023MOL0     H38063   3.940   5.195   5.203 -0.4143 -1.0558 -2.0642
 1023MOL0     H38064   3.978   5.249   5.045  0.3921 -0.0418  0.0067
 1023MOL0     H38065   3.804   5.437   4.965  0.4686 -1.9416 -0.2091
 1023MOL0     H38066   3.522   5.341   4.876  1.9331 -0.6454  0.6421
 1023MOL0     H38067   3.478   5.519   4.879 -0.6358 -0.6007  0.3064
 1023MOL0     H38068   3.640   5.477   4.835  0.5899  0.7587  1.0484
 1023MOL0     H38069   3.179   5.661   5.217 -1.4557  1.2721 -0.0827
 1023MOL0     H38070   2.942   5.702   5.271 -0.0527  0.3973  0.2451
 1023MOL0     H38071   2.653   5.354   5.355  2.7657 -2.2379 -0.6285
 1023MOL0     H38072   2.752   5.369   5.499 -2.2942  0.3863  2.4719
 1023MOL0     H38073   2.554   5.397   5.589 -0.0988  2.2883  1.9276
 1023MOL0     H38074   2.628   5.544   5.586 -0.8222  0.0795  0.8668
 1023MOL0     H38075   2.425   5.470   5.375  0.0472  1.9597 -0.4384
 1023MOL0     H38076   2.491   5.632   5.401  0.6093  1.1967  1.8710
 1023MOL0     H38077   2.326   5.486   5.614 -2.2655 -0.2306 -0.6110
 1023MOL0     H38078   2.402   5.639   5.621 -1.5193 -2.2305  2.3644
 1023MOL0     H38079   2.201   5.561   5.401  1.6416  1.5544 -1.2709
 1023MOL0     H38080   2.247   5.725   5.427 -1.0998  0.2857 -0.6481
 1023MOL0     H38081   2.103   5.572   5.639 -1.0302  0.0124 -0.8427
 1023MOL0     H38082   2.157   5.738   5.642  3.4453 -1.5647 -0.1712
 1023MOL0     H38083   1.958   5.607   5.450  3.7567 -0.4424 -1.3989
 1023MOL0     H38084   2.001   5.778   5.435  1.0501 -0.2058  0.7751
 1023MOL0     H38085   1.912   5.807   5.674  1.7449 -0.3778  0.4498
 1023MOL0     H38086   1.842   5.652   5.668  1.0188  0.2505  0.4236
 1023MOL0     H38087   2.881   5.279   5.325  0.2806  0.1607 -0.4718
 1023MOL0     H38088   3.124   5.240   5.292  1.7585  0.9395  0.5510
 1023MOL0     H38089   3.523   5.411   5.368 -1.9103 -0.5893 -1.0474
 1023MOL0     H38090   3.758   5.381   5.378  1.0507  0.7610 -0.8475
 1023MOL0     H38091   5.285   5.471   6.177 -1.3369 -2.1141  1.3053
 1023MOL0     H38092   5.543   5.512   6.225 -1.9625 -1.1276 -4.3275
 1023MOL0     H38093   5.880   5.434   6.461  0.7394 -0.4792 -0.6567
 1023MOL0     H38094   6.134   5.506   6.490  0.5050  0.2432  1.4286
 1023MOL0     H38095   6.188   5.933   6.532  1.1764  1.2801  0.5525
 1023MOL0     H38096   6.294   5.891   6.673  0.5082  2.4201 -0.9101
 1023MOL0     H38097   6.424   5.993   6.504  1.5702 -0.7662  2.0761
 1023MOL0     H38098   6.355   5.868   6.386 -0.7841 -2.8491  0.2322
 1023MOL0     H38099   6.468   5.695   6.522 -0.8645  0.2990 -0.7689
 1023MOL0     H38100   6.545   5.815   6.628  0.3719 -0.7961 -0.7908
 1023MOL0     H38101   6.625   5.908   6.378  0.0062  0.5068  1.3212
 1023MOL0     H38102   6.612   5.729   6.367 -2.0399  1.0587  0.7444
 1023MOL0     H38103   6.959   5.778   6.585 -0.8843  2.4588 -0.3546
 1023MOL0     H38104   5.993   5.889   6.611 -0.0027 -0.9533  2.6669
 1023MOL0     H38105   5.769   5.805   6.609 -1.1908 -0.3841 -0.7110
 1024MOL0     O38106   7.711   6.335   2.103 -1.1151 -0.0489 -0.3279
 1024MOL0     C38107   7.744   6.335   2.219  0.4027 -0.0820 -0.1633
 1024MOL0     O38108   7.652   6.339   2.325 -0.1979 -0.3277  0.1340
 1024MOL0     C38109   7.520   6.360   2.288 -0.5280 -0.5122  0.0702
 1024MOL0     C38110   7.452   6.261   2.205  0.1393  0.2931 -1.0056
 1024MOL0     C38111   7.318   6.282   2.172  0.0590  0.4048  0.2761
 1024MOL0     C38112   7.254   6.400   2.210  0.2665 -0.3858 -0.2859
 1024MOL0     O38113   7.137   6.445   2.172  0.2278 -0.3165  0.5509
 1024MOL0     C38114   7.088   6.389   2.049  0.0906  0.3444 -0.3664
 1024MOL0     C38115   6.962   6.469   2.005 -0.2703  0.0893 -0.6426
 1024MOL0     C38116   6.897   6.431   1.866 -0.1259  0.7333 -0.5676
 1024MOL0     C38117   6.952   6.504   1.746  0.2715  0.7040  0.2998
 1024MOL0     C38118   6.913   6.443   1.607 -0.5967  0.3506 -0.1996
 1024MOL0     C38119   6.757   6.457   1.584  0.2533 -0.6119 -0.1119
 1024MOL0     C38120   6.700   6.382   1.469  0.1397  0.1829  0.5066
 1024MOL0     C38121   6.700   6.227   1.488  0.0548  0.2136 -0.7125
 1024MOL0     N38122   6.610   6.169   1.392  0.9412  0.4627  0.3464
 1024MOL0     C38123   6.649   6.153   1.261 -0.2521 -0.0459 -0.2326
 1024MOL0     C38124   6.548   6.061   1.223  0.2885 -0.2339 -0.4093
 1024MOL0     C38125   6.540   6.011   1.072 -0.4686 -0.1562 -0.0460
 1024MOL0     C38126   6.448   6.089   0.981  0.0176 -0.4674 -0.1970
 1024MOL0     C38127   6.514   6.223   0.937  0.6976 -0.0868  0.8928
 1024MOL0     C38128   6.402   6.322   0.887  0.1625 -0.9368  0.4166
 1024MOL0     O38129   6.330   6.268   0.777  0.1379 -0.4460  0.2828
 1024MOL0     C38130   6.230   6.335   0.721  0.2726 -0.8507 -0.2037
 1024MOL0     C38131   6.127   6.266   0.657 -0.3472 -0.1942  1.2454
 1024MOL0     C38132   6.028   6.327   0.582  0.2818  1.0256 -0.6164
 1024MOL0     C38133   5.912   6.237   0.536  0.3289 -0.1676 -0.6246
 1024MOL0     C38134   6.031   6.467   0.572 -0.3043 -0.2052 -0.0459
 1024MOL0     C38135   5.946   6.549   0.491  1.2208  0.1834 -0.2256
 1024MOL0     O38136   5.985   6.675   0.476  0.5591  0.5097  0.2645
 1024MOL0     C38137   5.898   6.756   0.429  0.0737 -0.5629  0.1110
 1024MOL0     C38138   5.874   6.767   0.294 -0.3644  0.1866 -0.7643
 1024MOL0     C38139   5.800   6.879   0.250  1.0495  0.2833  0.5635
 1024MOL0     C38140   5.739   6.969   0.337  0.0617 -0.4020  0.2203
 1024MOL0     O38141   5.662   7.074   0.294 -0.3270 -0.5391  0.1683
 1024MOL0     C38142   5.544   7.116   0.365 -0.5646  0.5495 -0.2424
 1024MOL0     C38143   5.449   7.184   0.271 -0.7399 -0.7930 -0.2968
 1024MOL0     C38144   5.356   7.087   0.198 -0.9941 -0.4428 -0.8389
 1024MOL0     C38145   5.242   7.157   0.125 -0.4801 -0.0807 -0.5099
 1024MOL0     C38146   5.293   7.188  -0.019  0.4492 -1.1221  0.1832
 1024MOL0     C38147   5.187   7.234  -0.122  0.5821  0.0619  0.3136
 1024MOL0     C38148   5.249   7.236  -0.264  0.0085 -0.0788  0.0024
 1024MOL0     C38149   5.320   7.371  -0.302 -0.7677 -0.1025 -0.1422
 1024MOL0    Cl38150   5.222   7.511  -0.291 -0.7832 -0.0491  0.6793
 1024MOL0     C38151   5.767   6.953   0.472  0.4423  0.5962 -0.7712
 1024MOL0     C38152   5.845   6.844   0.519  0.4758 -0.0299  0.2703
 1024MOL0     O38153   5.840   6.496   0.457  1.2337 -0.0333  0.1139
 1024MOL0     C38154   6.123   6.539   0.646 -0.1843  0.3887  0.5522
 1024MOL0     C38155   6.223   6.471   0.726  0.5159 -0.0248  1.1067
 1024MOL0     N38156   6.459   6.033   1.323  0.3206  0.0403 -0.9886
 1024MOL0     N38157   6.501   6.091   1.431 -0.0257 -0.3902  0.1074
 1024MOL0     C38158   7.326   6.492   2.295  0.2111 -0.5925 -0.0952
 1024MOL0     C38159   7.460   6.476   2.328  0.5389 -0.7436 -0.1938
 1024MOL0     C38160   7.881   6.318   2.243 -0.3953  0.1358 -1.0139
 1024MOL0     C38161   7.916   6.308   2.377 -0.8026  0.1476 -0.1207
 1024MOL0     C38162   8.047   6.284   2.420  0.8430 -0.0654 -0.4634
 1024MOL0     C38163   8.153   6.282   2.330 -0.2275  0.0495  0.6502
 1024MOL0     O38164   8.285   6.268   2.368  0.1274 -0.3688 -0.2765
 1024MOL0     C38165   8.334   6.285   2.500 -0.6171 -0.2590 -0.0337
 1024MOL0     C38166   8.482   6.317   2.498 -0.6195 -0.8168  0.4607
 1024MOL0     C38167   8.526   6.441   2.426  0.3165  0.0301 -0.2329
 1024MOL0     C38168   8.676   6.453   2.443  0.7448 -0.3103  0.1063
 1024MOL0     C38169   8.748   6.353   2.365 -0.2491  0.3256  0.8312
 1024MOL0     C38170   8.792   6.274   2.284  0.1174  0.6343 -0.2445
 1024MOL0     C38171   8.120   6.290   2.195  0.0189  0.1945 -1.0506
 1024MOL0     C38172   7.982   6.303   2.148  0.1003  0.0553  0.1956
 1024MOL0     H38173   7.500   6.170   2.171  1.3599  1.6799 -3.2560
 1024MOL0     H38174   7.263   6.211   2.111 -0.7702  1.0128  0.2877
 1024MOL0     H38175   7.168   6.376   1.975  0.6293 -0.9541  0.4148
 1024MOL0     H38176   7.056   6.286   2.068  2.2466 -0.5653 -1.3915
 1024MOL0     H38177   6.894   6.450   2.088 -1.3571  1.1950 -1.2414
 1024MOL0     H38178   6.979   6.577   2.001  0.7883  0.1135  2.1679
 1024MOL0     H38179   6.901   6.323   1.845 -1.1217  1.0232 -2.4095
 1024MOL0     H38180   6.790   6.445   1.878 -0.1784 -0.0213 -0.0072
 1024MOL0     H38181   6.926   6.610   1.751 -0.8375  0.5294 -1.1924
 1024MOL0     H38182   7.059   6.489   1.762  0.6296  0.6113 -1.8453
 1024MOL0     H38183   6.961   6.483   1.517  1.4696  0.6777  0.9766
 1024MOL0     H38184   6.936   6.337   1.615  0.8946  0.7504  2.0426
 1024MOL0     H38185   6.703   6.426   1.674 -2.0171  0.0903 -1.1578
 1024MOL0     H38186   6.729   6.560   1.559 -2.7125 -1.3297 -0.0844
 1024MOL0     H38187   6.595   6.410   1.470 -0.2409 -0.7895 -2.4176
 1024MOL0     H38188   6.743   6.408   1.372  0.9951 -1.8625  0.2819
 1024MOL0     H38189   6.667   6.208   1.590  2.1381 -0.9229 -0.1734
 1024MOL0     H38190   6.797   6.176   1.482 -0.8093 -2.4083  3.5038
 1024MOL0     H38191   6.734   6.188   1.203 -0.0205  0.9953  0.6968
 1024MOL0     H38192   6.640   6.002   1.030 -0.0332  2.5290  0.2446
 1024MOL0     H38193   6.502   5.909   1.072  2.4362 -1.3264  0.2777
 1024MOL0     H38194   6.355   6.102   1.036  0.4293  1.6669  0.0990
 1024MOL0     H38195   6.421   6.040   0.887  0.1543 -1.3608  0.2211
 1024MOL0     H38196   6.593   6.201   0.865 -0.9940 -1.9917 -0.5238
 1024MOL0     H38197   6.557   6.271   1.025  2.6504  1.5034 -0.8387
 1024MOL0     H38198   6.460   6.411   0.864 -1.5102  0.3630  1.0589
 1024MOL0     H38199   6.336   6.349   0.969 -0.4487  1.5033 -0.8047
 1024MOL0     H38200   6.132   6.157   0.659  1.0029 -0.1575  0.6659
 1024MOL0     H38201   5.814   6.276   0.563  0.6115 -0.2155  0.5399
 1024MOL0     H38202   5.929   6.221   0.429  2.1912 -0.5666 -0.3167
 1024MOL0     H38203   5.906   6.142   0.591 -3.6536  1.4754  2.2684
 1024MOL0     H38204   5.906   6.690   0.223  2.5198  0.7724 -0.2436
 1024MOL0     H38205   5.788   6.886   0.142  0.6412 -1.0936  0.5024
 1024MOL0     H38206   5.506   7.025   0.412 -1.4531  1.8044  1.5928
 1024MOL0     H38207   5.563   7.182   0.450 -1.6458 -0.7925  1.0899
 1024MOL0     H38208   5.396   7.258   0.332 -0.0836 -2.8337  2.9969
 1024MOL0     H38209   5.501   7.249   0.200  0.3483  0.3233  1.4515
 1024MOL0     H38210   5.321   7.030   0.285 -2.6814  0.3135 -0.9937
 1024MOL0     H38211   5.411   7.019   0.131 -2.1727  0.4125 -2.7322
 1024MOL0     H38212   5.158   7.086   0.128 -1.9764  1.5698 -1.3204
 1024MOL0     H38213   5.207   7.252   0.166 -0.6147  0.6877 -2.2849
 1024MOL0     H38214   5.333   7.094  -0.056 -1.7629 -2.1184  0.1246
 1024MOL0     H38215   5.368   7.267  -0.014 -1.4397  0.8648 -0.7704
 1024MOL0     H38216   5.105   7.163  -0.122 -0.2751  0.9843 -1.3487
 1024MOL0     H38217   5.133   7.327  -0.101  0.0607 -0.1949  0.1278
 1024MOL0     H38218   5.166   7.237  -0.335  0.8292  3.8105 -1.1631
 1024MOL0     H38219   5.320   7.153  -0.271  0.0117 -0.3559  2.4180
 1024MOL0     H38220   5.366   7.358  -0.400  3.3208 -0.3020  1.6234
 1024MOL0     H38221   5.402   7.380  -0.230  1.3768 -0.9019 -2.3704
 1024MOL0     H38222   5.735   7.031   0.540  1.6206 -0.3383  0.9442
 1024MOL0     H38223   5.869   6.836   0.625  0.9039 -0.1854  0.1632
 1024MOL0     H38224   6.139   6.647   0.642  2.6328  0.0121 -1.9751
 1024MOL0     H38225   6.301   6.521   0.782  1.6496 -1.7448  1.1517
 1024MOL0     H38226   7.271   6.578   2.333 -2.1203 -1.7704 -0.5998
 1024MOL0     H38227   7.510   6.550   2.390  0.3035 -2.1341  1.7632
 1024MOL0     H38228   7.841   6.308   2.455 -2.0926  1.1354 -1.3159
 1024MOL0     H38229   8.065   6.257   2.523  2.7644  1.5831 -0.3017
 1024MOL0     H38230   8.288   6.378   2.535  0.2832 -0.0986  0.7443
 1024MOL0     H38231   8.319   6.206   2.573  2.1034 -0.7928  0.0381
 1024MOL0     H38232   8.536   6.237   2.447  0.2719 -0.8462  1.4346
 1024MOL0     H38233   8.522   6.322   2.599  0.0783 -0.4653  0.1705
 1024MOL0     H38234   8.472   6.530   2.459  2.3383  1.0407  0.5323
 1024MOL0     H38235   8.506   6.423   2.320 -2.1508  0.8366  0.0461
 1024MOL0     H38236   8.714   6.449   2.546  2.9328 -0.6572 -0.6751
 1024MOL0     H38237   8.703   6.551   2.402 -2.1037  0.6760  0.3527
 1024MOL0     H38238   8.817   6.222   2.194 -1.5667 -0.7339  0.0410
 1024MOL0     H38239   8.196   6.265   2.122 -0.2925  0.6971 -1.5557
 1024MOL0     H38240   7.955   6.308   2.043 -3.1206  1.2750  0.9876
  11.29122  11.29122  11.29122
